<event>
 8    1  0.1079508E+005  0.1043930E+01  0.7957747E-01            NaN
         13   -1    0    0    0    0  0.00000000000E+00  0.00000000000E+00  0.74505805969E-08  0.10566000000E+00  0.10566000000E+00 0. -1.
     999900   -1    0    0    0    0 -0.00000000000E+00 -0.00000000000E+00 -0.74505805969E-08  0.93827000000E+00  0.93827000000E+00 0. -1.
     999902    2    1    2    0    0  0.93243657533E-02 -0.20528835857E-01 -0.77945897824E-02  0.10200735013E+01  0.10197944968E+01 0.  0.
     999903    2    3    3    0    0 -0.11106355527E+00 -0.19300514347E-01 -0.62197673866E-01  0.13021145818E+00  0.19464070585E-01 0.  0.
         14    1    1    2    0    0 -0.93243657533E-02  0.20528835857E-01  0.77945897824E-02  0.23856498658E-01  0.00000000000E+00 0.  1.
     999901    1    3    3    0    0  0.12038792102E+00 -0.12283215100E-02  0.54403084083E-01  0.88986204316E+00  0.88000000000E+00 0.  1.
        -11    1    4    4    0    0 -0.60782258548E-01 -0.68020703985E-02 -0.43795551087E-01  0.75226740804E-01  0.51100000000E-03 0. -1.
         11    1    4    4    0    0 -0.50281296722E-01 -0.12498443948E-01 -0.18402122778E-01  0.54984717376E-01  0.51100000000E-03 0.  1.
</event>
<event>
 8    1  0.1079508E+005  0.1043930E+01  0.7957747E-01            NaN
         13   -1    0    0    0    0  0.00000000000E+00  0.00000000000E+00  0.74505805969E-08  0.10566000000E+00  0.10566000000E+00 0. -1.
     999900   -1    0    0    0    0 -0.00000000000E+00 -0.00000000000E+00 -0.74505805969E-08  0.93827000000E+00  0.93827000000E+00 0.  1.
     999902    2    1    2    0    0 -0.12826264347E-01 -0.51733067371E-02  0.18531620784E-01  0.10208064811E+01  0.10205445481E+01 0.  0.
     999903    2    3    3    0    0 -0.50319097103E-01 -0.26025460299E-01  0.11864023181E+00  0.13409217598E+00  0.26379365748E-01 0.  0.
         14    1    1    2    0    0  0.12826264347E-01  0.51733067371E-02 -0.18531620784E-01  0.23123518949E-01  0.00000000000E+00 0.  1.
     999901    1    3    3    0    0  0.37492832755E-01  0.20852153562E-01 -0.10010861103E+00  0.88671430507E+00  0.88000000000E+00 0.  1.
        -11    1    4    4    0    0 -0.26070264140E-02 -0.53514947345E-02  0.35713470800E-01  0.36209780450E-01  0.51100000000E-03 0. -1.
         11    1    4    4    0    0 -0.47712070689E-01 -0.20673965565E-01  0.82926761013E-01  0.97882395530E-01  0.51100000000E-03 0.  1.
</event>
<event>
 8    1  0.1079508E+005  0.1043930E+01  0.7957747E-01            NaN
         13   -1    0    0    0    0  0.00000000000E+00  0.00000000000E+00  0.74505805969E-08  0.10566000000E+00  0.10566000000E+00 0.  1.
     999900   -1    0    0    0    0 -0.00000000000E+00 -0.00000000000E+00 -0.74505805969E-08  0.93827000000E+00  0.93827000000E+00 0. -1.
     999902    2    1    2    0    0  0.18528253478E-01  0.70418149331E-04  0.16914409994E-04  0.10254016050E+01  0.10252341928E+01 0.  0.
     999903    2    3    3    0    0  0.16138237491E-01 -0.10755122840E+00  0.78155021996E-01  0.13540514722E+00  0.19965895672E-01 0.  0.
         14    1    1    2    0    0 -0.18528253478E-01 -0.70418149331E-04 -0.16914409994E-04  0.18528395013E-01  0.00000000000E+00 0.  1.
     999901    1    3    3    0    0  0.23900159875E-02  0.10762164655E+00 -0.78138107586E-01  0.88999645777E+00  0.88000000000E+00 0.  1.
        -11    1    4    4    0    0 -0.21249848665E-02 -0.27829361624E-01  0.27586008134E-01  0.39245864685E-01  0.51100000000E-03 0.  1.
         11    1    4    4    0    0  0.18263222357E-01 -0.79721866778E-01  0.50569013863E-01  0.96159282534E-01  0.51100000000E-03 0. -1.
</event>
<event>
 8    1  0.1079508E+005  0.1043930E+01  0.7957747E-01            NaN
         13   -1    0    0    0    0  0.00000000000E+00  0.00000000000E+00  0.74505805969E-08  0.10566000000E+00  0.10566000000E+00 0. -1.
     999900   -1    0    0    0    0 -0.00000000000E+00 -0.00000000000E+00 -0.74505805969E-08  0.93827000000E+00  0.93827000000E+00 0.  1.
     999902    2    1    2    0    0  0.15764234378E-01 -0.87610182601E-02  0.18019625244E-01  0.10184354237E+01  0.10181162698E+01 0.  0.
     999903    2    3    3    0    0 -0.90793242811E-01  0.84085050213E-01 -0.17164491928E-01  0.12646411785E+00  0.19617459315E-01 0.  0.
         14    1    1    2    0    0 -0.15764234378E-01  0.87610182601E-02 -0.18019625244E-01  0.25494576294E-01  0.00000000000E+00 0.  1.
     999901    1    3    3    0    0  0.10655747719E+00 -0.92846068473E-01  0.35184117172E-01  0.89197130586E+00  0.88000000000E+00 0. -1.
        -11    1    4    4    0    0 -0.71438667030E-01  0.64978385792E-01 -0.50952019695E-02  0.96705201366E-01  0.51100000000E-03 0.  1.
         11    1    4    4    0    0 -0.19354575781E-01  0.19106664421E-01 -0.12069289958E-01  0.29758916480E-01  0.51100000000E-03 0. -1.
</event>
<event>
 8    1  0.1079508E+005  0.1043930E+01  0.7957747E-01            NaN
         13   -1    0    0    0    0  0.00000000000E+00  0.00000000000E+00  0.74505805969E-08  0.10566000000E+00  0.10566000000E+00 0.  1.
     999900   -1    0    0    0    0 -0.00000000000E+00 -0.00000000000E+00 -0.74505805969E-08  0.93827000000E+00  0.93827000000E+00 0. -1.
     999902    2    1    2    0    0 -0.76807158516E-02 -0.13525097143E-01  0.17735955266E-01  0.10203400496E+01  0.10200673170E+01 0.  0.
     999903    2    3    3    0    0  0.70829401870E-01  0.10329315699E+00  0.24353709372E-01  0.12913068156E+00  0.19883392814E-01 0.  0.
         14    1    1    2    0    0  0.76807158516E-02  0.13525097143E-01 -0.17735955266E-01  0.23589950359E-01  0.00000000000E+00 0.  1.
     999901    1    3    3    0    0 -0.78510117721E-01 -0.11681825413E+00 -0.66177541054E-02  0.89120936808E+00  0.88000000000E+00 0. -1.
        -11    1    4    4    0    0  0.39884460361E-01  0.68094662568E-01  0.23160977755E-01  0.82245639763E-01  0.51100000000E-03 0.  1.
         11    1    4    4    0    0  0.30944941509E-01  0.35198494424E-01  0.11927316170E-02  0.46885041799E-01  0.51100000000E-03 0. -1.
</event>
<event>
 8    1  0.1079508E+005  0.1043930E+01  0.7957747E-01            NaN
         13   -1    0    0    0    0  0.00000000000E+00  0.00000000000E+00  0.74505805969E-08  0.10566000000E+00  0.10566000000E+00 0. -1.
     999900   -1    0    0    0    0 -0.00000000000E+00 -0.00000000000E+00 -0.74505805969E-08  0.93827000000E+00  0.93827000000E+00 0.  1.
     999902    2    1    2    0    0  0.91853771532E-03 -0.19049968892E-01 -0.58908226537E-02  0.10239688673E+01  0.10237742888E+01 0.  0.
     999903    2    3    3    0    0  0.89962216457E-02 -0.79923887716E-01 -0.10760382625E+00  0.13598439782E+00  0.21081109945E-01 0.  0.
         14    1    1    2    0    0 -0.91853771532E-03  0.19049968892E-01  0.58908226537E-02  0.19961132680E-01  0.00000000000E+00 0.  1.
     999901    1    3    3    0    0 -0.80776839304E-02  0.60873918824E-01  0.10171300359E+00  0.88798446950E+00  0.88000000000E+00 0. -1.
        -11    1    4    4    0    0  0.15307343174E-01 -0.60800621390E-01 -0.76271527795E-01  0.98735188204E-01  0.51100000000E-03 0.  1.
         11    1    4    4    0    0 -0.63111215279E-02 -0.19123266326E-01 -0.31332298451E-01  0.37249209618E-01  0.51100000000E-03 0. -1.
</event>
<event>
 8    1  0.1079508E+005  0.1043930E+01  0.7957747E-01            NaN
         13   -1    0    0    0    0  0.00000000000E+00  0.00000000000E+00  0.74505805969E-08  0.10566000000E+00  0.10566000000E+00 0. -1.
     999900   -1    0    0    0    0 -0.00000000000E+00 -0.00000000000E+00 -0.74505805969E-08  0.93827000000E+00  0.93827000000E+00 0. -1.
     999902    2    1    2    0    0 -0.17465473762E-01  0.16487915306E-01 -0.12352982574E-02  0.10198796344E+01  0.10195960222E+01 0.  0.
     999903    2    3    3    0    0 -0.65965133939E-02 -0.78398049549E-01 -0.10043761148E+00  0.12917060244E+00  0.20188179044E-01 0.  0.
         14    1    1    2    0    0  0.17465473762E-01 -0.16487915306E-01  0.12352982574E-02  0.24050365624E-01  0.00000000000E+00 0.  1.
     999901    1    3    3    0    0 -0.10868960368E-01  0.94885964855E-01  0.99202313220E-01  0.89070903194E+00  0.88000000000E+00 0.  1.
        -11    1    4    4    0    0 -0.13468916872E-01 -0.44968121962E-01 -0.61953367350E-01  0.77730460963E-01  0.51100000000E-03 0. -1.
         11    1    4    4    0    0  0.68724034777E-02 -0.33429927587E-01 -0.38484244127E-01  0.51440141476E-01  0.51100000000E-03 0.  1.
</event>
<event>
 8    1  0.1079508E+005  0.1043930E+01  0.7957747E-01            NaN
         13   -1    0    0    0    0  0.00000000000E+00  0.00000000000E+00  0.74505805969E-08  0.10566000000E+00  0.10566000000E+00 0. -1.
     999900   -1    0    0    0    0 -0.00000000000E+00 -0.00000000000E+00 -0.74505805969E-08  0.93827000000E+00  0.93827000000E+00 0. -1.
     999902    2    1    2    0    0  0.22829079633E-01  0.11507579491E-03 -0.64318343530E-02  0.10202118927E+01  0.10199361536E+01 0.  0.
     999903    2    3    3    0    0 -0.10909064498E+00  0.20104284455E-01 -0.61482469814E-01  0.12845354280E+00  0.20378112967E-01 0.  0.
         14    1    1    2    0    0 -0.22829079633E-01 -0.11507579491E-03  0.64318343530E-02  0.23718107270E-01  0.00000000000E+00 0. -1.
     999901    1    3    3    0    0  0.13191972461E+00 -0.19989208660E-01  0.55050635461E-01  0.89175834993E+00  0.88000000000E+00 0. -1.
        -11    1    4    4    0    0 -0.10078561141E-01  0.81865403640E-02 -0.84672947001E-02  0.15509772350E-01  0.51100000000E-03 0.  1.
         11    1    4    4    0    0 -0.99012083839E-01  0.11917744091E-01 -0.53015175114E-01  0.11294377045E+00  0.51100000000E-03 0. -1.
</event>
<event>
 8    1  0.1079508E+005  0.1043930E+01  0.7957747E-01            NaN
         13   -1    0    0    0    0  0.00000000000E+00  0.00000000000E+00  0.74505805969E-08  0.10566000000E+00  0.10566000000E+00 0.  1.
     999900   -1    0    0    0    0 -0.00000000000E+00 -0.00000000000E+00 -0.74505805969E-08  0.93827000000E+00  0.93827000000E+00 0.  1.
     999902    2    1    2    0    0  0.16875281103E-01  0.18876914261E-01  0.95701391536E-02  0.10168615577E+01  0.10165012184E+01 0.  0.
     999903    2    3    3    0    0  0.15278358510E-01 -0.88935590811E-01  0.86963464787E-01  0.12690885489E+00  0.20006141312E-01 0.  0.
         14    1    1    2    0    0 -0.16875281103E-01 -0.18876914261E-01 -0.95701391536E-02  0.27068442285E-01  0.00000000000E+00 0. -1.
     999901    1    3    3    0    0  0.15969225936E-02  0.10781250507E+00 -0.77393325633E-01  0.88995270282E+00  0.88000000000E+00 0.  1.
        -11    1    4    4    0    0 -0.18197440176E-02 -0.41370698818E-01  0.32858014322E-01  0.52865455783E-01  0.51100000000E-03 0. -1.
         11    1    4    4    0    0  0.17098102527E-01 -0.47564891993E-01  0.54105450465E-01  0.74043399107E-01  0.51100000000E-03 0.  1.
</event>
<event>
 8    1  0.1079508E+005  0.1043930E+01  0.7957747E-01            NaN
         13   -1    0    0    0    0  0.00000000000E+00  0.00000000000E+00  0.74505805969E-08  0.10566000000E+00  0.10566000000E+00 0. -1.
     999900   -1    0    0    0    0 -0.00000000000E+00 -0.00000000000E+00 -0.74505805969E-08  0.93827000000E+00  0.93827000000E+00 0. -1.
     999902    2    1    2    0    0 -0.21383423359E-01 -0.46517403597E-02  0.36398783508E-02  0.10217458120E+01  0.10215049516E+01 0.  0.
     999903    2    3    3    0    0  0.12211293647E+00 -0.24786471694E-01 -0.28435337005E-01  0.12931910233E+00  0.19721141047E-01 0.  0.
         14    1    1    2    0    0  0.21383423359E-01  0.46517403597E-02 -0.36398783508E-02  0.22184188003E-01  0.00000000000E+00 0.  1.
     999901    1    3    3    0    0 -0.14349635983E+00  0.20134731334E-01  0.32075215356E-01  0.89242670967E+00  0.88000000000E+00 0. -1.
        -11    1    4    4    0    0  0.13653986506E-01 -0.66314969947E-02 -0.89748799807E-02  0.17641363087E-01  0.51100000000E-03 0.  1.
         11    1    4    4    0    0  0.10845894996E+00 -0.18154974699E-01 -0.19460457025E-01  0.11167773924E+00  0.51100000000E-03 0. -1.
</event>
<event>
 8    1  0.1079508E+005  0.1043930E+01  0.7957747E-01            NaN
         13   -1    0    0    0    0  0.00000000000E+00  0.00000000000E+00  0.74505805969E-08  0.10566000000E+00  0.10566000000E+00 0. -1.
     999900   -1    0    0    0    0 -0.00000000000E+00 -0.00000000000E+00 -0.74505805969E-08  0.93827000000E+00  0.93827000000E+00 0. -1.
     999902    2    1    2    0    0  0.14609936004E-01  0.16393965765E-01  0.85594502870E-02  0.10203614503E+01  0.10200892181E+01 0.  0.
     999903    2    3    3    0    0  0.21385236922E-01  0.20488891351E-01  0.12691932065E+00  0.13240214270E+00  0.23338603467E-01 0.  0.
         14    1    1    2    0    0 -0.14609936004E-01 -0.16393965765E-01 -0.85594502870E-02  0.23568549654E-01  0.00000000000E+00 0.  1.
     999901    1    3    3    0    0 -0.67753009179E-02 -0.40949255861E-02 -0.11835987036E+00  0.88795930764E+00  0.88000000000E+00 0. -1.
        -11    1    4    4    0    0  0.22925825168E-01  0.22382050980E-01  0.92509612608E-01  0.97902192067E-01  0.51100000000E-03 0.  1.
         11    1    4    4    0    0 -0.15405882456E-02 -0.18931596287E-02  0.34409708040E-01  0.34499950636E-01  0.51100000000E-03 0. -1.
</event>
<event>
 8    1  0.1079508E+005  0.1043930E+01  0.7957747E-01            NaN
         13   -1    0    0    0    0  0.00000000000E+00  0.00000000000E+00  0.74505805969E-08  0.10566000000E+00  0.10566000000E+00 0.  1.
     999900   -1    0    0    0    0 -0.00000000000E+00 -0.00000000000E+00 -0.74505805969E-08  0.93827000000E+00  0.93827000000E+00 0.  1.
     999902    2    1    2    0    0  0.11748580873E-01 -0.21080728121E-01 -0.49854581292E-03  0.10197913422E+01  0.10195056189E+01 0.  0.
     999903    2    3    3    0    0  0.38920020295E-01  0.10633606430E+00  0.57021572981E-01  0.12834202221E+00  0.19952151001E-01 0.  0.
         14    1    1    2    0    0 -0.11748580873E-01  0.21080728121E-01  0.49854581292E-03  0.24138657763E-01  0.00000000000E+00 0.  1.
     999901    1    3    3    0    0 -0.27171439422E-01 -0.12741679242E+00 -0.57520118794E-01  0.89144932003E+00  0.88000000000E+00 0.  1.
        -11    1    4    4    0    0  0.47655359531E-02  0.35666914510E-01  0.23572644617E-01  0.43020574366E-01  0.51100000000E-03 0.  1.
         11    1    4    4    0    0  0.34154484342E-01  0.70669149788E-01  0.33448928364E-01  0.85321447844E-01  0.51100000000E-03 0. -1.
</event>
<event>
 8    1  0.1079508E+005  0.1043930E+01  0.7957747E-01            NaN
         13   -1    0    0    0    0  0.00000000000E+00  0.00000000000E+00  0.74505805969E-08  0.10566000000E+00  0.10566000000E+00 0.  1.
     999900   -1    0    0    0    0 -0.00000000000E+00 -0.00000000000E+00 -0.74505805969E-08  0.93827000000E+00  0.93827000000E+00 0. -1.
     999902    2    1    2    0    0  0.22377384909E-01  0.71989834121E-02  0.21729503175E-02  0.10203229157E+01  0.10200497820E+01 0.  0.
     999903    2    3    3    0    0 -0.10172587403E+00  0.69223250652E-01 -0.32722851087E-01  0.12877014350E+00  0.19260140084E-01 0.  0.
         14    1    1    2    0    0 -0.22377384909E-01 -0.71989834121E-02 -0.21729503175E-02  0.23607084331E-01  0.00000000000E+00 0.  1.
     999901    1    3    3    0    0  0.12410325894E+00 -0.62024267240E-01  0.34895801404E-01  0.89155277217E+00  0.88000000000E+00 0.  1.
        -11    1    4    4    0    0 -0.17074697350E-01  0.11577558444E-01  0.17440819884E-02  0.20709613519E-01  0.51100000000E-03 0.  1.
         11    1    4    4    0    0 -0.84651176680E-01  0.57645692208E-01 -0.34466933075E-01  0.10806052998E+00  0.51100000000E-03 0. -1.
</event>
<event>
 8    1  0.1079508E+005  0.1043930E+01  0.7957747E-01            NaN
         13   -1    0    0    0    0  0.00000000000E+00  0.00000000000E+00  0.74505805969E-08  0.10566000000E+00  0.10566000000E+00 0. -1.
     999900   -1    0    0    0    0 -0.00000000000E+00 -0.00000000000E+00 -0.74505805969E-08  0.93827000000E+00  0.93827000000E+00 0. -1.
     999902    2    1    2    0    0 -0.83195569986E-02  0.14489380259E-01 -0.16355922618E-01  0.10205489527E+01  0.10202810845E+01 0.  0.
     999903    2    3    3    0    0 -0.41045263762E-01 -0.11228037173E+00  0.43516869471E-01  0.12885040882E+00  0.20423378062E-01 0.  0.
         14    1    1    2    0    0  0.83195569986E-02 -0.14489380259E-01  0.16355922618E-01  0.23381047317E-01  0.00000000000E+00 0.  1.
     999901    1    3    3    0    0  0.32725706763E-01  0.12676975198E+00 -0.59872792090E-01  0.89169854387E+00  0.88000000000E+00 0. -1.
        -11    1    4    4    0    0 -0.20811220192E-01 -0.51890200565E-01  0.31037443685E-01  0.63947508411E-01  0.51100000000E-03 0.  1.
         11    1    4    4    0    0 -0.20234043570E-01 -0.60390171161E-01  0.12479425786E-01  0.64902900405E-01  0.51100000000E-03 0. -1.
</event>
<event>
 8    1  0.1079508E+005  0.1043930E+01  0.7957747E-01            NaN
         13   -1    0    0    0    0  0.00000000000E+00  0.00000000000E+00  0.74505805969E-08  0.10566000000E+00  0.10566000000E+00 0.  1.
     999900   -1    0    0    0    0 -0.00000000000E+00 -0.00000000000E+00 -0.74505805969E-08  0.93827000000E+00  0.93827000000E+00 0. -1.
     999902    2    1    2    0    0  0.18657309907E-01 -0.18890919560E-01  0.51554018106E-03  0.10173738738E+01  0.10170272225E+01 0.  0.
     999903    2    3    3    0    0  0.60178375815E-01 -0.30049095679E-01 -0.10862377161E+00  0.12959017655E+00  0.21681905619E-01 0.  0.
         14    1    1    2    0    0 -0.18657309907E-01  0.18890919560E-01 -0.51554018106E-03  0.26556126157E-01  0.00000000000E+00 0.  1.
     999901    1    3    3    0    0 -0.41521065908E-01  0.11158176119E-01  0.10913931179E+00  0.88778369730E+00  0.88000000000E+00 0.  1.
        -11    1    4    4    0    0  0.55038372798E-01 -0.21540989657E-01 -0.81335387629E-01  0.10054324004E+00  0.51100000000E-03 0. -1.
         11    1    4    4    0    0  0.51400030165E-02 -0.85081060217E-02 -0.27288383983E-01  0.29046936508E-01  0.51100000000E-03 0.  1.
</event>
<event>
 8    1  0.1079508E+005  0.1043930E+01  0.7957747E-01            NaN
         13   -1    0    0    0    0  0.00000000000E+00  0.00000000000E+00  0.74505805969E-08  0.10566000000E+00  0.10566000000E+00 0.  1.
     999900   -1    0    0    0    0 -0.00000000000E+00 -0.00000000000E+00 -0.74505805969E-08  0.93827000000E+00  0.93827000000E+00 0.  1.
     999902    2    1    2    0    0 -0.29884667072E-02 -0.17540905982E-01  0.14011161303E-01  0.10212821092E+01  0.10210309592E+01 0.  0.
     999903    2    3    3    0    0  0.72291272347E-01 -0.40737094311E-01 -0.98932131802E-01  0.13057380134E+00  0.19401339706E-01 0.  0.
         14    1    1    2    0    0  0.29884667072E-02  0.17540905982E-01 -0.14011161303E-01  0.22647890784E-01  0.00000000000E+00 0. -1.
     999901    1    3    3    0    0 -0.75279739054E-01  0.23196188330E-01  0.11294329311E+00  0.89070830788E+00  0.88000000000E+00 0. -1.
        -11    1    4    4    0    0  0.25782326014E-01 -0.16016002437E-01 -0.51028990074E-01  0.59375580989E-01  0.51100000000E-03 0.  1.
         11    1    4    4    0    0  0.46508946333E-01 -0.24721091875E-01 -0.47903141728E-01  0.71198220349E-01  0.51100000000E-03 0. -1.
</event>
<event>
 8    1  0.1079508E+005  0.1043930E+01  0.7957747E-01            NaN
         13   -1    0    0    0    0  0.00000000000E+00  0.00000000000E+00  0.74505805969E-08  0.10566000000E+00  0.10566000000E+00 0.  1.
     999900   -1    0    0    0    0 -0.00000000000E+00 -0.00000000000E+00 -0.74505805969E-08  0.93827000000E+00  0.93827000000E+00 0.  1.
     999902    2    1    2    0    0  0.53927217451E-02 -0.22320954646E-01 -0.57100339707E-02  0.10202675624E+01  0.10199931313E+01 0.  0.
     999903    2    3    3    0    0  0.12645508096E-01  0.12223393301E+00  0.29789711703E-01  0.12773803888E+00  0.18125573100E-01 0.  0.
         14    1    1    2    0    0 -0.53927217451E-02  0.22320954646E-01  0.57100339707E-02  0.23662437577E-01  0.00000000000E+00 0. -1.
     999901    1    3    3    0    0 -0.72527863511E-02 -0.14455488765E+00 -0.35499745674E-01  0.89252952354E+00  0.88000000000E+00 0.  1.
        -11    1    4    4    0    0  0.13031390265E-01  0.77373958703E-01  0.11564377301E-01  0.79312940691E-01  0.51100000000E-03 0. -1.
         11    1    4    4    0    0 -0.38588216929E-03  0.44859974304E-01  0.18225334402E-01  0.48425098189E-01  0.51100000000E-03 0.  1.
</event>
<event>
 8    1  0.1079508E+005  0.1043930E+01  0.7957747E-01            NaN
         13   -1    0    0    0    0  0.00000000000E+00  0.00000000000E+00  0.74505805969E-08  0.10566000000E+00  0.10566000000E+00 0.  1.
     999900   -1    0    0    0    0 -0.00000000000E+00 -0.00000000000E+00 -0.74505805969E-08  0.93827000000E+00  0.93827000000E+00 0. -1.
     999902    2    1    2    0    0 -0.20258559540E-01  0.58345741421E-02 -0.10292087698E-01  0.10204698517E+01  0.10202001468E+01 0.  0.
     999903    2    3    3    0    0 -0.78389369085E-01  0.55285144113E-01 -0.90756285541E-01  0.13350929054E+00  0.19664357329E-01 0.  0.
         14    1    1    2    0    0  0.20258559540E-01 -0.58345741421E-02  0.10292087698E-01  0.23460148321E-01  0.00000000000E+00 0. -1.
     999901    1    3    3    0    0  0.58130809544E-01 -0.49450569971E-01  0.80464197843E-01  0.88696056114E+00  0.88000000000E+00 0.  1.
        -11    1    4    4    0    0 -0.26481316402E-01  0.27211771383E-01 -0.44680289469E-01  0.58637274905E-01  0.51100000000E-03 0.  1.
         11    1    4    4    0    0 -0.51908052682E-01  0.28073372730E-01 -0.46075996072E-01  0.74872015631E-01  0.51100000000E-03 0. -1.
</event>
<event>
 8    1  0.1079508E+005  0.1043930E+01  0.7957747E-01            NaN
         13   -1    0    0    0    0  0.00000000000E+00  0.00000000000E+00  0.74505805969E-08  0.10566000000E+00  0.10566000000E+00 0.  1.
     999900   -1    0    0    0    0 -0.00000000000E+00 -0.00000000000E+00 -0.74505805969E-08  0.93827000000E+00  0.93827000000E+00 0. -1.
     999902    2    1    2    0    0  0.11680064191E-01 -0.12738620013E-01 -0.17334055823E-01  0.10194521359E+01  0.10191582270E+01 0.  0.
     999903    2    3    3    0    0 -0.91380448792E-01 -0.52469681410E-01 -0.72009251641E-01  0.13086370271E+00  0.28922698278E-01 0.  0.
         14    1    1    2    0    0 -0.11680064191E-01  0.12738620013E-01  0.17334055823E-01  0.24477864094E-01  0.00000000000E+00 0.  1.
     999901    1    3    3    0    0  0.10306051298E+00  0.39731061397E-01  0.54675195818E-01  0.88858843320E+00  0.88000000000E+00 0.  1.
        -11    1    4    4    0    0 -0.70214870913E-01 -0.36529605974E-01 -0.38145802705E-01  0.87862981938E-01  0.51100000000E-03 0.  1.
         11    1    4    4    0    0 -0.21165577878E-01 -0.15940075436E-01 -0.33863448936E-01  0.43000720769E-01  0.51100000000E-03 0. -1.
</event>
<event>
 8    1  0.1079508E+005  0.1043930E+01  0.7957747E-01            NaN
         13   -1    0    0    0    0  0.00000000000E+00  0.00000000000E+00  0.74505805969E-08  0.10566000000E+00  0.10566000000E+00 0. -1.
     999900   -1    0    0    0    0 -0.00000000000E+00 -0.00000000000E+00 -0.74505805969E-08  0.93827000000E+00  0.93827000000E+00 0. -1.
     999902    2    1    2    0    0 -0.21749277670E-01 -0.83535347290E-02 -0.11574394257E-02  0.10206029280E+01  0.10203363094E+01 0.  0.
     999903    2    3    3    0    0 -0.63890547631E-01  0.44337115642E-01 -0.10475028158E+00  0.13196145463E+00  0.19834871198E-01 0.  0.
         14    1    1    2    0    0  0.21749277670E-01  0.83535347290E-02  0.11574394257E-02  0.23327071991E-01  0.00000000000E+00 0. -1.
     999901    1    3    3    0    0  0.42141269960E-01 -0.52690650371E-01  0.10359284216E+00  0.88864147338E+00  0.88000000000E+00 0.  1.
        -11    1    4    4    0    0 -0.57228558605E-01  0.30439415034E-01 -0.85594311088E-01  0.10736998239E+00  0.51100000000E-03 0. -1.
         11    1    4    4    0    0 -0.66619890260E-02  0.13897700608E-01 -0.19155970494E-01  0.24591472232E-01  0.51100000000E-03 0.  1.
</event>
<event>
 8    1  0.1107960E+005  0.1043930E+01  0.7957747E-01            NaN
         13   -1    0    0    0    0  0.00000000000E+00  0.00000000000E+00  0.74505805969E-08  0.10566000000E+00  0.10566000000E+00 0.  1.
     999900   -1    0    0    0    0 -0.00000000000E+00 -0.00000000000E+00 -0.74505805969E-08  0.93827000000E+00  0.93827000000E+00 0.  1.
     999902    2    1    2    0    0  0.76894507744E-03 -0.50499158019E-02 -0.26447570664E-01  0.10169936506E+01  0.10166368665E+01 0.  0.
     999903    2    3    3    0    0 -0.68228802572E-01 -0.93937327281E-01 -0.53445742125E-01  0.12941798487E+00  0.20326743437E-01 0.  0.
         14    1    1    2    0    0 -0.76894507744E-03  0.50499158019E-02  0.26447570664E-01  0.26936349422E-01  0.00000000000E+00 0.  1.
     999901    1    3    3    0    0  0.68997747650E-01  0.88887411479E-01  0.26998171460E-01  0.88757566571E+00  0.88000000000E+00 0.  1.
        -11    1    4    4    0    0 -0.28855920862E-01 -0.34350692789E-01 -0.10495185000E-01  0.46076504784E-01  0.51100000000E-03 0.  1.
         11    1    4    4    0    0 -0.39372881710E-01 -0.59586634492E-01 -0.42950557125E-01  0.83341480084E-01  0.51100000000E-03 0. -1.
</event>
<event>
 8    1  0.1079508E+005  0.1043930E+01  0.7957747E-01            NaN
         13   -1    0    0    0    0  0.00000000000E+00  0.00000000000E+00  0.74505805969E-08  0.10566000000E+00  0.10566000000E+00 0.  1.
     999900   -1    0    0    0    0 -0.00000000000E+00 -0.00000000000E+00 -0.74505805969E-08  0.93827000000E+00  0.93827000000E+00 0.  1.
     999902    2    1    2    0    0  0.16596471955E-02 -0.20260845330E-01  0.12687034136E-01  0.10199671722E+01  0.10196856453E+01 0.  0.
     999903    2    3    3    0    0  0.71151818281E-01  0.47972768489E-01 -0.93142737428E-01  0.12829182293E+00  0.20475705953E-01 0.  0.
         14    1    1    2    0    0 -0.16596471955E-02  0.20260845330E-01 -0.12687034136E-01  0.23962827827E-01  0.00000000000E+00 0. -1.
     999901    1    3    3    0    0 -0.69492171085E-01 -0.68233613819E-01  0.10582977156E+00  0.89167534924E+00  0.88000000000E+00 0. -1.
        -11    1    4    4    0    0  0.57633477762E-01  0.28946853194E-01 -0.62933224749E-01  0.90113206397E-01  0.51100000000E-03 0.  1.
         11    1    4    4    0    0  0.13518340519E-01  0.19025915295E-01 -0.30209512679E-01  0.38178616534E-01  0.51100000000E-03 0. -1.
</event>
<event>
 8    1  0.1079508E+005  0.1043930E+01  0.7957747E-01            NaN
         13   -1    0    0    0    0  0.00000000000E+00  0.00000000000E+00  0.74505805969E-08  0.10566000000E+00  0.10566000000E+00 0.  1.
     999900   -1    0    0    0    0 -0.00000000000E+00 -0.00000000000E+00 -0.74505805969E-08  0.93827000000E+00  0.93827000000E+00 0. -1.
     999902    2    1    2    0    0  0.94323256578E-02  0.47656344387E-02 -0.20347773976E-01  0.10210015909E+01  0.10207441093E+01 0.  0.
     999903    2    3    3    0    0 -0.29287948711E-01  0.98530160766E-01  0.76758929576E-01  0.12986705675E+00  0.20187685337E-01 0.  0.
         14    1    1    2    0    0 -0.94323256578E-02 -0.47656344387E-02  0.20347773976E-01  0.22928409119E-01  0.00000000000E+00 0.  1.
     999901    1    3    3    0    0  0.38720274368E-01 -0.93764526328E-01 -0.97106703553E-01  0.89113453413E+00  0.88000000000E+00 0. -1.
        -11    1    4    4    0    0 -0.21824294189E-01  0.61837869565E-01  0.59834101652E-01  0.88772759171E-01  0.51100000000E-03 0.  1.
         11    1    4    4    0    0 -0.74636545215E-02  0.36692291201E-01  0.16924827924E-01  0.41094297581E-01  0.51100000000E-03 0. -1.
</event>
<event>
 8    1  0.1079508E+005  0.1043930E+01  0.7957747E-01            NaN
         13   -1    0    0    0    0  0.00000000000E+00  0.00000000000E+00  0.74505805969E-08  0.10566000000E+00  0.10566000000E+00 0.  1.
     999900   -1    0    0    0    0 -0.00000000000E+00 -0.00000000000E+00 -0.74505805969E-08  0.93827000000E+00  0.93827000000E+00 0. -1.
     999902    2    1    2    0    0 -0.22284199805E-01  0.82284327700E-02 -0.38948967481E-02  0.10198579646E+01  0.10195738350E+01 0.  0.
     999903    2    3    3    0    0  0.98997592482E-01 -0.22532314967E-01  0.74645942649E-01  0.12754402872E+00  0.19678261445E-01 0.  0.
         14    1    1    2    0    0  0.22284199805E-01 -0.82284327700E-02  0.38948967481E-02  0.24072035383E-01  0.00000000000E+00 0. -1.
     999901    1    3    3    0    0 -0.12128179229E+00  0.30760747738E-01 -0.78540839397E-01  0.89231393590E+00  0.88000000000E+00 0. -1.
        -11    1    4    4    0    0  0.71939640420E-01 -0.71658353174E-02  0.52328053953E-01  0.89247674542E-01  0.51100000000E-03 0.  1.
         11    1    4    4    0    0  0.27057952062E-01 -0.15366479650E-01  0.22317888696E-01  0.38296354179E-01  0.51100000000E-03 0. -1.
</event>
<event>
 8    1  0.1079508E+005  0.1043930E+01  0.7957747E-01            NaN
         13   -1    0    0    0    0  0.00000000000E+00  0.00000000000E+00  0.74505805969E-08  0.10566000000E+00  0.10566000000E+00 0.  1.
     999900   -1    0    0    0    0 -0.00000000000E+00 -0.00000000000E+00 -0.74505805969E-08  0.93827000000E+00  0.93827000000E+00 0.  1.
     999902    2    1    2    0    0 -0.83146056257E-02  0.16222656547E-01 -0.13640065261E-01  0.10211625093E+01  0.10209086697E+01 0.  0.
     999903    2    3    3    0    0  0.11957708944E+00  0.45666785627E-01 -0.21679128225E-01  0.13139407374E+00  0.20255428534E-01 0.  0.
         14    1    1    2    0    0  0.83146056257E-02 -0.16222656547E-01  0.13640065261E-01  0.22767490694E-01  0.00000000000E+00 0.  1.
     999901    1    3    3    0    0 -0.12789169506E+00 -0.29444129080E-01  0.80390629632E-02  0.88976843557E+00  0.88000000000E+00 0. -1.
        -11    1    4    4    0    0  0.10058393758E+00  0.40594881090E-01 -0.11021972958E-01  0.10902668425E+00  0.51100000000E-03 0.  1.
         11    1    4    4    0    0  0.18993151861E-01  0.50719045366E-02 -0.10657155267E-01  0.22367389490E-01  0.51100000000E-03 0. -1.
</event>
<event>
 8    1  0.1079508E+005  0.1043930E+01  0.7957747E-01            NaN
         13   -1    0    0    0    0  0.00000000000E+00  0.00000000000E+00  0.74505805969E-08  0.10566000000E+00  0.10566000000E+00 0. -1.
     999900   -1    0    0    0    0 -0.00000000000E+00 -0.00000000000E+00 -0.74505805969E-08  0.93827000000E+00  0.93827000000E+00 0. -1.
     999902    2    1    2    0    0 -0.22179889157E-01 -0.64686766341E-02 -0.37734032511E-02  0.10205199630E+01  0.10202514225E+01 0.  0.
     999903    2    3    3    0    0 -0.66662266576E-01  0.19258645198E-02  0.11224741905E+00  0.13175116211E+00  0.17644231215E-01 0.  0.
         14    1    1    2    0    0  0.22179889157E-01  0.64686766341E-02  0.37734032511E-02  0.23410037003E-01  0.00000000000E+00 0. -1.
     999901    1    3    3    0    0  0.44482377420E-01 -0.83945411540E-02 -0.11602082230E+00  0.88876880089E+00  0.88000000000E+00 0. -1.
        -11    1    4    4    0    0 -0.19589578593E-01  0.69381183044E-02  0.44330794035E-01  0.48962940024E-01  0.51100000000E-03 0. -1.
         11    1    4    4    0    0 -0.47072687983E-01 -0.50122537845E-02  0.67916625014E-01  0.82788222086E-01  0.51100000000E-03 0.  1.
</event>
<event>
 8    1  0.1079508E+005  0.1043930E+01  0.7957747E-01            NaN
         13   -1    0    0    0    0  0.00000000000E+00  0.00000000000E+00  0.74505805969E-08  0.10566000000E+00  0.10566000000E+00 0.  1.
     999900   -1    0    0    0    0 -0.00000000000E+00 -0.00000000000E+00 -0.74505805969E-08  0.93827000000E+00  0.93827000000E+00 0. -1.
     999902    2    1    2    0    0  0.75629767550E-02 -0.22363685499E-01  0.51898756036E-02  0.10197583667E+01  0.10194718528E+01 0.  0.
     999903    2    3    3    0    0  0.18501944670E-01  0.22195525480E-01  0.12552598542E+00  0.13038445007E+00  0.20208129468E-01 0.  0.
         14    1    1    2    0    0 -0.75629767550E-02  0.22363685499E-01 -0.51898756036E-02  0.24171633277E-01  0.00000000000E+00 0. -1.
     999901    1    3    3    0    0 -0.10938967915E-01 -0.44559210979E-01 -0.12033610981E+00  0.88937391666E+00  0.88000000000E+00 0. -1.
        -11    1    4    4    0    0  0.20725016106E-01  0.13027484302E-01  0.72485897936E-01  0.76509529866E-01  0.51100000000E-03 0. -1.
         11    1    4    4    0    0 -0.22230714361E-02  0.91680411782E-02  0.53040087481E-01  0.53874920201E-01  0.51100000000E-03 0.  1.
</event>
<event>
 8    1  0.1079508E+005  0.1043930E+01  0.7957747E-01            NaN
         13   -1    0    0    0    0  0.00000000000E+00  0.00000000000E+00  0.74505805969E-08  0.10566000000E+00  0.10566000000E+00 0. -1.
     999900   -1    0    0    0    0 -0.00000000000E+00 -0.00000000000E+00 -0.74505805969E-08  0.93827000000E+00  0.93827000000E+00 0. -1.
     999902    2    1    2    0    0  0.20162709591E-01 -0.78361502274E-03  0.16263669017E-01  0.10180136762E+01  0.10176837372E+01 0.  0.
     999903    2    3    3    0    0  0.81071237352E-01 -0.54528992104E-01  0.85665617605E-01  0.13155158179E+00  0.20524719900E-01 0.  0.
         14    1    1    2    0    0 -0.20162709591E-01  0.78361502274E-03 -0.16263669017E-01  0.25916323822E-01  0.00000000000E+00 0. -1.
     999901    1    3    3    0    0 -0.60908527761E-01  0.53745377081E-01 -0.69401948588E-01  0.88646209438E+00  0.88000000000E+00 0. -1.
        -11    1    4    4    0    0  0.21317459462E-01 -0.13328838082E-01  0.11083542255E-01  0.27480866661E-01  0.51100000000E-03 0. -1.
         11    1    4    4    0    0  0.59753777890E-01 -0.41200154022E-01  0.74582075350E-01  0.10407071513E+00  0.51100000000E-03 0.  1.
</event>
<event>
 8    1  0.1079508E+005  0.1043930E+01  0.7957747E-01            NaN
         13   -1    0    0    0    0  0.00000000000E+00  0.00000000000E+00  0.74505805969E-08  0.10566000000E+00  0.10566000000E+00 0.  1.
     999900   -1    0    0    0    0 -0.00000000000E+00 -0.00000000000E+00 -0.74505805969E-08  0.93827000000E+00  0.93827000000E+00 0. -1.
     999902    2    1    2    0    0 -0.12846654367E-02 -0.23838464246E-01 -0.40723875317E-02  0.10197120917E+01  0.10194244665E+01 0.  0.
     999903    2    3    3    0    0 -0.10154869143E+00  0.71830564557E-01 -0.24611421917E-01  0.12863000236E+00  0.21637668162E-01 0.  0.
         14    1    1    2    0    0  0.12846654367E-02  0.23838464246E-01  0.40723875317E-02  0.24217908314E-01  0.00000000000E+00 0.  1.
     999901    1    3    3    0    0  0.10026402599E+00 -0.95669028802E-01  0.20539034385E-01  0.89108208932E+00  0.88000000000E+00 0. -1.
        -11    1    4    4    0    0 -0.26936849402E-01  0.17819475257E-01  0.30768741404E-02  0.32447739977E-01  0.51100000000E-03 0.  1.
         11    1    4    4    0    0 -0.74611842028E-01  0.54011089300E-01 -0.27688296057E-01  0.96182262386E-01  0.51100000000E-03 0. -1.
</event>
<event>
 8    1  0.1079508E+005  0.1043930E+01  0.7957747E-01            NaN
         13   -1    0    0    0    0  0.00000000000E+00  0.00000000000E+00  0.74505805969E-08  0.10566000000E+00  0.10566000000E+00 0. -1.
     999900   -1    0    0    0    0 -0.00000000000E+00 -0.00000000000E+00 -0.74505805969E-08  0.93827000000E+00  0.93827000000E+00 0.  1.
     999902    2    1    2    0    0  0.11821245780E-01  0.96585782069E-02  0.18275409609E-01  0.10201178060E+01  0.10198398490E+01 0.  0.
     999903    2    3    3    0    0 -0.95287602370E-01  0.49894397778E-01 -0.67352362681E-01  0.12858915147E+00  0.20728025058E-01 0.  0.
         14    1    1    2    0    0 -0.11821245780E-01 -0.96585782069E-02 -0.18275409609E-01  0.23812193959E-01  0.00000000000E+00 0.  1.
     999901    1    3    3    0    0  0.10710884815E+00 -0.40235819571E-01  0.85627772290E-01  0.89152865457E+00  0.88000000000E+00 0. -1.
        -11    1    4    4    0    0 -0.64508136766E-01  0.33021273772E-01 -0.33564145960E-01  0.79865619922E-01  0.51100000000E-03 0.  1.
         11    1    4    4    0    0 -0.30779465603E-01  0.16873124006E-01 -0.33788216721E-01  0.48723531550E-01  0.51100000000E-03 0. -1.
</event>
<event>
 8    1  0.1079508E+005  0.1043930E+01  0.7957747E-01            NaN
         13   -1    0    0    0    0  0.00000000000E+00  0.00000000000E+00  0.74505805969E-08  0.10566000000E+00  0.10566000000E+00 0. -1.
     999900   -1    0    0    0    0 -0.00000000000E+00 -0.00000000000E+00 -0.74505805969E-08  0.93827000000E+00  0.93827000000E+00 0. -1.
     999902    2    1    2    0    0 -0.17719364047E-01 -0.99284515550E-02 -0.11724200637E-01  0.10204777742E+01  0.10202082537E+01 0.  0.
     999903    2    3    3    0    0 -0.10485762306E+00  0.60367529685E-01 -0.50155090348E-01  0.13255236383E+00  0.20377348099E-01 0.  0.
         14    1    1    2    0    0  0.17719364047E-01  0.99284515550E-02  0.11724200637E-01  0.23452225760E-01  0.00000000000E+00 0. -1.
     999901    1    3    3    0    0  0.87138259015E-01 -0.70295981240E-01  0.38430889710E-01  0.88792541041E+00  0.88000000000E+00 0.  1.
        -11    1    4    4    0    0 -0.59776301541E-01  0.22804368155E-01 -0.24586671632E-01  0.68542038019E-01  0.51100000000E-03 0. -1.
         11    1    4    4    0    0 -0.45081321520E-01  0.37563161530E-01 -0.25568418715E-01  0.64010325814E-01  0.51100000000E-03 0.  1.
</event>
<event>
 8    1  0.1079508E+005  0.1043930E+01  0.7957747E-01            NaN
         13   -1    0    0    0    0  0.00000000000E+00  0.00000000000E+00  0.74505805969E-08  0.10566000000E+00  0.10566000000E+00 0.  1.
     999900   -1    0    0    0    0 -0.00000000000E+00 -0.00000000000E+00 -0.74505805969E-08  0.93827000000E+00  0.93827000000E+00 0.  1.
     999902    2    1    2    0    0  0.12149352412E-01 -0.23268230826E-01 -0.31059159323E-02  0.10174977461E+01  0.10171543636E+01 0.  0.
     999903    2    3    3    0    0  0.56766883221E-01  0.11065261190E+00 -0.69805234878E-02  0.12623991098E+00  0.20525785368E-01 0.  0.
         14    1    1    2    0    0 -0.12149352412E-01  0.23268230826E-01  0.31059159323E-02  0.26432253850E-01  0.00000000000E+00 0. -1.
     999901    1    3    3    0    0 -0.44617530809E-01 -0.13392084272E+00  0.38746075555E-02  0.89125783517E+00  0.88000000000E+00 0. -1.
        -11    1    4    4    0    0  0.31459591559E-01  0.65266739805E-01  0.59168372752E-02  0.72696102442E-01  0.51100000000E-03 0.  1.
         11    1    4    4    0    0  0.25307291661E-01  0.45385872093E-01 -0.12897360763E-01  0.53543808536E-01  0.51100000000E-03 0. -1.
</event>
<event>
 8    1  0.1079508E+005  0.1043930E+01  0.7957747E-01            NaN
         13   -1    0    0    0    0  0.00000000000E+00  0.00000000000E+00  0.74505805969E-08  0.10566000000E+00  0.10566000000E+00 0. -1.
     999900   -1    0    0    0    0 -0.00000000000E+00 -0.00000000000E+00 -0.74505805969E-08  0.93827000000E+00  0.93827000000E+00 0.  1.
     999902    2    1    2    0    0  0.11667379555E-01 -0.21036826588E-01 -0.30062446875E-02  0.10196872005E+01  0.10193989767E+01 0.  0.
     999903    2    3    3    0    0 -0.24654600888E-01 -0.12835473993E+00 -0.77458091640E-02  0.13241109680E+00  0.19746199361E-01 0.  0.
         14    1    1    2    0    0 -0.11667379555E-01  0.21036826588E-01  0.30062446875E-02  0.24242799461E-01  0.00000000000E+00 0.  1.
     999901    1    3    3    0    0  0.36321980443E-01  0.10731791334E+00  0.47395644765E-02  0.88727610374E+00  0.88000000000E+00 0. -1.
        -11    1    4    4    0    0  0.32692310123E-02 -0.19129546686E-01 -0.21619064942E-02  0.19533622002E-01  0.51100000000E-03 0. -1.
         11    1    4    4    0    0 -0.27923831900E-01 -0.10922519325E+00 -0.55839026698E-02  0.11287747480E+00  0.51100000000E-03 0.  1.
</event>
<event>
 8    1  0.1079508E+005  0.1043930E+01  0.7957747E-01            NaN
         13   -1    0    0    0    0  0.00000000000E+00  0.00000000000E+00  0.74505805969E-08  0.10566000000E+00  0.10566000000E+00 0.  1.
     999900   -1    0    0    0    0 -0.00000000000E+00 -0.00000000000E+00 -0.74505805969E-08  0.93827000000E+00  0.93827000000E+00 0.  1.
     999902    2    1    2    0    0  0.77248938120E-02  0.22143448110E-01  0.81447913634E-03  0.10204636485E+01  0.10201937993E+01 0.  0.
     999903    2    3    3    0    0  0.11953017485E+00 -0.34282629867E-01 -0.35020598417E-01  0.13087471196E+00  0.20952004830E-01 0.  0.
         14    1    1    2    0    0 -0.77248938120E-02 -0.22143448110E-01 -0.81447913634E-03  0.23466351546E-01  0.00000000000E+00 0.  1.
     999901    1    3    3    0    0 -0.11180528104E+00  0.56426077977E-01  0.35835077553E-01  0.88958893649E+00  0.88000000000E+00 0. -1.
        -11    1    4    4    0    0  0.51977675273E-01 -0.24356433014E-01 -0.21313382481E-01  0.61232637945E-01  0.51100000000E-03 0. -1.
         11    1    4    4    0    0  0.67552499582E-01 -0.99261968527E-02 -0.13707215936E-01  0.69642074017E-01  0.51100000000E-03 0.  1.
</event>
<event>
 8    1  0.1079508E+005  0.1043930E+01  0.7957747E-01            NaN
         13   -1    0    0    0    0  0.00000000000E+00  0.00000000000E+00  0.74505805969E-08  0.10566000000E+00  0.10566000000E+00 0.  1.
     999900   -1    0    0    0    0 -0.00000000000E+00 -0.00000000000E+00 -0.74505805969E-08  0.93827000000E+00  0.93827000000E+00 0. -1.
     999902    2    1    2    0    0  0.14176968285E-01  0.18971359286E-01  0.50771633512E-02  0.10197085944E+01  0.10194208851E+01 0.  0.
     999903    2    3    3    0    0  0.12957280033E+00  0.12446457523E-01  0.10808662782E-01  0.13213233146E+00  0.19952466943E-01 0.  0.
         14    1    1    2    0    0 -0.14176968285E-01 -0.18971359286E-01 -0.50771633512E-02  0.24221405628E-01  0.00000000000E+00 0. -1.
     999901    1    3    3    0    0 -0.11539583204E+00  0.65249017631E-02 -0.57314994305E-02  0.88757626291E+00  0.88000000000E+00 0. -1.
        -11    1    4    4    0    0  0.10193211570E+00  0.17071798244E-01  0.47916793489E-02  0.10346411851E+00  0.51100000000E-03 0.  1.
         11    1    4    4    0    0  0.27640684625E-01 -0.46253407217E-02  0.60169834328E-02  0.28668212954E-01  0.51100000000E-03 0. -1.
</event>
<event>
 8    1  0.1079508E+005  0.1043930E+01  0.7957747E-01            NaN
         13   -1    0    0    0    0  0.00000000000E+00  0.00000000000E+00  0.74505805969E-08  0.10566000000E+00  0.10566000000E+00 0.  1.
     999900   -1    0    0    0    0 -0.00000000000E+00 -0.00000000000E+00 -0.74505805969E-08  0.93827000000E+00  0.93827000000E+00 0. -1.
     999902    2    1    2    0    0  0.15698923273E-01  0.12066147091E-01  0.18104399272E-01  0.10171005876E+01  0.10167466685E+01 0.  0.
     999903    2    3    3    0    0  0.10450824181E+00  0.64595870456E-01 -0.35353710302E-01  0.12946088795E+00  0.20387191785E-01 0.  0.
         14    1    1    2    0    0 -0.15698923273E-01 -0.12066147091E-01 -0.18104399272E-01  0.26829412416E-01  0.00000000000E+00 0. -1.
     999901    1    3    3    0    0 -0.88809318538E-01 -0.52529723364E-01  0.53458109574E-01  0.88763969964E+00  0.88000000000E+00 0.  1.
        -11    1    4    4    0    0  0.97632202923E-01  0.59814074624E-01 -0.27039487123E-01  0.11764848301E+00  0.51100000000E-03 0. -1.
         11    1    4    4    0    0  0.68760388889E-02  0.47817958317E-02 -0.83142231789E-02  0.11812404931E-01  0.51100000000E-03 0.  1.
</event>
<event>
 8    1  0.1079508E+005  0.1043930E+01  0.7957747E-01            NaN
         13   -1    0    0    0    0  0.00000000000E+00  0.00000000000E+00  0.74505805969E-08  0.10566000000E+00  0.10566000000E+00 0. -1.
     999900   -1    0    0    0    0 -0.00000000000E+00 -0.00000000000E+00 -0.74505805969E-08  0.93827000000E+00  0.93827000000E+00 0. -1.
     999902    2    1    2    0    0 -0.19872172702E-01 -0.64873072530E-02 -0.11460095545E-01  0.10200904909E+01  0.10198118883E+01 0.  0.
     999903    2    3    3    0    0 -0.88571739351E-01  0.15267529216E-01 -0.95754197814E-01  0.13313028942E+00  0.21834768187E-01 0.  0.
         14    1    1    2    0    0  0.19872172702E-01  0.64873072530E-02  0.11460095545E-01  0.23839509081E-01  0.00000000000E+00 0.  1.
     999901    1    3    3    0    0  0.68699566649E-01 -0.21754836469E-01  0.84294102269E-01  0.88696020150E+00  0.88000000000E+00 0.  1.
        -11    1    4    4    0    0 -0.15408269859E-01  0.86417104810E-02 -0.28471575551E-01  0.33510978431E-01  0.51100000000E-03 0. -1.
         11    1    4    4    0    0 -0.73163469492E-01  0.66258187346E-02 -0.67282622263E-01  0.99619310988E-01  0.51100000000E-03 0.  1.
</event>
<event>
 8    1  0.1079508E+005  0.1043930E+01  0.7957747E-01            NaN
         13   -1    0    0    0    0  0.00000000000E+00  0.00000000000E+00  0.74505805969E-08  0.10566000000E+00  0.10566000000E+00 0.  1.
     999900   -1    0    0    0    0 -0.00000000000E+00 -0.00000000000E+00 -0.74505805969E-08  0.93827000000E+00  0.93827000000E+00 0. -1.
     999902    2    1    2    0    0 -0.52444061695E-02  0.45412024891E-02 -0.23853661406E-01  0.10190880299E+01  0.10187852027E+01 0.  0.
     999903    2    3    3    0    0  0.11123962262E+00  0.51881720630E-01 -0.40274850811E-01  0.12999899663E+00  0.14550221262E-01 0.  0.
         14    1    1    2    0    0  0.52444061695E-02 -0.45412024891E-02  0.23853661406E-01  0.24841970103E-01  0.00000000000E+00 0.  1.
     999901    1    3    3    0    0 -0.11648402879E+00 -0.47340518141E-01  0.16421189404E-01  0.88908903327E+00  0.88000000000E+00 0.  1.
        -11    1    4    4    0    0  0.46421962885E-01  0.21498676885E-01 -0.24358412570E-01  0.56663790289E-01  0.51100000000E-03 0.  1.
         11    1    4    4    0    0  0.64817659739E-01  0.30383043745E-01 -0.15916438240E-01  0.73335206337E-01  0.51100000000E-03 0. -1.
</event>
<event>
 8    1  0.1079508E+005  0.1043930E+01  0.7957747E-01            NaN
         13   -1    0    0    0    0  0.00000000000E+00  0.00000000000E+00  0.74505805969E-08  0.10566000000E+00  0.10566000000E+00 0.  1.
     999900   -1    0    0    0    0 -0.00000000000E+00 -0.00000000000E+00 -0.74505805969E-08  0.93827000000E+00  0.93827000000E+00 0.  1.
     999902    2    1    2    0    0  0.17755267724E-01  0.16297577562E-01 -0.13069851826E-02  0.10197935384E+01  0.10195078677E+01 0.  0.
     999903    2    3    3    0    0  0.96208773778E-01 -0.13640740668E-01 -0.86509037613E-01  0.13169971161E+00  0.20464664483E-01 0.  0.
         14    1    1    2    0    0 -0.17755267724E-01 -0.16297577562E-01  0.13069851826E-02  0.24136461560E-01  0.00000000000E+00 0.  1.
     999901    1    3    3    0    0 -0.78453506054E-01  0.29938318229E-01  0.85202052431E-01  0.88809382683E+00  0.88000000000E+00 0. -1.
        -11    1    4    4    0    0  0.59127453375E-01 -0.16021832688E-01 -0.62142618972E-01  0.87262369204E-01  0.51100000000E-03 0.  1.
         11    1    4    4    0    0  0.37081320403E-01  0.23810920203E-02 -0.24366418641E-01  0.44437342409E-01  0.51100000000E-03 0. -1.
</event>
<event>
 8    1  0.1079508E+005  0.1043930E+01  0.7957747E-01            NaN
         13   -1    0    0    0    0  0.00000000000E+00  0.00000000000E+00  0.74505805969E-08  0.10566000000E+00  0.10566000000E+00 0.  1.
     999900   -1    0    0    0    0 -0.00000000000E+00 -0.00000000000E+00 -0.74505805969E-08  0.93827000000E+00  0.93827000000E+00 0. -1.
     999902    2    1    2    0    0  0.28039609130E-02 -0.23175747976E-01  0.49752675230E-02  0.10200609661E+01  0.10197816648E+01 0.  0.
     999903    2    3    3    0    0 -0.63613277822E-01  0.10515966176E+00  0.28410420744E-01  0.12796767874E+00  0.21526059047E-01 0.  0.
         14    1    1    2    0    0 -0.28039609130E-02  0.23175747976E-01 -0.49752675230E-02  0.23869033872E-01  0.00000000000E+00 0. -1.
     999901    1    3    3    0    0  0.66417238735E-01 -0.12833540974E+00 -0.23435153221E-01  0.89209328739E+00  0.88000000000E+00 0. -1.
        -11    1    4    4    0    0 -0.43587128931E-01  0.88019731328E-01  0.25240837745E-01  0.10141337152E+00  0.51100000000E-03 0.  1.
         11    1    4    4    0    0 -0.20026148891E-01  0.17139930435E-01  0.31695829993E-02  0.26554307224E-01  0.51100000000E-03 0. -1.
</event>
<event>
 8    1  0.1079508E+005  0.1043930E+01  0.7957747E-01            NaN
         13   -1    0    0    0    0  0.00000000000E+00  0.00000000000E+00  0.74505805969E-08  0.10566000000E+00  0.10566000000E+00 0. -1.
     999900   -1    0    0    0    0 -0.00000000000E+00 -0.00000000000E+00 -0.74505805969E-08  0.93827000000E+00  0.93827000000E+00 0.  1.
     999902    2    1    2    0    0 -0.12236105221E-01  0.10528617953E-01  0.15948132616E-01  0.10212382173E+01  0.10209860819E+01 0.  0.
     999903    2    3    3    0    0  0.50165333657E-01 -0.29962809038E-01 -0.11297196542E+00  0.12873954119E+00  0.19921693364E-01 0.  0.
         14    1    1    2    0    0  0.12236105221E-01 -0.10528617953E-01 -0.15948132616E-01  0.22691782674E-01  0.00000000000E+00 0.  1.
     999901    1    3    3    0    0 -0.62401438879E-01  0.40491426991E-01  0.12892009804E+00  0.89249867614E+00  0.88000000000E+00 0. -1.
        -11    1    4    4    0    0  0.40249525364E-01 -0.22418452229E-01 -0.10277827434E+00  0.11263323706E+00  0.51100000000E-03 0. -1.
         11    1    4    4    0    0  0.99158082929E-02 -0.75443568084E-02 -0.10193691080E-01  0.16106304126E-01  0.51100000000E-03 0.  1.
</event>
<event>
 8    1  0.1079508E+005  0.1043930E+01  0.7957747E-01            NaN
         13   -1    0    0    0    0  0.00000000000E+00  0.00000000000E+00  0.74505805969E-08  0.10566000000E+00  0.10566000000E+00 0.  1.
     999900   -1    0    0    0    0 -0.00000000000E+00 -0.00000000000E+00 -0.74505805969E-08  0.93827000000E+00  0.93827000000E+00 0. -1.
     999902    2    1    2    0    0  0.11139743674E-02  0.14261938217E-01  0.18530006084E-01  0.10205204945E+01  0.10202519663E+01 0.  0.
     999903    2    3    3    0    0 -0.89983699370E-01 -0.73913497563E-01 -0.53859431606E-01  0.12849251049E+00  0.70153833947E-02 0.  0.
         14    1    1    2    0    0 -0.11139743674E-02 -0.14261938217E-01 -0.18530006084E-01  0.23409505464E-01  0.00000000000E+00 0. -1.
     999901    1    3    3    0    0  0.91097673738E-01  0.88175435780E-01  0.72389437690E-01  0.89202798405E+00  0.88000000000E+00 0.  1.
        -11    1    4    4    0    0 -0.57769613803E-01 -0.48806347567E-01 -0.31488622603E-01  0.81921806109E-01  0.51100000000E-03 0.  1.
         11    1    4    4    0    0 -0.32214085568E-01 -0.25107149996E-01 -0.22370809003E-01  0.46570704379E-01  0.51100000000E-03 0. -1.
</event>
<event>
 8    1  0.1079508E+005  0.1043930E+01  0.7957747E-01            NaN
         13   -1    0    0    0    0  0.00000000000E+00  0.00000000000E+00  0.74505805969E-08  0.10566000000E+00  0.10566000000E+00 0. -1.
     999900   -1    0    0    0    0 -0.00000000000E+00 -0.00000000000E+00 -0.74505805969E-08  0.93827000000E+00  0.93827000000E+00 0.  1.
     999902    2    1    2    0    0  0.18252385664E-01 -0.79649308428E-02 -0.12381975199E-01  0.10204799890E+01  0.10202105199E+01 0.  0.
     999903    2    3    3    0    0  0.47193202805E-01 -0.20326501642E-01  0.11705932831E+00  0.13045446669E+00  0.25983003572E-01 0.  0.
         14    1    1    2    0    0 -0.18252385664E-01  0.79649308428E-02  0.12381975199E-01  0.23450010994E-01  0.00000000000E+00 0. -1.
     999901    1    3    3    0    0 -0.28940817141E-01  0.12361570800E-01 -0.12944130351E+00  0.89002552232E+00  0.88000000000E+00 0.  1.
        -11    1    4    4    0    0  0.34467195557E-01 -0.21900389873E-01  0.10570279762E+00  0.11331794735E+00  0.51100000000E-03 0. -1.
         11    1    4    4    0    0  0.12726007248E-01  0.15738882302E-02  0.11356530683E-01  0.17136519331E-01  0.51100000000E-03 0.  1.
</event>
<event>
 8    1  0.1079508E+005  0.1043930E+01  0.7957747E-01            NaN
         13   -1    0    0    0    0  0.00000000000E+00  0.00000000000E+00  0.74505805969E-08  0.10566000000E+00  0.10566000000E+00 0.  1.
     999900   -1    0    0    0    0 -0.00000000000E+00 -0.00000000000E+00 -0.74505805969E-08  0.93827000000E+00  0.93827000000E+00 0.  1.
     999902    2    1    2    0    0  0.18006113270E-01 -0.75449551231E-02  0.14278627790E-01  0.10197426960E+01  0.10194558060E+01 0.  0.
     999903    2    3    3    0    0 -0.11605257769E+00 -0.46209611837E-01  0.23492314015E-01  0.12870308953E+00  0.20225415239E-01 0.  0.
         14    1    1    2    0    0 -0.18006113270E-01  0.75449551231E-02 -0.14278627790E-01  0.24187303993E-01  0.00000000000E+00 0. -1.
     999901    1    3    3    0    0  0.13405869096E+00  0.38664656714E-01 -0.92136862246E-02  0.89103960648E+00  0.88000000000E+00 0. -1.
        -11    1    4    4    0    0 -0.54696567074E-01 -0.11611878458E-01  0.69654536543E-02  0.56350056225E-01  0.51100000000E-03 0.  1.
         11    1    4    4    0    0 -0.61356010616E-01 -0.34597733379E-01  0.16526860361E-01  0.72353033303E-01  0.51100000000E-03 0. -1.
</event>
<event>
 8    1  0.1079508E+005  0.1043930E+01  0.7957747E-01            NaN
         13   -1    0    0    0    0  0.00000000000E+00  0.00000000000E+00  0.74505805969E-08  0.10566000000E+00  0.10566000000E+00 0.  1.
     999900   -1    0    0    0    0 -0.00000000000E+00 -0.00000000000E+00 -0.74505805969E-08  0.93827000000E+00  0.93827000000E+00 0. -1.
     999902    2    1    2    0    0 -0.13004569854E-01  0.79061084588E-02 -0.18035276060E-01  0.10203313439E+01  0.10200584075E+01 0.  0.
     999903    2    3    3    0    0 -0.48373040893E-02  0.71329923656E-01 -0.10986172353E+00  0.13324545119E+00  0.23945656106E-01 0.  0.
         14    1    1    2    0    0  0.13004569854E-01 -0.79061084588E-02  0.18035276060E-01  0.23598656118E-01  0.00000000000E+00 0. -1.
     999901    1    3    3    0    0 -0.81672657647E-02 -0.63423815197E-01  0.91826447466E-01  0.88708589269E+00  0.88000000000E+00 0.  1.
        -11    1    4    4    0    0  0.40773667854E-03  0.55014805895E-03 -0.13702730393E-01  0.13729342785E-01  0.51100000000E-03 0.  1.
         11    1    4    4    0    0 -0.52450407678E-02  0.70779775597E-01 -0.96158993132E-01  0.11951610840E+00  0.51100000000E-03 0. -1.
</event>
<event>
 8    1  0.1079508E+005  0.1043930E+01  0.7957747E-01            NaN
         13   -1    0    0    0    0  0.00000000000E+00  0.00000000000E+00  0.74505805969E-08  0.10566000000E+00  0.10566000000E+00 0. -1.
     999900   -1    0    0    0    0 -0.00000000000E+00 -0.00000000000E+00 -0.74505805969E-08  0.93827000000E+00  0.93827000000E+00 0. -1.
     999902    2    1    2    0    0 -0.20762184695E-01  0.95394162821E-02 -0.66358674174E-02  0.10201370701E+01  0.10198595679E+01 0.  0.
     999903    2    3    3    0    0  0.71486216772E-01 -0.89436427804E-01  0.53073598882E-01  0.12779677311E+00  0.20150794336E-01 0.  0.
         14    1    1    2    0    0  0.20762184695E-01 -0.95394162821E-02  0.66358674174E-02  0.23792929889E-01  0.00000000000E+00 0. -1.
     999901    1    3    3    0    0 -0.92248401467E-01  0.98975844086E-01 -0.59709466299E-01  0.89234029700E+00  0.88000000000E+00 0. -1.
        -11    1    4    4    0    0  0.42881005204E-01 -0.66662319163E-01  0.41311053688E-01  0.89384057199E-01  0.51100000000E-03 0. -1.
         11    1    4    4    0    0  0.28605211568E-01 -0.22774108641E-01  0.11762545194E-01  0.38412715911E-01  0.51100000000E-03 0.  1.
</event>
<event>
 8    1  0.1150510E+005  0.1043930E+01  0.7957747E-01            NaN
         13   -1    0    0    0    0  0.00000000000E+00  0.00000000000E+00  0.74505805969E-08  0.10566000000E+00  0.10566000000E+00 0.  1.
     999900   -1    0    0    0    0 -0.00000000000E+00 -0.00000000000E+00 -0.74505805969E-08  0.93827000000E+00  0.93827000000E+00 0.  1.
     999902    2    1    2    0    0  0.18686439136E-01  0.16773372296E-01  0.11475969674E-01  0.10163215429E+01  0.10159464807E+01 0.  0.
     999903    2    3    3    0    0  0.70223985855E-01 -0.58894425536E-01  0.87541747647E-01  0.12830817757E+00  0.19986728146E-01 0.  0.
         14    1    1    2    0    0 -0.18686439136E-01 -0.16773372296E-01 -0.11475969674E-01  0.27608457141E-01  0.00000000000E+00 0. -1.
     999901    1    3    3    0    0 -0.51537546720E-01  0.75667797832E-01 -0.76065777973E-01  0.88801336529E+00  0.88000000000E+00 0.  1.
        -11    1    4    4    0    0  0.60011884613E-01 -0.49628729765E-01  0.63062227324E-01  0.10020749847E+00  0.51100000000E-03 0.  1.
         11    1    4    4    0    0  0.10212101243E-01 -0.92656957705E-02  0.24479520323E-01  0.28100679105E-01  0.51100000000E-03 0. -1.
</event>
<event>
 8    1  0.1079508E+005  0.1043930E+01  0.7957747E-01            NaN
         13   -1    0    0    0    0  0.00000000000E+00  0.00000000000E+00  0.74505805969E-08  0.10566000000E+00  0.10566000000E+00 0. -1.
     999900   -1    0    0    0    0 -0.00000000000E+00 -0.00000000000E+00 -0.74505805969E-08  0.93827000000E+00  0.93827000000E+00 0.  1.
     999902    2    1    2    0    0  0.14825458069E-03  0.77356798053E-02  0.22930546411E-01  0.10197293248E+01  0.10194421137E+01 0.  0.
     999903    2    3    3    0    0  0.55513868820E-01 -0.27280906298E-02 -0.11281725185E+00  0.12753971128E+00  0.21199375668E-01 0.  0.
         14    1    1    2    0    0 -0.14825458069E-03 -0.77356798053E-02 -0.22930546411E-01  0.24200675201E-01  0.00000000000E+00 0. -1.
     999901    1    3    3    0    0 -0.55365614239E-01  0.10463770435E-01  0.13574779826E+00  0.89218961352E+00  0.88000000000E+00 0.  1.
        -11    1    4    4    0    0  0.68973674897E-02 -0.31617020299E-02 -0.45647437172E-02  0.88695007874E-02  0.51100000000E-03 0.  1.
         11    1    4    4    0    0  0.48616501330E-01  0.43361140007E-03 -0.10825250814E+00  0.11867021050E+00  0.51100000000E-03 0. -1.
</event>
<event>
 8    1  0.1079508E+005  0.1043930E+01  0.7957747E-01            NaN
         13   -1    0    0    0    0  0.00000000000E+00  0.00000000000E+00  0.74505805969E-08  0.10566000000E+00  0.10566000000E+00 0. -1.
     999900   -1    0    0    0    0 -0.00000000000E+00 -0.00000000000E+00 -0.74505805969E-08  0.93827000000E+00  0.93827000000E+00 0.  1.
     999902    2    1    2    0    0  0.12146450413E-01 -0.54025111962E-02  0.19686517551E-01  0.10201753719E+01  0.10198987729E+01 0.  0.
     999903    2    3    3    0    0  0.11552317185E-01  0.10451279655E+00  0.76554570248E-01  0.13151587391E+00  0.19479275929E-01 0.  0.
         14    1    1    2    0    0 -0.12146450413E-01  0.54025111962E-02 -0.19686517551E-01  0.23754628141E-01  0.00000000000E+00 0.  1.
     999901    1    3    3    0    0  0.59413322851E-03 -0.10991530774E+00 -0.56868052697E-01  0.88865949795E+00  0.88000000000E+00 0. -1.
        -11    1    4    4    0    0  0.93857971611E-02  0.58295610210E-01  0.31463982791E-01  0.66908255784E-01  0.51100000000E-03 0.  1.
         11    1    4    4    0    0  0.21665200236E-02  0.46217186339E-01  0.45090587457E-01  0.64607618129E-01  0.51100000000E-03 0. -1.
</event>
<event>
 8    1  0.1079508E+005  0.1043930E+01  0.7957747E-01            NaN
         13   -1    0    0    0    0  0.00000000000E+00  0.00000000000E+00  0.74505805969E-08  0.10566000000E+00  0.10566000000E+00 0. -1.
     999900   -1    0    0    0    0 -0.00000000000E+00 -0.00000000000E+00 -0.74505805969E-08  0.93827000000E+00  0.93827000000E+00 0.  1.
     999902    2    1    2    0    0 -0.88594696965E-02  0.94945088269E-02 -0.19609448220E-01  0.10204105110E+01  0.10201394241E+01 0.  0.
     999903    2    3    3    0    0  0.81628750250E-01  0.98723346812E-01 -0.32098121344E-03  0.13107258403E+00  0.27755489205E-01 0.  0.
         14    1    1    2    0    0  0.88594696965E-02 -0.94945088269E-02  0.19609448220E-01  0.23519488954E-01  0.00000000000E+00 0. -1.
     999901    1    3    3    0    0 -0.90488219947E-01 -0.89228837985E-01 -0.19288467007E-01  0.88933792702E+00  0.88000000000E+00 0.  1.
        -11    1    4    4    0    0  0.35881942604E-01  0.40281413277E-01 -0.13692786708E-01  0.55658418856E-01  0.51100000000E-03 0. -1.
         11    1    4    4    0    0  0.45746807646E-01  0.58441933535E-01  0.13371805495E-01  0.75414165170E-01  0.51100000000E-03 0.  1.
</event>
<event>
 8    1  0.1079508E+005  0.1043930E+01  0.7957747E-01            NaN
         13   -1    0    0    0    0  0.00000000000E+00  0.00000000000E+00  0.74505805969E-08  0.10566000000E+00  0.10566000000E+00 0.  1.
     999900   -1    0    0    0    0 -0.00000000000E+00 -0.00000000000E+00 -0.74505805969E-08  0.93827000000E+00  0.93827000000E+00 0.  1.
     999902    2    1    2    0    0  0.13906236843E-01 -0.19371939454E-01 -0.16543854427E-02  0.10200261833E+01  0.10197460577E+01 0.  0.
     999903    2    3    3    0    0 -0.81777533033E-01  0.52604745725E-01  0.80954847892E-01  0.12808430602E+00  0.19926812828E-01 0.  0.
         14    1    1    2    0    0 -0.13906236843E-01  0.19371939454E-01  0.16543854427E-02  0.23903816694E-01  0.00000000000E+00 0. -1.
     999901    1    3    3    0    0  0.95683769875E-01 -0.71976685179E-01 -0.82609233334E-01  0.89194187729E+00  0.88000000000E+00 0.  1.
        -11    1    4    4    0    0 -0.46494063792E-01  0.33099453754E-01  0.59353826255E-01  0.82343242703E-01  0.51100000000E-03 0. -1.
         11    1    4    4    0    0 -0.35283469240E-01  0.19505291971E-01  0.21601021636E-01  0.45741063316E-01  0.51100000000E-03 0.  1.
</event>
<event>
 8    1  0.1079508E+005  0.1043930E+01  0.7957747E-01            NaN
         13   -1    0    0    0    0  0.00000000000E+00  0.00000000000E+00  0.74505805969E-08  0.10566000000E+00  0.10566000000E+00 0.  1.
     999900   -1    0    0    0    0 -0.00000000000E+00 -0.00000000000E+00 -0.74505805969E-08  0.93827000000E+00  0.93827000000E+00 0. -1.
     999902    2    1    2    0    0  0.21232621107E-01  0.81580799365E-02 -0.46255445759E-02  0.10207184914E+01  0.10204545382E+01 0.  0.
     999903    2    3    3    0    0 -0.43055120564E-01  0.11820953073E+00  0.29855562129E-01  0.13086840166E+00  0.20197707823E-01 0.  0.
         14    1    1    2    0    0 -0.21232621107E-01 -0.81580799365E-02  0.46255445759E-02  0.23211508567E-01  0.00000000000E+00 0. -1.
     999901    1    3    3    0    0  0.64287741672E-01 -0.11005145079E+00 -0.34481106705E-01  0.88985008977E+00  0.88000000000E+00 0. -1.
        -11    1    4    4    0    0 -0.38717230515E-01  0.99305083882E-01  0.32151350766E-01  0.11133056229E+00  0.51100000000E-03 0.  1.
         11    1    4    4    0    0 -0.43378900489E-02  0.18904446845E-01 -0.22957886376E-02  0.19537839365E-01  0.51100000000E-03 0. -1.
</event>
<event>
 8    1  0.1079508E+005  0.1043930E+01  0.7957747E-01            NaN
         13   -1    0    0    0    0  0.00000000000E+00  0.00000000000E+00  0.74505805969E-08  0.10566000000E+00  0.10566000000E+00 0. -1.
     999900   -1    0    0    0    0 -0.00000000000E+00 -0.00000000000E+00 -0.74505805969E-08  0.93827000000E+00  0.93827000000E+00 0. -1.
     999902    2    1    2    0    0 -0.14429541950E-01  0.68233527425E-02  0.20523908351E-01  0.10179299877E+01  0.10175978868E+01 0.  0.
     999903    2    3    3    0    0  0.53923017357E-01  0.96065445597E-02  0.11563567824E+00  0.13016534140E+00  0.23904571124E-01 0.  0.
         14    1    1    2    0    0  0.14429541950E-01 -0.68233527425E-02 -0.20523908351E-01  0.26000012260E-01  0.00000000000E+00 0.  1.
     999901    1    3    3    0    0 -0.68352559307E-01 -0.27831918172E-02 -0.95111769888E-01  0.88776464634E+00  0.88000000000E+00 0. -1.
        -11    1    4    4    0    0  0.33170439850E-01  0.16351216796E-01  0.61075394503E-01  0.71401017537E-01  0.51100000000E-03 0. -1.
         11    1    4    4    0    0  0.20752577507E-01 -0.67446722358E-02  0.54560283736E-01  0.58764323863E-01  0.51100000000E-03 0.  1.
</event>
<event>
 8    1  0.1079508E+005  0.1043930E+01  0.7957747E-01            NaN
         13   -1    0    0    0    0  0.00000000000E+00  0.00000000000E+00  0.74505805969E-08  0.10566000000E+00  0.10566000000E+00 0.  1.
     999900   -1    0    0    0    0 -0.00000000000E+00 -0.00000000000E+00 -0.74505805969E-08  0.93827000000E+00  0.93827000000E+00 0. -1.
     999902    2    1    2    0    0 -0.31106567818E-02 -0.21199981400E-01 -0.97715844968E-02  0.10203800688E+01  0.10201082715E+01 0.  0.
     999903    2    3    3    0    0  0.90560039872E-01 -0.42442260340E-01  0.81822445635E-01  0.13042787895E+00  0.17721532471E-01 0.  0.
         14    1    1    2    0    0  0.31106567818E-02  0.21199981400E-01  0.97715844968E-02  0.23549931222E-01  0.00000000000E+00 0. -1.
     999901    1    3    3    0    0 -0.93670696654E-01  0.21242278940E-01 -0.91594030132E-01  0.88995218983E+00  0.88000000000E+00 0. -1.
        -11    1    4    4    0    0  0.67893332633E-01 -0.22999269785E-01  0.56640330326E-01  0.91361146924E-01  0.51100000000E-03 0. -1.
         11    1    4    4    0    0  0.22666707238E-01 -0.19442990554E-01  0.25182115309E-01  0.39066732025E-01  0.51100000000E-03 0.  1.
</event>
<event>
 8    1  0.1079508E+005  0.1043930E+01  0.7957747E-01            NaN
         13   -1    0    0    0    0  0.00000000000E+00  0.00000000000E+00  0.74505805969E-08  0.10566000000E+00  0.10566000000E+00 0. -1.
     999900   -1    0    0    0    0 -0.00000000000E+00 -0.00000000000E+00 -0.74505805969E-08  0.93827000000E+00  0.93827000000E+00 0.  1.
     999902    2    1    2    0    0 -0.47861859864E-02 -0.22632391457E-01  0.45047070776E-02  0.10203625414E+01  0.10200903346E+01 0.  0.
     999903    2    3    3    0    0  0.13287559958E-01  0.99302339644E-01  0.78357167728E-01  0.12870738110E+00  0.19703560735E-01 0.  0.
         14    1    1    2    0    0  0.47861859864E-02  0.22632391457E-01 -0.45047070776E-02  0.23567458607E-01  0.00000000000E+00 0.  1.
     999901    1    3    3    0    0 -0.18073745945E-01 -0.12193473110E+00 -0.73852460650E-01  0.89165516030E+00  0.88000000000E+00 0.  1.
        -11    1    4    4    0    0  0.70343229721E-02  0.12208610819E-01  0.60760889912E-02  0.15352910351E-01  0.51100000000E-03 0.  1.
         11    1    4    4    0    0  0.62532369863E-02  0.87093728825E-01  0.72281078737E-01  0.11335447074E+00  0.51100000000E-03 0. -1.
</event>
<event>
 8    1  0.1079508E+005  0.1043930E+01  0.7957747E-01            NaN
         13   -1    0    0    0    0  0.00000000000E+00  0.00000000000E+00  0.74505805969E-08  0.10566000000E+00  0.10566000000E+00 0.  1.
     999900   -1    0    0    0    0 -0.00000000000E+00 -0.00000000000E+00 -0.74505805969E-08  0.93827000000E+00  0.93827000000E+00 0.  1.
     999902    2    1    2    0    0 -0.18864165941E-01 -0.19857248370E-01  0.25245789786E-01  0.10066806111E+01  0.10059912206E+01 0.  0.
     999903    2    3    3    0    0  0.35703315921E-01 -0.10054922195E+00  0.52917993596E-01  0.12087332083E+00  0.20619719701E-01 0.  0.
         14    1    1    2    0    0  0.18864165941E-01  0.19857248370E-01 -0.25245789786E-01  0.37249388873E-01  0.00000000000E+00 0.  1.
     999901    1    3    3    0    0 -0.54567481862E-01  0.80691973578E-01 -0.27672203810E-01  0.88580729030E+00  0.88000000000E+00 0. -1.
        -11    1    4    4    0    0  0.27078334688E-01 -0.77949390478E-01  0.30765635406E-01  0.88068888538E-01  0.51100000000E-03 0. -1.
         11    1    4    4    0    0  0.86249812332E-02 -0.22599831470E-01  0.22152358190E-01  0.32804432294E-01  0.51100000000E-03 0.  1.
</event>
<event>
 8    1  0.1079508E+005  0.1043930E+01  0.7957747E-01            NaN
         13   -1    0    0    0    0  0.00000000000E+00  0.00000000000E+00  0.74505805969E-08  0.10566000000E+00  0.10566000000E+00 0.  1.
     999900   -1    0    0    0    0 -0.00000000000E+00 -0.00000000000E+00 -0.74505805969E-08  0.93827000000E+00  0.93827000000E+00 0. -1.
     999902    2    1    2    0    0 -0.11754815064E-01 -0.10453131558E-01  0.18118965407E-01  0.10199354059E+01  0.10196531232E+01 0.  0.
     999903    2    3    3    0    0  0.11087417668E+00  0.79349110547E-02 -0.59767893083E-01  0.12783543820E+00  0.20338445062E-01 0.  0.
         14    1    1    2    0    0  0.11754815064E-01  0.10453131558E-01 -0.18118965407E-01  0.23994594057E-01  0.00000000000E+00 0. -1.
     999901    1    3    3    0    0 -0.12262899174E+00 -0.18388042613E-01  0.77886858490E-01  0.89209996775E+00  0.88000000000E+00 0.  1.
        -11    1    4    4    0    0  0.68595240142E-01  0.10722958443E-01 -0.45979631911E-01  0.83274704920E-01  0.51100000000E-03 0. -1.
         11    1    4    4    0    0  0.42278936538E-01 -0.27880473887E-02 -0.13788261173E-01  0.44560733277E-01  0.51100000000E-03 0.  1.
</event>
<event>
 8    1  0.1079508E+005  0.1043930E+01  0.7957747E-01            NaN
         13   -1    0    0    0    0  0.00000000000E+00  0.00000000000E+00  0.74505805969E-08  0.10566000000E+00  0.10566000000E+00 0.  1.
     999900   -1    0    0    0    0 -0.00000000000E+00 -0.00000000000E+00 -0.74505805969E-08  0.93827000000E+00  0.93827000000E+00 0.  1.
     999902    2    1    2    0    0  0.19879839935E-01 -0.12463318522E-01  0.37065809534E-02  0.10201753986E+01  0.10198988003E+01 0.  0.
     999903    2    3    3    0    0  0.94931275463E-01  0.18767100870E-01  0.88029100100E-01  0.13241510197E+00  0.20505746248E-01 0.  0.
         14    1    1    2    0    0 -0.19879839935E-01  0.12463318522E-01 -0.37065809534E-02  0.23754601381E-01  0.00000000000E+00 0. -1.
     999901    1    3    3    0    0 -0.75051435528E-01 -0.31230419392E-01 -0.84322519147E-01  0.88776029665E+00  0.88000000000E+00 0.  1.
        -11    1    4    4    0    0  0.31495597622E-01  0.14601836335E-01  0.38354973748E-01  0.51735398193E-01  0.51100000000E-03 0. -1.
         11    1    4    4    0    0  0.63435677841E-01  0.41652645351E-02  0.49674126352E-01  0.80679703778E-01  0.51100000000E-03 0.  1.
</event>
<event>
 8    1  0.1079508E+005  0.1043930E+01  0.7957747E-01            NaN
         13   -1    0    0    0    0  0.00000000000E+00  0.00000000000E+00  0.74505805969E-08  0.10566000000E+00  0.10566000000E+00 0. -1.
     999900   -1    0    0    0    0 -0.00000000000E+00 -0.00000000000E+00 -0.74505805969E-08  0.93827000000E+00  0.93827000000E+00 0.  1.
     999902    2    1    2    0    0  0.15272893013E-01  0.24543951327E-01 -0.13289905057E-01  0.10121135202E+01  0.10116133102E+01 0.  0.
     999903    2    3    3    0    0  0.35447140213E-01 -0.68816470577E-01 -0.93176553752E-01  0.12334749633E+00  0.23249264699E-01 0.  0.
         14    1    1    2    0    0 -0.15272893013E-01 -0.24543951327E-01  0.13289905057E-01  0.31816479757E-01  0.00000000000E+00 0. -1.
     999901    1    3    3    0    0 -0.20174247200E-01  0.93360421904E-01  0.79886648695E-01  0.88876602392E+00  0.88000000000E+00 0. -1.
        -11    1    4    4    0    0  0.17457506857E-01 -0.12666685350E-01 -0.20508928319E-01  0.29767208892E-01  0.51100000000E-03 0. -1.
         11    1    4    4    0    0  0.17989633355E-01 -0.56149785227E-01 -0.72667625433E-01  0.93580287434E-01  0.51100000000E-03 0.  1.
</event>
<event>
 8    1  0.1079508E+005  0.1043930E+01  0.7957747E-01            NaN
         13   -1    0    0    0    0  0.00000000000E+00  0.00000000000E+00  0.74505805969E-08  0.10566000000E+00  0.10566000000E+00 0. -1.
     999900   -1    0    0    0    0 -0.00000000000E+00 -0.00000000000E+00 -0.74505805969E-08  0.93827000000E+00  0.93827000000E+00 0. -1.
     999902    2    1    2    0    0  0.76189531228E-02 -0.17268084738E-01  0.14896627005E-01  0.10198853604E+01  0.10196018849E+01 0.  0.
     999903    2    3    3    0    0  0.11840934009E-01 -0.51670694962E-01 -0.11651882434E+00  0.12945210318E+00  0.19265050106E-01 0.  0.
         14    1    1    2    0    0 -0.76189531228E-02  0.17268084738E-01 -0.14896627005E-01  0.24044639597E-01  0.00000000000E+00 0.  1.
     999901    1    3    3    0    0 -0.42219808863E-02  0.34402610224E-01  0.13141545135E+00  0.89043325722E+00  0.88000000000E+00 0.  1.
        -11    1    4    4    0    0  0.15535029125E-01 -0.30117525396E-01 -0.80009997623E-01  0.86892251131E-01  0.51100000000E-03 0. -1.
         11    1    4    4    0    0 -0.36940951159E-02 -0.21553169566E-01 -0.36508826720E-01  0.42559852051E-01  0.51100000000E-03 0.  1.
</event>
<event>
 8    1  0.1079508E+005  0.1043930E+01  0.7957747E-01            NaN
         13   -1    0    0    0    0  0.00000000000E+00  0.00000000000E+00  0.74505805969E-08  0.10566000000E+00  0.10566000000E+00 0.  1.
     999900   -1    0    0    0    0 -0.00000000000E+00 -0.00000000000E+00 -0.74505805969E-08  0.93827000000E+00  0.93827000000E+00 0. -1.
     999902    2    1    2    0    0 -0.21329150879E-01 -0.90810629823E-02 -0.27149644409E-02  0.10205897041E+01  0.10203227796E+01 0.  0.
     999903    2    3    3    0    0  0.26409236445E-01 -0.11498675398E+00 -0.55648553276E-01  0.13137829286E+00  0.15623475689E-01 0.  0.
         14    1    1    2    0    0  0.21329150879E-01  0.90810629823E-02  0.27149644409E-02  0.23340295928E-01  0.00000000000E+00 0. -1.
     999901    1    3    3    0    0 -0.47738387324E-01  0.10590569099E+00  0.52933588835E-01  0.88921141122E+00  0.88000000000E+00 0.  1.
        -11    1    4    4    0    0  0.18780351635E-01 -0.56481034565E-01 -0.33861053126E-01  0.68480952920E-01  0.51100000000E-03 0. -1.
         11    1    4    4    0    0  0.76288848093E-02 -0.58505719411E-01 -0.21787500150E-01  0.62897339936E-01  0.51100000000E-03 0.  1.
</event>
<event>
 8    1  0.1079508E+005  0.1043930E+01  0.7957747E-01            NaN
         13   -1    0    0    0    0  0.00000000000E+00  0.00000000000E+00  0.74505805969E-08  0.10566000000E+00  0.10566000000E+00 0. -1.
     999900   -1    0    0    0    0 -0.00000000000E+00 -0.00000000000E+00 -0.74505805969E-08  0.93827000000E+00  0.93827000000E+00 0. -1.
     999902    2    1    2    0    0 -0.19125361769E-01  0.13233905453E-01 -0.44369656453E-02  0.10202529567E+01  0.10199781827E+01 0.  0.
     999903    2    3    3    0    0  0.11088747005E+00 -0.16347153030E-02  0.60919975902E-01  0.12817900115E+00  0.20491695008E-01 0.  0.
         14    1    1    2    0    0  0.19125361769E-01 -0.13233905453E-01  0.44369656453E-02  0.23677043322E-01  0.00000000000E+00 0.  1.
     999901    1    3    3    0    0 -0.13001283182E+00  0.14868620756E-01 -0.65356941548E-01  0.89207395553E+00  0.88000000000E+00 0. -1.
        -11    1    4    4    0    0  0.49014597688E-01 -0.41208235906E-02  0.16179774441E-01  0.51782798259E-01  0.51100000000E-03 0. -1.
         11    1    4    4    0    0  0.61872872361E-01  0.24861082877E-02  0.44740201461E-01  0.76396202892E-01  0.51100000000E-03 0.  1.
</event>
<event>
 8    1  0.1079508E+005  0.1043930E+01  0.7957747E-01            NaN
         13   -1    0    0    0    0  0.00000000000E+00  0.00000000000E+00  0.74505805969E-08  0.10566000000E+00  0.10566000000E+00 0.  1.
     999900   -1    0    0    0    0 -0.00000000000E+00 -0.00000000000E+00 -0.74505805969E-08  0.93827000000E+00  0.93827000000E+00 0.  1.
     999902    2    1    2    0    0 -0.14075542053E-01  0.17221638908E-02  0.18022444029E-01  0.10209975945E+01  0.10207400221E+01 0.  0.
     999903    2    3    3    0    0  0.36231806136E-01  0.11323094080E+00  0.53732724293E-01  0.13181805093E+00  0.18836219379E-01 0.  0.
         14    1    1    2    0    0  0.14075542053E-01 -0.17221638908E-02 -0.18022444029E-01  0.22932405485E-01  0.00000000000E+00 0. -1.
     999901    1    3    3    0    0 -0.50307348189E-01 -0.11150877691E+00 -0.35710280264E-01  0.88917954358E+00  0.88000000000E+00 0. -1.
        -11    1    4    4    0    0  0.44931798937E-02  0.37217496848E-01  0.22476031039E-01  0.43712284651E-01  0.51100000000E-03 0. -1.
         11    1    4    4    0    0  0.31738626242E-01  0.76013443955E-01  0.31256693253E-01  0.88105766280E-01  0.51100000000E-03 0.  1.
</event>
<event>
 8    1  0.1079508E+005  0.1043930E+01  0.7957747E-01            NaN
         13   -1    0    0    0    0  0.00000000000E+00  0.00000000000E+00  0.74505805969E-08  0.10566000000E+00  0.10566000000E+00 0.  1.
     999900   -1    0    0    0    0 -0.00000000000E+00 -0.00000000000E+00 -0.74505805969E-08  0.93827000000E+00  0.93827000000E+00 0. -1.
     999902    2    1    2    0    0  0.34533600593E-02  0.18613043823E-01  0.15635297269E-01  0.10193773297E+01  0.10190815997E+01 0.  0.
     999903    2    3    3    0    0 -0.72719590334E-01  0.34526621870E-02  0.10730725802E+00  0.13121298463E+00  0.20048441740E-01 0.  0.
         14    1    1    2    0    0 -0.34533600593E-02 -0.18613043823E-01 -0.15635297269E-01  0.24552670258E-01  0.00000000000E+00 0. -1.
     999901    1    3    3    0    0  0.76172950393E-01  0.15160381636E-01 -0.91671960754E-01  0.88816434511E+00  0.88000000000E+00 0. -1.
        -11    1    4    4    0    0 -0.22780004053E-01 -0.79396192248E-02  0.30492748749E-01  0.38884894051E-01  0.51100000000E-03 0. -1.
         11    1    4    4    0    0 -0.49939586281E-01  0.11392281412E-01  0.76814509274E-01  0.92328090577E-01  0.51100000000E-03 0.  1.
</event>
<event>
 8    1  0.1079508E+005  0.1043930E+01  0.7957747E-01            NaN
         13   -1    0    0    0    0  0.00000000000E+00  0.00000000000E+00  0.74505805969E-08  0.10566000000E+00  0.10566000000E+00 0. -1.
     999900   -1    0    0    0    0 -0.00000000000E+00 -0.00000000000E+00 -0.74505805969E-08  0.93827000000E+00  0.93827000000E+00 0.  1.
     999902    2    1    2    0    0 -0.55962956954E-02  0.13480165041E-01 -0.19147786090E-01  0.10198536405E+01  0.10195694076E+01 0.  0.
     999903    2    3    3    0    0  0.71445417188E-02 -0.11290839175E+00  0.55681750103E-01  0.12758918658E+00  0.19472900012E-01 0.  0.
         14    1    1    2    0    0  0.55962956954E-02 -0.13480165041E-01  0.19147786090E-01  0.24076359509E-01  0.00000000000E+00 0. -1.
     999901    1    3    3    0    0 -0.12740837414E-01  0.12638855679E+00 -0.74829536193E-01  0.89226445391E+00  0.88000000000E+00 0.  1.
        -11    1    4    4    0    0  0.88444005493E-02 -0.28095663422E-01  0.19718796431E-01  0.35449707726E-01  0.51100000000E-03 0.  1.
         11    1    4    4    0    0 -0.16998588305E-02 -0.84812728324E-01  0.35962953672E-01  0.92139478855E-01  0.51100000000E-03 0. -1.
</event>
<event>
 8    1  0.1079508E+005  0.1043930E+01  0.7957747E-01            NaN
         13   -1    0    0    0    0  0.00000000000E+00  0.00000000000E+00  0.74505805969E-08  0.10566000000E+00  0.10566000000E+00 0.  1.
     999900   -1    0    0    0    0 -0.00000000000E+00 -0.00000000000E+00 -0.74505805969E-08  0.93827000000E+00  0.93827000000E+00 0.  1.
     999902    2    1    2    0    0  0.75728912607E-02 -0.21144344072E-01  0.14122597167E-02  0.10214260793E+01  0.10211781476E+01 0.  0.
     999903    2    3    3    0    0 -0.10232880132E+00  0.73318257531E-01  0.23195100396E-01  0.12930722105E+00  0.18319232141E-01 0.  0.
         14    1    1    2    0    0 -0.75728912607E-02  0.21144344072E-01 -0.14122597167E-02  0.22503920675E-01  0.00000000000E+00 0.  1.
     999901    1    3    3    0    0  0.10990169259E+00 -0.94462601603E-01 -0.21782840679E-01  0.89211885827E+00  0.88000000000E+00 0. -1.
        -11    1    4    4    0    0 -0.58813042853E-01  0.31068028982E-01  0.10537133610E-01  0.67346037301E-01  0.51100000000E-03 0. -1.
         11    1    4    4    0    0 -0.43515758472E-01  0.42250228550E-01  0.12657966786E-01  0.61961183753E-01  0.51100000000E-03 0.  1.
</event>
<event>
 8    1  0.1079508E+005  0.1043930E+01  0.7957747E-01            NaN
         13   -1    0    0    0    0  0.00000000000E+00  0.00000000000E+00  0.74505805969E-08  0.10566000000E+00  0.10566000000E+00 0. -1.
     999900   -1    0    0    0    0 -0.00000000000E+00 -0.00000000000E+00 -0.74505805969E-08  0.93827000000E+00  0.93827000000E+00 0. -1.
     999902    2    1    2    0    0 -0.16043542606E-01  0.13399181698E-01  0.10766532704E-01  0.10204172044E+01  0.10201462736E+01 0.  0.
     999903    2    3    3    0    0 -0.11479717141E+00  0.33492947042E-01  0.55766195640E-01  0.13352318129E+00  0.20454908912E-01 0.  0.
         14    1    1    2    0    0  0.16043542606E-01 -0.13399181698E-01 -0.10766532704E-01  0.23512795580E-01  0.00000000000E+00 0. -1.
     999901    1    3    3    0    0  0.98753628806E-01 -0.20093765345E-01 -0.44999662937E-01  0.88689402313E+00  0.88000000000E+00 0.  1.
        -11    1    4    4    0    0 -0.76713630166E-01  0.25648438698E-01  0.47375586743E-01  0.93741830583E-01  0.51100000000E-03 0. -1.
         11    1    4    4    0    0 -0.38083541246E-01  0.78445083443E-02  0.83906088974E-02  0.39781350702E-01  0.51100000000E-03 0.  1.
</event>
<event>
 8    1  0.1079508E+005  0.1043930E+01  0.7957747E-01            NaN
         13   -1    0    0    0    0  0.00000000000E+00  0.00000000000E+00  0.74505805969E-08  0.10566000000E+00  0.10566000000E+00 0. -1.
     999900   -1    0    0    0    0 -0.00000000000E+00 -0.00000000000E+00 -0.74505805969E-08  0.93827000000E+00  0.93827000000E+00 0. -1.
     999902    2    1    2    0    0  0.20543467627E-01 -0.55111134643E-02  0.10465319077E-01  0.10202249512E+01  0.10199495192E+01 0.  0.
     999903    2    3    3    0    0  0.89936316734E-01  0.91592571895E-01 -0.21749485855E-01  0.13158425507E+00  0.19069235778E-01 0.  0.
         14    1    1    2    0    0 -0.20543467627E-01  0.55111134643E-02 -0.10465319077E-01  0.23705048769E-01  0.00000000000E+00 0.  1.
     999901    1    3    3    0    0 -0.69392849107E-01 -0.97103685359E-01  0.32214804932E-01  0.88864069616E+00  0.88000000000E+00 0.  1.
        -11    1    4    4    0    0  0.65623996468E-01  0.76538591339E-01 -0.12881997528E-01  0.10164089658E+00  0.51100000000E-03 0.  1.
         11    1    4    4    0    0  0.24312320266E-01  0.15053980556E-01 -0.88674883270E-02  0.29943358488E-01  0.51100000000E-03 0. -1.
</event>
<event>
 8    1  0.1079508E+005  0.1043930E+01  0.7957747E-01            NaN
         13   -1    0    0    0    0  0.00000000000E+00  0.00000000000E+00  0.74505805969E-08  0.10566000000E+00  0.10566000000E+00 0.  1.
     999900   -1    0    0    0    0 -0.00000000000E+00 -0.00000000000E+00 -0.74505805969E-08  0.93827000000E+00  0.93827000000E+00 0. -1.
     999902    2    1    2    0    0  0.22865064350E-01 -0.21216986291E-03 -0.46939577111E-02  0.10205871334E+01  0.10203201494E+01 0.  0.
     999903    2    3    3    0    0 -0.86539606460E-01  0.84085410287E-01  0.39006931009E-01  0.12874340732E+00  0.22223063506E-01 0.  0.
         14    1    1    2    0    0 -0.22865064350E-01  0.21216986291E-03  0.46939577111E-02  0.23342866636E-01  0.00000000000E+00 0.  1.
     999901    1    3    3    0    0  0.10940467081E+00 -0.84297580150E-01 -0.43700888720E-01  0.89184372605E+00  0.88000000000E+00 0.  1.
        -11    1    4    4    0    0 -0.41622665010E-01  0.30880321854E-01  0.25700531435E-01  0.57851697965E-01  0.51100000000E-03 0.  1.
         11    1    4    4    0    0 -0.44916941450E-01  0.53205088432E-01  0.13306399574E-01  0.70891709352E-01  0.51100000000E-03 0. -1.
</event>
<event>
 8    1  0.1079508E+005  0.1043930E+01  0.7957747E-01            NaN
         13   -1    0    0    0    0  0.00000000000E+00  0.00000000000E+00  0.74505805969E-08  0.10566000000E+00  0.10566000000E+00 0. -1.
     999900   -1    0    0    0    0 -0.00000000000E+00 -0.00000000000E+00 -0.74505805969E-08  0.93827000000E+00  0.93827000000E+00 0.  1.
     999902    2    1    2    0    0 -0.20972049100E-01  0.29266406000E-02  0.13162962199E-01  0.10189969769E+01  0.10186918981E+01 0.  0.
     999903    2    3    3    0    0 -0.43422050222E-01 -0.11054936845E+00  0.50553141821E-01  0.13063959793E+00  0.20110869942E-01 0.  0.
         14    1    1    2    0    0  0.20972049100E-01 -0.29266406000E-02 -0.13162962199E-01  0.24933023132E-01  0.00000000000E+00 0.  1.
     999901    1    3    3    0    0  0.22450001122E-01  0.11347600905E+00 -0.37390179622E-01  0.88835737894E+00  0.88000000000E+00 0. -1.
        -11    1    4    4    0    0 -0.18192232133E-01 -0.35034773346E-01  0.77119678106E-02  0.40225964524E-01  0.51100000000E-03 0.  1.
         11    1    4    4    0    0 -0.25229818089E-01 -0.75514595102E-01  0.42841174011E-01  0.90413633407E-01  0.51100000000E-03 0. -1.
</event>
<event>
 8    1  0.1079508E+005  0.1043930E+01  0.7957747E-01            NaN
         13   -1    0    0    0    0  0.00000000000E+00  0.00000000000E+00  0.74505805969E-08  0.10566000000E+00  0.10566000000E+00 0.  1.
     999900   -1    0    0    0    0 -0.00000000000E+00 -0.00000000000E+00 -0.74505805969E-08  0.93827000000E+00  0.93827000000E+00 0. -1.
     999902    2    1    2    0    0  0.56942875374E-02  0.21511159646E-01 -0.13886479127E-01  0.10177004517E+01  0.10173623839E+01 0.  0.
     999903    2    3    3    0    0 -0.11172132294E+00 -0.55140393505E-01  0.11116697787E-01  0.12624824043E+00  0.17114912946E-01 0.  0.
         14    1    1    2    0    0 -0.56942875374E-02 -0.21511159646E-01  0.13886479127E-01  0.26229548270E-01  0.00000000000E+00 0.  1.
     999901    1    3    3    0    0  0.11741561048E+00  0.76651553151E-01 -0.25003176914E-01  0.89145221130E+00  0.88000000000E+00 0. -1.
        -11    1    4    4    0    0 -0.57296924178E-01 -0.35415936732E-01  0.33269193841E-03  0.67361694603E-01  0.51100000000E-03 0.  1.
         11    1    4    4    0    0 -0.54424398763E-01 -0.19724456773E-01  0.10784005848E-01  0.58886545822E-01  0.51100000000E-03 0. -1.
</event>
<event>
 8    1  0.1079508E+005  0.1043930E+01  0.7957747E-01            NaN
         13   -1    0    0    0    0  0.00000000000E+00  0.00000000000E+00  0.74505805969E-08  0.10566000000E+00  0.10566000000E+00 0. -1.
     999900   -1    0    0    0    0 -0.00000000000E+00 -0.00000000000E+00 -0.74505805969E-08  0.93827000000E+00  0.93827000000E+00 0. -1.
     999902    2    1    2    0    0 -0.19925836847E-01 -0.72185501861E-02  0.11067818000E-01  0.10200209424E+01  0.10197406925E+01 0.  0.
     999903    2    3    3    0    0  0.27210895715E-01  0.28962283890E-01  0.12303728054E+00  0.13093822134E+00  0.20673622616E-01 0.  0.
         14    1    1    2    0    0  0.19925836847E-01  0.72185501861E-02 -0.11067818000E-01  0.23909057617E-01  0.00000000000E+00 0.  1.
     999901    1    3    3    0    0 -0.47136732561E-01 -0.36180834076E-01 -0.11196946254E+00  0.88908272104E+00  0.88000000000E+00 0. -1.
        -11    1    4    4    0    0  0.60528351740E-02 -0.13344134457E-02  0.81423362732E-02  0.10245791032E-01  0.51100000000E-03 0. -1.
         11    1    4    4    0    0  0.21158060540E-01  0.30296697335E-01  0.11489494427E+00  0.12069243031E+00  0.51100000000E-03 0.  1.
</event>
<event>
 8    1  0.1079508E+005  0.1043930E+01  0.7957747E-01            NaN
         13   -1    0    0    0    0  0.00000000000E+00  0.00000000000E+00  0.74505805969E-08  0.10566000000E+00  0.10566000000E+00 0. -1.
     999900   -1    0    0    0    0 -0.00000000000E+00 -0.00000000000E+00 -0.74505805969E-08  0.93827000000E+00  0.93827000000E+00 0. -1.
     999902    2    1    2    0    0  0.16484655863E-01 -0.11082321510E-01  0.12398850248E-01  0.10205143382E+01  0.10202456671E+01 0.  0.
     999903    2    3    3    0    0  0.93538999551E-02  0.39431525646E-01  0.12399032415E+00  0.13200144947E+00  0.20209936147E-01 0.  0.
         14    1    1    2    0    0 -0.16484655863E-01  0.11082321510E-01 -0.12398850248E-01  0.23415661776E-01  0.00000000000E+00 0.  1.
     999901    1    3    3    0    0  0.71307559074E-02 -0.50513847156E-01 -0.11159147391E+00  0.88851288875E+00  0.88000000000E+00 0. -1.
        -11    1    4    4    0    0 -0.16810694739E-02 -0.22181995937E-03  0.21222043182E-01  0.21295807955E-01  0.51100000000E-03 0. -1.
         11    1    4    4    0    0  0.11034969429E-01  0.39653345605E-01  0.10276828097E+00  0.11070564151E+00  0.51100000000E-03 0.  1.
</event>
<event>
 8    1  0.1079508E+005  0.1043930E+01  0.7957747E-01            NaN
         13   -1    0    0    0    0  0.00000000000E+00  0.00000000000E+00  0.74505805969E-08  0.10566000000E+00  0.10566000000E+00 0. -1.
     999900   -1    0    0    0    0 -0.00000000000E+00 -0.00000000000E+00 -0.74505805969E-08  0.93827000000E+00  0.93827000000E+00 0.  1.
     999902    2    1    2    0    0  0.86170204664E-02  0.19741287257E-01 -0.85406214875E-02  0.10207586021E+01  0.10204955708E+01 0.  0.
     999903    2    3    3    0    0 -0.11202658068E+00 -0.54859116539E-01  0.27701095043E-01  0.12866356192E+00  0.15082574477E-01 0.  0.
         14    1    1    2    0    0 -0.86170204664E-02 -0.19741287257E-01  0.85406214875E-02  0.23171397879E-01  0.00000000000E+00 0. -1.
     999901    1    3    3    0    0  0.12064360114E+00  0.74600403796E-01 -0.36241716531E-01  0.89209504021E+00  0.88000000000E+00 0.  1.
        -11    1    4    4    0    0 -0.43856848853E-01 -0.29402602217E-01  0.13819201678E-01  0.54581752120E-01  0.51100000000E-03 0.  1.
         11    1    4    4    0    0 -0.68169731822E-01 -0.25456514322E-01  0.13881893365E-01  0.74081809795E-01  0.51100000000E-03 0. -1.
</event>
<event>
 8    1  0.1079508E+005  0.1043930E+01  0.7957747E-01            NaN
         13   -1    0    0    0    0  0.00000000000E+00  0.00000000000E+00  0.74505805969E-08  0.10566000000E+00  0.10566000000E+00 0.  1.
     999900   -1    0    0    0    0 -0.00000000000E+00 -0.00000000000E+00 -0.74505805969E-08  0.93827000000E+00  0.93827000000E+00 0.  1.
     999902    2    1    2    0    0 -0.98813564689E-02  0.36313334802E-02  0.21117081195E-01  0.10203342608E+01  0.10200613927E+01 0.  0.
     999903    2    3    3    0    0 -0.10902552305E+00 -0.43176612934E-01 -0.53645319415E-01  0.13038484308E+00  0.19276992230E-01 0.  0.
         14    1    1    2    0    0  0.98813564689E-02 -0.36313334802E-02 -0.21117081195E-01  0.23595739164E-01  0.00000000000E+00 0. -1.
     999901    1    3    3    0    0  0.99144166583E-01  0.46807946414E-01  0.74762400610E-01  0.88994941775E+00  0.88000000000E+00 0.  1.
        -11    1    4    4    0    0 -0.62537553742E-01 -0.17258364556E-01 -0.22240756319E-01  0.68583592337E-01  0.51100000000E-03 0. -1.
         11    1    4    4    0    0 -0.46487969310E-01 -0.25918248378E-01 -0.31404563096E-01  0.61801250746E-01  0.51100000000E-03 0.  1.
</event>
<event>
 8    1  0.1079508E+005  0.1043930E+01  0.7957747E-01            NaN
         13   -1    0    0    0    0  0.00000000000E+00  0.00000000000E+00  0.74505805969E-08  0.10566000000E+00  0.10566000000E+00 0. -1.
     999900   -1    0    0    0    0 -0.00000000000E+00 -0.00000000000E+00 -0.74505805969E-08  0.93827000000E+00  0.93827000000E+00 0. -1.
     999902    2    1    2    0    0  0.13946852660E-02 -0.22941470911E-01  0.10582011591E-01  0.10186271305E+01  0.10183128183E+01 0.  0.
     999903    2    3    3    0    0  0.81803276354E-01  0.76215914443E-01  0.59207775585E-01  0.12808673643E+00  0.20000243048E-01 0.  0.
         14    1    1    2    0    0 -0.13946852660E-02  0.22941470911E-01 -0.10582011591E-01  0.25302869479E-01  0.00000000000E+00 0. -1.
     999901    1    3    3    0    0 -0.80408591088E-01 -0.99157385354E-01 -0.48625763994E-01  0.89054039410E+00  0.88000000000E+00 0.  1.
        -11    1    4    4    0    0  0.19587625269E-01  0.17629619853E-01  0.24037586791E-01  0.35672752340E-01  0.51100000000E-03 0.  1.
         11    1    4    4    0    0  0.62215651086E-01  0.58586294590E-01  0.35170188794E-01  0.92413984086E-01  0.51100000000E-03 0. -1.
</event>
<event>
 8    1  0.1079508E+005  0.1043930E+01  0.7957747E-01            NaN
         13   -1    0    0    0    0  0.00000000000E+00  0.00000000000E+00  0.74505805969E-08  0.10566000000E+00  0.10566000000E+00 0.  1.
     999900   -1    0    0    0    0 -0.00000000000E+00 -0.00000000000E+00 -0.74505805969E-08  0.93827000000E+00  0.93827000000E+00 0.  1.
     999902    2    1    2    0    0 -0.45822324038E-02  0.22141778361E-01  0.27580922900E-02  0.10211514514E+01  0.10208973623E+01 0.  0.
     999903    2    3    3    0    0  0.58330113829E-02 -0.10710397596E+00  0.69369404062E-01  0.12915929384E+00  0.19097729645E-01 0.  0.
         14    1    1    2    0    0  0.45822324038E-02 -0.22141778361E-01 -0.27580922900E-02  0.22778548590E-01  0.00000000000E+00 0. -1.
     999901    1    3    3    0    0 -0.10415243787E-01  0.12924575432E+00 -0.66611311772E-01  0.89199215757E+00  0.88000000000E+00 0. -1.
        -11    1    4    4    0    0  0.10439235107E-01 -0.90863609574E-01  0.53368866197E-01  0.10589461825E+00  0.51100000000E-03 0.  1.
         11    1    4    4    0    0 -0.46062237242E-02 -0.16240366382E-01  0.16000537864E-01  0.23264675587E-01  0.51100000000E-03 0. -1.
</event>
<event>
 8    1  0.1079508E+005  0.1043930E+01  0.7957747E-01            NaN
         13   -1    0    0    0    0  0.00000000000E+00  0.00000000000E+00  0.74505805969E-08  0.10566000000E+00  0.10566000000E+00 0. -1.
     999900   -1    0    0    0    0 -0.00000000000E+00 -0.00000000000E+00 -0.74505805969E-08  0.93827000000E+00  0.93827000000E+00 0. -1.
     999902    2    1    2    0    0  0.16859121568E-01  0.38933856911E-02  0.16470722265E-01  0.10200412344E+01  0.10197614656E+01 0.  0.
     999903    2    3    3    0    0  0.71470614900E-01  0.55988118590E-01 -0.91331661287E-01  0.13025607472E+00  0.19556442196E-01 0.  0.
         14    1    1    2    0    0 -0.16859121568E-01 -0.38933856911E-02 -0.16470722265E-01  0.23888765646E-01  0.00000000000E+00 0.  1.
     999901    1    3    3    0    0 -0.54611493332E-01 -0.52094732898E-01  0.10780238355E+00  0.88978515963E+00  0.88000000000E+00 0.  1.
        -11    1    4    4    0    0  0.38090529752E-01  0.18926423301E-01 -0.35655202106E-01  0.55503626133E-01  0.51100000000E-03 0.  1.
         11    1    4    4    0    0  0.33380085148E-01  0.37061695288E-01 -0.55676459181E-01  0.74752448589E-01  0.51100000000E-03 0. -1.
</event>
<event>
 8    1  0.1079508E+005  0.1043930E+01  0.7957747E-01            NaN
         13   -1    0    0    0    0  0.00000000000E+00  0.00000000000E+00  0.74505805969E-08  0.10566000000E+00  0.10566000000E+00 0.  1.
     999900   -1    0    0    0    0 -0.00000000000E+00 -0.00000000000E+00 -0.74505805969E-08  0.93827000000E+00  0.93827000000E+00 0.  1.
     999902    2    1    2    0    0 -0.15258392471E-01  0.78638547918E-02  0.17543824204E-01  0.10193852547E+01  0.10190897179E+01 0.  0.
     999903    2    3    3    0    0 -0.37306670093E-01 -0.85695614926E-01 -0.84858249651E-01  0.12824795573E+00  0.22607290096E-01 0.  0.
         14    1    1    2    0    0  0.15258392471E-01 -0.78638547918E-02 -0.17543824204E-01  0.24544745276E-01  0.00000000000E+00 0. -1.
     999901    1    3    3    0    0  0.22048277622E-01  0.93559469718E-01  0.10240207385E+00  0.89113729899E+00  0.88000000000E+00 0. -1.
        -11    1    4    4    0    0 -0.14488701970E-01 -0.22156488514E-01 -0.12488160232E-01  0.29275377624E-01  0.51100000000E-03 0.  1.
         11    1    4    4    0    0 -0.22817968123E-01 -0.63539126412E-01 -0.72370089419E-01  0.98972578111E-01  0.51100000000E-03 0. -1.
</event>
<event>
 8    1  0.1079508E+005  0.1043930E+01  0.7957747E-01            NaN
         13   -1    0    0    0    0  0.00000000000E+00  0.00000000000E+00  0.74505805969E-08  0.10566000000E+00  0.10566000000E+00 0. -1.
     999900   -1    0    0    0    0 -0.00000000000E+00 -0.00000000000E+00 -0.74505805969E-08  0.93827000000E+00  0.93827000000E+00 0.  1.
     999902    2    1    2    0    0 -0.65655030720E-02 -0.80394436138E-02 -0.15722205209E-01  0.10250905143E+01  0.10249173802E+01 0.  0.
     999903    2    3    3    0    0 -0.10806563178E+00 -0.79847033758E-01  0.78342252662E-02  0.13603848460E+00  0.19782937980E-01 0.  0.
         14    1    1    2    0    0  0.65655030720E-02  0.80394436138E-02  0.15722205209E-01  0.18839485684E-01  0.00000000000E+00 0. -1.
     999901    1    3    3    0    0  0.10150012870E+00  0.71807590144E-01 -0.23556430475E-01  0.88905202972E+00  0.88000000000E+00 0.  1.
        -11    1    4    4    0    0 -0.50165008945E-01 -0.48957962758E-01  0.64973597258E-02  0.70398061367E-01  0.51100000000E-03 0. -1.
         11    1    4    4    0    0 -0.57900622831E-01 -0.30889071001E-01  0.13368655405E-02  0.65640423231E-01  0.51100000000E-03 0.  1.
</event>
<event>
 8    1  0.1079508E+005  0.1043930E+01  0.7957747E-01            NaN
         13   -1    0    0    0    0  0.00000000000E+00  0.00000000000E+00  0.74505805969E-08  0.10566000000E+00  0.10566000000E+00 0.  1.
     999900   -1    0    0    0    0 -0.00000000000E+00 -0.00000000000E+00 -0.74505805969E-08  0.93827000000E+00  0.93827000000E+00 0.  1.
     999902    2    1    2    0    0  0.17806541287E-01 -0.97298697550E-02  0.14959292714E-01  0.10187204043E+01  0.10184084340E+01 0.  0.
     999903    2    3    3    0    0  0.29451361112E-02 -0.83479372658E-01  0.99607500572E-01  0.13146329969E+00  0.19582275396E-01 0.  0.
         14    1    1    2    0    0 -0.17806541287E-01  0.97298697550E-02 -0.14959292714E-01  0.25209595724E-01  0.00000000000E+00 0.  1.
     999901    1    3    3    0    0  0.14861405176E-01  0.73749502903E-01 -0.84648207857E-01  0.88725710458E+00  0.88000000000E+00 0.  1.
        -11    1    4    4    0    0 -0.17791886001E-02 -0.71211526229E-01  0.91684332334E-01  0.11610566264E+00  0.51100000000E-03 0. -1.
         11    1    4    4    0    0  0.47243247112E-02 -0.12267846428E-01  0.79231682377E-02  0.15357637054E-01  0.51100000000E-03 0.  1.
</event>
<event>
 8    1  0.1079508E+005  0.1043930E+01  0.7957747E-01            NaN
         13   -1    0    0    0    0  0.00000000000E+00  0.00000000000E+00  0.74505805969E-08  0.10566000000E+00  0.10566000000E+00 0.  1.
     999900   -1    0    0    0    0 -0.00000000000E+00 -0.00000000000E+00 -0.74505805969E-08  0.93827000000E+00  0.93827000000E+00 0.  1.
     999902    2    1    2    0    0  0.23229349712E-02  0.22432869584E-01  0.92639167164E-02  0.10195486584E+01  0.10192570908E+01 0.  0.
     999903    2    3    3    0    0 -0.78241753995E-01 -0.78746712005E-01  0.61774064989E-01  0.12854624960E+00  0.19628715225E-01 0.  0.
         14    1    1    2    0    0 -0.23229349712E-02 -0.22432869584E-01 -0.92639167164E-02  0.24381341587E-01  0.00000000000E+00 0. -1.
     999901    1    3    3    0    0  0.80564688966E-01  0.10117958159E+00 -0.52510148272E-01  0.89100240881E+00  0.88000000000E+00 0.  1.
        -11    1    4    4    0    0 -0.41282613815E-01 -0.38466977825E-01  0.20465507708E-01  0.60025500524E-01  0.51100000000E-03 0.  1.
         11    1    4    4    0    0 -0.36959140180E-01 -0.40279734180E-01  0.41308557281E-01  0.68520749077E-01  0.51100000000E-03 0. -1.
</event>
<event>
 8    1  0.1079508E+005  0.1043930E+01  0.7957747E-01            NaN
         13   -1    0    0    0    0  0.00000000000E+00  0.00000000000E+00  0.74505805969E-08  0.10566000000E+00  0.10566000000E+00 0. -1.
     999900   -1    0    0    0    0 -0.00000000000E+00 -0.00000000000E+00 -0.74505805969E-08  0.93827000000E+00  0.93827000000E+00 0. -1.
     999902    2    1    2    0    0 -0.11754282178E-01  0.17058787637E-01  0.96990803076E-02  0.10210556138E+01  0.10207993578E+01 0.  0.
     999903    2    3    3    0    0  0.46715760060E-01 -0.11335400690E+00  0.35459474732E-01  0.12915324205E+00  0.19791221933E-01 0.  0.
         14    1    1    2    0    0  0.11754282178E-01 -0.17058787637E-01 -0.96990803076E-02  0.22874386199E-01  0.00000000000E+00 0. -1.
     999901    1    3    3    0    0 -0.58470042238E-01  0.13041279453E+00 -0.25760394425E-01  0.89190237175E+00  0.88000000000E+00 0. -1.
        -11    1    4    4    0    0  0.30709510840E-01 -0.48719846825E-01  0.15691203954E-01  0.59692315529E-01  0.51100000000E-03 0. -1.
         11    1    4    4    0    0  0.16006249220E-01 -0.64634160073E-01  0.19768270778E-01  0.69460926520E-01  0.51100000000E-03 0.  1.
</event>
<event>
 8    1  0.1079508E+005  0.1043930E+01  0.7957747E-01            NaN
         13   -1    0    0    0    0  0.00000000000E+00  0.00000000000E+00  0.74505805969E-08  0.10566000000E+00  0.10566000000E+00 0. -1.
     999900   -1    0    0    0    0 -0.00000000000E+00 -0.00000000000E+00 -0.74505805969E-08  0.93827000000E+00  0.93827000000E+00 0.  1.
     999902    2    1    2    0    0  0.15325412900E-01  0.17467336340E-01 -0.17307052906E-03  0.10206919693E+01  0.10204274056E+01 0.  0.
     999903    2    3    3    0    0  0.26199978613E-02 -0.51510539399E-01 -0.11882531636E+00  0.12996320563E+00  0.10525158012E-01 0.  0.
         14    1    1    2    0    0 -0.15325412900E-01 -0.17467336340E-01  0.17307052906E-03  0.23238030742E-01  0.00000000000E+00 0.  1.
     999901    1    3    3    0    0  0.12705415038E-01  0.68977875739E-01  0.11865224583E+00  0.89072876363E+00  0.88000000000E+00 0. -1.
        -11    1    4    4    0    0 -0.36697326584E-02 -0.22486259522E-01 -0.56463630979E-01  0.60889256436E-01  0.51100000000E-03 0. -1.
         11    1    4    4    0    0  0.62897305197E-02 -0.29024279877E-01 -0.62361685383E-01  0.69073949194E-01  0.51100000000E-03 0.  1.
</event>
<event>
 8    1  0.1079508E+005  0.1043930E+01  0.7957747E-01            NaN
         13   -1    0    0    0    0  0.00000000000E+00  0.00000000000E+00  0.74505805969E-08  0.10566000000E+00  0.10566000000E+00 0. -1.
     999900   -1    0    0    0    0 -0.00000000000E+00 -0.00000000000E+00 -0.74505805969E-08  0.93827000000E+00  0.93827000000E+00 0. -1.
     999902    2    1    2    0    0 -0.22734165199E-01  0.78733225279E-02 -0.17326096476E-02  0.10198087767E+01  0.10195234709E+01 0.  0.
     999903    2    3    3    0    0  0.19240261599E-01 -0.10222700077E+00 -0.73600702849E-01  0.12905125839E+00  0.20411185124E-01 0.  0.
         14    1    1    2    0    0  0.22734165199E-01 -0.78733225279E-02  0.17326096476E-02  0.24121223251E-01  0.00000000000E+00 0. -1.
     999901    1    3    3    0    0 -0.41974426799E-01  0.11010032330E+00  0.71868093201E-01  0.89075751836E+00  0.88000000000E+00 0.  1.
        -11    1    4    4    0    0  0.20032831077E-01 -0.76070772974E-01 -0.63115746596E-01  0.10085601326E+00  0.51100000000E-03 0.  1.
         11    1    4    4    0    0 -0.79256947775E-03 -0.26156227799E-01 -0.10484956252E-01  0.28195245125E-01  0.51100000000E-03 0. -1.
</event>
<event>
 8    1  0.1079508E+005  0.1043930E+01  0.7957747E-01            NaN
         13   -1    0    0    0    0  0.00000000000E+00  0.00000000000E+00  0.74505805969E-08  0.10566000000E+00  0.10566000000E+00 0. -1.
     999900   -1    0    0    0    0 -0.00000000000E+00 -0.00000000000E+00 -0.74505805969E-08  0.93827000000E+00  0.93827000000E+00 0.  1.
     999902    2    1    2    0    0  0.14312090561E-01  0.19549730978E-02  0.18217322480E-01  0.10206807270E+01  0.10204159043E+01 0.  0.
     999903    2    3    3    0    0  0.12840376590E+00  0.24223949257E-01 -0.10910884982E-01  0.13255839864E+00  0.19451345063E-01 0.  0.
         14    1    1    2    0    0 -0.14312090561E-01 -0.19549730978E-02 -0.18217322480E-01  0.23249272986E-01  0.00000000000E+00 0. -1.
     999901    1    3    3    0    0 -0.11409167534E+00 -0.22268976159E-01  0.29128207461E-01  0.88812232837E+00  0.88000000000E+00 0. -1.
        -11    1    4    4    0    0  0.20184598770E-01 -0.29996062901E-02  0.20912673937E-03  0.20413733622E-01  0.51100000000E-03 0. -1.
         11    1    4    4    0    0  0.10821916713E+00  0.27223555547E-01 -0.11120011721E-01  0.11214466502E+00  0.51100000000E-03 0.  1.
</event>
<event>
 8    1  0.1079508E+005  0.1043930E+01  0.7957747E-01            NaN
         13   -1    0    0    0    0  0.00000000000E+00  0.00000000000E+00  0.74505805969E-08  0.10566000000E+00  0.10566000000E+00 0. -1.
     999900   -1    0    0    0    0 -0.00000000000E+00 -0.00000000000E+00 -0.74505805969E-08  0.93827000000E+00  0.93827000000E+00 0. -1.
     999902    2    1    2    0    0 -0.35196658889E-02 -0.11341296915E-01  0.20094147879E-01  0.10205893093E+01  0.10203223757E+01 0.  0.
     999903    2    3    3    0    0  0.12764666139E+00 -0.12261739889E-01 -0.13644696344E-01  0.13022771857E+00  0.18140025248E-01 0.  0.
         14    1    1    2    0    0  0.35196658889E-02  0.11341296915E-01 -0.20094147879E-01  0.23340690707E-01  0.00000000000E+00 0.  1.
     999901    1    3    3    0    0 -0.13116632728E+00  0.92044297326E-03  0.33738844223E-01  0.89036159072E+00  0.88000000000E+00 0.  1.
        -11    1    4    4    0    0  0.53514776577E-01 -0.13425723661E-01 -0.23133032634E-02  0.55224033363E-01  0.51100000000E-03 0.  1.
         11    1    4    4    0    0  0.74131884814E-01  0.11639837725E-02 -0.11331393080E-01  0.75003685206E-01  0.51100000000E-03 0. -1.
</event>
<event>
 8    1  0.1079508E+005  0.1043930E+01  0.7957747E-01            NaN
         13   -1    0    0    0    0  0.00000000000E+00  0.00000000000E+00  0.74505805969E-08  0.10566000000E+00  0.10566000000E+00 0. -1.
     999900   -1    0    0    0    0 -0.00000000000E+00 -0.00000000000E+00 -0.74505805969E-08  0.93827000000E+00  0.93827000000E+00 0. -1.
     999902    2    1    2    0    0 -0.18459339223E-02 -0.13917864179E-01 -0.18030180152E-01  0.10210782646E+01  0.10208225216E+01 0.  0.
     999903    2    3    3    0    0  0.90657313417E-01 -0.94419291102E-01 -0.15766806725E-02  0.13242307377E+00  0.19990836329E-01 0.  0.
         14    1    1    2    0    0  0.18459339223E-02  0.13917864179E-01  0.18030180152E-01  0.22851735419E-01  0.00000000000E+00 0. -1.
     999901    1    3    3    0    0 -0.92503247339E-01  0.80501426923E-01 -0.16453499480E-01  0.88865519081E+00  0.88000000000E+00 0.  1.
        -11    1    4    4    0    0  0.12810946259E-01 -0.25006384154E-01 -0.10688906653E-02  0.28121935224E-01  0.51100000000E-03 0.  1.
         11    1    4    4    0    0  0.77846367159E-01 -0.69412906949E-01 -0.50779000714E-03  0.10430113855E+00  0.51100000000E-03 0. -1.
</event>
<event>
 8    1  0.1079508E+005  0.1043930E+01  0.7957747E-01            NaN
         13   -1    0    0    0    0  0.00000000000E+00  0.00000000000E+00  0.74505805969E-08  0.10566000000E+00  0.10566000000E+00 0. -1.
     999900   -1    0    0    0    0 -0.00000000000E+00 -0.00000000000E+00 -0.74505805969E-08  0.93827000000E+00  0.93827000000E+00 0. -1.
     999902    2    1    2    0    0 -0.22314422674E-01 -0.11647103856E-01  0.54502829954E-02  0.10181755038E+01  0.10178497249E+01 0.  0.
     999903    2    3    3    0    0 -0.42037131799E-01 -0.11207366162E+00 -0.48436648092E-01  0.13060675715E+00  0.19605867919E-01 0.  0.
         14    1    1    2    0    0  0.22314422674E-01  0.11647103856E-01 -0.54502829954E-02  0.25754496156E-01  0.00000000000E+00 0.  1.
     999901    1    3    3    0    0  0.19722709125E-01  0.10042655776E+00  0.53886931087E-01  0.88756874669E+00  0.88000000000E+00 0.  1.
        -11    1    4    4    0    0 -0.81688853069E-02 -0.20433555781E-01 -0.17516641604E-01  0.28131028120E-01  0.51100000000E-03 0.  1.
         11    1    4    4    0    0 -0.33868246492E-01 -0.91640105840E-01 -0.30920006488E-01  0.10247572903E+00  0.51100000000E-03 0. -1.
</event>
<event>
 8    1  0.1079508E+005  0.1043930E+01  0.7957747E-01            NaN
         13   -1    0    0    0    0  0.00000000000E+00  0.00000000000E+00  0.74505805969E-08  0.10566000000E+00  0.10566000000E+00 0. -1.
     999900   -1    0    0    0    0 -0.00000000000E+00 -0.00000000000E+00 -0.74505805969E-08  0.93827000000E+00  0.93827000000E+00 0. -1.
     999902    2    1    2    0    0  0.62976454507E-02  0.10120440855E-01 -0.20507173605E-01  0.10202102228E+01  0.10199344444E+01 0.  0.
     999903    2    3    3    0    0 -0.84258656516E-01  0.84033448169E-01 -0.53251073456E-01  0.13187709865E+00  0.19868334488E-01 0.  0.
         14    1    1    2    0    0 -0.62976454507E-02 -0.10120440855E-01  0.20507173605E-01  0.23719777204E-01  0.00000000000E+00 0. -1.
     999901    1    3    3    0    0  0.90556301966E-01 -0.73913007314E-01  0.32743899851E-01  0.88833312415E+00  0.88000000000E+00 0.  1.
        -11    1    4    4    0    0 -0.29996670342E-01  0.34197508142E-01 -0.10473295650E-01  0.46682125460E-01  0.51100000000E-03 0. -1.
         11    1    4    4    0    0 -0.54261986174E-01  0.49835940027E-01 -0.42777777806E-01  0.85194973191E-01  0.51100000000E-03 0.  1.
</event>
<event>
 8    1  0.1079508E+005  0.1043930E+01  0.7957747E-01            NaN
         13   -1    0    0    0    0  0.00000000000E+00  0.00000000000E+00  0.74505805969E-08  0.10566000000E+00  0.10566000000E+00 0. -1.
     999900   -1    0    0    0    0 -0.00000000000E+00 -0.00000000000E+00 -0.74505805969E-08  0.93827000000E+00  0.93827000000E+00 0.  1.
     999902    2    1    2    0    0 -0.19776463458E-01  0.33079735033E-02 -0.17220976472E-02  0.10238049704E+01  0.10236071515E+01 0.  0.
     999903    2    3    3    0    0 -0.10405679794E+00  0.61872284281E-01 -0.58949179798E-01  0.13599424047E+00  0.19063863212E-01 0.  0.
         14    1    1    2    0    0  0.19776463458E-01 -0.33079735033E-02  0.17220976472E-02  0.20125029588E-01  0.00000000000E+00 0.  1.
     999901    1    3    3    0    0  0.84280334485E-01 -0.58564310778E-01  0.57227082151E-01  0.88781072995E+00  0.88000000000E+00 0. -1.
        -11    1    4    4    0    0 -0.37584925897E-01  0.32941689451E-01 -0.26428666107E-01  0.56537749086E-01  0.51100000000E-03 0.  1.
         11    1    4    4    0    0 -0.66471872046E-01  0.28930594831E-01 -0.32520513692E-01  0.79456491379E-01  0.51100000000E-03 0. -1.
</event>
<event>
 8    1  0.1079508E+005  0.1043930E+01  0.7957747E-01            NaN
         13   -1    0    0    0    0  0.00000000000E+00  0.00000000000E+00  0.74505805969E-08  0.10566000000E+00  0.10566000000E+00 0. -1.
     999900   -1    0    0    0    0 -0.00000000000E+00 -0.00000000000E+00 -0.74505805969E-08  0.93827000000E+00  0.93827000000E+00 0. -1.
     999902    2    1    2    0    0  0.13370974216E-01 -0.14619418418E-01  0.13040525981E-01  0.10202115333E+01  0.10199357857E+01 0.  0.
     999903    2    3    3    0    0 -0.34420375611E-01  0.59511394261E-01  0.10891798452E+00  0.13062068486E+00  0.21731720087E-01 0.  0.
         14    1    1    2    0    0 -0.13370974216E-01  0.14619418418E-01 -0.13040525981E-01  0.23718466734E-01  0.00000000000E+00 0.  1.
     999901    1    3    3    0    0  0.47791349827E-01 -0.74130812680E-01 -0.95877458539E-01  0.88959084840E+00  0.88000000000E+00 0. -1.
        -11    1    4    4    0    0 -0.30928544047E-01  0.58062924430E-01  0.90936238473E-01  0.11223875721E+00  0.51100000000E-03 0.  1.
         11    1    4    4    0    0 -0.34918315637E-02  0.14484698313E-02  0.17981746046E-01  0.18381927657E-01  0.51100000000E-03 0. -1.
</event>
<event>
 8    1  0.1079508E+005  0.1043930E+01  0.7957747E-01            NaN
         13   -1    0    0    0    0  0.00000000000E+00  0.00000000000E+00  0.74505805969E-08  0.10566000000E+00  0.10566000000E+00 0. -1.
     999900   -1    0    0    0    0 -0.00000000000E+00 -0.00000000000E+00 -0.74505805969E-08  0.93827000000E+00  0.93827000000E+00 0.  1.
     999902    2    1    2    0    0  0.16421645059E-01 -0.85149907854E-02  0.27650668363E-01  0.10106623738E+01  0.10101146959E+01 0.  0.
     999903    2    3    3    0    0  0.39633267992E-01  0.10978925750E+00 -0.24472689739E-01  0.12091436502E+00  0.19922201980E-01 0.  0.
         14    1    1    2    0    0 -0.16421645059E-01  0.85149907854E-02 -0.27650668363E-01  0.33267626237E-01  0.00000000000E+00 0.  1.
     999901    1    3    3    0    0 -0.23211622933E-01 -0.11830424828E+00  0.52123358102E-01  0.88974800874E+00  0.88000000000E+00 0. -1.
        -11    1    4    4    0    0  0.23296503648E-01  0.65766759982E-01 -0.46022277398E-02  0.69924498010E-01  0.51100000000E-03 0. -1.
         11    1    4    4    0    0  0.16336764344E-01  0.44022497516E-01 -0.19870461999E-01  0.50989867011E-01  0.51100000000E-03 0.  1.
</event>
<event>
 8    1  0.1079508E+005  0.1043930E+01  0.7957747E-01            NaN
         13   -1    0    0    0    0  0.00000000000E+00  0.00000000000E+00  0.74505805969E-08  0.10566000000E+00  0.10566000000E+00 0.  1.
     999900   -1    0    0    0    0 -0.00000000000E+00 -0.00000000000E+00 -0.74505805969E-08  0.93827000000E+00  0.93827000000E+00 0. -1.
     999902    2    1    2    0    0 -0.62045389940E-02 -0.22595347362E-01  0.38994715577E-02  0.10201760129E+01  0.10198994290E+01 0.  0.
     999903    2    3    3    0    0 -0.22726578551E-01  0.96879827370E-01  0.79237234156E-01  0.12875968272E+00  0.19957913061E-01 0.  0.
         14    1    1    2    0    0  0.62045389940E-02  0.22595347362E-01 -0.38994715577E-02  0.23753987138E-01  0.00000000000E+00 0. -1.
     999901    1    3    3    0    0  0.16522039557E-01 -0.11947517473E+00 -0.75337762598E-01  0.89141633014E+00  0.88000000000E+00 0. -1.
        -11    1    4    4    0    0 -0.33560157937E-02  0.57071307223E-01  0.42746601132E-01  0.71385782755E-01  0.51100000000E-03 0. -1.
         11    1    4    4    0    0 -0.19370562757E-01  0.39808520148E-01  0.36490633024E-01  0.57373899966E-01  0.51100000000E-03 0.  1.
</event>
<event>
 8    1  0.1082313E+005  0.1043930E+01  0.7957747E-01            NaN
         13   -1    0    0    0    0  0.00000000000E+00  0.00000000000E+00  0.74505805969E-08  0.10566000000E+00  0.10566000000E+00 0.  1.
     999900   -1    0    0    0    0 -0.00000000000E+00 -0.00000000000E+00 -0.74505805969E-08  0.93827000000E+00  0.93827000000E+00 0.  1.
     999902    2    1    2    0    0 -0.71187397796E-02  0.12906152162E-01  0.20527474408E-01  0.10186590201E+01  0.10183455095E+01 0.  0.
     999903    2    3    3    0    0 -0.66319267503E-01 -0.70819317722E-01 -0.79296763009E-01  0.12709885097E+00  0.21272524310E-01 0.  0.
         14    1    1    2    0    0  0.71187397796E-02 -0.12906152162E-01 -0.20527474408E-01  0.25270979903E-01  0.00000000000E+00 0. -1.
     999901    1    3    3    0    0  0.59200527723E-01  0.83725469884E-01  0.99824237418E-01  0.89156016912E+00  0.88000000000E+00 0.  1.
        -11    1    4    4    0    0 -0.41012681553E-01 -0.29261985675E-01 -0.35522637304E-01  0.61647568774E-01  0.51100000000E-03 0.  1.
         11    1    4    4    0    0 -0.25306585950E-01 -0.41557332047E-01 -0.43774125706E-01  0.65451282200E-01  0.51100000000E-03 0. -1.
</event>
<event>
 8    1  0.1079508E+005  0.1043930E+01  0.7957747E-01            NaN
         13   -1    0    0    0    0  0.00000000000E+00  0.00000000000E+00  0.74505805969E-08  0.10566000000E+00  0.10566000000E+00 0.  1.
     999900   -1    0    0    0    0 -0.00000000000E+00 -0.00000000000E+00 -0.74505805969E-08  0.93827000000E+00  0.93827000000E+00 0. -1.
     999902    2    1    2    0    0 -0.37467877501E-02  0.22837312961E-01 -0.40514616699E-02  0.10204354129E+01  0.10201649064E+01 0.  0.
     999903    2    3    3    0    0 -0.12134338211E+00 -0.82234308832E-03  0.45253221054E-01  0.13093010652E+00  0.19233984168E-01 0.  0.
         14    1    1    2    0    0  0.37467877501E-02 -0.22837312961E-01  0.40514616699E-02  0.23494587108E-01  0.00000000000E+00 0. -1.
     999901    1    3    3    0    0  0.11759659436E+00  0.23659656049E-01 -0.49304682724E-01  0.88950530637E+00  0.88000000000E+00 0. -1.
        -11    1    4    4    0    0 -0.72675280498E-01 -0.75973859656E-02  0.20425408447E-01  0.75874073966E-01  0.51100000000E-03 0. -1.
         11    1    4    4    0    0 -0.48668101612E-01  0.67750428773E-02  0.24827812607E-01  0.55056032552E-01  0.51100000000E-03 0.  1.
</event>
<event>
 8    1  0.1079508E+005  0.1043930E+01  0.7957747E-01            NaN
         13   -1    0    0    0    0  0.00000000000E+00  0.00000000000E+00  0.74505805969E-08  0.10566000000E+00  0.10566000000E+00 0. -1.
     999900   -1    0    0    0    0 -0.00000000000E+00 -0.00000000000E+00 -0.74505805969E-08  0.93827000000E+00  0.93827000000E+00 0.  1.
     999902    2    1    2    0    0  0.81533839620E-02  0.19241813618E-01  0.13991825567E-01  0.10187805220E+01  0.10184700564E+01 0.  0.
     999903    2    3    3    0    0 -0.26744580699E-01  0.12652014048E+00 -0.11201320458E-01  0.13122139610E+00  0.19260495075E-01 0.  0.
         14    1    1    2    0    0 -0.81533839620E-02 -0.19241813618E-01 -0.13991825567E-01  0.25149478007E-01  0.00000000000E+00 0.  1.
     999901    1    3    3    0    0  0.34897964661E-01 -0.10727832686E+00  0.25193146025E-01  0.88755912589E+00  0.88000000000E+00 0. -1.
        -11    1    4    4    0    0 -0.18718691740E-01  0.86612622782E-01 -0.16600083304E-01  0.90155198032E-01  0.51100000000E-03 0. -1.
         11    1    4    4    0    0 -0.80258889589E-02  0.39907517697E-01  0.53987628463E-02  0.41066198066E-01  0.51100000000E-03 0.  1.
</event>
<event>
 8    1  0.1079508E+005  0.1043930E+01  0.7957747E-01            NaN
         13   -1    0    0    0    0  0.00000000000E+00  0.00000000000E+00  0.74505805969E-08  0.10566000000E+00  0.10566000000E+00 0.  1.
     999900   -1    0    0    0    0 -0.00000000000E+00 -0.00000000000E+00 -0.74505805969E-08  0.93827000000E+00  0.93827000000E+00 0.  1.
     999902    2    1    2    0    0  0.81051882664E-02  0.18559816483E-01  0.12330742580E-01  0.10202190726E+01  0.10199435024E+01 0.  0.
     999903    2    3    3    0    0 -0.74116773929E-01 -0.78616115175E-01 -0.63069829905E-01  0.12786888402E+00  0.26435928455E-01 0.  0.
         14    1    1    2    0    0 -0.81051882664E-02 -0.18559816483E-01 -0.12330742580E-01  0.23710927382E-01  0.00000000000E+00 0.  1.
     999901    1    3    3    0    0  0.82221962196E-01  0.97175931658E-01  0.75400572485E-01  0.89235018860E+00  0.88000000000E+00 0. -1.
        -11    1    4    4    0    0 -0.45216514403E-01 -0.29748279224E-01 -0.25874728024E-01  0.59993799370E-01  0.51100000000E-03 0.  1.
         11    1    4    4    0    0 -0.28900259526E-01 -0.48867835951E-01 -0.37195101881E-01  0.67875084649E-01  0.51100000000E-03 0. -1.
</event>
<event>
 8    1  0.1079508E+005  0.1043930E+01  0.7957747E-01            NaN
         13   -1    0    0    0    0  0.00000000000E+00  0.00000000000E+00  0.74505805969E-08  0.10566000000E+00  0.10566000000E+00 0.  1.
     999900   -1    0    0    0    0 -0.00000000000E+00 -0.00000000000E+00 -0.74505805969E-08  0.93827000000E+00  0.93827000000E+00 0. -1.
     999902    2    1    2    0    0 -0.14943615524E-01 -0.16765751635E-01 -0.81471798815E-02  0.10200390265E+01  0.10197592054E+01 0.  0.
     999903    2    3    3    0    0  0.54664316063E-01 -0.11760655952E+00 -0.73370602689E-03  0.13151829394E+00  0.21841085671E-01 0.  0.
         14    1    1    2    0    0  0.14943615524E-01  0.16765751635E-01  0.81471798815E-02  0.23890973460E-01  0.00000000000E+00 0.  1.
     999901    1    3    3    0    0 -0.69607931588E-01  0.10084080788E+00 -0.74134738546E-02  0.88852073260E+00  0.88000000000E+00 0. -1.
        -11    1    4    4    0    0  0.88463738463E-02 -0.56213685566E-02 -0.76309951605E-03  0.10521480720E-01  0.51100000000E-03 0.  1.
         11    1    4    4    0    0  0.45817942217E-01 -0.11198519096E+00  0.29393489159E-04  0.12099681322E+00  0.51100000000E-03 0. -1.
</event>
<event>
 8    1  0.1097739E+005  0.1043930E+01  0.7957747E-01            NaN
         13   -1    0    0    0    0  0.00000000000E+00  0.00000000000E+00  0.74505805969E-08  0.10566000000E+00  0.10566000000E+00 0.  1.
     999900   -1    0    0    0    0 -0.00000000000E+00 -0.00000000000E+00 -0.74505805969E-08  0.93827000000E+00  0.93827000000E+00 0. -1.
     999902    2    1    2    0    0 -0.24516477893E-01  0.69700588123E-02 -0.10111624260E-02  0.10184219256E+01  0.10181024294E+01 0.  0.
     999903    2    3    3    0    0  0.51558311574E-01 -0.63819356708E-01  0.95938123463E-01  0.12701983961E+00  0.14097742303E-01 0.  0.
         14    1    1    2    0    0  0.24516477893E-01 -0.69700588123E-02  0.10111624260E-02  0.25508074360E-01  0.00000000000E+00 0. -1.
     999901    1    3    3    0    0 -0.76074789467E-01  0.70789415521E-01 -0.96949285889E-01  0.89140208603E+00  0.88000000000E+00 0. -1.
        -11    1    4    4    0    0  0.26040394731E-01 -0.21263041855E-01  0.38589959230E-01  0.51182664850E-01  0.51100000000E-03 0.  1.
         11    1    4    4    0    0  0.25517916843E-01 -0.42556314853E-01  0.57348164233E-01  0.75837174761E-01  0.51100000000E-03 0. -1.
</event>
<event>
 8    1  0.1223802E+005  0.1043930E+01  0.7957747E-01            NaN
         13   -1    0    0    0    0  0.00000000000E+00  0.00000000000E+00  0.74505805969E-08  0.10566000000E+00  0.10566000000E+00 0. -1.
     999900   -1    0    0    0    0 -0.00000000000E+00 -0.00000000000E+00 -0.74505805969E-08  0.93827000000E+00  0.93827000000E+00 0. -1.
     999902    2    1    2    0    0  0.17097072176E-02  0.13707257136E-01 -0.19387202661E-01  0.10201250504E+01  0.10198472645E+01 0.  0.
     999903    2    3    3    0    0  0.35858130137E-01 -0.11614315676E+00 -0.37099207837E-01  0.12976503341E+00  0.26221638312E-01 0.  0.
         14    1    1    2    0    0 -0.17097072176E-02 -0.13707257136E-01  0.19387202661E-01  0.23804949569E-01  0.00000000000E+00 0. -1.
     999901    1    3    3    0    0 -0.34148422920E-01  0.12985041390E+00  0.17712005176E-01  0.89036001702E+00  0.88000000000E+00 0. -1.
        -11    1    4    4    0    0  0.32253684615E-01 -0.66932373863E-01 -0.15499928656E-01  0.75899616280E-01  0.51100000000E-03 0. -1.
         11    1    4    4    0    0  0.36044455223E-02 -0.49210782897E-01 -0.21599279181E-01  0.53865417133E-01  0.51100000000E-03 0.  1.
</event>
<event>
 8    1  0.1079508E+005  0.1043930E+01  0.7957747E-01            NaN
         13   -1    0    0    0    0  0.00000000000E+00  0.00000000000E+00  0.74505805969E-08  0.10566000000E+00  0.10566000000E+00 0. -1.
     999900   -1    0    0    0    0 -0.00000000000E+00 -0.00000000000E+00 -0.74505805969E-08  0.93827000000E+00  0.93827000000E+00 0.  1.
     999902    2    1    2    0    0  0.74414707239E-02  0.17149706866E-03  0.21994316111E-01  0.10207102920E+01  0.10204461502E+01 0.  0.
     999903    2    3    3    0    0 -0.98277562839E-01  0.81044976147E-01 -0.16814716847E-01  0.12985498686E+00  0.18783380802E-01 0.  0.
         14    1    1    2    0    0 -0.74414707239E-02 -0.17149706866E-03 -0.21994316111E-01  0.23219707986E-01  0.00000000000E+00 0.  1.
     999901    1    3    3    0    0  0.10571903356E+00 -0.80873479078E-01  0.38809032958E-01  0.89085530515E+00  0.88000000000E+00 0. -1.
        -11    1    4    4    0    0 -0.72662705472E-02  0.53649869785E-02  0.36067085852E-02  0.97391601672E-02  0.51100000000E-03 0.  1.
         11    1    4    4    0    0 -0.91011292292E-01  0.75679989168E-01 -0.20421425432E-01  0.12011582670E+00  0.51100000000E-03 0. -1.
</event>
<event>
 8    1  0.1079508E+005  0.1043930E+01  0.7957747E-01            NaN
         13   -1    0    0    0    0  0.00000000000E+00  0.00000000000E+00  0.74505805969E-08  0.10566000000E+00  0.10566000000E+00 0. -1.
     999900   -1    0    0    0    0 -0.00000000000E+00 -0.00000000000E+00 -0.74505805969E-08  0.93827000000E+00  0.93827000000E+00 0. -1.
     999902    2    1    2    0    0  0.17207945396E-01  0.92219988768E-02 -0.13375981483E-01  0.10202640851E+01  0.10199895724E+01 0.  0.
     999903    2    3    3    0    0  0.10926210846E+00  0.73224242301E-01 -0.56918382309E-02  0.13311736545E+00  0.19693601932E-01 0.  0.
         14    1    1    2    0    0 -0.17207945396E-01 -0.92219988768E-02  0.13375981483E-01  0.23665914913E-01  0.00000000000E+00 0. -1.
     999901    1    3    3    0    0 -0.92054163063E-01 -0.64002243424E-01 -0.76841432523E-02  0.88714671963E+00  0.88000000000E+00 0. -1.
        -11    1    4    4    0    0  0.70414906038E-01  0.51595275257E-01  0.48104858816E-02  0.87428446839E-01  0.51100000000E-03 0.  1.
         11    1    4    4    0    0  0.38847202421E-01  0.21628967044E-01 -0.10502324113E-01  0.45688918613E-01  0.51100000000E-03 0. -1.
</event>
<event>
 8    1  0.1079508E+005  0.1043930E+01  0.7957747E-01            NaN
         13   -1    0    0    0    0  0.00000000000E+00  0.00000000000E+00  0.74505805969E-08  0.10566000000E+00  0.10566000000E+00 0.  1.
     999900   -1    0    0    0    0 -0.00000000000E+00 -0.00000000000E+00 -0.74505805969E-08  0.93827000000E+00  0.93827000000E+00 0. -1.
     999902    2    1    2    0    0 -0.15113273141E-01  0.11253522940E-01 -0.15210317234E-01  0.10197141673E+01  0.10194265920E+01 0.  0.
     999903    2    3    3    0    0  0.55005901815E-01 -0.11185684780E+00 -0.23335363017E-01  0.12834506391E+00  0.19756331382E-01 0.  0.
         14    1    1    2    0    0  0.15113273141E-01 -0.11253522940E-01  0.15210317234E-01  0.24215832712E-01  0.00000000000E+00 0.  1.
     999901    1    3    3    0    0 -0.70119174955E-01  0.12311037074E+00  0.81250457830E-02  0.89136910337E+00  0.88000000000E+00 0. -1.
        -11    1    4    4    0    0  0.77680262525E-02 -0.28684241064E-01  0.65910155586E-03  0.29729168390E-01  0.51100000000E-03 0.  1.
         11    1    4    4    0    0  0.47237875562E-01 -0.83172606737E-01 -0.23994464573E-01  0.98615895524E-01  0.51100000000E-03 0. -1.
</event>
<event>
 8    1  0.1079508E+005  0.1043930E+01  0.7957747E-01            NaN
         13   -1    0    0    0    0  0.00000000000E+00  0.00000000000E+00  0.74505805969E-08  0.10566000000E+00  0.10566000000E+00 0. -1.
     999900   -1    0    0    0    0 -0.00000000000E+00 -0.00000000000E+00 -0.74505805969E-08  0.93827000000E+00  0.93827000000E+00 0. -1.
     999902    2    1    2    0    0 -0.17984045114E-01 -0.88942735892E-02 -0.10883623905E-01  0.10211048549E+01  0.10208497134E+01 0.  0.
     999903    2    3    3    0    0  0.50077551736E-01 -0.99638928193E-01  0.64910829256E-01  0.13059277048E+00  0.20134019627E-01 0.  0.
         14    1    1    2    0    0  0.17984045114E-01  0.88942735892E-02  0.10883623905E-01  0.22825145140E-01  0.00000000000E+00 0. -1.
     999901    1    3    3    0    0 -0.68061596850E-01  0.90744654604E-01 -0.75794453161E-01  0.89051208438E+00  0.88000000000E+00 0.  1.
        -11    1    4    4    0    0  0.41994661632E-01 -0.69482603055E-01  0.39261375542E-01  0.90183703979E-01  0.51100000000E-03 0. -1.
         11    1    4    4    0    0  0.80828901037E-02 -0.30156325138E-01  0.25649453715E-01  0.40409066497E-01  0.51100000000E-03 0.  1.
</event>
<event>
 8    1  0.1079508E+005  0.1043930E+01  0.7957747E-01            NaN
         13   -1    0    0    0    0  0.00000000000E+00  0.00000000000E+00  0.74505805969E-08  0.10566000000E+00  0.10566000000E+00 0.  1.
     999900   -1    0    0    0    0 -0.00000000000E+00 -0.00000000000E+00 -0.74505805969E-08  0.93827000000E+00  0.93827000000E+00 0. -1.
     999902    2    1    2    0    0 -0.15588950502E-02  0.21997947687E-01  0.92385335654E-03  0.10218575429E+01  0.10216191290E+01 0.  0.
     999903    2    3    3    0    0 -0.43735760353E-01  0.82754690695E-01  0.93623606214E-01  0.13390286280E+00  0.20085852203E-01 0.  0.
         14    1    1    2    0    0  0.15588950502E-02 -0.21997947687E-01 -0.92385335654E-03  0.22072457073E-01  0.00000000000E+00 0.  1.
     999901    1    3    3    0    0  0.42176865303E-01 -0.60756743008E-01 -0.92699752857E-01  0.88795468013E+00  0.88000000000E+00 0. -1.
        -11    1    4    4    0    0 -0.42165882678E-02  0.16084464084E-01  0.26926253389E-01  0.31650811112E-01  0.51100000000E-03 0. -1.
         11    1    4    4    0    0 -0.39519172085E-01  0.66670226612E-01  0.66697352825E-01  0.10225205168E+00  0.51100000000E-03 0.  1.
</event>
<event>
 8    1  0.1079508E+005  0.1043930E+01  0.7957747E-01            NaN
         13   -1    0    0    0    0  0.00000000000E+00  0.00000000000E+00  0.74505805969E-08  0.10566000000E+00  0.10566000000E+00 0. -1.
     999900   -1    0    0    0    0 -0.00000000000E+00 -0.00000000000E+00 -0.74505805969E-08  0.93827000000E+00  0.93827000000E+00 0. -1.
     999902    2    1    2    0    0  0.10086316467E-01 -0.54952052924E-03 -0.21274679163E-01  0.10203790398E+01  0.10201072185E+01 0.  0.
     999903    2    3    3    0    0  0.17513318214E-01 -0.38905394271E-02 -0.13084215086E+00  0.13354683830E+00  0.19830203407E-01 0.  0.
         14    1    1    2    0    0 -0.10086316467E-01  0.54952052924E-03  0.21274679163E-01  0.23550960196E-01  0.00000000000E+00 0. -1.
     999901    1    3    3    0    0 -0.74270017469E-02  0.33410188979E-02  0.10956747170E+00  0.88683220150E+00  0.88000000000E+00 0.  1.
        -11    1    4    4    0    0 -0.84319391401E-03  0.30094548415E-03 -0.66407697985E-01  0.66415698572E-01  0.51100000000E-03 0.  1.
         11    1    4    4    0    0  0.18356512128E-01 -0.41914849113E-02 -0.64434452876E-01  0.67131139732E-01  0.51100000000E-03 0. -1.
</event>
<event>
 8    1  0.1079508E+005  0.1043930E+01  0.7957747E-01            NaN
         13   -1    0    0    0    0  0.00000000000E+00  0.00000000000E+00  0.74505805969E-08  0.10566000000E+00  0.10566000000E+00 0.  1.
     999900   -1    0    0    0    0 -0.00000000000E+00 -0.00000000000E+00 -0.74505805969E-08  0.93827000000E+00  0.93827000000E+00 0.  1.
     999902    2    1    2    0    0  0.21072750931E-01  0.10188362506E-01 -0.22764625874E-02  0.10204130732E+01  0.10201420461E+01 0.  0.
     999903    2    3    3    0    0  0.62146677115E-01 -0.97539723578E-01  0.57953280180E-01  0.13085136663E+00  0.19679692942E-01 0.  0.
         14    1    1    2    0    0 -0.21072750931E-01 -0.10188362506E-01  0.22764625874E-02  0.23516926761E-01  0.00000000000E+00 0.  1.
     999901    1    3    3    0    0 -0.41073926184E-01  0.10772808608E+00 -0.60229742767E-01  0.88956170660E+00  0.88000000000E+00 0.  1.
        -11    1    4    4    0    0  0.53337226907E-01 -0.67637435497E-01  0.42241011661E-01  0.95938765063E-01  0.51100000000E-03 0.  1.
         11    1    4    4    0    0  0.88094502088E-02 -0.29902288081E-01  0.15712268519E-01  0.34912601571E-01  0.51100000000E-03 0. -1.
</event>
<event>
 8    1  0.1079508E+005  0.1043930E+01  0.7957747E-01            NaN
         13   -1    0    0    0    0  0.00000000000E+00  0.00000000000E+00  0.74505805969E-08  0.10566000000E+00  0.10566000000E+00 0.  1.
     999900   -1    0    0    0    0 -0.00000000000E+00 -0.00000000000E+00 -0.74505805969E-08  0.93827000000E+00  0.93827000000E+00 0.  1.
     999902    2    1    2    0    0  0.23664426320E-01  0.24155356263E-02 -0.95157806539E-03  0.10201235852E+01  0.10198457646E+01 0.  0.
     999903    2    3    3    0    0  0.28388569463E-02  0.12809942068E+00  0.17086978129E-01  0.13076677670E+00  0.19760171535E-01 0.  0.
         14    1    1    2    0    0 -0.23664426320E-01 -0.24155356263E-02  0.95157806539E-03  0.23806414813E-01  0.00000000000E+00 0.  1.
     999901    1    3    3    0    0  0.20825569374E-01 -0.12568388505E+00 -0.18038556194E-01  0.88935680849E+00  0.88000000000E+00 0. -1.
        -11    1    4    4    0    0  0.72904331634E-02  0.30072934855E-01 -0.10955218192E-02  0.30967613979E-01  0.51100000000E-03 0. -1.
         11    1    4    4    0    0 -0.44515762171E-02  0.98026485822E-01  0.18182499948E-01  0.99799162716E-01  0.51100000000E-03 0.  1.
</event>
<event>
 8    1  0.1079508E+005  0.1043930E+01  0.7957747E-01            NaN
         13   -1    0    0    0    0  0.00000000000E+00  0.00000000000E+00  0.74505805969E-08  0.10566000000E+00  0.10566000000E+00 0.  1.
     999900   -1    0    0    0    0 -0.00000000000E+00 -0.00000000000E+00 -0.74505805969E-08  0.93827000000E+00  0.93827000000E+00 0.  1.
     999902    2    1    2    0    0 -0.15526273059E-01 -0.11454468346E-01  0.13769603637E-01  0.10202261610E+01  0.10199507574E+01 0.  0.
     999903    2    3    3    0    0 -0.35272359144E-01  0.19781505939E-01  0.12433508622E+00  0.13253797251E+00  0.21717578036E-01 0.  0.
         14    1    1    2    0    0  0.15526273059E-01  0.11454468346E-01 -0.13769603637E-01  0.23703839025E-01  0.00000000000E+00 0. -1.
     999901    1    3    3    0    0  0.19746086084E-01 -0.31235974285E-01 -0.11056548258E+00  0.88768818847E+00  0.88000000000E+00 0.  1.
        -11    1    4    4    0    0 -0.25540736551E-01  0.20329981341E-01  0.68820781249E-01  0.76172163009E-01  0.51100000000E-03 0. -1.
         11    1    4    4    0    0 -0.97316225928E-02 -0.54847540153E-03  0.55514304967E-01  0.56365809499E-01  0.51100000000E-03 0.  1.
</event>
<event>
 8    1  0.1079508E+005  0.1043930E+01  0.7957747E-01            NaN
         13   -1    0    0    0    0  0.00000000000E+00  0.00000000000E+00  0.74505805969E-08  0.10566000000E+00  0.10566000000E+00 0. -1.
     999900   -1    0    0    0    0 -0.00000000000E+00 -0.00000000000E+00 -0.74505805969E-08  0.93827000000E+00  0.93827000000E+00 0. -1.
     999902    2    1    2    0    0  0.81178665876E-02  0.13705559419E-01  0.18379280860E-01  0.10196084030E+01  0.10193182797E+01 0.  0.
     999903    2    3    3    0    0  0.28508004425E-01  0.11870951416E+00  0.47817347130E-01  0.13264268324E+00  0.20073058134E-01 0.  0.
         14    1    1    2    0    0 -0.81178665876E-02 -0.13705559419E-01 -0.18379280860E-01  0.24321597025E-01  0.00000000000E+00 0.  1.
     999901    1    3    3    0    0 -0.20390137837E-01 -0.10500395474E+00 -0.29438066270E-01  0.88696571973E+00  0.88000000000E+00 0. -1.
        -11    1    4    4    0    0  0.80950298436E-02  0.68156383330E-01  0.20333258401E-01  0.71585785007E-01  0.51100000000E-03 0. -1.
         11    1    4    4    0    0  0.20412974581E-01  0.50553130831E-01  0.27484088729E-01  0.61056898237E-01  0.51100000000E-03 0.  1.
</event>
<event>
 8    1  0.1079508E+005  0.1043930E+01  0.7957747E-01            NaN
         13   -1    0    0    0    0  0.00000000000E+00  0.00000000000E+00  0.74505805969E-08  0.10566000000E+00  0.10566000000E+00 0. -1.
     999900   -1    0    0    0    0 -0.00000000000E+00 -0.00000000000E+00 -0.74505805969E-08  0.93827000000E+00  0.93827000000E+00 0. -1.
     999902    2    1    2    0    0 -0.19190949630E-01 -0.12408012498E-01 -0.61894385751E-02  0.10202538417E+01  0.10199790885E+01 0.  0.
     999903    2    3    3    0    0  0.65546921604E-01  0.10483063867E+00 -0.29097380991E-01  0.12814948571E+00  0.17022672311E-01 0.  0.
         14    1    1    2    0    0  0.19190949630E-01  0.12408012498E-01  0.61894385751E-02  0.23676158297E-01  0.00000000000E+00 0. -1.
     999901    1    3    3    0    0 -0.84737871233E-01 -0.11723865117E+00  0.22907942416E-01  0.89210435599E+00  0.88000000000E+00 0. -1.
        -11    1    4    4    0    0  0.43828905624E-01  0.76336178210E-01 -0.27739712561E-01  0.92292674931E-01  0.51100000000E-03 0. -1.
         11    1    4    4    0    0  0.21718015980E-01  0.28494460460E-01 -0.13576684299E-02  0.35856810783E-01  0.51100000000E-03 0.  1.
</event>
<event>
 8    1  0.1079508E+005  0.1043930E+01  0.7957747E-01            NaN
         13   -1    0    0    0    0  0.00000000000E+00  0.00000000000E+00  0.74505805969E-08  0.10566000000E+00  0.10566000000E+00 0.  1.
     999900   -1    0    0    0    0 -0.00000000000E+00 -0.00000000000E+00 -0.74505805969E-08  0.93827000000E+00  0.93827000000E+00 0.  1.
     999902    2    1    2    0    0  0.15896590280E-01 -0.11378990335E-01  0.14175708840E-01  0.10197818381E+01  0.10194958870E+01 0.  0.
     999903    2    3    3    0    0  0.12750784703E-01  0.59493503523E-01  0.11459468958E+00  0.13123427144E+00  0.19708669360E-01 0.  0.
         14    1    1    2    0    0 -0.15896590280E-01  0.11378990335E-01 -0.14175708840E-01  0.24148161931E-01  0.00000000000E+00 0. -1.
     999901    1    3    3    0    0  0.31458055763E-02 -0.70872493858E-01 -0.10041898074E+00  0.88854756663E+00  0.88000000000E+00 0.  1.
        -11    1    4    4    0    0 -0.11515692199E-02  0.22002441949E-01  0.26348079714E-01  0.34349905225E-01  0.51100000000E-03 0. -1.
         11    1    4    4    0    0  0.13902353923E-01  0.37491061574E-01  0.88246609863E-01  0.96884366210E-01  0.51100000000E-03 0.  1.
</event>
<event>
 8    1  0.1079508E+005  0.1043930E+01  0.7957747E-01            NaN
         13   -1    0    0    0    0  0.00000000000E+00  0.00000000000E+00  0.74505805969E-08  0.10566000000E+00  0.10566000000E+00 0. -1.
     999900   -1    0    0    0    0 -0.00000000000E+00 -0.00000000000E+00 -0.74505805969E-08  0.93827000000E+00  0.93827000000E+00 0. -1.
     999902    2    1    2    0    0  0.96582130939E-02  0.18433201797E-01  0.16751006618E-01  0.10172155801E+01  0.10168647285E+01 0.  0.
     999903    2    3    3    0    0 -0.42176257268E-01 -0.11628921847E+00  0.29798364501E-02  0.12534866851E+00  0.20034726406E-01 0.  0.
         14    1    1    2    0    0 -0.96582130939E-02 -0.18433201797E-01 -0.16751006618E-01  0.26714419914E-01  0.00000000000E+00 0. -1.
     999901    1    3    3    0    0  0.51834470362E-01  0.13472242027E+00  0.13771170168E-01  0.89186691158E+00  0.88000000000E+00 0.  1.
        -11    1    4    4    0    0 -0.24515037449E-01 -0.71722075126E-01 -0.78368483584E-02  0.76201840100E-01  0.51100000000E-03 0.  1.
         11    1    4    4    0    0 -0.17661219819E-01 -0.44567143343E-01  0.10816684809E-01  0.49146828407E-01  0.51100000000E-03 0. -1.
</event>
<event>
 8    1  0.1079508E+005  0.1043930E+01  0.7957747E-01            NaN
         13   -1    0    0    0    0  0.00000000000E+00  0.00000000000E+00  0.74505805969E-08  0.10566000000E+00  0.10566000000E+00 0. -1.
     999900   -1    0    0    0    0 -0.00000000000E+00 -0.00000000000E+00 -0.74505805969E-08  0.93827000000E+00  0.93827000000E+00 0.  1.
     999902    2    1    2    0    0 -0.42878195798E-02 -0.58820031762E-02  0.19618665394E-01  0.10230045277E+01  0.10227904909E+01 0.  0.
     999903    2    3    3    0    0  0.48568240283E-01  0.73410827037E-01  0.99534854411E-01  0.13425950622E+00  0.19245889857E-01 0.  0.
         14    1    1    2    0    0  0.42878195798E-02  0.58820031762E-02 -0.19618665394E-01  0.20925472276E-01  0.00000000000E+00 0.  1.
     999901    1    3    3    0    0 -0.52856059863E-01 -0.79292830213E-01 -0.79916189017E-01  0.88874502151E+00  0.88000000000E+00 0.  1.
        -11    1    4    4    0    0  0.22461001787E-01  0.27799011562E-01  0.53789943043E-01  0.64582511090E-01  0.51100000000E-03 0.  1.
         11    1    4    4    0    0  0.26107238497E-01  0.45611815474E-01  0.45744911368E-01  0.69676995127E-01  0.51100000000E-03 0. -1.
</event>
<event>
 8    1  0.1079508E+005  0.1043930E+01  0.7957747E-01            NaN
         13   -1    0    0    0    0  0.00000000000E+00  0.00000000000E+00  0.74505805969E-08  0.10566000000E+00  0.10566000000E+00 0. -1.
     999900   -1    0    0    0    0 -0.00000000000E+00 -0.00000000000E+00 -0.74505805969E-08  0.93827000000E+00  0.93827000000E+00 0.  1.
     999902    2    1    2    0    0  0.15994490643E-01 -0.71231420016E-02 -0.15626763085E-01  0.10204617532E+01  0.10201918600E+01 0.  0.
     999903    2    3    3    0    0  0.10230150009E+00 -0.74074781949E-01  0.34868280435E-01  0.13227192474E+00  0.18094055721E-01 0.  0.
         14    1    1    2    0    0 -0.15994490643E-01  0.71231420016E-02  0.15626763085E-01  0.23468246791E-01  0.00000000000E+00 0.  1.
     999901    1    3    3    0    0 -0.86307009450E-01  0.66951639948E-01 -0.50495043520E-01  0.88818982847E+00  0.88000000000E+00 0.  1.
        -11    1    4    4    0    0  0.56486348279E-01 -0.30976176894E-01  0.13372715697E-01  0.65797581437E-01  0.51100000000E-03 0.  1.
         11    1    4    4    0    0  0.45815151814E-01 -0.43098605056E-01  0.21495564738E-01  0.66474343306E-01  0.51100000000E-03 0. -1.
</event>
<event>
 8    1  0.1079508E+005  0.1043930E+01  0.7957747E-01            NaN
         13   -1    0    0    0    0  0.00000000000E+00  0.00000000000E+00  0.74505805969E-08  0.10566000000E+00  0.10566000000E+00 0. -1.
     999900   -1    0    0    0    0 -0.00000000000E+00 -0.00000000000E+00 -0.74505805969E-08  0.93827000000E+00  0.93827000000E+00 0. -1.
     999902    2    1    2    0    0 -0.52548163297E-03  0.22772808926E-01  0.28210193676E-02  0.10209771111E+01  0.10207190732E+01 0.  0.
     999903    2    3    3    0    0 -0.11416346226E+00 -0.41213132107E-02 -0.61331975683E-01  0.13094762217E+00  0.18313578865E-01 0.  0.
         14    1    1    2    0    0  0.52548163297E-03 -0.22772808926E-01 -0.28210193676E-02  0.22952888873E-01  0.00000000000E+00 0.  1.
     999901    1    3    3    0    0  0.11363798063E+00  0.26894122137E-01  0.64152995051E-01  0.89002948896E+00  0.88000000000E+00 0.  1.
        -11    1    4    4    0    0 -0.71733285021E-01 -0.10344107227E-01 -0.43280087879E-01  0.84416182466E-01  0.51100000000E-03 0.  1.
         11    1    4    4    0    0 -0.42430177243E-01  0.62227940158E-02 -0.18051887804E-01  0.46531439699E-01  0.51100000000E-03 0. -1.
</event>
<event>
 8    1  0.1079508E+005  0.1043930E+01  0.7957747E-01            NaN
         13   -1    0    0    0    0  0.00000000000E+00  0.00000000000E+00  0.74505805969E-08  0.10566000000E+00  0.10566000000E+00 0. -1.
     999900   -1    0    0    0    0 -0.00000000000E+00 -0.00000000000E+00 -0.74505805969E-08  0.93827000000E+00  0.93827000000E+00 0.  1.
     999902    2    1    2    0    0 -0.14764591306E-01  0.86315440777E-02 -0.16367015799E-01  0.10202577395E+01  0.10199830779E+01 0.  0.
     999903    2    3    3    0    0 -0.59052699933E-01 -0.76770822789E-01 -0.87628648245E-01  0.13215120251E+00  0.20104221727E-01 0.  0.
         14    1    1    2    0    0  0.14764591306E-01 -0.86315440777E-02  0.16367015799E-01  0.23672260471E-01  0.00000000000E+00 0. -1.
     999901    1    3    3    0    0  0.44288108627E-01  0.85402366867E-01  0.71261632446E-01  0.88810653702E+00  0.88000000000E+00 0. -1.
        -11    1    4    4    0    0 -0.47954675840E-01 -0.58494741771E-01 -0.56632947636E-01  0.94492526840E-01  0.51100000000E-03 0. -1.
         11    1    4    4    0    0 -0.11098024094E-01 -0.18276081018E-01 -0.30995700609E-01  0.37658675673E-01  0.51100000000E-03 0.  1.
</event>
<event>
 8    1  0.1079508E+005  0.1043930E+01  0.7957747E-01            NaN
         13   -1    0    0    0    0  0.00000000000E+00  0.00000000000E+00  0.74505805969E-08  0.10566000000E+00  0.10566000000E+00 0. -1.
     999900   -1    0    0    0    0 -0.00000000000E+00 -0.00000000000E+00 -0.74505805969E-08  0.93827000000E+00  0.93827000000E+00 0.  1.
     999902    2    1    2    0    0  0.14436568864E-01 -0.10635716352E-01 -0.10636356204E-01  0.10230813776E+01  0.10228689262E+01 0.  0.
     999903    2    3    3    0    0 -0.33478830357E-01 -0.62632628441E-01 -0.11244197798E+00  0.13439473486E+00  0.19366675457E-01 0.  0.
         14    1    1    2    0    0 -0.14436568864E-01  0.10635716352E-01  0.10636356204E-01  0.20848622405E-01  0.00000000000E+00 0. -1.
     999901    1    3    3    0    0  0.47915399221E-01  0.51996912089E-01  0.10180562178E+00  0.88868664273E+00  0.88000000000E+00 0. -1.
        -11    1    4    4    0    0 -0.16967640593E-01 -0.43596059440E-01 -0.85755986508E-01  0.97687601920E-01  0.51100000000E-03 0.  1.
         11    1    4    4    0    0 -0.16511189764E-01 -0.19036569001E-01 -0.26685991474E-01  0.36707132940E-01  0.51100000000E-03 0. -1.
</event>
<event>
 8    1  0.1079508E+005  0.1043930E+01  0.7957747E-01            NaN
         13   -1    0    0    0    0  0.00000000000E+00  0.00000000000E+00  0.74505805969E-08  0.10566000000E+00  0.10566000000E+00 0.  1.
     999900   -1    0    0    0    0 -0.00000000000E+00 -0.00000000000E+00 -0.74505805969E-08  0.93827000000E+00  0.93827000000E+00 0. -1.
     999902    2    1    2    0    0 -0.66206820749E-02 -0.33892076654E-01  0.47855817148E-02  0.10090672967E+01  0.10084648735E+01 0.  0.
     999903    2    3    3    0    0  0.11025978591E+00 -0.46108674795E-01 -0.38200697619E-02  0.12121351011E+00  0.19871885214E-01 0.  0.
         14    1    1    2    0    0  0.66206820749E-02  0.33892076654E-01 -0.47855817148E-02  0.34862703329E-01  0.00000000000E+00 0. -1.
     999901    1    3    3    0    0 -0.11688046798E+00  0.12216598141E-01  0.86056514767E-02  0.88785378656E+00  0.88000000000E+00 0.  1.
        -11    1    4    4    0    0  0.44450296052E-01 -0.14245811947E-01  0.73205444672E-02  0.47250645175E-01  0.51100000000E-03 0. -1.
         11    1    4    4    0    0  0.65809489854E-01 -0.31862862848E-01 -0.11140614229E-01  0.73962864940E-01  0.51100000000E-03 0.  1.
</event>
<event>
 8    1  0.1079508E+005  0.1043930E+01  0.7957747E-01            NaN
         13   -1    0    0    0    0  0.00000000000E+00  0.00000000000E+00  0.74505805969E-08  0.10566000000E+00  0.10566000000E+00 0. -1.
     999900   -1    0    0    0    0 -0.00000000000E+00 -0.00000000000E+00 -0.74505805969E-08  0.93827000000E+00  0.93827000000E+00 0. -1.
     999902    2    1    2    0    0 -0.84004713017E-02  0.21959505808E-01 -0.36704829837E-02  0.10201337764E+01  0.10198561965E+01 0.  0.
     999903    2    3    3    0    0 -0.25487794406E-01 -0.69467233278E-01 -0.10468532798E+00  0.12948523506E+00  0.18223173194E-01 0.  0.
         14    1    1    2    0    0  0.84004713017E-02 -0.21959505808E-01  0.36704829837E-02  0.23796223624E-01  0.00000000000E+00 0. -1.
     999901    1    3    3    0    0  0.17087323104E-01  0.91426739087E-01  0.10101484500E+00  0.89064854131E+00  0.88000000000E+00 0.  1.
        -11    1    4    4    0    0 -0.20396703012E-01 -0.41449563500E-01 -0.76807802052E-01  0.89631419632E-01  0.51100000000E-03 0.  1.
         11    1    4    4    0    0 -0.50910913936E-02 -0.28017669778E-01 -0.27877525933E-01  0.39853815432E-01  0.51100000000E-03 0. -1.
</event>
<event>
 8    1  0.1079508E+005  0.1043930E+01  0.7957747E-01            NaN
         13   -1    0    0    0    0  0.00000000000E+00  0.00000000000E+00  0.74505805969E-08  0.10566000000E+00  0.10566000000E+00 0.  1.
     999900   -1    0    0    0    0 -0.00000000000E+00 -0.00000000000E+00 -0.74505805969E-08  0.93827000000E+00  0.93827000000E+00 0.  1.
     999902    2    1    2    0    0 -0.74296139532E-03 -0.21699110316E-01  0.69962341753E-02  0.10211188038E+01  0.10208639776E+01 0.  0.
     999903    2    3    3    0    0  0.80476876273E-01  0.95161874339E-01 -0.26791060110E-01  0.12904552595E+00  0.20066811519E-01 0.  0.
         14    1    1    2    0    0  0.74296139532E-03  0.21699110316E-01 -0.69962341753E-02  0.22811196215E-01  0.00000000000E+00 0. -1.
     999901    1    3    3    0    0 -0.81219837668E-01 -0.11686098465E+00  0.33787294285E-01  0.89207327783E+00  0.88000000000E+00 0. -1.
        -11    1    4    4    0    0  0.54912643502E-01  0.52757317108E-01 -0.22173398034E-01  0.79313640858E-01  0.51100000000E-03 0. -1.
         11    1    4    4    0    0  0.25564232771E-01  0.42404557231E-01 -0.46176620763E-02  0.49731885095E-01  0.51100000000E-03 0.  1.
</event>
<event>
 8    1  0.1079508E+005  0.1043930E+01  0.7957747E-01            NaN
         13   -1    0    0    0    0  0.00000000000E+00  0.00000000000E+00  0.74505805969E-08  0.10566000000E+00  0.10566000000E+00 0. -1.
     999900   -1    0    0    0    0 -0.00000000000E+00 -0.00000000000E+00 -0.74505805969E-08  0.93827000000E+00  0.93827000000E+00 0.  1.
     999902    2    1    2    0    0  0.91913072233E-02  0.99238469098E-02 -0.19713926094E-01  0.10200218058E+01  0.10197415764E+01 0.  0.
     999903    2    3    3    0    0  0.44655871557E-01 -0.84785691635E-01 -0.87900353796E-01  0.13160916470E+00  0.20291369225E-01 0.  0.
         14    1    1    2    0    0 -0.91913072233E-02 -0.99238469098E-02  0.19713926094E-01  0.23908194161E-01  0.00000000000E+00 0. -1.
     999901    1    3    3    0    0 -0.35464564333E-01  0.94709538544E-01  0.68186427701E-01  0.88841264114E+00  0.88000000000E+00 0. -1.
        -11    1    4    4    0    0  0.14374559678E-01 -0.22068434692E-01 -0.36665475514E-01  0.45147114984E-01  0.51100000000E-03 0. -1.
         11    1    4    4    0    0  0.30281311878E-01 -0.62717256943E-01 -0.51234878282E-01  0.86462049716E-01  0.51100000000E-03 0.  1.
</event>
<event>
 8    1  0.1079508E+005  0.1043930E+01  0.7957747E-01            NaN
         13   -1    0    0    0    0  0.00000000000E+00  0.00000000000E+00  0.74505805969E-08  0.10566000000E+00  0.10566000000E+00 0.  1.
     999900   -1    0    0    0    0 -0.00000000000E+00 -0.00000000000E+00 -0.74505805969E-08  0.93827000000E+00  0.93827000000E+00 0. -1.
     999902    2    1    2    0    0 -0.36659402521E-02  0.67437031938E-02  0.21371759489E-01  0.10212216589E+01  0.10209691513E+01 0.  0.
     999903    2    3    3    0    0 -0.30589384169E-01  0.89559676208E-01  0.93006034638E-01  0.13402673863E+00  0.18878510605E-01 0.  0.
         14    1    1    2    0    0  0.36659402521E-02 -0.67437031938E-02 -0.21371759489E-01  0.22708341075E-01  0.00000000000E+00 0. -1.
     999901    1    3    3    0    0  0.26923443917E-01 -0.82815973015E-01 -0.71634275149E-01  0.88719492029E+00  0.88000000000E+00 0. -1.
        -11    1    4    4    0    0 -0.69186571459E-02  0.19708481033E-01  0.32462060705E-01  0.38604903154E-01  0.51100000000E-03 0.  1.
         11    1    4    4    0    0 -0.23670727023E-01  0.69851195176E-01  0.60543973934E-01  0.95421835478E-01  0.51100000000E-03 0. -1.
</event>
<event>
 8    1  0.1079508E+005  0.1043930E+01  0.7957747E-01            NaN
         13   -1    0    0    0    0  0.00000000000E+00  0.00000000000E+00  0.74505805969E-08  0.10566000000E+00  0.10566000000E+00 0. -1.
     999900   -1    0    0    0    0 -0.00000000000E+00 -0.00000000000E+00 -0.74505805969E-08  0.93827000000E+00  0.93827000000E+00 0. -1.
     999902    2    1    2    0    0 -0.18710032001E-01  0.42448305846E-02  0.12746641144E-01  0.10208960958E+01  0.10206362122E+01 0.  0.
     999903    2    3    3    0    0 -0.37419026033E-01 -0.94001801707E-01  0.83126333594E-01  0.13243915908E+00  0.19839891352E-01 0.  0.
         14    1    1    2    0    0  0.18710032001E-01 -0.42448305846E-02 -0.12746641144E-01  0.23033904242E-01  0.00000000000E+00 0.  1.
     999901    1    3    3    0    0  0.18708994032E-01  0.98246632291E-01 -0.70379692449E-01  0.88845693667E+00  0.88000000000E+00 0. -1.
        -11    1    4    4    0    0 -0.27736484860E-01 -0.43985775124E-01  0.38390369927E-01  0.64638553741E-01  0.51100000000E-03 0. -1.
         11    1    4    4    0    0 -0.96825411730E-02 -0.50016026582E-01  0.44735963667E-01  0.67800605343E-01  0.51100000000E-03 0.  1.
</event>
<event>
 8    1  0.1079508E+005  0.1043930E+01  0.7957747E-01            NaN
         13   -1    0    0    0    0  0.00000000000E+00  0.00000000000E+00  0.74505805969E-08  0.10566000000E+00  0.10566000000E+00 0.  1.
     999900   -1    0    0    0    0 -0.00000000000E+00 -0.00000000000E+00 -0.74505805969E-08  0.93827000000E+00  0.93827000000E+00 0. -1.
     999902    2    1    2    0    0 -0.13310696608E-01 -0.18020849518E-02  0.19428604560E-01  0.10203102449E+01  0.10200368146E+01 0.  0.
     999903    2    3    3    0    0 -0.12068886429E+00 -0.45865054285E-01 -0.18196364267E-01  0.13189184438E+00  0.19873242618E-01 0.  0.
         14    1    1    2    0    0  0.13310696608E-01  0.18020849518E-02 -0.19428604560E-01  0.23619755069E-01  0.00000000000E+00 0. -1.
     999901    1    3    3    0    0  0.10737816768E+00  0.44062969333E-01  0.37624968827E-01  0.88841840055E+00  0.88000000000E+00 0. -1.
        -11    1    4    4    0    0 -0.44961985663E-01 -0.69930691457E-02 -0.59436638920E-02  0.45891953895E-01  0.51100000000E-03 0.  1.
         11    1    4    4    0    0 -0.75726878629E-01 -0.38871985139E-01 -0.12252700375E-01  0.85999890483E-01  0.51100000000E-03 0. -1.
</event>
<event>
 8    1  0.1079508E+005  0.1043930E+01  0.7957747E-01            NaN
         13   -1    0    0    0    0  0.00000000000E+00  0.00000000000E+00  0.74505805969E-08  0.10566000000E+00  0.10566000000E+00 0. -1.
     999900   -1    0    0    0    0 -0.00000000000E+00 -0.00000000000E+00 -0.74505805969E-08  0.93827000000E+00  0.93827000000E+00 0.  1.
     999902    2    1    2    0    0  0.12452370299E-01  0.57947109135E-02  0.20372658028E-01  0.10193599899E+01  0.10190638369E+01 0.  0.
     999903    2    3    3    0    0 -0.10391867225E+00  0.58403279721E-01 -0.41709960834E-01  0.12797672070E+00  0.20695088419E-01 0.  0.
         14    1    1    2    0    0 -0.12452370299E-01 -0.57947109135E-02 -0.20372658028E-01  0.24570010089E-01  0.00000000000E+00 0. -1.
     999901    1    3    3    0    0  0.11637104255E+00 -0.52608568807E-01  0.62082618863E-01  0.89138326921E+00  0.88000000000E+00 0. -1.
        -11    1    4    4    0    0 -0.88095092683E-01  0.45602195536E-01 -0.41723739297E-01  0.10761708570E+00  0.51100000000E-03 0. -1.
         11    1    4    4    0    0 -0.15823579569E-01  0.12801084185E-01  0.13778462508E-04  0.20359635005E-01  0.51100000000E-03 0.  1.
</event>
<event>
 8    1  0.1079508E+005  0.1043930E+01  0.7957747E-01            NaN
         13   -1    0    0    0    0  0.00000000000E+00  0.00000000000E+00  0.74505805969E-08  0.10566000000E+00  0.10566000000E+00 0. -1.
     999900   -1    0    0    0    0 -0.00000000000E+00 -0.00000000000E+00 -0.74505805969E-08  0.93827000000E+00  0.93827000000E+00 0. -1.
     999902    2    1    2    0    0 -0.21111873839E-01 -0.97726985915E-02 -0.18677411386E-02  0.10205910773E+01  0.10203241847E+01 0.  0.
     999903    2    3    3    0    0 -0.43142213878E-01  0.10358222897E+00  0.63096396546E-01  0.13067253348E+00  0.22441634788E-01 0.  0.
         14    1    1    2    0    0  0.21111873839E-01  0.97726985915E-02  0.18677411386E-02  0.23338922677E-01  0.00000000000E+00 0. -1.
     999901    1    3    3    0    0  0.22030340039E-01 -0.11335492757E+00 -0.64964137684E-01  0.88991854384E+00  0.88000000000E+00 0. -1.
        -11    1    4    4    0    0 -0.37034091933E-01  0.95574981931E-01  0.63507636897E-01  0.12058018992E+00  0.51100000000E-03 0.  1.
         11    1    4    4    0    0 -0.61081219444E-02  0.80072470438E-02 -0.41124035117E-03  0.10092343560E-01  0.51100000000E-03 0. -1.
</event>
<event>
 8    1  0.1079508E+005  0.1043930E+01  0.7957747E-01            NaN
         13   -1    0    0    0    0  0.00000000000E+00  0.00000000000E+00  0.74505805969E-08  0.10566000000E+00  0.10566000000E+00 0.  1.
     999900   -1    0    0    0    0 -0.00000000000E+00 -0.00000000000E+00 -0.74505805969E-08  0.93827000000E+00  0.93827000000E+00 0.  1.
     999902    2    1    2    0    0 -0.26217802473E-02 -0.18641978202E-01  0.14032960844E-01  0.10204497727E+01  0.10201796006E+01 0.  0.
     999903    2    3    3    0    0 -0.10342205835E+00  0.51273145368E-01  0.58542031216E-01  0.13082632546E+00  0.19060441382E-01 0.  0.
         14    1    1    2    0    0  0.26217802473E-02  0.18641978202E-01 -0.14032960844E-01  0.23480227278E-01  0.00000000000E+00 0. -1.
     999901    1    3    3    0    0  0.10080027810E+00 -0.69915123570E-01 -0.44509070372E-01  0.88962344726E+00  0.88000000000E+00 0.  1.
        -11    1    4    4    0    0 -0.56109481172E-01  0.17219007267E-01  0.28661814017E-01  0.65318671085E-01  0.51100000000E-03 0. -1.
         11    1    4    4    0    0 -0.47312577179E-01  0.34054138101E-01  0.29880217198E-01  0.65507654377E-01  0.51100000000E-03 0.  1.
</event>
<event>
 7    1  0.1079508E+005  0.1043930E+01  0.7957747E-01            NaN
         13   -1    0    0    0    0  0.00000000000E+00  0.00000000000E+00  0.74505805969E-08  0.10566000000E+00  0.10566000000E+00 0.  1.
     999900   -1    0    0    0    0 -0.00000000000E+00 -0.00000000000E+00 -0.74505805969E-08  0.93827000000E+00  0.93827000000E+00 0. -1.
     999902    2    1    2    0    0 -0.12349889623E-01  0.45262879069E-02 -0.16639188971E-01  0.10227198688E+01  0.10224999073E+01 0.  0.
         14    1    1    2    0    0  0.12349889623E-01 -0.45262879069E-02  0.16639188971E-01  0.21210131201E-01  0.00000000000E+00 0. -1.
     999901    1    3    3    0    0  0.47734685164E-01 -0.21656655411E-01  0.94135216754E-01  0.88657151428E+00  0.88000000000E+00 0. -1.
        -11    1    3    3    0    0 -0.22683514299E-01  0.25107255484E-01 -0.82736393943E-01  0.89389530162E-01  0.51100000000E-03 0. -1.
         11    1    3    3    0    0 -0.37401060489E-01  0.10756878338E-02 -0.28038011782E-01  0.46758824362E-01  0.51100000000E-03 0.  1.
</event>
<event>
 8    1  0.1079508E+005  0.1043930E+01  0.7957747E-01            NaN
         13   -1    0    0    0    0  0.00000000000E+00  0.00000000000E+00  0.74505805969E-08  0.10566000000E+00  0.10566000000E+00 0.  1.
     999900   -1    0    0    0    0 -0.00000000000E+00 -0.00000000000E+00 -0.74505805969E-08  0.93827000000E+00  0.93827000000E+00 0. -1.
     999902    2    1    2    0    0 -0.13071230200E-01 -0.79660761490E-02 -0.18738341158E-01  0.10197341149E+01  0.10194470188E+01 0.  0.
     999903    2    3    3    0    0  0.51471331286E-03 -0.12959791988E+00 -0.77797488931E-02  0.13119656697E+00  0.18871378455E-01 0.  0.
         14    1    1    2    0    0  0.13071230200E-01  0.79660761490E-02  0.18738341158E-01  0.24195885136E-01  0.00000000000E+00 0.  1.
     999901    1    3    3    0    0 -0.13585943513E-01  0.12163184373E+00 -0.10958592265E-01  0.88853754789E+00  0.88000000000E+00 0. -1.
        -11    1    4    4    0    0 -0.82999287950E-02 -0.73462835963E-01 -0.80654115826E-02  0.74370619674E-01  0.51100000000E-03 0.  1.
         11    1    4    4    0    0  0.88146421079E-02 -0.56135083919E-01  0.28566268951E-03  0.56825947297E-01  0.51100000000E-03 0. -1.
</event>
<event>
 8    1  0.1079508E+005  0.1043930E+01  0.7957747E-01            NaN
         13   -1    0    0    0    0  0.00000000000E+00  0.00000000000E+00  0.74505805969E-08  0.10566000000E+00  0.10566000000E+00 0.  1.
     999900   -1    0    0    0    0 -0.00000000000E+00 -0.00000000000E+00 -0.74505805969E-08  0.93827000000E+00  0.93827000000E+00 0.  1.
     999902    2    1    2    0    0  0.42440455498E-02 -0.12459510839E-01  0.20196725631E-01  0.10198227592E+01  0.10195377880E+01 0.  0.
     999903    2    3    3    0    0 -0.16249914218E-01 -0.24374610695E-01  0.12816624559E+00  0.13290709847E+00  0.19481502961E-01 0.  0.
         14    1    1    2    0    0 -0.42440455498E-02  0.12459510839E-01 -0.20196725631E-01  0.24107240804E-01  0.00000000000E+00 0. -1.
     999901    1    3    3    0    0  0.20493959768E-01  0.11915099856E-01 -0.10796951996E+00  0.88691566072E+00  0.88000000000E+00 0.  1.
        -11    1    4    4    0    0 -0.11558655012E-02 -0.18937519969E-01  0.75500220426E-01  0.77849278051E-01  0.51100000000E-03 0. -1.
         11    1    4    4    0    0 -0.15094048717E-01 -0.54370907254E-02  0.52666025165E-01  0.55057820424E-01  0.51100000000E-03 0.  1.
</event>
<event>
 8    1  0.1079508E+005  0.1043930E+01  0.7957747E-01            NaN
         13   -1    0    0    0    0  0.00000000000E+00  0.00000000000E+00  0.74505805969E-08  0.10566000000E+00  0.10566000000E+00 0. -1.
     999900   -1    0    0    0    0 -0.00000000000E+00 -0.00000000000E+00 -0.74505805969E-08  0.93827000000E+00  0.93827000000E+00 0.  1.
     999902    2    1    2    0    0  0.22852372054E-01  0.15432127899E-02  0.14759836311E-02  0.10209780732E+01  0.10207200572E+01 0.  0.
     999903    2    3    3    0    0 -0.45137554512E-01 -0.64533619940E-01 -0.10143300835E+00  0.12992305891E+00  0.19732184985E-01 0.  0.
         14    1    1    2    0    0 -0.22852372054E-01 -0.15432127899E-02 -0.14759836311E-02  0.22951926758E-01  0.00000000000E+00 0.  1.
     999901    1    3    3    0    0  0.67989926566E-01  0.66076832730E-01  0.10290899198E+00  0.89105501433E+00  0.88000000000E+00 0. -1.
        -11    1    4    4    0    0 -0.39552762035E-01 -0.64239984567E-01 -0.96137811838E-01  0.12220448677E+00  0.51100000000E-03 0. -1.
         11    1    4    4    0    0 -0.55847924770E-02 -0.29363537323E-03 -0.52951965085E-02  0.77185721353E-02  0.51100000000E-03 0.  1.
</event>
<event>
 8    1  0.1079508E+005  0.1043930E+01  0.7957747E-01            NaN
         13   -1    0    0    0    0  0.00000000000E+00  0.00000000000E+00  0.74505805969E-08  0.10566000000E+00  0.10566000000E+00 0. -1.
     999900   -1    0    0    0    0 -0.00000000000E+00 -0.00000000000E+00 -0.74505805969E-08  0.93827000000E+00  0.93827000000E+00 0. -1.
     999902    2    1    2    0    0 -0.76145933702E-02  0.14792155304E-01 -0.19328315127E-01  0.10184275755E+01  0.10181082226E+01 0.  0.
     999903    2    3    3    0    0  0.72335058648E-01  0.60101825007E-01  0.83882939287E-01  0.12764282254E+00  0.20291687087E-01 0.  0.
         14    1    1    2    0    0  0.76145933702E-02 -0.14792155304E-01  0.19328315127E-01  0.25502424519E-01  0.00000000000E+00 0. -1.
     999901    1    3    3    0    0 -0.79949652019E-01 -0.45309669703E-01 -0.10321125441E+00  0.89078475294E+00  0.88000000000E+00 0. -1.
        -11    1    4    4    0    0  0.57305754573E-01  0.35860362664E-01  0.61337086470E-01  0.91282059657E-01  0.51100000000E-03 0.  1.
         11    1    4    4    0    0  0.15029304075E-01  0.24241462342E-01  0.22545852817E-01  0.36360762887E-01  0.51100000000E-03 0. -1.
</event>
<event>
 8    1  0.1079508E+005  0.1043930E+01  0.7957747E-01            NaN
         13   -1    0    0    0    0  0.00000000000E+00  0.00000000000E+00  0.74505805969E-08  0.10566000000E+00  0.10566000000E+00 0. -1.
     999900   -1    0    0    0    0 -0.00000000000E+00 -0.00000000000E+00 -0.74505805969E-08  0.93827000000E+00  0.93827000000E+00 0.  1.
     999902    2    1    2    0    0  0.92121638307E-02  0.11673424502E-01 -0.18300241953E-01  0.10203496765E+01  0.10200771690E+01 0.  0.
     999903    2    3    3    0    0 -0.10982032764E+00 -0.10284586094E-01  0.62647179985E-01  0.12838366066E+00  0.19784288953E-01 0.  0.
         14    1    1    2    0    0 -0.92121638307E-02 -0.11673424502E-01  0.18300241953E-01  0.23580323526E-01  0.00000000000E+00 0. -1.
     999901    1    3    3    0    0  0.11903249147E+00  0.21958010596E-01 -0.80947421937E-01  0.89196601582E+00  0.88000000000E+00 0.  1.
        -11    1    4    4    0    0 -0.24208121816E-01  0.54109348362E-02  0.17226828144E-01  0.30204902029E-01  0.51100000000E-03 0.  1.
         11    1    4    4    0    0 -0.85612205824E-01 -0.15695520930E-01  0.45420351840E-01  0.98178758628E-01  0.51100000000E-03 0. -1.
</event>
<event>
 8    1  0.1079508E+005  0.1043930E+01  0.7957747E-01            NaN
         13   -1    0    0    0    0  0.00000000000E+00  0.00000000000E+00  0.74505805969E-08  0.10566000000E+00  0.10566000000E+00 0. -1.
     999900   -1    0    0    0    0 -0.00000000000E+00 -0.00000000000E+00 -0.74505805969E-08  0.93827000000E+00  0.93827000000E+00 0. -1.
     999902    2    1    2    0    0  0.21292284166E-01 -0.11287346617E-02 -0.60591331666E-03  0.10225992115E+01  0.10223767138E+01 0.  0.
     999903    2    3    3    0    0 -0.24512599547E-01  0.97429806915E-01 -0.83358426786E-01  0.13206013208E+00  0.19945334232E-01 0.  0.
         14    1    1    2    0    0 -0.21292284166E-01  0.11287346617E-02  0.60591331666E-03  0.21330788497E-01  0.00000000000E+00 0. -1.
     999901    1    3    3    0    0  0.45804883713E-01 -0.98558541576E-01  0.82752513469E-01  0.89053907942E+00  0.88000000000E+00 0.  1.
        -11    1    4    4    0    0 -0.89837817343E-02  0.60772499254E-01 -0.60135020912E-01  0.85967940890E-01  0.51100000000E-03 0.  1.
         11    1    4    4    0    0 -0.15528817813E-01  0.36657307660E-01 -0.23223405874E-01  0.46092191193E-01  0.51100000000E-03 0. -1.
</event>
<event>
 8    1  0.1079508E+005  0.1043930E+01  0.7957747E-01            NaN
         13   -1    0    0    0    0  0.00000000000E+00  0.00000000000E+00  0.74505805969E-08  0.10566000000E+00  0.10566000000E+00 0. -1.
     999900   -1    0    0    0    0 -0.00000000000E+00 -0.00000000000E+00 -0.74505805969E-08  0.93827000000E+00  0.93827000000E+00 0.  1.
     999902    2    1    2    0    0  0.26332394540E-01  0.59744602791E-02 -0.12625524827E-02  0.10168988473E+01  0.10165395135E+01 0.  0.
     999903    2    3    3    0    0 -0.78778422889E-01 -0.20766858952E-01 -0.92780552779E-01  0.12552971698E+00  0.22631317418E-01 0.  0.
         14    1    1    2    0    0 -0.26332394540E-01 -0.59744602791E-02  0.12625524827E-02  0.27031152706E-01  0.00000000000E+00 0. -1.
     999901    1    3    3    0    0  0.10511081743E+00  0.26741319231E-01  0.91518000296E-01  0.89136913031E+00  0.88000000000E+00 0. -1.
        -11    1    4    4    0    0 -0.51693722031E-01 -0.23816445475E-02 -0.54429076629E-01  0.75104584626E-01  0.51100000000E-03 0. -1.
         11    1    4    4    0    0 -0.27084700858E-01 -0.18385214404E-01 -0.38351476150E-01  0.50425132356E-01  0.51100000000E-03 0.  1.
</event>
<event>
 8    1  0.1079508E+005  0.1043930E+01  0.7957747E-01            NaN
         13   -1    0    0    0    0  0.00000000000E+00  0.00000000000E+00  0.74505805969E-08  0.10566000000E+00  0.10566000000E+00 0.  1.
     999900   -1    0    0    0    0 -0.00000000000E+00 -0.00000000000E+00 -0.74505805969E-08  0.93827000000E+00  0.93827000000E+00 0. -1.
     999902    2    1    2    0    0  0.34671673387E-02  0.21841690353E-01  0.82872913382E-02  0.10203130594E+01  0.10200396949E+01 0.  0.
     999903    2    3    3    0    0 -0.11811004132E+00  0.33271678523E-01 -0.40226416529E-01  0.13055733888E+00  0.19237143661E-01 0.  0.
         14    1    1    2    0    0 -0.34671673387E-02 -0.21841690353E-01 -0.82872913382E-02  0.23616940626E-01  0.00000000000E+00 0. -1.
     999901    1    3    3    0    0  0.12157720866E+00 -0.11429988170E-01  0.48513707867E-01  0.88975572049E+00  0.88000000000E+00 0.  1.
        -11    1    4    4    0    0 -0.99146518335E-01  0.29728661911E-01 -0.40776407170E-01  0.11125107613E+00  0.51100000000E-03 0. -1.
         11    1    4    4    0    0 -0.18963522988E-01  0.35430166118E-02  0.54999064137E-03  0.19306262754E-01  0.51100000000E-03 0.  1.
</event>
<event>
 8    1  0.1079508E+005  0.1043930E+01  0.7957747E-01            NaN
         13   -1    0    0    0    0  0.00000000000E+00  0.00000000000E+00  0.74505805969E-08  0.10566000000E+00  0.10566000000E+00 0. -1.
     999900   -1    0    0    0    0 -0.00000000000E+00 -0.00000000000E+00 -0.74505805969E-08  0.93827000000E+00  0.93827000000E+00 0.  1.
     999902    2    1    2    0    0 -0.15689505194E-01 -0.12620975268E-01  0.66592311375E-02  0.10227216302E+01  0.10225017056E+01 0.  0.
     999903    2    3    3    0    0 -0.62262226753E-01 -0.52958418539E-01 -0.10441961975E+00  0.13360148150E+00  0.16270214998E-01 0.  0.
         14    1    1    2    0    0  0.15689505194E-01  0.12620975268E-01 -0.66592311375E-02  0.21208369793E-01  0.00000000000E+00 0. -1.
     999901    1    3    3    0    0  0.46572721559E-01  0.40337443272E-01  0.11107885089E+00  0.88912014871E+00  0.88000000000E+00 0. -1.
        -11    1    4    4    0    0 -0.36716652559E-01 -0.31582734939E-01 -0.48709947012E-01  0.68691351569E-01  0.51100000000E-03 0.  1.
         11    1    4    4    0    0 -0.25545574193E-01 -0.21375683600E-01 -0.55709672737E-01  0.64910129931E-01  0.51100000000E-03 0. -1.
</event>
<event>
 8    1  0.1079508E+005  0.1043930E+01  0.7957747E-01            NaN
         13   -1    0    0    0    0  0.00000000000E+00  0.00000000000E+00  0.74505805969E-08  0.10566000000E+00  0.10566000000E+00 0. -1.
     999900   -1    0    0    0    0 -0.00000000000E+00 -0.00000000000E+00 -0.74505805969E-08  0.93827000000E+00  0.93827000000E+00 0.  1.
     999902    2    1    2    0    0 -0.32317403917E-01 -0.16648062624E-02 -0.72451119423E-03  0.10115616344E+01  0.10110436336E+01 0.  0.
     999903    2    3    3    0    0  0.31721329318E-01  0.13779866821E-01  0.11483173583E+00  0.12156571108E+00  0.19893895915E-01 0.  0.
         14    1    1    2    0    0  0.32317403917E-01  0.16648062624E-02  0.72451119423E-03  0.32368365610E-01  0.00000000000E+00 0. -1.
     999901    1    3    3    0    0 -0.64038733234E-01 -0.15444673084E-01 -0.11555624702E+00  0.88999592331E+00  0.88000000000E+00 0.  1.
        -11    1    4    4    0    0  0.81612397643E-02  0.13580260834E-01  0.37226121302E-01  0.40460777884E-01  0.51100000000E-03 0. -1.
         11    1    4    4    0    0  0.23560089553E-01  0.19960598734E-03  0.77605614524E-01  0.81104933197E-01  0.51100000000E-03 0.  1.
</event>
<event>
 8    1  0.1079508E+005  0.1043930E+01  0.7957747E-01            NaN
         13   -1    0    0    0    0  0.00000000000E+00  0.00000000000E+00  0.74505805969E-08  0.10566000000E+00  0.10566000000E+00 0.  1.
     999900   -1    0    0    0    0 -0.00000000000E+00 -0.00000000000E+00 -0.74505805969E-08  0.93827000000E+00  0.93827000000E+00 0. -1.
     999902    2    1    2    0    0 -0.21325683551E-01  0.47480250233E-02 -0.95167432446E-02  0.10200994120E+01  0.10198210203E+01 0.  0.
     999903    2    3    3    0    0  0.78768566579E-01 -0.80026113233E-01 -0.60211196145E-01  0.12893419673E+00  0.19747735689E-01 0.  0.
         14    1    1    2    0    0  0.21325683551E-01 -0.47480250233E-02  0.95167432446E-02  0.23830587960E-01  0.00000000000E+00 0. -1.
     999901    1    3    3    0    0 -0.10009425013E+00  0.84774138256E-01  0.50694452900E-01  0.89116521531E+00  0.88000000000E+00 0. -1.
        -11    1    4    4    0    0  0.28079467843E-01 -0.34305819262E-01 -0.33755505710E-01  0.55722895082E-01  0.51100000000E-03 0. -1.
         11    1    4    4    0    0  0.50689098735E-01 -0.45720293971E-01 -0.26455690435E-01  0.73211301646E-01  0.51100000000E-03 0.  1.
</event>
<event>
 8    1  0.1079508E+005  0.1043930E+01  0.7957747E-01            NaN
         13   -1    0    0    0    0  0.00000000000E+00  0.00000000000E+00  0.74505805969E-08  0.10566000000E+00  0.10566000000E+00 0.  1.
     999900   -1    0    0    0    0 -0.00000000000E+00 -0.00000000000E+00 -0.74505805969E-08  0.93827000000E+00  0.93827000000E+00 0. -1.
     999902    2    1    2    0    0  0.23296170934E-01  0.55547446161E-02 -0.37429575116E-02  0.10196900227E+01  0.10194018667E+01 0.  0.
     999903    2    3    3    0    0 -0.11958395422E+00 -0.13646386212E-01 -0.36207338046E-01  0.12736869629E+00  0.20622014993E-01 0.  0.
         14    1    1    2    0    0 -0.23296170934E-01 -0.55547446161E-02  0.37429575116E-02  0.24239977286E-01  0.00000000000E+00 0.  1.
     999901    1    3    3    0    0  0.14288012515E+00  0.19201130828E-01  0.32464380534E-01  0.89232132642E+00  0.88000000000E+00 0.  1.
        -11    1    4    4    0    0 -0.47518703657E-01  0.31887160840E-02 -0.87100748455E-02  0.48418195261E-01  0.51100000000E-03 0. -1.
         11    1    4    4    0    0 -0.72065250563E-01 -0.16835102296E-01 -0.27497263201E-01  0.78950501028E-01  0.51100000000E-03 0.  1.
</event>
<event>
 8    1  0.1079508E+005  0.1043930E+01  0.7957747E-01            NaN
         13   -1    0    0    0    0  0.00000000000E+00  0.00000000000E+00  0.74505805969E-08  0.10566000000E+00  0.10566000000E+00 0. -1.
     999900   -1    0    0    0    0 -0.00000000000E+00 -0.00000000000E+00 -0.74505805969E-08  0.93827000000E+00  0.93827000000E+00 0. -1.
     999902    2    1    2    0    0  0.62680549636E-02  0.25314377691E-02  0.22952505452E-01  0.10200027311E+01  0.10197220490E+01 0.  0.
     999903    2    3    3    0    0  0.10697479583E-01  0.11401175871E+00  0.62942025670E-01  0.13205755065E+00  0.19088763599E-01 0.  0.
         14    1    1    2    0    0 -0.62680549636E-02 -0.25314377691E-02 -0.22952505452E-01  0.23927268894E-01  0.00000000000E+00 0.  1.
     999901    1    3    3    0    0 -0.44294246192E-02 -0.11148032094E+00 -0.39989520218E-01  0.88794518045E+00  0.88000000000E+00 0.  1.
        -11    1    4    4    0    0  0.23646638643E-02  0.79714173892E-01  0.35256099972E-01  0.87196300729E-01  0.51100000000E-03 0. -1.
         11    1    4    4    0    0  0.83328157184E-02  0.34297584818E-01  0.27685925698E-01  0.44861249925E-01  0.51100000000E-03 0.  1.
</event>
<event>
 8    1  0.1079508E+005  0.1043930E+01  0.7957747E-01            NaN
         13   -1    0    0    0    0  0.00000000000E+00  0.00000000000E+00  0.74505805969E-08  0.10566000000E+00  0.10566000000E+00 0.  1.
     999900   -1    0    0    0    0 -0.00000000000E+00 -0.00000000000E+00 -0.74505805969E-08  0.93827000000E+00  0.93827000000E+00 0.  1.
     999902    2    1    2    0    0  0.43945261654E-02  0.15538460965E-01  0.17068890320E-01  0.10204331354E+01  0.10201625759E+01 0.  0.
     999903    2    3    3    0    0  0.99910415298E-01  0.68401619291E-01  0.51387579836E-01  0.13302366338E+00  0.19842858919E-01 0.  0.
         14    1    1    2    0    0 -0.43945261654E-02 -0.15538460965E-01 -0.17068890320E-01  0.23496864602E-01  0.00000000000E+00 0. -1.
     999901    1    3    3    0    0 -0.95515889132E-01 -0.52863158326E-01 -0.34318689516E-01  0.88740947202E+00  0.88000000000E+00 0. -1.
        -11    1    4    4    0    0  0.61607394083E-01  0.42072173868E-01  0.21050445621E-01  0.77517231642E-01  0.51100000000E-03 0.  1.
         11    1    4    4    0    0  0.38303021215E-01  0.26329445423E-01  0.30337134215E-01  0.55506431734E-01  0.51100000000E-03 0. -1.
</event>
<event>
 8    1  0.1079508E+005  0.1043930E+01  0.7957747E-01            NaN
         13   -1    0    0    0    0  0.00000000000E+00  0.00000000000E+00  0.74505805969E-08  0.10566000000E+00  0.10566000000E+00 0. -1.
     999900   -1    0    0    0    0 -0.00000000000E+00 -0.00000000000E+00 -0.74505805969E-08  0.93827000000E+00  0.93827000000E+00 0.  1.
     999902    2    1    2    0    0 -0.12740864188E-01  0.19563825695E-01  0.86317016826E-02  0.10190386527E+01  0.10187346055E+01 0.  0.
     999903    2    3    3    0    0 -0.73493305594E-01 -0.61152062784E-01  0.85578601337E-01  0.12992294643E+00  0.20382204284E-01 0.  0.
         14    1    1    2    0    0  0.12740864188E-01 -0.19563825695E-01 -0.86317016826E-02  0.24891347293E-01  0.00000000000E+00 0. -1.
     999901    1    3    3    0    0  0.60752441405E-01  0.80715888480E-01 -0.76946899654E-01  0.88911570628E+00  0.88000000000E+00 0.  1.
        -11    1    4    4    0    0 -0.54057591349E-01 -0.34073063787E-01  0.62443709311E-01  0.89345815860E-01  0.51100000000E-03 0. -1.
         11    1    4    4    0    0 -0.19435714245E-01 -0.27078998997E-01  0.23134892026E-01  0.40577130566E-01  0.51100000000E-03 0.  1.
</event>
<event>
 8    1  0.1079508E+005  0.1043930E+01  0.7957747E-01            NaN
         13   -1    0    0    0    0  0.00000000000E+00  0.00000000000E+00  0.74505805969E-08  0.10566000000E+00  0.10566000000E+00 0. -1.
     999900   -1    0    0    0    0 -0.00000000000E+00 -0.00000000000E+00 -0.74505805969E-08  0.93827000000E+00  0.93827000000E+00 0.  1.
     999902    2    1    2    0    0  0.11364671239E-01 -0.18952345852E-01 -0.10203904032E-01  0.10195893586E+01  0.10192987753E+01 0.  0.
     999903    2    3    3    0    0  0.11091769532E+00  0.57062110909E-02 -0.67708576582E-01  0.13176863549E+00  0.21052932740E-01 0.  0.
         14    1    1    2    0    0 -0.11364671239E-01  0.18952345852E-01  0.10203904032E-01  0.24340641387E-01  0.00000000000E+00 0. -1.
     999901    1    3    3    0    0 -0.99553024081E-01 -0.24658556942E-01  0.57504672550E-01  0.88782072312E+00  0.88000000000E+00 0.  1.
        -11    1    4    4    0    0  0.74539791658E-01 -0.89292541446E-03 -0.34799023425E-01  0.82269137643E-01  0.51100000000E-03 0. -1.
         11    1    4    4    0    0  0.36377903662E-01  0.65991365053E-02 -0.32909553157E-01  0.49499497851E-01  0.51100000000E-03 0.  1.
</event>
<event>
 8    1  0.1079508E+005  0.1043930E+01  0.7957747E-01            NaN
         13   -1    0    0    0    0  0.00000000000E+00  0.00000000000E+00  0.74505805969E-08  0.10566000000E+00  0.10566000000E+00 0. -1.
     999900   -1    0    0    0    0 -0.00000000000E+00 -0.00000000000E+00 -0.74505805969E-08  0.93827000000E+00  0.93827000000E+00 0.  1.
     999902    2    1    2    0    0 -0.22238328990E-01 -0.84784289772E-02  0.37443835254E-03  0.10201273271E+01  0.10198495949E+01 0.  0.
     999903    2    3    3    0    0 -0.66416360538E-01 -0.72931946655E-01 -0.86255015345E-01  0.13242770634E+00  0.19156407384E-01 0.  0.
         14    1    1    2    0    0  0.22238328990E-01  0.84784289772E-02 -0.37443835254E-03  0.23802672923E-01  0.00000000000E+00 0. -1.
     999901    1    3    3    0    0  0.44178031548E-01  0.64453517678E-01  0.86629453698E-01  0.88769962074E+00  0.88000000000E+00 0.  1.
        -11    1    4    4    0    0 -0.67996633267E-02 -0.12932655236E-01 -0.59170914215E-02  0.15772193402E-01  0.51100000000E-03 0. -1.
         11    1    4    4    0    0 -0.59616697211E-01 -0.59999291419E-01 -0.80337923924E-01  0.11665551294E+00  0.51100000000E-03 0.  1.
</event>
<event>
 8    1  0.1079508E+005  0.1043930E+01  0.7957747E-01            NaN
         13   -1    0    0    0    0  0.00000000000E+00  0.00000000000E+00  0.74505805969E-08  0.10566000000E+00  0.10566000000E+00 0.  1.
     999900   -1    0    0    0    0 -0.00000000000E+00 -0.00000000000E+00 -0.74505805969E-08  0.93827000000E+00  0.93827000000E+00 0. -1.
     999902    2    1    2    0    0  0.46852399808E-02  0.66643455074E-02  0.22341261973E-01  0.10201498200E+01  0.10198726186E+01 0.  0.
     999903    2    3    3    0    0 -0.20336017451E-01  0.12629729681E+00  0.24519816884E-01  0.13170012954E+00  0.19471566779E-01 0.  0.
         14    1    1    2    0    0 -0.46852399808E-02 -0.66643455074E-02 -0.22341261973E-01  0.23780180009E-01  0.00000000000E+00 0. -1.
     999901    1    3    3    0    0  0.25021257431E-01 -0.11963295131E+00 -0.21785549109E-02  0.88844969045E+00  0.88000000000E+00 0.  1.
        -11    1    4    4    0    0 -0.15568125942E-01  0.44524144936E-01  0.45622801060E-02  0.47390310702E-01  0.51100000000E-03 0. -1.
         11    1    4    4    0    0 -0.47678915083E-02  0.81773151876E-01  0.19957536778E-01  0.84309818838E-01  0.51100000000E-03 0.  1.
</event>
<event>
 8    1  0.1079508E+005  0.1043930E+01  0.7957747E-01            NaN
         13   -1    0    0    0    0  0.00000000000E+00  0.00000000000E+00  0.74505805969E-08  0.10566000000E+00  0.10566000000E+00 0. -1.
     999900   -1    0    0    0    0 -0.00000000000E+00 -0.00000000000E+00 -0.74505805969E-08  0.93827000000E+00  0.93827000000E+00 0. -1.
     999902    2    1    2    0    0 -0.17439364764E-01 -0.97617143351E-02  0.14632699793E-01  0.10191602924E+01  0.10188592460E+01 0.  0.
     999903    2    3    3    0    0  0.28822444841E-01 -0.12333998511E+00  0.24705312871E-01  0.13059873791E+00  0.20054740268E-01 0.  0.
         14    1    1    2    0    0  0.17439364764E-01  0.97617143351E-02 -0.14632699793E-01  0.24769707576E-01  0.00000000000E+00 0.  1.
     999901    1    3    3    0    0 -0.46261809605E-01  0.11357827077E+00 -0.10072613078E-01  0.88856155451E+00  0.88000000000E+00 0. -1.
        -11    1    4    4    0    0  0.21107285227E-01 -0.90728322296E-01  0.27051464649E-01  0.97000973279E-01  0.51100000000E-03 0. -1.
         11    1    4    4    0    0  0.77151596136E-02 -0.32611662813E-01 -0.23461517784E-02  0.33597764635E-01  0.51100000000E-03 0.  1.
</event>
<event>
 8    1  0.1079508E+005  0.1043930E+01  0.7957747E-01            NaN
         13   -1    0    0    0    0  0.00000000000E+00  0.00000000000E+00  0.74505805969E-08  0.10566000000E+00  0.10566000000E+00 0. -1.
     999900   -1    0    0    0    0 -0.00000000000E+00 -0.00000000000E+00 -0.74505805969E-08  0.93827000000E+00  0.93827000000E+00 0.  1.
     999902    2    1    2    0    0  0.86134428985E-02 -0.20574153124E-01 -0.21249287739E-02  0.10215245878E+01  0.10212788458E+01 0.  0.
     999903    2    3    3    0    0 -0.96623265587E-01  0.67272812211E-01 -0.50842073034E-01  0.12957996264E+00  0.18557036741E-01 0.  0.
         14    1    1    2    0    0 -0.86134428985E-02  0.20574153124E-01  0.21249287739E-02  0.22405412239E-01  0.00000000000E+00 0. -1.
     999901    1    3    3    0    0  0.10523670849E+00 -0.87846965335E-01  0.48717144260E-01  0.89194462512E+00  0.88000000000E+00 0. -1.
        -11    1    4    4    0    0 -0.25625298179E-01  0.27329594640E-01 -0.20011136454E-01  0.42476691881E-01  0.51100000000E-03 0.  1.
         11    1    4    4    0    0 -0.70997967409E-01  0.39943217571E-01 -0.30830936580E-01  0.87103270762E-01  0.51100000000E-03 0. -1.
</event>
<event>
 8    1  0.1079508E+005  0.1043930E+01  0.7957747E-01            NaN
         13   -1    0    0    0    0  0.00000000000E+00  0.00000000000E+00  0.74505805969E-08  0.10566000000E+00  0.10566000000E+00 0.  1.
     999900   -1    0    0    0    0 -0.00000000000E+00 -0.00000000000E+00 -0.74505805969E-08  0.93827000000E+00  0.93827000000E+00 0. -1.
     999902    2    1    2    0    0 -0.11807089982E-01  0.20164701420E-01  0.99933608469E-02  0.10185156376E+01  0.10181985141E+01 0.  0.
     999903    2    3    3    0    0 -0.90045437094E-01  0.76100907697E-02  0.92819280954E-01  0.13108170185E+00  0.20022472886E-01 0.  0.
         14    1    1    2    0    0  0.11807089982E-01 -0.20164701420E-01 -0.99933608469E-02  0.25414362439E-01  0.00000000000E+00 0. -1.
     999901    1    3    3    0    0  0.78238347112E-01  0.12554610650E-01 -0.82825920107E-01  0.88743393571E+00  0.88000000000E+00 0. -1.
        -11    1    4    4    0    0 -0.78197409994E-01  0.16355246832E-02  0.71538555210E-01  0.10599781070E+00  0.51100000000E-03 0. -1.
         11    1    4    4    0    0 -0.11848027100E-01  0.59745660865E-02  0.21280725744E-01  0.25083891151E-01  0.51100000000E-03 0.  1.
</event>
<event>
 8    1  0.1079508E+005  0.1043930E+01  0.7957747E-01            NaN
         13   -1    0    0    0    0  0.00000000000E+00  0.00000000000E+00  0.74505805969E-08  0.10566000000E+00  0.10566000000E+00 0. -1.
     999900   -1    0    0    0    0 -0.00000000000E+00 -0.00000000000E+00 -0.74505805969E-08  0.93827000000E+00  0.93827000000E+00 0.  1.
     999902    2    1    2    0    0 -0.24233654541E-01  0.17908838866E-02 -0.25364742133E-03  0.10196289380E+01  0.10193393103E+01 0.  0.
     999903    2    3    3    0    0  0.17067287408E-01  0.10343082878E-01 -0.12586474661E+00  0.12970924715E+00  0.24171940249E-01 0.  0.
         14    1    1    2    0    0  0.24233654541E-01 -0.17908838866E-02  0.25364742133E-03  0.24301062004E-01  0.00000000000E+00 0. -1.
     999901    1    3    3    0    0 -0.41300941949E-01 -0.85521989914E-02  0.12561109919E+00  0.88991969084E+00  0.88000000000E+00 0. -1.
        -11    1    4    4    0    0  0.13074898493E-01 -0.54512017174E-02 -0.73939711838E-01  0.75286191818E-01  0.51100000000E-03 0.  1.
         11    1    4    4    0    0  0.39923889144E-02  0.15794284595E-01 -0.51925034769E-01  0.54423055334E-01  0.51100000000E-03 0. -1.
</event>
<event>
 8    1  0.1079508E+005  0.1043930E+01  0.7957747E-01            NaN
         13   -1    0    0    0    0  0.00000000000E+00  0.00000000000E+00  0.74505805969E-08  0.10566000000E+00  0.10566000000E+00 0. -1.
     999900   -1    0    0    0    0 -0.00000000000E+00 -0.00000000000E+00 -0.74505805969E-08  0.93827000000E+00  0.93827000000E+00 0. -1.
     999902    2    1    2    0    0  0.16488649109E-01  0.15795882686E-01 -0.29594419365E-02  0.10209051492E+01  0.10206454722E+01 0.  0.
     999903    2    3    3    0    0  0.65195565476E-01 -0.14607727279E-01 -0.11225715203E+00  0.13228670876E+00  0.20838850204E-01 0.  0.
         14    1    1    2    0    0 -0.16488649109E-01 -0.15795882686E-01  0.29594419365E-02  0.23024850832E-01  0.00000000000E+00 0.  1.
     999901    1    3    3    0    0 -0.48706916367E-01  0.30403609965E-01  0.10929771010E+00  0.88861844041E+00  0.88000000000E+00 0.  1.
        -11    1    4    4    0    0  0.29282493065E-01 -0.26275741044E-02 -0.67735716164E-01  0.73842785098E-01  0.51100000000E-03 0. -1.
         11    1    4    4    0    0  0.35913072411E-01 -0.11980153175E-01 -0.44521435869E-01  0.58443923662E-01  0.51100000000E-03 0.  1.
</event>
<event>
 8    1  0.1079508E+005  0.1043930E+01  0.7957747E-01            NaN
         13   -1    0    0    0    0  0.00000000000E+00  0.00000000000E+00  0.74505805969E-08  0.10566000000E+00  0.10566000000E+00 0. -1.
     999900   -1    0    0    0    0 -0.00000000000E+00 -0.00000000000E+00 -0.74505805969E-08  0.93827000000E+00  0.93827000000E+00 0. -1.
     999902    2    1    2    0    0  0.51965335033E-02  0.58821924378E-03 -0.23296783222E-01  0.10200534410E+01  0.10197739614E+01 0.  0.
     999903    2    3    3    0    0  0.64646086194E-01 -0.95533323921E-01  0.55116274569E-01  0.12936707193E+00  0.19806643769E-01 0.  0.
         14    1    1    2    0    0 -0.51965335033E-02 -0.58821924378E-03  0.23296783222E-01  0.23876559024E-01  0.00000000000E+00 0. -1.
     999901    1    3    3    0    0 -0.59449552691E-01  0.96121543164E-01 -0.78413057791E-01  0.89068636905E+00  0.88000000000E+00 0.  1.
        -11    1    4    4    0    0  0.55284291304E-01 -0.81943689376E-01  0.38911495542E-01  0.10623317137E+00  0.51100000000E-03 0. -1.
         11    1    4    4    0    0  0.93617948904E-02 -0.13589634545E-01  0.16204779027E-01  0.23133900556E-01  0.51100000000E-03 0.  1.
</event>
<event>
 8    1  0.1079508E+005  0.1043930E+01  0.7957747E-01            NaN
         13   -1    0    0    0    0  0.00000000000E+00  0.00000000000E+00  0.74505805969E-08  0.10566000000E+00  0.10566000000E+00 0. -1.
     999900   -1    0    0    0    0 -0.00000000000E+00 -0.00000000000E+00 -0.74505805969E-08  0.93827000000E+00  0.93827000000E+00 0.  1.
     999902    2    1    2    0    0 -0.18718168396E-01 -0.13786703676E-01  0.32951222382E-02  0.10204502032E+01  0.10201800412E+01 0.  0.
     999903    2    3    3    0    0 -0.32403865060E-03 -0.85472355298E-01 -0.97998030140E-01  0.13155342666E+00  0.19926405427E-01 0.  0.
         14    1    1    2    0    0  0.18718168396E-01  0.13786703676E-01 -0.32951222382E-02  0.23479796782E-01  0.00000000000E+00 0.  1.
     999901    1    3    3    0    0 -0.18394129746E-01  0.71685651622E-01  0.10129315238E+00  0.88889677656E+00  0.88000000000E+00 0. -1.
        -11    1    4    4    0    0 -0.96340617937E-02 -0.50084613095E-01 -0.53062559961E-01  0.73601494592E-01  0.51100000000E-03 0. -1.
         11    1    4    4    0    0  0.93100231431E-02 -0.35387742203E-01 -0.44935470179E-01  0.57951932068E-01  0.51100000000E-03 0.  1.
</event>
<event>
 8    1  0.1079508E+005  0.1043930E+01  0.7957747E-01            NaN
         13   -1    0    0    0    0  0.00000000000E+00  0.00000000000E+00  0.74505805969E-08  0.10566000000E+00  0.10566000000E+00 0. -1.
     999900   -1    0    0    0    0 -0.00000000000E+00 -0.00000000000E+00 -0.74505805969E-08  0.93827000000E+00  0.93827000000E+00 0.  1.
     999902    2    1    2    0    0  0.20391142707E-01 -0.11273861019E-01 -0.23057455752E-02  0.10205160062E+01  0.10202473738E+01 0.  0.
     999903    2    3    3    0    0 -0.15689519339E-01  0.12030677773E+00 -0.42888423428E-01  0.12907771197E+00  0.10087471342E-01 0.  0.
         14    1    1    2    0    0 -0.20391142707E-01  0.11273861019E-01  0.23057455752E-02  0.23413993803E-01  0.00000000000E+00 0.  1.
     999901    1    3    3    0    0  0.36080662046E-01 -0.13158063875E+00  0.40582677852E-01  0.89143829422E+00  0.88000000000E+00 0. -1.
        -11    1    4    4    0    0 -0.86976153572E-02  0.69315796091E-01 -0.19426545407E-01  0.72511929282E-01  0.51100000000E-03 0. -1.
         11    1    4    4    0    0 -0.69919039820E-02  0.50990981643E-01 -0.23461878020E-01  0.56565782691E-01  0.51100000000E-03 0.  1.
</event>
<event>
 8    1  0.1079508E+005  0.1043930E+01  0.7957747E-01            NaN
         13   -1    0    0    0    0  0.00000000000E+00  0.00000000000E+00  0.74505805969E-08  0.10566000000E+00  0.10566000000E+00 0. -1.
     999900   -1    0    0    0    0 -0.00000000000E+00 -0.00000000000E+00 -0.74505805969E-08  0.93827000000E+00  0.93827000000E+00 0. -1.
     999902    2    1    2    0    0  0.12964107358E-01  0.50726466032E-02  0.19121057449E-01  0.10202780516E+01  0.10200038667E+01 0.  0.
     999903    2    3    3    0    0 -0.64155676956E-01  0.90711167879E-01 -0.62323853078E-01  0.12903471175E+00  0.20523822963E-01 0.  0.
         14    1    1    2    0    0 -0.12964107358E-01 -0.50726466032E-02 -0.19121057449E-01  0.23651948358E-01  0.00000000000E+00 0.  1.
     999901    1    3    3    0    0  0.77119784315E-01 -0.85638521276E-01  0.81444910527E-01  0.89124333990E+00  0.88000000000E+00 0.  1.
        -11    1    4    4    0    0 -0.34336658795E-01  0.36570367687E-01 -0.36529956932E-01  0.62057205903E-01  0.51100000000E-03 0. -1.
         11    1    4    4    0    0 -0.29819018161E-01  0.54140800192E-01 -0.25793896146E-01  0.66977505843E-01  0.51100000000E-03 0.  1.
</event>
<event>
 8    1  0.1079508E+005  0.1043930E+01  0.7957747E-01            NaN
         13   -1    0    0    0    0  0.00000000000E+00  0.00000000000E+00  0.74505805969E-08  0.10566000000E+00  0.10566000000E+00 0.  1.
     999900   -1    0    0    0    0 -0.00000000000E+00 -0.00000000000E+00 -0.74505805969E-08  0.93827000000E+00  0.93827000000E+00 0. -1.
     999902    2    1    2    0    0  0.41588603622E-03  0.22359684200E-01  0.77456622279E-02  0.10202630669E+01  0.10199885303E+01 0.  0.
     999903    2    3    3    0    0  0.96437129977E-01  0.43542333352E-01 -0.73638516283E-01  0.13105433527E+00  0.23591372999E-01 0.  0.
         14    1    1    2    0    0 -0.41588603622E-03 -0.22359684200E-01 -0.77456622279E-02  0.23666933094E-01  0.00000000000E+00 0. -1.
     999901    1    3    3    0    0 -0.96021243940E-01 -0.21182649152E-01  0.81384178511E-01  0.88920873164E+00  0.88000000000E+00 0.  1.
        -11    1    4    4    0    0  0.42343650423E-01  0.16287131949E-01 -0.45528667339E-01  0.64275781356E-01  0.51100000000E-03 0.  1.
         11    1    4    4    0    0  0.54093479553E-01  0.27255201403E-01 -0.28109848944E-01  0.66778553910E-01  0.51100000000E-03 0. -1.
</event>
<event>
 8    1  0.1079508E+005  0.1043930E+01  0.7957747E-01            NaN
         13   -1    0    0    0    0  0.00000000000E+00  0.00000000000E+00  0.74505805969E-08  0.10566000000E+00  0.10566000000E+00 0. -1.
     999900   -1    0    0    0    0 -0.00000000000E+00 -0.00000000000E+00 -0.74505805969E-08  0.93827000000E+00  0.93827000000E+00 0.  1.
     999902    2    1    2    0    0 -0.13509169425E-01  0.18355027301E-02  0.21665964677E-01  0.10183315478E+01  0.10180097546E+01 0.  0.
     999903    2    3    3    0    0  0.68220456291E-01  0.80799951447E-01  0.71912646105E-01  0.12960220495E+00  0.21039012504E-01 0.  0.
         14    1    1    2    0    0  0.13509169425E-01 -0.18355027301E-02 -0.21665964677E-01  0.25598452184E-01  0.00000000000E+00 0.  1.
     999901    1    3    3    0    0 -0.81729625715E-01 -0.78964448717E-01 -0.50246681427E-01  0.88872934287E+00  0.88000000000E+00 0.  1.
        -11    1    4    4    0    0  0.44484522372E-01  0.59840813979E-01  0.39892644504E-01  0.84566423331E-01  0.51100000000E-03 0. -1.
         11    1    4    4    0    0  0.23735933919E-01  0.20959137468E-01  0.32020001600E-01  0.45035781617E-01  0.51100000000E-03 0.  1.
</event>
<event>
 8    1  0.1079508E+005  0.1043930E+01  0.7957747E-01            NaN
         13   -1    0    0    0    0  0.00000000000E+00  0.00000000000E+00  0.74505805969E-08  0.10566000000E+00  0.10566000000E+00 0.  1.
     999900   -1    0    0    0    0 -0.00000000000E+00 -0.00000000000E+00 -0.74505805969E-08  0.93827000000E+00  0.93827000000E+00 0. -1.
     999902    2    1    2    0    0 -0.20304498200E-01  0.11468830620E-01  0.27974677172E-02  0.10204431409E+01  0.10201728144E+01 0.  0.
     999903    2    3    3    0    0 -0.89221979313E-01  0.37391043826E-01  0.89351786737E-01  0.13313641242E+00  0.19568105859E-01 0.  0.
         14    1    1    2    0    0  0.20304498200E-01 -0.11468830620E-01 -0.27974677172E-02  0.23486859061E-01  0.00000000000E+00 0.  1.
     999901    1    3    3    0    0  0.68917481113E-01 -0.25922213205E-01 -0.86554319020E-01  0.88730672852E+00  0.88000000000E+00 0. -1.
        -11    1    4    4    0    0 -0.52169468252E-01  0.32105288159E-01  0.54576551603E-01  0.82044281040E-01  0.51100000000E-03 0. -1.
         11    1    4    4    0    0 -0.37052511061E-01  0.52857556662E-02  0.34775235135E-01  0.51092131376E-01  0.51100000000E-03 0.  1.
</event>
<event>
 8    1  0.1079508E+005  0.1043930E+01  0.7957747E-01            NaN
         13   -1    0    0    0    0  0.00000000000E+00  0.00000000000E+00  0.74505805969E-08  0.10566000000E+00  0.10566000000E+00 0.  1.
     999900   -1    0    0    0    0 -0.00000000000E+00 -0.00000000000E+00 -0.74505805969E-08  0.93827000000E+00  0.93827000000E+00 0.  1.
     999902    2    1    2    0    0  0.61238632479E-03 -0.20641578515E-01 -0.11675009195E-01  0.10202075292E+01  0.10199316874E+01 0.  0.
     999903    2    3    3    0    0 -0.90277599006E-02  0.91194472594E-01  0.86562236206E-01  0.12765456656E+00  0.20118035371E-01 0.  0.
         14    1    1    2    0    0 -0.61238632479E-03  0.20641578515E-01  0.11675009195E-01  0.23722470788E-01  0.00000000000E+00 0. -1.
     999901    1    3    3    0    0  0.96401462254E-02 -0.11183605111E+00 -0.98237245400E-01  0.89255296265E+00  0.88000000000E+00 0.  1.
        -11    1    4    4    0    0 -0.84140521390E-02  0.56871471767E-01  0.41042908660E-01  0.70639521846E-01  0.51100000000E-03 0.  1.
         11    1    4    4    0    0 -0.61370776167E-03  0.34323000827E-01  0.45519327546E-01  0.57015044718E-01  0.51100000000E-03 0. -1.
</event>
<event>
 8    1  0.1079508E+005  0.1043930E+01  0.7957747E-01            NaN
         13   -1    0    0    0    0  0.00000000000E+00  0.00000000000E+00  0.74505805969E-08  0.10566000000E+00  0.10566000000E+00 0.  1.
     999900   -1    0    0    0    0 -0.00000000000E+00 -0.00000000000E+00 -0.74505805969E-08  0.93827000000E+00  0.93827000000E+00 0. -1.
     999902    2    1    2    0    0 -0.97072522685E-02 -0.19655216891E-01 -0.86489825511E-02  0.10203638549E+01  0.10200916788E+01 0.  0.
     999903    2    3    3    0    0  0.85969301155E-01  0.60719269634E-01  0.69939095148E-01  0.12806897820E+00  0.20799896644E-01 0.  0.
         14    1    1    2    0    0  0.97072522685E-02  0.19655216891E-01  0.86489825511E-02  0.23566145141E-01  0.00000000000E+00 0.  1.
     999901    1    3    3    0    0 -0.95676553424E-01 -0.80374486525E-01 -0.78588077699E-01  0.89229487666E+00  0.88000000000E+00 0.  1.
        -11    1    4    4    0    0  0.53427672475E-01  0.36711945339E-01  0.30735492281E-01  0.71744091906E-01  0.51100000000E-03 0.  1.
         11    1    4    4    0    0  0.32541628681E-01  0.24007324295E-01  0.39203602868E-01  0.56324886292E-01  0.51100000000E-03 0. -1.
</event>
<event>
 7    1  0.1079508E+005  0.1043930E+01  0.7957747E-01            NaN
         13   -1    0    0    0    0  0.00000000000E+00  0.00000000000E+00  0.74505805969E-08  0.10566000000E+00  0.10566000000E+00 0.  1.
     999900   -1    0    0    0    0 -0.00000000000E+00 -0.00000000000E+00 -0.74505805969E-08  0.93827000000E+00  0.93827000000E+00 0.  1.
     999902    2    1    2    0    0 -0.11738350634E-01  0.19538877935E-01  0.43967413104E-02  0.10207160395E+01  0.10204520299E+01 0.  0.
         14    1    1    2    0    0  0.11738350634E-01 -0.19538877935E-01 -0.43967413104E-02  0.23213960470E-01  0.00000000000E+00 0.  1.
     999901    1    3    3    0    0 -0.35624631839E-01  0.54653542145E-01  0.12168312200E+00  0.89076534859E+00  0.88000000000E+00 0. -1.
        -11    1    3    3    0    0  0.42232328695E-02 -0.58810121639E-02 -0.72988557927E-01  0.73348569920E-01  0.51100000000E-03 0. -1.
         11    1    3    3    0    0  0.19663048336E-01 -0.29233652046E-01 -0.44297822764E-01  0.56602121024E-01  0.51100000000E-03 0.  1.
</event>
<event>
 8    1  0.1079508E+005  0.1043930E+01  0.7957747E-01            NaN
         13   -1    0    0    0    0  0.00000000000E+00  0.00000000000E+00  0.74505805969E-08  0.10566000000E+00  0.10566000000E+00 0.  1.
     999900   -1    0    0    0    0 -0.00000000000E+00 -0.00000000000E+00 -0.74505805969E-08  0.93827000000E+00  0.93827000000E+00 0.  1.
     999902    2    1    2    0    0 -0.13036193149E-01  0.79109604669E-02  0.17228117179E-01  0.10209227479E+01  0.10206634722E+01 0.  0.
     999903    2    3    3    0    0  0.93597898590E-01 -0.85935133345E-01 -0.12823473694E-01  0.12902532277E+00  0.18376035376E-01 0.  0.
         14    1    1    2    0    0  0.13036193149E-01 -0.79109604669E-02 -0.17228117179E-01  0.23007252093E-01  0.00000000000E+00 0. -1.
     999901    1    3    3    0    0 -0.10663409174E+00  0.93846093811E-01  0.30051590873E-01  0.89189742513E+00  0.88000000000E+00 0.  1.
        -11    1    4    4    0    0  0.62793325561E-01 -0.54540529929E-01  0.11955693263E-03  0.83174194043E-01  0.51100000000E-03 0.  1.
         11    1    4    4    0    0  0.30804573029E-01 -0.31394603416E-01 -0.12943030626E-01  0.45851128731E-01  0.51100000000E-03 0. -1.
</event>
<event>
 8    1  0.1079508E+005  0.1043930E+01  0.7957747E-01            NaN
         13   -1    0    0    0    0  0.00000000000E+00  0.00000000000E+00  0.74505805969E-08  0.10566000000E+00  0.10566000000E+00 0.  1.
     999900   -1    0    0    0    0 -0.00000000000E+00 -0.00000000000E+00 -0.74505805969E-08  0.93827000000E+00  0.93827000000E+00 0. -1.
     999902    2    1    2    0    0  0.10758584701E-01 -0.15886499498E-01  0.14352142540E-01  0.10199693655E+01  0.10196878907E+01 0.  0.
     999903    2    3    3    0    0  0.60127517897E-01  0.52546955029E-01  0.10275971106E+00  0.13152334718E+00  0.19035013645E-01 0.  0.
         14    1    1    2    0    0 -0.10758584701E-01  0.15886499498E-01 -0.14352142540E-01  0.23960634519E-01  0.00000000000E+00 0. -1.
     999901    1    3    3    0    0 -0.49368933195E-01 -0.68433454527E-01 -0.88407568522E-01  0.88844601830E+00  0.88000000000E+00 0. -1.
        -11    1    4    4    0    0  0.34277479720E-01  0.33238490600E-01  0.75241910670E-01  0.89114247546E-01  0.51100000000E-03 0. -1.
         11    1    4    4    0    0  0.25850038176E-01  0.19308464429E-01  0.27517800391E-01  0.42409099633E-01  0.51100000000E-03 0.  1.
</event>
<event>
 8    1  0.1079508E+005  0.1043930E+01  0.7957747E-01            NaN
         13   -1    0    0    0    0  0.00000000000E+00  0.00000000000E+00  0.74505805969E-08  0.10566000000E+00  0.10566000000E+00 0. -1.
     999900   -1    0    0    0    0 -0.00000000000E+00 -0.00000000000E+00 -0.74505805969E-08  0.93827000000E+00  0.93827000000E+00 0.  1.
     999902    2    1    2    0    0 -0.70379657492E-02 -0.10096276310E-01 -0.20146409140E-01  0.10203218328E+01  0.10200486738E+01 0.  0.
     999903    2    3    3    0    0  0.11263909353E+00 -0.60872799090E-01  0.80992672888E-02  0.13032257886E+00  0.22919715708E-01 0.  0.
         14    1    1    2    0    0  0.70379657492E-02  0.10096276310E-01  0.20146409140E-01  0.23608167198E-01  0.00000000000E+00 0.  1.
     999901    1    3    3    0    0 -0.11967705928E+00  0.50776522781E-01 -0.28245676429E-01  0.88999925394E+00  0.88000000000E+00 0. -1.
        -11    1    4    4    0    0  0.43277160564E-01 -0.18134400152E-01 -0.70509532002E-02  0.47452567448E-01  0.51100000000E-03 0.  1.
         11    1    4    4    0    0  0.69361932970E-01 -0.42738398938E-01  0.15150220489E-01  0.82870011410E-01  0.51100000000E-03 0. -1.
</event>
<event>
 8    1  0.1079508E+005  0.1043930E+01  0.7957747E-01            NaN
         13   -1    0    0    0    0  0.00000000000E+00  0.00000000000E+00  0.74505805969E-08  0.10566000000E+00  0.10566000000E+00 0. -1.
     999900   -1    0    0    0    0 -0.00000000000E+00 -0.00000000000E+00 -0.74505805969E-08  0.93827000000E+00  0.93827000000E+00 0. -1.
     999902    2    1    2    0    0  0.19579818985E-01 -0.35970482820E-03  0.13594240254E-01  0.10200909130E+01  0.10198123204E+01 0.  0.
     999903    2    3    3    0    0 -0.14675279835E-01 -0.55668657627E-01  0.11670101632E+00  0.13168588192E+00  0.20191112042E-01 0.  0.
         14    1    1    2    0    0 -0.19579818985E-01  0.35970482820E-03 -0.13594240254E-01  0.23839086961E-01  0.00000000000E+00 0.  1.
     999901    1    3    3    0    0  0.34255098820E-01  0.55308952799E-01 -0.10310677607E+00  0.88840503112E+00  0.88000000000E+00 0. -1.
        -11    1    4    4    0    0  0.44884889851E-02 -0.11294527709E-01  0.30854160370E-01  0.33165542701E-01  0.51100000000E-03 0.  1.
         11    1    4    4    0    0 -0.19163768820E-01 -0.44374129918E-01  0.85846855951E-01  0.98520339215E-01  0.51100000000E-03 0. -1.
</event>
<event>
 8    1  0.1079508E+005  0.1043930E+01  0.7957747E-01            NaN
         13   -1    0    0    0    0  0.00000000000E+00  0.00000000000E+00  0.74505805969E-08  0.10566000000E+00  0.10566000000E+00 0. -1.
     999900   -1    0    0    0    0 -0.00000000000E+00 -0.00000000000E+00 -0.74505805969E-08  0.93827000000E+00  0.93827000000E+00 0.  1.
     999902    2    1    2    0    0 -0.11343992637E-01  0.27739424855E-01  0.11893598830E-01  0.10116868681E+01  0.10111729326E+01 0.  0.
     999903    2    3    3    0    0 -0.12031317387E+00  0.26195143864E-01 -0.35829234568E-02  0.12482938802E+00  0.20201321861E-01 0.  0.
         14    1    1    2    0    0  0.11343992637E-01 -0.27739424855E-01 -0.11893598830E-01  0.32243131879E-01  0.00000000000E+00 0.  1.
     999901    1    3    3    0    0  0.10896918123E+00  0.15442809902E-02  0.15476522287E-01  0.88685748010E+00  0.88000000000E+00 0. -1.
        -11    1    4    4    0    0 -0.72544406014E-01  0.25811779581E-01 -0.17488549971E-02  0.77021155690E-01  0.51100000000E-03 0.  1.
         11    1    4    4    0    0 -0.47768767857E-01  0.38336428338E-03 -0.18340684597E-02  0.47808232334E-01  0.51100000000E-03 0. -1.
</event>
<event>
 8    1  0.1079508E+005  0.1043930E+01  0.7957747E-01            NaN
         13   -1    0    0    0    0  0.00000000000E+00  0.00000000000E+00  0.74505805969E-08  0.10566000000E+00  0.10566000000E+00 0. -1.
     999900   -1    0    0    0    0 -0.00000000000E+00 -0.00000000000E+00 -0.74505805969E-08  0.93827000000E+00  0.93827000000E+00 0. -1.
     999902    2    1    2    0    0 -0.61441109404E-02 -0.28609607381E-01  0.62021394009E-02  0.10140180247E+01  0.10135767500E+01 0.  0.
     999903    2    3    3    0    0  0.15501191767E-01  0.11876967535E+00  0.47749378378E-02  0.12149844003E+00  0.19812828394E-01 0.  0.
         14    1    1    2    0    0  0.61441109404E-02  0.28609607381E-01 -0.62021394009E-02  0.29911975310E-01  0.00000000000E+00 0.  1.
     999901    1    3    3    0    0 -0.21645302707E-01 -0.14737928273E+00  0.14272015631E-02  0.89251958467E+00  0.88000000000E+00 0.  1.
        -11    1    4    4    0    0  0.66619325903E-02  0.10144256285E+00  0.94433347572E-03  0.10166674869E+00  0.51100000000E-03 0.  1.
         11    1    4    4    0    0  0.88392591765E-02  0.17327112501E-01  0.38306043620E-02  0.19831691335E-01  0.51100000000E-03 0. -1.
</event>
<event>
 8    1  0.1079508E+005  0.1043930E+01  0.7957747E-01            NaN
         13   -1    0    0    0    0  0.00000000000E+00  0.00000000000E+00  0.74505805969E-08  0.10566000000E+00  0.10566000000E+00 0.  1.
     999900   -1    0    0    0    0 -0.00000000000E+00 -0.00000000000E+00 -0.74505805969E-08  0.93827000000E+00  0.93827000000E+00 0.  1.
     999902    2    1    2    0    0  0.23367014424E-01 -0.38157126540E-02 -0.20475473467E-02  0.10201651209E+01  0.10198882804E+01 0.  0.
     999903    2    3    3    0    0 -0.70959324340E-02 -0.77522109483E-02  0.12842428110E+00  0.13001547894E+00  0.17343003073E-01 0.  0.
         14    1    1    2    0    0 -0.23367014424E-01  0.38157126540E-02  0.20475473467E-02  0.23764879050E-01  0.00000000000E+00 0.  1.
     999901    1    3    3    0    0  0.30462946858E-01  0.39364982943E-02 -0.13047182845E+00  0.89014964201E+00  0.88000000000E+00 0.  1.
        -11    1    4    4    0    0  0.31917451311E-02 -0.77880632171E-02  0.33956656046E-01  0.34987951876E-01  0.51100000000E-03 0.  1.
         11    1    4    4    0    0 -0.10287677565E-01  0.35852268823E-04  0.94467625057E-01  0.95027527064E-01  0.51100000000E-03 0. -1.
</event>
<event>
 8    1  0.1079508E+005  0.1043930E+01  0.7957747E-01            NaN
         13   -1    0    0    0    0  0.00000000000E+00  0.00000000000E+00  0.74505805969E-08  0.10566000000E+00  0.10566000000E+00 0. -1.
     999900   -1    0    0    0    0 -0.00000000000E+00 -0.00000000000E+00 -0.74505805969E-08  0.93827000000E+00  0.93827000000E+00 0.  1.
     999902    2    1    2    0    0  0.14173655588E-01 -0.18628302318E-01 -0.34288547131E-02  0.10202727980E+01  0.10199984898E+01 0.  0.
     999903    2    3    3    0    0  0.11076058041E+00 -0.29830900636E-01 -0.63039836280E-01  0.13291266744E+00  0.23107734654E-01 0.  0.
         14    1    1    2    0    0 -0.14173655588E-01  0.18628302318E-01  0.34288547131E-02  0.23657201961E-01  0.00000000000E+00 0.  1.
     999901    1    3    3    0    0 -0.96586924826E-01  0.11202598318E-01  0.59610981567E-01  0.88736013060E+00  0.88000000000E+00 0. -1.
        -11    1    4    4    0    0  0.79455164761E-01 -0.10423909835E-01 -0.41612929143E-01  0.90297719220E-01  0.51100000000E-03 0.  1.
         11    1    4    4    0    0  0.31305415653E-01 -0.19406990801E-01 -0.21426907138E-01  0.42614948218E-01  0.51100000000E-03 0. -1.
</event>
<event>
 8    1  0.1079508E+005  0.1043930E+01  0.7957747E-01            NaN
         13   -1    0    0    0    0  0.00000000000E+00  0.00000000000E+00  0.74505805969E-08  0.10566000000E+00  0.10566000000E+00 0.  1.
     999900   -1    0    0    0    0 -0.00000000000E+00 -0.00000000000E+00 -0.74505805969E-08  0.93827000000E+00  0.93827000000E+00 0. -1.
     999902    2    1    2    0    0 -0.74122485766E-02  0.14183386754E-01 -0.16869659885E-01  0.10206771440E+01  0.10204122387E+01 0.  0.
     999903    2    3    3    0    0  0.94503672349E-01  0.79423378904E-02  0.85144474436E-01  0.12891894287E+00  0.19403285435E-01 0.  0.
         14    1    1    2    0    0  0.74122485766E-02 -0.14183386754E-01  0.16869659885E-01  0.23252856027E-01  0.00000000000E+00 0. -1.
     999901    1    3    3    0    0 -0.10191592093E+00  0.62410488641E-02 -0.10201413432E+00  0.89175820110E+00  0.88000000000E+00 0. -1.
        -11    1    4    4    0    0  0.19981627633E-01  0.96334530964E-02  0.21624199921E-01  0.30982834032E-01  0.51100000000E-03 0. -1.
         11    1    4    4    0    0  0.74522044716E-01 -0.16911152061E-02  0.63520274515E-01  0.97936108840E-01  0.51100000000E-03 0.  1.
</event>
<event>
 8    1  0.1079508E+005  0.1043930E+01  0.7957747E-01            NaN
         13   -1    0    0    0    0  0.00000000000E+00  0.00000000000E+00  0.74505805969E-08  0.10566000000E+00  0.10566000000E+00 0. -1.
     999900   -1    0    0    0    0 -0.00000000000E+00 -0.00000000000E+00 -0.74505805969E-08  0.93827000000E+00  0.93827000000E+00 0. -1.
     999902    2    1    2    0    0  0.22562902600E-01 -0.82494896674E-02 -0.21608754866E-02  0.10198093027E+01  0.10195240095E+01 0.  0.
     999903    2    3    3    0    0 -0.31530442097E-01  0.88085267523E-01 -0.86409024300E-01  0.12890850806E+00  0.19942438061E-01 0.  0.
         14    1    1    2    0    0 -0.22562902600E-01  0.82494896674E-02  0.21608754866E-02  0.24120697262E-01  0.00000000000E+00 0. -1.
     999901    1    3    3    0    0  0.54093344697E-01 -0.96334757190E-01  0.84248148813E-01  0.89090079468E+00  0.88000000000E+00 0.  1.
        -11    1    4    4    0    0 -0.15705090833E-01  0.31341285554E-01 -0.44299111462E-01  0.56494233825E-01  0.51100000000E-03 0. -1.
         11    1    4    4    0    0 -0.15825351264E-01  0.56743981969E-01 -0.42109912838E-01  0.72414274232E-01  0.51100000000E-03 0.  1.
</event>
<event>
 8    1  0.1079508E+005  0.1043930E+01  0.7957747E-01            NaN
         13   -1    0    0    0    0  0.00000000000E+00  0.00000000000E+00  0.74505805969E-08  0.10566000000E+00  0.10566000000E+00 0.  1.
     999900   -1    0    0    0    0 -0.00000000000E+00 -0.00000000000E+00 -0.74505805969E-08  0.93827000000E+00  0.93827000000E+00 0. -1.
     999902    2    1    2    0    0 -0.16946681387E-02  0.11684865159E-01  0.20219476942E-01  0.10205155766E+01  0.10202469343E+01 0.  0.
     999903    2    3    3    0    0 -0.43406502348E-02 -0.12474261636E+00  0.29288339136E-01  0.12995299983E+00  0.21222953963E-01 0.  0.
         14    1    1    2    0    0  0.16946681387E-02 -0.11684865159E-01 -0.20219476942E-01  0.23414423369E-01  0.00000000000E+00 0. -1.
     999901    1    3    3    0    0  0.26459820962E-02  0.13642748152E+00 -0.90688621938E-02  0.89056257680E+00  0.88000000000E+00 0.  1.
        -11    1    4    4    0    0 -0.89462377402E-03 -0.94799052613E-01  0.13010056583E-01  0.95693173326E-01  0.51100000000E-03 0. -1.
         11    1    4    4    0    0 -0.34460264608E-02 -0.29943563748E-01  0.16278282553E-01  0.34259826505E-01  0.51100000000E-03 0.  1.
</event>
<event>
 8    1  0.1079508E+005  0.1043930E+01  0.7957747E-01            NaN
         13   -1    0    0    0    0  0.00000000000E+00  0.00000000000E+00  0.74505805969E-08  0.10566000000E+00  0.10566000000E+00 0.  1.
     999900   -1    0    0    0    0 -0.00000000000E+00 -0.00000000000E+00 -0.74505805969E-08  0.93827000000E+00  0.93827000000E+00 0. -1.
     999902    2    1    2    0    0  0.17637866803E-01 -0.20347690577E-01  0.16978583518E-01  0.10120961319E+01  0.10115953663E+01 0.  0.
     999903    2    3    3    0    0 -0.17453204639E-01 -0.86116117493E-01 -0.83710542133E-01  0.12322315491E+00  0.21351604103E-01 0.  0.
         14    1    1    2    0    0 -0.17637866803E-01  0.20347690577E-01 -0.16978583518E-01  0.31833868057E-01  0.00000000000E+00 0. -1.
     999901    1    3    3    0    0  0.35091071442E-01  0.65768426916E-01  0.10068912565E+00  0.88887297703E+00  0.88000000000E+00 0.  1.
        -11    1    4    4    0    0 -0.17971017047E-01 -0.70782210871E-01 -0.57920587071E-01  0.93210162306E-01  0.51100000000E-03 0.  1.
         11    1    4    4    0    0  0.51781240834E-03 -0.15333906622E-01 -0.25789955062E-01  0.30012992605E-01  0.51100000000E-03 0. -1.
</event>
<event>
 8    1  0.1079508E+005  0.1043930E+01  0.7957747E-01            NaN
         13   -1    0    0    0    0  0.00000000000E+00  0.00000000000E+00  0.74505805969E-08  0.10566000000E+00  0.10566000000E+00 0.  1.
     999900   -1    0    0    0    0 -0.00000000000E+00 -0.00000000000E+00 -0.74505805969E-08  0.93827000000E+00  0.93827000000E+00 0.  1.
     999902    2    1    2    0    0  0.20200572179E-02 -0.21536010365E-01 -0.85072940305E-02  0.10206866262E+01  0.10204219394E+01 0.  0.
     999903    2    3    3    0    0 -0.23586531596E-01  0.32731698908E-01 -0.12147575496E+00  0.13143831734E+00  0.29866095062E-01 0.  0.
         14    1    1    2    0    0 -0.20200572179E-02  0.21536010365E-01  0.85072940305E-02  0.23243373794E-01  0.00000000000E+00 0.  1.
     999901    1    3    3    0    0  0.25606588814E-01 -0.54267709272E-01  0.11296846093E+00  0.88924830887E+00  0.88000000000E+00 0. -1.
        -11    1    4    4    0    0 -0.13520431341E-03  0.14638589613E-01 -0.74317380187E-01  0.75747215823E-01  0.51100000000E-03 0. -1.
         11    1    4    4    0    0 -0.23451327283E-01  0.18093109295E-01 -0.47158374777E-01  0.55691101515E-01  0.51100000000E-03 0.  1.
</event>
<event>
 8    1  0.1079508E+005  0.1043930E+01  0.7957747E-01            NaN
         13   -1    0    0    0    0  0.00000000000E+00  0.00000000000E+00  0.74505805969E-08  0.10566000000E+00  0.10566000000E+00 0. -1.
     999900   -1    0    0    0    0 -0.00000000000E+00 -0.00000000000E+00 -0.74505805969E-08  0.93827000000E+00  0.93827000000E+00 0.  1.
     999902    2    1    2    0    0  0.66468384215E-02  0.10882838881E-02  0.21462342355E-01  0.10214356238E+01  0.10211879046E+01 0.  0.
     999903    2    3    3    0    0 -0.40838620638E-02  0.11812995125E+00  0.56867574030E-01  0.13291582643E+00  0.21478655156E-01 0.  0.
         14    1    1    2    0    0 -0.66468384215E-02 -0.10882838881E-02 -0.21462342355E-01  0.22494376235E-01  0.00000000000E+00 0.  1.
     999901    1    3    3    0    0  0.10730700485E-01 -0.11704166736E+00 -0.35405231675E-01  0.88851979734E+00  0.88000000000E+00 0.  1.
        -11    1    4    4    0    0 -0.93349802936E-02  0.81697438388E-01  0.30805088303E-01  0.87811319787E-01  0.51100000000E-03 0. -1.
         11    1    4    4    0    0  0.52511182298E-02  0.36432512860E-01  0.26062485728E-01  0.45104506640E-01  0.51100000000E-03 0.  1.
</event>
<event>
 8    1  0.1079508E+005  0.1043930E+01  0.7957747E-01            NaN
         13   -1    0    0    0    0  0.00000000000E+00  0.00000000000E+00  0.74505805969E-08  0.10566000000E+00  0.10566000000E+00 0.  1.
     999900   -1    0    0    0    0 -0.00000000000E+00 -0.00000000000E+00 -0.74505805969E-08  0.93827000000E+00  0.93827000000E+00 0. -1.
     999902    2    1    2    0    0  0.15514229282E-01  0.17197016085E-01  0.53217877155E-02  0.10201655287E+01  0.10198886978E+01 0.  0.
     999903    2    3    3    0    0 -0.37852993797E-01 -0.15499616956E-01 -0.12067101627E+00  0.12899140599E+00  0.20104760259E-01 0.  0.
         14    1    1    2    0    0 -0.15514229282E-01 -0.17197016085E-01 -0.53217877155E-02  0.23764471316E-01  0.00000000000E+00 0.  1.
     999901    1    3    3    0    0  0.53367223079E-01  0.32696633041E-01  0.12599280399E+00  0.89117412270E+00  0.88000000000E+00 0. -1.
        -11    1    4    4    0    0 -0.16824014272E-01 -0.10838766483E-01 -0.84938809539E-01  0.87266195070E-01  0.51100000000E-03 0.  1.
         11    1    4    4    0    0 -0.21028979525E-01 -0.46608504733E-02 -0.35732206732E-01  0.41725210916E-01  0.51100000000E-03 0. -1.
</event>
<event>
 8    1  0.1079508E+005  0.1043930E+01  0.7957747E-01            NaN
         13   -1    0    0    0    0  0.00000000000E+00  0.00000000000E+00  0.74505805969E-08  0.10566000000E+00  0.10566000000E+00 0. -1.
     999900   -1    0    0    0    0 -0.00000000000E+00 -0.00000000000E+00 -0.74505805969E-08  0.93827000000E+00  0.93827000000E+00 0. -1.
     999902    2    1    2    0    0  0.46847815274E-02  0.21418181663E-01  0.89608516215E-02  0.10202449299E+01  0.10199699674E+01 0.  0.
     999903    2    3    3    0    0  0.17356396824E-01 -0.15897056106E-01  0.12775805992E+00  0.13138848845E+00  0.19668556621E-01 0.  0.
         14    1    1    2    0    0 -0.46847815274E-02 -0.21418181663E-01 -0.89608516215E-02  0.23685070097E-01  0.00000000000E+00 0.  1.
     999901    1    3    3    0    0 -0.12671615297E-01  0.37315237769E-01 -0.11879720830E+00  0.88885644145E+00  0.88000000000E+00 0. -1.
        -11    1    4    4    0    0 -0.15228619798E-02 -0.61414644950E-02  0.60961586797E-01  0.61291213730E-01  0.51100000000E-03 0. -1.
         11    1    4    4    0    0  0.18879258804E-01 -0.97555916110E-02  0.66796473126E-01  0.70097274724E-01  0.51100000000E-03 0.  1.
</event>
<event>
 8    1  0.1079508E+005  0.1043930E+01  0.7957747E-01            NaN
         13   -1    0    0    0    0  0.00000000000E+00  0.00000000000E+00  0.74505805969E-08  0.10566000000E+00  0.10566000000E+00 0.  1.
     999900   -1    0    0    0    0 -0.00000000000E+00 -0.00000000000E+00 -0.74505805969E-08  0.93827000000E+00  0.93827000000E+00 0.  1.
     999902    2    1    2    0    0 -0.93069810455E-02 -0.14890571007E-01 -0.15720061937E-01  0.10203616028E+01  0.10200893740E+01 0.  0.
     999903    2    3    3    0    0 -0.10472999314E+00 -0.65888140373E-01 -0.45438383473E-01  0.13323732626E+00  0.19440162373E-01 0.  0.
         14    1    1    2    0    0  0.93069810455E-02  0.14890571007E-01  0.15720061937E-01  0.23568397239E-01  0.00000000000E+00 0.  1.
     999901    1    3    3    0    0  0.95423012090E-01  0.50997569366E-01  0.29718321536E-01  0.88712427650E+00  0.88000000000E+00 0.  1.
        -11    1    4    4    0    0 -0.53098888650E-01 -0.31159360818E-01 -0.32726672626E-01  0.69725848611E-01  0.51100000000E-03 0. -1.
         11    1    4    4    0    0 -0.51631104486E-01 -0.34728779555E-01 -0.12711710847E-01  0.63511477652E-01  0.51100000000E-03 0.  1.
</event>
<event>
 8    1  0.1079508E+005  0.1043930E+01  0.7957747E-01            NaN
         13   -1    0    0    0    0  0.00000000000E+00  0.00000000000E+00  0.74505805969E-08  0.10566000000E+00  0.10566000000E+00 0. -1.
     999900   -1    0    0    0    0 -0.00000000000E+00 -0.00000000000E+00 -0.74505805969E-08  0.93827000000E+00  0.93827000000E+00 0. -1.
     999902    2    1    2    0    0  0.71540072721E-02 -0.19680679710E-01 -0.14624008409E-01  0.10183884535E+01  0.10180681076E+01 0.  0.
     999903    2    3    3    0    0 -0.98299624327E-01 -0.33872044632E-01 -0.75215282865E-01  0.12991044829E+00  0.20230033350E-01 0.  0.
         14    1    1    2    0    0 -0.71540072721E-02  0.19680679710E-01  0.14624008409E-01  0.25541546465E-01  0.00000000000E+00 0. -1.
     999901    1    3    3    0    0  0.10545363160E+00  0.14191364922E-01  0.60591274456E-01  0.88847800524E+00  0.88000000000E+00 0.  1.
        -11    1    4    4    0    0 -0.36547535531E-01 -0.19626832970E-01 -0.38875456828E-01  0.56855054220E-01  0.51100000000E-03 0.  1.
         11    1    4    4    0    0 -0.61752088796E-01 -0.14245211661E-01 -0.36339826037E-01  0.73055394074E-01  0.51100000000E-03 0. -1.
</event>
<event>
 8    1  0.1079508E+005  0.1043930E+01  0.7957747E-01            NaN
         13   -1    0    0    0    0  0.00000000000E+00  0.00000000000E+00  0.74505805969E-08  0.10566000000E+00  0.10566000000E+00 0. -1.
     999900   -1    0    0    0    0 -0.00000000000E+00 -0.00000000000E+00 -0.74505805969E-08  0.93827000000E+00  0.93827000000E+00 0. -1.
     999902    2    1    2    0    0  0.87202437265E-02 -0.11643347908E-01  0.18370627432E-01  0.10204973272E+01  0.10202282611E+01 0.  0.
     999903    2    3    3    0    0  0.11987636048E-02 -0.10499816622E-01 -0.12648047743E+00  0.12862305194E+00  0.20854139541E-01 0.  0.
         14    1    1    2    0    0 -0.87202437265E-02  0.11643347908E-01 -0.18370627432E-01  0.23432672776E-01  0.00000000000E+00 0.  1.
     999901    1    3    3    0    0  0.75214801216E-02 -0.11435312868E-02  0.14485110487E+00  0.89187427528E+00  0.88000000000E+00 0.  1.
        -11    1    4    4    0    0  0.99199631769E-02 -0.10081375517E-01 -0.64950359168E-01  0.66474431767E-01  0.51100000000E-03 0. -1.
         11    1    4    4    0    0 -0.87211995721E-02 -0.41844110480E-03 -0.61530118266E-01  0.62148620176E-01  0.51100000000E-03 0.  1.
</event>
<event>
 8    1  0.1079508E+005  0.1043930E+01  0.7957747E-01            NaN
         13   -1    0    0    0    0  0.00000000000E+00  0.00000000000E+00  0.74505805969E-08  0.10566000000E+00  0.10566000000E+00 0. -1.
     999900   -1    0    0    0    0 -0.00000000000E+00 -0.00000000000E+00 -0.74505805969E-08  0.93827000000E+00  0.93827000000E+00 0.  1.
     999902    2    1    2    0    0  0.15464085490E-01  0.15747562280E-01  0.98928918347E-02  0.10197433722E+01  0.10194564984E+01 0.  0.
     999903    2    3    3    0    0  0.92278803603E-01  0.91882449593E-01 -0.15499674600E-01  0.13275870238E+00  0.20660856868E-01 0.  0.
         14    1    1    2    0    0 -0.15464085490E-01 -0.15747562280E-01 -0.98928918347E-02  0.24186627848E-01  0.00000000000E+00 0.  1.
     999901    1    3    3    0    0 -0.76814718113E-01 -0.76134887313E-01  0.25392566435E-01  0.88698466977E+00  0.88000000000E+00 0. -1.
        -11    1    4    4    0    0  0.32266951640E-01  0.44627582139E-01 -0.14500080094E-02  0.55092112865E-01  0.51100000000E-03 0. -1.
         11    1    4    4    0    0  0.60011851963E-01  0.47254867454E-01 -0.14049666591E-01  0.77666589512E-01  0.51100000000E-03 0.  1.
</event>
<event>
 8    1  0.1079508E+005  0.1043930E+01  0.7957747E-01            NaN
         13   -1    0    0    0    0  0.00000000000E+00  0.00000000000E+00  0.74505805969E-08  0.10566000000E+00  0.10566000000E+00 0.  1.
     999900   -1    0    0    0    0 -0.00000000000E+00 -0.00000000000E+00 -0.74505805969E-08  0.93827000000E+00  0.93827000000E+00 0.  1.
     999902    2    1    2    0    0 -0.21708068167E-01 -0.89591490303E-02  0.83444342658E-02  0.10190073966E+01  0.10187025760E+01 0.  0.
     999903    2    3    3    0    0 -0.61209810975E-01 -0.27975743700E-01 -0.10936105487E+00  0.13008861479E+00  0.20830846847E-01 0.  0.
         14    1    1    2    0    0  0.21708068167E-01  0.89591490303E-02 -0.83444342658E-02  0.24922603357E-01  0.00000000000E+00 0. -1.
     999901    1    3    3    0    0  0.39501742808E-01  0.19016594670E-01  0.11770548914E+00  0.88891878185E+00  0.88000000000E+00 0. -1.
        -11    1    4    4    0    0 -0.44050867744E-01 -0.10906440232E-01 -0.80566793702E-01  0.92469988407E-01  0.51100000000E-03 0.  1.
         11    1    4    4    0    0 -0.17158943230E-01 -0.17069303469E-01 -0.28794261169E-01  0.37618626383E-01  0.51100000000E-03 0. -1.
</event>
<event>
 8    1  0.1079508E+005  0.1043930E+01  0.7957747E-01            NaN
         13   -1    0    0    0    0  0.00000000000E+00  0.00000000000E+00  0.74505805969E-08  0.10566000000E+00  0.10566000000E+00 0.  1.
     999900   -1    0    0    0    0 -0.00000000000E+00 -0.00000000000E+00 -0.74505805969E-08  0.93827000000E+00  0.93827000000E+00 0.  1.
     999902    2    1    2    0    0  0.67265393624E-02  0.25162335737E-01  0.97225692824E-03  0.10178659490E+01  0.10175321889E+01 0.  0.
     999903    2    3    3    0    0  0.11635088868E+00  0.43244716001E-01  0.34218378430E-01  0.13025692750E+00  0.19706216801E-01 0.  0.
         14    1    1    2    0    0 -0.67265393624E-02 -0.25162335737E-01 -0.97225692824E-03  0.26064051010E-01  0.00000000000E+00 0.  1.
     999901    1    3    3    0    0 -0.10962434932E+00 -0.18082380264E-01 -0.33246121502E-01  0.88760902149E+00  0.88000000000E+00 0.  1.
        -11    1    4    4    0    0  0.59475646629E-01  0.30069466176E-01  0.24837816387E-01  0.71124563843E-01  0.51100000000E-03 0.  1.
         11    1    4    4    0    0  0.56875242050E-01  0.13175249825E-01  0.93805620427E-02  0.59132363655E-01  0.51100000000E-03 0. -1.
</event>
<event>
 8    1  0.1079508E+005  0.1043930E+01  0.7957747E-01            NaN
         13   -1    0    0    0    0  0.00000000000E+00  0.00000000000E+00  0.74505805969E-08  0.10566000000E+00  0.10566000000E+00 0.  1.
     999900   -1    0    0    0    0 -0.00000000000E+00 -0.00000000000E+00 -0.74505805969E-08  0.93827000000E+00  0.93827000000E+00 0.  1.
     999902    2    1    2    0    0  0.41976739883E-02 -0.73822997355E-02 -0.19798382147E-01  0.10223871415E+01  0.10221601501E+01 0.  0.
     999903    2    3    3    0    0  0.12259221400E+00  0.35635857213E-01 -0.32339007665E-01  0.13332859663E+00  0.20783118383E-01 0.  0.
         14    1    1    2    0    0 -0.41976739883E-02  0.73822997355E-02  0.19798382147E-01  0.21542858490E-01  0.00000000000E+00 0.  1.
     999901    1    3    3    0    0 -0.11839454001E+00 -0.43018156948E-01  0.12540625518E-01  0.88905854488E+00  0.88000000000E+00 0. -1.
        -11    1    4    4    0    0  0.46838072029E-01  0.32719346450E-02 -0.10840722295E-01  0.48190174607E-01  0.51100000000E-03 0.  1.
         11    1    4    4    0    0  0.75754141973E-01  0.32363922568E-01 -0.21498285370E-01  0.85138422025E-01  0.51100000000E-03 0. -1.
</event>
<event>
 8    1  0.1079508E+005  0.1043930E+01  0.7957747E-01            NaN
         13   -1    0    0    0    0  0.00000000000E+00  0.00000000000E+00  0.74505805969E-08  0.10566000000E+00  0.10566000000E+00 0. -1.
     999900   -1    0    0    0    0 -0.00000000000E+00 -0.00000000000E+00 -0.74505805969E-08  0.93827000000E+00  0.93827000000E+00 0.  1.
     999902    2    1    2    0    0  0.11279384468E-01 -0.20093786110E-01 -0.51102243581E-02  0.10203270522E+01  0.10200540153E+01 0.  0.
     999903    2    3    3    0    0  0.12112208733E+00  0.72586334157E-02  0.46731473494E-01  0.13156322758E+00  0.20045060178E-01 0.  0.
         14    1    1    2    0    0 -0.11279384468E-01  0.20093786110E-01  0.51102243581E-02  0.23602947850E-01  0.00000000000E+00 0. -1.
     999901    1    3    3    0    0 -0.10984270287E+00 -0.27352419526E-01 -0.51841697852E-01  0.88876382457E+00  0.88000000000E+00 0. -1.
        -11    1    4    4    0    0  0.23480816032E-01  0.10728132337E-02  0.91530654731E-03  0.23528675204E-01  0.51100000000E-03 0.  1.
         11    1    4    4    0    0  0.97641271301E-01  0.61858201820E-02  0.45816166946E-01  0.10803455238E+00  0.51100000000E-03 0. -1.
</event>
<event>
 8    1  0.1079508E+005  0.1043930E+01  0.7957747E-01            NaN
         13   -1    0    0    0    0  0.00000000000E+00  0.00000000000E+00  0.74505805969E-08  0.10566000000E+00  0.10566000000E+00 0. -1.
     999900   -1    0    0    0    0 -0.00000000000E+00 -0.00000000000E+00 -0.74505805969E-08  0.93827000000E+00  0.93827000000E+00 0. -1.
     999902    2    1    2    0    0  0.52465850120E-02  0.23690824863E-01 -0.14276077505E-02  0.10196232129E+01  0.10193334471E+01 0.  0.
     999903    2    3    3    0    0  0.42503822837E-01 -0.11864673385E+00 -0.30387147419E-02  0.12740649140E+00  0.18427095718E-01 0.  0.
         14    1    1    2    0    0 -0.52465850120E-02 -0.23690824863E-01  0.14276077505E-02  0.24306787135E-01  0.00000000000E+00 0.  1.
     999901    1    3    3    0    0 -0.37257237825E-01  0.14233755871E+00  0.16111069914E-02  0.89221672146E+00  0.88000000000E+00 0.  1.
        -11    1    4    4    0    0  0.16902617038E-01 -0.24382771287E-01  0.18219175222E-03  0.29673427729E-01  0.51100000000E-03 0.  1.
         11    1    4    4    0    0  0.25601205799E-01 -0.94263962558E-01 -0.32209064942E-02  0.97733063674E-01  0.51100000000E-03 0. -1.
</event>
<event>
 8    1  0.1210627E+005  0.1043930E+01  0.7957747E-01            NaN
         13   -1    0    0    0    0  0.00000000000E+00  0.00000000000E+00  0.74505805969E-08  0.10566000000E+00  0.10566000000E+00 0. -1.
     999900   -1    0    0    0    0 -0.00000000000E+00 -0.00000000000E+00 -0.74505805969E-08  0.93827000000E+00  0.93827000000E+00 0.  1.
     999902    2    1    2    0    0  0.17654835568E-01  0.14446596795E-01  0.40954681695E-02  0.10207530667E+01  0.10204899083E+01 0.  0.
     999903    2    3    3    0    0  0.11521860716E+00 -0.60351207279E-01 -0.10192256932E-01  0.13209253527E+00  0.20663013236E-01 0.  0.
         14    1    1    2    0    0 -0.17654835568E-01 -0.14446596795E-01 -0.40954681695E-02  0.23176933305E-01  0.00000000000E+00 0.  1.
     999901    1    3    3    0    0 -0.97563771596E-01  0.74797804074E-01  0.14287725102E-01  0.88866053142E+00  0.88000000000E+00 0.  1.
        -11    1    4    4    0    0  0.47492038875E-01 -0.36379102168E-01 -0.59534939007E-02  0.60121859932E-01  0.51100000000E-03 0.  1.
         11    1    4    4    0    0  0.67726568289E-01 -0.23972105111E-01 -0.42387630318E-02  0.71970675339E-01  0.51100000000E-03 0. -1.
</event>
<event>
 8    1  0.1079508E+005  0.1043930E+01  0.7957747E-01            NaN
         13   -1    0    0    0    0  0.00000000000E+00  0.00000000000E+00  0.74505805969E-08  0.10566000000E+00  0.10566000000E+00 0.  1.
     999900   -1    0    0    0    0 -0.00000000000E+00 -0.00000000000E+00 -0.74505805969E-08  0.93827000000E+00  0.93827000000E+00 0.  1.
     999902    2    1    2    0    0 -0.13141920081E-01  0.18681927010E-01 -0.61157774105E-02  0.10202841295E+01  0.10200100870E+01 0.  0.
     999903    2    3    3    0    0 -0.75005270444E-01 -0.40090329171E-01  0.96530563409E-01  0.13021810747E+00  0.20139035588E-01 0.  0.
         14    1    1    2    0    0  0.13141920081E-01 -0.18681927010E-01  0.61157774105E-02  0.23645870539E-01  0.00000000000E+00 0.  1.
     999901    1    3    3    0    0  0.61863350362E-01  0.58772256181E-01 -0.10264634082E+00  0.89006602199E+00  0.88000000000E+00 0.  1.
        -11    1    4    4    0    0 -0.10387008213E-01 -0.71208534379E-02  0.53325834918E-02  0.13685542043E-01  0.51100000000E-03 0. -1.
         11    1    4    4    0    0 -0.64618262230E-01 -0.32969475733E-01  0.91197979917E-01  0.11653256543E+00  0.51100000000E-03 0.  1.
</event>
<event>
 8    1  0.1079508E+005  0.1043930E+01  0.7957747E-01            NaN
         13   -1    0    0    0    0  0.00000000000E+00  0.00000000000E+00  0.74505805969E-08  0.10566000000E+00  0.10566000000E+00 0.  1.
     999900   -1    0    0    0    0 -0.00000000000E+00 -0.00000000000E+00 -0.74505805969E-08  0.93827000000E+00  0.93827000000E+00 0.  1.
     999902    2    1    2    0    0  0.57099818784E-02  0.46176371616E-02  0.22890938437E-01  0.10198900015E+01  0.10196066367E+01 0.  0.
     999903    2    3    3    0    0  0.12090629141E+00 -0.32292957161E-01  0.35196789097E-01  0.13152970540E+00  0.20002076248E-01 0.  0.
         14    1    1    2    0    0 -0.57099818784E-02 -0.46176371616E-02 -0.22890938437E-01  0.24039998514E-01  0.00000000000E+00 0. -1.
     999901    1    3    3    0    0 -0.11519630953E+00  0.36910594323E-01 -0.12305850660E-01  0.88836029609E+00  0.88000000000E+00 0. -1.
        -11    1    4    4    0    0  0.29009038788E-01 -0.15612399071E-01  0.13733113912E-01  0.35694969882E-01  0.51100000000E-03 0.  1.
         11    1    4    4    0    0  0.91897252625E-01 -0.16680558090E-01  0.21463675185E-01  0.95834735517E-01  0.51100000000E-03 0. -1.
</event>
<event>
 7    1  0.1079508E+005  0.1043930E+01  0.7957747E-01            NaN
         13   -1    0    0    0    0  0.00000000000E+00  0.00000000000E+00  0.74505805969E-08  0.10566000000E+00  0.10566000000E+00 0.  1.
     999900   -1    0    0    0    0 -0.00000000000E+00 -0.00000000000E+00 -0.74505805969E-08  0.93827000000E+00  0.93827000000E+00 0. -1.
     999903    2    1    2    0    0  0.45709738712E-01  0.97115878314E-01  0.26012143718E-01  0.11243922429E+00  0.21096765253E-01 0.  0.
         14    1    1    2    0    0 -0.17124405778E-01  0.35890771988E-01  0.72212683757E-02  0.40417069465E-01  0.00000000000E+00 0. -1.
     999901    1    1    2    0    0 -0.28585332933E-01 -0.13300665030E+00 -0.33233412093E-01  0.89107370625E+00  0.88000000000E+00 0. -1.
        -11    1    3    3    0    0  0.21313130414E-01  0.25742342967E-01  0.29081880992E-02  0.33550505637E-01  0.51100000000E-03 0.  1.
         11    1    3    3    0    0  0.24396608298E-01  0.71373535347E-01  0.23103955618E-01  0.78888718653E-01  0.51100000000E-03 0. -1.
</event>
<event>
 8    1  0.1079508E+005  0.1043930E+01  0.7957747E-01            NaN
         13   -1    0    0    0    0  0.00000000000E+00  0.00000000000E+00  0.74505805969E-08  0.10566000000E+00  0.10566000000E+00 0.  1.
     999900   -1    0    0    0    0 -0.00000000000E+00 -0.00000000000E+00 -0.74505805969E-08  0.93827000000E+00  0.93827000000E+00 0.  1.
     999902    2    1    2    0    0  0.12080680776E-01 -0.62243033146E-02 -0.19230635491E-01  0.10203821309E+01  0.10201103817E+01 0.  0.
     999903    2    3    3    0    0 -0.57310263322E-02  0.12408695661E+00 -0.33307624375E-01  0.13049649608E+00  0.22125103046E-01 0.  0.
         14    1    1    2    0    0 -0.12080680776E-01  0.62243033146E-02  0.19230635491E-01  0.23547869142E-01  0.00000000000E+00 0.  1.
     999901    1    3    3    0    0  0.17811707108E-01 -0.13031125992E+00  0.14076988884E-01  0.88988563478E+00  0.88000000000E+00 0. -1.
        -11    1    4    4    0    0 -0.52032939769E-02  0.13929147241E-01  0.15358251985E-02  0.14957115066E-01  0.51100000000E-03 0.  1.
         11    1    4    4    0    0 -0.52773235536E-03  0.11015780936E+00 -0.34843449573E-01  0.11553938101E+00  0.51100000000E-03 0. -1.
</event>
<event>
 8    1  0.1079508E+005  0.1043930E+01  0.7957747E-01            NaN
         13   -1    0    0    0    0  0.00000000000E+00  0.00000000000E+00  0.74505805969E-08  0.10566000000E+00  0.10566000000E+00 0. -1.
     999900   -1    0    0    0    0 -0.00000000000E+00 -0.00000000000E+00 -0.74505805969E-08  0.93827000000E+00  0.93827000000E+00 0. -1.
     999902    2    1    2    0    0 -0.11908973592E-01 -0.57537434808E-02 -0.20139757380E-01  0.10198356222E+01  0.10195509586E+01 0.  0.
     999903    2    3    3    0    0 -0.65919215474E-01 -0.80242989762E-01 -0.80733531739E-01  0.13296620701E+00  0.19437815854E-01 0.  0.
         14    1    1    2    0    0  0.11908973592E-01  0.57537434808E-02  0.20139757380E-01  0.24094377838E-01  0.00000000000E+00 0. -1.
     999901    1    3    3    0    0  0.54010241881E-01  0.74489246282E-01  0.60593774359E-01  0.88686941515E+00  0.88000000000E+00 0.  1.
        -11    1    4    4    0    0 -0.48913224062E-01 -0.45626892136E-01 -0.54981355310E-01  0.86588263216E-01  0.51100000000E-03 0.  1.
         11    1    4    4    0    0 -0.17005991412E-01 -0.34616097626E-01 -0.25752176429E-01  0.46377943795E-01  0.51100000000E-03 0. -1.
</event>
<event>
 8    1  0.1079508E+005  0.1043930E+01  0.7957747E-01            NaN
         13   -1    0    0    0    0  0.00000000000E+00  0.00000000000E+00  0.74505805969E-08  0.10566000000E+00  0.10566000000E+00 0. -1.
     999900   -1    0    0    0    0 -0.00000000000E+00 -0.00000000000E+00 -0.74505805969E-08  0.93827000000E+00  0.93827000000E+00 0.  1.
     999902    2    1    2    0    0 -0.20275427919E-01  0.38261973483E-02 -0.11652852039E-01  0.10202335504E+01  0.10199583205E+01 0.  0.
     999903    2    3    3    0    0 -0.57070296460E-01  0.57518800515E-01  0.10081520766E+00  0.13069107111E+00  0.18735496337E-01 0.  0.
         14    1    1    2    0    0  0.20275427919E-01 -0.38261973483E-02  0.11652852039E-01  0.23696449609E-01  0.00000000000E+00 0. -1.
     999901    1    3    3    0    0  0.36794868541E-01 -0.53692603166E-01 -0.11246805970E+00  0.88954247928E+00  0.88000000000E+00 0.  1.
        -11    1    4    4    0    0 -0.29632317407E-01  0.31013721998E-01  0.38590364832E-01  0.57700975433E-01  0.51100000000E-03 0.  1.
         11    1    4    4    0    0 -0.27437979053E-01  0.26505078517E-01  0.62224842826E-01  0.72990095681E-01  0.51100000000E-03 0. -1.
</event>
<event>
 8    1  0.1079508E+005  0.1043930E+01  0.7957747E-01            NaN
         13   -1    0    0    0    0  0.00000000000E+00  0.00000000000E+00  0.74505805969E-08  0.10566000000E+00  0.10566000000E+00 0. -1.
     999900   -1    0    0    0    0 -0.00000000000E+00 -0.00000000000E+00 -0.74505805969E-08  0.93827000000E+00  0.93827000000E+00 0.  1.
     999902    2    1    2    0    0  0.12097953104E-01 -0.18804486622E-01  0.10741476840E-01  0.10191237808E+01  0.10188218353E+01 0.  0.
     999903    2    3    3    0    0 -0.51663850702E-01 -0.11403702078E+00 -0.31045430315E-01  0.13070892905E+00  0.21152064033E-01 0.  0.
         14    1    1    2    0    0 -0.12097953104E-01  0.18804486622E-01 -0.10741476840E-01  0.24806219202E-01  0.00000000000E+00 0.  1.
     999901    1    3    3    0    0  0.63761803807E-01  0.95232534161E-01  0.41786907155E-01  0.88841485174E+00  0.88000000000E+00 0.  1.
        -11    1    4    4    0    0 -0.17007251711E-01 -0.49906216260E-01 -0.37205814927E-02  0.52858120282E-01  0.51100000000E-03 0.  1.
         11    1    4    4    0    0 -0.34656598991E-01 -0.64130804523E-01 -0.27324848823E-01  0.77850808773E-01  0.51100000000E-03 0. -1.
</event>
<event>
 8    1  0.1079508E+005  0.1043930E+01  0.7957747E-01            NaN
         13   -1    0    0    0    0  0.00000000000E+00  0.00000000000E+00  0.74505805969E-08  0.10566000000E+00  0.10566000000E+00 0.  1.
     999900   -1    0    0    0    0 -0.00000000000E+00 -0.00000000000E+00 -0.74505805969E-08  0.93827000000E+00  0.93827000000E+00 0.  1.
     999902    2    1    2    0    0  0.12666924795E-01  0.11762554137E-01  0.16784672689E-01  0.10198357289E+01  0.10195510679E+01 0.  0.
     999903    2    3    3    0    0 -0.98270317105E-01  0.40803002116E-01  0.73031679233E-01  0.13061463995E+00  0.20115113494E-01 0.  0.
         14    1    1    2    0    0 -0.12666924795E-01 -0.11762554137E-01 -0.16784672689E-01  0.24094271121E-01  0.00000000000E+00 0. -1.
     999901    1    3    3    0    0  0.11093724190E+00 -0.29040447980E-01 -0.56247006544E-01  0.88922108893E+00  0.88000000000E+00 0.  1.
        -11    1    4    4    0    0 -0.62922964843E-01  0.15475905423E-01  0.44050194567E-01  0.78354858915E-01  0.51100000000E-03 0.  1.
         11    1    4    4    0    0 -0.35347352262E-01  0.25327096693E-01  0.28981484666E-01  0.52259781030E-01  0.51100000000E-03 0. -1.
</event>
<event>
 8    1  0.1079508E+005  0.1043930E+01  0.7957747E-01            NaN
         13   -1    0    0    0    0  0.00000000000E+00  0.00000000000E+00  0.74505805969E-08  0.10566000000E+00  0.10566000000E+00 0. -1.
     999900   -1    0    0    0    0 -0.00000000000E+00 -0.00000000000E+00 -0.74505805969E-08  0.93827000000E+00  0.93827000000E+00 0. -1.
     999902    2    1    2    0    0 -0.17807440321E-01  0.11989369527E-01 -0.53037092227E-03  0.10224560342E+01  0.10222305076E+01 0.  0.
     999903    2    3    3    0    0 -0.10883299364E+00  0.23445129928E-01 -0.73022481992E-01  0.13472184430E+00  0.20576633190E-01 0.  0.
         14    1    1    2    0    0  0.17807440321E-01 -0.11989369527E-01  0.53037092227E-03  0.21473965767E-01  0.00000000000E+00 0.  1.
     999901    1    3    3    0    0  0.91025553322E-01 -0.11455760401E-01  0.72492111069E-01  0.88773418993E+00  0.88000000000E+00 0.  1.
        -11    1    4    4    0    0 -0.43256282373E-01  0.10728201234E-01 -0.17582759647E-01  0.47912574802E-01  0.51100000000E-03 0.  1.
         11    1    4    4    0    0 -0.65576711271E-01  0.12716928694E-01 -0.55439722345E-01  0.86809269500E-01  0.51100000000E-03 0. -1.
</event>
<event>
 8    1  0.1079508E+005  0.1043930E+01  0.7957747E-01            NaN
         13   -1    0    0    0    0  0.00000000000E+00  0.00000000000E+00  0.74505805969E-08  0.10566000000E+00  0.10566000000E+00 0. -1.
     999900   -1    0    0    0    0 -0.00000000000E+00 -0.00000000000E+00 -0.74505805969E-08  0.93827000000E+00  0.93827000000E+00 0. -1.
     999902    2    1    2    0    0  0.21201632663E-01  0.59483495509E-02 -0.14619920764E-01  0.10174983112E+01  0.10171549435E+01 0.  0.
     999903    2    3    3    0    0  0.44384452130E-01 -0.24505349310E-01 -0.11864099062E+00  0.13054551997E+00  0.19898653058E-01 0.  0.
         14    1    1    2    0    0 -0.21201632663E-01 -0.59483495509E-02  0.14619920764E-01  0.26431688805E-01  0.00000000000E+00 0. -1.
     999901    1    3    3    0    0 -0.23182819467E-01  0.30453698861E-01  0.10402106985E+00  0.88695279123E+00  0.88000000000E+00 0.  1.
        -11    1    4    4    0    0  0.41149996475E-01 -0.15586649357E-01 -0.86808556007E-01  0.97325496993E-01  0.51100000000E-03 0.  1.
         11    1    4    4    0    0  0.32344556557E-02 -0.89186999529E-02 -0.31832434609E-01  0.33220022974E-01  0.51100000000E-03 0. -1.
</event>
<event>
 8    1  0.1079508E+005  0.1043930E+01  0.7957747E-01            NaN
         13   -1    0    0    0    0  0.00000000000E+00  0.00000000000E+00  0.74505805969E-08  0.10566000000E+00  0.10566000000E+00 0. -1.
     999900   -1    0    0    0    0 -0.00000000000E+00 -0.00000000000E+00 -0.74505805969E-08  0.93827000000E+00  0.93827000000E+00 0.  1.
     999902    2    1    2    0    0  0.10044520620E-01  0.62098268148E-02  0.22920713116E-01  0.10181460237E+01  0.10178194890E+01 0.  0.
     999903    2    3    3    0    0 -0.81968133548E-01 -0.41494617450E-01 -0.83310447364E-01  0.12571837847E+00  0.20588876870E-01 0.  0.
         14    1    1    2    0    0 -0.10044520620E-01 -0.62098268148E-02 -0.22920713116E-01  0.25783976290E-01  0.00000000000E+00 0.  1.
     999901    1    3    3    0    0  0.92012654168E-01  0.47704444265E-01  0.10623116048E+00  0.89242764524E+00  0.88000000000E+00 0. -1.
        -11    1    4    4    0    0 -0.45756356279E-01 -0.28948106694E-01 -0.36885610297E-01  0.65516764184E-01  0.51100000000E-03 0.  1.
         11    1    4    4    0    0 -0.36211777269E-01 -0.12546510756E-01 -0.46424837067E-01  0.60201614288E-01  0.51100000000E-03 0. -1.
</event>
<event>
 8    1  0.1079508E+005  0.1043930E+01  0.7957747E-01            NaN
         13   -1    0    0    0    0  0.00000000000E+00  0.00000000000E+00  0.74505805969E-08  0.10566000000E+00  0.10566000000E+00 0. -1.
     999900   -1    0    0    0    0 -0.00000000000E+00 -0.00000000000E+00 -0.74505805969E-08  0.93827000000E+00  0.93827000000E+00 0. -1.
     999902    2    1    2    0    0  0.66804603504E-02 -0.14926235685E-01 -0.18093015206E-01  0.10195419238E+01  0.10192501931E+01 0.  0.
     999903    2    3    3    0    0 -0.42305251556E-01  0.56660135793E-01  0.10352122079E+00  0.12695342344E+00  0.20010578993E-01 0.  0.
         14    1    1    2    0    0 -0.66804603504E-02  0.14926235685E-01  0.18093015206E-01  0.24388076215E-01  0.00000000000E+00 0. -1.
     999901    1    3    3    0    0  0.48985711906E-01 -0.71586371478E-01 -0.12161423600E+00  0.89258850035E+00  0.88000000000E+00 0. -1.
        -11    1    4    4    0    0 -0.39454228244E-01  0.45818898616E-01  0.95960087743E-01  0.11342225160E+00  0.51100000000E-03 0.  1.
         11    1    4    4    0    0 -0.28510233124E-02  0.10841237177E-01  0.75611330480E-02  0.13531171843E-01  0.51100000000E-03 0. -1.
</event>
<event>
 8    1  0.1079508E+005  0.1043930E+01  0.7957747E-01            NaN
         13   -1    0    0    0    0  0.00000000000E+00  0.00000000000E+00  0.74505805969E-08  0.10566000000E+00  0.10566000000E+00 0. -1.
     999900   -1    0    0    0    0 -0.00000000000E+00 -0.00000000000E+00 -0.74505805969E-08  0.93827000000E+00  0.93827000000E+00 0.  1.
     999902    2    1    2    0    0  0.21271256919E-01 -0.10580008249E-01 -0.29758259825E-02  0.10199871830E+01  0.10197061317E+01 0.  0.
     999903    2    3    3    0    0  0.72202361303E-01  0.10135948138E+00 -0.35734922741E-01  0.13083163691E+00  0.18788482348E-01 0.  0.
         14    1    1    2    0    0 -0.21271256919E-01  0.10580008249E-01  0.29758259825E-02  0.23942816996E-01  0.00000000000E+00 0. -1.
     999901    1    3    3    0    0 -0.50931104385E-01 -0.11193948963E+00  0.32759096758E-01  0.88915554610E+00  0.88000000000E+00 0. -1.
        -11    1    4    4    0    0  0.21301156688E-01  0.45376969157E-01 -0.12250353924E-01  0.51605628553E-01  0.51100000000E-03 0.  1.
         11    1    4    4    0    0  0.50901204615E-01  0.55982512225E-01 -0.23484568816E-01  0.79226008355E-01  0.51100000000E-03 0. -1.
</event>
<event>
 8    1  0.1079508E+005  0.1043930E+01  0.7957747E-01            NaN
         13   -1    0    0    0    0  0.00000000000E+00  0.00000000000E+00  0.74505805969E-08  0.10566000000E+00  0.10566000000E+00 0.  1.
     999900   -1    0    0    0    0 -0.00000000000E+00 -0.00000000000E+00 -0.74505805969E-08  0.93827000000E+00  0.93827000000E+00 0.  1.
     999902    2    1    2    0    0 -0.20010674079E-02 -0.39893174710E-03  0.24321441988E-01  0.10195231166E+01  0.10192309303E+01 0.  0.
     999903    2    3    3    0    0 -0.96590442662E-02 -0.12712816795E+00  0.18628513352E-01  0.13039356846E+00  0.20014818587E-01 0.  0.
         14    1    1    2    0    0  0.20010674079E-02  0.39893174710E-03 -0.24321441988E-01  0.24406883408E-01  0.00000000000E+00 0. -1.
     999901    1    3    3    0    0  0.76579768583E-02  0.12672923621E+00  0.56929286365E-02  0.88912954813E+00  0.88000000000E+00 0.  1.
        -11    1    4    4    0    0 -0.12171721242E-01 -0.90143303400E-01  0.57408035925E-02  0.91143753997E-01  0.51100000000E-03 0.  1.
         11    1    4    4    0    0  0.25126769758E-02 -0.36984864555E-01  0.12887709759E-01  0.39249814466E-01  0.51100000000E-03 0. -1.
</event>
<event>
 8    1  0.1079508E+005  0.1043930E+01  0.7957747E-01            NaN
         13   -1    0    0    0    0  0.00000000000E+00  0.00000000000E+00  0.74505805969E-08  0.10566000000E+00  0.10566000000E+00 0. -1.
     999900   -1    0    0    0    0 -0.00000000000E+00 -0.00000000000E+00 -0.74505805969E-08  0.93827000000E+00  0.93827000000E+00 0. -1.
     999902    2    1    2    0    0 -0.20981616284E-01  0.10446685066E-02 -0.11412278513E-01  0.10200226862E+01  0.10197424776E+01 0.  0.
     999903    2    3    3    0    0  0.45432134939E-01  0.11482888805E+00  0.32310785595E-01  0.12914147000E+00  0.19590303546E-01 0.  0.
         14    1    1    2    0    0  0.20981616284E-01 -0.10446685066E-02  0.11412278513E-01  0.23907313840E-01  0.00000000000E+00 0.  1.
     999901    1    3    3    0    0 -0.66413751223E-01 -0.11378421954E+00 -0.43723064108E-01  0.89088121616E+00  0.88000000000E+00 0. -1.
        -11    1    4    4    0    0  0.14561602100E-01  0.43111462981E-01  0.21448929365E-01  0.50308609482E-01  0.51100000000E-03 0. -1.
         11    1    4    4    0    0  0.30870532839E-01  0.71717425067E-01  0.10861856229E-01  0.78832860520E-01  0.51100000000E-03 0.  1.
</event>
<event>
 8    1  0.1079508E+005  0.1043930E+01  0.7957747E-01            NaN
         13   -1    0    0    0    0  0.00000000000E+00  0.00000000000E+00  0.74505805969E-08  0.10566000000E+00  0.10566000000E+00 0.  1.
     999900   -1    0    0    0    0 -0.00000000000E+00 -0.00000000000E+00 -0.74505805969E-08  0.93827000000E+00  0.93827000000E+00 0. -1.
     999902    2    1    2    0    0  0.76854809040E-02  0.13784589030E-01  0.17953427741E-01  0.10200258774E+01  0.10197457445E+01 0.  0.
     999903    2    3    3    0    0  0.37182584266E-01 -0.22054347045E-02 -0.12112412002E+00  0.12847199550E+00  0.21132739115E-01 0.  0.
         14    1    1    2    0    0 -0.76854809040E-02 -0.13784589030E-01 -0.17953427741E-01  0.23904122638E-01  0.00000000000E+00 0. -1.
     999901    1    3    3    0    0 -0.29497103362E-01  0.15990023734E-01  0.13907754776E+00  0.89155388186E+00  0.88000000000E+00 0.  1.
        -11    1    4    4    0    0  0.33303541587E-01 -0.13570786823E-02 -0.73807015337E-01  0.80985827024E-01  0.51100000000E-03 0.  1.
         11    1    4    4    0    0  0.38790426789E-02 -0.84835602220E-03 -0.47317104685E-01  0.47486168479E-01  0.51100000000E-03 0. -1.
</event>
<event>
 8    1  0.1079508E+005  0.1043930E+01  0.7957747E-01            NaN
         13   -1    0    0    0    0  0.00000000000E+00  0.00000000000E+00  0.74505805969E-08  0.10566000000E+00  0.10566000000E+00 0.  1.
     999900   -1    0    0    0    0 -0.00000000000E+00 -0.00000000000E+00 -0.74505805969E-08  0.93827000000E+00  0.93827000000E+00 0. -1.
     999902    2    1    2    0    0  0.61977212584E-02 -0.22038055175E-01 -0.22498259766E-02  0.10209267537E+01  0.10206675693E+01 0.  0.
     999903    2    3    3    0    0  0.83895852536E-01  0.57680918029E-01  0.78535465176E-01  0.13024253491E+00  0.20729115532E-01 0.  0.
         14    1    1    2    0    0 -0.61977212584E-02  0.22038055175E-01  0.22498259766E-02  0.23003246328E-01  0.00000000000E+00 0.  1.
     999901    1    3    3    0    0 -0.77698131278E-01 -0.79718973204E-01 -0.80785291153E-01  0.89068421877E+00  0.88000000000E+00 0. -1.
        -11    1    4    4    0    0  0.28022355497E-01  0.93984816454E-02  0.16877650594E-01  0.34039683832E-01  0.51100000000E-03 0. -1.
         11    1    4    4    0    0  0.55873497039E-01  0.48282436383E-01  0.61657814583E-01  0.96202851073E-01  0.51100000000E-03 0.  1.
</event>
<event>
 8    1  0.1079508E+005  0.1043930E+01  0.7957747E-01            NaN
         13   -1    0    0    0    0  0.00000000000E+00  0.00000000000E+00  0.74505805969E-08  0.10566000000E+00  0.10566000000E+00 0.  1.
     999900   -1    0    0    0    0 -0.00000000000E+00 -0.00000000000E+00 -0.74505805969E-08  0.93827000000E+00  0.93827000000E+00 0.  1.
     999902    2    1    2    0    0  0.18433666814E-01 -0.57089009922E-02 -0.89063142104E-02  0.10226764343E+01  0.10224555615E+01 0.  0.
     999903    2    3    3    0    0  0.54758509246E-01 -0.99963594400E-01 -0.69181942430E-01  0.13484954082E+00  0.20175305704E-01 0.  0.
         14    1    1    2    0    0 -0.18433666814E-01  0.57089009922E-02  0.89063142104E-02  0.21253565715E-01  0.00000000000E+00 0.  1.
     999901    1    3    3    0    0 -0.36324842431E-01  0.94254693408E-01  0.60275628220E-01  0.88782689347E+00  0.88000000000E+00 0. -1.
        -11    1    4    4    0    0  0.38702798136E-01 -0.53114859804E-01 -0.33194102219E-01  0.73628828992E-01  0.51100000000E-03 0.  1.
         11    1    4    4    0    0  0.16055711110E-01 -0.46848734596E-01 -0.35987840211E-01  0.61220711826E-01  0.51100000000E-03 0. -1.
</event>
<event>
 8    1  0.1079508E+005  0.1043930E+01  0.7957747E-01            NaN
         13   -1    0    0    0    0  0.00000000000E+00  0.00000000000E+00  0.74505805969E-08  0.10566000000E+00  0.10566000000E+00 0.  1.
     999900   -1    0    0    0    0 -0.00000000000E+00 -0.00000000000E+00 -0.74505805969E-08  0.93827000000E+00  0.93827000000E+00 0.  1.
     999902    2    1    2    0    0  0.22890731058E-01  0.14741765181E-03 -0.18610257668E-02  0.10209632693E+01  0.10207049165E+01 0.  0.
     999903    2    3    3    0    0  0.10481033029E+00  0.60695249141E-01 -0.52847860416E-01  0.13362087886E+00  0.19812226357E-01 0.  0.
         14    1    1    2    0    0 -0.22890731058E-01 -0.14741765181E-03  0.18610257668E-02  0.22966730660E-01  0.00000000000E+00 0. -1.
     999901    1    3    3    0    0 -0.81919599230E-01 -0.60547831489E-01  0.50986834649E-01  0.88734239048E+00  0.88000000000E+00 0. -1.
        -11    1    4    4    0    0  0.57724789866E-01  0.25286438003E-01 -0.19749904949E-01  0.66044493930E-01  0.51100000000E-03 0.  1.
         11    1    4    4    0    0  0.47085540422E-01  0.35408811139E-01 -0.33097955467E-01  0.67576384929E-01  0.51100000000E-03 0. -1.
</event>
<event>
 8    1  0.1079508E+005  0.1043930E+01  0.7957747E-01            NaN
         13   -1    0    0    0    0  0.00000000000E+00  0.00000000000E+00  0.74505805969E-08  0.10566000000E+00  0.10566000000E+00 0.  1.
     999900   -1    0    0    0    0 -0.00000000000E+00 -0.00000000000E+00 -0.74505805969E-08  0.93827000000E+00  0.93827000000E+00 0.  1.
     999902    2    1    2    0    0  0.19419776435E-01 -0.11721167317E-01 -0.34449846286E-02  0.10209869967E+01  0.10207291835E+01 0.  0.
     999903    2    3    3    0    0  0.38652660966E-01 -0.12290415052E+00 -0.28491241616E-01  0.13342918194E+00  0.19802457684E-01 0.  0.
         14    1    1    2    0    0 -0.19419776435E-01  0.11721167317E-01  0.34449846286E-02  0.22943003272E-01  0.00000000000E+00 0.  1.
     999901    1    3    3    0    0 -0.19232884531E-01  0.11118298320E+00  0.25046256987E-01  0.88755781479E+00  0.88000000000E+00 0. -1.
        -11    1    4    4    0    0  0.19455383474E-01 -0.70375238706E-01 -0.25780117713E-01  0.77434241517E-01  0.51100000000E-03 0. -1.
         11    1    4    4    0    0  0.19197277491E-01 -0.52528911812E-01 -0.27111239030E-02  0.55994940424E-01  0.51100000000E-03 0.  1.
</event>
<event>
 8    1  0.1079508E+005  0.1043930E+01  0.7957747E-01            NaN
         13   -1    0    0    0    0  0.00000000000E+00  0.00000000000E+00  0.74505805969E-08  0.10566000000E+00  0.10566000000E+00 0. -1.
     999900   -1    0    0    0    0 -0.00000000000E+00 -0.00000000000E+00 -0.74505805969E-08  0.93827000000E+00  0.93827000000E+00 0. -1.
     999902    2    1    2    0    0 -0.62961533284E-02  0.58847314820E-02  0.21928267460E-01  0.10203690042E+01  0.10200969484E+01 0.  0.
     999903    2    3    3    0    0 -0.11390307247E+00  0.34307292895E-01  0.55482476198E-01  0.13272438159E+00  0.19661028475E-01 0.  0.
         14    1    1    2    0    0  0.62961533284E-02 -0.58847314820E-02 -0.21928267460E-01  0.23560995844E-01  0.00000000000E+00 0.  1.
     999901    1    3    3    0    0  0.10760691914E+00 -0.28422561413E-01 -0.33554208738E-01  0.88764462256E+00  0.88000000000E+00 0.  1.
        -11    1    4    4    0    0 -0.57273112416E-01  0.18727912476E-01  0.17394063348E-01  0.62719683292E-01  0.51100000000E-03 0.  1.
         11    1    4    4    0    0 -0.56629960051E-01  0.15579380419E-01  0.38088412850E-01  0.70004698300E-01  0.51100000000E-03 0. -1.
</event>
<event>
 8    1  0.1079508E+005  0.1043930E+01  0.7957747E-01            NaN
         13   -1    0    0    0    0  0.00000000000E+00  0.00000000000E+00  0.74505805969E-08  0.10566000000E+00  0.10566000000E+00 0.  1.
     999900   -1    0    0    0    0 -0.00000000000E+00 -0.00000000000E+00 -0.74505805969E-08  0.93827000000E+00  0.93827000000E+00 0.  1.
     999902    2    1    2    0    0  0.18271755272E-01 -0.44221593757E-02 -0.11405198636E-01  0.10219415692E+01  0.10217049866E+01 0.  0.
     999903    2    3    3    0    0 -0.42386047370E-01 -0.83472875782E-01 -0.91865640085E-01  0.13267093128E+00  0.19949490590E-01 0.  0.
         14    1    1    2    0    0 -0.18271755272E-01  0.44221593757E-02  0.11405198636E-01  0.21988430826E-01  0.00000000000E+00 0.  1.
     999901    1    3    3    0    0  0.60657802642E-01  0.79050716407E-01  0.80460441449E-01  0.88927063790E+00  0.88000000000E+00 0. -1.
        -11    1    4    4    0    0 -0.11557724837E-01 -0.44518529131E-01 -0.42185371212E-01  0.62412715889E-01  0.51100000000E-03 0. -1.
         11    1    4    4    0    0 -0.30828322533E-01 -0.38954346651E-01 -0.49680268873E-01  0.70258215388E-01  0.51100000000E-03 0.  1.
</event>
<event>
 8    1  0.1079508E+005  0.1043930E+01  0.7957747E-01            NaN
         13   -1    0    0    0    0  0.00000000000E+00  0.00000000000E+00  0.74505805969E-08  0.10566000000E+00  0.10566000000E+00 0. -1.
     999900   -1    0    0    0    0 -0.00000000000E+00 -0.00000000000E+00 -0.74505805969E-08  0.93827000000E+00  0.93827000000E+00 0.  1.
     999902    2    1    2    0    0 -0.19980984545E-01  0.12202585327E-01 -0.35629511348E-02  0.10202479931E+01  0.10199731025E+01 0.  0.
     999903    2    3    3    0    0 -0.10213203409E+00 -0.32473611458E-01 -0.75260871786E-01  0.13239364164E+00  0.19452241438E-01 0.  0.
         14    1    1    2    0    0  0.19980984545E-01 -0.12202585327E-01  0.35629511348E-02  0.23682006943E-01  0.00000000000E+00 0.  1.
     999901    1    3    3    0    0  0.82151049544E-01  0.44676196785E-01  0.71697920651E-01  0.88785435141E+00  0.88000000000E+00 0. -1.
        -11    1    4    4    0    0 -0.85554748566E-01 -0.29938087380E-01 -0.54750617773E-01  0.10589520927E+00  0.51100000000E-03 0. -1.
         11    1    4    4    0    0 -0.16577285523E-01 -0.25355240780E-02 -0.20510254013E-01  0.26498432375E-01  0.51100000000E-03 0.  1.
</event>
<event>
 8    1  0.1079508E+005  0.1043930E+01  0.7957747E-01            NaN
         13   -1    0    0    0    0  0.00000000000E+00  0.00000000000E+00  0.74505805969E-08  0.10566000000E+00  0.10566000000E+00 0. -1.
     999900   -1    0    0    0    0 -0.00000000000E+00 -0.00000000000E+00 -0.74505805969E-08  0.93827000000E+00  0.93827000000E+00 0.  1.
     999902    2    1    2    0    0 -0.18411568135E-01  0.83822866000E-02 -0.11840536865E-01  0.10204897167E+01  0.10202204737E+01 0.  0.
     999903    2    3    3    0    0 -0.28623785597E-01 -0.65035060421E-01  0.10625957348E+00  0.12951158433E+00  0.20815218770E-01 0.  0.
         14    1    1    2    0    0  0.18411568135E-01 -0.83822866000E-02  0.11840536865E-01  0.23440283341E-01  0.00000000000E+00 0. -1.
     999901    1    3    3    0    0  0.10212217461E-01  0.73417347021E-01 -0.11810011035E+00  0.89097813233E+00  0.88000000000E+00 0.  1.
        -11    1    4    4    0    0 -0.16267339955E-02  0.14772523202E-02  0.33667424516E-02  0.40527291600E-02  0.51100000000E-03 0. -1.
         11    1    4    4    0    0 -0.26997051601E-01 -0.66512312741E-01  0.10289283103E+00  0.12545885517E+00  0.51100000000E-03 0.  1.
</event>
<event>
 8    1  0.1079508E+005  0.1043930E+01  0.7957747E-01            NaN
         13   -1    0    0    0    0  0.00000000000E+00  0.00000000000E+00  0.74505805969E-08  0.10566000000E+00  0.10566000000E+00 0. -1.
     999900   -1    0    0    0    0 -0.00000000000E+00 -0.00000000000E+00 -0.74505805969E-08  0.93827000000E+00  0.93827000000E+00 0. -1.
     999902    2    1    2    0    0 -0.14252438978E-01  0.13220923333E-01 -0.15573796787E-01  0.10190208054E+01  0.10187163166E+01 0.  0.
     999903    2    3    3    0    0 -0.11500593215E+00 -0.26259696550E-01 -0.54815129021E-01  0.13152440094E+00  0.19443085655E-01 0.  0.
         14    1    1    2    0    0  0.14252438978E-01 -0.13220923333E-01  0.15573796787E-01  0.24909194627E-01  0.00000000000E+00 0.  1.
     999901    1    3    3    0    0  0.10075349317E+00  0.39480619882E-01  0.39241332233E-01  0.88749640444E+00  0.88000000000E+00 0. -1.
        -11    1    4    4    0    0 -0.65823258831E-01 -0.51414628782E-02 -0.30828481050E-01  0.72868322394E-01  0.51100000000E-03 0. -1.
         11    1    4    4    0    0 -0.49182673318E-01 -0.21118233671E-01 -0.23986647971E-01  0.58656078542E-01  0.51100000000E-03 0.  1.
</event>
<event>
 8    1  0.1079508E+005  0.1043930E+01  0.7957747E-01            NaN
         13   -1    0    0    0    0  0.00000000000E+00  0.00000000000E+00  0.74505805969E-08  0.10566000000E+00  0.10566000000E+00 0. -1.
     999900   -1    0    0    0    0 -0.00000000000E+00 -0.00000000000E+00 -0.74505805969E-08  0.93827000000E+00  0.93827000000E+00 0.  1.
     999902    2    1    2    0    0 -0.22093108791E-01 -0.61722623614E-02  0.64125467529E-02  0.10201114561E+01  0.10198333490E+01 0.  0.
     999903    2    3    3    0    0 -0.70910410812E-01 -0.10705804974E+00  0.27769170715E-01  0.13274615562E+00  0.18992172403E-01 0.  0.
         14    1    1    2    0    0  0.22093108791E-01  0.61722623614E-02 -0.64125467529E-02  0.23818543922E-01  0.00000000000E+00 0.  1.
     999901    1    3    3    0    0  0.48817302021E-01  0.10088578738E+00 -0.21356623963E-01  0.88736530046E+00  0.88000000000E+00 0. -1.
        -11    1    4    4    0    0 -0.59533968654E-01 -0.74856356413E-01  0.21102071442E-01  0.97945525979E-01  0.51100000000E-03 0.  1.
         11    1    4    4    0    0 -0.11376442158E-01 -0.32201693331E-01  0.66670992739E-02  0.34800629639E-01  0.51100000000E-03 0. -1.
</event>
<event>
 8    1  0.1079508E+005  0.1043930E+01  0.7957747E-01            NaN
         13   -1    0    0    0    0  0.00000000000E+00  0.00000000000E+00  0.74505805969E-08  0.10566000000E+00  0.10566000000E+00 0.  1.
     999900   -1    0    0    0    0 -0.00000000000E+00 -0.00000000000E+00 -0.74505805969E-08  0.93827000000E+00  0.93827000000E+00 0.  1.
     999902    2    1    2    0    0 -0.11330119927E-01  0.24099707195E-02  0.20653138721E-01  0.10202502256E+01  0.10199753875E+01 0.  0.
     999903    2    3    3    0    0  0.22172866583E-01 -0.83412610912E-01 -0.92707591373E-01  0.12820839881E+00  0.19834221826E-01 0.  0.
         14    1    1    2    0    0  0.11330119927E-01 -0.24099707195E-02 -0.20653138721E-01  0.23679774396E-01  0.00000000000E+00 0. -1.
     999901    1    3    3    0    0 -0.33502986509E-01  0.85822581631E-01  0.11336073009E+00  0.89204182679E+00  0.88000000000E+00 0. -1.
        -11    1    4    4    0    0 -0.26392544752E-04 -0.32989877829E-01 -0.41230797896E-01  0.52806936588E-01  0.51100000000E-03 0.  1.
         11    1    4    4    0    0  0.22199259127E-01 -0.50422733083E-01 -0.51476793478E-01  0.75401462222E-01  0.51100000000E-03 0. -1.
</event>
<event>
 8    1  0.1079508E+005  0.1043930E+01  0.7957747E-01            NaN
         13   -1    0    0    0    0  0.00000000000E+00  0.00000000000E+00  0.74505805969E-08  0.10566000000E+00  0.10566000000E+00 0.  1.
     999900   -1    0    0    0    0 -0.00000000000E+00 -0.00000000000E+00 -0.74505805969E-08  0.93827000000E+00  0.93827000000E+00 0.  1.
     999902    2    1    2    0    0  0.10412046463E-01 -0.19157474137E-01 -0.10336204985E-01  0.10198000050E+01  0.10195144891E+01 0.  0.
     999903    2    3    3    0    0  0.97550117031E-01  0.81876931178E-01 -0.14310856264E-01  0.12973439376E+00  0.20158252031E-01 0.  0.
         14    1    1    2    0    0 -0.10412046463E-01  0.19157474137E-01  0.10336204985E-01  0.24129995035E-01  0.00000000000E+00 0. -1.
     999901    1    3    3    0    0 -0.87138070568E-01 -0.10103440532E+00  0.39746512791E-02  0.89006561121E+00  0.88000000000E+00 0. -1.
        -11    1    4    4    0    0  0.56490440534E-01  0.39442066858E-01 -0.15711753092E-01  0.70668004188E-01  0.51100000000E-03 0. -1.
         11    1    4    4    0    0  0.41059676498E-01  0.42434864320E-01  0.14008968279E-02  0.59066389570E-01  0.51100000000E-03 0.  1.
</event>
<event>
 8    1  0.1079508E+005  0.1043930E+01  0.7957747E-01            NaN
         13   -1    0    0    0    0  0.00000000000E+00  0.00000000000E+00  0.74505805969E-08  0.10566000000E+00  0.10566000000E+00 0. -1.
     999900   -1    0    0    0    0 -0.00000000000E+00 -0.00000000000E+00 -0.74505805969E-08  0.93827000000E+00  0.93827000000E+00 0. -1.
     999902    2    1    2    0    0  0.15800576137E-02 -0.20758099365E-01 -0.12319583989E-01  0.10197397660E+01  0.10194528056E+01 0.  0.
     999903    2    3    3    0    0  0.23864014909E-01 -0.30905500067E-01 -0.12473108265E+00  0.13225123676E+00  0.20196670641E-01 0.  0.
         14    1    1    2    0    0 -0.15800576137E-02  0.20758099365E-01  0.12319583989E-01  0.24190234000E-01  0.00000000000E+00 0. -1.
     999901    1    3    3    0    0 -0.22283957295E-01  0.10147400702E-01  0.11241149866E+00  0.88748852924E+00  0.88000000000E+00 0.  1.
        -11    1    4    4    0    0  0.24020267962E-01 -0.16640048700E-01 -0.74381767795E-01  0.79917288462E-01  0.51100000000E-03 0. -1.
         11    1    4    4    0    0 -0.15625305367E-03 -0.14265451367E-01 -0.50349314853E-01  0.52333948302E-01  0.51100000000E-03 0.  1.
</event>
<event>
 8    1  0.1079508E+005  0.1043930E+01  0.7957747E-01            NaN
         13   -1    0    0    0    0  0.00000000000E+00  0.00000000000E+00  0.74505805969E-08  0.10566000000E+00  0.10566000000E+00 0. -1.
     999900   -1    0    0    0    0 -0.00000000000E+00 -0.00000000000E+00 -0.74505805969E-08  0.93827000000E+00  0.93827000000E+00 0. -1.
     999902    2    1    2    0    0 -0.10451244419E-01 -0.21433753445E-01  0.38417372023E-02  0.10197764652E+01  0.10194903853E+01 0.  0.
     999903    2    3    3    0    0 -0.10966274222E+00 -0.68599872611E-01 -0.20662572241E-01  0.13260792135E+00  0.20641205375E-01 0.  0.
         14    1    1    2    0    0  0.10451244419E-01  0.21433753445E-01 -0.38417372023E-02  0.24153534759E-01  0.00000000000E+00 0. -1.
     999901    1    3    3    0    0  0.99211497800E-01  0.47166119166E-01  0.24504309444E-01  0.88716854389E+00  0.88000000000E+00 0.  1.
        -11    1    4    4    0    0 -0.49803089399E-01 -0.42773178530E-01 -0.72922077077E-02  0.66055506428E-01  0.51100000000E-03 0. -1.
         11    1    4    4    0    0 -0.59859652819E-01 -0.25826694081E-01 -0.13370364534E-01  0.66552414919E-01  0.51100000000E-03 0.  1.
</event>
<event>
 8    1  0.1079508E+005  0.1043930E+01  0.7957747E-01            NaN
         13   -1    0    0    0    0  0.00000000000E+00  0.00000000000E+00  0.74505805969E-08  0.10566000000E+00  0.10566000000E+00 0.  1.
     999900   -1    0    0    0    0 -0.00000000000E+00 -0.00000000000E+00 -0.74505805969E-08  0.93827000000E+00  0.93827000000E+00 0. -1.
     999902    2    1    2    0    0 -0.21835245029E-01 -0.74591325483E-02  0.60482386000E-02  0.10200763258E+01  0.10197973880E+01 0.  0.
     999903    2    3    3    0    0 -0.18729238765E-01  0.71517436475E-01  0.10611866132E+00  0.13088510043E+00  0.20105002604E-01 0.  0.
         14    1    1    2    0    0  0.21835245029E-01  0.74591325483E-02 -0.60482386000E-02  0.23853674225E-01  0.00000000000E+00 0. -1.
     999901    1    3    3    0    0 -0.31060062642E-02 -0.78976569023E-01 -0.10007042272E+00  0.88919122535E+00  0.88000000000E+00 0. -1.
        -11    1    4    4    0    0 -0.20884786303E-01  0.46607881711E-01  0.63757530590E-01  0.81693039877E-01  0.51100000000E-03 0. -1.
         11    1    4    4    0    0  0.21555475382E-02  0.24909554764E-01  0.42361130729E-01  0.49192060552E-01  0.51100000000E-03 0.  1.
</event>
<event>
 8    1  0.1079508E+005  0.1043930E+01  0.7957747E-01            NaN
         13   -1    0    0    0    0  0.00000000000E+00  0.00000000000E+00  0.74505805969E-08  0.10566000000E+00  0.10566000000E+00 0. -1.
     999900   -1    0    0    0    0 -0.00000000000E+00 -0.00000000000E+00 -0.74505805969E-08  0.93827000000E+00  0.93827000000E+00 0.  1.
     999902    2    1    2    0    0 -0.64538185863E-02 -0.20316159792E-01 -0.30580580979E-02  0.10223951482E+01  0.10221683272E+01 0.  0.
     999903    2    3    3    0    0 -0.37087314106E-01 -0.63911250185E-01 -0.10980170631E+00  0.13434495288E+00  0.23065881511E-01 0.  0.
         14    1    1    2    0    0  0.64538185863E-02  0.20316159792E-01  0.30580580979E-02  0.21534851807E-01  0.00000000000E+00 0.  1.
     999901    1    3    3    0    0  0.30633495520E-01  0.43595090393E-01  0.10674364821E+00  0.88805019531E+00  0.88000000000E+00 0. -1.
        -11    1    4    4    0    0 -0.44917905275E-02 -0.19744918927E-01 -0.16645225870E-01  0.26217602309E-01  0.51100000000E-03 0.  1.
         11    1    4    4    0    0 -0.32595523578E-01 -0.44166331258E-01 -0.93156480436E-01  0.10812735058E+00  0.51100000000E-03 0. -1.
</event>
<event>
 8    1  0.1079508E+005  0.1043930E+01  0.7957747E-01            NaN
         13   -1    0    0    0    0  0.00000000000E+00  0.00000000000E+00  0.74505805969E-08  0.10566000000E+00  0.10566000000E+00 0.  1.
     999900   -1    0    0    0    0 -0.00000000000E+00 -0.00000000000E+00 -0.74505805969E-08  0.93827000000E+00  0.93827000000E+00 0.  1.
     999902    2    1    2    0    0 -0.16309814236E-01  0.55199154415E-02 -0.15886340054E-01  0.10205023388E+01  0.10202333891E+01 0.  0.
     999903    2    3    3    0    0 -0.11061195792E+00  0.39819275802E-01  0.56134815145E-01  0.13187621543E+00  0.20485086353E-01 0.  0.
         14    1    1    2    0    0  0.16309814236E-01 -0.55199154415E-02  0.15886340054E-01  0.23427661155E-01  0.00000000000E+00 0.  1.
     999901    1    3    3    0    0  0.94302143687E-01 -0.34299360360E-01 -0.72021155199E-01  0.88862612342E+00  0.88000000000E+00 0.  1.
        -11    1    4    4    0    0 -0.79123477752E-01  0.37770552586E-01  0.38930115165E-01  0.95932029907E-01  0.51100000000E-03 0. -1.
         11    1    4    4    0    0 -0.31488480171E-01  0.20487232160E-02  0.17204699980E-01  0.35944185520E-01  0.51100000000E-03 0.  1.
</event>
<event>
 8    1  0.1079508E+005  0.1043930E+01  0.7957747E-01            NaN
         13   -1    0    0    0    0  0.00000000000E+00  0.00000000000E+00  0.74505805969E-08  0.10566000000E+00  0.10566000000E+00 0. -1.
     999900   -1    0    0    0    0 -0.00000000000E+00 -0.00000000000E+00 -0.74505805969E-08  0.93827000000E+00  0.93827000000E+00 0.  1.
     999902    2    1    2    0    0  0.16378589802E-01 -0.16723217532E-01 -0.58460875571E-02  0.10198032317E+01  0.10195177931E+01 0.  0.
     999903    2    3    3    0    0 -0.88748727814E-01 -0.90276326300E-01  0.23323751129E-01  0.13002084696E+00  0.18310420490E-01 0.  0.
         14    1    1    2    0    0 -0.16378589802E-01  0.16723217532E-01  0.58460875571E-02  0.24126768293E-01  0.00000000000E+00 0.  1.
     999901    1    3    3    0    0  0.10512731762E+00  0.73553108768E-01 -0.29169838686E-01  0.88978238475E+00  0.88000000000E+00 0.  1.
        -11    1    4    4    0    0 -0.27619865544E-01 -0.40534109282E-01  0.72227902399E-02  0.49581254601E-01  0.51100000000E-03 0.  1.
         11    1    4    4    0    0 -0.61128862269E-01 -0.49742217018E-01  0.16100960889E-01  0.80439592358E-01  0.51100000000E-03 0. -1.
</event>
<event>
 8    1  0.1079508E+005  0.1043930E+01  0.7957747E-01            NaN
         13   -1    0    0    0    0  0.00000000000E+00  0.00000000000E+00  0.74505805969E-08  0.10566000000E+00  0.10566000000E+00 0. -1.
     999900   -1    0    0    0    0 -0.00000000000E+00 -0.00000000000E+00 -0.74505805969E-08  0.93827000000E+00  0.93827000000E+00 0. -1.
     999902    2    1    2    0    0 -0.15388351177E-01  0.17373942011E-01 -0.18916260320E-02  0.10206440931E+01  0.10203784255E+01 0.  0.
     999903    2    3    3    0    0  0.11866462026E+00 -0.27534028373E-01  0.35829498140E-01  0.12856236577E+00  0.20127447333E-01 0.  0.
         14    1    1    2    0    0  0.15388351177E-01 -0.17373942011E-01  0.18916260320E-02  0.23285906939E-01  0.00000000000E+00 0. -1.
     999901    1    3    3    0    0 -0.13405297144E+00  0.44907970384E-01 -0.37721124172E-01  0.89208172729E+00  0.88000000000E+00 0. -1.
        -11    1    4    4    0    0  0.47957106230E-01 -0.87222588532E-02  0.44523851989E-02  0.48949429950E-01  0.51100000000E-03 0. -1.
         11    1    4    4    0    0  0.70707514029E-01 -0.18811769520E-01  0.31377112941E-01  0.79612935822E-01  0.51100000000E-03 0.  1.
</event>
<event>
 8    1  0.1079508E+005  0.1043930E+01  0.7957747E-01            NaN
         13   -1    0    0    0    0  0.00000000000E+00  0.00000000000E+00  0.74505805969E-08  0.10566000000E+00  0.10566000000E+00 0.  1.
     999900   -1    0    0    0    0 -0.00000000000E+00 -0.00000000000E+00 -0.74505805969E-08  0.93827000000E+00  0.93827000000E+00 0.  1.
     999902    2    1    2    0    0 -0.18288454505E-01 -0.10528805887E-01  0.78512440891E-02  0.10214141088E+01  0.10211659103E+01 0.  0.
     999903    2    3    3    0    0 -0.13238182063E-01  0.12680149293E+00  0.20893795869E-01  0.13065307219E+00  0.19488624759E-01 0.  0.
         14    1    1    2    0    0  0.18288454505E-01  0.10528805887E-01 -0.78512440891E-02  0.22515891174E-01  0.00000000000E+00 0. -1.
     999901    1    3    3    0    0 -0.50502724423E-02 -0.13733029881E+00 -0.13042551780E-01  0.89076103663E+00  0.88000000000E+00 0.  1.
        -11    1    4    4    0    0 -0.20102491765E-02  0.95663517393E-01  0.18535843517E-01  0.97464805328E-01  0.51100000000E-03 0.  1.
         11    1    4    4    0    0 -0.11227932886E-01  0.31137975535E-01  0.23579523524E-02  0.33188266866E-01  0.51100000000E-03 0. -1.
</event>
<event>
 8    1  0.1079508E+005  0.1043930E+01  0.7957747E-01            NaN
         13   -1    0    0    0    0  0.00000000000E+00  0.00000000000E+00  0.74505805969E-08  0.10566000000E+00  0.10566000000E+00 0. -1.
     999900   -1    0    0    0    0 -0.00000000000E+00 -0.00000000000E+00 -0.74505805969E-08  0.93827000000E+00  0.93827000000E+00 0.  1.
     999902    2    1    2    0    0  0.23360338159E-01 -0.28538455413E-02  0.20285087162E-02  0.10203087240E+01  0.10200352580E+01 0.  0.
     999903    2    3    3    0    0  0.48509587937E-01  0.10431573160E-01 -0.12050716532E+00  0.13136329341E+00  0.16502730722E-01 0.  0.
         14    1    1    2    0    0 -0.23360338159E-01  0.28538455413E-02 -0.20285087162E-02  0.23621276022E-01  0.00000000000E+00 0.  1.
     999901    1    3    3    0    0 -0.25149249778E-01 -0.13285418701E-01  0.12253567404E+00  0.88894543057E+00  0.88000000000E+00 0. -1.
        -11    1    4    4    0    0  0.20078592501E-01 -0.30537412755E-02 -0.56409440763E-01  0.59956328613E-01  0.51100000000E-03 0. -1.
         11    1    4    4    0    0  0.28430995436E-01  0.13485314435E-01 -0.64097724560E-01  0.71406964798E-01  0.51100000000E-03 0.  1.
</event>
<event>
 8    1  0.1079508E+005  0.1043930E+01  0.7957747E-01            NaN
         13   -1    0    0    0    0  0.00000000000E+00  0.00000000000E+00  0.74505805969E-08  0.10566000000E+00  0.10566000000E+00 0. -1.
     999900   -1    0    0    0    0 -0.00000000000E+00 -0.00000000000E+00 -0.74505805969E-08  0.93827000000E+00  0.93827000000E+00 0. -1.
     999902    2    1    2    0    0  0.78957060724E-02 -0.21860491408E-02  0.23083811041E-01  0.10194354431E+01  0.10191411283E+01 0.  0.
     999903    2    3    3    0    0  0.11444029928E+00 -0.40206975124E-01 -0.41545684512E-01  0.12984322594E+00  0.20494791366E-01 0.  0.
         14    1    1    2    0    0 -0.78957060724E-02  0.21860491408E-02 -0.23083811041E-01  0.24494556893E-01  0.00000000000E+00 0.  1.
     999901    1    3    3    0    0 -0.10654459320E+00  0.38020925983E-01  0.64629495553E-01  0.88959221717E+00  0.88000000000E+00 0. -1.
        -11    1    4    4    0    0  0.73937086203E-01 -0.35640754272E-01 -0.24492388014E-01  0.85656840200E-01  0.51100000000E-03 0.  1.
         11    1    4    4    0    0  0.40503213073E-01 -0.45662208511E-02 -0.17053296498E-01  0.44186385737E-01  0.51100000000E-03 0. -1.
</event>
<event>
 8    1  0.1079508E+005  0.1043930E+01  0.7957747E-01            NaN
         13   -1    0    0    0    0  0.00000000000E+00  0.00000000000E+00  0.74505805969E-08  0.10566000000E+00  0.10566000000E+00 0.  1.
     999900   -1    0    0    0    0 -0.00000000000E+00 -0.00000000000E+00 -0.74505805969E-08  0.93827000000E+00  0.93827000000E+00 0. -1.
     999902    2    1    2    0    0  0.16449225626E-01  0.15165040937E-04  0.20073792103E-01  0.10179774590E+01  0.10176465854E+01 0.  0.
     999903    2    3    3    0    0  0.73913274834E-01  0.74378367971E-01  0.76431161904E-01  0.13118088932E+00  0.19271465830E-01 0.  0.
         14    1    1    2    0    0 -0.16449225626E-01 -0.15165040937E-04 -0.20073792103E-01  0.25952540975E-01  0.00000000000E+00 0. -1.
     999901    1    3    3    0    0 -0.57464049208E-01 -0.74363202930E-01 -0.56357369801E-01  0.88679656970E+00  0.88000000000E+00 0. -1.
        -11    1    4    4    0    0  0.29368095019E-02  0.11203404528E-01  0.81843511051E-02  0.14191048132E-01  0.51100000000E-03 0.  1.
         11    1    4    4    0    0  0.70976465332E-01  0.63174963443E-01  0.68246810799E-01  0.11698984119E+00  0.51100000000E-03 0. -1.
</event>
<event>
 8    1  0.1079508E+005  0.1043930E+01  0.7957747E-01            NaN
         13   -1    0    0    0    0  0.00000000000E+00  0.00000000000E+00  0.74505805969E-08  0.10566000000E+00  0.10566000000E+00 0. -1.
     999900   -1    0    0    0    0 -0.00000000000E+00 -0.00000000000E+00 -0.74505805969E-08  0.93827000000E+00  0.93827000000E+00 0.  1.
     999902    2    1    2    0    0  0.73178631508E-02 -0.20844970538E-01  0.73169333331E-02  0.10206576681E+01  0.10203923138E+01 0.  0.
     999903    2    3    3    0    0  0.30009803158E-01  0.61528296211E-01 -0.10762326665E+00  0.12907955668E+00  0.19810222363E-01 0.  0.
         14    1    1    2    0    0 -0.73178631508E-02  0.20844970538E-01 -0.73169333331E-02  0.23272331882E-01  0.00000000000E+00 0.  1.
     999901    1    3    3    0    0 -0.22691940008E-01 -0.82373266749E-01  0.11494019998E+00  0.89157811143E+00  0.88000000000E+00 0. -1.
        -11    1    4    4    0    0  0.14697863960E-01  0.27638651502E-01 -0.67286249515E-01  0.74213359691E-01  0.51100000000E-03 0. -1.
         11    1    4    4    0    0  0.15311939198E-01  0.33889644709E-01 -0.40337017131E-01  0.54866196993E-01  0.51100000000E-03 0.  1.
</event>
<event>
 8    1  0.1079508E+005  0.1043930E+01  0.7957747E-01            NaN
         13   -1    0    0    0    0  0.00000000000E+00  0.00000000000E+00  0.74505805969E-08  0.10566000000E+00  0.10566000000E+00 0.  1.
     999900   -1    0    0    0    0 -0.00000000000E+00 -0.00000000000E+00 -0.74505805969E-08  0.93827000000E+00  0.93827000000E+00 0.  1.
     999902    2    1    2    0    0 -0.22735117701E-01  0.15923587849E-02  0.12584955169E-01  0.10178953638E+01  0.10175623664E+01 0.  0.
     999903    2    3    3    0    0  0.55010249794E-01  0.31454303768E-01  0.11054222173E+00  0.12855195211E+00  0.17044670655E-01 0.  0.
         14    1    1    2    0    0  0.22735117701E-01 -0.15923587849E-02 -0.12584955169E-01  0.26034636160E-01  0.00000000000E+00 0.  1.
     999901    1    3    3    0    0 -0.77745367494E-01 -0.29861944983E-01 -0.97957266558E-01  0.88934341174E+00  0.88000000000E+00 0. -1.
        -11    1    4    4    0    0  0.22521474673E-01  0.16718943454E-01  0.33827062093E-01  0.43946230128E-01  0.51100000000E-03 0.  1.
         11    1    4    4    0    0  0.32488775121E-01  0.14735360313E-01  0.76715159635E-01  0.84605721977E-01  0.51100000000E-03 0. -1.
</event>
<event>
 8    1  0.1079508E+005  0.1043930E+01  0.7957747E-01            NaN
         13   -1    0    0    0    0  0.00000000000E+00  0.00000000000E+00  0.74505805969E-08  0.10566000000E+00  0.10566000000E+00 0.  1.
     999900   -1    0    0    0    0 -0.00000000000E+00 -0.00000000000E+00 -0.74505805969E-08  0.93827000000E+00  0.93827000000E+00 0.  1.
     999902    2    1    2    0    0 -0.21528805249E-01 -0.58076078426E-02 -0.12616429016E-01  0.10183098508E+01  0.10179875049E+01 0.  0.
     999903    2    3    3    0    0  0.12291062535E+00 -0.13442528884E-01 -0.17758146004E-01  0.12648729087E+00  0.19898733526E-01 0.  0.
         14    1    1    2    0    0  0.21528805249E-01  0.58076078426E-02  0.12616429016E-01  0.25620149207E-01  0.00000000000E+00 0.  1.
     999901    1    3    3    0    0 -0.14443943060E+00  0.76349210414E-02  0.51417169886E-02  0.89182255992E+00  0.88000000000E+00 0.  1.
        -11    1    4    4    0    0  0.76503065842E-01 -0.18005730903E-01 -0.10584251545E-01  0.79304558068E-01  0.51100000000E-03 0.  1.
         11    1    4    4    0    0  0.46407559507E-01  0.45632020194E-02 -0.71738944597E-02  0.47182732803E-01  0.51100000000E-03 0. -1.
</event>
<event>
 8    1  0.1079508E+005  0.1043930E+01  0.7957747E-01            NaN
         13   -1    0    0    0    0  0.00000000000E+00  0.00000000000E+00  0.74505805969E-08  0.10566000000E+00  0.10566000000E+00 0.  1.
     999900   -1    0    0    0    0 -0.00000000000E+00 -0.00000000000E+00 -0.74505805969E-08  0.93827000000E+00  0.93827000000E+00 0. -1.
     999902    2    1    2    0    0  0.13428749273E-01  0.13141974913E-01 -0.14236034678E-01  0.10203565511E+01  0.10200842043E+01 0.  0.
     999903    2    3    3    0    0 -0.59592994492E-01  0.18750292990E-01 -0.11400669187E+00  0.13169586647E+00  0.21056518577E-01 0.  0.
         14    1    1    2    0    0 -0.13428749273E-01 -0.13141974913E-01  0.14236034678E-01  0.23573448942E-01  0.00000000000E+00 0.  1.
     999901    1    3    3    0    0  0.73021743765E-01 -0.56083180771E-02  0.99770657193E-01  0.88866068459E+00  0.88000000000E+00 0.  1.
        -11    1    4    4    0    0 -0.27684086838E-01 -0.14336601034E-02 -0.40876789779E-01  0.49392682747E-01  0.51100000000E-03 0. -1.
         11    1    4    4    0    0 -0.31908907654E-01  0.20183953093E-01 -0.73129902092E-01  0.82303183724E-01  0.51100000000E-03 0.  1.
</event>
<event>
 8    1  0.1079508E+005  0.1043930E+01  0.7957747E-01            NaN
         13   -1    0    0    0    0  0.00000000000E+00  0.00000000000E+00  0.74505805969E-08  0.10566000000E+00  0.10566000000E+00 0.  1.
     999900   -1    0    0    0    0 -0.00000000000E+00 -0.00000000000E+00 -0.74505805969E-08  0.93827000000E+00  0.93827000000E+00 0. -1.
     999902    2    1    2    0    0  0.83280973938E-02 -0.47735493256E-02 -0.21418204478E-01  0.10204590933E+01  0.10201891381E+01 0.  0.
     999903    2    3    3    0    0 -0.96754880766E-01  0.69203667205E-01 -0.50175429260E-01  0.13066021778E+00  0.20096375324E-01 0.  0.
         14    1    1    2    0    0 -0.83280973938E-02  0.47735493256E-02  0.21418204478E-01  0.23470906724E-01  0.00000000000E+00 0.  1.
     999901    1    3    3    0    0  0.10508297816E+00 -0.73977216531E-01  0.28757224782E-01  0.88979887550E+00  0.88000000000E+00 0.  1.
        -11    1    4    4    0    0 -0.51115918364E-01  0.46038928733E-01 -0.21959069233E-01  0.72214139278E-01  0.51100000000E-03 0. -1.
         11    1    4    4    0    0 -0.45638962402E-01  0.23164738472E-01 -0.28216360028E-01  0.58446078498E-01  0.51100000000E-03 0.  1.
</event>
<event>
 8    1  0.1079508E+005  0.1043930E+01  0.7957747E-01            NaN
         13   -1    0    0    0    0  0.00000000000E+00  0.00000000000E+00  0.74505805969E-08  0.10566000000E+00  0.10566000000E+00 0. -1.
     999900   -1    0    0    0    0 -0.00000000000E+00 -0.00000000000E+00 -0.74505805969E-08  0.93827000000E+00  0.93827000000E+00 0.  1.
     999902    2    1    2    0    0  0.19458331938E-03 -0.23168277237E-01 -0.68239075148E-02  0.10197768916E+01  0.10194908219E+01 0.  0.
     999903    2    3    3    0    0  0.15342750398E-01 -0.75993483818E-01  0.10403777438E+00  0.13112044394E+00  0.18928886600E-01 0.  0.
         14    1    1    2    0    0 -0.19458331938E-03  0.23168277237E-01  0.68239075148E-02  0.24153108425E-01  0.00000000000E+00 0. -1.
     999901    1    3    3    0    0 -0.15148167079E-01  0.52825206580E-01 -0.11086168189E+00  0.88865644764E+00  0.88000000000E+00 0.  1.
        -11    1    4    4    0    0  0.41142254144E-02 -0.60594078492E-01  0.78675201422E-01  0.99391235221E-01  0.51100000000E-03 0.  1.
         11    1    4    4    0    0  0.11228524984E-01 -0.15399405326E-01  0.25362572958E-01  0.31729208716E-01  0.51100000000E-03 0. -1.
</event>
<event>
 8    1  0.1079508E+005  0.1043930E+01  0.7957747E-01            NaN
         13   -1    0    0    0    0  0.00000000000E+00  0.00000000000E+00  0.74505805969E-08  0.10566000000E+00  0.10566000000E+00 0. -1.
     999900   -1    0    0    0    0 -0.00000000000E+00 -0.00000000000E+00 -0.74505805969E-08  0.93827000000E+00  0.93827000000E+00 0.  1.
     999902    2    1    2    0    0  0.22364839901E-01 -0.35173922756E-02  0.14080109566E-01  0.10172690248E+01  0.10169195943E+01 0.  0.
     999903    2    3    3    0    0  0.91109004785E-01 -0.79854166019E-01 -0.41478078678E-01  0.12955298040E+00  0.19647013444E-01 0.  0.
         14    1    1    2    0    0 -0.22364839901E-01  0.35173922756E-02 -0.14080109566E-01  0.26660975181E-01  0.00000000000E+00 0.  1.
     999901    1    3    3    0    0 -0.68744164884E-01  0.76336773743E-01  0.55558188244E-01  0.88771604442E+00  0.88000000000E+00 0.  1.
        -11    1    4    4    0    0  0.53479496137E-01 -0.49813740383E-01 -0.15035072821E-01  0.74617556739E-01  0.51100000000E-03 0.  1.
         11    1    4    4    0    0  0.37629508648E-01 -0.30040425636E-01 -0.26443005857E-01  0.54935423665E-01  0.51100000000E-03 0. -1.
</event>
<event>
 8    1  0.1079508E+005  0.1043930E+01  0.7957747E-01            NaN
         13   -1    0    0    0    0  0.00000000000E+00  0.00000000000E+00  0.74505805969E-08  0.10566000000E+00  0.10566000000E+00 0. -1.
     999900   -1    0    0    0    0 -0.00000000000E+00 -0.00000000000E+00 -0.74505805969E-08  0.93827000000E+00  0.93827000000E+00 0.  1.
     999902    2    1    2    0    0 -0.10722969852E-01 -0.18785406604E-01  0.13118990881E-01  0.10186321443E+01  0.10183179581E+01 0.  0.
     999903    2    3    3    0    0  0.10251924995E+00  0.71418150276E-01  0.16682667507E-02  0.12672878564E+00  0.21134171318E-01 0.  0.
         14    1    1    2    0    0  0.10722969852E-01  0.18785406604E-01 -0.13118990881E-01  0.25297855748E-01  0.00000000000E+00 0. -1.
     999901    1    3    3    0    0 -0.11324221980E+00 -0.90203556880E-01  0.11450724130E-01  0.89190335861E+00  0.88000000000E+00 0. -1.
        -11    1    4    4    0    0  0.19391252011E-01  0.24294580350E-01  0.22487249698E-02  0.31169940230E-01  0.51100000000E-03 0. -1.
         11    1    4    4    0    0  0.83127997936E-01  0.47123569926E-01 -0.58045821911E-03  0.95558845410E-01  0.51100000000E-03 0.  1.
</event>
<event>
 8    1  0.1079508E+005  0.1043930E+01  0.7957747E-01            NaN
         13   -1    0    0    0    0  0.00000000000E+00  0.00000000000E+00  0.74505805969E-08  0.10566000000E+00  0.10566000000E+00 0.  1.
     999900   -1    0    0    0    0 -0.00000000000E+00 -0.00000000000E+00 -0.74505805969E-08  0.93827000000E+00  0.93827000000E+00 0. -1.
     999902    2    1    2    0    0 -0.88261124031E-02  0.31418253056E-02  0.21389238764E-01  0.10205789644E+01  0.10203117915E+01 0.  0.
     999903    2    3    3    0    0 -0.12288244163E-01  0.12746723641E+00  0.22649961607E-01  0.13183244062E+00  0.21630403064E-01 0.  0.
         14    1    1    2    0    0  0.88261124031E-02 -0.31418253056E-02 -0.21389238764E-01  0.23351035551E-01  0.00000000000E+00 0. -1.
     999901    1    3    3    0    0  0.34621317598E-02 -0.12432541110E+00 -0.12607228437E-02  0.88874652383E+00  0.88000000000E+00 0. -1.
        -11    1    4    4    0    0  0.62678984989E-02  0.34847225568E-01  0.61130877387E-02  0.35933920522E-01  0.51100000000E-03 0. -1.
         11    1    4    4    0    0 -0.18556142662E-01  0.92620010837E-01  0.16536873869E-01  0.95898520095E-01  0.51100000000E-03 0.  1.
</event>
<event>
 8    1  0.1079508E+005  0.1043930E+01  0.7957747E-01            NaN
         13   -1    0    0    0    0  0.00000000000E+00  0.00000000000E+00  0.74505805969E-08  0.10566000000E+00  0.10566000000E+00 0.  1.
     999900   -1    0    0    0    0 -0.00000000000E+00 -0.00000000000E+00 -0.74505805969E-08  0.93827000000E+00  0.93827000000E+00 0.  1.
     999902    2    1    2    0    0  0.89106308958E-02  0.34714070756E-02  0.21956697878E-01  0.10199811672E+01  0.10196999730E+01 0.  0.
     999903    2    3    3    0    0  0.74364611752E-01 -0.72874016893E-01  0.76902821944E-01  0.13255121284E+00  0.28549293925E-01 0.  0.
         14    1    1    2    0    0 -0.89106308958E-02 -0.34714070756E-02 -0.21956697878E-01  0.23948832785E-01  0.00000000000E+00 0. -1.
     999901    1    3    3    0    0 -0.65453980856E-01  0.76345423969E-01 -0.54946124066E-01  0.88742995437E+00  0.88000000000E+00 0. -1.
        -11    1    4    4    0    0  0.31345217294E-01 -0.49609573547E-01  0.47362233234E-01  0.75412695832E-01  0.51100000000E-03 0. -1.
         11    1    4    4    0    0  0.43019394457E-01 -0.23264443346E-01  0.29540588709E-01  0.57138517009E-01  0.51100000000E-03 0.  1.
</event>
<event>
 8    1  0.1079508E+005  0.1043930E+01  0.7957747E-01            NaN
         13   -1    0    0    0    0  0.00000000000E+00  0.00000000000E+00  0.74505805969E-08  0.10566000000E+00  0.10566000000E+00 0.  1.
     999900   -1    0    0    0    0 -0.00000000000E+00 -0.00000000000E+00 -0.74505805969E-08  0.93827000000E+00  0.93827000000E+00 0. -1.
     999902    2    1    2    0    0 -0.13278189469E-01 -0.20839290050E-02 -0.19337697475E-01  0.10203800612E+01  0.10201082637E+01 0.  0.
     999903    2    3    3    0    0  0.10156879147E+00 -0.46995667440E-01 -0.64141054600E-01  0.13065300521E+00  0.20768262505E-01 0.  0.
         14    1    1    2    0    0  0.13278189469E-01  0.20839290050E-02  0.19337697475E-01  0.23549938838E-01  0.00000000000E+00 0.  1.
     999901    1    3    3    0    0 -0.11484698094E+00  0.44911738435E-01  0.44803357126E-01  0.88972705595E+00  0.88000000000E+00 0.  1.
        -11    1    4    4    0    0  0.60290848153E-01 -0.32230416063E-01 -0.49592754936E-01  0.84459981966E-01  0.51100000000E-03 0. -1.
         11    1    4    4    0    0  0.41277943314E-01 -0.14765251377E-01 -0.14548299665E-01  0.46193023246E-01  0.51100000000E-03 0.  1.
</event>
<event>
 8    1  0.1079508E+005  0.1043930E+01  0.7957747E-01            NaN
         13   -1    0    0    0    0  0.00000000000E+00  0.00000000000E+00  0.74505805969E-08  0.10566000000E+00  0.10566000000E+00 0. -1.
     999900   -1    0    0    0    0 -0.00000000000E+00 -0.00000000000E+00 -0.74505805969E-08  0.93827000000E+00  0.93827000000E+00 0. -1.
     999902    2    1    2    0    0 -0.23073531315E-01 -0.19949351935E-02  0.80690368409E-02  0.10194049726E+01  0.10191099161E+01 0.  0.
     999903    2    3    3    0    0  0.86002956590E-01  0.37291758088E-01  0.85281892233E-01  0.12844877304E+00  0.20949997361E-01 0.  0.
         14    1    1    2    0    0  0.23073531315E-01  0.19949351935E-02 -0.80690368409E-02  0.24525027406E-01  0.00000000000E+00 0.  1.
     999901    1    3    3    0    0 -0.10907648790E+00 -0.39286693282E-01 -0.77212855392E-01  0.89095619955E+00  0.88000000000E+00 0. -1.
        -11    1    4    4    0    0  0.39666217946E-01  0.26732391166E-01  0.50455838397E-01  0.69527565274E-01  0.51100000000E-03 0.  1.
         11    1    4    4    0    0  0.46336738644E-01  0.10559366923E-01  0.34826053836E-01  0.58921207767E-01  0.51100000000E-03 0. -1.
</event>
<event>
 8    1  0.1079508E+005  0.1043930E+01  0.7957747E-01            NaN
         13   -1    0    0    0    0  0.00000000000E+00  0.00000000000E+00  0.74505805969E-08  0.10566000000E+00  0.10566000000E+00 0. -1.
     999900   -1    0    0    0    0 -0.00000000000E+00 -0.00000000000E+00 -0.74505805969E-08  0.93827000000E+00  0.93827000000E+00 0. -1.
     999902    2    1    2    0    0  0.19299627973E-01 -0.77879395359E-02  0.11087772976E-01  0.10203489408E+01  0.10200764161E+01 0.  0.
     999903    2    3    3    0    0 -0.12601018924E-01  0.79177343585E-01  0.10110281757E+00  0.13092029277E+00  0.22147368293E-01 0.  0.
         14    1    1    2    0    0 -0.19299627973E-01  0.77879395359E-02 -0.11087772976E-01  0.23581059172E-01  0.00000000000E+00 0. -1.
     999901    1    3    3    0    0  0.31900646898E-01 -0.86965283121E-01 -0.90015044593E-01  0.88942864806E+00  0.88000000000E+00 0. -1.
        -11    1    4    4    0    0 -0.24929606120E-02  0.35979715064E-01  0.29095612954E-01  0.46341887778E-01  0.51100000000E-03 0. -1.
         11    1    4    4    0    0 -0.10108058312E-01  0.43197628521E-01  0.72007204615E-01  0.84578404987E-01  0.51100000000E-03 0.  1.
</event>
<event>
 8    1  0.1079508E+005  0.1043930E+01  0.7957747E-01            NaN
         13   -1    0    0    0    0  0.00000000000E+00  0.00000000000E+00  0.74505805969E-08  0.10566000000E+00  0.10566000000E+00 0. -1.
     999900   -1    0    0    0    0 -0.00000000000E+00 -0.00000000000E+00 -0.74505805969E-08  0.93827000000E+00  0.93827000000E+00 0.  1.
     999902    2    1    2    0    0 -0.18528325424E-01  0.11312506657E-01 -0.20468750179E-03  0.10222202430E+01  0.10219896828E+01 0.  0.
     999903    2    3    3    0    0 -0.56054788622E-01 -0.97783069357E-01  0.66154225721E-01  0.13221261077E+00  0.20003121915E-01 0.  0.
         14    1    1    2    0    0  0.18528325424E-01 -0.11312506657E-01  0.20468750179E-03  0.21709756951E-01  0.00000000000E+00 0.  1.
     999901    1    3    3    0    0  0.37526463198E-01  0.10909557601E+00 -0.66358913223E-01  0.89000763228E+00  0.88000000000E+00 0.  1.
        -11    1    4    4    0    0 -0.27988316082E-01 -0.65493943599E-01  0.47003721998E-01  0.85337058116E-01  0.51100000000E-03 0.  1.
         11    1    4    4    0    0 -0.28066472540E-01 -0.32289125758E-01  0.19150503724E-01  0.46875552657E-01  0.51100000000E-03 0. -1.
</event>
<event>
 8    1  0.1079508E+005  0.1043930E+01  0.7957747E-01            NaN
         13   -1    0    0    0    0  0.00000000000E+00  0.00000000000E+00  0.74505805969E-08  0.10566000000E+00  0.10566000000E+00 0.  1.
     999900   -1    0    0    0    0 -0.00000000000E+00 -0.00000000000E+00 -0.74505805969E-08  0.93827000000E+00  0.93827000000E+00 0.  1.
     999902    2    1    2    0    0 -0.16164053006E-01 -0.15757696564E-01  0.82381486177E-02  0.10198998376E+01  0.10196167074E+01 0.  0.
     999903    2    3    3    0    0 -0.12925849936E+00  0.15930640897E-01  0.79240876687E-02  0.13209659189E+00  0.20619734383E-01 0.  0.
         14    1    1    2    0    0  0.16164053006E-01  0.15757696564E-01 -0.82381486177E-02  0.24030162364E-01  0.00000000000E+00 0. -1.
     999901    1    3    3    0    0  0.11309444636E+00 -0.31688337461E-01  0.31406094899E-03  0.88780324575E+00  0.88000000000E+00 0. -1.
        -11    1    4    4    0    0 -0.84539367350E-01  0.16450342656E-02  0.45661109291E-03  0.84558147948E-01  0.51100000000E-03 0.  1.
         11    1    4    4    0    0 -0.44719132012E-01  0.14285606632E-01  0.74674765758E-02  0.47538443939E-01  0.51100000000E-03 0. -1.
</event>
<event>
 8    1  0.1079508E+005  0.1043930E+01  0.7957747E-01            NaN
         13   -1    0    0    0    0  0.00000000000E+00  0.00000000000E+00  0.74505805969E-08  0.10566000000E+00  0.10566000000E+00 0. -1.
     999900   -1    0    0    0    0 -0.00000000000E+00 -0.00000000000E+00 -0.74505805969E-08  0.93827000000E+00  0.93827000000E+00 0. -1.
     999902    2    1    2    0    0  0.24038393851E-02  0.12316413627E-01 -0.21390281371E-01  0.10191304713E+01  0.10188286906E+01 0.  0.
     999903    2    3    3    0    0 -0.74796422894E-01  0.10469270395E+00  0.71995330404E-02  0.13047382385E+00  0.20408779876E-01 0.  0.
         14    1    1    2    0    0 -0.24038393851E-02 -0.12316413627E-01  0.21390281371E-01  0.24799528736E-01  0.00000000000E+00 0. -1.
     999901    1    3    3    0    0  0.77200262280E-01 -0.92376290320E-01 -0.28589814411E-01  0.88865664742E+00  0.88000000000E+00 0. -1.
        -11    1    4    4    0    0 -0.26959802074E-01  0.38851733987E-01 -0.71597301340E-02  0.47831067501E-01  0.51100000000E-03 0. -1.
         11    1    4    4    0    0 -0.47836620821E-01  0.65840969959E-01  0.14359263174E-01  0.82642756347E-01  0.51100000000E-03 0.  1.
</event>
<event>
 8    1  0.1079508E+005  0.1043930E+01  0.7957747E-01            NaN
         13   -1    0    0    0    0  0.00000000000E+00  0.00000000000E+00  0.74505805969E-08  0.10566000000E+00  0.10566000000E+00 0. -1.
     999900   -1    0    0    0    0 -0.00000000000E+00 -0.00000000000E+00 -0.74505805969E-08  0.93827000000E+00  0.93827000000E+00 0.  1.
     999902    2    1    2    0    0  0.20191806873E-01 -0.11055379068E-01 -0.82098529852E-02  0.10194896204E+01  0.10191966218E+01 0.  0.
     999903    2    3    3    0    0  0.38276534085E-01  0.88950267071E-01  0.82658045609E-01  0.12899247740E+00  0.20723504723E-01 0.  0.
         14    1    1    2    0    0 -0.20191806873E-01  0.11055379068E-01  0.82098529852E-02  0.24440379645E-01  0.00000000000E+00 0. -1.
     999901    1    3    3    0    0 -0.18084727212E-01 -0.10000564614E+00 -0.90867898594E-01  0.89049714296E+00  0.88000000000E+00 0.  1.
        -11    1    4    4    0    0  0.34107035531E-01  0.58835536513E-01  0.50291391770E-01  0.84583659395E-01  0.51100000000E-03 0.  1.
         11    1    4    4    0    0  0.41694985548E-02  0.30114730559E-01  0.32366653839E-01  0.44408818005E-01  0.51100000000E-03 0. -1.
</event>
<event>
 8    1  0.1079508E+005  0.1043930E+01  0.7957747E-01            NaN
         13   -1    0    0    0    0  0.00000000000E+00  0.00000000000E+00  0.74505805969E-08  0.10566000000E+00  0.10566000000E+00 0. -1.
     999900   -1    0    0    0    0 -0.00000000000E+00 -0.00000000000E+00 -0.74505805969E-08  0.93827000000E+00  0.93827000000E+00 0.  1.
     999902    2    1    2    0    0 -0.17081922328E-01 -0.16523990209E-01  0.37499257990E-02  0.10198697368E+01  0.10195858884E+01 0.  0.
     999903    2    3    3    0    0  0.82652717400E-01 -0.52103945237E-01 -0.83442461574E-01  0.12924330332E+00  0.13960453283E-01 0.  0.
         14    1    1    2    0    0  0.17081922328E-01  0.16523990209E-01 -0.37499257990E-02  0.24060263223E-01  0.00000000000E+00 0.  1.
     999901    1    3    3    0    0 -0.99734639729E-01  0.35579955028E-01  0.87192387373E-01  0.89062643346E+00  0.88000000000E+00 0. -1.
        -11    1    4    4    0    0  0.52588281309E-01 -0.38574739250E-01 -0.49119364428E-01  0.81648704350E-01  0.51100000000E-03 0. -1.
         11    1    4    4    0    0  0.30064436091E-01 -0.13529205987E-01 -0.34323097146E-01  0.47594598967E-01  0.51100000000E-03 0.  1.
</event>
<event>
 8    1  0.1079508E+005  0.1043930E+01  0.7957747E-01            NaN
         13   -1    0    0    0    0  0.00000000000E+00  0.00000000000E+00  0.74505805969E-08  0.10566000000E+00  0.10566000000E+00 0.  1.
     999900   -1    0    0    0    0 -0.00000000000E+00 -0.00000000000E+00 -0.74505805969E-08  0.93827000000E+00  0.93827000000E+00 0.  1.
     999902    2    1    2    0    0 -0.74876870398E-02  0.21856269958E-01  0.24110280772E-02  0.10207012452E+01  0.10204368951E+01 0.  0.
     999903    2    3    3    0    0 -0.21819786921E-01  0.77291237682E-01 -0.10182027390E+00  0.13270202838E+00  0.28149984677E-01 0.  0.
         14    1    1    2    0    0  0.74876870398E-02 -0.21856269958E-01 -0.24110280772E-02  0.23228754811E-01  0.00000000000E+00 0. -1.
     999901    1    3    3    0    0  0.14332099882E-01 -0.55434967724E-01  0.10423130197E+00  0.88799921680E+00  0.88000000000E+00 0. -1.
        -11    1    4    4    0    0 -0.13300222100E-01  0.95492530157E-02 -0.14662772861E-01  0.21985044236E-01  0.51100000000E-03 0.  1.
         11    1    4    4    0    0 -0.85195648212E-02  0.67741984666E-01 -0.87157501035E-01  0.11071698415E+00  0.51100000000E-03 0. -1.
</event>
<event>
 8    1  0.1079508E+005  0.1043930E+01  0.7957747E-01            NaN
         13   -1    0    0    0    0  0.00000000000E+00  0.00000000000E+00  0.74505805969E-08  0.10566000000E+00  0.10566000000E+00 0.  1.
     999900   -1    0    0    0    0 -0.00000000000E+00 -0.00000000000E+00 -0.74505805969E-08  0.93827000000E+00  0.93827000000E+00 0.  1.
     999902    2    1    2    0    0  0.15266592409E-01  0.15141085538E-01 -0.96975350675E-02  0.10203426411E+01  0.10200699690E+01 0.  0.
     999903    2    3    3    0    0 -0.76422704797E-02 -0.33801575164E-01  0.12246348196E+00  0.12883451746E+00  0.20001942254E-01 0.  0.
         14    1    1    2    0    0 -0.15266592409E-01 -0.15141085538E-01  0.96975350675E-02  0.23587358933E-01  0.00000000000E+00 0. -1.
     999901    1    3    3    0    0  0.22908862889E-01  0.48942660702E-01 -0.13216101703E+00  0.89150812361E+00  0.88000000000E+00 0.  1.
        -11    1    4    4    0    0 -0.20938170965E-03 -0.16354324030E-01  0.27547421275E-01  0.32041056398E-01  0.51100000000E-03 0. -1.
         11    1    4    4    0    0 -0.74328887701E-02 -0.17447251134E-01  0.94916060683E-01  0.96793461061E-01  0.51100000000E-03 0.  1.
</event>
<event>
 8    1  0.1079508E+005  0.1043930E+01  0.7957747E-01            NaN
         13   -1    0    0    0    0  0.00000000000E+00  0.00000000000E+00  0.74505805969E-08  0.10566000000E+00  0.10566000000E+00 0.  1.
     999900   -1    0    0    0    0 -0.00000000000E+00 -0.00000000000E+00 -0.74505805969E-08  0.93827000000E+00  0.93827000000E+00 0.  1.
     999902    2    1    2    0    0  0.29306038853E-02  0.51386492453E-02 -0.23340508248E-01  0.10198515142E+01  0.10195672305E+01 0.  0.
     999903    2    3    3    0    0 -0.12407933381E+00 -0.54486364874E-02  0.28752488817E-01  0.12914544859E+00  0.20651212089E-01 0.  0.
         14    1    1    2    0    0 -0.29306038853E-02 -0.51386492453E-02  0.23340508248E-01  0.24078485843E-01  0.00000000000E+00 0.  1.
     999901    1    3    3    0    0  0.12700993769E+00  0.10587285733E-01 -0.52092997065E-01  0.89070606557E+00  0.88000000000E+00 0.  1.
        -11    1    4    4    0    0 -0.29545668425E-01  0.39246110295E-03 -0.18458161880E-02  0.29610280424E-01  0.51100000000E-03 0.  1.
         11    1    4    4    0    0 -0.94533665384E-01 -0.58410975903E-02  0.30598305005E-01  0.99535168168E-01  0.51100000000E-03 0. -1.
</event>
<event>
 8    1  0.1079508E+005  0.1043930E+01  0.7957747E-01            NaN
         13   -1    0    0    0    0  0.00000000000E+00  0.00000000000E+00  0.74505805969E-08  0.10566000000E+00  0.10566000000E+00 0.  1.
     999900   -1    0    0    0    0 -0.00000000000E+00 -0.00000000000E+00 -0.74505805969E-08  0.93827000000E+00  0.93827000000E+00 0. -1.
     999902    2    1    2    0    0  0.16305660739E-01  0.16469930284E-01 -0.69619344240E-02  0.10197307912E+01  0.10194436153E+01 0.  0.
     999903    2    3    3    0    0 -0.24785247288E-01  0.78031445801E-01 -0.10108389237E+00  0.13162199951E+00  0.20079403367E-01 0.  0.
         14    1    1    2    0    0 -0.16305660739E-01 -0.16469930284E-01  0.69619344240E-02  0.24199208801E-01  0.00000000000E+00 0.  1.
     999901    1    3    3    0    0  0.41090908026E-01 -0.61561515518E-01  0.94121957949E-01  0.88810879169E+00  0.88000000000E+00 0.  1.
        -11    1    4    4    0    0 -0.64856468358E-02  0.29094611323E-01 -0.51965986679E-01  0.59910641087E-01  0.51100000000E-03 0. -1.
         11    1    4    4    0    0 -0.18299600452E-01  0.48936834479E-01 -0.49117905694E-01  0.71711358419E-01  0.51100000000E-03 0.  1.
</event>
<event>
 8    1  0.1079508E+005  0.1043930E+01  0.7957747E-01            NaN
         13   -1    0    0    0    0  0.00000000000E+00  0.00000000000E+00  0.74505805969E-08  0.10566000000E+00  0.10566000000E+00 0.  1.
     999900   -1    0    0    0    0 -0.00000000000E+00 -0.00000000000E+00 -0.74505805969E-08  0.93827000000E+00  0.93827000000E+00 0.  1.
     999902    2    1    2    0    0  0.86738674568E-02 -0.78701327420E-02  0.19590829552E-01  0.10211051108E+01  0.10208499751E+01 0.  0.
     999903    2    3    3    0    0 -0.34384495308E-01  0.11229852229E+00  0.54847238774E-01  0.13119638362E+00  0.20273624441E-01 0.  0.
         14    1    1    2    0    0 -0.86738674568E-02  0.78701327420E-02 -0.19590829552E-01  0.22824889235E-01  0.00000000000E+00 0. -1.
     999901    1    3    3    0    0  0.43058362765E-01 -0.12016865503E+00 -0.35256409222E-01  0.88990872714E+00  0.88000000000E+00 0.  1.
        -11    1    4    4    0    0 -0.12972820553E-01  0.29004227155E-01  0.61639695115E-02  0.32369660286E-01  0.51100000000E-03 0.  1.
         11    1    4    4    0    0 -0.21411674755E-01  0.83294295136E-01  0.48683269263E-01  0.98826723335E-01  0.51100000000E-03 0. -1.
</event>
<event>
 8    1  0.1079508E+005  0.1043930E+01  0.7957747E-01            NaN
         13   -1    0    0    0    0  0.00000000000E+00  0.00000000000E+00  0.74505805969E-08  0.10566000000E+00  0.10566000000E+00 0.  1.
     999900   -1    0    0    0    0 -0.00000000000E+00 -0.00000000000E+00 -0.74505805969E-08  0.93827000000E+00  0.93827000000E+00 0. -1.
     999902    2    1    2    0    0  0.18241750565E-01  0.51786080034E-02  0.12929917232E-01  0.10209786993E+01  0.10207206975E+01 0.  0.
     999903    2    3    3    0    0  0.12987555992E+00 -0.12304688622E-01 -0.17917415344E-01  0.13321784694E+00  0.20171627174E-01 0.  0.
         14    1    1    2    0    0 -0.18241750565E-01 -0.51786080034E-02 -0.12929917232E-01  0.22951300707E-01  0.00000000000E+00 0. -1.
     999901    1    3    3    0    0 -0.11163380936E+00  0.17483296625E-01  0.30847332576E-01  0.88776085236E+00  0.88000000000E+00 0.  1.
        -11    1    4    4    0    0  0.59869946887E-01  0.24584232394E-02 -0.14155471973E-01  0.61571851465E-01  0.51100000000E-03 0. -1.
         11    1    4    4    0    0  0.70005613033E-01 -0.14763111861E-01 -0.37619433707E-02  0.71645995470E-01  0.51100000000E-03 0.  1.
</event>
<event>
 8    1  0.1079508E+005  0.1043930E+01  0.7957747E-01            NaN
         13   -1    0    0    0    0  0.00000000000E+00  0.00000000000E+00  0.74505805969E-08  0.10566000000E+00  0.10566000000E+00 0.  1.
     999900   -1    0    0    0    0 -0.00000000000E+00 -0.00000000000E+00 -0.74505805969E-08  0.93827000000E+00  0.93827000000E+00 0.  1.
     999902    2    1    2    0    0 -0.13108170467E-01 -0.84461971644E-02 -0.17671059674E-01  0.10203624645E+01  0.10200902559E+01 0.  0.
     999903    2    3    3    0    0  0.73892211513E-01 -0.91444179800E-01  0.49517801052E-01  0.12964810255E+00  0.23119708719E-01 0.  0.
         14    1    1    2    0    0  0.13108170467E-01  0.84461971644E-02  0.17671059674E-01  0.23567535499E-01  0.00000000000E+00 0.  1.
     999901    1    3    3    0    0 -0.87000381980E-01  0.82997982635E-01 -0.67188860726E-01  0.89071436195E+00  0.88000000000E+00 0.  1.
        -11    1    4    4    0    0  0.33399202496E-01 -0.34211140831E-01  0.31504451328E-01  0.57259937642E-01  0.51100000000E-03 0.  1.
         11    1    4    4    0    0  0.40493009018E-01 -0.57233038969E-01  0.18013349724E-01  0.72388164905E-01  0.51100000000E-03 0. -1.
</event>
<event>
 8    1  0.1079508E+005  0.1043930E+01  0.7957747E-01            NaN
         13   -1    0    0    0    0  0.00000000000E+00  0.00000000000E+00  0.74505805969E-08  0.10566000000E+00  0.10566000000E+00 0.  1.
     999900   -1    0    0    0    0 -0.00000000000E+00 -0.00000000000E+00 -0.74505805969E-08  0.93827000000E+00  0.93827000000E+00 0.  1.
     999902    2    1    2    0    0 -0.76472039162E-02  0.20440155241E-01 -0.16035125493E-02  0.10220473373E+01  0.10218130498E+01 0.  0.
     999903    2    3    3    0    0 -0.13894774629E-01  0.98114005801E-02 -0.13001754210E+00  0.13264182487E+00  0.19999102691E-01 0.  0.
         14    1    1    2    0    0  0.76472039162E-02 -0.20440155241E-01  0.16035125493E-02  0.21882662692E-01  0.00000000000E+00 0. -1.
     999901    1    3    3    0    0  0.62475707125E-02  0.10628754661E-01  0.12841402955E+00  0.88940551244E+00  0.88000000000E+00 0. -1.
        -11    1    4    4    0    0 -0.92841403307E-02  0.68521054760E-02 -0.25664484140E-01  0.28143799997E-01  0.51100000000E-03 0. -1.
         11    1    4    4    0    0 -0.46106342980E-02  0.29592951041E-02 -0.10435305796E+00  0.10449802487E+00  0.51100000000E-03 0.  1.
</event>
<event>
 8    1  0.1079508E+005  0.1043930E+01  0.7957747E-01            NaN
         13   -1    0    0    0    0  0.00000000000E+00  0.00000000000E+00  0.74505805969E-08  0.10566000000E+00  0.10566000000E+00 0.  1.
     999900   -1    0    0    0    0 -0.00000000000E+00 -0.00000000000E+00 -0.74505805969E-08  0.93827000000E+00  0.93827000000E+00 0.  1.
     999902    2    1    2    0    0 -0.62214453742E-02 -0.13909292879E-01  0.13321636032E-02  0.10286345931E+01  0.10285208684E+01 0.  0.
     999903    2    3    3    0    0  0.81433747707E-01  0.33517068543E-01  0.10327076797E+00  0.13716155839E+00  0.19839164135E-01 0.  0.
         14    1    1    2    0    0  0.62214453742E-02  0.13909292879E-01 -0.13321636032E-02  0.15295406853E-01  0.00000000000E+00 0. -1.
     999901    1    3    3    0    0 -0.87655193082E-01 -0.47426361422E-01 -0.10193860437E+00  0.89147303475E+00  0.88000000000E+00 0.  1.
        -11    1    4    4    0    0  0.38302552812E-01  0.25447911250E-01  0.46405750467E-01  0.65333272812E-01  0.51100000000E-03 0. -1.
         11    1    4    4    0    0  0.43131194895E-01  0.80691572932E-02  0.56865017507E-01  0.71828285581E-01  0.51100000000E-03 0.  1.
</event>
<event>
 8    1  0.1079508E+005  0.1043930E+01  0.7957747E-01            NaN
         13   -1    0    0    0    0  0.00000000000E+00  0.00000000000E+00  0.74505805969E-08  0.10566000000E+00  0.10566000000E+00 0. -1.
     999900   -1    0    0    0    0 -0.00000000000E+00 -0.00000000000E+00 -0.74505805969E-08  0.93827000000E+00  0.93827000000E+00 0.  1.
     999902    2    1    2    0    0 -0.11539323433E-01  0.13900065444E-01 -0.17081147411E-01  0.10190677113E+01  0.10187643823E+01 0.  0.
     999903    2    3    3    0    0 -0.81215888760E-01  0.65634827189E-01 -0.79115123041E-01  0.13262565254E+00  0.20649694695E-01 0.  0.
         14    1    1    2    0    0  0.11539323433E-01 -0.13900065444E-01  0.17081147411E-01  0.24862288743E-01  0.00000000000E+00 0. -1.
     999901    1    3    3    0    0  0.69676565326E-01 -0.51734761745E-01  0.62033975630E-01  0.88644205872E+00  0.88000000000E+00 0. -1.
        -11    1    4    4    0    0 -0.65379137519E-01  0.48825631146E-01 -0.50955399317E-01  0.96203366469E-01  0.51100000000E-03 0. -1.
         11    1    4    4    0    0 -0.15836751241E-01  0.16809196044E-01 -0.28159723724E-01  0.36422286072E-01  0.51100000000E-03 0.  1.
</event>
<event>
 8    1  0.1079508E+005  0.1043930E+01  0.7957747E-01            NaN
         13   -1    0    0    0    0  0.00000000000E+00  0.00000000000E+00  0.74505805969E-08  0.10566000000E+00  0.10566000000E+00 0. -1.
     999900   -1    0    0    0    0 -0.00000000000E+00 -0.00000000000E+00 -0.74505805969E-08  0.93827000000E+00  0.93827000000E+00 0.  1.
     999902    2    1    2    0    0 -0.10838015528E-01  0.21072202572E-01  0.13643747497E-01  0.10165867714E+01  0.10162189782E+01 0.  0.
     999903    2    3    3    0    0 -0.10493037078E+00  0.49037341765E-01  0.55893234771E-01  0.13012163423E+00  0.19812682877E-01 0.  0.
         14    1    1    2    0    0  0.10838015528E-01 -0.21072202572E-01 -0.13643747497E-01  0.27343228551E-01  0.00000000000E+00 0. -1.
     999901    1    3    3    0    0  0.94092355250E-01 -0.27965139192E-01 -0.42249487274E-01  0.88646513722E+00  0.88000000000E+00 0. -1.
        -11    1    4    4    0    0 -0.31820282802E-01  0.24232651190E-01  0.14710146552E-01  0.42619259894E-01  0.51100000000E-03 0. -1.
         11    1    4    4    0    0 -0.73110087977E-01  0.24804690574E-01  0.41183088219E-01  0.87502374338E-01  0.51100000000E-03 0.  1.
</event>
<event>
 8    1  0.1079508E+005  0.1043930E+01  0.7957747E-01            NaN
         13   -1    0    0    0    0  0.00000000000E+00  0.00000000000E+00  0.74505805969E-08  0.10566000000E+00  0.10566000000E+00 0. -1.
     999900   -1    0    0    0    0 -0.00000000000E+00 -0.00000000000E+00 -0.74505805969E-08  0.93827000000E+00  0.93827000000E+00 0. -1.
     999902    2    1    2    0    0  0.87201719797E-02  0.20204009596E-01  0.58329779070E-03  0.10219167395E+01  0.10216796165E+01 0.  0.
     999903    2    3    3    0    0  0.11774362846E+00  0.34861200613E-01 -0.48805918788E-01  0.13369365824E+00  0.20325136941E-01 0.  0.
         14    1    1    2    0    0 -0.87201719797E-02 -0.20204009596E-01 -0.58329779070E-03  0.22013260536E-01  0.00000000000E+00 0.  1.
     999901    1    3    3    0    0 -0.10902345648E+00 -0.14657191017E-01  0.49389216579E-01  0.88822308123E+00  0.88000000000E+00 0.  1.
        -11    1    4    4    0    0  0.11540482864E+00  0.31087617333E-01 -0.44639836593E-01  0.12758405291E+00  0.51100000000E-03 0.  1.
         11    1    4    4    0    0  0.23387998245E-02  0.37735832796E-02 -0.41660821949E-02  0.61096053262E-02  0.51100000000E-03 0. -1.
</event>
<event>
 8    1  0.1079508E+005  0.1043930E+01  0.7957747E-01            NaN
         13   -1    0    0    0    0  0.00000000000E+00  0.00000000000E+00  0.74505805969E-08  0.10566000000E+00  0.10566000000E+00 0. -1.
     999900   -1    0    0    0    0 -0.00000000000E+00 -0.00000000000E+00 -0.74505805969E-08  0.93827000000E+00  0.93827000000E+00 0.  1.
     999902    2    1    2    0    0  0.12555596937E-01  0.21448736222E-01 -0.16208187898E-02  0.10190238089E+01  0.10187193945E+01 0.  0.
     999903    2    3    3    0    0  0.83272120793E-01 -0.45138187154E-01 -0.86043701995E-01  0.12966343860E+00  0.20913790076E-01 0.  0.
         14    1    1    2    0    0 -0.12555596937E-01 -0.21448736222E-01  0.16208187898E-02  0.24906191068E-01  0.00000000000E+00 0. -1.
     999901    1    3    3    0    0 -0.70716523856E-01  0.66586923375E-01  0.84422883205E-01  0.88936037033E+00  0.88000000000E+00 0.  1.
        -11    1    4    4    0    0  0.24543385781E-01 -0.22604131443E-01 -0.22486891995E-01  0.40239855572E-01  0.51100000000E-03 0.  1.
         11    1    4    4    0    0  0.58728735012E-01 -0.22534055710E-01 -0.63556810000E-01  0.89423583026E-01  0.51100000000E-03 0. -1.
</event>
<event>
 8    1  0.1079508E+005  0.1043930E+01  0.7957747E-01            NaN
         13   -1    0    0    0    0  0.00000000000E+00  0.00000000000E+00  0.74505805969E-08  0.10566000000E+00  0.10566000000E+00 0.  1.
     999900   -1    0    0    0    0 -0.00000000000E+00 -0.00000000000E+00 -0.74505805969E-08  0.93827000000E+00  0.93827000000E+00 0.  1.
     999902    2    1    2    0    0 -0.88675378964E-02  0.19707052564E-01  0.10737748550E-01  0.10197990988E+01  0.10195135612E+01 0.  0.
     999903    2    3    3    0    0 -0.99014091129E-02 -0.12471350569E+00 -0.67279172155E-02  0.12785548173E+00  0.25500253607E-01 0.  0.
         14    1    1    2    0    0  0.88675378964E-02 -0.19707052564E-01 -0.10737748550E-01  0.24130901206E-01  0.00000000000E+00 0. -1.
     999901    1    3    3    0    0  0.10338712164E-02  0.14442055826E+00  0.17465665766E-01  0.89194361706E+00  0.88000000000E+00 0. -1.
        -11    1    4    4    0    0 -0.14930297669E-01 -0.62274595790E-01 -0.11360548714E-01  0.65041235055E-01  0.51100000000E-03 0. -1.
         11    1    4    4    0    0  0.50288885566E-02 -0.62438909903E-01  0.46326314988E-02  0.62814246677E-01  0.51100000000E-03 0.  1.
</event>
<event>
 8    1  0.1079508E+005  0.1043930E+01  0.7957747E-01            NaN
         13   -1    0    0    0    0  0.00000000000E+00  0.00000000000E+00  0.74505805969E-08  0.10566000000E+00  0.10566000000E+00 0. -1.
     999900   -1    0    0    0    0 -0.00000000000E+00 -0.00000000000E+00 -0.74505805969E-08  0.93827000000E+00  0.93827000000E+00 0.  1.
     999902    2    1    2    0    0 -0.11366646169E-01  0.18137059503E-01  0.67544519016E-02  0.10214850408E+01  0.10212384209E+01 0.  0.
     999903    2    3    3    0    0  0.82640646471E-01  0.86451894202E-01 -0.51966018120E-01  0.13190515046E+00  0.19877002272E-01 0.  0.
         14    1    1    2    0    0  0.11366646169E-01 -0.18137059503E-01 -0.67544519016E-02  0.22444959190E-01  0.00000000000E+00 0.  1.
     999901    1    3    3    0    0 -0.94007292640E-01 -0.68314834699E-01  0.58720470022E-01  0.88957989035E+00  0.88000000000E+00 0. -1.
        -11    1    4    4    0    0  0.34853991671E-01  0.23730027515E-01 -0.14388010589E-01  0.44555481267E-01  0.51100000000E-03 0. -1.
         11    1    4    4    0    0  0.47786654800E-01  0.62721866687E-01 -0.37578007531E-01  0.87349669196E-01  0.51100000000E-03 0.  1.
</event>
<event>
 8    1  0.1079508E+005  0.1043930E+01  0.7957747E-01            NaN
         13   -1    0    0    0    0  0.00000000000E+00  0.00000000000E+00  0.74505805969E-08  0.10566000000E+00  0.10566000000E+00 0. -1.
     999900   -1    0    0    0    0 -0.00000000000E+00 -0.00000000000E+00 -0.74505805969E-08  0.93827000000E+00  0.93827000000E+00 0. -1.
     999902    2    1    2    0    0  0.19510315258E-01  0.41108340898E-02 -0.13246325166E-01  0.10199922372E+01  0.10197113059E+01 0.  0.
     999903    2    3    3    0    0  0.73327880431E-01 -0.10572808401E+00  0.15078826831E-01  0.13108097474E+00  0.19986123322E-01 0.  0.
         14    1    1    2    0    0 -0.19510315258E-01 -0.41108340898E-02  0.13246325166E-01  0.23937762819E-01  0.00000000000E+00 0. -1.
     999901    1    3    3    0    0 -0.53817565173E-01  0.10983891810E+00 -0.28325151997E-01  0.88891126244E+00  0.88000000000E+00 0.  1.
        -11    1    4    4    0    0  0.12302564728E-01 -0.74100648253E-02  0.34526376836E-02  0.14779850729E-01  0.51100000000E-03 0. -1.
         11    1    4    4    0    0  0.61025315703E-01 -0.98318019180E-01  0.11626189147E-01  0.11630112402E+00  0.51100000000E-03 0.  1.
</event>
<event>
 8    1  0.1079508E+005  0.1043930E+01  0.7957747E-01            NaN
         13   -1    0    0    0    0  0.00000000000E+00  0.00000000000E+00  0.74505805969E-08  0.10566000000E+00  0.10566000000E+00 0.  1.
     999900   -1    0    0    0    0 -0.00000000000E+00 -0.00000000000E+00 -0.74505805969E-08  0.93827000000E+00  0.93827000000E+00 0. -1.
     999902    2    1    2    0    0 -0.46809180278E-02 -0.20397841748E-01  0.95484567773E-02  0.10209266096E+01  0.10206674220E+01 0.  0.
     999903    2    3    3    0    0  0.70631889461E-01  0.10572002777E+00  0.51010584351E-02  0.12873968116E+00  0.19552407229E-01 0.  0.
         14    1    1    2    0    0  0.46809180278E-02  0.20397841748E-01 -0.95484567773E-02  0.23003390367E-01  0.00000000000E+00 0. -1.
     999901    1    3    3    0    0 -0.75312807489E-01 -0.12611786952E+00  0.44473983422E-02  0.89218692847E+00  0.88000000000E+00 0. -1.
        -11    1    4    4    0    0  0.59220867448E-01  0.88754685382E-01 -0.29996331739E-02  0.10674157690E+00  0.51100000000E-03 0.  1.
         11    1    4    4    0    0  0.11411022013E-01  0.16965342385E-01  0.81006916090E-02  0.21998104263E-01  0.51100000000E-03 0. -1.
</event>
<event>
 8    1  0.1079508E+005  0.1043930E+01  0.7957747E-01            NaN
         13   -1    0    0    0    0  0.00000000000E+00  0.00000000000E+00  0.74505805969E-08  0.10566000000E+00  0.10566000000E+00 0. -1.
     999900   -1    0    0    0    0 -0.00000000000E+00 -0.00000000000E+00 -0.74505805969E-08  0.93827000000E+00  0.93827000000E+00 0. -1.
     999902    2    1    2    0    0  0.22772741201E-01 -0.87682584305E-02  0.15079952740E-01  0.10152440266E+01  0.10148386810E+01 0.  0.
     999903    2    3    3    0    0  0.11688452855E+00 -0.49248036574E-01 -0.10747353801E-01  0.12892428136E+00  0.20459779857E-01 0.  0.
         14    1    1    2    0    0 -0.22772741201E-01  0.87682584305E-02 -0.15079952740E-01  0.28685973442E-01  0.00000000000E+00 0.  1.
     999901    1    3    3    0    0 -0.94111787345E-01  0.40479778144E-01  0.25827306541E-01  0.88631974519E+00  0.88000000000E+00 0. -1.
        -11    1    4    4    0    0  0.42859874001E-01 -0.18641509704E-01 -0.13881363494E-01  0.48758876698E-01  0.51100000000E-03 0.  1.
         11    1    4    4    0    0  0.74024654545E-01 -0.30606526870E-01  0.31340096929E-02  0.80165404666E-01  0.51100000000E-03 0. -1.
</event>
<event>
 8    1  0.1079508E+005  0.1043930E+01  0.7957747E-01            NaN
         13   -1    0    0    0    0  0.00000000000E+00  0.00000000000E+00  0.74505805969E-08  0.10566000000E+00  0.10566000000E+00 0.  1.
     999900   -1    0    0    0    0 -0.00000000000E+00 -0.00000000000E+00 -0.74505805969E-08  0.93827000000E+00  0.93827000000E+00 0. -1.
     999902    2    1    2    0    0 -0.16347786539E-01 -0.46566794588E-02  0.16366323573E-01  0.10203335737E+01  0.10200606895E+01 0.  0.
     999903    2    3    3    0    0 -0.93137822467E-01  0.76255303870E-01 -0.47312400651E-01  0.13100886436E+00  0.20864657774E-01 0.  0.
         14    1    1    2    0    0  0.16347786539E-01  0.46566794588E-02 -0.16366323573E-01  0.23596426331E-01  0.00000000000E+00 0. -1.
     999901    1    3    3    0    0  0.76790035929E-01 -0.80911983328E-01  0.63678724224E-01  0.88932470931E+00  0.88000000000E+00 0.  1.
        -11    1    4    4    0    0 -0.59412887639E-01  0.48722844756E-01 -0.19260032460E-01  0.79215003567E-01  0.51100000000E-03 0. -1.
         11    1    4    4    0    0 -0.33724934828E-01  0.27532459113E-01 -0.28052368191E-01  0.51793860796E-01  0.51100000000E-03 0.  1.
</event>
<event>
 8    1  0.1079508E+005  0.1043930E+01  0.7957747E-01            NaN
         13   -1    0    0    0    0  0.00000000000E+00  0.00000000000E+00  0.74505805969E-08  0.10566000000E+00  0.10566000000E+00 0. -1.
     999900   -1    0    0    0    0 -0.00000000000E+00 -0.00000000000E+00 -0.74505805969E-08  0.93827000000E+00  0.93827000000E+00 0. -1.
     999902    2    1    2    0    0 -0.94594834984E-02 -0.39313584609E-02  0.20981457294E-01  0.10205813607E+01  0.10203142432E+01 0.  0.
     999903    2    3    3    0    0  0.10845932199E+00  0.36463522488E-01 -0.55102006571E-01  0.12854700902E+00  0.19876855907E-01 0.  0.
         14    1    1    2    0    0  0.94594834984E-02  0.39313584609E-02 -0.20981457294E-01  0.23348639309E-01  0.00000000000E+00 0.  1.
     999901    1    3    3    0    0 -0.11791880549E+00 -0.40394880949E-01  0.76083463865E-01  0.89203435167E+00  0.88000000000E+00 0. -1.
        -11    1    4    4    0    0  0.41607038465E-01  0.43282611645E-02 -0.22773579533E-01  0.47631675808E-01  0.51100000000E-03 0.  1.
         11    1    4    4    0    0  0.66852283522E-01  0.32135261324E-01 -0.32328427037E-01  0.80915333208E-01  0.51100000000E-03 0. -1.
</event>
<event>
 8    1  0.1079508E+005  0.1043930E+01  0.7957747E-01            NaN
         13   -1    0    0    0    0  0.00000000000E+00  0.00000000000E+00  0.74505805969E-08  0.10566000000E+00  0.10566000000E+00 0.  1.
     999900   -1    0    0    0    0 -0.00000000000E+00 -0.00000000000E+00 -0.74505805969E-08  0.93827000000E+00  0.93827000000E+00 0.  1.
     999902    2    1    2    0    0  0.19673160996E-01 -0.32407285683E-02 -0.12700937328E-01  0.10202900044E+01  0.10200160997E+01 0.  0.
     999903    2    3    3    0    0 -0.24573648895E-01  0.12275480507E+00  0.25744755652E-01  0.12938556167E+00  0.20130194650E-01 0.  0.
         14    1    1    2    0    0 -0.19673160996E-01  0.32407285683E-02  0.12700937328E-01  0.23639995648E-01  0.00000000000E+00 0.  1.
     999901    1    3    3    0    0  0.44246809891E-01 -0.12599553364E+00 -0.38445692980E-01  0.89090444268E+00  0.88000000000E+00 0.  1.
        -11    1    4    4    0    0 -0.88652850918E-02  0.88949852962E-01  0.20791335073E-01  0.91778049428E-01  0.51100000000E-03 0.  1.
         11    1    4    4    0    0 -0.15708363804E-01  0.33804952110E-01  0.49534205788E-02  0.37607512241E-01  0.51100000000E-03 0. -1.
</event>
<event>
 8    1  0.1079508E+005  0.1043930E+01  0.7957747E-01            NaN
         13   -1    0    0    0    0  0.00000000000E+00  0.00000000000E+00  0.74505805969E-08  0.10566000000E+00  0.10566000000E+00 0. -1.
     999900   -1    0    0    0    0 -0.00000000000E+00 -0.00000000000E+00 -0.74505805969E-08  0.93827000000E+00  0.93827000000E+00 0.  1.
     999902    2    1    2    0    0  0.14924597956E-01  0.15852498484E-01  0.89258606485E-02  0.10203988224E+01  0.10201274628E+01 0.  0.
     999903    2    3    3    0    0 -0.26073566297E-01 -0.94014312333E-01  0.82294439217E-01  0.12959328023E+00  0.22439290793E-01 0.  0.
         14    1    1    2    0    0 -0.14924597956E-01 -0.15852498484E-01 -0.89258606485E-02  0.23531177630E-01  0.00000000000E+00 0.  1.
     999901    1    3    3    0    0  0.40998164253E-01  0.10986681082E+00 -0.73368578568E-01  0.89080554214E+00  0.88000000000E+00 0. -1.
        -11    1    4    4    0    0 -0.70471018965E-02 -0.46570581183E-01  0.52040627544E-01  0.70192369336E-01  0.51100000000E-03 0.  1.
         11    1    4    4    0    0 -0.19026464401E-01 -0.47443731150E-01  0.30253811673E-01  0.59400910892E-01  0.51100000000E-03 0. -1.
</event>
<event>
 8    1  0.1079508E+005  0.1043930E+01  0.7957747E-01            NaN
         13   -1    0    0    0    0  0.00000000000E+00  0.00000000000E+00  0.74505805969E-08  0.10566000000E+00  0.10566000000E+00 0.  1.
     999900   -1    0    0    0    0 -0.00000000000E+00 -0.00000000000E+00 -0.74505805969E-08  0.93827000000E+00  0.93827000000E+00 0. -1.
     999902    2    1    2    0    0  0.17010080412E-01  0.16798188881E-01 -0.27978548643E-02  0.10198603100E+01  0.10195762364E+01 0.  0.
     999903    2    3    3    0    0 -0.53133249708E-01  0.11358711332E+00  0.34001553622E-01  0.13101702846E+00  0.16857685508E-01 0.  0.
         14    1    1    2    0    0 -0.17010080412E-01 -0.16798188881E-01  0.27978548643E-02  0.24069690010E-01  0.00000000000E+00 0.  1.
     999901    1    3    3    0    0  0.70143330121E-01 -0.96788924441E-01 -0.36799408486E-01  0.88884328153E+00  0.88000000000E+00 0. -1.
        -11    1    4    4    0    0 -0.23062864327E-01  0.65621070751E-01  0.23616905878E-01  0.73457742967E-01  0.51100000000E-03 0. -1.
         11    1    4    4    0    0 -0.30070385381E-01  0.47966042570E-01  0.10384647744E-01  0.57559285494E-01  0.51100000000E-03 0.  1.
</event>
<event>
 8    1  0.1079508E+005  0.1043930E+01  0.7957747E-01            NaN
         13   -1    0    0    0    0  0.00000000000E+00  0.00000000000E+00  0.74505805969E-08  0.10566000000E+00  0.10566000000E+00 0. -1.
     999900   -1    0    0    0    0 -0.00000000000E+00 -0.00000000000E+00 -0.74505805969E-08  0.93827000000E+00  0.93827000000E+00 0.  1.
     999902    2    1    2    0    0 -0.22436338862E-01  0.57779025155E-02 -0.93842625980E-03  0.10207426305E+01  0.10204792324E+01 0.  0.
     999903    2    3    3    0    0 -0.12538453451E+00 -0.35013487647E-01  0.22036447916E-01  0.13350528160E+00  0.19769404816E-01 0.  0.
         14    1    1    2    0    0  0.22436338862E-01 -0.57779025155E-02  0.93842625980E-03  0.23187369468E-01  0.00000000000E+00 0.  1.
     999901    1    3    3    0    0  0.10294819565E+00  0.40791390163E-01 -0.22974874176E-01  0.88723734893E+00  0.88000000000E+00 0.  1.
        -11    1    4    4    0    0 -0.15941154220E-01 -0.11557871928E-01  0.20249972199E-02  0.19800670093E-01  0.51100000000E-03 0. -1.
         11    1    4    4    0    0 -0.10944338029E+00 -0.23455615719E-01  0.20011450696E-01  0.11370461151E+00  0.51100000000E-03 0.  1.
</event>
<event>
 8    1  0.1079508E+005  0.1043930E+01  0.7957747E-01            NaN
         13   -1    0    0    0    0  0.00000000000E+00  0.00000000000E+00  0.74505805969E-08  0.10566000000E+00  0.10566000000E+00 0. -1.
     999900   -1    0    0    0    0 -0.00000000000E+00 -0.00000000000E+00 -0.74505805969E-08  0.93827000000E+00  0.93827000000E+00 0. -1.
     999902    2    1    2    0    0 -0.17141254980E-01 -0.14387495006E-01 -0.94539080775E-02  0.10196359881E+01  0.10193465305E+01 0.  0.
     999903    2    3    3    0    0  0.90017006044E-01  0.77539445160E-01  0.40230830698E-01  0.12699830771E+00  0.19865132525E-01 0.  0.
         14    1    1    2    0    0  0.17141254980E-01  0.14387495006E-01  0.94539080775E-02  0.24294011871E-01  0.00000000000E+00 0. -1.
     999901    1    3    3    0    0 -0.10715826102E+00 -0.91926940166E-01 -0.49684738775E-01  0.89263768042E+00  0.88000000000E+00 0. -1.
        -11    1    4    4    0    0  0.32418498725E-01  0.16699134162E-01  0.88180393258E-02  0.37521181749E-01  0.51100000000E-03 0. -1.
         11    1    4    4    0    0  0.57598507320E-01  0.60840310998E-01  0.31412791372E-01  0.89477125963E-01  0.51100000000E-03 0.  1.
</event>
<event>
 8    1  0.1079508E+005  0.1043930E+01  0.7957747E-01            NaN
         13   -1    0    0    0    0  0.00000000000E+00  0.00000000000E+00  0.74505805969E-08  0.10566000000E+00  0.10566000000E+00 0.  1.
     999900   -1    0    0    0    0 -0.00000000000E+00 -0.00000000000E+00 -0.74505805969E-08  0.93827000000E+00  0.93827000000E+00 0. -1.
     999902    2    1    2    0    0  0.17833393044E-01  0.14902495518E-01  0.41528734969E-02  0.10203215134E+01  0.10200483470E+01 0.  0.
     999903    2    3    3    0    0 -0.63564838422E-01 -0.75227721831E-01  0.80398354243E-01  0.12871481678E+00  0.20097509261E-01 0.  0.
         14    1    1    2    0    0 -0.17833393044E-01 -0.14902495518E-01 -0.41528734969E-02  0.23608486576E-01  0.00000000000E+00 0. -1.
     999901    1    3    3    0    0  0.81398231466E-01  0.90130217349E-01 -0.76245480746E-01  0.89160669664E+00  0.88000000000E+00 0.  1.
        -11    1    4    4    0    0 -0.38374375302E-03 -0.82922104529E-02  0.47955125586E-02  0.96003164095E-02  0.51100000000E-03 0. -1.
         11    1    4    4    0    0 -0.63181094669E-01 -0.66935511378E-01  0.75602841684E-01  0.11911450037E+00  0.51100000000E-03 0.  1.
</event>
<event>
 8    1  0.1079508E+005  0.1043930E+01  0.7957747E-01            NaN
         13   -1    0    0    0    0  0.00000000000E+00  0.00000000000E+00  0.74505805969E-08  0.10566000000E+00  0.10566000000E+00 0.  1.
     999900   -1    0    0    0    0 -0.00000000000E+00 -0.00000000000E+00 -0.74505805969E-08  0.93827000000E+00  0.93827000000E+00 0.  1.
     999902    2    1    2    0    0 -0.96186937232E-02 -0.25973096904E-01 -0.12386267225E-02  0.10162053678E+01  0.10158270987E+01 0.  0.
     999903    2    3    3    0    0  0.77076442943E-01 -0.86346200748E-01 -0.52229761174E-01  0.12842101668E+00  0.19171988222E-01 0.  0.
         14    1    1    2    0    0  0.96186937232E-02  0.25973096904E-01  0.12386267225E-02  0.27724632150E-01  0.00000000000E+00 0.  1.
     999901    1    3    3    0    0 -0.86695136667E-01  0.60373103844E-01  0.50991134451E-01  0.88778435117E+00  0.88000000000E+00 0. -1.
        -11    1    4    4    0    0  0.33429061585E-01 -0.46865550842E-01 -0.33746623390E-01  0.66730635584E-01  0.51100000000E-03 0.  1.
         11    1    4    4    0    0  0.43647381359E-01 -0.39480649906E-01 -0.18483137784E-01  0.61690381096E-01  0.51100000000E-03 0. -1.
</event>
<event>
 8    1  0.1079508E+005  0.1043930E+01  0.7957747E-01            NaN
         13   -1    0    0    0    0  0.00000000000E+00  0.00000000000E+00  0.74505805969E-08  0.10566000000E+00  0.10566000000E+00 0.  1.
     999900   -1    0    0    0    0 -0.00000000000E+00 -0.00000000000E+00 -0.74505805969E-08  0.93827000000E+00  0.93827000000E+00 0. -1.
     999902    2    1    2    0    0  0.67990515625E-02 -0.65777200228E-02  0.22153956092E-01  0.10198407644E+01  0.10195562238E+01 0.  0.
     999903    2    3    3    0    0 -0.29700325193E-01 -0.43347730231E-01  0.12034696320E+00  0.13286494463E+00  0.20213038518E-01 0.  0.
         14    1    1    2    0    0 -0.67990515625E-02  0.65777200228E-02 -0.22153956092E-01  0.24089235633E-01  0.00000000000E+00 0. -1.
     999901    1    3    3    0    0  0.36499376756E-01  0.36770010208E-01 -0.98193007111E-01  0.88697581974E+00  0.88000000000E+00 0. -1.
        -11    1    4    4    0    0 -0.48628703034E-02 -0.17352372845E-01  0.23927085207E-01  0.29958619435E-01  0.51100000000E-03 0. -1.
         11    1    4    4    0    0 -0.24837454890E-01 -0.25995357386E-01  0.96419877997E-01  0.10290632519E+00  0.51100000000E-03 0.  1.
</event>
<event>
 8    1  0.1079508E+005  0.1043930E+01  0.7957747E-01            NaN
         13   -1    0    0    0    0  0.00000000000E+00  0.00000000000E+00  0.74505805969E-08  0.10566000000E+00  0.10566000000E+00 0.  1.
     999900   -1    0    0    0    0 -0.00000000000E+00 -0.00000000000E+00 -0.74505805969E-08  0.93827000000E+00  0.93827000000E+00 0.  1.
     999902    2    1    2    0    0  0.19974368514E-01 -0.44531379089E-02  0.11214536394E-01  0.10205939408E+01  0.10203271143E+01 0.  0.
     999903    2    3    3    0    0 -0.70427202270E-02  0.29535249840E-02 -0.12771765356E+00  0.12925397466E+00  0.18343056354E-01 0.  0.
         14    1    1    2    0    0 -0.19974368514E-01  0.44531379089E-02 -0.11214536394E-01  0.23336059250E-01  0.00000000000E+00 0.  1.
     999901    1    3    3    0    0  0.27017088741E-01 -0.74066628929E-02  0.13893218996E+00  0.89133996609E+00  0.88000000000E+00 0. -1.
        -11    1    4    4    0    0 -0.16047991164E-02 -0.69488738658E-02 -0.74826873870E-01  0.75167708508E-01  0.51100000000E-03 0. -1.
         11    1    4    4    0    0 -0.54379211105E-02  0.99023988499E-02 -0.52890779693E-01  0.54086266154E-01  0.51100000000E-03 0.  1.
</event>
<event>
 8    1  0.1079508E+005  0.1043930E+01  0.7957747E-01            NaN
         13   -1    0    0    0    0  0.00000000000E+00  0.00000000000E+00  0.74505805969E-08  0.10566000000E+00  0.10566000000E+00 0.  1.
     999900   -1    0    0    0    0 -0.00000000000E+00 -0.00000000000E+00 -0.74505805969E-08  0.93827000000E+00  0.93827000000E+00 0. -1.
     999902    2    1    2    0    0  0.11201217733E-01 -0.25023306859E-01 -0.72422898139E-02  0.10155736263E+01  0.10151776724E+01 0.  0.
     999903    2    3    3    0    0  0.86674912246E-01 -0.76905681878E-01  0.51363504208E-01  0.12888162881E+00  0.23350382508E-01 0.  0.
         14    1    1    2    0    0 -0.11201217733E-01  0.25023306859E-01  0.72422898139E-02  0.28356373650E-01  0.00000000000E+00 0.  1.
     999901    1    3    3    0    0 -0.75473694514E-01  0.51882375019E-01 -0.58605794022E-01  0.88669199754E+00  0.88000000000E+00 0. -1.
        -11    1    4    4    0    0  0.15212700078E-01 -0.27145698277E-01  0.13289518107E-01  0.33840620431E-01  0.51100000000E-03 0.  1.
         11    1    4    4    0    0  0.71462212168E-01 -0.49759983600E-01  0.38073986101E-01  0.95041008383E-01  0.51100000000E-03 0. -1.
</event>
<event>
 8    1  0.1079508E+005  0.1043930E+01  0.7957747E-01            NaN
         13   -1    0    0    0    0  0.00000000000E+00  0.00000000000E+00  0.74505805969E-08  0.10566000000E+00  0.10566000000E+00 0.  1.
     999900   -1    0    0    0    0 -0.00000000000E+00 -0.00000000000E+00 -0.74505805969E-08  0.93827000000E+00  0.93827000000E+00 0. -1.
     999902    2    1    2    0    0 -0.59130505779E-02  0.15274254741E-01  0.17536770105E-01  0.10199340560E+01  0.10196517411E+01 0.  0.
     999903    2    3    3    0    0  0.99712002148E-01 -0.78379617923E-01  0.73646156209E-02  0.12862537073E+00  0.20109712920E-01 0.  0.
         14    1    1    2    0    0  0.59130505779E-02 -0.15274254741E-01 -0.17536770105E-01  0.23995944048E-01  0.00000000000E+00 0. -1.
     999901    1    3    3    0    0 -0.10562505273E+00  0.93653872664E-01  0.10172154484E-01  0.89130868522E+00  0.88000000000E+00 0. -1.
        -11    1    4    4    0    0  0.20382891769E-01 -0.75123824845E-02  0.46228953327E-02  0.22215545227E-01  0.51100000000E-03 0.  1.
         11    1    4    4    0    0  0.79329110379E-01 -0.70867235438E-01  0.27417202882E-02  0.10640982550E+00  0.51100000000E-03 0. -1.
</event>
<event>
 8    1  0.1079508E+005  0.1043930E+01  0.7957747E-01            NaN
         13   -1    0    0    0    0  0.00000000000E+00  0.00000000000E+00  0.74505805969E-08  0.10566000000E+00  0.10566000000E+00 0. -1.
     999900   -1    0    0    0    0 -0.00000000000E+00 -0.00000000000E+00 -0.74505805969E-08  0.93827000000E+00  0.93827000000E+00 0.  1.
     999902    2    1    2    0    0 -0.18194534621E-01  0.11186904096E-01 -0.10955363512E-01  0.10199256691E+01  0.10196431545E+01 0.  0.
     999903    2    3    3    0    0  0.77351401161E-02  0.12374629954E+00  0.37602949940E-01  0.13105004485E+00  0.19676213278E-01 0.  0.
         14    1    1    2    0    0  0.18194534621E-01 -0.11186904096E-01  0.10955363512E-01  0.24004330921E-01  0.00000000000E+00 0. -1.
     999901    1    3    3    0    0 -0.25929674737E-01 -0.11255939545E+00 -0.48558313452E-01  0.88887562422E+00  0.88000000000E+00 0.  1.
        -11    1    4    4    0    0 -0.60853699526E-02  0.38765295557E-01  0.83908439656E-02  0.40130378151E-01  0.51100000000E-03 0.  1.
         11    1    4    4    0    0  0.13820510069E-01  0.84981003986E-01  0.29212105974E-01  0.90919666703E-01  0.51100000000E-03 0. -1.
</event>
<event>
 8    1  0.1079508E+005  0.1043930E+01  0.7957747E-01            NaN
         13   -1    0    0    0    0  0.00000000000E+00  0.00000000000E+00  0.74505805969E-08  0.10566000000E+00  0.10566000000E+00 0. -1.
     999900   -1    0    0    0    0 -0.00000000000E+00 -0.00000000000E+00 -0.74505805969E-08  0.93827000000E+00  0.93827000000E+00 0. -1.
     999902    2    1    2    0    0 -0.13485899515E-01  0.13915250210E-01 -0.17324432303E-01  0.10179369311E+01  0.10176050099E+01 0.  0.
     999903    2    3    3    0    0 -0.55398714394E-01  0.86778964493E-01  0.75094042668E-01  0.12911356318E+00  0.20774761577E-01 0.  0.
         14    1    1    2    0    0  0.13485899515E-01 -0.13915250210E-01  0.17324432303E-01  0.25993068860E-01  0.00000000000E+00 0.  1.
     999901    1    3    3    0    0  0.41912814879E-01 -0.72863714283E-01 -0.92418474971E-01  0.88882336796E+00  0.88000000000E+00 0. -1.
        -11    1    4    4    0    0 -0.23570932352E-01  0.52981303359E-01  0.48569376623E-01  0.75642929769E-01  0.51100000000E-03 0. -1.
         11    1    4    4    0    0 -0.31827782042E-01  0.33797661134E-01  0.26524666046E-01  0.53470633414E-01  0.51100000000E-03 0.  1.
</event>
<event>
 8    1  0.1079508E+005  0.1043930E+01  0.7957747E-01            NaN
         13   -1    0    0    0    0  0.00000000000E+00  0.00000000000E+00  0.74505805969E-08  0.10566000000E+00  0.10566000000E+00 0. -1.
     999900   -1    0    0    0    0 -0.00000000000E+00 -0.00000000000E+00 -0.74505805969E-08  0.93827000000E+00  0.93827000000E+00 0.  1.
     999902    2    1    2    0    0 -0.18905191064E-01  0.78967298295E-02  0.97903734860E-02  0.10212228204E+01  0.10209703389E+01 0.  0.
     999903    2    3    3    0    0 -0.58227188330E-01  0.62367537351E-01  0.10107861326E+00  0.13395350897E+00  0.21131524559E-01 0.  0.
         14    1    1    2    0    0  0.18905191064E-01 -0.78967298295E-02 -0.97903734860E-02  0.22707179573E-01  0.00000000000E+00 0.  1.
     999901    1    3    3    0    0  0.39321997266E-01 -0.54470807521E-01 -0.91288239771E-01  0.88726931146E+00  0.88000000000E+00 0.  1.
        -11    1    4    4    0    0 -0.50074302481E-01  0.56057045968E-01  0.76279237430E-01  0.10709160264E+00  0.51100000000E-03 0.  1.
         11    1    4    4    0    0 -0.81528858498E-02  0.63104913828E-02  0.24799375827E-01  0.26861906328E-01  0.51100000000E-03 0. -1.
</event>
<event>
 8    1  0.1079508E+005  0.1043930E+01  0.7957747E-01            NaN
         13   -1    0    0    0    0  0.00000000000E+00  0.00000000000E+00  0.74505805969E-08  0.10566000000E+00  0.10566000000E+00 0.  1.
     999900   -1    0    0    0    0 -0.00000000000E+00 -0.00000000000E+00 -0.74505805969E-08  0.93827000000E+00  0.93827000000E+00 0. -1.
     999902    2    1    2    0    0 -0.60566138751E-02 -0.17418856731E-01  0.14927656693E-01  0.10202037682E+01  0.10199278379E+01 0.  0.
     999903    2    3    3    0    0 -0.50860959363E-02 -0.10908077574E+00 -0.69750009047E-01  0.13139942731E+00  0.21823421540E-01 0.  0.
         14    1    1    2    0    0  0.60566138751E-02  0.17418856731E-01 -0.14927656693E-01  0.23726231808E-01  0.00000000000E+00 0. -1.
     999901    1    3    3    0    0 -0.97051793879E-03  0.91661919004E-01  0.84677665740E-01  0.88880434088E+00  0.88000000000E+00 0.  1.
        -11    1    4    4    0    0  0.85332160678E-02 -0.49919782001E-01 -0.32080110807E-01  0.59951605832E-01  0.51100000000E-03 0.  1.
         11    1    4    4    0    0 -0.13619312004E-01 -0.59160993735E-01 -0.37669898241E-01  0.71447821476E-01  0.51100000000E-03 0. -1.
</event>
<event>
 8    1  0.1079508E+005  0.1043930E+01  0.7957747E-01            NaN
         13   -1    0    0    0    0  0.00000000000E+00  0.00000000000E+00  0.74505805969E-08  0.10566000000E+00  0.10566000000E+00 0. -1.
     999900   -1    0    0    0    0 -0.00000000000E+00 -0.00000000000E+00 -0.74505805969E-08  0.93827000000E+00  0.93827000000E+00 0. -1.
     999902    2    1    2    0    0  0.56509019398E-02 -0.23262394133E-01  0.38053508219E-02  0.10196905205E+01  0.10194023765E+01 0.  0.
     999903    2    3    3    0    0 -0.71288922378E-01  0.74497065754E-01  0.73810724272E-01  0.12818763158E+00  0.18764930409E-01 0.  0.
         14    1    1    2    0    0 -0.56509019398E-02  0.23262394133E-01 -0.38053508219E-02  0.24239479541E-01  0.00000000000E+00 0.  1.
     999901    1    3    3    0    0  0.76939824318E-01 -0.97759459887E-01 -0.70005373450E-01  0.89150288888E+00  0.88000000000E+00 0.  1.
        -11    1    4    4    0    0 -0.29816988735E-01  0.40171210845E-01  0.27030242085E-01  0.56865403420E-01  0.51100000000E-03 0. -1.
         11    1    4    4    0    0 -0.41471933643E-01  0.34325854910E-01  0.46780482187E-01  0.71322228162E-01  0.51100000000E-03 0.  1.
</event>
<event>
 8    1  0.1079508E+005  0.1043930E+01  0.7957747E-01            NaN
         13   -1    0    0    0    0  0.00000000000E+00  0.00000000000E+00  0.74505805969E-08  0.10566000000E+00  0.10566000000E+00 0.  1.
     999900   -1    0    0    0    0 -0.00000000000E+00 -0.00000000000E+00 -0.74505805969E-08  0.93827000000E+00  0.93827000000E+00 0. -1.
     999902    2    1    2    0    0  0.13143106156E-02  0.21011804394E-01  0.10264521335E-01  0.10205081355E+01  0.10202393204E+01 0.  0.
     999903    2    3    3    0    0 -0.94515278449E-01 -0.63827940135E-01 -0.56335802481E-01  0.12875890200E+00  0.19949646655E-01 0.  0.
         14    1    1    2    0    0 -0.13143106156E-02 -0.21011804394E-01 -0.10264521335E-01  0.23421864454E-01  0.00000000000E+00 0. -1.
     999901    1    3    3    0    0  0.95829589065E-01  0.84839744529E-01  0.66600323816E-01  0.89174923354E+00  0.88000000000E+00 0.  1.
        -11    1    4    4    0    0 -0.44320029466E-01 -0.26068179813E-01 -0.14999074685E-01  0.53563498514E-01  0.51100000000E-03 0.  1.
         11    1    4    4    0    0 -0.50195248983E-01 -0.37759760322E-01 -0.41336727796E-01  0.75195403489E-01  0.51100000000E-03 0. -1.
</event>
<event>
 8    1  0.1079508E+005  0.1043930E+01  0.7957747E-01            NaN
         13   -1    0    0    0    0  0.00000000000E+00  0.00000000000E+00  0.74505805969E-08  0.10566000000E+00  0.10566000000E+00 0. -1.
     999900   -1    0    0    0    0 -0.00000000000E+00 -0.00000000000E+00 -0.74505805969E-08  0.93827000000E+00  0.93827000000E+00 0. -1.
     999902    2    1    2    0    0 -0.84289500756E-02  0.11376600492E-02 -0.22494467736E-01  0.10198812464E+01  0.10195976727E+01 0.  0.
     999903    2    3    3    0    0 -0.98030109097E-01 -0.83208816599E-01  0.12792572936E-01  0.13061870304E+00  0.19078422720E-01 0.  0.
         14    1    1    2    0    0  0.84289500756E-02 -0.11376600492E-02  0.22494467736E-01  0.24048753574E-01  0.00000000000E+00 0. -1.
     999901    1    3    3    0    0  0.89601159021E-01  0.84346476648E-01 -0.35287040672E-01  0.88926254338E+00  0.88000000000E+00 0. -1.
        -11    1    4    4    0    0 -0.52631489687E-01 -0.46640777622E-01 -0.24285293347E-02  0.70367568663E-01  0.51100000000E-03 0.  1.
         11    1    4    4    0    0 -0.45398619409E-01 -0.36568038977E-01  0.15221102271E-01  0.60251134381E-01  0.51100000000E-03 0. -1.
</event>
<event>
 8    1  0.1079508E+005  0.1043930E+01  0.7957747E-01            NaN
         13   -1    0    0    0    0  0.00000000000E+00  0.00000000000E+00  0.74505805969E-08  0.10566000000E+00  0.10566000000E+00 0.  1.
     999900   -1    0    0    0    0 -0.00000000000E+00 -0.00000000000E+00 -0.74505805969E-08  0.93827000000E+00  0.93827000000E+00 0. -1.
     999902    2    1    2    0    0  0.10393137275E-01  0.16260034562E-01 -0.16036413404E-01  0.10188387150E+01  0.10185297024E+01 0.  0.
     999903    2    3    3    0    0  0.94864341140E-02  0.74697606330E-01 -0.10689430104E+00  0.13223230425E+00  0.19729821787E-01 0.  0.
         14    1    1    2    0    0 -0.10393137275E-01 -0.16260034562E-01  0.16036413404E-01  0.25091284966E-01  0.00000000000E+00 0.  1.
     999901    1    3    3    0    0  0.90670316116E-03 -0.58437571768E-01  0.90857887636E-01  0.88660641079E+00  0.88000000000E+00 0.  1.
        -11    1    4    4    0    0 -0.32762839704E-02  0.49162271867E-01 -0.68873912930E-01  0.84684945623E-01  0.51100000000E-03 0.  1.
         11    1    4    4    0    0  0.12762718084E-01  0.25535334463E-01 -0.38020388110E-01  0.47547358624E-01  0.51100000000E-03 0. -1.
</event>
<event>
 8    1  0.1079508E+005  0.1043930E+01  0.7957747E-01            NaN
         13   -1    0    0    0    0  0.00000000000E+00  0.00000000000E+00  0.74505805969E-08  0.10566000000E+00  0.10566000000E+00 0.  1.
     999900   -1    0    0    0    0 -0.00000000000E+00 -0.00000000000E+00 -0.74505805969E-08  0.93827000000E+00  0.93827000000E+00 0. -1.
     999902    2    1    2    0    0 -0.20968746758E-01 -0.96987309713E-02  0.42613405729E-02  0.10204371767E+01  0.10201667113E+01 0.  0.
     999903    2    3    3    0    0 -0.90313300847E-01  0.92942587229E-01  0.18481174245E-01  0.13164805039E+00  0.13958457605E-01 0.  0.
         14    1    1    2    0    0  0.20968746758E-01  0.96987309713E-02 -0.42613405729E-02  0.23492823299E-01  0.00000000000E+00 0.  1.
     999901    1    3    3    0    0  0.69344554089E-01 -0.10264131820E+00 -0.14219833672E-01  0.88878912631E+00  0.88000000000E+00 0.  1.
        -11    1    4    4    0    0 -0.31483974380E-01  0.23357933980E-01  0.45908087962E-02  0.39473666779E-01  0.51100000000E-03 0. -1.
         11    1    4    4    0    0 -0.58829326467E-01  0.69584653249E-01  0.13890365449E-01  0.92174383609E-01  0.51100000000E-03 0.  1.
</event>
<event>
 8    1  0.1079508E+005  0.1043930E+01  0.7957747E-01            NaN
         13   -1    0    0    0    0  0.00000000000E+00  0.00000000000E+00  0.74505805969E-08  0.10566000000E+00  0.10566000000E+00 0. -1.
     999900   -1    0    0    0    0 -0.00000000000E+00 -0.00000000000E+00 -0.74505805969E-08  0.93827000000E+00  0.93827000000E+00 0.  1.
     999902    2    1    2    0    0  0.88113563945E-02 -0.16958434917E-01  0.10788912497E-01  0.10219839491E+01  0.10217482875E+01 0.  0.
     999903    2    3    3    0    0  0.37899171635E-01 -0.97973817064E-01  0.82584342887E-01  0.13487393511E+00  0.18319078577E-01 0.  0.
         14    1    1    2    0    0 -0.88113563945E-02  0.16958434917E-01 -0.10788912497E-01  0.21946050880E-01  0.00000000000E+00 0.  1.
     999901    1    3    3    0    0 -0.29087815241E-01  0.81015382147E-01 -0.71795430390E-01  0.88711001401E+00  0.88000000000E+00 0. -1.
        -11    1    4    4    0    0  0.35672561095E-02 -0.19791257008E-01  0.85498579733E-02  0.21858187539E-01  0.51100000000E-03 0. -1.
         11    1    4    4    0    0  0.34331915526E-01 -0.78182560056E-01  0.74034484914E-01  0.11301574757E+00  0.51100000000E-03 0.  1.
</event>
<event>
 8    1  0.1079508E+005  0.1043930E+01  0.7957747E-01            NaN
         13   -1    0    0    0    0  0.00000000000E+00  0.00000000000E+00  0.74505805969E-08  0.10566000000E+00  0.10566000000E+00 0.  1.
     999900   -1    0    0    0    0 -0.00000000000E+00 -0.00000000000E+00 -0.74505805969E-08  0.93827000000E+00  0.93827000000E+00 0. -1.
     999902    2    1    2    0    0 -0.40578108145E-02 -0.19644032763E-01 -0.12598824386E-01  0.10202427835E+01  0.10199677706E+01 0.  0.
     999903    2    3    3    0    0 -0.65977204931E-01 -0.88872945529E-01  0.68536781968E-01  0.13164296332E+00  0.19524018299E-01 0.  0.
         14    1    1    2    0    0  0.40578108145E-02  0.19644032763E-01  0.12598824386E-01  0.23687216546E-01  0.00000000000E+00 0. -1.
     999901    1    3    3    0    0  0.61919394116E-01  0.69228912766E-01 -0.81135606354E-01  0.88859982014E+00  0.88000000000E+00 0. -1.
        -11    1    4    4    0    0 -0.36001241687E-01 -0.59725952028E-01  0.34928470997E-01  0.77997038122E-01  0.51100000000E-03 0.  1.
         11    1    4    4    0    0 -0.29975963244E-01 -0.29146993501E-01  0.33608310971E-01  0.53645925194E-01  0.51100000000E-03 0. -1.
</event>
<event>
 8    1  0.1079508E+005  0.1043930E+01  0.7957747E-01            NaN
         13   -1    0    0    0    0  0.00000000000E+00  0.00000000000E+00  0.74505805969E-08  0.10566000000E+00  0.10566000000E+00 0.  1.
     999900   -1    0    0    0    0 -0.00000000000E+00 -0.00000000000E+00 -0.74505805969E-08  0.93827000000E+00  0.93827000000E+00 0. -1.
     999902    2    1    2    0    0 -0.19936074548E-01 -0.11679322581E-01 -0.46749043661E-02  0.10203565324E+01  0.10200841852E+01 0.  0.
     999903    2    3    3    0    0 -0.91983807317E-01 -0.22954183788E-01 -0.91318626190E-01  0.13309944855E+00  0.19709296108E-01 0.  0.
         14    1    1    2    0    0  0.19936074548E-01  0.11679322581E-01  0.46749043661E-02  0.23573467610E-01  0.00000000000E+00 0.  1.
     999901    1    3    3    0    0  0.72047732770E-01  0.11274861207E-01  0.86643721824E-01  0.88725708384E+00  0.88000000000E+00 0.  1.
        -11    1    4    4    0    0 -0.27066113356E-01 -0.14783016398E-01 -0.36091764652E-01  0.47476190482E-01  0.51100000000E-03 0.  1.
         11    1    4    4    0    0 -0.64917693961E-01 -0.81711673903E-02 -0.55226861538E-01  0.85623258068E-01  0.51100000000E-03 0. -1.
</event>
<event>
 8    1  0.1079508E+005  0.1043930E+01  0.7957747E-01            NaN
         13   -1    0    0    0    0  0.00000000000E+00  0.00000000000E+00  0.74505805969E-08  0.10566000000E+00  0.10566000000E+00 0.  1.
     999900   -1    0    0    0    0 -0.00000000000E+00 -0.00000000000E+00 -0.74505805969E-08  0.93827000000E+00  0.93827000000E+00 0. -1.
     999902    2    1    2    0    0  0.15216292394E-02  0.28566361265E-01 -0.16219271835E-02  0.10152771991E+01  0.10148728039E+01 0.  0.
     999903    2    3    3    0    0  0.20711926592E-01 -0.51323634225E-01 -0.10996849615E+00  0.12483368158E+00  0.20670717876E-01 0.  0.
         14    1    1    2    0    0 -0.15216292394E-02 -0.28566361265E-01  0.16219271835E-02  0.28652800897E-01  0.00000000000E+00 0.  1.
     999901    1    3    3    0    0 -0.19190297352E-01  0.79889995490E-01  0.10834656897E+00  0.89044351752E+00  0.88000000000E+00 0.  1.
        -11    1    4    4    0    0  0.28908199491E-02 -0.28760746096E-01 -0.68691818741E-01  0.74527608569E-01  0.51100000000E-03 0. -1.
         11    1    4    4    0    0  0.17821106643E-01 -0.22562888129E-01 -0.41276677411E-01  0.50306073011E-01  0.51100000000E-03 0.  1.
</event>
<event>
 8    1  0.1079508E+005  0.1043930E+01  0.7957747E-01            NaN
         13   -1    0    0    0    0  0.00000000000E+00  0.00000000000E+00  0.74505805969E-08  0.10566000000E+00  0.10566000000E+00 0.  1.
     999900   -1    0    0    0    0 -0.00000000000E+00 -0.00000000000E+00 -0.74505805969E-08  0.93827000000E+00  0.93827000000E+00 0.  1.
     999902    2    1    2    0    0  0.19783122393E-01 -0.32834593221E-02  0.11575252795E-01  0.10207753133E+01  0.10205126657E+01 0.  0.
     999903    2    3    3    0    0 -0.49058148139E-01  0.10525179323E+00  0.55813163643E-01  0.13033945696E+00  0.19713521492E-01 0.  0.
         14    1    1    2    0    0 -0.19783122393E-01  0.32834593221E-02 -0.11575252795E-01  0.23154686653E-01  0.00000000000E+00 0. -1.
     999901    1    3    3    0    0  0.68841270533E-01 -0.10853525255E+00 -0.44237910848E-01  0.89043585638E+00  0.88000000000E+00 0.  1.
        -11    1    4    4    0    0 -0.14444051218E-01  0.36765858708E-01  0.29172654327E-01  0.49108694379E-01  0.51100000000E-03 0. -1.
         11    1    4    4    0    0 -0.34614096922E-01  0.68485934519E-01  0.26640509316E-01  0.81230762586E-01  0.51100000000E-03 0.  1.
</event>
<event>
 8    1  0.1079508E+005  0.1043930E+01  0.7957747E-01            NaN
         13   -1    0    0    0    0  0.00000000000E+00  0.00000000000E+00  0.74505805969E-08  0.10566000000E+00  0.10566000000E+00 0.  1.
     999900   -1    0    0    0    0 -0.00000000000E+00 -0.00000000000E+00 -0.74505805969E-08  0.93827000000E+00  0.93827000000E+00 0.  1.
     999902    2    1    2    0    0  0.16689721498E-01  0.10567645397E-01 -0.13201676366E-01  0.10201706610E+01  0.10198939510E+01 0.  0.
     999903    2    3    3    0    0 -0.31549441436E-01  0.10577119069E+00  0.68151659016E-01  0.12999702786E+00  0.84656123130E-02 0.  0.
         14    1    1    2    0    0 -0.16689721498E-01 -0.10567645397E-01  0.13201676366E-01  0.23759339044E-01  0.00000000000E+00 0.  1.
     999901    1    3    3    0    0  0.48239162934E-01 -0.95203545293E-01 -0.81353335382E-01  0.89017363309E+00  0.88000000000E+00 0.  1.
        -11    1    4    4    0    0 -0.88933897390E-02  0.33433308289E-01  0.17016122505E-01  0.38557593678E-01  0.51100000000E-03 0. -1.
         11    1    4    4    0    0 -0.22656051697E-01  0.72337882401E-01  0.51135536511E-01  0.91439434185E-01  0.51100000000E-03 0.  1.
</event>
<event>
 8    1  0.1079508E+005  0.1043930E+01  0.7957747E-01            NaN
         13   -1    0    0    0    0  0.00000000000E+00  0.00000000000E+00  0.74505805969E-08  0.10566000000E+00  0.10566000000E+00 0. -1.
     999900   -1    0    0    0    0 -0.00000000000E+00 -0.00000000000E+00 -0.74505805969E-08  0.93827000000E+00  0.93827000000E+00 0.  1.
     999902    2    1    2    0    0  0.19609675330E-01  0.54442613642E-02  0.12763333451E-01  0.10199074683E+01  0.10196245200E+01 0.  0.
     999903    2    3    3    0    0 -0.11952744539E+00  0.10949280997E-01 -0.38097370031E-01  0.12750831167E+00  0.20006573530E-01 0.  0.
         14    1    1    2    0    0 -0.19609675330E-01 -0.54442613642E-02 -0.12763333451E-01  0.24022531697E-01  0.00000000000E+00 0.  1.
     999901    1    3    3    0    0  0.13913712072E+00 -0.55050196330E-02  0.50860703482E-01  0.89239915664E+00  0.88000000000E+00 0.  1.
        -11    1    4    4    0    0 -0.90573384949E-01  0.28735447416E-02 -0.35525097459E-01  0.97334932018E-01  0.51100000000E-03 0. -1.
         11    1    4    4    0    0 -0.28954060445E-01  0.80757362556E-02 -0.25722725720E-02  0.30173379650E-01  0.51100000000E-03 0.  1.
</event>
<event>
 8    1  0.1079508E+005  0.1043930E+01  0.7957747E-01            NaN
         13   -1    0    0    0    0  0.00000000000E+00  0.00000000000E+00  0.74505805969E-08  0.10566000000E+00  0.10566000000E+00 0. -1.
     999900   -1    0    0    0    0 -0.00000000000E+00 -0.00000000000E+00 -0.74505805969E-08  0.93827000000E+00  0.93827000000E+00 0. -1.
     999902    2    1    2    0    0 -0.81741804610E-02 -0.70331451594E-02  0.22160537806E-01  0.10192850859E+01  0.10189871022E+01 0.  0.
     999903    2    3    3    0    0 -0.83094008040E-01  0.12695893075E-01  0.10084871968E+00  0.13238371283E+00  0.17005389992E-01 0.  0.
         14    1    1    2    0    0  0.81741804610E-02  0.70331451594E-02 -0.22160537806E-01  0.24644914138E-01  0.00000000000E+00 0.  1.
     999901    1    3    3    0    0  0.74919827578E-01 -0.19729038235E-01 -0.78688181876E-01  0.88690137303E+00  0.88000000000E+00 0. -1.
        -11    1    4    4    0    0 -0.63178148005E-01  0.16790814204E-01  0.74984307080E-01  0.99480235505E-01  0.51100000000E-03 0.  1.
         11    1    4    4    0    0 -0.19915860034E-01 -0.40949211282E-02  0.25864412602E-01  0.32903477327E-01  0.51100000000E-03 0. -1.
</event>
<event>
 8    1  0.1079508E+005  0.1043930E+01  0.7957747E-01            NaN
         13   -1    0    0    0    0  0.00000000000E+00  0.00000000000E+00  0.74505805969E-08  0.10566000000E+00  0.10566000000E+00 0.  1.
     999900   -1    0    0    0    0 -0.00000000000E+00 -0.00000000000E+00 -0.74505805969E-08  0.93827000000E+00  0.93827000000E+00 0. -1.
     999902    2    1    2    0    0 -0.17242482504E-01  0.55720125320E-03  0.15578067415E-01  0.10206858640E+01  0.10204211596E+01 0.  0.
     999903    2    3    3    0    0  0.11990317001E+00  0.43099865652E-01  0.24830635042E-02  0.12895143744E+00  0.19696167554E-01 0.  0.
         14    1    1    2    0    0  0.17242482504E-01 -0.55720125320E-03 -0.15578067415E-01  0.23244136046E-01  0.00000000000E+00 0. -1.
     999901    1    3    3    0    0 -0.13714565251E+00 -0.42542664399E-01  0.13095003911E-01  0.89173442651E+00  0.88000000000E+00 0.  1.
        -11    1    4    4    0    0  0.88135921131E-02  0.82422695434E-02  0.32882990426E-02  0.12517525504E-01  0.51100000000E-03 0.  1.
         11    1    4    4    0    0  0.11108957790E+00  0.34857596109E-01 -0.80523553841E-03  0.11643391194E+00  0.51100000000E-03 0. -1.
</event>
<event>
 8    1  0.1079508E+005  0.1043930E+01  0.7957747E-01            NaN
         13   -1    0    0    0    0  0.00000000000E+00  0.00000000000E+00  0.74505805969E-08  0.10566000000E+00  0.10566000000E+00 0.  1.
     999900   -1    0    0    0    0 -0.00000000000E+00 -0.00000000000E+00 -0.74505805969E-08  0.93827000000E+00  0.93827000000E+00 0.  1.
     999902    2    1    2    0    0  0.30681012773E-02  0.59985001508E-02 -0.25848088461E-01  0.10172182249E+01  0.10168674438E+01 0.  0.
     999903    2    3    3    0    0  0.19278726896E-01 -0.19358977742E-01 -0.12651356004E+00  0.13096807784E+00  0.20012926049E-01 0.  0.
         14    1    1    2    0    0 -0.30681012773E-02 -0.59985001508E-02  0.25848088461E-01  0.26711775055E-01  0.00000000000E+00 0.  1.
     999901    1    3    3    0    0 -0.16210625619E-01  0.25357477893E-01  0.10066547158E+00  0.88625014710E+00  0.88000000000E+00 0. -1.
        -11    1    4    4    0    0  0.78737110177E-02 -0.20156462636E-01 -0.68577996263E-01  0.71913009975E-01  0.51100000000E-03 0. -1.
         11    1    4    4    0    0  0.11405015879E-01  0.79748489425E-03 -0.57935563782E-01  0.59055067869E-01  0.51100000000E-03 0.  1.
</event>
<event>
 8    1  0.1079508E+005  0.1043930E+01  0.7957747E-01            NaN
         13   -1    0    0    0    0  0.00000000000E+00  0.00000000000E+00  0.74505805969E-08  0.10566000000E+00  0.10566000000E+00 0.  1.
     999900   -1    0    0    0    0 -0.00000000000E+00 -0.00000000000E+00 -0.74505805969E-08  0.93827000000E+00  0.93827000000E+00 0. -1.
     999902    2    1    2    0    0 -0.64171073223E-02 -0.32543768777E-02  0.21804280970E-01  0.10209692312E+01  0.10207110140E+01 0.  0.
     999903    2    3    3    0    0 -0.12433550807E+00  0.17557194970E-01  0.37958919271E-01  0.13271316277E+00  0.20107967544E-01 0.  0.
         14    1    1    2    0    0  0.64171073223E-02  0.32543768777E-02 -0.21804280970E-01  0.22960768799E-01  0.00000000000E+00 0. -1.
     999901    1    3    3    0    0  0.11791840075E+00 -0.20811571848E-01 -0.16154638301E-01  0.88825606843E+00  0.88000000000E+00 0. -1.
        -11    1    4    4    0    0 -0.10517229091E+00  0.17653525561E-01  0.38904694056E-01  0.11351957576E+00  0.51100000000E-03 0.  1.
         11    1    4    4    0    0 -0.19163217158E-01 -0.96330591077E-04 -0.94577478565E-03  0.19193587012E-01  0.51100000000E-03 0. -1.
</event>
<event>
 8    1  0.1079508E+005  0.1043930E+01  0.7957747E-01            NaN
         13   -1    0    0    0    0  0.00000000000E+00  0.00000000000E+00  0.74505805969E-08  0.10566000000E+00  0.10566000000E+00 0. -1.
     999900   -1    0    0    0    0 -0.00000000000E+00 -0.00000000000E+00 -0.74505805969E-08  0.93827000000E+00  0.93827000000E+00 0. -1.
     999902    2    1    2    0    0  0.16989992993E-01 -0.13086671365E-01 -0.10095142706E-01  0.10202269889E+01  0.10199516048E+01 0.  0.
     999903    2    3    3    0    0 -0.68104613557E-01  0.10279575408E+00 -0.29447882408E-01  0.12835011559E+00  0.20034194490E-01 0.  0.
         14    1    1    2    0    0 -0.16989992993E-01  0.13086671365E-01  0.10095142706E-01  0.23703011108E-01  0.00000000000E+00 0. -1.
     999901    1    3    3    0    0  0.85094606550E-01 -0.11588242545E+00  0.19352739702E-01  0.89187687330E+00  0.88000000000E+00 0.  1.
        -11    1    4    4    0    0 -0.47782675382E-01  0.80099856335E-01 -0.29684103426E-01  0.97880427914E-01  0.51100000000E-03 0. -1.
         11    1    4    4    0    0 -0.20321938175E-01  0.22695897750E-01  0.23622101823E-03  0.30469687679E-01  0.51100000000E-03 0.  1.
</event>
<event>
 8    1  0.1079508E+005  0.1043930E+01  0.7957747E-01            NaN
         13   -1    0    0    0    0  0.00000000000E+00  0.00000000000E+00  0.74505805969E-08  0.10566000000E+00  0.10566000000E+00 0. -1.
     999900   -1    0    0    0    0 -0.00000000000E+00 -0.00000000000E+00 -0.74505805969E-08  0.93827000000E+00  0.93827000000E+00 0.  1.
     999902    2    1    2    0    0 -0.53657673753E-02  0.68322205853E-02  0.20305169048E-01  0.10218444711E+01  0.10216057716E+01 0.  0.
     999903    2    3    3    0    0  0.12184017280E+00 -0.43873763019E-01  0.25618523051E-02  0.13107667121E+00  0.20114568323E-01 0.  0.
         14    1    1    2    0    0  0.53657673753E-02 -0.68322205853E-02 -0.20305169048E-01  0.22085528921E-01  0.00000000000E+00 0.  1.
     999901    1    3    3    0    0 -0.12720594018E+00  0.50705983605E-01  0.17743316743E-01  0.89076779987E+00  0.88000000000E+00 0.  1.
        -11    1    4    4    0    0  0.48171870163E-01 -0.23008346220E-01  0.93838354104E-02  0.54205447686E-01  0.51100000000E-03 0. -1.
         11    1    4    4    0    0  0.73668302639E-01 -0.20865416799E-01 -0.68219831053E-02  0.76871223526E-01  0.51100000000E-03 0.  1.
</event>
<event>
 8    1  0.1079508E+005  0.1043930E+01  0.7957747E-01            NaN
         13   -1    0    0    0    0  0.00000000000E+00  0.00000000000E+00  0.74505805969E-08  0.10566000000E+00  0.10566000000E+00 0. -1.
     999900   -1    0    0    0    0 -0.00000000000E+00 -0.00000000000E+00 -0.74505805969E-08  0.93827000000E+00  0.93827000000E+00 0. -1.
     999902    2    1    2    0    0 -0.22755749641E-01  0.27885323056E-03  0.36098440292E-02  0.10208880193E+01  0.10206279513E+01 0.  0.
     999903    2    3    3    0    0 -0.81775736526E-01  0.20369594620E-01 -0.10036914547E+00  0.13257578421E+00  0.20004542665E-01 0.  0.
         14    1    1    2    0    0  0.22755749641E-01 -0.27885323056E-03 -0.36098440292E-02  0.23041980704E-01  0.00000000000E+00 0. -1.
     999901    1    3    3    0    0  0.59019986885E-01 -0.20090741390E-01  0.10397898950E+00  0.88831223508E+00  0.88000000000E+00 0.  1.
        -11    1    4    4    0    0 -0.33957376946E-01 -0.63816658061E-03 -0.46003844667E-01  0.57185011592E-01  0.51100000000E-03 0.  1.
         11    1    4    4    0    0 -0.47818359580E-01  0.21007761201E-01 -0.54365300806E-01  0.75390772621E-01  0.51100000000E-03 0. -1.
</event>
<event>
 8    1  0.1079508E+005  0.1043930E+01  0.7957747E-01            NaN
         13   -1    0    0    0    0  0.00000000000E+00  0.00000000000E+00  0.74505805969E-08  0.10566000000E+00  0.10566000000E+00 0. -1.
     999900   -1    0    0    0    0 -0.00000000000E+00 -0.00000000000E+00 -0.74505805969E-08  0.93827000000E+00  0.93827000000E+00 0. -1.
     999902    2    1    2    0    0  0.94413280659E-02  0.24931750210E-02 -0.22159813961E-01  0.10197140558E+01  0.10194264778E+01 0.  0.
     999903    2    3    3    0    0 -0.69349974659E-01  0.15546134551E-02 -0.11057244376E+00  0.13178064425E+00  0.18111793735E-01 0.  0.
         14    1    1    2    0    0 -0.94413280659E-02 -0.24931750210E-02  0.22159813961E-01  0.24215944172E-01  0.00000000000E+00 0. -1.
     999901    1    3    3    0    0  0.78791302725E-01  0.93856156592E-03  0.88412629800E-01  0.88793341157E+00  0.88000000000E+00 0.  1.
        -11    1    4    4    0    0 -0.71431914074E-02 -0.52518922981E-02 -0.17518738445E-01  0.19641152561E-01  0.51100000000E-03 0.  1.
         11    1    4    4    0    0 -0.62206783251E-01  0.68065057532E-02 -0.93053705316E-01  0.11213949169E+00  0.51100000000E-03 0. -1.
</event>
<event>
 8    1  0.1079508E+005  0.1043930E+01  0.7957747E-01            NaN
         13   -1    0    0    0    0  0.00000000000E+00  0.00000000000E+00  0.74505805969E-08  0.10566000000E+00  0.10566000000E+00 0. -1.
     999900   -1    0    0    0    0 -0.00000000000E+00 -0.00000000000E+00 -0.74505805969E-08  0.93827000000E+00  0.93827000000E+00 0.  1.
     999902    2    1    2    0    0  0.21552197927E-01  0.42622181503E-02 -0.88534891028E-02  0.10202435480E+01  0.10199685531E+01 0.  0.
     999903    2    3    3    0    0  0.29950631590E-01 -0.74920151356E-01 -0.10222387196E+00  0.13172882684E+00  0.19816518612E-01 0.  0.
         14    1    1    2    0    0 -0.21552197927E-01 -0.42622181503E-02  0.88534891028E-02  0.23686452000E-01  0.00000000000E+00 0.  1.
     999901    1    3    3    0    0 -0.83984336628E-02  0.79182369506E-01  0.93370382856E-01  0.88851472116E+00  0.88000000000E+00 0. -1.
        -11    1    4    4    0    0  0.22491751861E-01 -0.44956550900E-01 -0.49042172807E-01  0.70230806668E-01  0.51100000000E-03 0.  1.
         11    1    4    4    0    0  0.74588797284E-02 -0.29963600456E-01 -0.53181699152E-01  0.61498020169E-01  0.51100000000E-03 0. -1.
</event>
<event>
 8    1  0.1079508E+005  0.1043930E+01  0.7957747E-01            NaN
         13   -1    0    0    0    0  0.00000000000E+00  0.00000000000E+00  0.74505805969E-08  0.10566000000E+00  0.10566000000E+00 0.  1.
     999900   -1    0    0    0    0 -0.00000000000E+00 -0.00000000000E+00 -0.74505805969E-08  0.93827000000E+00  0.93827000000E+00 0.  1.
     999902    2    1    2    0    0  0.18458819764E-01 -0.14323316384E-01 -0.33865246569E-02  0.10203216547E+01  0.10200484915E+01 0.  0.
     999903    2    3    3    0    0  0.11257573647E+00 -0.68736340466E-01 -0.88471182658E-02  0.13361505762E+00  0.19409564050E-01 0.  0.
         14    1    1    2    0    0 -0.18458819764E-01  0.14323316384E-01  0.33865246569E-02  0.23608345317E-01  0.00000000000E+00 0.  1.
     999901    1    3    3    0    0 -0.94116916710E-01  0.54413024082E-01  0.54605936090E-02  0.88670659707E+00  0.88000000000E+00 0.  1.
        -11    1    4    4    0    0  0.19473907231E-01 -0.17902209961E-01 -0.76137301988E-02  0.27530931566E-01  0.51100000000E-03 0. -1.
         11    1    4    4    0    0  0.93101829243E-01 -0.50834130505E-01 -0.12333880670E-02  0.10608412605E+00  0.51100000000E-03 0.  1.
</event>
<event>
 8    1  0.1079508E+005  0.1043930E+01  0.7957747E-01            NaN
         13   -1    0    0    0    0  0.00000000000E+00  0.00000000000E+00  0.74505805969E-08  0.10566000000E+00  0.10566000000E+00 0. -1.
     999900   -1    0    0    0    0 -0.00000000000E+00 -0.00000000000E+00 -0.74505805969E-08  0.93827000000E+00  0.93827000000E+00 0.  1.
     999902    2    1    2    0    0 -0.14057042919E-01 -0.92215124488E-02  0.16464551934E-01  0.10203987821E+01  0.10201274216E+01 0.  0.
     999903    2    3    3    0    0  0.94828686771E-01 -0.85551711557E-01  0.18528273684E-01  0.13040627626E+00  0.18732986353E-01 0.  0.
         14    1    1    2    0    0  0.14057042919E-01  0.92215124488E-02 -0.16464551934E-01  0.23531217942E-01  0.00000000000E+00 0.  1.
     999901    1    3    3    0    0 -0.10888572969E+00  0.76330199108E-01 -0.20637217496E-02  0.88999250580E+00  0.88000000000E+00 0. -1.
        -11    1    4    4    0    0  0.13625517121E-01 -0.92832883893E-02  0.84843100944E-02  0.18549361146E-01  0.51100000000E-03 0. -1.
         11    1    4    4    0    0  0.81203169650E-01 -0.76268423167E-01  0.10043963589E-01  0.11185691512E+00  0.51100000000E-03 0.  1.
</event>
<event>
 8    1  0.1079508E+005  0.1043930E+01  0.7957747E-01            NaN
         13   -1    0    0    0    0  0.00000000000E+00  0.00000000000E+00  0.74505805969E-08  0.10566000000E+00  0.10566000000E+00 0.  1.
     999900   -1    0    0    0    0 -0.00000000000E+00 -0.00000000000E+00 -0.74505805969E-08  0.93827000000E+00  0.93827000000E+00 0. -1.
     999902    2    1    2    0    0 -0.29754422093E-01 -0.14313295993E-01  0.12346905668E-01  0.10086788701E+01  0.10080627068E+01 0.  0.
     999903    2    3    3    0    0  0.27827253927E-02  0.27675760665E-01 -0.11314598719E+00  0.11819012064E+00  0.19829243809E-01 0.  0.
         14    1    1    2    0    0  0.29754422093E-01  0.14313295993E-01 -0.12346905668E-01  0.35251129852E-01  0.00000000000E+00 0. -1.
     999901    1    3    3    0    0 -0.32537147486E-01 -0.41989056658E-01  0.12549289286E+00  0.89048874951E+00  0.88000000000E+00 0.  1.
        -11    1    4    4    0    0 -0.40267519622E-02  0.77917116069E-03 -0.35394112270E-01  0.35634620013E-01  0.51100000000E-03 0.  1.
         11    1    4    4    0    0  0.68094773549E-02  0.26896589504E-01 -0.77751874921E-01  0.82555500625E-01  0.51100000000E-03 0. -1.
</event>
<event>
 8    1  0.1079508E+005  0.1043930E+01  0.7957747E-01            NaN
         13   -1    0    0    0    0  0.00000000000E+00  0.00000000000E+00  0.74505805969E-08  0.10566000000E+00  0.10566000000E+00 0. -1.
     999900   -1    0    0    0    0 -0.00000000000E+00 -0.00000000000E+00 -0.74505805969E-08  0.93827000000E+00  0.93827000000E+00 0. -1.
     999902    2    1    2    0    0 -0.17665499751E-01 -0.14959236941E-01  0.26360751323E-02  0.10206319841E+01  0.10203660370E+01 0.  0.
     999903    2    3    3    0    0 -0.20869567481E-01  0.96487122822E-01 -0.81297917960E-01  0.12963508607E+00  0.21227349320E-01 0.  0.
         14    1    1    2    0    0  0.17665499751E-01  0.14959236941E-01 -0.26360751323E-02  0.23298015868E-01  0.00000000000E+00 0.  1.
     999901    1    3    3    0    0  0.32040677307E-02 -0.11144635976E+00  0.83933993092E-01  0.89099689806E+00  0.88000000000E+00 0.  1.
        -11    1    4    4    0    0 -0.46280212568E-02  0.31254989107E-01 -0.39059313433E-01  0.50241258062E-01  0.51100000000E-03 0. -1.
         11    1    4    4    0    0 -0.16241546225E-01  0.65232133715E-01 -0.42238604527E-01  0.79393828010E-01  0.51100000000E-03 0.  1.
</event>
<event>
 8    1  0.1079508E+005  0.1043930E+01  0.7957747E-01            NaN
         13   -1    0    0    0    0  0.00000000000E+00  0.00000000000E+00  0.74505805969E-08  0.10566000000E+00  0.10566000000E+00 0.  1.
     999900   -1    0    0    0    0 -0.00000000000E+00 -0.00000000000E+00 -0.74505805969E-08  0.93827000000E+00  0.93827000000E+00 0.  1.
     999902    2    1    2    0    0 -0.14466438391E-01 -0.13357711485E-01  0.13044056754E-01  0.10203110730E+01  0.10200376620E+01 0.  0.
     999903    2    3    3    0    0  0.82009906914E-01  0.61968349082E-01  0.76315714026E-01  0.12958945363E+00  0.20090723360E-01 0.  0.
         14    1    1    2    0    0  0.14466438391E-01  0.13357711485E-01 -0.13044056754E-01  0.23618926996E-01  0.00000000000E+00 0. -1.
     999901    1    3    3    0    0 -0.96476345305E-01 -0.75326060568E-01 -0.63271657273E-01  0.89072161937E+00  0.88000000000E+00 0.  1.
        -11    1    4    4    0    0  0.22980959294E-01  0.96242435165E-02  0.26002964759E-01  0.36016188729E-01  0.51100000000E-03 0.  1.
         11    1    4    4    0    0  0.59028947620E-01  0.52344105566E-01  0.50312749268E-01  0.93573264903E-01  0.51100000000E-03 0. -1.
</event>
<event>
 8    1  0.1079508E+005  0.1043930E+01  0.7957747E-01            NaN
         13   -1    0    0    0    0  0.00000000000E+00  0.00000000000E+00  0.74505805969E-08  0.10566000000E+00  0.10566000000E+00 0. -1.
     999900   -1    0    0    0    0 -0.00000000000E+00 -0.00000000000E+00 -0.74505805969E-08  0.93827000000E+00  0.93827000000E+00 0.  1.
     999902    2    1    2    0    0  0.19867976554E-01 -0.99458250237E-02  0.37951937069E-02  0.10213898265E+01  0.10211410863E+01 0.  0.
     999903    2    3    3    0    0  0.38916978237E-01  0.10911253141E+00 -0.58069999548E-01  0.13101627630E+00  0.19314867378E-01 0.  0.
         14    1    1    2    0    0 -0.19867976554E-01  0.99458250237E-02 -0.37951937069E-02  0.22540173536E-01  0.00000000000E+00 0. -1.
     999901    1    3    3    0    0 -0.19049001683E-01 -0.11905835643E+00  0.61865193255E-01  0.89037355017E+00  0.88000000000E+00 0.  1.
        -11    1    4    4    0    0  0.23612129341E-01  0.40345587493E-01 -0.19063422659E-01  0.50487367595E-01  0.51100000000E-03 0.  1.
         11    1    4    4    0    0  0.15304848895E-01  0.68766943915E-01 -0.39006576889E-01  0.80528908702E-01  0.51100000000E-03 0. -1.
</event>
<event>
 8    1  0.1079508E+005  0.1043930E+01  0.7957747E-01            NaN
         13   -1    0    0    0    0  0.00000000000E+00  0.00000000000E+00  0.74505805969E-08  0.10566000000E+00  0.10566000000E+00 0.  1.
     999900   -1    0    0    0    0 -0.00000000000E+00 -0.00000000000E+00 -0.74505805969E-08  0.93827000000E+00  0.93827000000E+00 0. -1.
     999902    2    1    2    0    0  0.13353028726E-02  0.44981531866E-02 -0.23401462399E-01  0.10200627660E+01  0.10197835073E+01 0.  0.
     999903    2    3    3    0    0  0.91971050574E-01  0.86219025576E-01  0.26076181285E-01  0.13026437482E+00  0.19910941749E-01 0.  0.
         14    1    1    2    0    0 -0.13353028726E-02 -0.44981531866E-02  0.23401462399E-01  0.23867233989E-01  0.00000000000E+00 0.  1.
     999901    1    3    3    0    0 -0.90635747701E-01 -0.81720872389E-01 -0.49477643684E-01  0.88979839119E+00  0.88000000000E+00 0. -1.
        -11    1    4    4    0    0  0.42221770899E-01  0.45125081542E-01  0.22029704106E-01  0.65608840151E-01  0.51100000000E-03 0. -1.
         11    1    4    4    0    0  0.49749279675E-01  0.41093944034E-01  0.40464771788E-02  0.64655534666E-01  0.51100000000E-03 0.  1.
</event>
<event>
 7    1  0.1205053E+005  0.1043930E+01  0.7957747E-01            NaN
         13   -1    0    0    0    0  0.00000000000E+00  0.00000000000E+00  0.74505805969E-08  0.10566000000E+00  0.10566000000E+00 0.  1.
     999900   -1    0    0    0    0 -0.00000000000E+00 -0.00000000000E+00 -0.74505805969E-08  0.93827000000E+00  0.93827000000E+00 0.  1.
     999903    2    1    2    0    0 -0.71178307655E-01  0.55831557017E-01  0.34413557188E-01  0.99080253586E-01  0.21191731706E-01 0.  0.
         14    1    1    2    0    0  0.36533786820E-01 -0.25069209316E-02  0.46116700346E-01  0.58887624190E-01  0.00000000000E+00 0.  1.
     999901    1    1    2    0    0  0.34644520835E-01 -0.53324636085E-01 -0.80530257534E-01  0.88596212222E+00  0.88000000000E+00 0.  1.
        -11    1    3    3    0    0 -0.24322185525E-01  0.71918584498E-02  0.89868959004E-02  0.26913137231E-01  0.51100000000E-03 0. -1.
         11    1    3    3    0    0 -0.46856122130E-01  0.48639698567E-01  0.25426661288E-01  0.72167116355E-01  0.51100000000E-03 0.  1.
</event>
<event>
 8    1  0.1079508E+005  0.1043930E+01  0.7957747E-01            NaN
         13   -1    0    0    0    0  0.00000000000E+00  0.00000000000E+00  0.74505805969E-08  0.10566000000E+00  0.10566000000E+00 0.  1.
     999900   -1    0    0    0    0 -0.00000000000E+00 -0.00000000000E+00 -0.74505805969E-08  0.93827000000E+00  0.93827000000E+00 0. -1.
     999902    2    1    2    0    0  0.19376284547E-01  0.88595995249E-02 -0.10004711902E-01  0.10203922183E+01  0.10201207046E+01 0.  0.
     999903    2    3    3    0    0  0.65949683339E-01  0.91493878502E-01 -0.68244965529E-01  0.13338070053E+00  0.20311214081E-01 0.  0.
         14    1    1    2    0    0 -0.19376284547E-01 -0.88595995249E-02  0.10004711902E-01  0.23537781689E-01  0.00000000000E+00 0.  1.
     999901    1    3    3    0    0 -0.46573398792E-01 -0.82634278977E-01  0.58240253628E-01  0.88701151778E+00  0.88000000000E+00 0.  1.
        -11    1    4    4    0    0  0.49138023706E-01  0.55958455305E-01 -0.36973558300E-01  0.83145650687E-01  0.51100000000E-03 0.  1.
         11    1    4    4    0    0  0.16811659633E-01  0.35535423197E-01 -0.31271407229E-01  0.50235049841E-01  0.51100000000E-03 0. -1.
</event>
<event>
 8    1  0.1079508E+005  0.1043930E+01  0.7957747E-01            NaN
         13   -1    0    0    0    0  0.00000000000E+00  0.00000000000E+00  0.74505805969E-08  0.10566000000E+00  0.10566000000E+00 0. -1.
     999900   -1    0    0    0    0 -0.00000000000E+00 -0.00000000000E+00 -0.74505805969E-08  0.93827000000E+00  0.93827000000E+00 0.  1.
     999902    2    1    2    0    0 -0.20236247580E-01 -0.18503680395E-01  0.21467297087E-02  0.10164254485E+01  0.10160532427E+01 0.  0.
     999903    2    3    3    0    0 -0.23612124969E-01 -0.12471357516E+00  0.18355530262E-01  0.12988460709E+00  0.20544522210E-01 0.  0.
         14    1    1    2    0    0  0.20236247580E-01  0.18503680395E-01 -0.21467297087E-02  0.27504551490E-01  0.00000000000E+00 0. -1.
     999901    1    3    3    0    0  0.33758773899E-02  0.10620989476E+00 -0.16208800553E-01  0.88654084142E+00  0.88000000000E+00 0.  1.
        -11    1    4    4    0    0 -0.10378670683E-01 -0.41614014188E-01  0.15762666262E-01  0.45696452277E-01  0.51100000000E-03 0. -1.
         11    1    4    4    0    0 -0.13233454286E-01 -0.83099560970E-01  0.25928640003E-02  0.84188154811E-01  0.51100000000E-03 0.  1.
</event>
<event>
 8    1  0.1079508E+005  0.1043930E+01  0.7957747E-01            NaN
         13   -1    0    0    0    0  0.00000000000E+00  0.00000000000E+00  0.74505805969E-08  0.10566000000E+00  0.10566000000E+00 0. -1.
     999900   -1    0    0    0    0 -0.00000000000E+00 -0.00000000000E+00 -0.74505805969E-08  0.93827000000E+00  0.93827000000E+00 0.  1.
     999902    2    1    2    0    0 -0.22464998357E-01  0.71025100583E-02  0.12207863043E-02  0.10203373715E+01  0.10200645762E+01 0.  0.
     999903    2    3    3    0    0 -0.63569250836E-01  0.88558991907E-01  0.73061625458E-01  0.13270804336E+00  0.19740287690E-01 0.  0.
         14    1    1    2    0    0  0.22464998357E-01 -0.71025100583E-02 -0.12207863043E-02  0.23592628499E-01  0.00000000000E+00 0. -1.
     999901    1    3    3    0    0  0.41104252480E-01 -0.81456481849E-01 -0.71840839154E-01  0.88762932814E+00  0.88000000000E+00 0. -1.
        -11    1    4    4    0    0 -0.12750853800E-01  0.25451966038E-01  0.10523949223E-01  0.30354595633E-01  0.51100000000E-03 0.  1.
         11    1    4    4    0    0 -0.50818397036E-01  0.63107025869E-01  0.62537676236E-01  0.10235344773E+00  0.51100000000E-03 0. -1.
</event>
<event>
 8    1  0.1079508E+005  0.1043930E+01  0.7957747E-01            NaN
         13   -1    0    0    0    0  0.00000000000E+00  0.00000000000E+00  0.74505805969E-08  0.10566000000E+00  0.10566000000E+00 0.  1.
     999900   -1    0    0    0    0 -0.00000000000E+00 -0.00000000000E+00 -0.74505805969E-08  0.93827000000E+00  0.93827000000E+00 0. -1.
     999902    2    1    2    0    0  0.17981409567E-01 -0.13825097670E-01  0.66002672566E-02  0.10203073849E+01  0.10200338876E+01 0.  0.
     999903    2    3    3    0    0  0.13162560756E+00 -0.10158472452E-02 -0.16270129947E-02  0.13286906662E+00  0.18033557099E-01 0.  0.
         14    1    1    2    0    0 -0.17981409567E-01  0.13825097670E-01 -0.66002672566E-02  0.23622615085E-01  0.00000000000E+00 0.  1.
     999901    1    3    3    0    0 -0.11364419800E+00 -0.12809250424E-01  0.82272802512E-02  0.88743831829E+00  0.88000000000E+00 0.  1.
        -11    1    4    4    0    0  0.12412616693E+00 -0.30718234669E-02 -0.52477620904E-02  0.12427606988E+00  0.51100000000E-03 0. -1.
         11    1    4    4    0    0  0.74994406317E-02  0.20559762218E-02  0.36207490958E-02  0.85929967431E-02  0.51100000000E-03 0.  1.
</event>
<event>
 8    1  0.1079508E+005  0.1043930E+01  0.7957747E-01            NaN
         13   -1    0    0    0    0  0.00000000000E+00  0.00000000000E+00  0.74505805969E-08  0.10566000000E+00  0.10566000000E+00 0.  1.
     999900   -1    0    0    0    0 -0.00000000000E+00 -0.00000000000E+00 -0.74505805969E-08  0.93827000000E+00  0.93827000000E+00 0.  1.
     999902    2    1    2    0    0  0.16711802493E-01  0.62213488347E-03 -0.17090967836E-01  0.10200182335E+01  0.10197379193E+01 0.  0.
     999903    2    3    3    0    0  0.97771663003E-01  0.73865089199E-01 -0.47345447986E-01  0.13274681794E+00  0.19099129294E-01 0.  0.
         14    1    1    2    0    0 -0.16711802493E-01 -0.62213488347E-03  0.17090967836E-01  0.23911766475E-01  0.00000000000E+00 0.  1.
     999901    1    3    3    0    0 -0.81059860510E-01 -0.73242954316E-01  0.30254480151E-01  0.88727141558E+00  0.88000000000E+00 0.  1.
        -11    1    4    4    0    0  0.47630215518E-01  0.36349003551E-01 -0.33362087461E-01  0.68579716318E-01  0.51100000000E-03 0.  1.
         11    1    4    4    0    0  0.50141447485E-01  0.37516085648E-01 -0.13983360526E-01  0.64167101624E-01  0.51100000000E-03 0. -1.
</event>
<event>
 8    1  0.1079508E+005  0.1043930E+01  0.7957747E-01            NaN
         13   -1    0    0    0    0  0.00000000000E+00  0.00000000000E+00  0.74505805969E-08  0.10566000000E+00  0.10566000000E+00 0. -1.
     999900   -1    0    0    0    0 -0.00000000000E+00 -0.00000000000E+00 -0.74505805969E-08  0.93827000000E+00  0.93827000000E+00 0. -1.
     999902    2    1    2    0    0  0.37842135123E-02  0.12099664701E-01  0.19968215308E-01  0.10202772670E+01  0.10200030636E+01 0.  0.
     999903    2    3    3    0    0  0.60099154522E-01 -0.80793679071E-01  0.82106629289E-01  0.13142310097E+00  0.19773870224E-01 0.  0.
         14    1    1    2    0    0 -0.37842135123E-02 -0.12099664701E-01 -0.19968215308E-01  0.23652733043E-01  0.00000000000E+00 0.  1.
     999901    1    3    3    0    0 -0.56314941010E-01  0.92893343772E-01 -0.62138413981E-01  0.88885416599E+00  0.88000000000E+00 0.  1.
        -11    1    4    4    0    0  0.19800133828E-01 -0.40778528150E-01  0.42869792068E-01  0.62394020953E-01  0.51100000000E-03 0. -1.
         11    1    4    4    0    0  0.40299020694E-01 -0.40015150921E-01  0.39236837222E-01  0.69029080019E-01  0.51100000000E-03 0.  1.
</event>
<event>
 8    1  0.1079508E+005  0.1043930E+01  0.7957747E-01            NaN
         13   -1    0    0    0    0  0.00000000000E+00  0.00000000000E+00  0.74505805969E-08  0.10566000000E+00  0.10566000000E+00 0.  1.
     999900   -1    0    0    0    0 -0.00000000000E+00 -0.00000000000E+00 -0.74505805969E-08  0.93827000000E+00  0.93827000000E+00 0. -1.
     999902    2    1    2    0    0  0.85805761512E-02  0.22584317204E-01 -0.20144305906E-02  0.10196867411E+01  0.10193985062E+01 0.  0.
     999903    2    3    3    0    0 -0.86766339497E-01 -0.85264678845E-01  0.31863169891E-01  0.12734704566E+00  0.20088437347E-01 0.  0.
         14    1    1    2    0    0 -0.85805761512E-02 -0.22584317204E-01  0.20144305906E-02  0.24243258882E-01  0.00000000000E+00 0. -1.
     999901    1    3    3    0    0  0.95346915648E-01  0.10784899605E+00 -0.33877600481E-01  0.89233969546E+00  0.88000000000E+00 0. -1.
        -11    1    4    4    0    0 -0.35869501057E-01 -0.34948577813E-01  0.23391323900E-01  0.55276028729E-01  0.51100000000E-03 0. -1.
         11    1    4    4    0    0 -0.50896838440E-01 -0.50316101032E-01  0.84718459905E-02  0.72071016933E-01  0.51100000000E-03 0.  1.
</event>
<event>
 8    1  0.1079508E+005  0.1043930E+01  0.7957747E-01            NaN
         13   -1    0    0    0    0  0.00000000000E+00  0.00000000000E+00  0.74505805969E-08  0.10566000000E+00  0.10566000000E+00 0. -1.
     999900   -1    0    0    0    0 -0.00000000000E+00 -0.00000000000E+00 -0.74505805969E-08  0.93827000000E+00  0.93827000000E+00 0. -1.
     999902    2    1    2    0    0  0.13369972161E-01  0.19597055064E-01  0.46448181652E-02  0.10197561493E+01  0.10194695822E+01 0.  0.
     999903    2    3    3    0    0 -0.23540884187E-02  0.13104076973E+00 -0.16385452218E-02  0.13256596208E+00  0.19845009646E-01 0.  0.
         14    1    1    2    0    0 -0.13369972161E-01 -0.19597055064E-01 -0.46448181652E-02  0.24173850719E-01  0.00000000000E+00 0.  1.
     999901    1    3    3    0    0  0.15724060580E-01 -0.11144371466E+00  0.62833633870E-02  0.88719018721E+00  0.88000000000E+00 0.  1.
        -11    1    4    4    0    0  0.32077079755E-02  0.90784946060E-02 -0.40350967258E-02  0.10452348126E-01  0.51100000000E-03 0.  1.
         11    1    4    4    0    0 -0.55617963942E-02  0.12196227512E+00  0.23965515041E-02  0.12211361395E+00  0.51100000000E-03 0. -1.
</event>
<event>
 8    1  0.1079508E+005  0.1043930E+01  0.7957747E-01            NaN
         13   -1    0    0    0    0  0.00000000000E+00  0.00000000000E+00  0.74505805969E-08  0.10566000000E+00  0.10566000000E+00 0.  1.
     999900   -1    0    0    0    0 -0.00000000000E+00 -0.00000000000E+00 -0.74505805969E-08  0.93827000000E+00  0.93827000000E+00 0.  1.
     999902    2    1    2    0    0 -0.22609612295E-01  0.71282980772E-02  0.37219283573E-02  0.10199329178E+01  0.10196505759E+01 0.  0.
     999903    2    3    3    0    0  0.78528614591E-01  0.45830753091E-01 -0.88483901403E-01  0.12851341165E+00  0.20471808149E-01 0.  0.
         14    1    1    2    0    0  0.22609612295E-01 -0.71282980772E-02 -0.37219283573E-02  0.23997082163E-01  0.00000000000E+00 0.  1.
     999901    1    3    3    0    0 -0.10113822689E+00 -0.38702455014E-01  0.92205829761E-01  0.89141950618E+00  0.88000000000E+00 0.  1.
        -11    1    4    4    0    0  0.20990698059E-01  0.20398337840E-01 -0.37274575408E-01  0.47395745426E-01  0.51100000000E-03 0.  1.
         11    1    4    4    0    0  0.57537916533E-01  0.25432415251E-01 -0.51209325995E-01  0.81117666228E-01  0.51100000000E-03 0. -1.
</event>
<event>
 8    1  0.1079508E+005  0.1043930E+01  0.7957747E-01            NaN
         13   -1    0    0    0    0  0.00000000000E+00  0.00000000000E+00  0.74505805969E-08  0.10566000000E+00  0.10566000000E+00 0.  1.
     999900   -1    0    0    0    0 -0.00000000000E+00 -0.00000000000E+00 -0.74505805969E-08  0.93827000000E+00  0.93827000000E+00 0. -1.
     999902    2    1    2    0    0 -0.21821862820E-01 -0.99335929341E-02  0.55074132892E-02  0.10193291552E+01  0.10190322492E+01 0.  0.
     999903    2    3    3    0    0  0.74509076966E-01 -0.30737810815E-01 -0.97112076269E-01  0.12790152205E+00  0.20775668976E-01 0.  0.
         14    1    1    2    0    0  0.21821862820E-01  0.99335929341E-02 -0.55074132892E-02  0.24600844836E-01  0.00000000000E+00 0.  1.
     999901    1    3    3    0    0 -0.96330939786E-01  0.20804217881E-01  0.10261948956E+00  0.89142763311E+00  0.88000000000E+00 0.  1.
        -11    1    4    4    0    0  0.22298773799E-01 -0.19737968698E-04 -0.31536593497E-01  0.38627109042E-01  0.51100000000E-03 0. -1.
         11    1    4    4    0    0  0.52210303167E-01 -0.30718072847E-01 -0.65575482772E-01  0.89274413008E-01  0.51100000000E-03 0.  1.
</event>
<event>
 8    1  0.1079508E+005  0.1043930E+01  0.7957747E-01            NaN
         13   -1    0    0    0    0  0.00000000000E+00  0.00000000000E+00  0.74505805969E-08  0.10566000000E+00  0.10566000000E+00 0. -1.
     999900   -1    0    0    0    0 -0.00000000000E+00 -0.00000000000E+00 -0.74505805969E-08  0.93827000000E+00  0.93827000000E+00 0. -1.
     999902    2    1    2    0    0 -0.23859316444E-01  0.41979963710E-03  0.21969018603E-02  0.10199660773E+01  0.10196845244E+01 0.  0.
     999903    2    3    3    0    0  0.91361593297E-01  0.87682599786E-01 -0.13086051576E-02  0.12816848654E+00  0.19755238764E-01 0.  0.
         14    1    1    2    0    0  0.23859316444E-01 -0.41979963710E-03 -0.21969018603E-02  0.23963922690E-01  0.00000000000E+00 0. -1.
     999901    1    3    3    0    0 -0.11522090974E+00 -0.87262800148E-01  0.35055070179E-02  0.89179759077E+00  0.88000000000E+00 0. -1.
        -11    1    4    4    0    0  0.58925588350E-01  0.63651571887E-01 -0.85187213797E-02  0.87158346135E-01  0.51100000000E-03 0. -1.
         11    1    4    4    0    0  0.32436004947E-01  0.24031027899E-01  0.72101162222E-02  0.41010140401E-01  0.51100000000E-03 0.  1.
</event>
<event>
 8    1  0.1079508E+005  0.1043930E+01  0.7957747E-01            NaN
         13   -1    0    0    0    0  0.00000000000E+00  0.00000000000E+00  0.74505805969E-08  0.10566000000E+00  0.10566000000E+00 0. -1.
     999900   -1    0    0    0    0 -0.00000000000E+00 -0.00000000000E+00 -0.74505805969E-08  0.93827000000E+00  0.93827000000E+00 0.  1.
     999902    2    1    2    0    0  0.13792898195E-01 -0.69831675067E-02 -0.16063903385E-01  0.10216352100E+01  0.10213919153E+01 0.  0.
     999903    2    3    3    0    0  0.92667856641E-01 -0.93230843921E-01 -0.12174965366E-01  0.13389930074E+00  0.22393549170E-01 0.  0.
         14    1    1    2    0    0 -0.13792898195E-01  0.69831675067E-02  0.16063903385E-01  0.22294789997E-01  0.00000000000E+00 0. -1.
     999901    1    3    3    0    0 -0.78874958445E-01  0.86247676414E-01 -0.38889380184E-02  0.88773590926E+00  0.88000000000E+00 0. -1.
        -11    1    4    4    0    0  0.80760738070E-01 -0.86248403220E-01 -0.16769824551E-01  0.11934224737E+00  0.51100000000E-03 0.  1.
         11    1    4    4    0    0  0.11907118570E-01 -0.69824407011E-02  0.45948591851E-02  0.14557053367E-01  0.51100000000E-03 0. -1.
</event>
<event>
 8    1  0.1079508E+005  0.1043930E+01  0.7957747E-01            NaN
         13   -1    0    0    0    0  0.00000000000E+00  0.00000000000E+00  0.74505805969E-08  0.10566000000E+00  0.10566000000E+00 0.  1.
     999900   -1    0    0    0    0 -0.00000000000E+00 -0.00000000000E+00 -0.74505805969E-08  0.93827000000E+00  0.93827000000E+00 0. -1.
     999902    2    1    2    0    0 -0.46980705018E-03  0.23213033807E-01  0.53020225889E-02  0.10201145197E+01  0.10198364851E+01 0.  0.
     999903    2    3    3    0    0  0.16177454813E-01  0.11071858922E+00 -0.68368565597E-01  0.13255510813E+00  0.19397935079E-01 0.  0.
         14    1    1    2    0    0  0.46980705018E-03 -0.23213033807E-01 -0.53020225889E-02  0.23815480275E-01  0.00000000000E+00 0. -1.
     999901    1    3    3    0    0 -0.16647261864E-01 -0.87505555413E-01  0.73670588186E-01  0.88755941160E+00  0.88000000000E+00 0.  1.
        -11    1    4    4    0    0  0.17924775489E-01  0.96748144376E-01 -0.65426728776E-01  0.11816268013E+00  0.51100000000E-03 0. -1.
         11    1    4    4    0    0 -0.17473206760E-02  0.13970444844E-01 -0.29418368205E-02  0.14392427994E-01  0.51100000000E-03 0.  1.
</event>
<event>
 8    1  0.1079508E+005  0.1043930E+01  0.7957747E-01            NaN
         13   -1    0    0    0    0  0.00000000000E+00  0.00000000000E+00  0.74505805969E-08  0.10566000000E+00  0.10566000000E+00 0.  1.
     999900   -1    0    0    0    0 -0.00000000000E+00 -0.00000000000E+00 -0.74505805969E-08  0.93827000000E+00  0.93827000000E+00 0. -1.
     999902    2    1    2    0    0  0.13581293351E-01 -0.27770259302E-01  0.16279269422E-01  0.10089921488E+01  0.10083870799E+01 0.  0.
     999903    2    3    3    0    0  0.34873977856E-01 -0.70080632323E-03 -0.11201851494E+00  0.11902223071E+00  0.20036423194E-01 0.  0.
         14    1    1    2    0    0 -0.13581293351E-01  0.27770259302E-01 -0.16279269422E-01  0.34937851160E-01  0.00000000000E+00 0. -1.
     999901    1    3    3    0    0 -0.21292684505E-01 -0.27069452978E-01  0.12829778436E+00  0.88996991813E+00  0.88000000000E+00 0.  1.
        -11    1    4    4    0    0  0.11130783816E-01 -0.83588840082E-02 -0.26503050999E-01  0.29940576539E-01  0.51100000000E-03 0.  1.
         11    1    4    4    0    0  0.23743194040E-01  0.76580776849E-02 -0.85515463938E-01  0.89081654175E-01  0.51100000000E-03 0. -1.
</event>
<event>
 8    1  0.1079508E+005  0.1043930E+01  0.7957747E-01            NaN
         13   -1    0    0    0    0  0.00000000000E+00  0.00000000000E+00  0.74505805969E-08  0.10566000000E+00  0.10566000000E+00 0.  1.
     999900   -1    0    0    0    0 -0.00000000000E+00 -0.00000000000E+00 -0.74505805969E-08  0.93827000000E+00  0.93827000000E+00 0.  1.
     999902    2    1    2    0    0 -0.15752401285E-01 -0.10241205004E-01  0.14689939483E-01  0.10200801625E+01  0.10198013156E+01 0.  0.
     999903    2    3    3    0    0 -0.12437938426E+00  0.23153207177E-01 -0.30290352235E-01  0.13163307076E+00  0.20086255243E-01 0.  0.
         14    1    1    2    0    0  0.15752401285E-01  0.10241205004E-01 -0.14689939483E-01  0.23849837488E-01  0.00000000000E+00 0. -1.
     999901    1    3    3    0    0  0.10862698297E+00 -0.33394412180E-01  0.44980291718E-01  0.88844709175E+00  0.88000000000E+00 0. -1.
        -11    1    4    4    0    0 -0.50339454399E-02  0.36160258320E-02 -0.52364571038E-02  0.81300586412E-02  0.51100000000E-03 0.  1.
         11    1    4    4    0    0 -0.11934543882E+00  0.19537181345E-01 -0.25053895131E-01  0.12350301212E+00  0.51100000000E-03 0. -1.
</event>
<event>
 8    1  0.1079508E+005  0.1043930E+01  0.7957747E-01            NaN
         13   -1    0    0    0    0  0.00000000000E+00  0.00000000000E+00  0.74505805969E-08  0.10566000000E+00  0.10566000000E+00 0.  1.
     999900   -1    0    0    0    0 -0.00000000000E+00 -0.00000000000E+00 -0.74505805969E-08  0.93827000000E+00  0.93827000000E+00 0.  1.
     999902    2    1    2    0    0 -0.15071420711E-01 -0.11270271886E-01  0.14242684440E-01  0.10203287117E+01  0.10200557137E+01 0.  0.
     999903    2    3    3    0    0  0.58830465867E-01  0.11196101187E+00  0.14409641616E-01  0.12867436945E+00  0.18792649851E-01 0.  0.
         14    1    1    2    0    0  0.15071420711E-01  0.11270271886E-01 -0.14242684440E-01  0.23601288327E-01  0.00000000000E+00 0. -1.
     999901    1    3    3    0    0 -0.73901886578E-01 -0.12323128375E+00 -0.16695717549E-03  0.89165434223E+00  0.88000000000E+00 0.  1.
        -11    1    4    4    0    0  0.10342897821E-01  0.23626826633E-01  0.10436787935E-01  0.27827866168E-01  0.51100000000E-03 0. -1.
         11    1    4    4    0    0  0.48487568045E-01  0.88334185236E-01  0.39728536806E-02  0.10084650328E+00  0.51100000000E-03 0.  1.
</event>
<event>
 8    1  0.1079508E+005  0.1043930E+01  0.7957747E-01            NaN
         13   -1    0    0    0    0  0.00000000000E+00  0.00000000000E+00  0.74505805969E-08  0.10566000000E+00  0.10566000000E+00 0.  1.
     999900   -1    0    0    0    0 -0.00000000000E+00 -0.00000000000E+00 -0.74505805969E-08  0.93827000000E+00  0.93827000000E+00 0.  1.
     999902    2    1    2    0    0  0.17856818589E-01  0.10684108425E-01  0.11285300227E-01  0.10202577769E+01  0.10199831162E+01 0.  0.
     999903    2    3    3    0    0 -0.43125962851E-01 -0.80481635819E-02 -0.11925905194E+00  0.12834319274E+00  0.18017548191E-01 0.  0.
         14    1    1    2    0    0 -0.17856818589E-01 -0.10684108425E-01 -0.11285300227E-01  0.23672223051E-01  0.00000000000E+00 0.  1.
     999901    1    3    3    0    0  0.60982781441E-01  0.18732272006E-01  0.13054435217E+00  0.89191458421E+00  0.88000000000E+00 0. -1.
        -11    1    4    4    0    0 -0.40205498758E-01 -0.20628336794E-02 -0.94955211407E-01  0.10313821167E+00  0.51100000000E-03 0.  1.
         11    1    4    4    0    0 -0.29204640931E-02 -0.59853299025E-02 -0.24303840536E-01  0.25204981062E-01  0.51100000000E-03 0. -1.
</event>
<event>
 8    1  0.1079508E+005  0.1043930E+01  0.7957747E-01            NaN
         13   -1    0    0    0    0  0.00000000000E+00  0.00000000000E+00  0.74505805969E-08  0.10566000000E+00  0.10566000000E+00 0.  1.
     999900   -1    0    0    0    0 -0.00000000000E+00 -0.00000000000E+00 -0.74505805969E-08  0.93827000000E+00  0.93827000000E+00 0. -1.
     999902    2    1    2    0    0 -0.23714173896E-01  0.50222366510E-02 -0.56922729306E-02  0.10190304643E+01  0.10187262146E+01 0.  0.
     999903    2    3    3    0    0  0.67082987694E-01 -0.33390774129E-01 -0.10218773534E+00  0.12828299272E+00  0.19978036250E-01 0.  0.
         14    1    1    2    0    0  0.23714173896E-01 -0.50222366510E-02  0.56922729306E-02  0.24899535652E-01  0.00000000000E+00 0.  1.
     999901    1    3    3    0    0 -0.90797161590E-01  0.38413010780E-01  0.96495462407E-01  0.89074747163E+00  0.88000000000E+00 0.  1.
        -11    1    4    4    0    0  0.54381021593E-01 -0.33148064504E-01 -0.75897816279E-01  0.99079913841E-01  0.51100000000E-03 0. -1.
         11    1    4    4    0    0  0.12701966101E-01 -0.24270962522E-03 -0.26289919058E-01  0.29203078877E-01  0.51100000000E-03 0.  1.
</event>
<event>
 8    1  0.1079508E+005  0.1043930E+01  0.7957747E-01            NaN
         13   -1    0    0    0    0  0.00000000000E+00  0.00000000000E+00  0.74505805969E-08  0.10566000000E+00  0.10566000000E+00 0. -1.
     999900   -1    0    0    0    0 -0.00000000000E+00 -0.00000000000E+00 -0.74505805969E-08  0.93827000000E+00  0.93827000000E+00 0. -1.
     999902    2    1    2    0    0  0.23194873984E-01 -0.26930064881E-03 -0.40744555723E-02  0.10203784419E+01  0.10201066066E+01 0.  0.
     999903    2    3    3    0    0  0.38494402319E-01 -0.30112852855E-01 -0.12101343079E+00  0.13200946611E+00  0.19840508899E-01 0.  0.
         14    1    1    2    0    0 -0.23194873984E-01  0.26930064881E-03  0.40744555723E-02  0.23551558126E-01  0.00000000000E+00 0.  1.
     999901    1    3    3    0    0 -0.15299528335E-01  0.29843552206E-01  0.11693897522E+00  0.88836897576E+00  0.88000000000E+00 0.  1.
        -11    1    4    4    0    0  0.52033100866E-02 -0.13178082346E-01 -0.47187264355E-01  0.49271039450E-01  0.51100000000E-03 0. -1.
         11    1    4    4    0    0  0.33291092232E-01 -0.16934770509E-01 -0.73826166437E-01  0.82738426659E-01  0.51100000000E-03 0.  1.
</event>
<event>
 8    1  0.1079508E+005  0.1043930E+01  0.7957747E-01            NaN
         13   -1    0    0    0    0  0.00000000000E+00  0.00000000000E+00  0.74505805969E-08  0.10566000000E+00  0.10566000000E+00 0.  1.
     999900   -1    0    0    0    0 -0.00000000000E+00 -0.00000000000E+00 -0.74505805969E-08  0.93827000000E+00  0.93827000000E+00 0.  1.
     999902    2    1    2    0    0 -0.30353087842E-02  0.20914429853E-01 -0.98641535653E-02  0.10206077359E+01  0.10203412285E+01 0.  0.
     999903    2    3    3    0    0  0.12952914374E-01  0.88986331170E-01 -0.96628677933E-01  0.13358040281E+00  0.20500670462E-01 0.  0.
         14    1    1    2    0    0  0.30353087842E-02 -0.20914429853E-01  0.98641535653E-02  0.23322264064E-01  0.00000000000E+00 0. -1.
     999901    1    3    3    0    0 -0.15988223158E-01 -0.68071901316E-01  0.86764524368E-01  0.88702733313E+00  0.88000000000E+00 0. -1.
        -11    1    4    4    0    0  0.12954095469E-01  0.69560811569E-01 -0.86214496512E-01  0.11153347312E+00  0.51100000000E-03 0. -1.
         11    1    4    4    0    0 -0.11810954340E-05  0.19425519601E-01 -0.10414181421E-01  0.22046929692E-01  0.51100000000E-03 0.  1.
</event>
<event>
 8    1  0.1079508E+005  0.1043930E+01  0.7957747E-01            NaN
         13   -1    0    0    0    0  0.00000000000E+00  0.00000000000E+00  0.74505805969E-08  0.10566000000E+00  0.10566000000E+00 0. -1.
     999900   -1    0    0    0    0 -0.00000000000E+00 -0.00000000000E+00 -0.74505805969E-08  0.93827000000E+00  0.93827000000E+00 0. -1.
     999902    2    1    2    0    0 -0.76271547794E-02  0.18398417566E-01 -0.12144950959E-01  0.10206024392E+01  0.10203358093E+01 0.  0.
     999903    2    3    3    0    0  0.67452042170E-01  0.10510394740E+00 -0.40117871783E-01  0.13271887757E+00  0.20204926991E-01 0.  0.
         14    1    1    2    0    0  0.76271547794E-02 -0.18398417566E-01  0.12144950959E-01  0.23327560797E-01  0.00000000000E+00 0. -1.
     999901    1    3    3    0    0 -0.75079196949E-01 -0.86705529836E-01  0.27972920824E-01  0.88788356163E+00  0.88000000000E+00 0. -1.
        -11    1    4    4    0    0  0.61674499344E-01  0.10188058789E+00 -0.34411198243E-01  0.12396688971E+00  0.51100000000E-03 0.  1.
         11    1    4    4    0    0  0.57775428258E-02  0.32233595099E-02 -0.57066735396E-02  0.87519878612E-02  0.51100000000E-03 0. -1.
</event>
<event>
 8    1  0.1079508E+005  0.1043930E+01  0.7957747E-01            NaN
         13   -1    0    0    0    0  0.00000000000E+00  0.00000000000E+00  0.74505805969E-08  0.10566000000E+00  0.10566000000E+00 0. -1.
     999900   -1    0    0    0    0 -0.00000000000E+00 -0.00000000000E+00 -0.74505805969E-08  0.93827000000E+00  0.93827000000E+00 0.  1.
     999902    2    1    2    0    0 -0.30170858135E-01  0.12486334908E-01 -0.13946271234E-01  0.10084238354E+01  0.10077985633E+01 0.  0.
     999903    2    3    3    0    0 -0.22915975776E-01  0.26272591848E-01 -0.11563572411E+00  0.12243092406E+00  0.20057902364E-01 0.  0.
         14    1    1    2    0    0  0.30170858135E-01 -0.12486334908E-01  0.13946271234E-01  0.35506164555E-01  0.00000000000E+00 0.  1.
     999901    1    3    3    0    0 -0.72548823596E-02 -0.13786256940E-01  0.10168945288E+00  0.88599291139E+00  0.88000000000E+00 0. -1.
        -11    1    4    4    0    0 -0.75522726603E-02  0.12237926425E-01 -0.20509992466E-01  0.25054432292E-01  0.51100000000E-03 0. -1.
         11    1    4    4    0    0 -0.15363703115E-01  0.14034665423E-01 -0.95125731646E-01  0.97376491768E-01  0.51100000000E-03 0.  1.
</event>
<event>
 8    1  0.1079508E+005  0.1043930E+01  0.7957747E-01            NaN
         13   -1    0    0    0    0  0.00000000000E+00  0.00000000000E+00  0.74505805969E-08  0.10566000000E+00  0.10566000000E+00 0.  1.
     999900   -1    0    0    0    0 -0.00000000000E+00 -0.00000000000E+00 -0.74505805969E-08  0.93827000000E+00  0.93827000000E+00 0. -1.
     999902    2    1    2    0    0 -0.10416521905E-01 -0.20482926351E-01  0.63947528066E-02  0.10200773887E+01  0.10197984761E+01 0.  0.
     999903    2    3    3    0    0 -0.39449416603E-02  0.80383450381E-01 -0.97858514370E-01  0.12817792634E+00  0.19396657112E-01 0.  0.
         14    1    1    2    0    0  0.10416521905E-01  0.20482926351E-01 -0.63947528066E-02  0.23852611260E-01  0.00000000000E+00 0.  1.
     999901    1    3    3    0    0 -0.64715802445E-02 -0.10086637673E+00  0.10425326718E+00  0.89189946240E+00  0.88000000000E+00 0.  1.
        -11    1    4    4    0    0 -0.11267023334E-01  0.61374440935E-01 -0.73124285268E-01  0.96131108554E-01  0.51100000000E-03 0. -1.
         11    1    4    4    0    0  0.73220816733E-02  0.19009009446E-01 -0.24734229102E-01  0.32046817789E-01  0.51100000000E-03 0.  1.
</event>
<event>
 8    1  0.1079508E+005  0.1043930E+01  0.7957747E-01            NaN
         13   -1    0    0    0    0  0.00000000000E+00  0.00000000000E+00  0.74505805969E-08  0.10566000000E+00  0.10566000000E+00 0.  1.
     999900   -1    0    0    0    0 -0.00000000000E+00 -0.00000000000E+00 -0.74505805969E-08  0.93827000000E+00  0.93827000000E+00 0. -1.
     999902    2    1    2    0    0 -0.22134876300E-01  0.91086724745E-02  0.64051771508E-04  0.10199941531E+01  0.10197132674E+01 0.  0.
     999903    2    3    3    0    0 -0.39223219943E-01  0.53305883025E-01 -0.11175239724E+00  0.13165394623E+00  0.21544955858E-01 0.  0.
         14    1    1    2    0    0  0.22134876300E-01 -0.91086724745E-02 -0.64051771508E-04  0.23935846877E-01  0.00000000000E+00 0. -1.
     999901    1    3    3    0    0  0.17088343643E-01 -0.44197210550E-01  0.11181644901E+00  0.88834020689E+00  0.88000000000E+00 0.  1.
        -11    1    4    4    0    0 -0.45032333744E-02  0.21999374797E-01 -0.42968172200E-01  0.48484807368E-01  0.51100000000E-03 0. -1.
         11    1    4    4    0    0 -0.34719986569E-01  0.31306508228E-01 -0.68784225037E-01  0.83169138865E-01  0.51100000000E-03 0.  1.
</event>
<event>
 8    1  0.1079508E+005  0.1043930E+01  0.7957747E-01            NaN
         13   -1    0    0    0    0  0.00000000000E+00  0.00000000000E+00  0.74505805969E-08  0.10566000000E+00  0.10566000000E+00 0. -1.
     999900   -1    0    0    0    0 -0.00000000000E+00 -0.00000000000E+00 -0.74505805969E-08  0.93827000000E+00  0.93827000000E+00 0.  1.
     999902    2    1    2    0    0 -0.19929198419E-01 -0.77138966804E-02  0.10124493911E-01  0.10202829594E+01  0.10200088895E+01 0.  0.
     999903    2    3    3    0    0 -0.12570074819E+00  0.10381118370E-01 -0.35828896243E-01  0.13257424346E+00  0.19590163563E-01 0.  0.
         14    1    1    2    0    0  0.19929198419E-01  0.77138966804E-02 -0.10124493911E-01  0.23647040588E-01  0.00000000000E+00 0.  1.
     999901    1    3    3    0    0  0.10577154977E+00 -0.18095015051E-01  0.45953390154E-01  0.88770871595E+00  0.88000000000E+00 0. -1.
        -11    1    4    4    0    0 -0.37318201753E-01 -0.50369805557E-02 -0.67458623842E-02  0.38259471187E-01  0.51100000000E-03 0. -1.
         11    1    4    4    0    0 -0.88382546438E-01  0.15418098926E-01 -0.29083033859E-01  0.94314772273E-01  0.51100000000E-03 0.  1.
</event>
<event>
 8    1  0.1079508E+005  0.1043930E+01  0.7957747E-01            NaN
         13   -1    0    0    0    0  0.00000000000E+00  0.00000000000E+00  0.74505805969E-08  0.10566000000E+00  0.10566000000E+00 0.  1.
     999900   -1    0    0    0    0 -0.00000000000E+00 -0.00000000000E+00 -0.74505805969E-08  0.93827000000E+00  0.93827000000E+00 0.  1.
     999902    2    1    2    0    0 -0.76574193421E-02  0.33881579298E-01 -0.13874287684E-01  0.10065255438E+01  0.10058302923E+01 0.  0.
     999903    2    3    3    0    0  0.52743053507E-02 -0.10687179971E+00 -0.36797849051E-01  0.11495152393E+00  0.20257622977E-01 0.  0.
         14    1    1    2    0    0  0.76574193421E-02 -0.33881579298E-01  0.13874287684E-01  0.37404456225E-01  0.00000000000E+00 0.  1.
     999901    1    3    3    0    0 -0.12931724693E-01  0.14075337900E+00  0.22923561366E-01  0.89157401985E+00  0.88000000000E+00 0.  1.
        -11    1    4    4    0    0  0.15365182727E-02 -0.46812851202E-01 -0.26750488409E-01  0.53941205745E-01  0.51100000000E-03 0. -1.
         11    1    4    4    0    0  0.37377870780E-02 -0.60058948505E-01 -0.10047360642E-01  0.61010318181E-01  0.51100000000E-03 0.  1.
</event>
<event>
 8    1  0.1079508E+005  0.1043930E+01  0.7957747E-01            NaN
         13   -1    0    0    0    0  0.00000000000E+00  0.00000000000E+00  0.74505805969E-08  0.10566000000E+00  0.10566000000E+00 0.  1.
     999900   -1    0    0    0    0 -0.00000000000E+00 -0.00000000000E+00 -0.74505805969E-08  0.93827000000E+00  0.93827000000E+00 0. -1.
     999902    2    1    2    0    0  0.13092559511E-02 -0.13838168172E-01 -0.18925153851E-01  0.10204487203E+01  0.10201785237E+01 0.  0.
     999903    2    3    3    0    0 -0.85686195850E-01  0.70253589406E-01 -0.66548012461E-01  0.13089401763E+00  0.20661919200E-01 0.  0.
         14    1    1    2    0    0 -0.13092559511E-02  0.13838168172E-01  0.18925153851E-01  0.23481279731E-01  0.00000000000E+00 0.  1.
     999901    1    3    3    0    0  0.86995451801E-01 -0.84091757578E-01  0.47622858609E-01  0.88955470264E+00  0.88000000000E+00 0. -1.
        -11    1    4    4    0    0 -0.18648439832E-01  0.15306026781E-01 -0.51582846049E-02  0.24676056919E-01  0.51100000000E-03 0. -1.
         11    1    4    4    0    0 -0.67037756019E-01  0.54947562624E-01 -0.61389727856E-01  0.10621796071E+00  0.51100000000E-03 0.  1.
</event>
<event>
 8    1  0.1079508E+005  0.1043930E+01  0.7957747E-01            NaN
         13   -1    0    0    0    0  0.00000000000E+00  0.00000000000E+00  0.74505805969E-08  0.10566000000E+00  0.10566000000E+00 0. -1.
     999900   -1    0    0    0    0 -0.00000000000E+00 -0.00000000000E+00 -0.74505805969E-08  0.93827000000E+00  0.93827000000E+00 0.  1.
     999902    2    1    2    0    0  0.80333196055E-02 -0.85264123187E-02 -0.19942802199E-01  0.10208010292E+01  0.10205389713E+01 0.  0.
     999903    2    3    3    0    0  0.10123609604E-01  0.12010820635E+00 -0.46717909648E-01  0.13104367980E+00  0.21480554643E-01 0.  0.
         14    1    1    2    0    0 -0.80333196055E-02  0.85264123187E-02  0.19942802199E-01  0.23128970805E-01  0.00000000000E+00 0. -1.
     999901    1    3    3    0    0 -0.20902899990E-02 -0.12863461867E+00  0.26775107449E-01  0.88975734940E+00  0.88000000000E+00 0. -1.
        -11    1    4    4    0    0 -0.38557628974E-03  0.65788339883E-01 -0.15801254435E-01  0.67662361002E-01  0.51100000000E-03 0.  1.
         11    1    4    4    0    0  0.10509185894E-01  0.54319866469E-01 -0.30916655213E-01  0.63381318793E-01  0.51100000000E-03 0. -1.
</event>
<event>
 8    1  0.1079508E+005  0.1043930E+01  0.7957747E-01            NaN
         13   -1    0    0    0    0  0.00000000000E+00  0.00000000000E+00  0.74505805969E-08  0.10566000000E+00  0.10566000000E+00 0.  1.
     999900   -1    0    0    0    0 -0.00000000000E+00 -0.00000000000E+00 -0.74505805969E-08  0.93827000000E+00  0.93827000000E+00 0. -1.
     999902    2    1    2    0    0 -0.18497412904E-01 -0.80695274593E-02 -0.23905610468E-01  0.10126450233E+01  0.10121616439E+01 0.  0.
     999903    2    3    3    0    0 -0.11887757727E+00 -0.37179071453E-01  0.23300603502E-02  0.12607192793E+00  0.19353038475E-01 0.  0.
         14    1    1    2    0    0  0.18497412904E-01  0.80695274593E-02  0.23905610468E-01  0.31284976736E-01  0.00000000000E+00 0.  1.
     999901    1    3    3    0    0  0.10038016437E+00  0.29109543993E-01 -0.26235670818E-01  0.88657309534E+00  0.88000000000E+00 0. -1.
        -11    1    4    4    0    0 -0.60192077478E-01 -0.20890238164E-01 -0.82683198952E-02  0.64250404486E-01  0.51100000000E-03 0. -1.
         11    1    4    4    0    0 -0.58685499793E-01 -0.16288833289E-01  0.10598380245E-01  0.61821523442E-01  0.51100000000E-03 0.  1.
</event>
<event>
 8    1  0.1079508E+005  0.1043930E+01  0.7957747E-01            NaN
         13   -1    0    0    0    0  0.00000000000E+00  0.00000000000E+00  0.74505805969E-08  0.10566000000E+00  0.10566000000E+00 0. -1.
     999900   -1    0    0    0    0 -0.00000000000E+00 -0.00000000000E+00 -0.74505805969E-08  0.93827000000E+00  0.93827000000E+00 0. -1.
     999902    2    1    2    0    0  0.49257327706E-02 -0.23551470724E-01  0.19406093103E-02  0.10197908082E+01  0.10195050720E+01 0.  0.
     999903    2    3    3    0    0 -0.10922798490E+00  0.61028344867E-01 -0.21145968804E-01  0.12809702300E+00  0.17506677093E-01 0.  0.
         14    1    1    2    0    0 -0.49257327706E-02  0.23551470724E-01 -0.19406093103E-02  0.24139191807E-01  0.00000000000E+00 0.  1.
     999901    1    3    3    0    0  0.11415371767E+00 -0.84579815591E-01  0.23086578114E-01  0.89169378519E+00  0.88000000000E+00 0. -1.
        -11    1    4    4    0    0 -0.35298604472E-01  0.20258011909E-01  0.13481000428E-02  0.40724157682E-01  0.51100000000E-03 0.  1.
         11    1    4    4    0    0 -0.73929380426E-01  0.40770332958E-01 -0.22494068847E-01  0.87372865319E-01  0.51100000000E-03 0. -1.
</event>
<event>
 8    1  0.1079508E+005  0.1043930E+01  0.7957747E-01            NaN
         13   -1    0    0    0    0  0.00000000000E+00  0.00000000000E+00  0.74505805969E-08  0.10566000000E+00  0.10566000000E+00 0. -1.
     999900   -1    0    0    0    0 -0.00000000000E+00 -0.00000000000E+00 -0.74505805969E-08  0.93827000000E+00  0.93827000000E+00 0. -1.
     999902    2    1    2    0    0 -0.15988325508E-01  0.16204087402E-01  0.60193295066E-02  0.10203836345E+01  0.10201119204E+01 0.  0.
     999903    2    3    3    0    0  0.19512698097E-01 -0.15918614797E-01 -0.12526308759E+00  0.12935767319E+00  0.20209374480E-01 0.  0.
         14    1    1    2    0    0  0.15988325508E-01 -0.16204087402E-01 -0.60193295066E-02  0.23546365511E-01  0.00000000000E+00 0. -1.
     999901    1    3    3    0    0 -0.35501023605E-01  0.32122702199E-01  0.13128241709E+00  0.89102596130E+00  0.88000000000E+00 0.  1.
        -11    1    4    4    0    0  0.18601765885E-01 -0.62916953997E-02 -0.54438939237E-01  0.57874608865E-01  0.51100000000E-03 0.  1.
         11    1    4    4    0    0  0.91093221200E-03 -0.96269193976E-02 -0.70824148350E-01  0.71483064324E-01  0.51100000000E-03 0. -1.
</event>
<event>
 8    1  0.1079508E+005  0.1043930E+01  0.7957747E-01            NaN
         13   -1    0    0    0    0  0.00000000000E+00  0.00000000000E+00  0.74505805969E-08  0.10566000000E+00  0.10566000000E+00 0.  1.
     999900   -1    0    0    0    0 -0.00000000000E+00 -0.00000000000E+00 -0.74505805969E-08  0.93827000000E+00  0.93827000000E+00 0.  1.
     999902    2    1    2    0    0  0.79590433812E-02 -0.85417909958E-02  0.20867655155E-01  0.10200183376E+01  0.10197380259E+01 0.  0.
     999903    2    3    3    0    0  0.56714793961E-01  0.95584133089E-01 -0.61500085713E-01  0.12872502116E+00  0.20856082483E-01 0.  0.
         14    1    1    2    0    0 -0.79590433812E-02  0.85417909958E-02 -0.20867655155E-01  0.23911662356E-01  0.00000000000E+00 0.  1.
     999901    1    3    3    0    0 -0.48755750580E-01 -0.10412592408E+00  0.82367740867E-01  0.89129331649E+00  0.88000000000E+00 0. -1.
        -11    1    4    4    0    0  0.40837075734E-01  0.81880227143E-01 -0.44633965338E-01  0.10180614095E+00  0.51100000000E-03 0. -1.
         11    1    4    4    0    0  0.15877718226E-01  0.13703905946E-01 -0.16866120375E-01  0.26918880210E-01  0.51100000000E-03 0.  1.
</event>
<event>
 8    1  0.1079508E+005  0.1043930E+01  0.7957747E-01            NaN
         13   -1    0    0    0    0  0.00000000000E+00  0.00000000000E+00  0.74505805969E-08  0.10566000000E+00  0.10566000000E+00 0. -1.
     999900   -1    0    0    0    0 -0.00000000000E+00 -0.00000000000E+00 -0.74505805969E-08  0.93827000000E+00  0.93827000000E+00 0.  1.
     999902    2    1    2    0    0  0.62842024377E-02  0.18370509410E-01 -0.13805319155E-01  0.10201066154E+01  0.10198283940E+01 0.  0.
     999903    2    3    3    0    0  0.53714931347E-01  0.11200848247E+00  0.41787301656E-01  0.13212672626E+00  0.16736165024E-01 0.  0.
         14    1    1    2    0    0 -0.62842024377E-02 -0.18370509410E-01  0.13805319155E-01  0.23823384588E-01  0.00000000000E+00 0.  1.
     999901    1    3    3    0    0 -0.47430728909E-01 -0.93637973056E-01 -0.55592620811E-01  0.88797988915E+00  0.88000000000E+00 0.  1.
        -11    1    4    4    0    0  0.39936359642E-01  0.90218956878E-01  0.26543709251E-01  0.10217241616E+00  0.51100000000E-03 0.  1.
         11    1    4    4    0    0  0.13778571705E-01  0.21789525588E-01  0.15243592405E-01  0.29954310107E-01  0.51100000000E-03 0. -1.
</event>
<event>
 8    1  0.1079508E+005  0.1043930E+01  0.7957747E-01            NaN
         13   -1    0    0    0    0  0.00000000000E+00  0.00000000000E+00  0.74505805969E-08  0.10566000000E+00  0.10566000000E+00 0.  1.
     999900   -1    0    0    0    0 -0.00000000000E+00 -0.00000000000E+00 -0.74505805969E-08  0.93827000000E+00  0.93827000000E+00 0. -1.
     999902    2    1    2    0    0  0.20517933432E-01  0.14128911338E-01  0.43506624313E-02  0.10186408721E+01  0.10183269054E+01 0.  0.
     999903    2    3    3    0    0 -0.12224156587E+00 -0.65499246349E-02 -0.23280930327E-01  0.12646858276E+00  0.21596267473E-01 0.  0.
         14    1    1    2    0    0 -0.20517933432E-01 -0.14128911338E-01 -0.43506624313E-02  0.25289127931E-01  0.00000000000E+00 0. -1.
     999901    1    3    3    0    0  0.14275949930E+00  0.20678835973E-01  0.27631592759E-01  0.89217228931E+00  0.88000000000E+00 0. -1.
        -11    1    4    4    0    0 -0.12403840398E-01 -0.60190398108E-02  0.14688354374E-02  0.13874534061E-01  0.51100000000E-03 0. -1.
         11    1    4    4    0    0 -0.10983772547E+00 -0.53088482419E-03 -0.24749765765E-01  0.11259404870E+00  0.51100000000E-03 0.  1.
</event>
<event>
 8    1  0.1079508E+005  0.1043930E+01  0.7957747E-01            NaN
         13   -1    0    0    0    0  0.00000000000E+00  0.00000000000E+00  0.74505805969E-08  0.10566000000E+00  0.10566000000E+00 0.  1.
     999900   -1    0    0    0    0 -0.00000000000E+00 -0.00000000000E+00 -0.74505805969E-08  0.93827000000E+00  0.93827000000E+00 0. -1.
     999902    2    1    2    0    0 -0.58765922678E-02  0.36030037856E-02  0.22405967416E-01  0.10204876591E+01  0.10202183683E+01 0.  0.
     999903    2    3    3    0    0  0.15903410259E-01  0.97980622126E-01  0.86133860334E-01  0.13288259616E+00  0.19637252743E-01 0.  0.
         14    1    1    2    0    0  0.58765922678E-02 -0.36030037856E-02 -0.22405967416E-01  0.23442340941E-01  0.00000000000E+00 0. -1.
     999901    1    3    3    0    0 -0.21780002526E-01 -0.94377618340E-01 -0.63727892918E-01  0.88760506290E+00  0.88000000000E+00 0. -1.
        -11    1    4    4    0    0  0.14365047977E-01  0.61947223629E-01  0.43550839441E-01  0.77076260001E-01  0.51100000000E-03 0. -1.
         11    1    4    4    0    0  0.15383622814E-02  0.36033398496E-01  0.42583020893E-01  0.55806336155E-01  0.51100000000E-03 0.  1.
</event>
<event>
 8    1  0.1079508E+005  0.1043930E+01  0.7957747E-01            NaN
         13   -1    0    0    0    0  0.00000000000E+00  0.00000000000E+00  0.74505805969E-08  0.10566000000E+00  0.10566000000E+00 0. -1.
     999900   -1    0    0    0    0 -0.00000000000E+00 -0.00000000000E+00 -0.74505805969E-08  0.93827000000E+00  0.93827000000E+00 0. -1.
     999902    2    1    2    0    0  0.78839680977E-02 -0.37268183391E-02 -0.21209925412E-01  0.10209973363E+01  0.10207397581E+01 0.  0.
     999903    2    3    3    0    0  0.89456163257E-01  0.20545019491E-01 -0.95245866223E-01  0.13379698370E+00  0.20133426061E-01 0.  0.
         14    1    1    2    0    0 -0.78839680977E-02  0.37268183391E-02  0.21209925412E-01  0.22932663689E-01  0.00000000000E+00 0. -1.
     999901    1    3    3    0    0 -0.81572195159E-01 -0.24271837830E-01  0.74035940811E-01  0.88720035261E+00  0.88000000000E+00 0.  1.
        -11    1    4    4    0    0  0.73199727823E-01  0.84619962979E-02 -0.75734059685E-01  0.10566794430E+00  0.51100000000E-03 0.  1.
         11    1    4    4    0    0  0.16256435434E-01  0.12083023193E-01 -0.19511806539E-01  0.28129039406E-01  0.51100000000E-03 0. -1.
</event>
<event>
 8    1  0.1079508E+005  0.1043930E+01  0.7957747E-01            NaN
         13   -1    0    0    0    0  0.00000000000E+00  0.00000000000E+00  0.74505805969E-08  0.10566000000E+00  0.10566000000E+00 0.  1.
     999900   -1    0    0    0    0 -0.00000000000E+00 -0.00000000000E+00 -0.74505805969E-08  0.93827000000E+00  0.93827000000E+00 0.  1.
     999902    2    1    2    0    0 -0.79681439311E-02  0.11496842732E-01  0.19794472529E-01  0.10196918100E+01  0.10194036971E+01 0.  0.
     999903    2    3    3    0    0  0.10855434948E+00 -0.30330299179E-01 -0.56480602267E-01  0.12775857917E+00  0.20693532335E-01 0.  0.
         14    1    1    2    0    0  0.79681439311E-02 -0.11496842732E-01 -0.19794472529E-01  0.24238189974E-01  0.00000000000E+00 0. -1.
     999901    1    3    3    0    0 -0.11652249341E+00  0.41827141911E-01  0.76275074796E-01  0.89193323086E+00  0.88000000000E+00 0. -1.
        -11    1    4    4    0    0  0.51256628078E-01 -0.78344492273E-02 -0.16749164321E-01  0.54492349400E-01  0.51100000000E-03 0. -1.
         11    1    4    4    0    0  0.57297721399E-01 -0.22495849952E-01 -0.39731437946E-01  0.73266229770E-01  0.51100000000E-03 0.  1.
</event>
<event>
 8    1  0.1079508E+005  0.1043930E+01  0.7957747E-01            NaN
         13   -1    0    0    0    0  0.00000000000E+00  0.00000000000E+00  0.74505805969E-08  0.10566000000E+00  0.10566000000E+00 0. -1.
     999900   -1    0    0    0    0 -0.00000000000E+00 -0.00000000000E+00 -0.74505805969E-08  0.93827000000E+00  0.93827000000E+00 0.  1.
     999902    2    1    2    0    0  0.26351775650E-02 -0.17923621828E-01 -0.14870706113E-01  0.10204920334E+01  0.10202228442E+01 0.  0.
     999903    2    3    3    0    0  0.58487644778E-01  0.41237553263E-01 -0.10879329384E+00  0.13176204330E+00  0.20097633683E-01 0.  0.
         14    1    1    2    0    0 -0.26351775650E-02  0.17923621828E-01  0.14870706113E-01  0.23437966647E-01  0.00000000000E+00 0. -1.
     999901    1    3    3    0    0 -0.55852467213E-01 -0.59161175091E-01  0.93922587727E-01  0.88872999005E+00  0.88000000000E+00 0. -1.
        -11    1    4    4    0    0  0.32400369319E-01  0.14422709876E-01 -0.65938690346E-01  0.74873029174E-01  0.51100000000E-03 0.  1.
         11    1    4    4    0    0  0.26087275459E-01  0.26814843387E-01 -0.42854603494E-01  0.56889014127E-01  0.51100000000E-03 0. -1.
</event>
<event>
 8    1  0.1079508E+005  0.1043930E+01  0.7957747E-01            NaN
         13   -1    0    0    0    0  0.00000000000E+00  0.00000000000E+00  0.74505805969E-08  0.10566000000E+00  0.10566000000E+00 0.  1.
     999900   -1    0    0    0    0 -0.00000000000E+00 -0.00000000000E+00 -0.74505805969E-08  0.93827000000E+00  0.93827000000E+00 0.  1.
     999902    2    1    2    0    0 -0.21478079674E-01 -0.29654224960E-03 -0.10672014443E-01  0.10199448434E+01  0.10196627854E+01 0.  0.
     999903    2    3    3    0    0  0.97214574889E-01  0.80651701755E-01  0.61736522066E-02  0.12813525560E+00  0.20619388408E-01 0.  0.
         14    1    1    2    0    0  0.21478079674E-01  0.29654224960E-03  0.10672014443E-01  0.23985156577E-01  0.00000000000E+00 0.  1.
     999901    1    3    3    0    0 -0.11869265456E+00 -0.80948244004E-01 -0.16845666649E-01  0.89180958783E+00  0.88000000000E+00 0. -1.
        -11    1    4    4    0    0  0.44388385435E-01  0.31258824599E-01  0.11916883013E-01  0.55585214748E-01  0.51100000000E-03 0. -1.
         11    1    4    4    0    0  0.52826189454E-01  0.49392877156E-01 -0.57432308066E-02  0.72550040848E-01  0.51100000000E-03 0.  1.
</event>
<event>
 8    1  0.1079508E+005  0.1043930E+01  0.7957747E-01            NaN
         13   -1    0    0    0    0  0.00000000000E+00  0.00000000000E+00  0.74505805969E-08  0.10566000000E+00  0.10566000000E+00 0.  1.
     999900   -1    0    0    0    0 -0.00000000000E+00 -0.00000000000E+00 -0.74505805969E-08  0.93827000000E+00  0.93827000000E+00 0. -1.
     999902    2    1    2    0    0  0.20880868583E-01 -0.62822237118E-02  0.15467966611E-01  0.10171954718E+01  0.10168440848E+01 0.  0.
     999903    2    3    3    0    0 -0.32977722617E-01 -0.11484337049E+00  0.43061876108E-01  0.12846171285E+00  0.19275802479E-01 0.  0.
         14    1    1    2    0    0 -0.20880868583E-01  0.62822237118E-02 -0.15467966611E-01  0.26734528210E-01  0.00000000000E+00 0. -1.
     999901    1    3    3    0    0  0.53858591199E-01  0.10856114677E+00 -0.27593909497E-01  0.88873375894E+00  0.88000000000E+00 0. -1.
        -11    1    4    4    0    0 -0.16962003658E-01 -0.50617499959E-01  0.94282567704E-02  0.54212489492E-01  0.51100000000E-03 0. -1.
         11    1    4    4    0    0 -0.16015718958E-01 -0.64225870528E-01  0.33633619338E-01  0.74249223360E-01  0.51100000000E-03 0.  1.
</event>
<event>
 8    1  0.1079508E+005  0.1043930E+01  0.7957747E-01            NaN
         13   -1    0    0    0    0  0.00000000000E+00  0.00000000000E+00  0.74505805969E-08  0.10566000000E+00  0.10566000000E+00 0.  1.
     999900   -1    0    0    0    0 -0.00000000000E+00 -0.00000000000E+00 -0.74505805969E-08  0.93827000000E+00  0.93827000000E+00 0. -1.
     999902    2    1    2    0    0  0.17448028634E-01  0.15429204716E-01  0.12708900671E-01  0.10173968091E+01  0.10170507642E+01 0.  0.
     999903    2    3    3    0    0 -0.81841903696E-01  0.25257937715E-01  0.93213935431E-01  0.12810711771E+00  0.19660499238E-01 0.  0.
         14    1    1    2    0    0 -0.17448028634E-01 -0.15429204716E-01 -0.12708900671E-01  0.26533190868E-01  0.00000000000E+00 0.  1.
     999901    1    3    3    0    0  0.99289932330E-01 -0.98287329984E-02 -0.80505034760E-01  0.88928969143E+00  0.88000000000E+00 0. -1.
        -11    1    4    4    0    0 -0.23350338221E-01  0.35212770295E-02  0.38225169394E-01  0.44933978047E-01  0.51100000000E-03 0. -1.
         11    1    4    4    0    0 -0.58491565475E-01  0.21736660685E-01  0.54988766037E-01  0.83173139659E-01  0.51100000000E-03 0.  1.
</event>
<event>
 8    1  0.1079508E+005  0.1043930E+01  0.7957747E-01            NaN
         13   -1    0    0    0    0  0.00000000000E+00  0.00000000000E+00  0.74505805969E-08  0.10566000000E+00  0.10566000000E+00 0.  1.
     999900   -1    0    0    0    0 -0.00000000000E+00 -0.00000000000E+00 -0.74505805969E-08  0.93827000000E+00  0.93827000000E+00 0.  1.
     999902    2    1    2    0    0 -0.12577543471E-02  0.22615648877E-01 -0.77829874537E-02  0.10199795425E+01  0.10196983097E+01 0.  0.
     999903    2    3    3    0    0  0.12559555849E+00 -0.20179091799E-01 -0.36748092768E-02  0.12984470445E+00  0.25781834518E-01 0.  0.
         14    1    1    2    0    0  0.12577543471E-02 -0.22615648877E-01  0.77829874537E-02  0.23950457487E-01  0.00000000000E+00 0.  1.
     999901    1    3    3    0    0 -0.12685331284E+00  0.42794740676E-01 -0.41081781769E-02  0.89013483806E+00  0.88000000000E+00 0.  1.
        -11    1    4    4    0    0  0.73538910319E-01 -0.12198456503E-01  0.10554643457E-01  0.75289011758E-01  0.51100000000E-03 0.  1.
         11    1    4    4    0    0  0.52056648174E-01 -0.79806352963E-02 -0.14229452734E-01  0.54555692690E-01  0.51100000000E-03 0. -1.
</event>
<event>
 8    1  0.1079508E+005  0.1043930E+01  0.7957747E-01            NaN
         13   -1    0    0    0    0  0.00000000000E+00  0.00000000000E+00  0.74505805969E-08  0.10566000000E+00  0.10566000000E+00 0.  1.
     999900   -1    0    0    0    0 -0.00000000000E+00 -0.00000000000E+00 -0.74505805969E-08  0.93827000000E+00  0.93827000000E+00 0. -1.
     999902    2    1    2    0    0 -0.17147114634E-01 -0.17083629485E-02  0.21539769206E-01  0.10163455170E+01  0.10159711149E+01 0.  0.
     999903    2    3    3    0    0 -0.20898718177E-01 -0.10990045162E+00 -0.55185000777E-01  0.12639816300E+00  0.20402098238E-01 0.  0.
         14    1    1    2    0    0  0.17147114634E-01  0.17083629485E-02 -0.21539769206E-01  0.27584482987E-01  0.00000000000E+00 0. -1.
     999901    1    3    3    0    0  0.37516035432E-02  0.10819208867E+00  0.76724769983E-01  0.88994735401E+00  0.88000000000E+00 0.  1.
        -11    1    4    4    0    0 -0.24103371279E-01 -0.10409924978E+00 -0.50032554841E-01  0.11798789758E+00  0.51100000000E-03 0.  1.
         11    1    4    4    0    0  0.32046531021E-02 -0.58012018386E-02 -0.51524459360E-02  0.84102654180E-02  0.51100000000E-03 0. -1.
</event>
<event>
 8    1  0.1079508E+005  0.1043930E+01  0.7957747E-01            NaN
         13   -1    0    0    0    0  0.00000000000E+00  0.00000000000E+00  0.74505805969E-08  0.10566000000E+00  0.10566000000E+00 0.  1.
     999900   -1    0    0    0    0 -0.00000000000E+00 -0.00000000000E+00 -0.74505805969E-08  0.93827000000E+00  0.93827000000E+00 0.  1.
     999902    2    1    2    0    0  0.18070912321E-01  0.28966595946E-02 -0.14412827090E-01  0.10206345478E+01  0.10203686599E+01 0.  0.
     999903    2    3    3    0    0 -0.23358351191E-01 -0.10550230351E+00 -0.71639295860E-01  0.13117314458E+00  0.19946341299E-01 0.  0.
         14    1    1    2    0    0 -0.18070912321E-01 -0.28966595946E-02  0.14412827090E-01  0.23295452209E-01  0.00000000000E+00 0.  1.
     999901    1    3    3    0    0  0.41429263512E-01  0.10839896310E+00  0.57226468771E-01  0.88946140321E+00  0.88000000000E+00 0.  1.
        -11    1    4    4    0    0 -0.24254641272E-01 -0.69525870765E-01 -0.52254662918E-01  0.90293661164E-01  0.51100000000E-03 0. -1.
         11    1    4    4    0    0  0.89629008039E-03 -0.35976432744E-01 -0.19384632942E-01  0.40879483414E-01  0.51100000000E-03 0.  1.
</event>
<event>
 8    1  0.1079508E+005  0.1043930E+01  0.7957747E-01            NaN
         13   -1    0    0    0    0  0.00000000000E+00  0.00000000000E+00  0.74505805969E-08  0.10566000000E+00  0.10566000000E+00 0.  1.
     999900   -1    0    0    0    0 -0.00000000000E+00 -0.00000000000E+00 -0.74505805969E-08  0.93827000000E+00  0.93827000000E+00 0.  1.
     999902    2    1    2    0    0  0.10856843722E-01  0.20229795052E-01 -0.72316584896E-03  0.10209596140E+01  0.10207011780E+01 0.  0.
     999903    2    3    3    0    0  0.86662502284E-01  0.35252466326E-01 -0.92043790351E-01  0.13286522997E+00  0.20687781595E-01 0.  0.
         14    1    1    2    0    0 -0.10856843722E-01 -0.20229795052E-01  0.72316584896E-03  0.22970385985E-01  0.00000000000E+00 0.  1.
     999901    1    3    3    0    0 -0.75805658562E-01 -0.15022671275E-01  0.91320624502E-01  0.88809438405E+00  0.88000000000E+00 0. -1.
        -11    1    4    4    0    0  0.36338335096E-01  0.22746338849E-01 -0.31820197477E-01  0.53391540688E-01  0.51100000000E-03 0.  1.
         11    1    4    4    0    0  0.50324167188E-01  0.12506127477E-01 -0.60223592874E-01  0.79473689277E-01  0.51100000000E-03 0. -1.
</event>
<event>
 8    1  0.1079508E+005  0.1043930E+01  0.7957747E-01            NaN
         13   -1    0    0    0    0  0.00000000000E+00  0.00000000000E+00  0.74505805969E-08  0.10566000000E+00  0.10566000000E+00 0.  1.
     999900   -1    0    0    0    0 -0.00000000000E+00 -0.00000000000E+00 -0.74505805969E-08  0.93827000000E+00  0.93827000000E+00 0. -1.
     999902    2    1    2    0    0  0.20908982124E-01  0.43639335026E-02 -0.85667744703E-02  0.10209165458E+01  0.10206571287E+01 0.  0.
     999903    2    3    3    0    0 -0.12041008857E+00  0.31932252190E-01 -0.30568893538E-01  0.12894390879E+00  0.13183937291E-01 0.  0.
         14    1    1    2    0    0 -0.20908982124E-01 -0.43639335026E-02  0.85667744703E-02  0.23013454193E-01  0.00000000000E+00 0.  1.
     999901    1    3    3    0    0  0.14131907070E+00 -0.27568318687E-01  0.22002119067E-01  0.89197263701E+00  0.88000000000E+00 0. -1.
        -11    1    4    4    0    0 -0.63449447898E-01  0.10562792381E-01 -0.13084506780E-01  0.65641987021E-01  0.51100000000E-03 0.  1.
         11    1    4    4    0    0 -0.56960640676E-01  0.21369459809E-01 -0.17484386757E-01  0.63301921772E-01  0.51100000000E-03 0. -1.
</event>
<event>
 8    1  0.1079508E+005  0.1043930E+01  0.7957747E-01            NaN
         13   -1    0    0    0    0  0.00000000000E+00  0.00000000000E+00  0.74505805969E-08  0.10566000000E+00  0.10566000000E+00 0. -1.
     999900   -1    0    0    0    0 -0.00000000000E+00 -0.00000000000E+00 -0.74505805969E-08  0.93827000000E+00  0.93827000000E+00 0.  1.
     999902    2    1    2    0    0 -0.81525266977E-02  0.10770732972E-01 -0.18910212628E-01  0.10206906256E+01  0.10204260310E+01 0.  0.
     999903    2    3    3    0    0  0.12525468265E+00  0.28410477825E-01  0.67609074034E-02  0.13009102393E+00  0.19546709784E-01 0.  0.
         14    1    1    2    0    0  0.81525266977E-02 -0.10770732972E-01  0.18910212628E-01  0.23239374388E-01  0.00000000000E+00 0. -1.
     999901    1    3    3    0    0 -0.13340720935E+00 -0.17639744853E-01 -0.25671120032E-01  0.89059960168E+00  0.88000000000E+00 0. -1.
        -11    1    4    4    0    0  0.68387671381E-01  0.25392272005E-01  0.47614922912E-02  0.73106593439E-01  0.51100000000E-03 0.  1.
         11    1    4    4    0    0  0.56867011269E-01  0.30182058201E-02  0.19994151122E-02  0.56984430495E-01  0.51100000000E-03 0. -1.
</event>
<event>
 8    1  0.1079508E+005  0.1043930E+01  0.7957747E-01            NaN
         13   -1    0    0    0    0  0.00000000000E+00  0.00000000000E+00  0.74505805969E-08  0.10566000000E+00  0.10566000000E+00 0. -1.
     999900   -1    0    0    0    0 -0.00000000000E+00 -0.00000000000E+00 -0.74505805969E-08  0.93827000000E+00  0.93827000000E+00 0. -1.
     999902    2    1    2    0    0  0.16193602945E-01  0.52430781725E-02  0.15672128607E-01  0.10207926220E+01  0.10205303714E+01 0.  0.
     999903    2    3    3    0    0  0.26476340677E-01  0.37309258496E-01  0.12384711435E+00  0.13352952566E+00  0.19976213419E-01 0.  0.
         14    1    1    2    0    0 -0.16193602945E-01 -0.52430781725E-02 -0.15672128607E-01  0.23137377988E-01  0.00000000000E+00 0.  1.
     999901    1    3    3    0    0 -0.10282737732E-01 -0.32066180323E-01 -0.10817498575E+00  0.88726309636E+00  0.88000000000E+00 0. -1.
        -11    1    4    4    0    0  0.25470112179E-01  0.21372146740E-01  0.93437808012E-01  0.99178527705E-01  0.51100000000E-03 0. -1.
         11    1    4    4    0    0  0.10062284978E-02  0.15937111756E-01  0.30409306343E-01  0.34350997950E-01  0.51100000000E-03 0.  1.
</event>
<event>
 8    1  0.1079508E+005  0.1043930E+01  0.7957747E-01            NaN
         13   -1    0    0    0    0  0.00000000000E+00  0.00000000000E+00  0.74505805969E-08  0.10566000000E+00  0.10566000000E+00 0. -1.
     999900   -1    0    0    0    0 -0.00000000000E+00 -0.00000000000E+00 -0.74505805969E-08  0.93827000000E+00  0.93827000000E+00 0.  1.
     999902    2    1    2    0    0  0.22752442542E-01  0.25771568055E-02 -0.36852412306E-02  0.10207374067E+01  0.10204738885E+01 0.  0.
     999903    2    3    3    0    0  0.69814724317E-01 -0.61960500953E-01 -0.90497538686E-01  0.13286560146E+00  0.27390949841E-01 0.  0.
         14    1    1    2    0    0 -0.22752442542E-01 -0.25771568055E-02  0.36852412306E-02  0.23192593252E-01  0.00000000000E+00 0. -1.
     999901    1    3    3    0    0 -0.47062281775E-01  0.64537657759E-01  0.86812297456E-01  0.88787180529E+00  0.88000000000E+00 0. -1.
        -11    1    4    4    0    0  0.58576251593E-01 -0.50809874334E-01 -0.58410293427E-01  0.97081636161E-01  0.51100000000E-03 0.  1.
         11    1    4    4    0    0  0.11238472724E-01 -0.11150626620E-01 -0.32087245260E-01  0.35783965299E-01  0.51100000000E-03 0. -1.
</event>
<event>
 8    1  0.1079508E+005  0.1043930E+01  0.7957747E-01            NaN
         13   -1    0    0    0    0  0.00000000000E+00  0.00000000000E+00  0.74505805969E-08  0.10566000000E+00  0.10566000000E+00 0. -1.
     999900   -1    0    0    0    0 -0.00000000000E+00 -0.00000000000E+00 -0.74505805969E-08  0.93827000000E+00  0.93827000000E+00 0. -1.
     999902    2    1    2    0    0 -0.10590065837E-01 -0.66052345420E-02 -0.17529290783E-01  0.10224112953E+01  0.10221848180E+01 0.  0.
     999903    2    3    3    0    0  0.12538034878E+00 -0.23618312375E-02  0.30825133273E-01  0.13064669043E+00  0.19813095960E-01 0.  0.
         14    1    1    2    0    0  0.10590065837E-01  0.66052345420E-02  0.17529290783E-01  0.21518704727E-01  0.00000000000E+00 0.  1.
     999901    1    3    3    0    0 -0.13597041462E+00 -0.42434033045E-02 -0.48354424056E-01  0.89176460484E+00  0.88000000000E+00 0. -1.
        -11    1    4    4    0    0  0.97042022232E-01 -0.73971533587E-02  0.30016743122E-01  0.10184860306E+00  0.51100000000E-03 0.  1.
         11    1    4    4    0    0  0.28338326550E-01  0.50353221212E-02  0.80839015128E-03  0.28798087370E-01  0.51100000000E-03 0. -1.
</event>
<event>
 8    1  0.1079508E+005  0.1043930E+01  0.7957747E-01            NaN
         13   -1    0    0    0    0  0.00000000000E+00  0.00000000000E+00  0.74505805969E-08  0.10566000000E+00  0.10566000000E+00 0.  1.
     999900   -1    0    0    0    0 -0.00000000000E+00 -0.00000000000E+00 -0.74505805969E-08  0.93827000000E+00  0.93827000000E+00 0. -1.
     999902    2    1    2    0    0 -0.21229764513E-01 -0.67809533467E-02 -0.80883970099E-02  0.10202212169E+01  0.10199456971E+01 0.  0.
     999903    2    3    3    0    0 -0.30559249591E-01 -0.33849089624E-01 -0.12267664324E+00  0.13233035117E+00  0.19548259231E-01 0.  0.
         14    1    1    2    0    0  0.21229764513E-01  0.67809533467E-02  0.80883970099E-02  0.23708783093E-01  0.00000000000E+00 0.  1.
     999901    1    3    3    0    0  0.93294850781E-02  0.27068136277E-01  0.11458824623E+00  0.88789086574E+00  0.88000000000E+00 0.  1.
        -11    1    4    4    0    0 -0.16301239540E-01 -0.18540104968E-01 -0.91562184645E-01  0.94833331065E-01  0.51100000000E-03 0. -1.
         11    1    4    4    0    0 -0.14258010050E-01 -0.15308984656E-01 -0.31114458595E-01  0.37497020101E-01  0.51100000000E-03 0.  1.
</event>
<event>
 8    1  0.1079508E+005  0.1043930E+01  0.7957747E-01            NaN
         13   -1    0    0    0    0  0.00000000000E+00  0.00000000000E+00  0.74505805969E-08  0.10566000000E+00  0.10566000000E+00 0. -1.
     999900   -1    0    0    0    0 -0.00000000000E+00 -0.00000000000E+00 -0.74505805969E-08  0.93827000000E+00  0.93827000000E+00 0. -1.
     999902    2    1    2    0    0 -0.20193044530E-01 -0.19321443918E-01  0.93258830992E-02  0.10144673230E+01  0.10140393977E+01 0.  0.
     999903    2    3    3    0    0  0.52877999924E-01  0.66675166463E-01  0.87550238387E-01  0.12381933173E+00  0.20603930917E-01 0.  0.
         14    1    1    2    0    0  0.20193044530E-01  0.19321443918E-01 -0.93258830992E-02  0.29462677035E-01  0.00000000000E+00 0.  1.
     999901    1    3    3    0    0 -0.73071044454E-01 -0.85996610381E-01 -0.78224355288E-01  0.89064799124E+00  0.88000000000E+00 0. -1.
        -11    1    4    4    0    0  0.41064496473E-01  0.57446632839E-01  0.80976931263E-01  0.10744269641E+00  0.51100000000E-03 0. -1.
         11    1    4    4    0    0  0.11813503452E-01  0.92285336235E-02  0.65733071238E-02  0.16376635313E-01  0.51100000000E-03 0.  1.
</event>
<event>
 8    1  0.1079508E+005  0.1043930E+01  0.7957747E-01            NaN
         13   -1    0    0    0    0  0.00000000000E+00  0.00000000000E+00  0.74505805969E-08  0.10566000000E+00  0.10566000000E+00 0. -1.
     999900   -1    0    0    0    0 -0.00000000000E+00 -0.00000000000E+00 -0.74505805969E-08  0.93827000000E+00  0.93827000000E+00 0. -1.
     999902    2    1    2    0    0  0.21858359587E-01  0.19210969350E-02  0.74365042906E-02  0.10207614849E+01  0.10204985198E+01 0.  0.
     999903    2    3    3    0    0 -0.43825544612E-01 -0.71174416917E-02  0.12147206355E+00  0.13092993945E+00  0.20392412412E-01 0.  0.
         14    1    1    2    0    0 -0.21858359587E-01 -0.19210969350E-02 -0.74365042906E-02  0.23168515130E-01  0.00000000000E+00 0.  1.
     999901    1    3    3    0    0  0.65683904199E-01  0.90385386268E-02 -0.11403555926E+00  0.88983154542E+00  0.88000000000E+00 0. -1.
        -11    1    4    4    0    0 -0.59111598575E-02 -0.55720239926E-02  0.85638950409E-02  0.11814850042E-01  0.51100000000E-03 0.  1.
         11    1    4    4    0    0 -0.37914384754E-01 -0.15454176991E-02  0.11290816851E+00  0.11911508941E+00  0.51100000000E-03 0. -1.
</event>
<event>
 8    1  0.1079508E+005  0.1043930E+01  0.7957747E-01            NaN
         13   -1    0    0    0    0  0.00000000000E+00  0.00000000000E+00  0.74505805969E-08  0.10566000000E+00  0.10566000000E+00 0. -1.
     999900   -1    0    0    0    0 -0.00000000000E+00 -0.00000000000E+00 -0.74505805969E-08  0.93827000000E+00  0.93827000000E+00 0.  1.
     999902    2    1    2    0    0  0.13920414924E-01  0.10202945280E-01  0.16739243645E-01  0.10198866990E+01  0.10196032554E+01 0.  0.
     999903    2    3    3    0    0  0.36730407726E-01  0.62430529072E-01 -0.10548471168E+00  0.12961330757E+00  0.20637133730E-01 0.  0.
         14    1    1    2    0    0 -0.13920414924E-01 -0.10202945280E-01 -0.16739243645E-01  0.24043300976E-01  0.00000000000E+00 0.  1.
     999901    1    3    3    0    0 -0.22809992803E-01 -0.52227583792E-01  0.12222395532E+00  0.89027339146E+00  0.88000000000E+00 0. -1.
        -11    1    4    4    0    0  0.26154726152E-02  0.21966252830E-01 -0.36162417464E-01  0.42395029404E-01  0.51100000000E-03 0.  1.
         11    1    4    4    0    0  0.34114935111E-01  0.40464276242E-01 -0.69322294215E-01  0.87218278163E-01  0.51100000000E-03 0. -1.
</event>
<event>
 8    1  0.1079508E+005  0.1043930E+01  0.7957747E-01            NaN
         13   -1    0    0    0    0  0.00000000000E+00  0.00000000000E+00  0.74505805969E-08  0.10566000000E+00  0.10566000000E+00 0. -1.
     999900   -1    0    0    0    0 -0.00000000000E+00 -0.00000000000E+00 -0.74505805969E-08  0.93827000000E+00  0.93827000000E+00 0. -1.
     999902    2    1    2    0    0 -0.12713020740E-01 -0.44216012821E-02  0.20586226517E-01  0.10193339805E+01  0.10190371924E+01 0.  0.
     999903    2    3    3    0    0  0.12536077793E+00  0.22077938768E-01  0.10458579491E-01  0.12811617952E+00  0.10080354430E-01 0.  0.
         14    1    1    2    0    0  0.12713020740E-01  0.44216012821E-02 -0.20586226517E-01  0.24596019525E-01  0.00000000000E+00 0.  1.
     999901    1    3    3    0    0 -0.13807379868E+00 -0.26499540050E-01  0.10127647026E-01  0.89121780095E+00  0.88000000000E+00 0.  1.
        -11    1    4    4    0    0  0.11098562151E+00  0.16455584506E-01  0.80867753975E-02  0.11249111743E+00  0.51100000000E-03 0.  1.
         11    1    4    4    0    0  0.14375156427E-01  0.56223542620E-02  0.23718040936E-02  0.15625062093E-01  0.51100000000E-03 0. -1.
</event>
<event>
 8    1  0.1079508E+005  0.1043930E+01  0.7957747E-01            NaN
         13   -1    0    0    0    0  0.00000000000E+00  0.00000000000E+00  0.74505805969E-08  0.10566000000E+00  0.10566000000E+00 0. -1.
     999900   -1    0    0    0    0 -0.00000000000E+00 -0.00000000000E+00 -0.74505805969E-08  0.93827000000E+00  0.93827000000E+00 0. -1.
     999902    2    1    2    0    0  0.14232398351E-01 -0.55850539869E-03  0.19371434110E-01  0.10198857585E+01  0.10196022925E+01 0.  0.
     999903    2    3    3    0    0  0.53629793544E-01 -0.11494073859E-01 -0.11470449538E+00  0.12879199445E+00  0.20542348564E-01 0.  0.
         14    1    1    2    0    0 -0.14232398351E-01  0.55850539869E-03 -0.19371434110E-01  0.24044241526E-01  0.00000000000E+00 0.  1.
     999901    1    3    3    0    0 -0.39397395194E-01  0.10935568460E-01  0.13407592949E+00  0.89109376402E+00  0.88000000000E+00 0.  1.
        -11    1    4    4    0    0  0.18549096762E-01 -0.14218002875E-01 -0.45342106444E-01  0.51013609304E-01  0.51100000000E-03 0. -1.
         11    1    4    4    0    0  0.35080696782E-01  0.27239290160E-02 -0.69362388940E-01  0.77778385150E-01  0.51100000000E-03 0.  1.
</event>
<event>
 8    1  0.1079508E+005  0.1043930E+01  0.7957747E-01            NaN
         13   -1    0    0    0    0  0.00000000000E+00  0.00000000000E+00  0.74505805969E-08  0.10566000000E+00  0.10566000000E+00 0. -1.
     999900   -1    0    0    0    0 -0.00000000000E+00 -0.00000000000E+00 -0.74505805969E-08  0.93827000000E+00  0.93827000000E+00 0.  1.
     999902    2    1    2    0    0  0.48460812481E-02  0.22586058032E-01  0.65304054423E-02  0.10199245690E+01  0.10196420283E+01 0.  0.
     999903    2    3    3    0    0 -0.11187517855E+00 -0.57205766609E-01 -0.15682015099E-01  0.12836190752E+00  0.21030891474E-01 0.  0.
         14    1    1    2    0    0 -0.48460812481E-02 -0.22586058032E-01 -0.65304054423E-02  0.24005430972E-01  0.00000000000E+00 0.  1.
     999901    1    3    3    0    0  0.11672125980E+00  0.79791824641E-01  0.22212420542E-01  0.89156266151E+00  0.88000000000E+00 0. -1.
        -11    1    4    4    0    0 -0.31669158263E-01 -0.25207157301E-01  0.60675743882E-03  0.40484140597E-01  0.51100000000E-03 0.  1.
         11    1    4    4    0    0 -0.80206020286E-01 -0.31998609307E-01 -0.16288772538E-01  0.87877766923E-01  0.51100000000E-03 0. -1.
</event>
<event>
 8    1  0.1079508E+005  0.1043930E+01  0.7957747E-01            NaN
         13   -1    0    0    0    0  0.00000000000E+00  0.00000000000E+00  0.74505805969E-08  0.10566000000E+00  0.10566000000E+00 0.  1.
     999900   -1    0    0    0    0 -0.00000000000E+00 -0.00000000000E+00 -0.74505805969E-08  0.93827000000E+00  0.93827000000E+00 0.  1.
     999902    2    1    2    0    0 -0.29844962248E-01 -0.73465657899E-02 -0.46170744522E-02  0.10128492797E+01  0.10123722893E+01 0.  0.
     999903    2    3    3    0    0 -0.65399116439E-01 -0.10635981741E+00 -0.22937603197E-02  0.12658006567E+00  0.20683241967E-01 0.  0.
         14    1    1    2    0    0  0.29844962248E-01  0.73465657899E-02  0.46170744522E-02  0.31080720342E-01  0.00000000000E+00 0. -1.
     999901    1    3    3    0    0  0.35554154191E-01  0.99013251618E-01 -0.23233141324E-02  0.88626921399E+00  0.88000000000E+00 0. -1.
        -11    1    4    4    0    0 -0.25108051688E-01 -0.53039772417E-01  0.70124999123E-02  0.59102182647E-01  0.51100000000E-03 0. -1.
         11    1    4    4    0    0 -0.40291064751E-01 -0.53320044991E-01 -0.93062602320E-02  0.67477883022E-01  0.51100000000E-03 0.  1.
</event>
<event>
 8    1  0.1079508E+005  0.1043930E+01  0.7957747E-01            NaN
         13   -1    0    0    0    0  0.00000000000E+00  0.00000000000E+00  0.74505805969E-08  0.10566000000E+00  0.10566000000E+00 0. -1.
     999900   -1    0    0    0    0 -0.00000000000E+00 -0.00000000000E+00 -0.74505805969E-08  0.93827000000E+00  0.93827000000E+00 0.  1.
     999902    2    1    2    0    0  0.48660209132E-02  0.17018916329E-01 -0.20347205769E-01  0.10169609352E+01  0.10166032723E+01 0.  0.
     999903    2    3    3    0    0 -0.10762158928E+00 -0.33305632676E-01  0.51509325353E-01  0.12547375991E+00  0.19969531312E-01 0.  0.
         14    1    1    2    0    0 -0.48660209132E-02 -0.17018916329E-01  0.20347205769E-01  0.26969064780E-01  0.00000000000E+00 0. -1.
     999901    1    3    3    0    0  0.11248761019E+00  0.50324549005E-01 -0.71856531121E-01  0.89148717531E+00  0.88000000000E+00 0.  1.
        -11    1    4    4    0    0 -0.74888854575E-01 -0.20001812972E-01  0.44720633946E-01  0.89490833516E-01  0.51100000000E-03 0.  1.
         11    1    4    4    0    0 -0.32732734702E-01 -0.13303819704E-01  0.67886914062E-02  0.35982926393E-01  0.51100000000E-03 0. -1.
</event>
<event>
 8    1  0.1079508E+005  0.1043930E+01  0.7957747E-01            NaN
         13   -1    0    0    0    0  0.00000000000E+00  0.00000000000E+00  0.74505805969E-08  0.10566000000E+00  0.10566000000E+00 0.  1.
     999900   -1    0    0    0    0 -0.00000000000E+00 -0.00000000000E+00 -0.74505805969E-08  0.93827000000E+00  0.93827000000E+00 0.  1.
     999902    2    1    2    0    0 -0.13717945053E-01 -0.57742343212E-03 -0.21045120016E-01  0.10188020771E+01  0.10184921501E+01 0.  0.
     999903    2    3    3    0    0  0.39963348705E-01  0.54542916837E-01 -0.11026276478E+00  0.13095089509E+00  0.20451420754E-01 0.  0.
         14    1    1    2    0    0  0.13717945053E-01  0.57742343212E-03  0.21045120016E-01  0.25127922931E-01  0.00000000000E+00 0.  1.
     999901    1    3    3    0    0 -0.53681293758E-01 -0.55120340269E-01  0.89217644761E-01  0.88785118198E+00  0.88000000000E+00 0. -1.
        -11    1    4    4    0    0 -0.95282181153E-04  0.96706168082E-02 -0.23081073828E-01  0.25030521333E-01  0.51100000000E-03 0.  1.
         11    1    4    4    0    0  0.40058630886E-01  0.44872300029E-01 -0.87181690949E-01  0.10592037375E+00  0.51100000000E-03 0. -1.
</event>
<event>
 8    1  0.1079508E+005  0.1043930E+01  0.7957747E-01            NaN
         13   -1    0    0    0    0  0.00000000000E+00  0.00000000000E+00  0.74505805969E-08  0.10566000000E+00  0.10566000000E+00 0.  1.
     999900   -1    0    0    0    0 -0.00000000000E+00 -0.00000000000E+00 -0.74505805969E-08  0.93827000000E+00  0.93827000000E+00 0.  1.
     999902    2    1    2    0    0 -0.15958187330E-01 -0.12328945766E-01  0.12458321661E-01  0.10202260673E+01  0.10199506615E+01 0.  0.
     999903    2    3    3    0    0 -0.36389009639E-01 -0.16419241989E-01 -0.12184250417E+00  0.12979310473E+00  0.20171828937E-01 0.  0.
         14    1    1    2    0    0  0.15958187330E-01  0.12328945766E-01 -0.12458321661E-01  0.23703932694E-01  0.00000000000E+00 0. -1.
     999901    1    3    3    0    0  0.20430822309E-01  0.40902962225E-02  0.13430082583E+00  0.89043296258E+00  0.88000000000E+00 0. -1.
        -11    1    4    4    0    0 -0.12243007480E-01 -0.16487988557E-01 -0.53474236140E-01  0.57284378765E-01  0.51100000000E-03 0. -1.
         11    1    4    4    0    0 -0.24146002159E-01  0.68746567994E-04 -0.68368268031E-01  0.72508725964E-01  0.51100000000E-03 0.  1.
</event>
<event>
 8    1  0.1079508E+005  0.1043930E+01  0.7957747E-01            NaN
         13   -1    0    0    0    0  0.00000000000E+00  0.00000000000E+00  0.74505805969E-08  0.10566000000E+00  0.10566000000E+00 0. -1.
     999900   -1    0    0    0    0 -0.00000000000E+00 -0.00000000000E+00 -0.74505805969E-08  0.93827000000E+00  0.93827000000E+00 0. -1.
     999902    2    1    2    0    0 -0.35817587578E-02 -0.10226531333E-01  0.28321887158E-01  0.10136060782E+01  0.10131523783E+01 0.  0.
     999903    2    3    3    0    0 -0.33488125288E-01 -0.11530198079E+00 -0.28480834897E-01  0.12503318304E+00  0.20152855794E-01 0.  0.
         14    1    1    2    0    0  0.35817587578E-02  0.10226531333E-01 -0.28321887158E-01  0.30323921763E-01  0.00000000000E+00 0. -1.
     999901    1    3    3    0    0  0.29906366530E-01  0.10507544946E+00  0.56802722055E-01  0.88857289519E+00  0.88000000000E+00 0.  1.
        -11    1    4    4    0    0 -0.51304023274E-02 -0.35966045229E-01 -0.77684484758E-03  0.36342014892E-01  0.51100000000E-03 0.  1.
         11    1    4    4    0    0 -0.28357722960E-01 -0.79335935560E-01 -0.27703990049E-01  0.88691168153E-01  0.51100000000E-03 0. -1.
</event>
<event>
 8    1  0.1079508E+005  0.1043930E+01  0.7957747E-01            NaN
         13   -1    0    0    0    0  0.00000000000E+00  0.00000000000E+00  0.74505805969E-08  0.10566000000E+00  0.10566000000E+00 0. -1.
     999900   -1    0    0    0    0 -0.00000000000E+00 -0.00000000000E+00 -0.74505805969E-08  0.93827000000E+00  0.93827000000E+00 0. -1.
     999902    2    1    2    0    0  0.94843258273E-02  0.11042123856E-01  0.19466578837E-01  0.10196230334E+01  0.10193332632E+01 0.  0.
     999903    2    3    3    0    0 -0.24244198978E-01  0.63475892343E-01 -0.10699203403E+00  0.12839988833E+00  0.20549109106E-01 0.  0.
         14    1    1    2    0    0 -0.94843258273E-02 -0.11042123856E-01 -0.19466578837E-01  0.24306966641E-01  0.00000000000E+00 0.  1.
     999901    1    3    3    0    0  0.33728524805E-01 -0.52433768487E-01  0.12645861287E+00  0.89122314503E+00  0.88000000000E+00 0.  1.
        -11    1    4    4    0    0 -0.20367095320E-01  0.50246267234E-01 -0.67572481869E-01  0.86636062754E-01  0.51100000000E-03 0.  1.
         11    1    4    4    0    0 -0.38771036581E-02  0.13229625109E-01 -0.39419552161E-01  0.41763825578E-01  0.51100000000E-03 0. -1.
</event>
<event>
 8    1  0.1079508E+005  0.1043930E+01  0.7957747E-01            NaN
         13   -1    0    0    0    0  0.00000000000E+00  0.00000000000E+00  0.74505805969E-08  0.10566000000E+00  0.10566000000E+00 0.  1.
     999900   -1    0    0    0    0 -0.00000000000E+00 -0.00000000000E+00 -0.74505805969E-08  0.93827000000E+00  0.93827000000E+00 0.  1.
     999902    2    1    2    0    0 -0.93201109718E-02 -0.67399539772E-02 -0.20642775746E-01  0.10202991803E+01  0.10200254907E+01 0.  0.
     999903    2    3    3    0    0  0.75857799477E-03  0.10653887591E+00 -0.74196360610E-01  0.13136630337E+00  0.20022442746E-01 0.  0.
         14    1    1    2    0    0  0.93201109718E-02  0.67399539772E-02  0.20642775746E-01  0.23630819677E-01  0.00000000000E+00 0. -1.
     999901    1    3    3    0    0 -0.10078688967E-01 -0.11327882989E+00  0.53553584864E-01  0.88893287695E+00  0.88000000000E+00 0. -1.
        -11    1    4    4    0    0  0.67870425797E-02  0.25909356173E-01 -0.11987079381E-01  0.29348081323E-01  0.51100000000E-03 0.  1.
         11    1    4    4    0    0 -0.60284645849E-02  0.80629519736E-01 -0.62209281228E-01  0.10201822205E+00  0.51100000000E-03 0. -1.
</event>
<event>
 8    1  0.1079508E+005  0.1043930E+01  0.7957747E-01            NaN
         13   -1    0    0    0    0  0.00000000000E+00  0.00000000000E+00  0.74505805969E-08  0.10566000000E+00  0.10566000000E+00 0. -1.
     999900   -1    0    0    0    0 -0.00000000000E+00 -0.00000000000E+00 -0.74505805969E-08  0.93827000000E+00  0.93827000000E+00 0. -1.
     999902    2    1    2    0    0 -0.16015136011E-01 -0.93492261245E-02  0.91174434338E-02  0.10232655284E+01  0.10230568514E+01 0.  0.
     999903    2    3    3    0    0 -0.60649089609E-01 -0.55969099416E-01 -0.10323280936E+00  0.13377793340E+00  0.20704356491E-01 0.  0.
         14    1    1    2    0    0  0.16015136011E-01  0.93492261245E-02 -0.91174434338E-02  0.20664471572E-01  0.00000000000E+00 0.  1.
     999901    1    3    3    0    0  0.44633953598E-01  0.46619873292E-01  0.11235025279E+00  0.88948759502E+00  0.88000000000E+00 0.  1.
        -11    1    4    4    0    0 -0.48521910589E-01 -0.37037769436E-01 -0.63240745042E-01  0.87896673011E-01  0.51100000000E-03 0.  1.
         11    1    4    4    0    0 -0.12127179019E-01 -0.18931329980E-01 -0.39992064318E-01  0.45881260393E-01  0.51100000000E-03 0. -1.
</event>
<event>
 8    1  0.1079508E+005  0.1043930E+01  0.7957747E-01            NaN
         13   -1    0    0    0    0  0.00000000000E+00  0.00000000000E+00  0.74505805969E-08  0.10566000000E+00  0.10566000000E+00 0.  1.
     999900   -1    0    0    0    0 -0.00000000000E+00 -0.00000000000E+00 -0.74505805969E-08  0.93827000000E+00  0.93827000000E+00 0. -1.
     999902    2    1    2    0    0  0.11313059054E-01  0.21425274198E-01  0.14203994781E-03  0.10197009295E+01  0.10194130360E+01 0.  0.
     999903    2    3    3    0    0  0.25181797992E-01  0.84724148562E-01  0.96133444811E-01  0.13211237666E+00  0.19993412795E-01 0.  0.
         14    1    1    2    0    0 -0.11313059054E-01 -0.21425274198E-01 -0.14203994781E-03  0.24229070452E-01  0.00000000000E+00 0. -1.
     999901    1    3    3    0    0 -0.13868738938E-01 -0.63298874364E-01 -0.95991404863E-01  0.88758855289E+00  0.88000000000E+00 0.  1.
        -11    1    4    4    0    0  0.60355845742E-02  0.51159651790E-01  0.61429827998E-01  0.80172458746E-01  0.51100000000E-03 0. -1.
         11    1    4    4    0    0  0.19146213418E-01  0.33564496771E-01  0.34703616813E-01  0.51939917911E-01  0.51100000000E-03 0.  1.
</event>
<event>
 8    1  0.1079508E+005  0.1043930E+01  0.7957747E-01            NaN
         13   -1    0    0    0    0  0.00000000000E+00  0.00000000000E+00  0.74505805969E-08  0.10566000000E+00  0.10566000000E+00 0.  1.
     999900   -1    0    0    0    0 -0.00000000000E+00 -0.00000000000E+00 -0.74505805969E-08  0.93827000000E+00  0.93827000000E+00 0.  1.
     999902    2    1    2    0    0 -0.46879822859E-02 -0.19112468533E-01 -0.15226060479E-01  0.10190483491E+01  0.10187445418E+01 0.  0.
     999903    2    3    3    0    0 -0.28205697441E-02 -0.72311080842E-01  0.10544669559E+00  0.12921943658E+00  0.18488081427E-01 0.  0.
         14    1    1    2    0    0  0.46879822859E-02  0.19112468533E-01  0.15226060479E-01  0.24881650850E-01  0.00000000000E+00 0. -1.
     999901    1    3    3    0    0 -0.18674125418E-02  0.53198612309E-01 -0.12067275607E+00  0.88982891257E+00  0.88000000000E+00 0.  1.
        -11    1    4    4    0    0 -0.62466770129E-02 -0.27103696720E-01  0.53262874727E-01  0.60090151396E-01  0.51100000000E-03 0. -1.
         11    1    4    4    0    0  0.34261072688E-02 -0.45207384122E-01  0.52183820859E-01  0.69129285188E-01  0.51100000000E-03 0.  1.
</event>
<event>
 8    1  0.1079508E+005  0.1043930E+01  0.7957747E-01            NaN
         13   -1    0    0    0    0  0.00000000000E+00  0.00000000000E+00  0.74505805969E-08  0.10566000000E+00  0.10566000000E+00 0.  1.
     999900   -1    0    0    0    0 -0.00000000000E+00 -0.00000000000E+00 -0.74505805969E-08  0.93827000000E+00  0.93827000000E+00 0.  1.
     999902    2    1    2    0    0  0.73585038800E-02 -0.90828779399E-02  0.20499901909E-01  0.10203314359E+01  0.10200585016E+01 0.  0.
     999903    2    3    3    0    0 -0.20351619745E-01 -0.77274296988E-02  0.13086561713E+00  0.13300383047E+00  0.95030299402E-02 0.  0.
         14    1    1    2    0    0 -0.73585038800E-02  0.90828779399E-02 -0.20499901909E-01  0.23598564137E-01  0.00000000000E+00 0. -1.
     999901    1    3    3    0    0  0.27710123625E-01 -0.13554482411E-02 -0.11036571522E+00  0.88732760539E+00  0.88000000000E+00 0.  1.
        -11    1    4    4    0    0 -0.11917094784E-01 -0.64655081281E-03  0.50965313827E-01  0.52346532937E-01  0.51100000000E-03 0.  1.
         11    1    4    4    0    0 -0.84345249609E-02 -0.70808788860E-02  0.79900303302E-01  0.80657297536E-01  0.51100000000E-03 0. -1.
</event>
<event>
 8    1  0.1079508E+005  0.1043930E+01  0.7957747E-01            NaN
         13   -1    0    0    0    0  0.00000000000E+00  0.00000000000E+00  0.74505805969E-08  0.10566000000E+00  0.10566000000E+00 0.  1.
     999900   -1    0    0    0    0 -0.00000000000E+00 -0.00000000000E+00 -0.74505805969E-08  0.93827000000E+00  0.93827000000E+00 0.  1.
     999902    2    1    2    0    0 -0.17598014439E-01 -0.98450294065E-02  0.42487106348E-02  0.10233225679E+01  0.10231150530E+01 0.  0.
     999903    2    3    3    0    0 -0.28439317658E-01  0.11488267345E+00 -0.55777572292E-01  0.13243666702E+00  0.20530702737E-01 0.  0.
         14    1    1    2    0    0  0.17598014439E-01  0.98450294065E-02 -0.42487106348E-02  0.20607432112E-01  0.00000000000E+00 0. -1.
     999901    1    3    3    0    0  0.10841303219E-01 -0.12472770285E+00  0.60026282927E-01  0.89088590086E+00  0.88000000000E+00 0. -1.
        -11    1    4    4    0    0 -0.61402960620E-02  0.31393314347E-01 -0.55119757907E-02  0.32463616859E-01  0.51100000000E-03 0.  1.
         11    1    4    4    0    0 -0.22299021596E-01  0.83489359099E-01 -0.50265596501E-01  0.99973050166E-01  0.51100000000E-03 0. -1.
</event>
<event>
 8    1  0.1079508E+005  0.1043930E+01  0.7957747E-01            NaN
         13   -1    0    0    0    0  0.00000000000E+00  0.00000000000E+00  0.74505805969E-08  0.10566000000E+00  0.10566000000E+00 0.  1.
     999900   -1    0    0    0    0 -0.00000000000E+00 -0.00000000000E+00 -0.74505805969E-08  0.93827000000E+00  0.93827000000E+00 0.  1.
     999902    2    1    2    0    0 -0.20350352696E-01  0.81095649291E-02 -0.74049431209E-02  0.10208056604E+01  0.10205437087E+01 0.  0.
     999903    2    3    3    0    0  0.65434456233E-02  0.67196581781E-01 -0.11218554417E+00  0.13221490743E+00  0.18357236782E-01 0.  0.
         14    1    1    2    0    0  0.20350352696E-01 -0.81095649291E-02  0.74049431209E-02  0.23124339575E-01  0.00000000000E+00 0.  1.
     999901    1    3    3    0    0 -0.26893798319E-01 -0.59087016852E-01  0.10478060105E+00  0.88859075299E+00  0.88000000000E+00 0. -1.
        -11    1    4    4    0    0  0.15062125152E-02  0.63245972937E-01 -0.98054726104E-01  0.11669323974E+00  0.51100000000E-03 0. -1.
         11    1    4    4    0    0  0.50372331081E-02  0.39506088436E-02 -0.14130818068E-01  0.15521667690E-01  0.51100000000E-03 0.  1.
</event>
<event>
 8    1  0.1079508E+005  0.1043930E+01  0.7957747E-01            NaN
         13   -1    0    0    0    0  0.00000000000E+00  0.00000000000E+00  0.74505805969E-08  0.10566000000E+00  0.10566000000E+00 0. -1.
     999900   -1    0    0    0    0 -0.00000000000E+00 -0.00000000000E+00 -0.74505805969E-08  0.93827000000E+00  0.93827000000E+00 0.  1.
     999902    2    1    2    0    0 -0.13381198608E-01 -0.16258202845E-01 -0.10703593043E-01  0.10203089810E+01  0.10200355210E+01 0.  0.
     999903    2    3    3    0    0 -0.12950746583E+00 -0.19644896025E-01  0.62212850398E-02  0.13251213984E+00  0.19043559872E-01 0.  0.
         14    1    1    2    0    0  0.13381198608E-01  0.16258202845E-01  0.10703593043E-01  0.23621019028E-01  0.00000000000E+00 0.  1.
     999901    1    3    3    0    0  0.11612626722E+00  0.33866931809E-02 -0.16924878082E-01  0.88779684113E+00  0.88000000000E+00 0.  1.
        -11    1    4    4    0    0 -0.73751314519E-01 -0.12491923773E-01  0.12878047890E-01  0.75903951092E-01  0.51100000000E-03 0.  1.
         11    1    4    4    0    0 -0.55756151306E-01 -0.71529722528E-02 -0.66567628503E-02  0.56608188746E-01  0.51100000000E-03 0. -1.
</event>
<event>
 8    1  0.1079508E+005  0.1043930E+01  0.7957747E-01            NaN
         13   -1    0    0    0    0  0.00000000000E+00  0.00000000000E+00  0.74505805969E-08  0.10566000000E+00  0.10566000000E+00 0.  1.
     999900   -1    0    0    0    0 -0.00000000000E+00 -0.00000000000E+00 -0.74505805969E-08  0.93827000000E+00  0.93827000000E+00 0. -1.
     999902    2    1    2    0    0 -0.17390670502E-01  0.68568107374E-02  0.14981220744E-01  0.10199740352E+01  0.10196926715E+01 0.  0.
     999903    2    3    3    0    0  0.46308697848E-01 -0.56832840693E-01 -0.10264141822E+00  0.12759011199E+00  0.19222608174E-01 0.  0.
         14    1    1    2    0    0  0.17390670502E-01 -0.68568107374E-02 -0.14981220744E-01  0.23955964789E-01  0.00000000000E+00 0. -1.
     999901    1    3    3    0    0 -0.63699368350E-01  0.63689651430E-01  0.11762263897E+00  0.89238392322E+00  0.88000000000E+00 0.  1.
        -11    1    4    4    0    0  0.12336629918E-01 -0.29800621581E-01 -0.47234141837E-01  0.57197856257E-01  0.51100000000E-03 0.  1.
         11    1    4    4    0    0  0.33972067929E-01 -0.27032219112E-01 -0.55407276386E-01  0.70392255732E-01  0.51100000000E-03 0. -1.
</event>
<event>
 8    1  0.1079508E+005  0.1043930E+01  0.7957747E-01            NaN
         13   -1    0    0    0    0  0.00000000000E+00  0.00000000000E+00  0.74505805969E-08  0.10566000000E+00  0.10566000000E+00 0.  1.
     999900   -1    0    0    0    0 -0.00000000000E+00 -0.00000000000E+00 -0.74505805969E-08  0.93827000000E+00  0.93827000000E+00 0.  1.
     999902    2    1    2    0    0  0.12675514731E-01 -0.19290990801E-01  0.38178321046E-02  0.10205337003E+01  0.10202654784E+01 0.  0.
     999903    2    3    3    0    0 -0.10996064870E+00  0.50148123986E-01  0.38586866504E-01  0.12864228030E+00  0.21300502585E-01 0.  0.
         14    1    1    2    0    0 -0.12675514731E-01  0.19290990801E-01 -0.38178321046E-02  0.23396299745E-01  0.00000000000E+00 0. -1.
     999901    1    3    3    0    0  0.12263616343E+00 -0.69439114787E-01 -0.34769034399E-01  0.89189141996E+00  0.88000000000E+00 0. -1.
        -11    1    4    4    0    0 -0.53411438943E-01  0.17785088046E-01  0.87283388247E-02  0.56969607567E-01  0.51100000000E-03 0. -1.
         11    1    4    4    0    0 -0.56549209761E-01  0.32363035940E-01  0.29858527679E-01  0.71672672728E-01  0.51100000000E-03 0.  1.
</event>
<event>
 8    1  0.1079508E+005  0.1043930E+01  0.7957747E-01            NaN
         13   -1    0    0    0    0  0.00000000000E+00  0.00000000000E+00  0.74505805969E-08  0.10566000000E+00  0.10566000000E+00 0. -1.
     999900   -1    0    0    0    0 -0.00000000000E+00 -0.00000000000E+00 -0.74505805969E-08  0.93827000000E+00  0.93827000000E+00 0. -1.
     999902    2    1    2    0    0  0.91446186236E-02  0.13730562357E-01 -0.14799650708E-01  0.10217673726E+01  0.10215269853E+01 0.  0.
     999903    2    3    3    0    0 -0.34784569309E-01 -0.31022936122E-01 -0.12284711711E+00  0.13294404697E+00  0.20256273448E-01 0.  0.
         14    1    1    2    0    0 -0.91446186236E-02 -0.13730562357E-01  0.14799650708E-01  0.22162627405E-01  0.00000000000E+00 0. -1.
     999901    1    3    3    0    0  0.43929187933E-01  0.44753498478E-01  0.10804746641E+00  0.88882332563E+00  0.88000000000E+00 0.  1.
        -11    1    4    4    0    0 -0.28813715075E-01 -0.25124065857E-01 -0.73131165597E-01  0.82521981098E-01  0.51100000000E-03 0. -1.
         11    1    4    4    0    0 -0.59708542339E-02 -0.58988702642E-02 -0.49715951516E-01  0.50422065873E-01  0.51100000000E-03 0.  1.
</event>
<event>
 8    1  0.1079508E+005  0.1043930E+01  0.7957747E-01            NaN
         13   -1    0    0    0    0  0.00000000000E+00  0.00000000000E+00  0.74505805969E-08  0.10566000000E+00  0.10566000000E+00 0. -1.
     999900   -1    0    0    0    0 -0.00000000000E+00 -0.00000000000E+00 -0.74505805969E-08  0.93827000000E+00  0.93827000000E+00 0. -1.
     999902    2    1    2    0    0 -0.55919773670E-02  0.19700033573E-01 -0.18308176727E-01  0.10164609107E+01  0.10160896772E+01 0.  0.
     999903    2    3    3    0    0  0.10749153668E+00 -0.81362152452E-02  0.60690402129E-01  0.12527994512E+00  0.19776533636E-01 0.  0.
         14    1    1    2    0    0  0.55919773670E-02 -0.19700033573E-01  0.18308176727E-01  0.27469089332E-01  0.00000000000E+00 0. -1.
     999901    1    3    3    0    0 -0.11308351404E+00  0.27836248818E-01 -0.78998578855E-01  0.89118096555E+00  0.88000000000E+00 0. -1.
        -11    1    4    4    0    0  0.92845207015E-01 -0.39516554511E-02  0.44470453953E-01  0.10302296075E+00  0.51100000000E-03 0. -1.
         11    1    4    4    0    0  0.14646329663E-01 -0.41845597941E-02  0.16219948176E-01  0.22256984367E-01  0.51100000000E-03 0.  1.
</event>
<event>
 8    1  0.1079508E+005  0.1043930E+01  0.7957747E-01            NaN
         13   -1    0    0    0    0  0.00000000000E+00  0.00000000000E+00  0.74505805969E-08  0.10566000000E+00  0.10566000000E+00 0.  1.
     999900   -1    0    0    0    0 -0.00000000000E+00 -0.00000000000E+00 -0.74505805969E-08  0.93827000000E+00  0.93827000000E+00 0. -1.
     999902    2    1    2    0    0 -0.15768394262E-01  0.13965333957E-01  0.99563756305E-02  0.10206318836E+01  0.10203659342E+01 0.  0.
     999903    2    3    3    0    0  0.10147301391E+00  0.96727454266E-02 -0.76315375423E-01  0.12866395309E+00  0.18440220782E-01 0.  0.
         14    1    1    2    0    0  0.15768394262E-01 -0.13965333957E-01 -0.99563756305E-02  0.23298116358E-01  0.00000000000E+00 0. -1.
     999901    1    3    3    0    0 -0.11724140817E+00  0.42925885299E-02  0.86271751053E-01  0.89196793055E+00  0.88000000000E+00 0.  1.
        -11    1    4    4    0    0  0.15356262164E-01 -0.51341513044E-02 -0.12430799727E-01  0.20419603329E-01  0.51100000000E-03 0.  1.
         11    1    4    4    0    0  0.86116751746E-01  0.14806896731E-01 -0.63884575696E-01  0.10824434976E+00  0.51100000000E-03 0. -1.
</event>
<event>
 8    1  0.1079508E+005  0.1043930E+01  0.7957747E-01            NaN
         13   -1    0    0    0    0  0.00000000000E+00  0.00000000000E+00  0.74505805969E-08  0.10566000000E+00  0.10566000000E+00 0. -1.
     999900   -1    0    0    0    0 -0.00000000000E+00 -0.00000000000E+00 -0.74505805969E-08  0.93827000000E+00  0.93827000000E+00 0.  1.
     999902    2    1    2    0    0  0.56020648810E-02 -0.11125751023E-01 -0.20615449006E-01  0.10198434435E+01  0.10195589669E+01 0.  0.
     999903    2    3    3    0    0  0.16248267809E-01 -0.63478783655E-01  0.10867749195E+00  0.12879302615E+00  0.21983724590E-01 0.  0.
         14    1    1    2    0    0 -0.56020648810E-02  0.11125751023E-01  0.20615449006E-01  0.24086556509E-01  0.00000000000E+00 0. -1.
     999901    1    3    3    0    0 -0.10646202928E-01  0.52353032632E-01 -0.12929294096E+00  0.89105041734E+00  0.88000000000E+00 0. -1.
        -11    1    4    4    0    0  0.10254506354E-01 -0.28375399090E-01  0.30599178378E-01  0.42975446624E-01  0.51100000000E-03 0. -1.
         11    1    4    4    0    0  0.59937614550E-02 -0.35103384566E-01  0.78078313573E-01  0.85817579526E-01  0.51100000000E-03 0.  1.
</event>
<event>
 8    1  0.1079508E+005  0.1043930E+01  0.7957747E-01            NaN
         13   -1    0    0    0    0  0.00000000000E+00  0.00000000000E+00  0.74505805969E-08  0.10566000000E+00  0.10566000000E+00 0. -1.
     999900   -1    0    0    0    0 -0.00000000000E+00 -0.00000000000E+00 -0.74505805969E-08  0.93827000000E+00  0.93827000000E+00 0.  1.
     999902    2    1    2    0    0  0.14606513005E-01 -0.15520820587E-01 -0.19973162974E-02  0.10225235672E+01  0.10222994718E+01 0.  0.
     999903    2    3    3    0    0  0.11516135427E+00 -0.40079667586E-01 -0.54331241222E-01  0.13491258664E+00  0.19519349139E-01 0.  0.
         14    1    1    2    0    0 -0.14606513005E-01  0.15520820587E-01  0.19973162974E-02  0.21406432824E-01  0.00000000000E+00 0. -1.
     999901    1    3    3    0    0 -0.10055484126E+00  0.24558846999E-01  0.52333924925E-01  0.88761098053E+00  0.88000000000E+00 0. -1.
        -11    1    4    4    0    0  0.42939909476E-01 -0.21479540724E-01 -0.13452625981E-01  0.49864223270E-01  0.51100000000E-03 0.  1.
         11    1    4    4    0    0  0.72221444792E-01 -0.18600126863E-01 -0.40878615241E-01  0.85048363372E-01  0.51100000000E-03 0. -1.
</event>
<event>
 8    1  0.1079508E+005  0.1043930E+01  0.7957747E-01            NaN
         13   -1    0    0    0    0  0.00000000000E+00  0.00000000000E+00  0.74505805969E-08  0.10566000000E+00  0.10566000000E+00 0.  1.
     999900   -1    0    0    0    0 -0.00000000000E+00 -0.00000000000E+00 -0.74505805969E-08  0.93827000000E+00  0.93827000000E+00 0. -1.
     999902    2    1    2    0    0  0.15868500630E-01 -0.58302585758E-02  0.14323215696E-01  0.10217724790E+01  0.10215322037E+01 0.  0.
     999903    2    3    3    0    0  0.86556759540E-01  0.73943696636E-01  0.67217448676E-01  0.13376430691E+00  0.20370603898E-01 0.  0.
         14    1    1    2    0    0 -0.15868500630E-01  0.58302585758E-02 -0.14323215696E-01  0.22157520962E-01  0.00000000000E+00 0. -1.
     999901    1    3    3    0    0 -0.70688258910E-01 -0.79773955212E-01 -0.52894232980E-01  0.88800817212E+00  0.88000000000E+00 0. -1.
        -11    1    4    4    0    0  0.48436555781E-01  0.29916601559E-01  0.39298271616E-01  0.69178885925E-01  0.51100000000E-03 0. -1.
         11    1    4    4    0    0  0.38120203759E-01  0.44027095077E-01  0.27919177060E-01  0.64585420989E-01  0.51100000000E-03 0.  1.
</event>
<event>
 8    1  0.1079508E+005  0.1043930E+01  0.7957747E-01            NaN
         13   -1    0    0    0    0  0.00000000000E+00  0.00000000000E+00  0.74505805969E-08  0.10566000000E+00  0.10566000000E+00 0. -1.
     999900   -1    0    0    0    0 -0.00000000000E+00 -0.00000000000E+00 -0.74505805969E-08  0.93827000000E+00  0.93827000000E+00 0.  1.
     999902    2    1    2    0    0  0.15012447805E-01  0.20566447480E-01 -0.81726565866E-02  0.10171878111E+01  0.10168362200E+01 0.  0.
     999903    2    3    3    0    0 -0.74674983309E-02  0.12804761849E+00 -0.13145570123E-01  0.13034944930E+00  0.19136791481E-01 0.  0.
         14    1    1    2    0    0 -0.15012447805E-01 -0.20566447480E-01  0.81726565866E-02  0.26742188892E-01  0.00000000000E+00 0. -1.
     999901    1    3    3    0    0  0.22479946136E-01 -0.10748117101E+00  0.49729135360E-02  0.88683836180E+00  0.88000000000E+00 0.  1.
        -11    1    4    4    0    0 -0.10373253545E-01  0.11170955810E+00 -0.16539152140E-01  0.11340385546E+00  0.51100000000E-03 0. -1.
         11    1    4    4    0    0  0.29057552145E-02  0.16338060389E-01  0.33935820175E-02  0.16945593839E-01  0.51100000000E-03 0.  1.
</event>
<event>
 8    1  0.1079508E+005  0.1043930E+01  0.7957747E-01            NaN
         13   -1    0    0    0    0  0.00000000000E+00  0.00000000000E+00  0.74505805969E-08  0.10566000000E+00  0.10566000000E+00 0. -1.
     999900   -1    0    0    0    0 -0.00000000000E+00 -0.00000000000E+00 -0.74505805969E-08  0.93827000000E+00  0.93827000000E+00 0.  1.
     999902    2    1    2    0    0  0.20130408887E-01 -0.13174678667E-01 -0.45109598121E-02  0.10194523719E+01  0.10191584687E+01 0.  0.
     999903    2    3    3    0    0 -0.11130779648E-02 -0.12989796187E+00  0.45393901905E-02  0.13144475963E+00  0.19555033387E-01 0.  0.
         14    1    1    2    0    0 -0.20130408887E-01  0.13174678667E-01  0.45109598121E-02  0.24477628120E-01  0.00000000000E+00 0. -1.
     999901    1    3    3    0    0  0.21243486851E-01  0.11672328320E+00 -0.90503500026E-02  0.88800761225E+00  0.88000000000E+00 0.  1.
        -11    1    4    4    0    0 -0.89468088252E-02 -0.10165609968E+00  0.39190125599E-02  0.10212554906E+00  0.51100000000E-03 0. -1.
         11    1    4    4    0    0  0.78337308604E-02 -0.28241862192E-01  0.62037763057E-03  0.29319210574E-01  0.51100000000E-03 0.  1.
</event>
<event>
 8    1  0.1079508E+005  0.1043930E+01  0.7957747E-01            NaN
         13   -1    0    0    0    0  0.00000000000E+00  0.00000000000E+00  0.74505805969E-08  0.10566000000E+00  0.10566000000E+00 0. -1.
     999900   -1    0    0    0    0 -0.00000000000E+00 -0.00000000000E+00 -0.74505805969E-08  0.93827000000E+00  0.93827000000E+00 0. -1.
     999902    2    1    2    0    0 -0.17844123798E-01  0.96755553722E-02  0.13619770620E-01  0.10194856289E+01  0.10191925335E+01 0.  0.
     999903    2    3    3    0    0  0.30692522590E-02 -0.12076891995E+00  0.41554085834E-01  0.12918598475E+00  0.19176138028E-01 0.  0.
         14    1    1    2    0    0  0.17844123798E-01 -0.96755553722E-02 -0.13619770620E-01  0.24444371082E-01  0.00000000000E+00 0.  1.
     999901    1    3    3    0    0 -0.20913376057E-01  0.13044447533E+00 -0.27934315214E-01  0.89029964417E+00  0.88000000000E+00 0. -1.
        -11    1    4    4    0    0 -0.63452582013E-02 -0.41306892758E-01  0.87335299624E-02  0.42697275763E-01  0.51100000000E-03 0. -1.
         11    1    4    4    0    0  0.94145104604E-02 -0.79462027196E-01  0.32820555872E-01  0.86488708985E-01  0.51100000000E-03 0.  1.
</event>
<event>
 8    1  0.1079508E+005  0.1043930E+01  0.7957747E-01            NaN
         13   -1    0    0    0    0  0.00000000000E+00  0.00000000000E+00  0.74505805969E-08  0.10566000000E+00  0.10566000000E+00 0.  1.
     999900   -1    0    0    0    0 -0.00000000000E+00 -0.00000000000E+00 -0.74505805969E-08  0.93827000000E+00  0.93827000000E+00 0.  1.
     999902    2    1    2    0    0  0.18321929084E-01 -0.76385782385E-02  0.11961754503E-01  0.10207540527E+01  0.10204909169E+01 0.  0.
     999903    2    3    3    0    0 -0.84039727727E-01 -0.97328576100E-01  0.32589906791E-02  0.13024973344E+00  0.20465690303E-01 0.  0.
         14    1    1    2    0    0 -0.18321929084E-01  0.76385782385E-02 -0.11961754503E-01  0.23175947309E-01  0.00000000000E+00 0.  1.
     999901    1    3    3    0    0  0.10236165681E+00  0.89689997862E-01  0.87027638240E-02  0.89050431925E+00  0.88000000000E+00 0.  1.
        -11    1    4    4    0    0 -0.48140726428E-01 -0.41391075207E-01 -0.24455124202E-02  0.63537329971E-01  0.51100000000E-03 0.  1.
         11    1    4    4    0    0 -0.35899001299E-01 -0.55937500893E-01  0.57045030994E-02  0.66712403472E-01  0.51100000000E-03 0. -1.
</event>
<event>
 8    1  0.1079508E+005  0.1043930E+01  0.7957747E-01            NaN
         13   -1    0    0    0    0  0.00000000000E+00  0.00000000000E+00  0.74505805969E-08  0.10566000000E+00  0.10566000000E+00 0.  1.
     999900   -1    0    0    0    0 -0.00000000000E+00 -0.00000000000E+00 -0.74505805969E-08  0.93827000000E+00  0.93827000000E+00 0. -1.
     999902    2    1    2    0    0  0.15686160504E-01 -0.59551472024E-03  0.17491250941E-01  0.10204277846E+01  0.10201571004E+01 0.  0.
     999903    2    3    3    0    0 -0.10477327154E+00 -0.28760535979E-01 -0.64886677832E-01  0.12796497510E+00  0.18977540260E-01 0.  0.
         14    1    1    2    0    0 -0.15686160504E-01  0.59551472024E-03 -0.17491250941E-01  0.23502215398E-01  0.00000000000E+00 0. -1.
     999901    1    3    3    0    0  0.12045943204E+00  0.28165021259E-01  0.82377928773E-01  0.89246280950E+00  0.88000000000E+00 0.  1.
        -11    1    4    4    0    0 -0.33479856070E-01 -0.13483401559E-01 -0.30914555769E-01  0.47525506409E-01  0.51100000000E-03 0.  1.
         11    1    4    4    0    0 -0.71293415468E-01 -0.15277134421E-01 -0.33972122063E-01  0.80439468693E-01  0.51100000000E-03 0. -1.
</event>
<event>
 8    1  0.1277994E+005  0.1043930E+01  0.7957747E-01            NaN
         13   -1    0    0    0    0  0.00000000000E+00  0.00000000000E+00  0.74505805969E-08  0.10566000000E+00  0.10566000000E+00 0.  1.
     999900   -1    0    0    0    0 -0.00000000000E+00 -0.00000000000E+00 -0.74505805969E-08  0.93827000000E+00  0.93827000000E+00 0.  1.
     999902    2    1    2    0    0 -0.27693735108E-02  0.17190927864E-01  0.16033701995E-01  0.10202598283E+01  0.10199852156E+01 0.  0.
     999903    2    3    3    0    0 -0.74378967343E-01 -0.80191243502E-01 -0.64803036012E-01  0.12832608664E+00  0.17472398776E-01 0.  0.
         14    1    1    2    0    0  0.27693735108E-02 -0.17190927864E-01 -0.16033701995E-01  0.23670171738E-01  0.00000000000E+00 0. -1.
     999901    1    3    3    0    0  0.71609593832E-01  0.97382171366E-01  0.80836738007E-01  0.89193374162E+00  0.88000000000E+00 0. -1.
        -11    1    4    4    0    0 -0.22571544924E-01 -0.16369331004E-01 -0.22751754879E-01  0.35990736431E-01  0.51100000000E-03 0. -1.
         11    1    4    4    0    0 -0.51807422419E-01 -0.63821912498E-01 -0.42051281133E-01  0.92335350211E-01  0.51100000000E-03 0.  1.
</event>
<event>
 8    1  0.1079508E+005  0.1043930E+01  0.7957747E-01            NaN
         13   -1    0    0    0    0  0.00000000000E+00  0.00000000000E+00  0.74505805969E-08  0.10566000000E+00  0.10566000000E+00 0. -1.
     999900   -1    0    0    0    0 -0.00000000000E+00 -0.00000000000E+00 -0.74505805969E-08  0.93827000000E+00  0.93827000000E+00 0. -1.
     999902    2    1    2    0    0 -0.10595078540E-02  0.23115948739E-01  0.22812113889E-02  0.10206776116E+01  0.10204127171E+01 0.  0.
     999903    2    3    3    0    0 -0.88128802321E-01 -0.13025148943E-01 -0.93294018914E-01  0.13049680653E+00  0.19730743700E-01 0.  0.
         14    1    1    2    0    0  0.10595078540E-02 -0.23115948739E-01 -0.22812113889E-02  0.23252388445E-01  0.00000000000E+00 0.  1.
     999901    1    3    3    0    0  0.87069294467E-01  0.36141097682E-01  0.95575230303E-01  0.89018080502E+00  0.88000000000E+00 0.  1.
        -11    1    4    4    0    0 -0.76244834837E-02 -0.47784496857E-02 -0.17176145069E-01  0.19397097984E-01  0.51100000000E-03 0. -1.
         11    1    4    4    0    0 -0.80504318837E-01 -0.82466992574E-02 -0.76117873845E-01  0.11109970855E+00  0.51100000000E-03 0.  1.
</event>
<event>
 8    1  0.1079508E+005  0.1043930E+01  0.7957747E-01            NaN
         13   -1    0    0    0    0  0.00000000000E+00  0.00000000000E+00  0.74505805969E-08  0.10566000000E+00  0.10566000000E+00 0. -1.
     999900   -1    0    0    0    0 -0.00000000000E+00 -0.00000000000E+00 -0.74505805969E-08  0.93827000000E+00  0.93827000000E+00 0. -1.
     999902    2    1    2    0    0 -0.17221264310E-01  0.16433822749E-01 -0.32316881343E-02  0.10199073798E+01  0.10196244294E+01 0.  0.
     999903    2    3    3    0    0  0.85520430298E-01  0.16432894423E-01  0.92972870358E-01  0.12872211683E+00  0.18483633841E-01 0.  0.
         14    1    1    2    0    0  0.17221264310E-01 -0.16433822749E-01  0.32316881343E-02  0.24022620231E-01  0.00000000000E+00 0.  1.
     999901    1    3    3    0    0 -0.10274169461E+00  0.92832673116E-06 -0.96204558493E-01  0.89118526294E+00  0.88000000000E+00 0. -1.
        -11    1    4    4    0    0  0.58085675862E-01  0.19725754415E-01  0.62236504607E-01  0.87388184295E-01  0.51100000000E-03 0. -1.
         11    1    4    4    0    0  0.27434754435E-01 -0.32928599927E-02  0.30736365751E-01  0.41333932531E-01  0.51100000000E-03 0.  1.
</event>
<event>
 8    1  0.1079508E+005  0.1043930E+01  0.7957747E-01            NaN
         13   -1    0    0    0    0  0.00000000000E+00  0.00000000000E+00  0.74505805969E-08  0.10566000000E+00  0.10566000000E+00 0. -1.
     999900   -1    0    0    0    0 -0.00000000000E+00 -0.00000000000E+00 -0.74505805969E-08  0.93827000000E+00  0.93827000000E+00 0.  1.
     999902    2    1    2    0    0 -0.25003158996E-01  0.12587173381E-02 -0.31420377941E-02  0.10186987747E+01  0.10183862621E+01 0.  0.
     999903    2    3    3    0    0 -0.90996515614E-01 -0.35211387311E-03 -0.93075089822E-01  0.13165555605E+00  0.19741409641E-01 0.  0.
         14    1    1    2    0    0  0.25003158996E-01 -0.12587173381E-02  0.31420377941E-02  0.25231225309E-01  0.00000000000E+00 0. -1.
     999901    1    3    3    0    0  0.65993356619E-01  0.16108312112E-02  0.89933052028E-01  0.88704321864E+00  0.88000000000E+00 0. -1.
        -11    1    4    4    0    0 -0.28619701187E-01  0.78723481084E-02 -0.23603730815E-01  0.37927013989E-01  0.51100000000E-03 0. -1.
         11    1    4    4    0    0 -0.62376814428E-01 -0.82244619815E-02 -0.69471359007E-01  0.93728542058E-01  0.51100000000E-03 0.  1.
</event>
<event>
 8    1  0.1079508E+005  0.1043930E+01  0.7957747E-01            NaN
         13   -1    0    0    0    0  0.00000000000E+00  0.00000000000E+00  0.74505805969E-08  0.10566000000E+00  0.10566000000E+00 0.  1.
     999900   -1    0    0    0    0 -0.00000000000E+00 -0.00000000000E+00 -0.74505805969E-08  0.93827000000E+00  0.93827000000E+00 0. -1.
     999902    2    1    2    0    0  0.16041672521E-01  0.11995067419E-01  0.12215215134E-01  0.10204687899E+01  0.10201990603E+01 0.  0.
     999903    2    3    3    0    0 -0.33568208919E-01 -0.42668488371E-01  0.11755714086E+00  0.13111724747E+00  0.20606471452E-01 0.  0.
         14    1    1    2    0    0 -0.16041672521E-01 -0.11995067419E-01 -0.12215215134E-01  0.23461210123E-01  0.00000000000E+00 0. -1.
     999901    1    3    3    0    0  0.49609881440E-01  0.54663555791E-01 -0.10534192573E+00  0.88935154241E+00  0.88000000000E+00 0. -1.
        -11    1    4    4    0    0 -0.11263760490E-01 -0.26881693781E-01  0.45351249661E-01  0.53911916380E-01  0.51100000000E-03 0. -1.
         11    1    4    4    0    0 -0.22304448429E-01 -0.15786794591E-01  0.72205891203E-01  0.77205331089E-01  0.51100000000E-03 0.  1.
</event>
<event>
 8    1  0.1079508E+005  0.1043930E+01  0.7957747E-01            NaN
         13   -1    0    0    0    0  0.00000000000E+00  0.00000000000E+00  0.74505805969E-08  0.10566000000E+00  0.10566000000E+00 0. -1.
     999900   -1    0    0    0    0 -0.00000000000E+00 -0.00000000000E+00 -0.74505805969E-08  0.93827000000E+00  0.93827000000E+00 0.  1.
     999902    2    1    2    0    0  0.14635108175E-01  0.58402613746E-02 -0.18183281209E-01  0.10198691031E+01  0.10195852395E+01 0.  0.
     999903    2    3    3    0    0 -0.10681093814E+00 -0.93524589666E-02 -0.70738669287E-01  0.12984549120E+00  0.18969640435E-01 0.  0.
         14    1    1    2    0    0 -0.14635108175E-01 -0.58402613746E-02  0.18183281209E-01  0.24060896903E-01  0.00000000000E+00 0. -1.
     999901    1    3    3    0    0  0.12144604631E+00  0.15192720341E-01  0.52555388077E-01  0.89002361190E+00  0.88000000000E+00 0.  1.
        -11    1    4    4    0    0 -0.19965222484E-01  0.50140422233E-02 -0.99583264973E-02  0.22873130871E-01  0.51100000000E-03 0. -1.
         11    1    4    4    0    0 -0.86845715654E-01 -0.14366501190E-01 -0.60780342789E-01  0.10697236033E+00  0.51100000000E-03 0.  1.
</event>
<event>
 8    1  0.1079508E+005  0.1043930E+01  0.7957747E-01            NaN
         13   -1    0    0    0    0  0.00000000000E+00  0.00000000000E+00  0.74505805969E-08  0.10566000000E+00  0.10566000000E+00 0.  1.
     999900   -1    0    0    0    0 -0.00000000000E+00 -0.00000000000E+00 -0.74505805969E-08  0.93827000000E+00  0.93827000000E+00 0. -1.
     999902    2    1    2    0    0 -0.88505481525E-02 -0.21162848070E-01 -0.60815204341E-02  0.10201985181E+01  0.10199224643E+01 0.  0.
     999903    2    3    3    0    0  0.11434158910E+00 -0.26642847331E-01  0.50946150655E-01  0.12977250304E+00  0.21483760526E-01 0.  0.
         14    1    1    2    0    0  0.88505481525E-02  0.21162848070E-01  0.60815204341E-02  0.23731481871E-01  0.00000000000E+00 0.  1.
     999901    1    3    3    0    0 -0.12319213726E+00  0.54799992614E-02 -0.57027671089E-01  0.89042601509E+00  0.88000000000E+00 0. -1.
        -11    1    4    4    0    0  0.64459457608E-02  0.30403244785E-02  0.95615358147E-03  0.72089625021E-02  0.51100000000E-03 0. -1.
         11    1    4    4    0    0  0.10789564334E+00 -0.29683171810E-01  0.49989997074E-01  0.12256354054E+00  0.51100000000E-03 0.  1.
</event>
<event>
 8    1  0.1079508E+005  0.1043930E+01  0.7957747E-01            NaN
         13   -1    0    0    0    0  0.00000000000E+00  0.00000000000E+00  0.74505805969E-08  0.10566000000E+00  0.10566000000E+00 0.  1.
     999900   -1    0    0    0    0 -0.00000000000E+00 -0.00000000000E+00 -0.74505805969E-08  0.93827000000E+00  0.93827000000E+00 0.  1.
     999902    2    1    2    0    0  0.15231472603E-01  0.16608422033E-02 -0.17925608881E-01  0.10203485749E+01  0.10200760417E+01 0.  0.
     999903    2    3    3    0    0 -0.47507971996E-01 -0.90683810062E-03  0.11715705080E+00  0.12782958027E+00  0.18889078330E-01 0.  0.
         14    1    1    2    0    0 -0.15231472603E-01 -0.16608422033E-02  0.17925608881E-01  0.23581425068E-01  0.00000000000E+00 0. -1.
     999901    1    3    3    0    0  0.62739444599E-01  0.25676803039E-02 -0.13508265968E+00  0.89251899466E+00  0.88000000000E+00 0.  1.
        -11    1    4    4    0    0 -0.30422559857E-01  0.54874586704E-02  0.55528385757E-01  0.63555543399E-01  0.51100000000E-03 0.  1.
         11    1    4    4    0    0 -0.17085412139E-01 -0.63942967710E-02  0.61628665045E-01  0.64274036868E-01  0.51100000000E-03 0. -1.
</event>
<event>
 8    1  0.1079508E+005  0.1043930E+01  0.7957747E-01            NaN
         13   -1    0    0    0    0  0.00000000000E+00  0.00000000000E+00  0.74505805969E-08  0.10566000000E+00  0.10566000000E+00 0. -1.
     999900   -1    0    0    0    0 -0.00000000000E+00 -0.00000000000E+00 -0.74505805969E-08  0.93827000000E+00  0.93827000000E+00 0. -1.
     999902    2    1    2    0    0 -0.11709646047E-01  0.41479054065E-02  0.14454249875E-01  0.10248709793E+01  0.10246937484E+01 0.  0.
     999903    2    3    3    0    0 -0.11952635326E+00 -0.30643048215E-01 -0.51496055102E-01  0.13516074810E+00  0.19774696183E-01 0.  0.
         14    1    1    2    0    0  0.11709646047E-01 -0.41479054065E-02 -0.14454249875E-01  0.19059020680E-01  0.00000000000E+00 0.  1.
     999901    1    3    3    0    0  0.10781670721E+00  0.34790953621E-01  0.65950304978E-01  0.88971023122E+00  0.88000000000E+00 0.  1.
        -11    1    4    4    0    0 -0.38597381992E-01 -0.84475181594E-03 -0.18613765716E-01  0.42862628214E-01  0.51100000000E-03 0.  1.
         11    1    4    4    0    0 -0.80928971267E-01 -0.29798296399E-01 -0.32882289386E-01  0.92298119888E-01  0.51100000000E-03 0. -1.
</event>
<event>
 8    1  0.1499693E+005  0.1043930E+01  0.7957747E-01            NaN
         13   -1    0    0    0    0  0.00000000000E+00  0.00000000000E+00  0.74505805969E-08  0.10566000000E+00  0.10566000000E+00 0.  1.
     999900   -1    0    0    0    0 -0.00000000000E+00 -0.00000000000E+00 -0.74505805969E-08  0.93827000000E+00  0.93827000000E+00 0. -1.
     999902    2    1    2    0    0  0.16893692576E-01  0.16710171897E-01 -0.87537440237E-03  0.10201520065E+01  0.10198748567E+01 0.  0.
     999903    2    3    3    0    0 -0.98293890234E-01  0.48576689967E-01 -0.67775416608E-01  0.12955710992E+00  0.13044307871E-01 0.  0.
         14    1    1    2    0    0 -0.16893692576E-01 -0.16710171897E-01  0.87537440237E-03  0.23777993482E-01  0.00000000000E+00 0. -1.
     999901    1    3    3    0    0  0.11518758281E+00 -0.31866518070E-01  0.66900042206E-01  0.89059489660E+00  0.88000000000E+00 0.  1.
        -11    1    4    4    0    0 -0.43404360497E-01  0.28447152402E-01 -0.29916680037E-01  0.59903654775E-01  0.51100000000E-03 0.  1.
         11    1    4    4    0    0 -0.54889529737E-01  0.20129537565E-01 -0.37858736571E-01  0.69653455141E-01  0.51100000000E-03 0. -1.
</event>
<event>
 8    1  0.1079508E+005  0.1043930E+01  0.7957747E-01            NaN
         13   -1    0    0    0    0  0.00000000000E+00  0.00000000000E+00  0.74505805969E-08  0.10566000000E+00  0.10566000000E+00 0. -1.
     999900   -1    0    0    0    0 -0.00000000000E+00 -0.00000000000E+00 -0.74505805969E-08  0.93827000000E+00  0.93827000000E+00 0. -1.
     999902    2    1    2    0    0  0.23812679639E-01 -0.83746702043E-02  0.36850286772E-02  0.10184200363E+01  0.10181004921E+01 0.  0.
     999903    2    3    3    0    0 -0.96904015421E-01 -0.79420828270E-01  0.10752562198E-01  0.12731396680E+00  0.19878943128E-01 0.  0.
         14    1    1    2    0    0 -0.23812679639E-01  0.83746702043E-02 -0.36850286772E-02  0.25509963719E-01  0.00000000000E+00 0.  1.
     999901    1    3    3    0    0  0.12071669506E+00  0.71046158066E-01 -0.70675335212E-02  0.89110606948E+00  0.88000000000E+00 0. -1.
        -11    1    4    4    0    0 -0.74939441976E-01 -0.52704520906E-01  0.13532415862E-01  0.92612493151E-01  0.51100000000E-03 0. -1.
         11    1    4    4    0    0 -0.21964573445E-01 -0.26716307364E-01 -0.27798536632E-02  0.34701473646E-01  0.51100000000E-03 0.  1.
</event>
<event>
 8    1  0.1079508E+005  0.1043930E+01  0.7957747E-01            NaN
         13   -1    0    0    0    0  0.00000000000E+00  0.00000000000E+00  0.74505805969E-08  0.10566000000E+00  0.10566000000E+00 0. -1.
     999900   -1    0    0    0    0 -0.00000000000E+00 -0.00000000000E+00 -0.74505805969E-08  0.93827000000E+00  0.93827000000E+00 0.  1.
     999902    2    1    2    0    0  0.98733576250E-02  0.15116955954E-01  0.15494184986E-01  0.10201376627E+01  0.10198601745E+01 0.  0.
     999903    2    3    3    0    0 -0.36178300585E-01  0.12524461629E+00  0.10645238120E-02  0.13196140091E+00  0.20435135872E-01 0.  0.
         14    1    1    2    0    0 -0.98733576250E-02 -0.15116955954E-01 -0.15494184986E-01  0.23792337348E-01  0.00000000000E+00 0.  1.
     999901    1    3    3    0    0  0.46051658210E-01 -0.11012766033E+00  0.14429661174E-01  0.88817626174E+00  0.88000000000E+00 0. -1.
        -11    1    4    4    0    0 -0.25399273675E-02  0.40939299960E-01  0.33956624304E-02  0.41161500903E-01  0.51100000000E-03 0.  1.
         11    1    4    4    0    0 -0.33638373218E-01  0.84305316326E-01 -0.23311386184E-02  0.90799900010E-01  0.51100000000E-03 0. -1.
</event>
<event>
 8    1  0.1079508E+005  0.1043930E+01  0.7957747E-01            NaN
         13   -1    0    0    0    0  0.00000000000E+00  0.00000000000E+00  0.74505805969E-08  0.10566000000E+00  0.10566000000E+00 0. -1.
     999900   -1    0    0    0    0 -0.00000000000E+00 -0.00000000000E+00 -0.74505805969E-08  0.93827000000E+00  0.93827000000E+00 0. -1.
     999902    2    1    2    0    0 -0.20253640009E-01  0.13206179855E-01  0.10217658521E-01  0.10176809302E+01  0.10173423524E+01 0.  0.
     999903    2    3    3    0    0 -0.36875337739E-01  0.12297188310E+00 -0.12070311751E-01  0.13042586875E+00  0.19579076758E-01 0.  0.
         14    1    1    2    0    0  0.20253640009E-01 -0.13206179855E-01 -0.10217658521E-01  0.26249069805E-01  0.00000000000E+00 0. -1.
     999901    1    3    3    0    0  0.16621697730E-01 -0.10976570324E+00  0.22287970271E-01  0.88725506145E+00  0.88000000000E+00 0. -1.
        -11    1    4    4    0    0 -0.10352537318E-01  0.64349206420E-01 -0.10803524236E-01  0.66067939673E-01  0.51100000000E-03 0.  1.
         11    1    4    4    0    0 -0.26522800420E-01  0.58622676680E-01 -0.12667875146E-02  0.64357929075E-01  0.51100000000E-03 0. -1.
</event>
<event>
 8    1  0.1079508E+005  0.1043930E+01  0.7957747E-01            NaN
         13   -1    0    0    0    0  0.00000000000E+00  0.00000000000E+00  0.74505805969E-08  0.10566000000E+00  0.10566000000E+00 0. -1.
     999900   -1    0    0    0    0 -0.00000000000E+00 -0.00000000000E+00 -0.74505805969E-08  0.93827000000E+00  0.93827000000E+00 0. -1.
     999902    2    1    2    0    0 -0.19668801875E-01 -0.51778794563E-02 -0.10129464284E-01  0.10212082428E+01  0.10209554334E+01 0.  0.
     999903    2    3    3    0    0  0.33982927874E-01 -0.12188354726E+00  0.27738909743E-01  0.13107750256E+00  0.20035620326E-01 0.  0.
         14    1    1    2    0    0  0.19668801875E-01  0.51778794563E-02  0.10129464284E-01  0.22721757185E-01  0.00000000000E+00 0.  1.
     999901    1    3    3    0    0 -0.53651729749E-01  0.11670566781E+00 -0.37868374027E-01  0.89013074026E+00  0.88000000000E+00 0. -1.
        -11    1    4    4    0    0  0.21040095421E-01 -0.42488968030E-01  0.63565232824E-02  0.47839988805E-01  0.51100000000E-03 0.  1.
         11    1    4    4    0    0  0.12942832453E-01 -0.79394579234E-01  0.21382386461E-01  0.83237513751E-01  0.51100000000E-03 0. -1.
</event>
<event>
 8    1  0.1079508E+005  0.1043930E+01  0.7957747E-01            NaN
         13   -1    0    0    0    0  0.00000000000E+00  0.00000000000E+00  0.74505805969E-08  0.10566000000E+00  0.10566000000E+00 0. -1.
     999900   -1    0    0    0    0 -0.00000000000E+00 -0.00000000000E+00 -0.74505805969E-08  0.93827000000E+00  0.93827000000E+00 0.  1.
     999902    2    1    2    0    0  0.50026290047E-02  0.76901431878E-03  0.23004423350E-01  0.10203753577E+01  0.10201034504E+01 0.  0.
     999903    2    3    3    0    0  0.16990228931E-01 -0.83088218413E-01 -0.94634037506E-01  0.12851519742E+00  0.19189450087E-01 0.  0.
         14    1    1    2    0    0 -0.50026290047E-02 -0.76901431878E-03 -0.23004423350E-01  0.23554642295E-01  0.00000000000E+00 0.  1.
     999901    1    3    3    0    0 -0.11987599926E-01  0.83857232732E-01  0.11763846086E+00  0.89186016029E+00  0.88000000000E+00 0. -1.
        -11    1    4    4    0    0 -0.24447394366E-02 -0.24016369516E-01 -0.19892480915E-01  0.31284735473E-01  0.51100000000E-03 0. -1.
         11    1    4    4    0    0  0.19434968367E-01 -0.59071848897E-01 -0.74741556591E-01  0.97230461946E-01  0.51100000000E-03 0.  1.
</event>
<event>
 8    1  0.1079508E+005  0.1043930E+01  0.7957747E-01            NaN
         13   -1    0    0    0    0  0.00000000000E+00  0.00000000000E+00  0.74505805969E-08  0.10566000000E+00  0.10566000000E+00 0.  1.
     999900   -1    0    0    0    0 -0.00000000000E+00 -0.00000000000E+00 -0.74505805969E-08  0.93827000000E+00  0.93827000000E+00 0.  1.
     999902    2    1    2    0    0  0.25711311126E-02 -0.10719468113E-01 -0.21259638576E-01  0.10199823499E+01  0.10197011838E+01 0.  0.
     999903    2    3    3    0    0 -0.32497986414E-03 -0.12719185233E+00  0.25374128968E-01  0.13107914258E+00  0.18974253297E-01 0.  0.
         14    1    1    2    0    0 -0.25711311126E-02  0.10719468113E-01  0.21259638576E-01  0.23947650077E-01  0.00000000000E+00 0.  1.
     999901    1    3    3    0    0  0.28961109768E-02  0.11647238422E+00 -0.46633767544E-01  0.88890320734E+00  0.88000000000E+00 0.  1.
        -11    1    4    4    0    0 -0.58670949674E-02 -0.72665580571E-01  0.68548065979E-02  0.73225397900E-01  0.51100000000E-03 0. -1.
         11    1    4    4    0    0  0.55421151033E-02 -0.54526271759E-01  0.18519322370E-01  0.57853744683E-01  0.51100000000E-03 0.  1.
</event>
<event>
 8    1  0.1359339E+005  0.1043930E+01  0.7957747E-01            NaN
         13   -1    0    0    0    0  0.00000000000E+00  0.00000000000E+00  0.74505805969E-08  0.10566000000E+00  0.10566000000E+00 0. -1.
     999900   -1    0    0    0    0 -0.00000000000E+00 -0.00000000000E+00 -0.74505805969E-08  0.93827000000E+00  0.93827000000E+00 0.  1.
     999902    2    1    2    0    0 -0.17139405861E-02  0.41200002177E-02 -0.23133549177E-01  0.10203700108E+01  0.10200979785E+01 0.  0.
     999903    2    3    3    0    0 -0.87059576638E-01 -0.95004486530E-01 -0.34386581371E-02  0.13048382132E+00  0.20223276497E-01 0.  0.
         14    1    1    2    0    0  0.17139405861E-02 -0.41200002177E-02  0.23133549177E-01  0.23559989212E-01  0.00000000000E+00 0. -1.
     999901    1    3    3    0    0  0.85345636052E-01  0.99124486747E-01 -0.19694891040E-01  0.88988618946E+00  0.88000000000E+00 0. -1.
        -11    1    4    4    0    0 -0.47874520641E-01 -0.39496971644E-01  0.36145171811E-02  0.62171587974E-01  0.51100000000E-03 0. -1.
         11    1    4    4    0    0 -0.39185055997E-01 -0.55507514885E-01 -0.70531753182E-02  0.68312233350E-01  0.51100000000E-03 0.  1.
</event>
<event>
 8    1  0.1079508E+005  0.1043930E+01  0.7957747E-01            NaN
         13   -1    0    0    0    0  0.00000000000E+00  0.00000000000E+00  0.74505805969E-08  0.10566000000E+00  0.10566000000E+00 0. -1.
     999900   -1    0    0    0    0 -0.00000000000E+00 -0.00000000000E+00 -0.74505805969E-08  0.93827000000E+00  0.93827000000E+00 0.  1.
     999902    2    1    2    0    0  0.17767851449E-01  0.10393658366E-01 -0.10750554978E-01  0.10207071855E+01  0.10204429722E+01 0.  0.
     999903    2    3    3    0    0  0.13020514230E+00  0.45941212756E-02  0.18567556241E-01  0.13304997092E+00  0.19571805904E-01 0.  0.
         14    1    1    2    0    0 -0.17767851449E-01 -0.10393658366E-01  0.10750554978E-01  0.23222814465E-01  0.00000000000E+00 0. -1.
     999901    1    3    3    0    0 -0.11243729085E+00  0.57995370905E-02 -0.29318111219E-01  0.88765721461E+00  0.88000000000E+00 0. -1.
        -11    1    4    4    0    0  0.71965873069E-01  0.10108694341E-01  0.41224724038E-02  0.72790991802E-01  0.51100000000E-03 0. -1.
         11    1    4    4    0    0  0.58239269232E-01 -0.55145730658E-02  0.14445083837E-01  0.60258979122E-01  0.51100000000E-03 0.  1.
</event>
<event>
 8    1  0.1079508E+005  0.1043930E+01  0.7957747E-01            NaN
         13   -1    0    0    0    0  0.00000000000E+00  0.00000000000E+00  0.74505805969E-08  0.10566000000E+00  0.10566000000E+00 0. -1.
     999900   -1    0    0    0    0 -0.00000000000E+00 -0.00000000000E+00 -0.74505805969E-08  0.93827000000E+00  0.93827000000E+00 0. -1.
     999902    2    1    2    0    0  0.11508040304E-01 -0.63598837797E-02  0.19519823389E-01  0.10203947792E+01  0.10201233253E+01 0.  0.
     999903    2    3    3    0    0 -0.53339280557E-01  0.59189923802E-02  0.11927842251E+00  0.13230259708E+00  0.19912855102E-01 0.  0.
         14    1    1    2    0    0 -0.11508040304E-01  0.63598837797E-02 -0.19519823389E-01  0.23535220807E-01  0.00000000000E+00 0.  1.
     999901    1    3    3    0    0  0.64847320860E-01 -0.12278876160E-01 -0.99758599119E-01  0.88809218211E+00  0.88000000000E+00 0. -1.
        -11    1    4    4    0    0 -0.23336899243E-01  0.46609510522E-02  0.75877745522E-01  0.79523761968E-01  0.51100000000E-03 0.  1.
         11    1    4    4    0    0 -0.30002381314E-01  0.12580413280E-02  0.43400676986E-01  0.52778835117E-01  0.51100000000E-03 0. -1.
</event>
<event>
 8    1  0.1079508E+005  0.1043930E+01  0.7957747E-01            NaN
         13   -1    0    0    0    0  0.00000000000E+00  0.00000000000E+00  0.74505805969E-08  0.10566000000E+00  0.10566000000E+00 0.  1.
     999900   -1    0    0    0    0 -0.00000000000E+00 -0.00000000000E+00 -0.74505805969E-08  0.93827000000E+00  0.93827000000E+00 0.  1.
     999902    2    1    2    0    0  0.21512420832E-01 -0.33253648500E-02 -0.20723103954E-02  0.10220636612E+01  0.10218297269E+01 0.  0.
     999903    2    3    3    0    0 -0.21132492701E-01 -0.12368792873E+00 -0.35889559559E-01  0.13220449159E+00  0.21087464232E-01 0.  0.
         14    1    1    2    0    0 -0.21512420832E-01  0.33253648500E-02  0.20723103954E-02  0.21866338784E-01  0.00000000000E+00 0. -1.
     999901    1    3    3    0    0  0.42644913533E-01  0.12036256388E+00  0.33817249163E-01  0.88985916963E+00  0.88000000000E+00 0. -1.
        -11    1    4    4    0    0 -0.18596502712E-02 -0.63598133136E-02 -0.73827592720E-02  0.99333670014E-02  0.51100000000E-03 0. -1.
         11    1    4    4    0    0 -0.19272842430E-01 -0.11732811542E+00 -0.28506800287E-01  0.12227112458E+00  0.51100000000E-03 0.  1.
</event>
<event>
 8    1  0.1079508E+005  0.1043930E+01  0.7957747E-01            NaN
         13   -1    0    0    0    0  0.00000000000E+00  0.00000000000E+00  0.74505805969E-08  0.10566000000E+00  0.10566000000E+00 0.  1.
     999900   -1    0    0    0    0 -0.00000000000E+00 -0.00000000000E+00 -0.74505805969E-08  0.93827000000E+00  0.93827000000E+00 0. -1.
     999902    2    1    2    0    0 -0.17808563731E-01  0.12699040683E-01  0.98235173235E-02  0.10199526759E+01  0.10196708043E+01 0.  0.
     999903    2    3    3    0    0  0.11689466340E+00 -0.14731278409E-01 -0.44398836904E-01  0.12763129577E+00  0.20907368265E-01 0.  0.
         14    1    1    2    0    0  0.17808563731E-01 -0.12699040683E-01 -0.98235173235E-02  0.23977324059E-01  0.00000000000E+00 0.  1.
     999901    1    3    3    0    0 -0.13470322713E+00  0.27430319092E-01  0.54222354227E-01  0.89232138017E+00  0.88000000000E+00 0.  1.
        -11    1    4    4    0    0  0.66861962411E-01 -0.18925805732E-02 -0.16386486407E-01  0.68868584539E-01  0.51100000000E-03 0. -1.
         11    1    4    4    0    0  0.50032700988E-01 -0.12838697836E-01 -0.28012350497E-01  0.58762711235E-01  0.51100000000E-03 0.  1.
</event>
<event>
 8    1  0.1079508E+005  0.1043930E+01  0.7957747E-01            NaN
         13   -1    0    0    0    0  0.00000000000E+00  0.00000000000E+00  0.74505805969E-08  0.10566000000E+00  0.10566000000E+00 0.  1.
     999900   -1    0    0    0    0 -0.00000000000E+00 -0.00000000000E+00 -0.74505805969E-08  0.93827000000E+00  0.93827000000E+00 0. -1.
     999902    2    1    2    0    0 -0.20392779083E-01  0.52350159881E-02  0.12675022310E-01  0.10193550733E+01  0.10190588003E+01 0.  0.
     999903    2    3    3    0    0 -0.83010752180E-01 -0.17341755987E-01 -0.96535416281E-01  0.13010952731E+00  0.20442138396E-01 0.  0.
         14    1    1    2    0    0  0.20392779083E-01 -0.52350159881E-02 -0.12675022310E-01  0.24574926687E-01  0.00000000000E+00 0. -1.
     999901    1    3    3    0    0  0.62617973097E-01  0.22576771975E-01  0.10921043859E+00  0.88924554600E+00  0.88000000000E+00 0.  1.
        -11    1    4    4    0    0 -0.44881093922E-01 -0.16601269362E-01 -0.64411228538E-01  0.80243268994E-01  0.51100000000E-03 0. -1.
         11    1    4    4    0    0 -0.38129658259E-01 -0.74048662469E-03 -0.32124187743E-01  0.49866258317E-01  0.51100000000E-03 0.  1.
</event>
<event>
 7    1  0.1079508E+005  0.1043930E+01  0.7957747E-01            NaN
         13   -1    0    0    0    0  0.00000000000E+00  0.00000000000E+00  0.74505805969E-08  0.10566000000E+00  0.10566000000E+00 0.  1.
     999900   -1    0    0    0    0 -0.00000000000E+00 -0.00000000000E+00 -0.74505805969E-08  0.93827000000E+00  0.93827000000E+00 0.  1.
     999903    2    1    2    0    0  0.92632410139E-01  0.51823402824E-01  0.41422277569E-01  0.11571946537E+00  0.20217841083E-01 0.  0.
         14    1    1    2    0    0  0.91364025089E-02 -0.39404439222E-01 -0.10163890532E-01  0.41707173867E-01  0.00000000000E+00 0.  1.
     999901    1    1    2    0    0 -0.10176881265E+00 -0.12418963601E-01 -0.31258387037E-01  0.88650336076E+00  0.88000000000E+00 0. -1.
        -11    1    3    3    0    0  0.31064861358E-01  0.25527501080E-01  0.22811127634E-01  0.46230807775E-01  0.51100000000E-03 0.  1.
         11    1    3    3    0    0  0.61567548781E-01  0.26295901743E-01  0.18611149935E-01  0.69488657595E-01  0.51100000000E-03 0. -1.
</event>
<event>
 8    1  0.1079508E+005  0.1043930E+01  0.7957747E-01            NaN
         13   -1    0    0    0    0  0.00000000000E+00  0.00000000000E+00  0.74505805969E-08  0.10566000000E+00  0.10566000000E+00 0.  1.
     999900   -1    0    0    0    0 -0.00000000000E+00 -0.00000000000E+00 -0.74505805969E-08  0.93827000000E+00  0.93827000000E+00 0.  1.
     999902    2    1    2    0    0  0.56595499344E-02  0.13932924481E-01 -0.12285260835E-01  0.10245113357E+01  0.10243272877E+01 0.  0.
     999903    2    3    3    0    0 -0.18117977397E-01 -0.10134578341E+00 -0.82412280610E-01  0.13390909551E+00  0.23251514887E-01 0.  0.
         14    1    1    2    0    0 -0.56595499344E-02 -0.13932924481E-01  0.12285260835E-01  0.19418664316E-01  0.00000000000E+00 0.  1.
     999901    1    3    3    0    0  0.23777527331E-01  0.11527870789E+00  0.70127019776E-01  0.89060224017E+00  0.88000000000E+00 0. -1.
        -11    1    4    4    0    0 -0.20406711125E-01 -0.54953003913E-01 -0.52216505661E-01  0.78505357030E-01  0.51100000000E-03 0.  1.
         11    1    4    4    0    0  0.22887337282E-02 -0.46392779499E-01 -0.30195774949E-01  0.55403738480E-01  0.51100000000E-03 0. -1.
</event>
<event>
 8    1  0.1079508E+005  0.1043930E+01  0.7957747E-01            NaN
         13   -1    0    0    0    0  0.00000000000E+00  0.00000000000E+00  0.74505805969E-08  0.10566000000E+00  0.10566000000E+00 0.  1.
     999900   -1    0    0    0    0 -0.00000000000E+00 -0.00000000000E+00 -0.74505805969E-08  0.93827000000E+00  0.93827000000E+00 0. -1.
     999902    2    1    2    0    0 -0.12958643392E-01 -0.14777650085E-01  0.13986624042E-01  0.10198067533E+01  0.10195213990E+01 0.  0.
     999903    2    3    3    0    0  0.10939989586E+00  0.39532128638E-01  0.49380593695E-01  0.12897910592E+00  0.25807757002E-01 0.  0.
         14    1    1    2    0    0  0.12958643392E-01  0.14777650085E-01 -0.13986624042E-01  0.24123246728E-01  0.00000000000E+00 0. -1.
     999901    1    3    3    0    0 -0.12235853926E+00 -0.54309778723E-01 -0.35393969653E-01  0.89082764735E+00  0.88000000000E+00 0. -1.
        -11    1    4    4    0    0  0.99618028649E-01  0.42999491381E-01  0.42571257850E-01  0.11655591365E+00  0.51100000000E-03 0.  1.
         11    1    4    4    0    0  0.97818672147E-02 -0.34673627433E-02  0.68093358449E-02  0.12423192273E-01  0.51100000000E-03 0. -1.
</event>
<event>
 8    1  0.1079508E+005  0.1043930E+01  0.7957747E-01            NaN
         13   -1    0    0    0    0  0.00000000000E+00  0.00000000000E+00  0.74505805969E-08  0.10566000000E+00  0.10566000000E+00 0. -1.
     999900   -1    0    0    0    0 -0.00000000000E+00 -0.00000000000E+00 -0.74505805969E-08  0.93827000000E+00  0.93827000000E+00 0. -1.
     999902    2    1    2    0    0 -0.18704729013E-01  0.67028044484E-03 -0.14390845993E-01  0.10203204127E+01  0.10200472205E+01 0.  0.
     999903    2    3    3    0    0  0.52598459545E-01 -0.19442027606E-01  0.11329262112E+00  0.12802465603E+00  0.20260902415E-01 0.  0.
         14    1    1    2    0    0  0.18704729013E-01 -0.67028044484E-03  0.14390845993E-01  0.23609587284E-01  0.00000000000E+00 0. -1.
     999901    1    3    3    0    0 -0.71303188558E-01  0.20112308051E-01 -0.12768346711E+00  0.89229575669E+00  0.88000000000E+00 0. -1.
        -11    1    4    4    0    0  0.34517528188E-01 -0.91030682477E-02  0.50345388322E-01  0.61719080114E-01  0.51100000000E-03 0.  1.
         11    1    4    4    0    0  0.18080931357E-01 -0.10338959359E-01  0.62947232797E-01  0.66305575913E-01  0.51100000000E-03 0. -1.
</event>
<event>
 8    1  0.1079508E+005  0.1043930E+01  0.7957747E-01            NaN
         13   -1    0    0    0    0  0.00000000000E+00  0.00000000000E+00  0.74505805969E-08  0.10566000000E+00  0.10566000000E+00 0.  1.
     999900   -1    0    0    0    0 -0.00000000000E+00 -0.00000000000E+00 -0.74505805969E-08  0.93827000000E+00  0.93827000000E+00 0. -1.
     999902    2    1    2    0    0  0.41866582310E-03 -0.10018119787E-01  0.21618224254E-01  0.10200996491E+01  0.10198212630E+01 0.  0.
     999903    2    3    3    0    0 -0.14275601718E-01  0.92000318775E-01  0.90713094817E-01  0.13139396977E+00  0.19174416818E-01 0.  0.
         14    1    1    2    0    0 -0.41866582310E-03  0.10018119787E-01 -0.21618224254E-01  0.23830350922E-01  0.00000000000E+00 0. -1.
     999901    1    3    3    0    0  0.14694267541E-01 -0.10201843856E+00 -0.69094870562E-01  0.88870567931E+00  0.88000000000E+00 0. -1.
        -11    1    4    4    0    0 -0.11243866755E-02  0.24609498338E-02  0.91728353141E-02  0.95771889498E-02  0.51100000000E-03 0.  1.
         11    1    4    4    0    0 -0.13151215042E-01  0.89539368941E-01  0.81540259503E-01  0.12181678082E+00  0.51100000000E-03 0. -1.
</event>
<event>
 8    1  0.1079508E+005  0.1043930E+01  0.7957747E-01            NaN
         13   -1    0    0    0    0  0.00000000000E+00  0.00000000000E+00  0.74505805969E-08  0.10566000000E+00  0.10566000000E+00 0.  1.
     999900   -1    0    0    0    0 -0.00000000000E+00 -0.00000000000E+00 -0.74505805969E-08  0.93827000000E+00  0.93827000000E+00 0.  1.
     999902    2    1    2    0    0 -0.16288206957E-01  0.52842582219E-02  0.15916912583E-01  0.10205510099E+01  0.10202831895E+01 0.  0.
     999903    2    3    3    0    0 -0.33619483330E-01 -0.12329790058E+00  0.20273119487E-01  0.13102713658E+00  0.20602650333E-01 0.  0.
         14    1    1    2    0    0  0.16288206957E-01 -0.52842582219E-02 -0.15916912583E-01  0.23378990076E-01  0.00000000000E+00 0.  1.
     999901    1    3    3    0    0  0.17331276373E-01  0.12858215880E+00 -0.43562069044E-02  0.88952387334E+00  0.88000000000E+00 0. -1.
        -11    1    4    4    0    0 -0.26084240240E-01 -0.59436804372E-01  0.14108863284E-01  0.66426218069E-01  0.51100000000E-03 0. -1.
         11    1    4    4    0    0 -0.75352430903E-02 -0.63861096209E-01  0.61642562027E-02  0.64600918515E-01  0.51100000000E-03 0.  1.
</event>
<event>
 8    1  0.1079508E+005  0.1043930E+01  0.7957747E-01            NaN
         13   -1    0    0    0    0  0.00000000000E+00  0.00000000000E+00  0.74505805969E-08  0.10566000000E+00  0.10566000000E+00 0. -1.
     999900   -1    0    0    0    0 -0.00000000000E+00 -0.00000000000E+00 -0.74505805969E-08  0.93827000000E+00  0.93827000000E+00 0. -1.
     999902    2    1    2    0    0 -0.13792647921E-02 -0.14949719267E-01  0.18337093274E-01  0.10202309395E+01  0.10199556483E+01 0.  0.
     999903    2    3    3    0    0 -0.42932446627E-01 -0.12477195950E+00  0.81861475350E-02  0.13237361255E+00  0.66725885160E-02 0.  0.
         14    1    1    2    0    0  0.13792647921E-02  0.14949719267E-01 -0.18337093274E-01  0.23699060472E-01  0.00000000000E+00 0.  1.
     999901    1    3    3    0    0  0.41553181835E-01  0.10982224023E+00  0.10150945739E-01  0.88785732698E+00  0.88000000000E+00 0.  1.
        -11    1    4    4    0    0 -0.12994932696E-01 -0.47345454658E-01  0.36922852954E-02  0.49237733947E-01  0.51100000000E-03 0.  1.
         11    1    4    4    0    0 -0.29937513931E-01 -0.77426504840E-01  0.44938622396E-02  0.83135878602E-01  0.51100000000E-03 0. -1.
</event>
<event>
 7    1  0.1079508E+005  0.1043930E+01  0.7957747E-01            NaN
         13   -1    0    0    0    0  0.00000000000E+00  0.00000000000E+00  0.74505805969E-08  0.10566000000E+00  0.10566000000E+00 0.  1.
     999900   -1    0    0    0    0 -0.00000000000E+00 -0.00000000000E+00 -0.74505805969E-08  0.93827000000E+00  0.93827000000E+00 0.  1.
     999903    2    1    2    0    0 -0.27081712009E-01 -0.22816001168E-01  0.10562521333E+00  0.11319052049E+00  0.20035448674E-01 0.  0.
         14    1    1    2    0    0  0.43880780993E-01 -0.25567566908E-02 -0.47894212390E-03  0.43957813081E-01  0.00000000000E+00 0.  1.
     999901    1    1    2    0    0 -0.16799068984E-01  0.25372757859E-01 -0.10514627121E+00  0.88678166643E+00  0.88000000000E+00 0.  1.
        -11    1    3    3    0    0 -0.72706062678E-02 -0.77530575666E-02  0.10835622907E-01  0.15186950382E-01  0.51100000000E-03 0.  1.
         11    1    3    3    0    0 -0.19811105741E-01 -0.15062943602E-01  0.94789590425E-01  0.98003570111E-01  0.51100000000E-03 0. -1.
</event>
<event>
 8    1  0.1079508E+005  0.1043930E+01  0.7957747E-01            NaN
         13   -1    0    0    0    0  0.00000000000E+00  0.00000000000E+00  0.74505805969E-08  0.10566000000E+00  0.10566000000E+00 0.  1.
     999900   -1    0    0    0    0 -0.00000000000E+00 -0.00000000000E+00 -0.74505805969E-08  0.93827000000E+00  0.93827000000E+00 0. -1.
     999902    2    1    2    0    0  0.82549694119E-02 -0.14785062762E-01 -0.17343799056E-01  0.10196905700E+01  0.10194024272E+01 0.  0.
     999903    2    3    3    0    0 -0.52481845373E-01 -0.44556067699E-01 -0.11125047129E+00  0.13211311620E+00  0.18374461832E-01 0.  0.
         14    1    1    2    0    0 -0.82549694119E-02  0.14785062762E-01  0.17343799056E-01  0.24239429997E-01  0.00000000000E+00 0.  1.
     999901    1    3    3    0    0  0.60736814785E-01  0.29771004936E-01  0.93906672234E-01  0.88757745380E+00  0.88000000000E+00 0.  1.
        -11    1    4    4    0    0 -0.34142966981E-01 -0.31366150865E-01 -0.89255045134E-01  0.10057982808E+00  0.51100000000E-03 0. -1.
         11    1    4    4    0    0 -0.18338878392E-01 -0.13189916834E-01 -0.21995426157E-01  0.31533288119E-01  0.51100000000E-03 0.  1.
</event>
<event>
 8    1  0.1079508E+005  0.1043930E+01  0.7957747E-01            NaN
         13   -1    0    0    0    0  0.00000000000E+00  0.00000000000E+00  0.74505805969E-08  0.10566000000E+00  0.10566000000E+00 0.  1.
     999900   -1    0    0    0    0 -0.00000000000E+00 -0.00000000000E+00 -0.74505805969E-08  0.93827000000E+00  0.93827000000E+00 0. -1.
     999902    2    1    2    0    0  0.20663768218E-01 -0.36866117382E-02 -0.10319028989E-01  0.10205405840E+01  0.10202725218E+01 0.  0.
     999903    2    3    3    0    0  0.18245536646E-01  0.12630750947E+00 -0.22128403767E-01  0.13090932287E+00  0.19002578861E-01 0.  0.
         14    1    1    2    0    0 -0.20663768218E-01  0.36866117382E-02  0.10319028989E-01  0.23389416033E-01  0.00000000000E+00 0. -1.
     999901    1    3    3    0    0  0.24182315712E-02 -0.12999412121E+00  0.11809374778E-01  0.88963126110E+00  0.88000000000E+00 0.  1.
        -11    1    4    4    0    0  0.11133556205E-01  0.11274919745E+00 -0.16055939932E-01  0.11443072982E+00  0.51100000000E-03 0.  1.
         11    1    4    4    0    0  0.71119804414E-02  0.13558312021E-01 -0.60724638350E-02  0.16478593043E-01  0.51100000000E-03 0. -1.
</event>
<event>
 8    1  0.1079508E+005  0.1043930E+01  0.7957747E-01            NaN
         13   -1    0    0    0    0  0.00000000000E+00  0.00000000000E+00  0.74505805969E-08  0.10566000000E+00  0.10566000000E+00 0. -1.
     999900   -1    0    0    0    0 -0.00000000000E+00 -0.00000000000E+00 -0.74505805969E-08  0.93827000000E+00  0.93827000000E+00 0. -1.
     999902    2    1    2    0    0 -0.97422877063E-02  0.20931813766E-01 -0.28404842724E-02  0.10206679849E+01  0.10204028685E+01 0.  0.
     999903    2    3    3    0    0  0.12245426621E+00  0.12654251457E-01  0.35402717600E-01  0.12993402380E+00  0.21778905685E-01 0.  0.
         14    1    1    2    0    0  0.97422877063E-02 -0.20931813766E-01  0.28404842724E-02  0.23262015136E-01  0.00000000000E+00 0. -1.
     999901    1    3    3    0    0 -0.13219655392E+00  0.82775623086E-02 -0.38243201872E-01  0.89073396107E+00  0.88000000000E+00 0. -1.
        -11    1    4    4    0    0  0.53932691898E-01 -0.35025369478E-02  0.21522542496E-01  0.58176318008E-01  0.51100000000E-03 0.  1.
         11    1    4    4    0    0  0.68521574317E-01  0.16156788405E-01  0.13880175104E-01  0.71757705791E-01  0.51100000000E-03 0. -1.
</event>
<event>
 8    1  0.1079508E+005  0.1043930E+01  0.7957747E-01            NaN
         13   -1    0    0    0    0  0.00000000000E+00  0.00000000000E+00  0.74505805969E-08  0.10566000000E+00  0.10566000000E+00 0. -1.
     999900   -1    0    0    0    0 -0.00000000000E+00 -0.00000000000E+00 -0.74505805969E-08  0.93827000000E+00  0.93827000000E+00 0.  1.
     999902    2    1    2    0    0 -0.22790592918E-01 -0.65543020749E-02 -0.54062053312E-02  0.10196072317E+01  0.10193170802E+01 0.  0.
     999903    2    3    3    0    0  0.65927994173E-01 -0.25128931510E-01 -0.10640989781E+00  0.12920409243E+00  0.19815840477E-01 0.  0.
         14    1    1    2    0    0  0.22790592918E-01  0.65543020749E-02  0.54062053312E-02  0.24322768290E-01  0.00000000000E+00 0. -1.
     999901    1    3    3    0    0 -0.88718587091E-01  0.18574629436E-01  0.10100369247E+00  0.89040313928E+00  0.88000000000E+00 0.  1.
        -11    1    4    4    0    0  0.10707291962E-01  0.26287276080E-02 -0.11465828886E-01  0.15914856677E-01  0.51100000000E-03 0.  1.
         11    1    4    4    0    0  0.55220702211E-01 -0.27757659118E-01 -0.94944068920E-01  0.11328923575E+00  0.51100000000E-03 0. -1.
</event>
<event>
 8    1  0.1079508E+005  0.1043930E+01  0.7957747E-01            NaN
         13   -1    0    0    0    0  0.00000000000E+00  0.00000000000E+00  0.74505805969E-08  0.10566000000E+00  0.10566000000E+00 0. -1.
     999900   -1    0    0    0    0 -0.00000000000E+00 -0.00000000000E+00 -0.74505805969E-08  0.93827000000E+00  0.93827000000E+00 0.  1.
     999902    2    1    2    0    0 -0.13137070648E-02  0.12849396200E-01 -0.19046316806E-01  0.10209170690E+01  0.10206576639E+01 0.  0.
     999903    2    3    3    0    0  0.11172869610E+00  0.59761875026E-01 -0.32668518254E-01  0.13234240700E+00  0.19811546297E-01 0.  0.
         14    1    1    2    0    0  0.13137070648E-02 -0.12849396200E-01  0.19046316806E-01  0.23012930992E-01  0.00000000000E+00 0. -1.
     999901    1    3    3    0    0 -0.11304240317E+00 -0.46912478826E-01  0.13622201448E-01  0.88857466200E+00  0.88000000000E+00 0. -1.
        -11    1    4    4    0    0  0.60212211774E-01  0.21756687100E-01 -0.12620407330E-01  0.65256414876E-01  0.51100000000E-03 0.  1.
         11    1    4    4    0    0  0.51516484331E-01  0.38005187927E-01 -0.20048110925E-01  0.67085992128E-01  0.51100000000E-03 0. -1.
</event>
<event>
 8    1  0.1079508E+005  0.1043930E+01  0.7957747E-01            NaN
         13   -1    0    0    0    0  0.00000000000E+00  0.00000000000E+00  0.74505805969E-08  0.10566000000E+00  0.10566000000E+00 0. -1.
     999900   -1    0    0    0    0 -0.00000000000E+00 -0.00000000000E+00 -0.74505805969E-08  0.93827000000E+00  0.93827000000E+00 0. -1.
     999902    2    1    2    0    0 -0.13107971384E-01 -0.63504209366E-02 -0.19642435577E-01  0.10194765333E+01  0.10191832170E+01 0.  0.
     999903    2    3    3    0    0  0.28794805295E-01 -0.11799378458E-01 -0.12673872753E+00  0.13197715322E+00  0.19669717117E-01 0.  0.
         14    1    1    2    0    0  0.13107971384E-01  0.63504209366E-02  0.19642435577E-01  0.24453466734E-01  0.00000000000E+00 0. -1.
     999901    1    3    3    0    0 -0.41902776679E-01  0.54489575209E-02  0.10709629196E+00  0.88749938005E+00  0.88000000000E+00 0.  1.
        -11    1    4    4    0    0 -0.18273726715E-02  0.23805354792E-02 -0.11739178730E-01  0.12127476172E-01  0.51100000000E-03 0. -1.
         11    1    4    4    0    0  0.30622177966E-01 -0.14179913937E-01 -0.11499954880E+00  0.11984967705E+00  0.51100000000E-03 0.  1.
</event>
<event>
 8    1  0.1079508E+005  0.1043930E+01  0.7957747E-01            NaN
         13   -1    0    0    0    0  0.00000000000E+00  0.00000000000E+00  0.74505805969E-08  0.10566000000E+00  0.10566000000E+00 0. -1.
     999900   -1    0    0    0    0 -0.00000000000E+00 -0.00000000000E+00 -0.74505805969E-08  0.93827000000E+00  0.93827000000E+00 0. -1.
     999902    2    1    2    0    0  0.39601679040E-02  0.83839294329E-02  0.26337732305E-01  0.10160077983E+01  0.10156240431E+01 0.  0.
     999903    2    3    3    0    0 -0.41098729736E-01 -0.11063120276E+00 -0.35388712829E-01  0.12471376157E+00  0.19307840889E-01 0.  0.
         14    1    1    2    0    0 -0.39601679040E-02 -0.83839294329E-02 -0.26337732305E-01  0.27922201659E-01  0.00000000000E+00 0.  1.
     999901    1    3    3    0    0  0.45058897641E-01  0.11901513219E+00  0.61726445133E-01  0.89129403677E+00  0.88000000000E+00 0.  1.
        -11    1    4    4    0    0 -0.18117019992E-01 -0.73650601032E-01 -0.25908408883E-01  0.80150759308E-01  0.51100000000E-03 0. -1.
         11    1    4    4    0    0 -0.22981709744E-01 -0.36980601729E-01 -0.94803039453E-02  0.44563002265E-01  0.51100000000E-03 0.  1.
</event>
<event>
 8    1  0.1079508E+005  0.1043930E+01  0.7957747E-01            NaN
         13   -1    0    0    0    0  0.00000000000E+00  0.00000000000E+00  0.74505805969E-08  0.10566000000E+00  0.10566000000E+00 0. -1.
     999900   -1    0    0    0    0 -0.00000000000E+00 -0.00000000000E+00 -0.74505805969E-08  0.93827000000E+00  0.93827000000E+00 0. -1.
     999902    2    1    2    0    0 -0.20778508030E-01  0.15242415173E-01  0.28191336760E-02  0.10180065525E+01  0.10176764298E+01 0.  0.
     999903    2    3    3    0    0 -0.51508544479E-01 -0.87819553890E-01  0.75822703805E-01  0.12845856286E+00  0.19675257527E-01 0.  0.
         14    1    1    2    0    0  0.20778508030E-01 -0.15242415173E-01 -0.28191336760E-02  0.25923447513E-01  0.00000000000E+00 0. -1.
     999901    1    3    3    0    0  0.30730036448E-01  0.10306196906E+00 -0.73003570129E-01  0.88954798963E+00  0.88000000000E+00 0.  1.
        -11    1    4    4    0    0 -0.27268599084E-01 -0.49677342752E-01  0.30103456197E-01  0.64170819496E-01  0.51100000000E-03 0.  1.
         11    1    4    4    0    0 -0.24239945395E-01 -0.38142211138E-01  0.45719247609E-01  0.64287743359E-01  0.51100000000E-03 0. -1.
</event>
<event>
 8    1  0.1079508E+005  0.1043930E+01  0.7957747E-01            NaN
         13   -1    0    0    0    0  0.00000000000E+00  0.00000000000E+00  0.74505805969E-08  0.10566000000E+00  0.10566000000E+00 0. -1.
     999900   -1    0    0    0    0 -0.00000000000E+00 -0.00000000000E+00 -0.74505805969E-08  0.93827000000E+00  0.93827000000E+00 0.  1.
     999902    2    1    2    0    0  0.60494601882E-02 -0.52863916321E-02  0.22915280603E-01  0.10196472491E+01  0.10193580630E+01 0.  0.
     999903    2    3    3    0    0  0.12484154089E+00 -0.17831359722E-01  0.32683197082E-01  0.13152318861E+00  0.18077335260E-01 0.  0.
         14    1    1    2    0    0 -0.60494601882E-02  0.52863916321E-02 -0.22915280603E-01  0.24282750878E-01  0.00000000000E+00 0.  1.
     999901    1    3    3    0    0 -0.11879208070E+00  0.12544968090E-01 -0.97679164781E-02  0.88812406051E+00  0.88000000000E+00 0.  1.
        -11    1    4    4    0    0  0.29694449390E-01 -0.76114375766E-02  0.15289048979E-01  0.34259457763E-01  0.51100000000E-03 0. -1.
         11    1    4    4    0    0  0.95147091501E-01 -0.10219922146E-01  0.17394148103E-01  0.97263730850E-01  0.51100000000E-03 0.  1.
</event>
<event>
 8    1  0.1079508E+005  0.1043930E+01  0.7957747E-01            NaN
         13   -1    0    0    0    0  0.00000000000E+00  0.00000000000E+00  0.74505805969E-08  0.10566000000E+00  0.10566000000E+00 0.  1.
     999900   -1    0    0    0    0 -0.00000000000E+00 -0.00000000000E+00 -0.74505805969E-08  0.93827000000E+00  0.93827000000E+00 0. -1.
     999902    2    1    2    0    0 -0.23108565501E-03  0.90748029134E-02  0.21279525203E-01  0.10207950991E+01  0.10205329052E+01 0.  0.
     999903    2    3    3    0    0  0.12411425284E+00 -0.34595226928E-01  0.11749003275E-01  0.13093012865E+00  0.20086862024E-01 0.  0.
         14    1    1    2    0    0  0.23108565501E-03 -0.90748029134E-02 -0.21279525203E-01  0.23134900937E-01  0.00000000000E+00 0. -1.
     999901    1    3    3    0    0 -0.12434533850E+00  0.43670029842E-01  0.95305219276E-02  0.88986497041E+00  0.88000000000E+00 0. -1.
        -11    1    4    4    0    0  0.10160104183E+00 -0.20180270635E-01  0.11155443047E-01  0.10418598780E+00  0.51100000000E-03 0. -1.
         11    1    4    4    0    0  0.22513211014E-01 -0.14414956293E-01  0.59356022786E-03  0.26744140851E-01  0.51100000000E-03 0.  1.
</event>
<event>
 8    1  0.1079508E+005  0.1043930E+01  0.7957747E-01            NaN
         13   -1    0    0    0    0  0.00000000000E+00  0.00000000000E+00  0.74505805969E-08  0.10566000000E+00  0.10566000000E+00 0. -1.
     999900   -1    0    0    0    0 -0.00000000000E+00 -0.00000000000E+00 -0.74505805969E-08  0.93827000000E+00  0.93827000000E+00 0.  1.
     999902    2    1    2    0    0 -0.13869118772E-01  0.19944802906E-01  0.42733986706E-02  0.10192640406E+01  0.10189655415E+01 0.  0.
     999903    2    3    3    0    0 -0.11076476933E+00 -0.49418326571E-01 -0.42514882381E-01  0.13000077580E+00  0.19536666998E-01 0.  0.
         14    1    1    2    0    0  0.13869118772E-01 -0.19944802906E-01 -0.42733986706E-02  0.24665959431E-01  0.00000000000E+00 0.  1.
     999901    1    3    3    0    0  0.96895650562E-01  0.69363129477E-01  0.46788281052E-01  0.88926326477E+00  0.88000000000E+00 0. -1.
        -11    1    4    4    0    0 -0.74202444779E-01 -0.31838424304E-01 -0.37797991124E-01  0.89155130685E-01  0.51100000000E-03 0.  1.
         11    1    4    4    0    0 -0.36562324554E-01 -0.17579902267E-01 -0.47168912569E-02  0.40845645112E-01  0.51100000000E-03 0. -1.
</event>
<event>
 8    1  0.1079508E+005  0.1043930E+01  0.7957747E-01            NaN
         13   -1    0    0    0    0  0.00000000000E+00  0.00000000000E+00  0.74505805969E-08  0.10566000000E+00  0.10566000000E+00 0.  1.
     999900   -1    0    0    0    0 -0.00000000000E+00 -0.00000000000E+00 -0.74505805969E-08  0.93827000000E+00  0.93827000000E+00 0. -1.
     999902    2    1    2    0    0  0.40999527518E-02 -0.68886489638E-03  0.23467437496E-01  0.10200971494E+01  0.10198187042E+01 0.  0.
     999903    2    3    3    0    0  0.49735584383E-01  0.82847897964E-01  0.88474820938E-01  0.13257984725E+00  0.20303187101E-01 0.  0.
         14    1    1    2    0    0 -0.40999527518E-02  0.68886489638E-03 -0.23467437496E-01  0.23832850649E-01  0.00000000000E+00 0. -1.
     999901    1    3    3    0    0 -0.45635631631E-01 -0.83536762860E-01 -0.65007383442E-01  0.88751730210E+00  0.88000000000E+00 0.  1.
        -11    1    4    4    0    0  0.93589352781E-02  0.11907722837E-01  0.24761766746E-01  0.29030841292E-01  0.51100000000E-03 0.  1.
         11    1    4    4    0    0  0.40376649105E-01  0.70940175127E-01  0.63713054191E-01  0.10354900596E+00  0.51100000000E-03 0. -1.
</event>
<event>
 8    1  0.1079508E+005  0.1043930E+01  0.7957747E-01            NaN
         13   -1    0    0    0    0  0.00000000000E+00  0.00000000000E+00  0.74505805969E-08  0.10566000000E+00  0.10566000000E+00 0.  1.
     999900   -1    0    0    0    0 -0.00000000000E+00 -0.00000000000E+00 -0.74505805969E-08  0.93827000000E+00  0.93827000000E+00 0.  1.
     999902    2    1    2    0    0 -0.69660111361E-02 -0.14736659840E-01  0.17759532087E-01  0.10198240789E+01  0.10195391392E+01 0.  0.
     999903    2    3    3    0    0  0.17400852551E-01 -0.89975415625E-01 -0.89527320525E-01  0.12978751603E+00  0.20767597612E-01 0.  0.
         14    1    1    2    0    0  0.69660111361E-02  0.14736659840E-01 -0.17759532087E-01  0.24105921147E-01  0.00000000000E+00 0. -1.
     999901    1    3    3    0    0 -0.24366863687E-01  0.75238755785E-01  0.10728685261E+00  0.89003656282E+00  0.88000000000E+00 0. -1.
        -11    1    4    4    0    0  0.12564271024E-01 -0.87092845074E-01 -0.81292839797E-01  0.11979904629E+00  0.51100000000E-03 0. -1.
         11    1    4    4    0    0  0.48365815267E-02 -0.28825705519E-02 -0.82344807275E-02  0.99884697378E-02  0.51100000000E-03 0.  1.
</event>
<event>
 8    1  0.1079508E+005  0.1043930E+01  0.7957747E-01            NaN
         13   -1    0    0    0    0  0.00000000000E+00  0.00000000000E+00  0.74505805969E-08  0.10566000000E+00  0.10566000000E+00 0. -1.
     999900   -1    0    0    0    0 -0.00000000000E+00 -0.00000000000E+00 -0.74505805969E-08  0.93827000000E+00  0.93827000000E+00 0. -1.
     999902    2    1    2    0    0  0.31663466559E-02  0.21354498944E-01  0.15602846950E-01  0.10172937614E+01  0.10169449875E+01 0.  0.
     999903    2    3    3    0    0  0.90773231984E-01 -0.58130470626E-01 -0.62135661573E-01  0.12598231048E+00  0.19793202260E-01 0.  0.
         14    1    1    2    0    0 -0.31663466559E-02 -0.21354498944E-01 -0.15602846950E-01  0.26636238646E-01  0.00000000000E+00 0. -1.
     999901    1    3    3    0    0 -0.87606885328E-01  0.79484969570E-01  0.77738508523E-01  0.89131145087E+00  0.88000000000E+00 0.  1.
        -11    1    4    4    0    0  0.78051433040E-01 -0.51438343080E-01 -0.45415748830E-01  0.10392680454E+00  0.51100000000E-03 0. -1.
         11    1    4    4    0    0  0.12721798944E-01 -0.66921275464E-02 -0.16719912742E-01  0.22055505947E-01  0.51100000000E-03 0.  1.
</event>
<event>
 7    1  0.1079508E+005  0.1043930E+01  0.7957747E-01            NaN
         13   -1    0    0    0    0  0.00000000000E+00  0.00000000000E+00  0.74505805969E-08  0.10566000000E+00  0.10566000000E+00 0. -1.
     999900   -1    0    0    0    0 -0.00000000000E+00 -0.00000000000E+00 -0.74505805969E-08  0.93827000000E+00  0.93827000000E+00 0. -1.
     999903    2    1    2    0    0  0.26666555358E-01  0.26554947105E-04 -0.72239067119E-01  0.79188713367E-01  0.18473322027E-01 0.  0.
         14    1    1    2    0    0  0.34328888196E-01 -0.32461959583E-01 -0.55446983509E-01  0.72846546693E-01  0.00000000000E+00 0.  1.
     999901    1    1    2    0    0 -0.60995443554E-01  0.32435404636E-01  0.12768605063E+00  0.89189473994E+00  0.88000000000E+00 0.  1.
        -11    1    3    3    0    0  0.20297190812E-02 -0.64390697219E-02 -0.11890466806E-01  0.13683044263E-01  0.51100000000E-03 0.  1.
         11    1    3    3    0    0  0.24636836277E-01  0.64656246690E-02 -0.60348600313E-01  0.65505669104E-01  0.51100000000E-03 0. -1.
</event>
<event>
 8    1  0.1079508E+005  0.1043930E+01  0.7957747E-01            NaN
         13   -1    0    0    0    0  0.00000000000E+00  0.00000000000E+00  0.74505805969E-08  0.10566000000E+00  0.10566000000E+00 0. -1.
     999900   -1    0    0    0    0 -0.00000000000E+00 -0.00000000000E+00 -0.74505805969E-08  0.93827000000E+00  0.93827000000E+00 0. -1.
     999902    2    1    2    0    0 -0.62421691008E-02 -0.28762825979E-02 -0.23714015192E-01  0.10192400791E+01  0.10189409927E+01 0.  0.
     999903    2    3    3    0    0 -0.12009723101E+00 -0.22881406530E-01  0.37841726127E-01  0.12954783491E+00  0.20093323131E-01 0.  0.
         14    1    1    2    0    0  0.62421691008E-02  0.28762825979E-02  0.23714015192E-01  0.24689920883E-01  0.00000000000E+00 0. -1.
     999901    1    3    3    0    0  0.11385506191E+00  0.20005123933E-01 -0.61555741319E-01  0.88969224420E+00  0.88000000000E+00 0. -1.
        -11    1    4    4    0    0 -0.63472945783E-01 -0.14398532895E-01  0.99026176713E-02  0.65836582184E-01  0.51100000000E-03 0.  1.
         11    1    4    4    0    0 -0.56624285224E-01 -0.84828736354E-02  0.27939108455E-01  0.63711252731E-01  0.51100000000E-03 0. -1.
</event>
<event>
 8    1  0.1079508E+005  0.1043930E+01  0.7957747E-01            NaN
         13   -1    0    0    0    0  0.00000000000E+00  0.00000000000E+00  0.74505805969E-08  0.10566000000E+00  0.10566000000E+00 0. -1.
     999900   -1    0    0    0    0 -0.00000000000E+00 -0.00000000000E+00 -0.74505805969E-08  0.93827000000E+00  0.93827000000E+00 0. -1.
     999902    2    1    2    0    0  0.17925584168E-01 -0.63742966469E-02 -0.13492112128E-01  0.10206062929E+01  0.10203397521E+01 0.  0.
     999903    2    3    3    0    0  0.53307830772E-01  0.62688241721E-01 -0.10221227524E+00  0.13274774279E+00  0.20076691321E-01 0.  0.
         14    1    1    2    0    0 -0.17925584168E-01  0.63742966469E-02  0.13492112128E-01  0.23323707149E-01  0.00000000000E+00 0. -1.
     999901    1    3    3    0    0 -0.35382246604E-01 -0.69062538368E-01  0.88720163108E-01  0.88785855006E+00  0.88000000000E+00 0.  1.
        -11    1    4    4    0    0  0.83783361561E-02  0.20690756231E-01 -0.36129160506E-01  0.42472123446E-01  0.51100000000E-03 0. -1.
         11    1    4    4    0    0  0.44929494616E-01  0.41997485490E-01 -0.66083114729E-01  0.90275619340E-01  0.51100000000E-03 0.  1.
</event>
<event>
 8    1  0.1079508E+005  0.1043930E+01  0.7957747E-01            NaN
         13   -1    0    0    0    0  0.00000000000E+00  0.00000000000E+00  0.74505805969E-08  0.10566000000E+00  0.10566000000E+00 0. -1.
     999900   -1    0    0    0    0 -0.00000000000E+00 -0.00000000000E+00 -0.74505805969E-08  0.93827000000E+00  0.93827000000E+00 0.  1.
     999902    2    1    2    0    0 -0.16060588537E-02 -0.17706368437E-01  0.92385686181E-02  0.10238938812E+01  0.10236978235E+01 0.  0.
     999903    2    3    3    0    0  0.11342328254E+00 -0.54100949751E-01 -0.42055255560E-01  0.13418192140E+00  0.21080553252E-01 0.  0.
         14    1    1    2    0    0  0.16060588537E-02  0.17706368437E-01 -0.92385686181E-02  0.20036118845E-01  0.00000000000E+00 0.  1.
     999901    1    3    3    0    0 -0.11502934139E+00  0.36394581314E-01  0.51293824178E-01  0.88971195975E+00  0.88000000000E+00 0.  1.
        -11    1    4    4    0    0  0.26127624146E-01 -0.61393195822E-02 -0.15902845201E-01  0.31201051183E-01  0.51100000000E-03 0. -1.
         11    1    4    4    0    0  0.87295658391E-01 -0.47961630169E-01 -0.26152410359E-01  0.10298087022E+00  0.51100000000E-03 0.  1.
</event>
<event>
 8    1  0.1079508E+005  0.1043930E+01  0.7957747E-01            NaN
         13   -1    0    0    0    0  0.00000000000E+00  0.00000000000E+00  0.74505805969E-08  0.10566000000E+00  0.10566000000E+00 0. -1.
     999900   -1    0    0    0    0 -0.00000000000E+00 -0.00000000000E+00 -0.74505805969E-08  0.93827000000E+00  0.93827000000E+00 0.  1.
     999902    2    1    2    0    0 -0.21660942796E-01 -0.75496063826E-02 -0.81907591928E-02  0.10195726287E+01  0.10192816410E+01 0.  0.
     999903    2    3    3    0    0  0.61157325987E-01 -0.91869089965E-01 -0.64673748419E-01  0.12987663063E+00  0.22474368416E-01 0.  0.
         14    1    1    2    0    0  0.21660942796E-01  0.75496063826E-02  0.81907591928E-02  0.24357371276E-01  0.00000000000E+00 0. -1.
     999901    1    3    3    0    0 -0.82818268783E-01  0.84319483582E-01  0.56482989227E-01  0.88969599810E+00  0.88000000000E+00 0. -1.
        -11    1    4    4    0    0  0.32496523842E-01 -0.48389228126E-01 -0.47006601594E-01  0.74882729483E-01  0.51100000000E-03 0.  1.
         11    1    4    4    0    0  0.28660802145E-01 -0.43479861839E-01 -0.17667146826E-01  0.54993901145E-01  0.51100000000E-03 0. -1.
</event>
<event>
 8    1  0.1079508E+005  0.1043930E+01  0.7957747E-01            NaN
         13   -1    0    0    0    0  0.00000000000E+00  0.00000000000E+00  0.74505805969E-08  0.10566000000E+00  0.10566000000E+00 0. -1.
     999900   -1    0    0    0    0 -0.00000000000E+00 -0.00000000000E+00 -0.74505805969E-08  0.93827000000E+00  0.93827000000E+00 0.  1.
     999902    2    1    2    0    0  0.32046752595E-03  0.94789415869E-02  0.20975821009E-01  0.10209096156E+01  0.10206500404E+01 0.  0.
     999903    2    3    3    0    0  0.12510145524E+00 -0.32611596324E-01  0.47135096623E-02  0.13096221764E+00  0.20371425070E-01 0.  0.
         14    1    1    2    0    0 -0.32046752595E-03 -0.94789415869E-02 -0.20975821009E-01  0.23020384446E-01  0.00000000000E+00 0.  1.
     999901    1    3    3    0    0 -0.12478098771E+00  0.42090537911E-01  0.16262311347E-01  0.88994739791E+00  0.88000000000E+00 0.  1.
        -11    1    4    4    0    0  0.58369913800E-01 -0.22112419637E-01  0.99374479484E-02  0.63206170046E-01  0.51100000000E-03 0.  1.
         11    1    4    4    0    0  0.66731541439E-01 -0.10499176687E-01 -0.52239382861E-02  0.67756047598E-01  0.51100000000E-03 0. -1.
</event>
<event>
 8    1  0.1079508E+005  0.1043930E+01  0.7957747E-01            NaN
         13   -1    0    0    0    0  0.00000000000E+00  0.00000000000E+00  0.74505805969E-08  0.10566000000E+00  0.10566000000E+00 0.  1.
     999900   -1    0    0    0    0 -0.00000000000E+00 -0.00000000000E+00 -0.74505805969E-08  0.93827000000E+00  0.93827000000E+00 0. -1.
     999902    2    1    2    0    0  0.58777627866E-02  0.22155334341E-01 -0.39759549602E-02  0.10206659687E+01  0.10204008058E+01 0.  0.
     999903    2    3    3    0    0  0.10379732486E+00  0.75355485948E-01  0.27724091954E-01  0.13307181045E+00  0.22071419291E-01 0.  0.
         14    1    1    2    0    0 -0.58777627866E-02 -0.22155334341E-01  0.39759549602E-02  0.23264031314E-01  0.00000000000E+00 0. -1.
     999901    1    3    3    0    0 -0.97919562076E-01 -0.53200151607E-01 -0.31700046914E-01  0.88759415824E+00  0.88000000000E+00 0. -1.
        -11    1    4    4    0    0  0.24824645329E-01  0.30157149744E-01  0.10658445187E-01  0.40491730899E-01  0.51100000000E-03 0.  1.
         11    1    4    4    0    0  0.78972679533E-01  0.45198336204E-01  0.17065646767E-01  0.92580079547E-01  0.51100000000E-03 0. -1.
</event>
<event>
 8    1  0.1079508E+005  0.1043930E+01  0.7957747E-01            NaN
         13   -1    0    0    0    0  0.00000000000E+00  0.00000000000E+00  0.74505805969E-08  0.10566000000E+00  0.10566000000E+00 0. -1.
     999900   -1    0    0    0    0 -0.00000000000E+00 -0.00000000000E+00 -0.74505805969E-08  0.93827000000E+00  0.93827000000E+00 0. -1.
     999902    2    1    2    0    0 -0.14433098149E-01  0.66369573233E-02  0.19448624088E-01  0.10188180008E+01  0.10185084714E+01 0.  0.
     999903    2    3    3    0    0  0.92191677900E-02 -0.44839259926E-01  0.12130954502E+00  0.13113287767E+00  0.19602897950E-01 0.  0.
         14    1    1    2    0    0  0.14433098149E-01 -0.66369573233E-02 -0.19448624088E-01  0.25111999196E-01  0.00000000000E+00 0.  1.
     999901    1    3    3    0    0 -0.23652265939E-01  0.51476217249E-01 -0.10186092093E+00  0.88768512314E+00  0.88000000000E+00 0. -1.
        -11    1    4    4    0    0 -0.34811563965E-02 -0.29135847696E-01  0.65320678401E-01  0.71610531478E-01  0.51100000000E-03 0.  1.
         11    1    4    4    0    0  0.12700324186E-01 -0.15703412230E-01  0.55988866615E-01  0.59522346190E-01  0.51100000000E-03 0. -1.
</event>
<event>
 8    1  0.1079508E+005  0.1043930E+01  0.7957747E-01            NaN
         13   -1    0    0    0    0  0.00000000000E+00  0.00000000000E+00  0.74505805969E-08  0.10566000000E+00  0.10566000000E+00 0.  1.
     999900   -1    0    0    0    0 -0.00000000000E+00 -0.00000000000E+00 -0.74505805969E-08  0.93827000000E+00  0.93827000000E+00 0.  1.
     999902    2    1    2    0    0  0.17364215397E-01 -0.14819622604E-01 -0.86495968585E-02  0.10195178572E+01  0.10192255435E+01 0.  0.
     999903    2    3    3    0    0 -0.56810223094E-01  0.44809856611E-01  0.10285718301E+00  0.12739046491E+00  0.20332381925E-01 0.  0.
         14    1    1    2    0    0 -0.17364215397E-01  0.14819622604E-01  0.86495968585E-02  0.24412142804E-01  0.00000000000E+00 0.  1.
     999901    1    3    3    0    0  0.74174438491E-01 -0.59629479215E-01 -0.11150677987E+00  0.89212739229E+00  0.88000000000E+00 0.  1.
        -11    1    4    4    0    0 -0.10093250522E-01  0.17917986386E-01  0.36486649954E-01  0.41886330564E-01  0.51100000000E-03 0. -1.
         11    1    4    4    0    0 -0.46716972572E-01  0.26891870225E-01  0.66370533056E-01  0.85504134342E-01  0.51100000000E-03 0.  1.
</event>
<event>
 8    1  0.1079508E+005  0.1043930E+01  0.7957747E-01            NaN
         13   -1    0    0    0    0  0.00000000000E+00  0.00000000000E+00  0.74505805969E-08  0.10566000000E+00  0.10566000000E+00 0. -1.
     999900   -1    0    0    0    0 -0.00000000000E+00 -0.00000000000E+00 -0.74505805969E-08  0.93827000000E+00  0.93827000000E+00 0. -1.
     999902    2    1    2    0    0  0.14357852288E-01  0.85410657211E-02 -0.16983408450E-01  0.10201070302E+01  0.10198288186E+01 0.  0.
     999903    2    3    3    0    0 -0.20750630718E-01  0.12038843834E+00 -0.44922767070E-01  0.13189362789E+00  0.21305147606E-01 0.  0.
         14    1    1    2    0    0 -0.14357852288E-01 -0.85410657211E-02  0.16983408450E-01  0.23822969768E-01  0.00000000000E+00 0. -1.
     999901    1    3    3    0    0  0.35108483006E-01 -0.11184737262E+00  0.27939358620E-01  0.88821340234E+00  0.88000000000E+00 0. -1.
        -11    1    4    4    0    0 -0.12413832578E-01  0.10053474301E+00 -0.29855237308E-01  0.10560745290E+00  0.51100000000E-03 0. -1.
         11    1    4    4    0    0 -0.83367981403E-02  0.19853695330E-01 -0.15067529762E-01  0.26286174991E-01  0.51100000000E-03 0.  1.
</event>
<event>
 8    1  0.1079508E+005  0.1043930E+01  0.7957747E-01            NaN
         13   -1    0    0    0    0  0.00000000000E+00  0.00000000000E+00  0.74505805969E-08  0.10566000000E+00  0.10566000000E+00 0.  1.
     999900   -1    0    0    0    0 -0.00000000000E+00 -0.00000000000E+00 -0.74505805969E-08  0.93827000000E+00  0.93827000000E+00 0.  1.
     999902    2    1    2    0    0 -0.22102178884E-01  0.13341999811E-01 -0.30384036189E-02  0.10179348626E+01  0.10176028879E+01 0.  0.
     999903    2    3    3    0    0  0.63088769095E-01 -0.93502370724E-01  0.51756804241E-01  0.12570410103E+00  0.19996702590E-01 0.  0.
         14    1    1    2    0    0  0.22102178884E-01 -0.13341999811E-01  0.30384036189E-02  0.25995137371E-01  0.00000000000E+00 0.  1.
     999901    1    3    3    0    0 -0.85190947980E-01  0.10684437054E+00 -0.54795207860E-01  0.89223076160E+00  0.88000000000E+00 0.  1.
        -11    1    4    4    0    0  0.13976183128E-01 -0.33579208701E-01  0.10175069130E-01  0.37771551525E-01  0.51100000000E-03 0. -1.
         11    1    4    4    0    0  0.49112585967E-01 -0.59923162023E-01  0.41581735111E-01  0.87932549508E-01  0.51100000000E-03 0.  1.
</event>
<event>
 7    1  0.1445603E+005  0.1043930E+01  0.7957747E-01            NaN
         13   -1    0    0    0    0  0.00000000000E+00  0.00000000000E+00  0.74505805969E-08  0.10566000000E+00  0.10566000000E+00 0.  1.
     999900   -1    0    0    0    0 -0.00000000000E+00 -0.00000000000E+00 -0.74505805969E-08  0.93827000000E+00  0.93827000000E+00 0. -1.
     999903    2    1    2    0    0  0.80625354542E-01 -0.30761772745E-01  0.21436167572E-01  0.91167193152E-01  0.20129912308E-01 0.  0.
         14    1    1    2    0    0  0.52526234561E-01  0.27556523726E-01  0.17639683492E-01  0.61883162093E-01  0.00000000000E+00 0.  1.
     999901    1    1    2    0    0 -0.13315158910E+00  0.32052490197E-02 -0.39075851063E-01  0.89087964475E+00  0.88000000000E+00 0. -1.
        -11    1    3    3    0    0  0.40307110611E-01 -0.92818772700E-02  0.18710454620E-01  0.45399985072E-01  0.51100000000E-03 0.  1.
         11    1    3    3    0    0  0.40318243931E-01 -0.21479895475E-01  0.27257129518E-02  0.45767208080E-01  0.51100000000E-03 0. -1.
</event>
<event>
 8    1  0.1079508E+005  0.1043930E+01  0.7957747E-01            NaN
         13   -1    0    0    0    0  0.00000000000E+00  0.00000000000E+00  0.74505805969E-08  0.10566000000E+00  0.10566000000E+00 0.  1.
     999900   -1    0    0    0    0 -0.00000000000E+00 -0.00000000000E+00 -0.74505805969E-08  0.93827000000E+00  0.93827000000E+00 0.  1.
     999902    2    1    2    0    0  0.10679780558E-01  0.91711567181E-02 -0.19037342479E-01  0.10202532554E+01  0.10199784884E+01 0.  0.
     999903    2    3    3    0    0 -0.11127316867E+00 -0.42778051959E-01 -0.47395527355E-01  0.12987388185E+00  0.20228924308E-01 0.  0.
         14    1    1    2    0    0 -0.10679780558E-01 -0.91711567181E-02  0.19037342479E-01  0.23676744645E-01  0.00000000000E+00 0.  1.
     999901    1    3    3    0    0  0.12195294923E+00  0.51949208677E-01  0.28358184877E-01  0.89037937350E+00  0.88000000000E+00 0. -1.
        -11    1    4    4    0    0 -0.67252192893E-01 -0.23482825153E-01 -0.17798858209E-01  0.73425887809E-01  0.51100000000E-03 0.  1.
         11    1    4    4    0    0 -0.44020975780E-01 -0.19295226806E-01 -0.29596669146E-01  0.56447994044E-01  0.51100000000E-03 0. -1.
</event>
<event>
 8    1  0.1079508E+005  0.1043930E+01  0.7957747E-01            NaN
         13   -1    0    0    0    0  0.00000000000E+00  0.00000000000E+00  0.74505805969E-08  0.10566000000E+00  0.10566000000E+00 0. -1.
     999900   -1    0    0    0    0 -0.00000000000E+00 -0.00000000000E+00 -0.74505805969E-08  0.93827000000E+00  0.93827000000E+00 0.  1.
     999902    2    1    2    0    0  0.21682265886E-01 -0.12059389504E-01 -0.20664968177E-02  0.10190338168E+01  0.10187296500E+01 0.  0.
     999903    2    3    3    0    0  0.21571604088E-01 -0.52603770113E-01 -0.11561938657E+00  0.13081193133E+00  0.22614776012E-01 0.  0.
         14    1    1    2    0    0 -0.21682265886E-01  0.12059389504E-01  0.20664968177E-02  0.24896183206E-01  0.00000000000E+00 0.  1.
     999901    1    3    3    0    0  0.11066179761E-03  0.40544380609E-01  0.11355288975E+00  0.88822188546E+00  0.88000000000E+00 0. -1.
        -11    1    4    4    0    0  0.60432666149E-02 -0.41412627945E-01 -0.83924402807E-01  0.93782158923E-01  0.51100000000E-03 0. -1.
         11    1    4    4    0    0  0.15528337473E-01 -0.11191142168E-01 -0.31694983765E-01  0.37029772408E-01  0.51100000000E-03 0.  1.
</event>
<event>
 8    1  0.1079508E+005  0.1043930E+01  0.7957747E-01            NaN
         13   -1    0    0    0    0  0.00000000000E+00  0.00000000000E+00  0.74505805969E-08  0.10566000000E+00  0.10566000000E+00 0.  1.
     999900   -1    0    0    0    0 -0.00000000000E+00 -0.00000000000E+00 -0.74505805969E-08  0.93827000000E+00  0.93827000000E+00 0.  1.
     999902    2    1    2    0    0  0.20130305999E-01 -0.94887675454E-02 -0.70896402599E-02  0.10205734393E+01  0.10203061384E+01 0.  0.
     999903    2    3    3    0    0  0.59232632267E-01 -0.10260802975E+00  0.56000551139E-01  0.13255285329E+00  0.19932001747E-01 0.  0.
         14    1    1    2    0    0 -0.20130305999E-01  0.94887675454E-02  0.70896402599E-02  0.23356560709E-01  0.00000000000E+00 0.  1.
     999901    1    3    3    0    0 -0.39102326267E-01  0.93119262200E-01 -0.63090191399E-01  0.88802058600E+00  0.88000000000E+00 0. -1.
        -11    1    4    4    0    0  0.14892530198E-01 -0.42976516029E-01  0.16435061790E-01  0.48364664402E-01  0.51100000000E-03 0.  1.
         11    1    4    4    0    0  0.44340102069E-01 -0.59631513717E-01  0.39565489349E-01  0.84188188887E-01  0.51100000000E-03 0. -1.
</event>
<event>
 8    1  0.1079508E+005  0.1043930E+01  0.7957747E-01            NaN
         13   -1    0    0    0    0  0.00000000000E+00  0.00000000000E+00  0.74505805969E-08  0.10566000000E+00  0.10566000000E+00 0. -1.
     999900   -1    0    0    0    0 -0.00000000000E+00 -0.00000000000E+00 -0.74505805969E-08  0.93827000000E+00  0.93827000000E+00 0. -1.
     999902    2    1    2    0    0 -0.22544309715E-01  0.30129038259E-02 -0.78438259678E-02  0.10198707171E+01  0.10195868920E+01 0.  0.
     999903    2    3    3    0    0  0.32945637992E-01 -0.11676100339E+00 -0.40267080189E-01  0.12943476172E+00  0.20331571984E-01 0.  0.
         14    1    1    2    0    0  0.22544309715E-01 -0.30129038259E-02  0.78438259678E-02  0.24059282944E-01  0.00000000000E+00 0. -1.
     999901    1    3    3    0    0 -0.55489947707E-01  0.11977390721E+00  0.32423254221E-01  0.89043595534E+00  0.88000000000E+00 0.  1.
        -11    1    4    4    0    0  0.58913647732E-02 -0.52205142976E-01 -0.22913476059E-01  0.57318178950E-01  0.51100000000E-03 0.  1.
         11    1    4    4    0    0  0.27054273219E-01 -0.64555860410E-01 -0.17353604130E-01  0.72116582767E-01  0.51100000000E-03 0. -1.
</event>
<event>
 8    1  0.1079508E+005  0.1043930E+01  0.7957747E-01            NaN
         13   -1    0    0    0    0  0.00000000000E+00  0.00000000000E+00  0.74505805969E-08  0.10566000000E+00  0.10566000000E+00 0. -1.
     999900   -1    0    0    0    0 -0.00000000000E+00 -0.00000000000E+00 -0.74505805969E-08  0.93827000000E+00  0.93827000000E+00 0.  1.
     999902    2    1    2    0    0 -0.59864971278E-02 -0.10960629932E-01  0.17327984647E-01  0.10225703977E+01  0.10223472921E+01 0.  0.
     999903    2    3    3    0    0  0.70633973123E-01 -0.78975935134E-01 -0.75265789754E-01  0.13180085109E+00  0.21912753151E-01 0.  0.
         14    1    1    2    0    0  0.59864971278E-02  0.10960629932E-01 -0.17327984647E-01  0.21359602250E-01  0.00000000000E+00 0.  1.
     999901    1    3    3    0    0 -0.76620470250E-01  0.68015305202E-01  0.92593774401E-01  0.89076954666E+00  0.88000000000E+00 0. -1.
        -11    1    4    4    0    0  0.45886321584E-01 -0.52412064733E-01 -0.61644494126E-01  0.93020878383E-01  0.51100000000E-03 0. -1.
         11    1    4    4    0    0  0.24747651539E-01 -0.26563870401E-01 -0.13621295628E-01  0.38779972705E-01  0.51100000000E-03 0.  1.
</event>
<event>
 8    1  0.1079508E+005  0.1043930E+01  0.7957747E-01            NaN
         13   -1    0    0    0    0  0.00000000000E+00  0.00000000000E+00  0.74505805969E-08  0.10566000000E+00  0.10566000000E+00 0.  1.
     999900   -1    0    0    0    0 -0.00000000000E+00 -0.00000000000E+00 -0.74505805969E-08  0.93827000000E+00  0.93827000000E+00 0. -1.
     999902    2    1    2    0    0  0.36770213886E-02  0.18804943215E-01  0.14179484935E-01  0.10200929664E+01  0.10198144223E+01 0.  0.
     999903    2    3    3    0    0  0.78763394207E-01  0.10396656753E+00  0.17031543819E-01  0.13279448235E+00  0.18209382912E-01 0.  0.
         14    1    1    2    0    0 -0.36770213886E-02 -0.18804943215E-01 -0.14179484935E-01  0.23837033553E-01  0.00000000000E+00 0. -1.
     999901    1    3    3    0    0 -0.75086372819E-01 -0.85161624319E-01 -0.28520588843E-02  0.88729848410E+00  0.88000000000E+00 0. -1.
        -11    1    4    4    0    0  0.52703481201E-01  0.57429871414E-01  0.15241427252E-01  0.79425495195E-01  0.51100000000E-03 0.  1.
         11    1    4    4    0    0  0.26059913006E-01  0.46536696120E-01  0.17901165671E-02  0.53368987155E-01  0.51100000000E-03 0. -1.
</event>
<event>
 8    1  0.1079508E+005  0.1043930E+01  0.7957747E-01            NaN
         13   -1    0    0    0    0  0.00000000000E+00  0.00000000000E+00  0.74505805969E-08  0.10566000000E+00  0.10566000000E+00 0. -1.
     999900   -1    0    0    0    0 -0.00000000000E+00 -0.00000000000E+00 -0.74505805969E-08  0.93827000000E+00  0.93827000000E+00 0. -1.
     999902    2    1    2    0    0 -0.14700679642E-01 -0.98095068562E-02 -0.15375661162E-01  0.10205046427E+01  0.10202357465E+01 0.  0.
     999903    2    3    3    0    0  0.58692799926E-01  0.99206008859E-01 -0.56264553814E-01  0.12980666528E+00  0.19934727928E-01 0.  0.
         14    1    1    2    0    0  0.14700679642E-01  0.98095068562E-02  0.15375661162E-01  0.23425357263E-01  0.00000000000E+00 0. -1.
     999901    1    3    3    0    0 -0.73393479568E-01 -0.10901551572E+00  0.40888892652E-01  0.89069797746E+00  0.88000000000E+00 0. -1.
        -11    1    4    4    0    0  0.29532083978E-01  0.47250617056E-01 -0.16281016337E-01  0.58052540084E-01  0.51100000000E-03 0. -1.
         11    1    4    4    0    0  0.29160715948E-01  0.51955391803E-01 -0.39983537477E-01  0.71754125193E-01  0.51100000000E-03 0.  1.
</event>
<event>
 8    1  0.1079508E+005  0.1043930E+01  0.7957747E-01            NaN
         13   -1    0    0    0    0  0.00000000000E+00  0.00000000000E+00  0.74505805969E-08  0.10566000000E+00  0.10566000000E+00 0.  1.
     999900   -1    0    0    0    0 -0.00000000000E+00 -0.00000000000E+00 -0.74505805969E-08  0.93827000000E+00  0.93827000000E+00 0.  1.
     999902    2    1    2    0    0  0.16119970550E-01 -0.13463705040E-01 -0.94259039604E-02  0.10209088691E+01  0.10206492769E+01 0.  0.
     999903    2    3    3    0    0  0.86522908913E-01 -0.81448844518E-01  0.56577999635E-01  0.13302651864E+00  0.19361213222E-01 0.  0.
         14    1    1    2    0    0 -0.16119970550E-01  0.13463705040E-01  0.94259039604E-02  0.23021130932E-01  0.00000000000E+00 0.  1.
     999901    1    3    3    0    0 -0.70402938363E-01  0.67985139477E-01 -0.66003903596E-01  0.88788235043E+00  0.88000000000E+00 0.  1.
        -11    1    4    4    0    0  0.27744772547E-01 -0.22222474345E-01  0.26446367119E-01  0.44308940684E-01  0.51100000000E-03 0. -1.
         11    1    4    4    0    0  0.58778136366E-01 -0.59226370173E-01  0.30131632516E-01  0.88717577951E-01  0.51100000000E-03 0.  1.
</event>
<event>
 8    1  0.1079508E+005  0.1043930E+01  0.7957747E-01            NaN
         13   -1    0    0    0    0  0.00000000000E+00  0.00000000000E+00  0.74505805969E-08  0.10566000000E+00  0.10566000000E+00 0. -1.
     999900   -1    0    0    0    0 -0.00000000000E+00 -0.00000000000E+00 -0.74505805969E-08  0.93827000000E+00  0.93827000000E+00 0.  1.
     999902    2    1    2    0    0 -0.92520293596E-03  0.16087961200E-01 -0.16893441189E-01  0.10205833332E+01  0.10203162613E+01 0.  0.
     999903    2    3    3    0    0  0.35789386114E-02  0.72754387459E-02  0.12715501328E+00  0.12881660075E+00  0.18962552977E-01 0.  0.
         14    1    1    2    0    0  0.92520293596E-03 -0.16087961200E-01  0.16893441189E-01  0.23346666813E-01  0.00000000000E+00 0. -1.
     999901    1    3    3    0    0 -0.45041415474E-02  0.88125224545E-02 -0.14404845447E+00  0.89176673244E+00  0.88000000000E+00 0.  1.
        -11    1    4    4    0    0  0.80390339801E-02  0.10301799194E-01  0.58281889390E-01  0.59731004393E-01  0.51100000000E-03 0.  1.
         11    1    4    4    0    0 -0.44600953687E-02 -0.30263604483E-02  0.68873123894E-01  0.69085596358E-01  0.51100000000E-03 0. -1.
</event>
<event>
 8    1  0.1079508E+005  0.1043930E+01  0.7957747E-01            NaN
         13   -1    0    0    0    0  0.00000000000E+00  0.00000000000E+00  0.74505805969E-08  0.10566000000E+00  0.10566000000E+00 0. -1.
     999900   -1    0    0    0    0 -0.00000000000E+00 -0.00000000000E+00 -0.74505805969E-08  0.93827000000E+00  0.93827000000E+00 0.  1.
     999902    2    1    2    0    0 -0.52438876335E-02  0.81358099106E-02 -0.21829997435E-01  0.10200503319E+01  0.10197707787E+01 0.  0.
     999903    2    3    3    0    0  0.79853901901E-01 -0.35856556251E-01  0.90799038177E-01  0.12771504642E+00  0.20107945495E-01 0.  0.
         14    1    1    2    0    0  0.52438876335E-02 -0.81358099106E-02  0.21829997435E-01  0.23879668097E-01  0.00000000000E+00 0. -1.
     999901    1    3    3    0    0 -0.85097789534E-01  0.43992366161E-01 -0.11262903561E+00  0.89233528549E+00  0.88000000000E+00 0.  1.
        -11    1    4    4    0    0  0.78662029920E-01 -0.37761297723E-01  0.86667324132E-01  0.12298421342E+00  0.51100000000E-03 0. -1.
         11    1    4    4    0    0  0.11918719801E-02  0.19047414722E-02  0.41317140452E-02  0.47308329968E-02  0.51100000000E-03 0.  1.
</event>
<event>
 8    1  0.1079508E+005  0.1043930E+01  0.7957747E-01            NaN
         13   -1    0    0    0    0  0.00000000000E+00  0.00000000000E+00  0.74505805969E-08  0.10566000000E+00  0.10566000000E+00 0. -1.
     999900   -1    0    0    0    0 -0.00000000000E+00 -0.00000000000E+00 -0.74505805969E-08  0.93827000000E+00  0.93827000000E+00 0.  1.
     999902    2    1    2    0    0 -0.24332211861E-02 -0.11637619208E-01  0.20523674555E-01  0.10202113162E+01  0.10199355635E+01 0.  0.
     999903    2    3    3    0    0  0.62226791458E-01 -0.11350968876E+00  0.15308505108E-01  0.13196245813E+00  0.20569808204E-01 0.  0.
         14    1    1    2    0    0  0.24332211861E-02  0.11637619208E-01 -0.20523674555E-01  0.23718683846E-01  0.00000000000E+00 0.  1.
     999901    1    3    3    0    0 -0.64660012644E-01  0.10187206955E+00  0.52151694464E-02  0.88824885802E+00  0.88000000000E+00 0.  1.
        -11    1    4    4    0    0  0.98533917943E-02 -0.34364037132E-01 -0.45655091071E-03  0.35755362362E-01  0.51100000000E-03 0. -1.
         11    1    4    4    0    0  0.52373399664E-01 -0.79145651627E-01  0.15765056019E-01  0.96207095768E-01  0.51100000000E-03 0.  1.
</event>
<event>
 8    1  0.1079508E+005  0.1043930E+01  0.7957747E-01            NaN
         13   -1    0    0    0    0  0.00000000000E+00  0.00000000000E+00  0.74505805969E-08  0.10566000000E+00  0.10566000000E+00 0. -1.
     999900   -1    0    0    0    0 -0.00000000000E+00 -0.00000000000E+00 -0.74505805969E-08  0.93827000000E+00  0.93827000000E+00 0.  1.
     999902    2    1    2    0    0  0.15977089083E-01  0.14775977192E-01 -0.95217313927E-02  0.10201758373E+01  0.10198992493E+01 0.  0.
     999903    2    3    3    0    0 -0.32650205284E-01 -0.37594178646E-01 -0.11898460080E+00  0.13051895581E+00  0.19962575596E-01 0.  0.
         14    1    1    2    0    0 -0.15977089083E-01 -0.14775977192E-01  0.95217313927E-02  0.23754162715E-01  0.00000000000E+00 0.  1.
     999901    1    3    3    0    0  0.48627294367E-01  0.52370155839E-01  0.10946286941E+00  0.88965688148E+00  0.88000000000E+00 0. -1.
        -11    1    4    4    0    0 -0.17450554975E-01 -0.12494687943E-01 -0.71903560993E-01  0.75040137928E-01  0.51100000000E-03 0.  1.
         11    1    4    4    0    0 -0.15199650309E-01 -0.25099490703E-01 -0.47081039808E-01  0.55478817881E-01  0.51100000000E-03 0. -1.
</event>
<event>
 8    1  0.1079508E+005  0.1043930E+01  0.7957747E-01            NaN
         13   -1    0    0    0    0  0.00000000000E+00  0.00000000000E+00  0.74505805969E-08  0.10566000000E+00  0.10566000000E+00 0. -1.
     999900   -1    0    0    0    0 -0.00000000000E+00 -0.00000000000E+00 -0.74505805969E-08  0.93827000000E+00  0.93827000000E+00 0. -1.
     999902    2    1    2    0    0 -0.87849255603E-02 -0.25396100584E-01  0.60117872233E-02  0.10163931442E+01  0.10160200515E+01 0.  0.
     999903    2    3    3    0    0  0.11871534907E+00  0.20360731037E-01  0.29372356901E-01  0.12572164252E+00  0.20863906034E-01 0.  0.
         14    1    1    2    0    0  0.87849255603E-02  0.25396100584E-01 -0.60117872233E-02  0.27536855805E-01  0.00000000000E+00 0.  1.
     999901    1    3    3    0    0 -0.12750027463E+00 -0.45756831622E-01 -0.23360569678E-01  0.89067150167E+00  0.88000000000E+00 0. -1.
        -11    1    4    4    0    0  0.17575832034E-01  0.10132148174E-01  0.81754333927E-02  0.21878508415E-01  0.51100000000E-03 0. -1.
         11    1    4    4    0    0  0.10113951704E+00  0.10228582864E-01  0.21196923508E-01  0.10384313411E+00  0.51100000000E-03 0.  1.
</event>
<event>
 8    1  0.1079508E+005  0.1043930E+01  0.7957747E-01            NaN
         13   -1    0    0    0    0  0.00000000000E+00  0.00000000000E+00  0.74505805969E-08  0.10566000000E+00  0.10566000000E+00 0.  1.
     999900   -1    0    0    0    0 -0.00000000000E+00 -0.00000000000E+00 -0.74505805969E-08  0.93827000000E+00  0.93827000000E+00 0. -1.
     999902    2    1    2    0    0 -0.16404527700E-01 -0.69788286475E-02 -0.15516536598E-01  0.10202957984E+01  0.10200220295E+01 0.  0.
     999903    2    3    3    0    0  0.27420892036E-01 -0.12146818383E+00  0.33562072690E-01  0.13044345683E+00  0.19561638559E-01 0.  0.
         14    1    1    2    0    0  0.16404527700E-01  0.69788286475E-02  0.15516536598E-01  0.23634201623E-01  0.00000000000E+00 0.  1.
     999901    1    3    3    0    0 -0.43825419737E-01  0.11448935518E+00 -0.49078609288E-01  0.88985234155E+00  0.88000000000E+00 0. -1.
        -11    1    4    4    0    0 -0.10951105285E-02 -0.32713754648E-01  0.10914392084E-01  0.34507594610E-01  0.51100000000E-03 0.  1.
         11    1    4    4    0    0  0.28516002565E-01 -0.88754429184E-01  0.22647680606E-01  0.95935862220E-01  0.51100000000E-03 0. -1.
</event>
<event>
 8    1  0.1079508E+005  0.1043930E+01  0.7957747E-01            NaN
         13   -1    0    0    0    0  0.00000000000E+00  0.00000000000E+00  0.74505805969E-08  0.10566000000E+00  0.10566000000E+00 0. -1.
     999900   -1    0    0    0    0 -0.00000000000E+00 -0.00000000000E+00 -0.74505805969E-08  0.93827000000E+00  0.93827000000E+00 0. -1.
     999902    2    1    2    0    0 -0.38165814545E-02  0.17663304872E-01 -0.14217080439E-01  0.10209368704E+01  0.10206779165E+01 0.  0.
     999903    2    3    3    0    0 -0.36266845687E-01  0.12667972332E+00 -0.11670253038E-01  0.13361275516E+00  0.18791943428E-01 0.  0.
         14    1    1    2    0    0  0.38165814545E-02 -0.17663304872E-01  0.14217080439E-01  0.22993129609E-01  0.00000000000E+00 0. -1.
     999901    1    3    3    0    0  0.32450264232E-01 -0.10901641845E+00 -0.25468274012E-02  0.88732411523E+00  0.88000000000E+00 0.  1.
        -11    1    4    4    0    0 -0.16541785696E-01  0.51248476818E-01 -0.13872174182E-01  0.55612367219E-01  0.51100000000E-03 0.  1.
         11    1    4    4    0    0 -0.19725059991E-01  0.75431246507E-01  0.22019211446E-02  0.78000387941E-01  0.51100000000E-03 0. -1.
</event>
<event>
 8    1  0.1079508E+005  0.1043930E+01  0.7957747E-01            NaN
         13   -1    0    0    0    0  0.00000000000E+00  0.00000000000E+00  0.74505805969E-08  0.10566000000E+00  0.10566000000E+00 0. -1.
     999900   -1    0    0    0    0 -0.00000000000E+00 -0.00000000000E+00 -0.74505805969E-08  0.93827000000E+00  0.93827000000E+00 0.  1.
     999902    2    1    2    0    0 -0.18065048167E-02 -0.22986361278E-01 -0.69261341867E-02  0.10198549590E+01  0.10195707576E+01 0.  0.
     999903    2    3    3    0    0  0.12806257645E+00 -0.11926410933E-01  0.12996094626E-03  0.13022689669E+00  0.20414822229E-01 0.  0.
         14    1    1    2    0    0  0.18065048167E-02  0.22986361278E-01  0.69261341867E-02  0.24075041002E-01  0.00000000000E+00 0. -1.
     999901    1    3    3    0    0 -0.12986908127E+00 -0.11059950346E-01 -0.70560951329E-02  0.88962806231E+00  0.88000000000E+00 0.  1.
        -11    1    4    4    0    0  0.56702712028E-01 -0.11438933969E-01 -0.80163419240E-02  0.58400082367E-01  0.51100000000E-03 0.  1.
         11    1    4    4    0    0  0.71359864421E-01 -0.48747696341E-03  0.81463028702E-02  0.71826814321E-01  0.51100000000E-03 0. -1.
</event>
<event>
 8    1  0.1079508E+005  0.1043930E+01  0.7957747E-01            NaN
         13   -1    0    0    0    0  0.00000000000E+00  0.00000000000E+00  0.74505805969E-08  0.10566000000E+00  0.10566000000E+00 0. -1.
     999900   -1    0    0    0    0 -0.00000000000E+00 -0.00000000000E+00 -0.74505805969E-08  0.93827000000E+00  0.93827000000E+00 0. -1.
     999902    2    1    2    0    0 -0.19706627671E-01 -0.11369155062E-01 -0.57514276367E-02  0.10204632622E+01  0.10201934041E+01 0.  0.
     999903    2    3    3    0    0 -0.75569991610E-01 -0.40067995757E-03 -0.10725135794E+00  0.13280158191E+00  0.20552912268E-01 0.  0.
         14    1    1    2    0    0  0.19706627671E-01  0.11369155062E-01  0.57514276367E-02  0.23466737755E-01  0.00000000000E+00 0.  1.
     999901    1    3    3    0    0  0.55863363940E-01 -0.10968475105E-01  0.10149993030E+00  0.88766168033E+00  0.88000000000E+00 0.  1.
        -11    1    4    4    0    0 -0.98666890979E-02  0.59849516911E-02 -0.23277055276E-01  0.25985642648E-01  0.51100000000E-03 0.  1.
         11    1    4    4    0    0 -0.65703302512E-01 -0.63856316486E-02 -0.83974302663E-01  0.10681593927E+00  0.51100000000E-03 0. -1.
</event>
<event>
 8    1  0.1079508E+005  0.1043930E+01  0.7957747E-01            NaN
         13   -1    0    0    0    0  0.00000000000E+00  0.00000000000E+00  0.74505805969E-08  0.10566000000E+00  0.10566000000E+00 0. -1.
     999900   -1    0    0    0    0 -0.00000000000E+00 -0.00000000000E+00 -0.74505805969E-08  0.93827000000E+00  0.93827000000E+00 0. -1.
     999902    2    1    2    0    0 -0.64402931409E-02  0.23094107356E-01 -0.50085184870E-02  0.10194371352E+01  0.10191428615E+01 0.  0.
     999903    2    3    3    0    0  0.64927393501E-01 -0.72362381697E-01  0.79782261904E-01  0.12736383973E+00  0.20111132327E-01 0.  0.
         14    1    1    2    0    0  0.64402931410E-02 -0.23094107356E-01  0.50085184870E-02  0.24492864833E-01  0.00000000000E+00 0. -1.
     999901    1    3    3    0    0 -0.71367686642E-01  0.95456489053E-01 -0.84790780391E-01  0.89207329544E+00  0.88000000000E+00 0.  1.
        -11    1    4    4    0    0  0.56331833617E-01 -0.50356756647E-01  0.58445891076E-01  0.95526235785E-01  0.51100000000E-03 0.  1.
         11    1    4    4    0    0  0.85955598845E-02 -0.22005625050E-01  0.21336370828E-01  0.31837603941E-01  0.51100000000E-03 0. -1.
</event>
<event>
 8    1  0.1079508E+005  0.1043930E+01  0.7957747E-01            NaN
         13   -1    0    0    0    0  0.00000000000E+00  0.00000000000E+00  0.74505805969E-08  0.10566000000E+00  0.10566000000E+00 0. -1.
     999900   -1    0    0    0    0 -0.00000000000E+00 -0.00000000000E+00 -0.74505805969E-08  0.93827000000E+00  0.93827000000E+00 0.  1.
     999902    2    1    2    0    0  0.65072266384E-03  0.10126059947E-01 -0.21460804879E-01  0.10201912832E+01  0.10199150590E+01 0.  0.
     999903    2    3    3    0    0 -0.17011199127E-01 -0.18100889906E-01 -0.12934986710E+00  0.13297724253E+00  0.18290319913E-01 0.  0.
         14    1    1    2    0    0 -0.65072266384E-03 -0.10126059947E-01  0.21460804879E-01  0.23738716816E-01  0.00000000000E+00 0. -1.
     999901    1    3    3    0    0  0.17661921790E-01  0.28226949852E-01  0.10788906222E+00  0.88721404065E+00  0.88000000000E+00 0. -1.
        -11    1    4    4    0    0 -0.51031425803E-02 -0.11828274521E-01 -0.29117658418E-01  0.31844140671E-01  0.51100000000E-03 0. -1.
         11    1    4    4    0    0 -0.11908056546E-01 -0.62726153847E-02 -0.10023220868E+00  0.10113310186E+00  0.51100000000E-03 0.  1.
</event>
<event>
 8    1  0.1079508E+005  0.1043930E+01  0.7957747E-01            NaN
         13   -1    0    0    0    0  0.00000000000E+00  0.00000000000E+00  0.74505805969E-08  0.10566000000E+00  0.10566000000E+00 0.  1.
     999900   -1    0    0    0    0 -0.00000000000E+00 -0.00000000000E+00 -0.74505805969E-08  0.93827000000E+00  0.93827000000E+00 0. -1.
     999902    2    1    2    0    0  0.10400633131E-01  0.35054651428E-02 -0.20648298557E-01  0.10205459523E+01  0.10202780146E+01 0.  0.
     999903    2    3    3    0    0  0.19571060002E-01 -0.11894417389E+00 -0.48679288514E-01  0.13157815350E+00  0.20307497556E-01 0.  0.
         14    1    1    2    0    0 -0.10400633131E-01 -0.35054651428E-02  0.20648298557E-01  0.23384047739E-01  0.00000000000E+00 0.  1.
     999901    1    3    3    0    0 -0.91704268709E-02  0.12244963903E+00  0.28030989957E-01  0.88896779876E+00  0.88000000000E+00 0.  1.
        -11    1    4    4    0    0  0.10179508368E-01 -0.70326764039E-01 -0.39212479902E-01  0.81162527264E-01  0.51100000000E-03 0. -1.
         11    1    4    4    0    0  0.93915516337E-02 -0.48617409853E-01 -0.94668086113E-02  0.50415626240E-01  0.51100000000E-03 0.  1.
</event>
<event>
 8    1  0.1079508E+005  0.1043930E+01  0.7957747E-01            NaN
         13   -1    0    0    0    0  0.00000000000E+00  0.00000000000E+00  0.74505805969E-08  0.10566000000E+00  0.10566000000E+00 0. -1.
     999900   -1    0    0    0    0 -0.00000000000E+00 -0.00000000000E+00 -0.74505805969E-08  0.93827000000E+00  0.93827000000E+00 0.  1.
     999902    2    1    2    0    0  0.17198958582E-01 -0.32238239052E-03 -0.15832104315E-01  0.10205512996E+01  0.10202834858E+01 0.  0.
     999903    2    3    3    0    0 -0.27404992024E-01  0.11419920240E+00  0.50555196312E-01  0.12953391507E+00  0.20753695195E-01 0.  0.
         14    1    1    2    0    0 -0.17198958582E-01  0.32238239052E-03  0.15832104315E-01  0.23378700429E-01  0.00000000000E+00 0. -1.
     999901    1    3    3    0    0  0.44603950606E-01 -0.11452158479E+00 -0.66387300627E-01  0.89101738450E+00  0.88000000000E+00 0.  1.
        -11    1    4    4    0    0 -0.24670951348E-01  0.58493632769E-01  0.26721024587E-01  0.68879860561E-01  0.51100000000E-03 0. -1.
         11    1    4    4    0    0 -0.27340406758E-02  0.55705569628E-01  0.23834171725E-01  0.60654054513E-01  0.51100000000E-03 0.  1.
</event>
<event>
 8    1  0.1079508E+005  0.1043930E+01  0.7957747E-01            NaN
         13   -1    0    0    0    0  0.00000000000E+00  0.00000000000E+00  0.74505805969E-08  0.10566000000E+00  0.10566000000E+00 0. -1.
     999900   -1    0    0    0    0 -0.00000000000E+00 -0.00000000000E+00 -0.74505805969E-08  0.93827000000E+00  0.93827000000E+00 0. -1.
     999902    2    1    2    0    0 -0.46769850718E-05 -0.22733947970E-01 -0.11824442061E-01  0.10183048202E+01  0.10179823461E+01 0.  0.
     999903    2    3    3    0    0  0.99486106104E-01  0.59480963188E-01  0.47195312514E-01  0.12693450487E+00  0.21201431882E-01 0.  0.
         14    1    1    2    0    0  0.46769850719E-05  0.22733947970E-01  0.11824442061E-01  0.25625179848E-01  0.00000000000E+00 0. -1.
     999901    1    3    3    0    0 -0.99490783089E-01 -0.82214911158E-01 -0.59019754574E-01  0.89137031528E+00  0.88000000000E+00 0. -1.
        -11    1    4    4    0    0  0.29826400724E-01  0.27011648080E-01  0.23036041727E-01  0.46369857145E-01  0.51100000000E-03 0. -1.
         11    1    4    4    0    0  0.69659705380E-01  0.32469315108E-01  0.24159270786E-01  0.80564647725E-01  0.51100000000E-03 0.  1.
</event>
<event>
 8    1  0.1079508E+005  0.1043930E+01  0.7957747E-01            NaN
         13   -1    0    0    0    0  0.00000000000E+00  0.00000000000E+00  0.74505805969E-08  0.10566000000E+00  0.10566000000E+00 0. -1.
     999900   -1    0    0    0    0 -0.00000000000E+00 -0.00000000000E+00 -0.74505805969E-08  0.93827000000E+00  0.93827000000E+00 0. -1.
     999902    2    1    2    0    0 -0.21246040757E-01  0.60985434471E-02  0.77493074147E-02  0.10205069719E+01  0.10202381298E+01 0.  0.
     999903    2    3    3    0    0 -0.12947358797E+00 -0.89987982225E-02  0.25382397634E-01  0.13357289454E+00  0.18789989270E-01 0.  0.
         14    1    1    2    0    0  0.21246040757E-01 -0.60985434471E-02 -0.77493074147E-02  0.23423028102E-01  0.00000000000E+00 0.  1.
     999901    1    3    3    0    0  0.10822754721E+00  0.15097341670E-01 -0.17633090220E-01  0.88693407735E+00  0.88000000000E+00 0. -1.
        -11    1    4    4    0    0 -0.28418667969E-01  0.44030499167E-02  0.11183916197E-02  0.28784013940E-01  0.51100000000E-03 0. -1.
         11    1    4    4    0    0 -0.10105492000E+00 -0.13401848139E-01  0.24264006015E-01  0.10478888060E+00  0.51100000000E-03 0.  1.
</event>
<event>
 8    1  0.1079508E+005  0.1043930E+01  0.7957747E-01            NaN
         13   -1    0    0    0    0  0.00000000000E+00  0.00000000000E+00  0.74505805969E-08  0.10566000000E+00  0.10566000000E+00 0. -1.
     999900   -1    0    0    0    0 -0.00000000000E+00 -0.00000000000E+00 -0.74505805969E-08  0.93827000000E+00  0.93827000000E+00 0. -1.
     999902    2    1    2    0    0 -0.14669345854E-01  0.15942175293E-01 -0.46982093507E-02  0.10217620991E+01  0.10215215961E+01 0.  0.
     999903    2    3    3    0    0  0.57633681714E-01 -0.33333003453E-01 -0.11101772235E+00  0.13105473417E+00  0.20437179005E-01 0.  0.
         14    1    1    2    0    0  0.14669345854E-01 -0.15942175293E-01  0.46982093507E-02  0.22167900937E-01  0.00000000000E+00 0. -1.
     999901    1    3    3    0    0 -0.72303027569E-01  0.49275178745E-01  0.10631951299E+00  0.89070736490E+00  0.88000000000E+00 0.  1.
        -11    1    4    4    0    0  0.49273507847E-01 -0.20156250807E-01 -0.76863235105E-01  0.93500647345E-01  0.51100000000E-03 0. -1.
         11    1    4    4    0    0  0.83601738677E-02 -0.13176752645E-01 -0.34154487240E-01  0.37554086822E-01  0.51100000000E-03 0.  1.
</event>
<event>
 8    1  0.1079508E+005  0.1043930E+01  0.7957747E-01            NaN
         13   -1    0    0    0    0  0.00000000000E+00  0.00000000000E+00  0.74505805969E-08  0.10566000000E+00  0.10566000000E+00 0.  1.
     999900   -1    0    0    0    0 -0.00000000000E+00 -0.00000000000E+00 -0.74505805969E-08  0.93827000000E+00  0.93827000000E+00 0. -1.
     999902    2    1    2    0    0  0.16690154766E-02 -0.20316781648E-01 -0.10941599849E-01  0.10207939710E+01  0.10205317513E+01 0.  0.
     999903    2    3    3    0    0 -0.85975752683E-01  0.77418275639E-02  0.93599577618E-01  0.12984069014E+00  0.25415702697E-01 0.  0.
         14    1    1    2    0    0 -0.16690154766E-02  0.20316781648E-01  0.10941599849E-01  0.23136028969E-01  0.00000000000E+00 0.  1.
     999901    1    3    3    0    0  0.87644768159E-01 -0.28058609212E-01 -0.10454117747E+00  0.89095328089E+00  0.88000000000E+00 0. -1.
        -11    1    4    4    0    0 -0.15030815592E-01  0.71450537435E-02  0.31156058755E-01  0.35326170590E-01  0.51100000000E-03 0.  1.
         11    1    4    4    0    0 -0.70944937090E-01  0.59677382036E-03  0.62443518862E-01  0.94514519555E-01  0.51100000000E-03 0. -1.
</event>
<event>
 8    1  0.1079508E+005  0.1043930E+01  0.7957747E-01            NaN
         13   -1    0    0    0    0  0.00000000000E+00  0.00000000000E+00  0.74505805969E-08  0.10566000000E+00  0.10566000000E+00 0. -1.
     999900   -1    0    0    0    0 -0.00000000000E+00 -0.00000000000E+00 -0.74505805969E-08  0.93827000000E+00  0.93827000000E+00 0.  1.
     999902    2    1    2    0    0  0.73535410708E-02 -0.22212688534E-01 -0.11105112926E-02  0.10205054118E+01  0.10202365334E+01 0.  0.
     999903    2    3    3    0    0 -0.85947696873E-01  0.45840001367E-01 -0.81517350669E-01  0.12932554810E+00  0.24325020196E-01 0.  0.
         14    1    1    2    0    0 -0.73535410708E-02  0.22212688534E-01  0.11105112926E-02  0.23424588226E-01  0.00000000000E+00 0. -1.
     999901    1    3    3    0    0  0.93301237944E-01 -0.68052689901E-01  0.80406839377E-01  0.89117986368E+00  0.88000000000E+00 0.  1.
        -11    1    4    4    0    0 -0.37769720545E-01  0.11516278475E-01 -0.44711784442E-01  0.59653845215E-01  0.51100000000E-03 0.  1.
         11    1    4    4    0    0 -0.48177976328E-01  0.34323722892E-01 -0.36805566227E-01  0.69671702883E-01  0.51100000000E-03 0. -1.
</event>
<event>
 8    1  0.1079508E+005  0.1043930E+01  0.7957747E-01            NaN
         13   -1    0    0    0    0  0.00000000000E+00  0.00000000000E+00  0.74505805969E-08  0.10566000000E+00  0.10566000000E+00 0. -1.
     999900   -1    0    0    0    0 -0.00000000000E+00 -0.00000000000E+00 -0.74505805969E-08  0.93827000000E+00  0.93827000000E+00 0.  1.
     999902    2    1    2    0    0 -0.10487174164E-01 -0.21636404551E-01 -0.29987354330E-02  0.10196997041E+01  0.10194117811E+01 0.  0.
     999903    2    3    3    0    0 -0.94483955590E-01  0.85628237637E-01 -0.74847695011E-02  0.12920473657E+00  0.19453257609E-01 0.  0.
         14    1    1    2    0    0  0.10487174164E-01  0.21636404551E-01  0.29987354330E-02  0.24230295872E-01  0.00000000000E+00 0. -1.
     999901    1    3    3    0    0  0.83996781427E-01 -0.10726464219E+00  0.44860340680E-02  0.89049496756E+00  0.88000000000E+00 0.  1.
        -11    1    4    4    0    0 -0.85094458779E-01  0.69051562390E-01 -0.97111958463E-02  0.11001706063E+00  0.51100000000E-03 0.  1.
         11    1    4    4    0    0 -0.93894968113E-02  0.16576675247E-01  0.22264263452E-02  0.19187675938E-01  0.51100000000E-03 0. -1.
</event>
<event>
 8    1  0.1079508E+005  0.1043930E+01  0.7957747E-01            NaN
         13   -1    0    0    0    0  0.00000000000E+00  0.00000000000E+00  0.74505805969E-08  0.10566000000E+00  0.10566000000E+00 0.  1.
     999900   -1    0    0    0    0 -0.00000000000E+00 -0.00000000000E+00 -0.74505805969E-08  0.93827000000E+00  0.93827000000E+00 0. -1.
     999902    2    1    2    0    0 -0.95487649295E-02 -0.35459185680E-02  0.22598575203E-01  0.10191419373E+01  0.10188404391E+01 0.  0.
     999903    2    3    3    0    0  0.82913277073E-01 -0.93608585468E-02 -0.93298165845E-01  0.12672101795E+00  0.19784626693E-01 0.  0.
         14    1    1    2    0    0  0.95487649295E-02  0.35459185680E-02 -0.22598575203E-01  0.24788062679E-01  0.00000000000E+00 0. -1.
     999901    1    3    3    0    0 -0.92462042002E-01  0.58149399787E-02  0.11589674105E+00  0.89242091937E+00  0.88000000000E+00 0.  1.
        -11    1    4    4    0    0  0.16111874011E-01 -0.98026146873E-02 -0.22896032751E-01  0.29667712679E-01  0.51100000000E-03 0. -1.
         11    1    4    4    0    0  0.66801403062E-01  0.44175614052E-03 -0.70402133095E-01  0.97053305275E-01  0.51100000000E-03 0.  1.
</event>
<event>
 7    1  0.1079508E+005  0.1043930E+01  0.7957747E-01            NaN
         13   -1    0    0    0    0  0.00000000000E+00  0.00000000000E+00  0.74505805969E-08  0.10566000000E+00  0.10566000000E+00 0.  1.
     999900   -1    0    0    0    0 -0.00000000000E+00 -0.00000000000E+00 -0.74505805969E-08  0.93827000000E+00  0.93827000000E+00 0.  1.
     999902    2    1    2    0    0  0.99613511433E-02  0.10717501090E-02  0.21735893308E-01  0.10199962117E+01  0.10197153748E+01 0.  0.
         14    1    1    2    0    0 -0.99613511433E-02 -0.10717501090E-02 -0.21735893308E-01  0.23933788309E-01  0.00000000000E+00 0. -1.
     999901    1    3    3    0    0 -0.11006617900E+00  0.14540785254E-01  0.52256352294E-01  0.88851377285E+00  0.88000000000E+00 0.  1.
        -11    1    3    3    0    0  0.92304514069E-01  0.73847111596E-02 -0.27788902467E-01  0.96680615936E-01  0.51100000000E-03 0. -1.
         11    1    3    3    0    0  0.27723016076E-01 -0.20853746305E-01 -0.27315565186E-02  0.34801822902E-01  0.51100000000E-03 0.  1.
</event>
<event>
 8    1  0.1079508E+005  0.1043930E+01  0.7957747E-01            NaN
         13   -1    0    0    0    0  0.00000000000E+00  0.00000000000E+00  0.74505805969E-08  0.10566000000E+00  0.10566000000E+00 0.  1.
     999900   -1    0    0    0    0 -0.00000000000E+00 -0.00000000000E+00 -0.74505805969E-08  0.93827000000E+00  0.93827000000E+00 0. -1.
     999902    2    1    2    0    0 -0.18981561952E-01  0.47822738040E-02  0.23614710237E-01  0.10132571394E+01  0.10127927755E+01 0.  0.
     999903    2    3    3    0    0  0.56065513699E-01 -0.85499771697E-01 -0.63548772562E-01  0.12119190411E+00  0.13981356922E-01 0.  0.
         14    1    1    2    0    0  0.18981561952E-01 -0.47822738040E-02 -0.23614710237E-01  0.30672860585E-01  0.00000000000E+00 0. -1.
     999901    1    3    3    0    0 -0.75047075651E-01  0.90282045501E-01  0.87163482799E-01  0.89206523530E+00  0.88000000000E+00 0.  1.
        -11    1    4    4    0    0  0.12061990293E-01 -0.26227528017E-01 -0.23357530409E-01  0.37137719148E-01  0.51100000000E-03 0.  1.
         11    1    4    4    0    0  0.44003523406E-01 -0.59272243680E-01 -0.40191242153E-01  0.84054184963E-01  0.51100000000E-03 0. -1.
</event>
<event>
 8    1  0.1079508E+005  0.1043930E+01  0.7957747E-01            NaN
         13   -1    0    0    0    0  0.00000000000E+00  0.00000000000E+00  0.74505805969E-08  0.10566000000E+00  0.10566000000E+00 0.  1.
     999900   -1    0    0    0    0 -0.00000000000E+00 -0.00000000000E+00 -0.74505805969E-08  0.93827000000E+00  0.93827000000E+00 0.  1.
     999902    2    1    2    0    0 -0.89442636835E-02 -0.70462222806E-02 -0.20725628834E-01  0.10202825733E+01  0.10200084943E+01 0.  0.
     999903    2    3    3    0    0  0.73041490224E-01 -0.74077368217E-01 -0.78992842652E-01  0.13202027721E+00  0.19156425220E-01 0.  0.
         14    1    1    2    0    0  0.89442636835E-02  0.70462222806E-02  0.20725628834E-01  0.23647426749E-01  0.00000000000E+00 0.  1.
     999901    1    3    3    0    0 -0.81985753907E-01  0.67031145937E-01  0.58267213818E-01  0.88826229605E+00  0.88000000000E+00 0.  1.
        -11    1    4    4    0    0  0.50711573854E-01 -0.57130606681E-01 -0.66672841649E-01  0.10139575374E+00  0.51100000000E-03 0. -1.
         11    1    4    4    0    0  0.22329916370E-01 -0.16946761536E-01 -0.12320001003E-01  0.30624523464E-01  0.51100000000E-03 0.  1.
</event>
<event>
 8    1  0.1079508E+005  0.1043930E+01  0.7957747E-01            NaN
         13   -1    0    0    0    0  0.00000000000E+00  0.00000000000E+00  0.74505805969E-08  0.10566000000E+00  0.10566000000E+00 0. -1.
     999900   -1    0    0    0    0 -0.00000000000E+00 -0.00000000000E+00 -0.74505805969E-08  0.93827000000E+00  0.93827000000E+00 0.  1.
     999902    2    1    2    0    0  0.34257158275E-01 -0.10057363355E-01 -0.11053543470E-01  0.10065550850E+01  0.10058609520E+01 0.  0.
     999903    2    3    3    0    0  0.10690101698E+00 -0.49533393198E-01  0.24751219294E-01  0.12195491077E+00  0.19467740794E-01 0.  0.
         14    1    1    2    0    0 -0.34257158275E-01  0.10057363355E-01  0.11053543470E-01  0.37374915036E-01  0.00000000000E+00 0.  1.
     999901    1    3    3    0    0 -0.72643858708E-01  0.39476029843E-01 -0.35804762764E-01  0.88460017419E+00  0.88000000000E+00 0.  1.
        -11    1    4    4    0    0  0.78350309667E-01 -0.41401413370E-01  0.11216356566E-01  0.89324777243E-01  0.51100000000E-03 0. -1.
         11    1    4    4    0    0  0.28550707316E-01 -0.81319798286E-02  0.13534862728E-01  0.32630133531E-01  0.51100000000E-03 0.  1.
</event>
<event>
 7    1  0.1079508E+005  0.1043930E+01  0.7957747E-01            NaN
         13   -1    0    0    0    0  0.00000000000E+00  0.00000000000E+00  0.74505805969E-08  0.10566000000E+00  0.10566000000E+00 0.  1.
     999900   -1    0    0    0    0 -0.00000000000E+00 -0.00000000000E+00 -0.74505805969E-08  0.93827000000E+00  0.93827000000E+00 0. -1.
     999903    2    1    2    0    0  0.46703817147E-01 -0.16203631251E-01  0.83532433793E-01  0.99031233077E-01  0.19639588272E-01 0.  0.
         14    1    1    2    0    0  0.45819808167E-01 -0.64401668842E-02  0.25889433598E-01  0.53020687868E-01  0.00000000000E+00 0.  1.
     999901    1    1    2    0    0 -0.92523625314E-01  0.22643798135E-01 -0.10942186739E+00  0.89187807905E+00  0.88000000000E+00 0. -1.
        -11    1    3    3    0    0  0.47792384566E-01 -0.14067282765E-01  0.74148197335E-01  0.89332058948E-01  0.51100000000E-03 0. -1.
         11    1    3    3    0    0 -0.10885674185E-02 -0.21363484866E-02  0.93842364582E-02  0.96991741290E-02  0.51100000000E-03 0.  1.
</event>
<event>
 8    1  0.1079508E+005  0.1043930E+01  0.7957747E-01            NaN
         13   -1    0    0    0    0  0.00000000000E+00  0.00000000000E+00  0.74505805969E-08  0.10566000000E+00  0.10566000000E+00 0. -1.
     999900   -1    0    0    0    0 -0.00000000000E+00 -0.00000000000E+00 -0.74505805969E-08  0.93827000000E+00  0.93827000000E+00 0. -1.
     999902    2    1    2    0    0  0.17011845880E-01 -0.33836821266E-02  0.16199166662E-01  0.10201967911E+01  0.10199206966E+01 0.  0.
     999903    2    3    3    0    0  0.11445957376E+00 -0.57895410031E-01 -0.24460720909E-01  0.13220984602E+00  0.20694056875E-01 0.  0.
         14    1    1    2    0    0 -0.17011845880E-01  0.33836821266E-02 -0.16199166662E-01  0.23733208918E-01  0.00000000000E+00 0.  1.
     999901    1    3    3    0    0 -0.97447727875E-01  0.54511727905E-01  0.40659887571E-01  0.88798694506E+00  0.88000000000E+00 0.  1.
        -11    1    4    4    0    0  0.64296759000E-01 -0.21386677804E-01 -0.15618790058E-01  0.69538988555E-01  0.51100000000E-03 0.  1.
         11    1    4    4    0    0  0.50162814755E-01 -0.36508732228E-01 -0.88419308508E-02  0.62670857464E-01  0.51100000000E-03 0. -1.
</event>
<event>
 8    1  0.1079508E+005  0.1043930E+01  0.7957747E-01            NaN
         13   -1    0    0    0    0  0.00000000000E+00  0.00000000000E+00  0.74505805969E-08  0.10566000000E+00  0.10566000000E+00 0. -1.
     999900   -1    0    0    0    0 -0.00000000000E+00 -0.00000000000E+00 -0.74505805969E-08  0.93827000000E+00  0.93827000000E+00 0. -1.
     999902    2    1    2    0    0 -0.13796493445E-01 -0.73900651316E-02 -0.16393520148E-01  0.10212649653E+01  0.10210134307E+01 0.  0.
     999903    2    3    3    0    0 -0.11402543847E+00  0.60233453785E-01  0.21063463753E-01  0.13220827007E+00  0.20136722559E-01 0.  0.
         14    1    1    2    0    0  0.13796493445E-01  0.73900651316E-02  0.16393520148E-01  0.22665034676E-01  0.00000000000E+00 0. -1.
     999901    1    3    3    0    0  0.10022894503E+00 -0.67623518916E-01 -0.37456983901E-01  0.88905669525E+00  0.88000000000E+00 0. -1.
        -11    1    4    4    0    0 -0.49065693091E-01  0.34333974373E-01  0.29201581577E-02  0.59958756487E-01  0.51100000000E-03 0.  1.
         11    1    4    4    0    0 -0.64959745384E-01  0.25899479412E-01  0.18143305595E-01  0.72249513584E-01  0.51100000000E-03 0. -1.
</event>
<event>
 8    1  0.1079508E+005  0.1043930E+01  0.7957747E-01            NaN
         13   -1    0    0    0    0  0.00000000000E+00  0.00000000000E+00  0.74505805969E-08  0.10566000000E+00  0.10566000000E+00 0.  1.
     999900   -1    0    0    0    0 -0.00000000000E+00 -0.00000000000E+00 -0.74505805969E-08  0.93827000000E+00  0.93827000000E+00 0. -1.
     999902    2    1    2    0    0 -0.19252562453E-01 -0.10307031135E-01 -0.90681549388E-02  0.10202841233E+01  0.10200100807E+01 0.  0.
     999903    2    3    3    0    0 -0.87810084005E-01 -0.54511218263E-01  0.79774447022E-01  0.13205715238E+00  0.19825370774E-01 0.  0.
         14    1    1    2    0    0  0.19252562453E-01  0.10307031135E-01  0.90681549388E-02  0.23645876719E-01  0.00000000000E+00 0. -1.
     999901    1    3    3    0    0  0.68557521553E-01  0.44204187128E-01 -0.88842601961E-01  0.88822697091E+00  0.88000000000E+00 0. -1.
        -11    1    4    4    0    0 -0.49123215020E-01 -0.22373973688E-01  0.50168159370E-01  0.73693895867E-01  0.51100000000E-03 0. -1.
         11    1    4    4    0    0 -0.38686868985E-01 -0.32137244574E-01  0.29606287653E-01  0.58363256509E-01  0.51100000000E-03 0.  1.
</event>
<event>
 8    1  0.1079508E+005  0.1043930E+01  0.7957747E-01            NaN
         13   -1    0    0    0    0  0.00000000000E+00  0.00000000000E+00  0.74505805969E-08  0.10566000000E+00  0.10566000000E+00 0. -1.
     999900   -1    0    0    0    0 -0.00000000000E+00 -0.00000000000E+00 -0.74505805969E-08  0.93827000000E+00  0.93827000000E+00 0.  1.
     999902    2    1    2    0    0 -0.97173377450E-02  0.21409536346E-01  0.48411935877E-03  0.10204134256E+01  0.10201424067E+01 0.  0.
     999903    2    3    3    0    0  0.18308346727E-01  0.32857140975E-01 -0.12399298131E+00  0.13113785795E+00  0.20201264889E-01 0.  0.
         14    1    1    2    0    0  0.97173377450E-02 -0.21409536346E-01 -0.48411935877E-03  0.23516574388E-01  0.00000000000E+00 0. -1.
     999901    1    3    3    0    0 -0.28025684472E-01 -0.11447604629E-01  0.12447710066E+00  0.88927556766E+00  0.88000000000E+00 0. -1.
        -11    1    4    4    0    0  0.22701996249E-01  0.25943596210E-01 -0.10125352780E+00  0.10696255808E+00  0.51100000000E-03 0.  1.
         11    1    4    4    0    0 -0.43936495223E-02  0.69135447651E-02 -0.22739453505E-01  0.24175299875E-01  0.51100000000E-03 0. -1.
</event>
<event>
 8    1  0.1079508E+005  0.1043930E+01  0.7957747E-01            NaN
         13   -1    0    0    0    0  0.00000000000E+00  0.00000000000E+00  0.74505805969E-08  0.10566000000E+00  0.10566000000E+00 0. -1.
     999900   -1    0    0    0    0 -0.00000000000E+00 -0.00000000000E+00 -0.74505805969E-08  0.93827000000E+00  0.93827000000E+00 0. -1.
     999902    2    1    2    0    0 -0.93004556808E-02  0.39930224788E-03 -0.21590465466E-01  0.10204181707E+01  0.10201472624E+01 0.  0.
     999903    2    3    3    0    0 -0.44199567831E-01  0.30171488620E-01 -0.12075961550E+00  0.13366067768E+00  0.20454131582E-01 0.  0.
         14    1    1    2    0    0  0.93004556808E-02 -0.39930224788E-03  0.21590465466E-01  0.23511829304E-01  0.00000000000E+00 0. -1.
     999901    1    3    3    0    0  0.34899112151E-01 -0.29772186373E-01  0.99169150034E-01  0.88675749302E+00  0.88000000000E+00 0.  1.
        -11    1    4    4    0    0 -0.37486602840E-01  0.15212294023E-01 -0.92942476839E-01  0.10136678156E+00  0.51100000000E-03 0.  1.
         11    1    4    4    0    0 -0.67129649913E-02  0.14959194598E-01 -0.27817138662E-01  0.32293896115E-01  0.51100000000E-03 0. -1.
</event>
<event>
 8    1  0.1079508E+005  0.1043930E+01  0.7957747E-01            NaN
         13   -1    0    0    0    0  0.00000000000E+00  0.00000000000E+00  0.74505805969E-08  0.10566000000E+00  0.10566000000E+00 0. -1.
     999900   -1    0    0    0    0 -0.00000000000E+00 -0.00000000000E+00 -0.74505805969E-08  0.93827000000E+00  0.93827000000E+00 0. -1.
     999902    2    1    2    0    0  0.96361808377E-02 -0.21623495039E-01 -0.43686548015E-03  0.10202525345E+01  0.10199777507E+01 0.  0.
     999903    2    3    3    0    0  0.32822867580E-02 -0.71229425007E-01 -0.10966635758E+00  0.13209027336E+00  0.18350093644E-01 0.  0.
         14    1    1    2    0    0 -0.96361808377E-02  0.21623495039E-01  0.43686548015E-03  0.23677465453E-01  0.00000000000E+00 0.  1.
     999901    1    3    3    0    0  0.63538940797E-02  0.49605929967E-01  0.10922949210E+00  0.88816226119E+00  0.88000000000E+00 0.  1.
        -11    1    4    4    0    0 -0.66021882522E-02 -0.26850946449E-01 -0.49143621007E-01  0.56390768940E-01  0.51100000000E-03 0. -1.
         11    1    4    4    0    0  0.98844750102E-02 -0.44378478557E-01 -0.60522736576E-01  0.75699504416E-01  0.51100000000E-03 0.  1.
</event>
<event>
 8    1  0.1079508E+005  0.1043930E+01  0.7957747E-01            NaN
         13   -1    0    0    0    0  0.00000000000E+00  0.00000000000E+00  0.74505805969E-08  0.10566000000E+00  0.10566000000E+00 0.  1.
     999900   -1    0    0    0    0 -0.00000000000E+00 -0.00000000000E+00 -0.74505805969E-08  0.93827000000E+00  0.93827000000E+00 0. -1.
     999902    2    1    2    0    0 -0.13613872937E-01  0.40328949451E-02  0.19944731618E-01  0.10194474736E+01  0.10191534514E+01 0.  0.
     999903    2    3    3    0    0 -0.12474876055E+00 -0.17240152620E-01  0.34482367028E-01  0.13208348482E+00  0.19938335067E-01 0.  0.
         14    1    1    2    0    0  0.13613872937E-01 -0.40328949451E-02 -0.19944731618E-01  0.24482526367E-01  0.00000000000E+00 0. -1.
     999901    1    3    3    0    0  0.11113488761E+00  0.21273047565E-01 -0.14537635410E-01  0.88736398881E+00  0.88000000000E+00 0. -1.
        -11    1    4    4    0    0 -0.76625191693E-01 -0.10949301113E-01  0.11058801819E-01  0.78191210602E-01  0.51100000000E-03 0.  1.
         11    1    4    4    0    0 -0.48123568858E-01 -0.62908515071E-02  0.23423565209E-01  0.53892274219E-01  0.51100000000E-03 0. -1.
</event>
<event>
 8    1  0.1079508E+005  0.1043930E+01  0.7957747E-01            NaN
         13   -1    0    0    0    0  0.00000000000E+00  0.00000000000E+00  0.74505805969E-08  0.10566000000E+00  0.10566000000E+00 0.  1.
     999900   -1    0    0    0    0 -0.00000000000E+00 -0.00000000000E+00 -0.74505805969E-08  0.93827000000E+00  0.93827000000E+00 0.  1.
     999902    2    1    2    0    0  0.41450634471E-02 -0.26609536796E-01  0.26038366414E-02  0.10168739662E+01  0.10165139616E+01 0.  0.
     999903    2    3    3    0    0  0.66067030902E-01 -0.10599580171E+00  0.32716068855E-01  0.13062160054E+00  0.19791382349E-01 0.  0.
         14    1    1    2    0    0 -0.41450634471E-02  0.26609536796E-01 -0.26038366414E-02  0.27056033795E-01  0.00000000000E+00 0.  1.
     999901    1    3    3    0    0 -0.61921967455E-01  0.79386264913E-01 -0.30112232214E-01  0.88625236566E+00  0.88000000000E+00 0. -1.
        -11    1    4    4    0    0  0.11121055395E-01 -0.28866164838E-01  0.14569910826E-01  0.34197613484E-01  0.51100000000E-03 0. -1.
         11    1    4    4    0    0  0.54945975507E-01 -0.77129636871E-01  0.18146158029E-01  0.96423987060E-01  0.51100000000E-03 0.  1.
</event>
<event>
 8    1  0.1079508E+005  0.1043930E+01  0.7957747E-01            NaN
         13   -1    0    0    0    0  0.00000000000E+00  0.00000000000E+00  0.74505805969E-08  0.10566000000E+00  0.10566000000E+00 0.  1.
     999900   -1    0    0    0    0 -0.00000000000E+00 -0.00000000000E+00 -0.74505805969E-08  0.93827000000E+00  0.93827000000E+00 0.  1.
     999902    2    1    2    0    0 -0.22851687099E-01 -0.51961550826E-02 -0.85713555695E-04  0.10204948346E+01  0.10202257105E+01 0.  0.
     999903    2    3    3    0    0  0.99645167571E-01  0.50848543852E-01  0.59468249002E-01  0.12825430528E+00  0.19948943644E-01 0.  0.
         14    1    1    2    0    0  0.22851687099E-01  0.51961550826E-02  0.85713555695E-04  0.23435165408E-01  0.00000000000E+00 0.  1.
     999901    1    3    3    0    0 -0.12249685467E+00 -0.56044698935E-01 -0.59553962557E-01  0.89224052931E+00  0.88000000000E+00 0.  1.
        -11    1    4    4    0    0  0.75928295793E-01  0.40831617612E-01  0.54599589418E-01  0.10204755452E+00  0.51100000000E-03 0.  1.
         11    1    4    4    0    0  0.23716871778E-01  0.10016926240E-01  0.48686595834E-02  0.26206750759E-01  0.51100000000E-03 0. -1.
</event>
<event>
 8    1  0.1079508E+005  0.1043930E+01  0.7957747E-01            NaN
         13   -1    0    0    0    0  0.00000000000E+00  0.00000000000E+00  0.74505805969E-08  0.10566000000E+00  0.10566000000E+00 0. -1.
     999900   -1    0    0    0    0 -0.00000000000E+00 -0.00000000000E+00 -0.74505805969E-08  0.93827000000E+00  0.93827000000E+00 0.  1.
     999902    2    1    2    0    0 -0.10109677588E-01 -0.18138528659E-01 -0.14107633073E-01  0.10188254762E+01  0.10185161334E+01 0.  0.
     999903    2    3    3    0    0  0.11430085590E+00  0.24191784329E-01  0.45305651367E-01  0.12708573022E+00  0.21171978931E-01 0.  0.
         14    1    1    2    0    0  0.10109677588E-01  0.18138528659E-01  0.14107633073E-01  0.25104523771E-01  0.00000000000E+00 0. -1.
     999901    1    3    3    0    0 -0.12441053349E+00 -0.42330312988E-01 -0.59413284440E-01  0.89173974601E+00  0.88000000000E+00 0.  1.
        -11    1    4    4    0    0  0.48267142976E-01  0.14539355384E-01  0.29833722781E-01  0.58578341407E-01  0.51100000000E-03 0. -1.
         11    1    4    4    0    0  0.66033712924E-01  0.96524289452E-02  0.15471928585E-01  0.68507388815E-01  0.51100000000E-03 0.  1.
</event>
<event>
 8    1  0.1100707E+005  0.1043930E+01  0.7957747E-01            NaN
         13   -1    0    0    0    0  0.00000000000E+00  0.00000000000E+00  0.74505805969E-08  0.10566000000E+00  0.10566000000E+00 0. -1.
     999900   -1    0    0    0    0 -0.00000000000E+00 -0.00000000000E+00 -0.74505805969E-08  0.93827000000E+00  0.93827000000E+00 0. -1.
     999902    2    1    2    0    0  0.57561682092E-02  0.24091163493E-01  0.81513026664E-02  0.10178539312E+01  0.10175198592E+01 0.  0.
     999903    2    3    3    0    0  0.94371300149E-01 -0.41568492997E-01 -0.71870736513E-01  0.12736678423E+00  0.20567281199E-01 0.  0.
         14    1    1    2    0    0 -0.57561682092E-02 -0.24091163493E-01 -0.81513026664E-02  0.26076068838E-01  0.00000000000E+00 0.  1.
     999901    1    3    3    0    0 -0.88615131940E-01  0.65659656490E-01  0.80022039179E-01  0.89048714693E+00  0.88000000000E+00 0.  1.
        -11    1    4    4    0    0  0.45054433193E-01 -0.88712719215E-02 -0.33466134918E-01  0.56822924275E-01  0.51100000000E-03 0.  1.
         11    1    4    4    0    0  0.49316866956E-01 -0.32697221076E-01 -0.38404601595E-01  0.70543859953E-01  0.51100000000E-03 0. -1.
</event>
<event>
 7    1  0.1215847E+005  0.1043930E+01  0.7957747E-01            NaN
         13   -1    0    0    0    0  0.00000000000E+00  0.00000000000E+00  0.74505805969E-08  0.10566000000E+00  0.10566000000E+00 0. -1.
     999900   -1    0    0    0    0 -0.00000000000E+00 -0.00000000000E+00 -0.74505805969E-08  0.93827000000E+00  0.93827000000E+00 0. -1.
     999903    2    1    2    0    0 -0.48146605526E-01  0.66522736793E-02  0.90768031431E-01  0.10480856699E+00  0.19587031823E-01 0.  0.
         14    1    1    2    0    0  0.21105698926E-01 -0.13979373392E-01  0.41683308025E-01  0.48768551091E-01  0.00000000000E+00 0. -1.
     999901    1    1    2    0    0  0.27040906600E-01  0.73270997123E-02 -0.13245133946E+00  0.89035288192E+00  0.88000000000E+00 0. -1.
        -11    1    3    3    0    0 -0.23921226565E-01 -0.58118226457E-02  0.50566854996E-01  0.56242957853E-01  0.51100000000E-03 0.  1.
         11    1    3    3    0    0 -0.24225378962E-01  0.12464096325E-01  0.40201176435E-01  0.48565609136E-01  0.51100000000E-03 0. -1.
</event>
<event>
 8    1  0.1079508E+005  0.1043930E+01  0.7957747E-01            NaN
         13   -1    0    0    0    0  0.00000000000E+00  0.00000000000E+00  0.74505805969E-08  0.10566000000E+00  0.10566000000E+00 0.  1.
     999900   -1    0    0    0    0 -0.00000000000E+00 -0.00000000000E+00 -0.74505805969E-08  0.93827000000E+00  0.93827000000E+00 0.  1.
     999902    2    1    2    0    0  0.15353544599E-01 -0.13542010716E-01  0.10720097991E-01  0.10208207402E+01  0.10205591339E+01 0.  0.
     999903    2    3    3    0    0 -0.20537057141E-01  0.12539094631E+00  0.12755189604E-01  0.12919601904E+00  0.19602457530E-01 0.  0.
         14    1    1    2    0    0 -0.15353544599E-01  0.13542010716E-01 -0.10720097991E-01  0.23109259766E-01  0.00000000000E+00 0. -1.
     999901    1    3    3    0    0  0.35890601740E-01 -0.13893295703E+00 -0.20350916132E-02  0.89162472119E+00  0.88000000000E+00 0.  1.
        -11    1    4    4    0    0 -0.26233899615E-02  0.75000780573E-01  0.89201928490E-02  0.75576651308E-01  0.51100000000E-03 0. -1.
         11    1    4    4    0    0 -0.17913667179E-01  0.50390165740E-01  0.38349967551E-02  0.53619367734E-01  0.51100000000E-03 0.  1.
</event>
<event>
 8    1  0.1079508E+005  0.1043930E+01  0.7957747E-01            NaN
         13   -1    0    0    0    0  0.00000000000E+00  0.00000000000E+00  0.74505805969E-08  0.10566000000E+00  0.10566000000E+00 0. -1.
     999900   -1    0    0    0    0 -0.00000000000E+00 -0.00000000000E+00 -0.74505805969E-08  0.93827000000E+00  0.93827000000E+00 0. -1.
     999902    2    1    2    0    0  0.15036593306E-01 -0.14974755270E-01  0.10967596855E-01  0.10200421241E+01  0.10197623764E+01 0.  0.
     999903    2    3    3    0    0 -0.77555332891E-01  0.99912638292E-01 -0.50419927056E-02  0.12761359199E+00  0.16200068478E-01 0.  0.
         14    1    1    2    0    0 -0.15036593306E-01  0.14974755270E-01 -0.10967596855E-01  0.23887875888E-01  0.00000000000E+00 0. -1.
     999901    1    3    3    0    0  0.92591926198E-01 -0.11488739356E+00  0.16009589561E-01  0.89242853213E+00  0.88000000000E+00 0.  1.
        -11    1    4    4    0    0 -0.54750124579E-01  0.73226286874E-01  0.34369886861E-02  0.91497208936E-01  0.51100000000E-03 0. -1.
         11    1    4    4    0    0 -0.22805208313E-01  0.26686351417E-01 -0.84789813917E-02  0.36116383050E-01  0.51100000000E-03 0.  1.
</event>
<event>
 8    1  0.1079508E+005  0.1043930E+01  0.7957747E-01            NaN
         13   -1    0    0    0    0  0.00000000000E+00  0.00000000000E+00  0.74505805969E-08  0.10566000000E+00  0.10566000000E+00 0.  1.
     999900   -1    0    0    0    0 -0.00000000000E+00 -0.00000000000E+00 -0.74505805969E-08  0.93827000000E+00  0.93827000000E+00 0.  1.
     999902    2    1    2    0    0 -0.10748637480E-02  0.88535373938E-02 -0.21364706324E-01  0.10207785177E+01  0.10205159436E+01 0.  0.
     999903    2    3    3    0    0 -0.11988505713E+00 -0.42893798758E-01 -0.22864446321E-01  0.13128658515E+00  0.22384808202E-01 0.  0.
         14    1    1    2    0    0  0.10748637480E-02 -0.88535373938E-02  0.21364706324E-01  0.23151482302E-01  0.00000000000E+00 0.  1.
     999901    1    3    3    0    0  0.11881019339E+00  0.51747336152E-01  0.14997399971E-02  0.88949193255E+00  0.88000000000E+00 0. -1.
        -11    1    4    4    0    0 -0.66731034013E-01 -0.12230197520E-01 -0.98609175688E-02  0.68557329646E-01  0.51100000000E-03 0.  1.
         11    1    4    4    0    0 -0.53154023121E-01 -0.30663601238E-01 -0.13003528753E-01  0.62729255502E-01  0.51100000000E-03 0. -1.
</event>
<event>
 8    1  0.1079508E+005  0.1043930E+01  0.7957747E-01            NaN
         13   -1    0    0    0    0  0.00000000000E+00  0.00000000000E+00  0.74505805969E-08  0.10566000000E+00  0.10566000000E+00 0.  1.
     999900   -1    0    0    0    0 -0.00000000000E+00 -0.00000000000E+00 -0.74505805969E-08  0.93827000000E+00  0.93827000000E+00 0.  1.
     999902    2    1    2    0    0  0.12139290858E-01  0.16953022551E-01  0.84358760921E-02  0.10214370820E+01  0.10211893953E+01 0.  0.
     999903    2    3    3    0    0 -0.12285439198E+00  0.28839575762E-02 -0.36051700558E-01  0.12992130674E+00  0.21870116428E-01 0.  0.
         14    1    1    2    0    0 -0.12139290858E-01 -0.16953022551E-01 -0.84358760921E-02  0.22492918032E-01  0.00000000000E+00 0.  1.
     999901    1    3    3    0    0  0.13499368284E+00  0.14069064975E-01  0.44487576650E-01  0.89151577522E+00  0.88000000000E+00 0. -1.
        -11    1    4    4    0    0 -0.42404069343E-01 -0.83991053038E-02 -0.79286587565E-02  0.43951960336E-01  0.51100000000E-03 0.  1.
         11    1    4    4    0    0 -0.80450322639E-01  0.11283062880E-01 -0.28123041802E-01  0.85969346409E-01  0.51100000000E-03 0. -1.
</event>
<event>
 8    1  0.1079508E+005  0.1043930E+01  0.7957747E-01            NaN
         13   -1    0    0    0    0  0.00000000000E+00  0.00000000000E+00  0.74505805969E-08  0.10566000000E+00  0.10566000000E+00 0. -1.
     999900   -1    0    0    0    0 -0.00000000000E+00 -0.00000000000E+00 -0.74505805969E-08  0.93827000000E+00  0.93827000000E+00 0.  1.
     999902    2    1    2    0    0 -0.15368928136E-01 -0.66399159748E-02 -0.16367690821E-01  0.10205164625E+01  0.10202478407E+01 0.  0.
     999903    2    3    3    0    0  0.12519034134E+00 -0.15086459804E-01 -0.20839960620E-01  0.12931039566E+00  0.19663459356E-01 0.  0.
         14    1    1    2    0    0  0.15368928136E-01  0.66399159748E-02  0.16367690821E-01  0.23413537516E-01  0.00000000000E+00 0. -1.
     999901    1    3    3    0    0 -0.14055926948E+00  0.84465438290E-02  0.44722697984E-02  0.89120606682E+00  0.88000000000E+00 0.  1.
        -11    1    4    4    0    0  0.54747181879E-01 -0.16357986139E-01 -0.81253254969E-02  0.57715852845E-01  0.51100000000E-03 0. -1.
         11    1    4    4    0    0  0.70443159462E-01  0.12715263355E-02 -0.12714635123E-01  0.71594542819E-01  0.51100000000E-03 0.  1.
</event>
<event>
 8    1  0.1079508E+005  0.1043930E+01  0.7957747E-01            NaN
         13   -1    0    0    0    0  0.00000000000E+00  0.00000000000E+00  0.74505805969E-08  0.10566000000E+00  0.10566000000E+00 0.  1.
     999900   -1    0    0    0    0 -0.00000000000E+00 -0.00000000000E+00 -0.74505805969E-08  0.93827000000E+00  0.93827000000E+00 0. -1.
     999902    2    1    2    0    0 -0.15859136581E-02 -0.16814808672E-01 -0.17207710258E-01  0.10198186291E+01  0.10195335591E+01 0.  0.
     999903    2    3    3    0    0 -0.10046981686E+00  0.54315134979E-01  0.55508885370E-01  0.12845719937E+00  0.19382923589E-01 0.  0.
         14    1    1    2    0    0  0.15859136581E-02  0.16814808672E-01  0.17207710258E-01  0.24111370868E-01  0.00000000000E+00 0. -1.
     999901    1    3    3    0    0  0.98883903198E-01 -0.71129943652E-01 -0.72716595628E-01  0.89136142977E+00  0.88000000000E+00 0. -1.
        -11    1    4    4    0    0 -0.88549513820E-01  0.43399113393E-01  0.53413453782E-01  0.11215060235E+00  0.51100000000E-03 0. -1.
         11    1    4    4    0    0 -0.11920303036E-01  0.10916021587E-01  0.20954315875E-02  0.16306597018E-01  0.51100000000E-03 0.  1.
</event>
<event>
 8    1  0.1079508E+005  0.1043930E+01  0.7957747E-01            NaN
         13   -1    0    0    0    0  0.00000000000E+00  0.00000000000E+00  0.74505805969E-08  0.10566000000E+00  0.10566000000E+00 0.  1.
     999900   -1    0    0    0    0 -0.00000000000E+00 -0.00000000000E+00 -0.74505805969E-08  0.93827000000E+00  0.93827000000E+00 0.  1.
     999902    2    1    2    0    0 -0.20635111575E-01 -0.22546949626E-02  0.11499490065E-01  0.10201996449E+01  0.10199236176E+01 0.  0.
     999903    2    3    3    0    0 -0.29322520887E-03 -0.11901601883E+00 -0.48888248223E-01  0.13020319663E+00  0.19947753681E-01 0.  0.
         14    1    1    2    0    0  0.20635111575E-01  0.22546949626E-02 -0.11499490065E-01  0.23730355051E-01  0.00000000000E+00 0. -1.
     999901    1    3    3    0    0 -0.20341886366E-01  0.11676132387E+00  0.60387738288E-01  0.88999644832E+00  0.88000000000E+00 0. -1.
        -11    1    4    4    0    0  0.47610456315E-02 -0.42579042256E-01 -0.87980093169E-02  0.43741381824E-01  0.51100000000E-03 0.  1.
         11    1    4    4    0    0 -0.50542708403E-02 -0.76436976578E-01 -0.40090238906E-01  0.86461814801E-01  0.51100000000E-03 0. -1.
</event>
<event>
 8    1  0.1079508E+005  0.1043930E+01  0.7957747E-01            NaN
         13   -1    0    0    0    0  0.00000000000E+00  0.00000000000E+00  0.74505805969E-08  0.10566000000E+00  0.10566000000E+00 0.  1.
     999900   -1    0    0    0    0 -0.00000000000E+00 -0.00000000000E+00 -0.74505805969E-08  0.93827000000E+00  0.93827000000E+00 0. -1.
     999902    2    1    2    0    0  0.16768993584E-01 -0.16147927943E-01  0.17596492034E-02  0.10205836708E+01  0.10203166067E+01 0.  0.
     999903    2    3    3    0    0  0.10970898070E+00 -0.33283088390E-01 -0.64499326675E-01  0.13304679447E+00  0.19936447995E-01 0.  0.
         14    1    1    2    0    0 -0.16768993584E-01  0.16147927943E-01 -0.17596492034E-02  0.23346329219E-01  0.00000000000E+00 0.  1.
     999901    1    3    3    0    0 -0.92939987113E-01  0.17135160447E-01  0.66258975879E-01  0.88753687631E+00  0.88000000000E+00 0.  1.
        -11    1    4    4    0    0  0.83667895246E-01 -0.24790644634E-01 -0.38864837628E-01  0.95528160670E-01  0.51100000000E-03 0. -1.
         11    1    4    4    0    0  0.26041085451E-01 -0.84924437565E-02 -0.25634489047E-01  0.37518633799E-01  0.51100000000E-03 0.  1.
</event>
<event>
 8    1  0.1079508E+005  0.1043930E+01  0.7957747E-01            NaN
         13   -1    0    0    0    0  0.00000000000E+00  0.00000000000E+00  0.74505805969E-08  0.10566000000E+00  0.10566000000E+00 0.  1.
     999900   -1    0    0    0    0 -0.00000000000E+00 -0.00000000000E+00 -0.74505805969E-08  0.93827000000E+00  0.93827000000E+00 0.  1.
     999902    2    1    2    0    0 -0.18379817491E-02  0.11182238840E-01 -0.19862587565E-01  0.10210620524E+01  0.10208059423E+01 0.  0.
     999903    2    3    3    0    0  0.45182998337E-01 -0.48956463535E-01  0.10811348489E+00  0.12853445551E+00  0.19858045691E-01 0.  0.
         14    1    1    2    0    0  0.18379817491E-02 -0.11182238840E-01  0.19862587565E-01  0.22867947594E-01  0.00000000000E+00 0.  1.
     999901    1    3    3    0    0 -0.47020980086E-01  0.60138702375E-01 -0.12797607246E+00  0.89252759689E+00  0.88000000000E+00 0.  1.
        -11    1    4    4    0    0  0.79042270089E-02 -0.77205773355E-02  0.34878016370E-01  0.36589906612E-01  0.51100000000E-03 0.  1.
         11    1    4    4    0    0  0.37278771328E-01 -0.41235886199E-01  0.73235468521E-01  0.91944548903E-01  0.51100000000E-03 0. -1.
</event>
<event>
 8    1  0.1079508E+005  0.1043930E+01  0.7957747E-01            NaN
         13   -1    0    0    0    0  0.00000000000E+00  0.00000000000E+00  0.74505805969E-08  0.10566000000E+00  0.10566000000E+00 0.  1.
     999900   -1    0    0    0    0 -0.00000000000E+00 -0.00000000000E+00 -0.74505805969E-08  0.93827000000E+00  0.93827000000E+00 0.  1.
     999902    2    1    2    0    0 -0.22674833563E-01  0.14915258202E-02  0.57609706680E-02  0.10204872717E+01  0.10202179719E+01 0.  0.
     999903    2    3    3    0    0  0.39773448400E-01  0.11969256193E+00  0.24753798742E-01  0.13018844527E+00  0.20689227888E-01 0.  0.
         14    1    1    2    0    0  0.22674833563E-01 -0.14915258202E-02 -0.57609706680E-02  0.23442728284E-01  0.00000000000E+00 0.  1.
     999901    1    3    3    0    0 -0.62448281963E-01 -0.11820103611E+00 -0.18992828074E-01  0.89029882645E+00  0.88000000000E+00 0. -1.
        -11    1    4    4    0    0  0.14852083499E-01  0.75553773580E-01  0.17694959255E-01  0.79008415947E-01  0.51100000000E-03 0.  1.
         11    1    4    4    0    0  0.24921364901E-01  0.44138788348E-01  0.70588394866E-02  0.51180029321E-01  0.51100000000E-03 0. -1.
</event>
<event>
 8    1  0.1079508E+005  0.1043930E+01  0.7957747E-01            NaN
         13   -1    0    0    0    0  0.00000000000E+00  0.00000000000E+00  0.74505805969E-08  0.10566000000E+00  0.10566000000E+00 0. -1.
     999900   -1    0    0    0    0 -0.00000000000E+00 -0.00000000000E+00 -0.74505805969E-08  0.93827000000E+00  0.93827000000E+00 0. -1.
     999902    2    1    2    0    0  0.20687121738E-01 -0.74927567633E-02  0.82987241787E-02  0.10204147447E+01  0.10201437565E+01 0.  0.
     999903    2    3    3    0    0 -0.89239168979E-01  0.89623792101E-01 -0.62021787462E-02  0.12815598757E+00  0.19734151580E-01 0.  0.
         14    1    1    2    0    0 -0.20687121738E-01  0.74927567633E-02 -0.82987241787E-02  0.23515255319E-01  0.00000000000E+00 0.  1.
     999901    1    3    3    0    0  0.10992629072E+00 -0.97116548864E-01  0.14500902925E-01  0.89225875711E+00  0.88000000000E+00 0.  1.
        -11    1    4    4    0    0 -0.65324009051E-01  0.76108441554E-01 -0.16933944153E-02  0.10031375648E+00  0.51100000000E-03 0. -1.
         11    1    4    4    0    0 -0.23915159928E-01  0.13515350547E-01 -0.45087843310E-02  0.27842231087E-01  0.51100000000E-03 0.  1.
</event>
<event>
 8    1  0.1079508E+005  0.1043930E+01  0.7957747E-01            NaN
         13   -1    0    0    0    0  0.00000000000E+00  0.00000000000E+00  0.74505805969E-08  0.10566000000E+00  0.10566000000E+00 0. -1.
     999900   -1    0    0    0    0 -0.00000000000E+00 -0.00000000000E+00 -0.74505805969E-08  0.93827000000E+00  0.93827000000E+00 0. -1.
     999902    2    1    2    0    0  0.67252321108E-02  0.13828359368E-01 -0.17276580381E-01  0.10208013922E+01  0.10205393426E+01 0.  0.
     999903    2    3    3    0    0  0.11990853266E+00  0.45073881833E-01  0.24650900681E-01  0.13201308451E+00  0.20250346901E-01 0.  0.
         14    1    1    2    0    0 -0.67252321108E-02 -0.13828359368E-01  0.17276580381E-01  0.23128607814E-01  0.00000000000E+00 0.  1.
     999901    1    3    3    0    0 -0.11318330055E+00 -0.31245522464E-01 -0.41927481062E-01  0.88878830768E+00  0.88000000000E+00 0. -1.
        -11    1    4    4    0    0  0.85357082736E-01  0.22033613375E-01  0.17136522759E-01  0.89806643545E-01  0.51100000000E-03 0. -1.
         11    1    4    4    0    0  0.34551449921E-01  0.23040268457E-01  0.75143779223E-02  0.42206440964E-01  0.51100000000E-03 0.  1.
</event>
<event>
 8    1  0.1079508E+005  0.1043930E+01  0.7957747E-01            NaN
         13   -1    0    0    0    0  0.00000000000E+00  0.00000000000E+00  0.74505805969E-08  0.10566000000E+00  0.10566000000E+00 0. -1.
     999900   -1    0    0    0    0 -0.00000000000E+00 -0.00000000000E+00 -0.74505805969E-08  0.93827000000E+00  0.93827000000E+00 0. -1.
     999902    2    1    2    0    0 -0.15406040287E-01 -0.21564309344E-02 -0.17805836631E-01  0.10202858868E+01  0.10200118856E+01 0.  0.
     999903    2    3    3    0    0 -0.10083433064E+00  0.46071994837E-01 -0.71152262838E-01  0.13322905938E+00  0.19928542660E-01 0.  0.
         14    1    1    2    0    0  0.15406040287E-01  0.21564309344E-02  0.17805836631E-01  0.23644113217E-01  0.00000000000E+00 0. -1.
     999901    1    3    3    0    0  0.85428290358E-01 -0.48228425771E-01  0.53346426207E-01  0.88705682740E+00  0.88000000000E+00 0.  1.
        -11    1    4    4    0    0 -0.73802982314E-01  0.24710731898E-01 -0.44391771946E-01  0.89601289091E-01  0.51100000000E-03 0. -1.
         11    1    4    4    0    0 -0.27031348331E-01  0.21361262938E-01 -0.26760490892E-01  0.43627770293E-01  0.51100000000E-03 0.  1.
</event>
<event>
 8    1  0.1079508E+005  0.1043930E+01  0.7957747E-01            NaN
         13   -1    0    0    0    0  0.00000000000E+00  0.00000000000E+00  0.74505805969E-08  0.10566000000E+00  0.10566000000E+00 0.  1.
     999900   -1    0    0    0    0 -0.00000000000E+00 -0.00000000000E+00 -0.74505805969E-08  0.93827000000E+00  0.93827000000E+00 0. -1.
     999902    2    1    2    0    0  0.74126879749E-02  0.17187883695E-01 -0.16887602426E-01  0.10187196370E+01  0.10184076474E+01 0.  0.
     999903    2    3    3    0    0  0.57505090676E-01 -0.71318898938E-02 -0.11623161490E+00  0.13138095697E+00  0.19836034003E-01 0.  0.
         14    1    1    2    0    0 -0.74126879749E-02 -0.17187883695E-01  0.16887602426E-01  0.25210363040E-01  0.00000000000E+00 0.  1.
     999901    1    3    3    0    0 -0.50092402701E-01  0.24319773589E-01  0.99344012472E-01  0.88733867999E+00  0.88000000000E+00 0.  1.
        -11    1    4    4    0    0  0.21232888933E-01  0.47885042035E-02 -0.55794122083E-01  0.59891656556E-01  0.51100000000E-03 0.  1.
         11    1    4    4    0    0  0.36272201743E-01 -0.11920394097E-01 -0.60437492815E-01  0.71489300412E-01  0.51100000000E-03 0. -1.
</event>
<event>
 8    1  0.1079508E+005  0.1043930E+01  0.7957747E-01            NaN
         13   -1    0    0    0    0  0.00000000000E+00  0.00000000000E+00  0.74505805969E-08  0.10566000000E+00  0.10566000000E+00 0.  1.
     999900   -1    0    0    0    0 -0.00000000000E+00 -0.00000000000E+00 -0.74505805969E-08  0.93827000000E+00  0.93827000000E+00 0. -1.
     999902    2    1    2    0    0  0.14191013315E-01 -0.15809695105E-01 -0.11468058377E-01  0.10197877615E+01  0.10195019523E+01 0.  0.
     999903    2    3    3    0    0 -0.12618021477E+00  0.19519173458E-02  0.11723059004E-01  0.12818393439E+00  0.19194643588E-01 0.  0.
         14    1    1    2    0    0 -0.14191013315E-01  0.15809695105E-01  0.11468058377E-01  0.24142238528E-01  0.00000000000E+00 0.  1.
     999901    1    3    3    0    0  0.14037122808E+00 -0.17761612451E-01 -0.23191117382E-01  0.89160382709E+00  0.88000000000E+00 0.  1.
        -11    1    4    4    0    0 -0.40620140080E-01 -0.30936622871E-02  0.12006135579E-01  0.42473226143E-01  0.51100000000E-03 0. -1.
         11    1    4    4    0    0 -0.85560074685E-01  0.50455796328E-02 -0.28307657453E-03  0.85710708242E-01  0.51100000000E-03 0.  1.
</event>
<event>
 8    1  0.1079508E+005  0.1043930E+01  0.7957747E-01            NaN
         13   -1    0    0    0    0  0.00000000000E+00  0.00000000000E+00  0.74505805969E-08  0.10566000000E+00  0.10566000000E+00 0.  1.
     999900   -1    0    0    0    0 -0.00000000000E+00 -0.00000000000E+00 -0.74505805969E-08  0.93827000000E+00  0.93827000000E+00 0. -1.
     999902    2    1    2    0    0 -0.16003742552E-03 -0.23195818302E-01  0.98877015935E-03  0.10207125655E+01  0.10204484760E+01 0.  0.
     999903    2    3    3    0    0  0.87881852910E-01 -0.60867068148E-01 -0.75076690908E-01  0.13225522162E+00  0.20661899028E-01 0.  0.
         14    1    1    2    0    0  0.16003742552E-03  0.23195818302E-01 -0.98877015935E-03  0.23217434508E-01  0.00000000000E+00 0. -1.
     999901    1    3    3    0    0 -0.88041890336E-01  0.37671249846E-01  0.76065461067E-01  0.88845734388E+00  0.88000000000E+00 0. -1.
        -11    1    4    4    0    0  0.18546777298E-01 -0.23466471598E-01 -0.17282417636E-01  0.34548535681E-01  0.51100000000E-03 0.  1.
         11    1    4    4    0    0  0.69335075613E-01 -0.37400596550E-01 -0.57794273272E-01  0.97706685936E-01  0.51100000000E-03 0. -1.
</event>
<event>
 7    1  0.1841101E+005  0.1043930E+01  0.7957747E-01            NaN
         13   -1    0    0    0    0  0.00000000000E+00  0.00000000000E+00  0.74505805969E-08  0.10566000000E+00  0.10566000000E+00 0.  1.
     999900   -1    0    0    0    0 -0.00000000000E+00 -0.00000000000E+00 -0.74505805969E-08  0.93827000000E+00  0.93827000000E+00 0.  1.
     999903    2    1    2    0    0 -0.59721814073E-01 -0.80251614995E-01  0.32326626021E-01  0.10797596982E+00  0.24632956054E-01 0.  0.
         14    1    1    2    0    0 -0.58267623240E-02 -0.60884300535E-02 -0.48428366335E-01  0.49156147180E-01  0.00000000000E+00 0. -1.
     999901    1    1    2    0    0  0.65548576397E-01  0.86340045049E-01  0.16101740314E-01  0.88679788300E+00  0.88000000000E+00 0. -1.
        -11    1    3    3    0    0 -0.28680587710E-01 -0.53587776613E-01  0.27682356368E-01  0.66789219855E-01  0.51100000000E-03 0. -1.
         11    1    3    3    0    0 -0.31041226363E-01 -0.26663838382E-01  0.46442696526E-02  0.41186749968E-01  0.51100000000E-03 0.  1.
</event>
<event>
 8    1  0.1079508E+005  0.1043930E+01  0.7957747E-01            NaN
         13   -1    0    0    0    0  0.00000000000E+00  0.00000000000E+00  0.74505805969E-08  0.10566000000E+00  0.10566000000E+00 0.  1.
     999900   -1    0    0    0    0 -0.00000000000E+00 -0.00000000000E+00 -0.74505805969E-08  0.93827000000E+00  0.93827000000E+00 0.  1.
     999902    2    1    2    0    0  0.11101835176E-01  0.20789420212E-01 -0.54011322105E-02  0.10197510222E+01  0.10194643321E+01 0.  0.
     999903    2    3    3    0    0 -0.12587167521E+00  0.20022997262E-02 -0.19083140222E-01  0.12885153531E+00  0.19770282897E-01 0.  0.
         14    1    1    2    0    0 -0.11101835176E-01 -0.20789420212E-01  0.54011322105E-02  0.24178977774E-01  0.00000000000E+00 0.  1.
     999901    1    3    3    0    0  0.13697351039E+00  0.18787120486E-01  0.13682008011E-01  0.89089948692E+00  0.88000000000E+00 0. -1.
        -11    1    4    4    0    0 -0.53200840447E-01  0.90232490536E-02 -0.13507885910E-01  0.55627983520E-01  0.51100000000E-03 0. -1.
         11    1    4    4    0    0 -0.72670834766E-01 -0.70209493274E-02 -0.55752543118E-02  0.73223551790E-01  0.51100000000E-03 0.  1.
</event>
<event>
 8    1  0.1079508E+005  0.1043930E+01  0.7957747E-01            NaN
         13   -1    0    0    0    0  0.00000000000E+00  0.00000000000E+00  0.74505805969E-08  0.10566000000E+00  0.10566000000E+00 0.  1.
     999900   -1    0    0    0    0 -0.00000000000E+00 -0.00000000000E+00 -0.74505805969E-08  0.93827000000E+00  0.93827000000E+00 0.  1.
     999902    2    1    2    0    0 -0.23649947888E-01 -0.25311021671E-02 -0.16742945744E-02  0.10200861376E+01  0.10198074320E+01 0.  0.
     999903    2    3    3    0    0  0.17138255491E-01  0.12456409724E+00 -0.26287271196E-01  0.12968023807E+00  0.17776653146E-01 0.  0.
         14    1    1    2    0    0  0.23649947888E-01  0.25311021671E-02  0.16742945744E-02  0.23843862430E-01  0.00000000000E+00 0. -1.
     999901    1    3    3    0    0 -0.40788203379E-01 -0.12709519940E+00  0.24612976622E-01  0.89040589950E+00  0.88000000000E+00 0. -1.
        -11    1    4    4    0    0 -0.37492801080E-02  0.20174769332E-01 -0.44921613291E-02  0.21012354779E-01  0.51100000000E-03 0.  1.
         11    1    4    4    0    0  0.20887535599E-01  0.10438932790E+00 -0.21795109867E-01  0.10866788329E+00  0.51100000000E-03 0. -1.
</event>
<event>
 8    1  0.1079508E+005  0.1043930E+01  0.7957747E-01            NaN
         13   -1    0    0    0    0  0.00000000000E+00  0.00000000000E+00  0.74505805969E-08  0.10566000000E+00  0.10566000000E+00 0.  1.
     999900   -1    0    0    0    0 -0.00000000000E+00 -0.00000000000E+00 -0.74505805969E-08  0.93827000000E+00  0.93827000000E+00 0. -1.
     999902    2    1    2    0    0 -0.43729742219E-02 -0.16524873227E-01 -0.15925263656E-01  0.10205674582E+01  0.10203000188E+01 0.  0.
     999903    2    3    3    0    0  0.96797421479E-02  0.17820444662E-01 -0.12962298481E+00  0.13247723105E+00  0.18353007898E-01 0.  0.
         14    1    1    2    0    0  0.43729742219E-02  0.16524873227E-01  0.15925263656E-01  0.23362541840E-01  0.00000000000E+00 0.  1.
     999901    1    3    3    0    0 -0.14052716370E-01 -0.34345317890E-01  0.11369772115E+00  0.88809022711E+00  0.88000000000E+00 0.  1.
        -11    1    4    4    0    0  0.54181031907E-02 -0.17034485860E-02 -0.52379686318E-01  0.52689185219E-01  0.51100000000E-03 0.  1.
         11    1    4    4    0    0  0.42616389572E-02  0.19523893248E-01 -0.77243298491E-01  0.79788045828E-01  0.51100000000E-03 0. -1.
</event>
<event>
 8    1  0.1079508E+005  0.1043930E+01  0.7957747E-01            NaN
         13   -1    0    0    0    0  0.00000000000E+00  0.00000000000E+00  0.74505805969E-08  0.10566000000E+00  0.10566000000E+00 0. -1.
     999900   -1    0    0    0    0 -0.00000000000E+00 -0.00000000000E+00 -0.74505805969E-08  0.93827000000E+00  0.93827000000E+00 0. -1.
     999902    2    1    2    0    0  0.11365458481E-01  0.89543942817E-02  0.18234800520E-01  0.10206520539E+01  0.10203865701E+01 0.  0.
     999903    2    3    3    0    0 -0.59556523230E-01  0.55050121928E-01 -0.98360928907E-01  0.12894060524E+00  0.19321282588E-01 0.  0.
         14    1    1    2    0    0 -0.11365458481E-01 -0.89543942817E-02 -0.18234800520E-01  0.23277946074E-01  0.00000000000E+00 0.  1.
     999901    1    3    3    0    0  0.70921981710E-01 -0.46095727646E-01  0.11659572943E+00  0.89171144869E+00  0.88000000000E+00 0.  1.
        -11    1    4    4    0    0 -0.39386163745E-01  0.36881084655E-01 -0.78681149132E-01  0.95406858504E-01  0.51100000000E-03 0.  1.
         11    1    4    4    0    0 -0.20170359485E-01  0.18169037273E-01 -0.19679779774E-01  0.33533746736E-01  0.51100000000E-03 0. -1.
</event>
<event>
 8    1  0.1079508E+005  0.1043930E+01  0.7957747E-01            NaN
         13   -1    0    0    0    0  0.00000000000E+00  0.00000000000E+00  0.74505805969E-08  0.10566000000E+00  0.10566000000E+00 0. -1.
     999900   -1    0    0    0    0 -0.00000000000E+00 -0.00000000000E+00 -0.74505805969E-08  0.93827000000E+00  0.93827000000E+00 0.  1.
     999902    2    1    2    0    0 -0.13899107772E-01 -0.69921338035E-02  0.17443171022E-01  0.10205560969E+01  0.10202883943E+01 0.  0.
     999903    2    3    3    0    0  0.59079041569E-01 -0.11349246200E+00 -0.14810286778E-01  0.13055136895E+00  0.21294207148E-01 0.  0.
         14    1    1    2    0    0  0.13899107772E-01  0.69921338035E-02 -0.17443171022E-01  0.23373903125E-01  0.00000000000E+00 0.  1.
     999901    1    3    3    0    0 -0.72978149342E-01  0.10650032819E+00  0.32253457800E-01  0.89000472792E+00  0.88000000000E+00 0.  1.
        -11    1    4    4    0    0  0.33752091617E-01 -0.53140911167E-01  0.19542430585E-02  0.62986032699E-01  0.51100000000E-03 0.  1.
         11    1    4    4    0    0  0.25326949952E-01 -0.60351550828E-01 -0.16764529836E-01  0.67565336252E-01  0.51100000000E-03 0. -1.
</event>
<event>
 8    1  0.1079508E+005  0.1043930E+01  0.7957747E-01            NaN
         13   -1    0    0    0    0  0.00000000000E+00  0.00000000000E+00  0.74505805969E-08  0.10566000000E+00  0.10566000000E+00 0. -1.
     999900   -1    0    0    0    0 -0.00000000000E+00 -0.00000000000E+00 -0.74505805969E-08  0.93827000000E+00  0.93827000000E+00 0. -1.
     999902    2    1    2    0    0 -0.61004462883E-02 -0.15016348733E-01 -0.17212200103E-01  0.10202875381E+01  0.10200135756E+01 0.  0.
     999903    2    3    3    0    0 -0.88755222596E-01  0.90517021401E-01  0.16399316393E-01  0.12950202050E+00  0.20760901556E-01 0.  0.
         14    1    1    2    0    0  0.61004462883E-02  0.15016348733E-01  0.17212200103E-01  0.23642461940E-01  0.00000000000E+00 0. -1.
     999901    1    3    3    0    0  0.82654776307E-01 -0.10553337013E+00 -0.33611516496E-01  0.89078551756E+00  0.88000000000E+00 0. -1.
        -11    1    4    4    0    0 -0.82588656271E-01  0.76189436255E-01  0.10645573718E-01  0.11286853283E+00  0.51100000000E-03 0.  1.
         11    1    4    4    0    0 -0.61665663250E-02  0.14327585145E-01  0.57537426747E-02  0.16633487671E-01  0.51100000000E-03 0. -1.
</event>
<event>
 8    1  0.1079508E+005  0.1043930E+01  0.7957747E-01            NaN
         13   -1    0    0    0    0  0.00000000000E+00  0.00000000000E+00  0.74505805969E-08  0.10566000000E+00  0.10566000000E+00 0. -1.
     999900   -1    0    0    0    0 -0.00000000000E+00 -0.00000000000E+00 -0.74505805969E-08  0.93827000000E+00  0.93827000000E+00 0.  1.
     999902    2    1    2    0    0  0.60324467029E-02 -0.23849353614E-01  0.53222275778E-02  0.10187604115E+01  0.10184494429E+01 0.  0.
     999903    2    3    3    0    0 -0.27404819753E-01  0.54393389674E-02  0.12489026423E+00  0.12956279917E+00  0.20207183764E-01 0.  0.
         14    1    1    2    0    0 -0.60324467029E-02  0.23849353614E-01 -0.53222275778E-02  0.25169588543E-01  0.00000000000E+00 0.  1.
     999901    1    3    3    0    0  0.33437266456E-01 -0.29288692582E-01 -0.11956803665E+00  0.88919761228E+00  0.88000000000E+00 0.  1.
        -11    1    4    4    0    0 -0.17661941401E-01  0.11806235486E-01  0.97655697064E-01  0.99941120968E-01  0.51100000000E-03 0. -1.
         11    1    4    4    0    0 -0.97428783517E-02 -0.63668965185E-02  0.27234567168E-01  0.29621678205E-01  0.51100000000E-03 0.  1.
</event>
<event>
 8    1  0.1079508E+005  0.1043930E+01  0.7957747E-01            NaN
         13   -1    0    0    0    0  0.00000000000E+00  0.00000000000E+00  0.74505805969E-08  0.10566000000E+00  0.10566000000E+00 0. -1.
     999900   -1    0    0    0    0 -0.00000000000E+00 -0.00000000000E+00 -0.74505805969E-08  0.93827000000E+00  0.93827000000E+00 0.  1.
     999902    2    1    2    0    0 -0.17144937496E-01 -0.37411417588E-02 -0.16225322054E-01  0.10200300816E+01  0.10197500484E+01 0.  0.
     999903    2    3    3    0    0  0.60839552970E-01 -0.62946538438E-01 -0.95416337083E-01  0.13106547230E+00  0.20252474884E-01 0.  0.
         14    1    1    2    0    0  0.17144937496E-01  0.37411417588E-02  0.16225322054E-01  0.23899918392E-01  0.00000000000E+00 0. -1.
     999901    1    3    3    0    0 -0.77984490465E-01  0.59205396679E-01  0.79191015029E-01  0.88896460931E+00  0.88000000000E+00 0.  1.
        -11    1    4    4    0    0  0.44534298507E-01 -0.54281776689E-01 -0.66210755832E-01  0.96508757804E-01  0.51100000000E-03 0.  1.
         11    1    4    4    0    0  0.16305254463E-01 -0.86647617487E-02 -0.29205581251E-01  0.34556714491E-01  0.51100000000E-03 0. -1.
</event>
<event>
 8    1  0.1079508E+005  0.1043930E+01  0.7957747E-01            NaN
         13   -1    0    0    0    0  0.00000000000E+00  0.00000000000E+00  0.74505805969E-08  0.10566000000E+00  0.10566000000E+00 0. -1.
     999900   -1    0    0    0    0 -0.00000000000E+00 -0.00000000000E+00 -0.74505805969E-08  0.93827000000E+00  0.93827000000E+00 0.  1.
     999902    2    1    2    0    0  0.19288334560E-01  0.84421131174E-02  0.19152605219E-01  0.10154671925E+01  0.10150682182E+01 0.  0.
     999903    2    3    3    0    0  0.34303123360E-01 -0.47249846145E-02  0.12270222981E+00  0.12917077420E+00  0.20741792456E-01 0.  0.
         14    1    1    2    0    0 -0.19288334560E-01 -0.84421131174E-02 -0.19152605219E-01  0.28462807498E-01  0.00000000000E+00 0.  1.
     999901    1    3    3    0    0 -0.15014788800E-01  0.13167097732E-01 -0.10354962459E+00  0.88629641830E+00  0.88000000000E+00 0.  1.
        -11    1    4    4    0    0  0.20488528589E-02  0.56804951980E-02  0.12833169039E-01  0.14192151786E-01  0.51100000000E-03 0.  1.
         11    1    4    4    0    0  0.32254270501E-01 -0.10405479813E-01  0.10986906077E+00  0.11497862241E+00  0.51100000000E-03 0. -1.
</event>
<event>
 8    1  0.1079508E+005  0.1043930E+01  0.7957747E-01            NaN
         13   -1    0    0    0    0  0.00000000000E+00  0.00000000000E+00  0.74505805969E-08  0.10566000000E+00  0.10566000000E+00 0.  1.
     999900   -1    0    0    0    0 -0.00000000000E+00 -0.00000000000E+00 -0.74505805969E-08  0.93827000000E+00  0.93827000000E+00 0. -1.
     999902    2    1    2    0    0 -0.81049563284E-02 -0.20581981686E-01  0.78908688979E-02  0.10204443853E+01  0.10201740878E+01 0.  0.
     999903    2    3    3    0    0  0.29011898029E-01 -0.11600663583E+00  0.56194265854E-01  0.13319202903E+00  0.16825317196E-01 0.  0.
         14    1    1    2    0    0  0.81049563284E-02  0.20581981686E-01 -0.78908688979E-02  0.23485614728E-01  0.00000000000E+00 0. -1.
     999901    1    3    3    0    0 -0.37116854358E-01  0.95424654145E-01 -0.48303396956E-01  0.88725235624E+00  0.88000000000E+00 0.  1.
        -11    1    4    4    0    0  0.19479667855E-01 -0.94310176186E-01  0.38956416897E-01  0.10388325337E+00  0.51100000000E-03 0. -1.
         11    1    4    4    0    0  0.95322301746E-02 -0.21696459644E-01  0.17237848957E-01  0.29308775663E-01  0.51100000000E-03 0.  1.
</event>
<event>
 8    1  0.1079508E+005  0.1043930E+01  0.7957747E-01            NaN
         13   -1    0    0    0    0  0.00000000000E+00  0.00000000000E+00  0.74505805969E-08  0.10566000000E+00  0.10566000000E+00 0. -1.
     999900   -1    0    0    0    0 -0.00000000000E+00 -0.00000000000E+00 -0.74505805969E-08  0.93827000000E+00  0.93827000000E+00 0. -1.
     999902    2    1    2    0    0 -0.21880170033E-01  0.52569496965E-02 -0.54380544628E-02  0.10207794104E+01  0.10205168568E+01 0.  0.
     999903    2    3    3    0    0 -0.88892702130E-01 -0.46565483306E-01  0.83689879181E-01  0.13223001250E+00  0.20261381997E-01 0.  0.
         14    1    1    2    0    0  0.21880170033E-01 -0.52569496965E-02  0.54380544628E-02  0.23150589564E-01  0.00000000000E+00 0. -1.
     999901    1    3    3    0    0  0.67012532097E-01  0.51822433003E-01 -0.89127933644E-01  0.88854939794E+00  0.88000000000E+00 0. -1.
        -11    1    4    4    0    0 -0.50800414552E-01 -0.30021824451E-01  0.36591299839E-01  0.69434691667E-01  0.51100000000E-03 0. -1.
         11    1    4    4    0    0 -0.38092287578E-01 -0.16543658856E-01  0.47098579342E-01  0.62795320831E-01  0.51100000000E-03 0.  1.
</event>
<event>
 8    1  0.1079508E+005  0.1043930E+01  0.7957747E-01            NaN
         13   -1    0    0    0    0  0.00000000000E+00  0.00000000000E+00  0.74505805969E-08  0.10566000000E+00  0.10566000000E+00 0.  1.
     999900   -1    0    0    0    0 -0.00000000000E+00 -0.00000000000E+00 -0.74505805969E-08  0.93827000000E+00  0.93827000000E+00 0.  1.
     999902    2    1    2    0    0 -0.14969136610E-02 -0.84375479503E-02 -0.25683964976E-01  0.10168541986E+01  0.10164936606E+01 0.  0.
     999903    2    3    3    0    0  0.11561147733E+00 -0.44265100681E-01  0.21049581239E-01  0.12714525003E+00  0.19935318048E-01 0.  0.
         14    1    1    2    0    0  0.14969136610E-02  0.84375479503E-02  0.25683964976E-01  0.27075801425E-01  0.00000000000E+00 0.  1.
     999901    1    3    3    0    0 -0.11710839100E+00  0.35827552731E-01 -0.46733546214E-01  0.88970894854E+00  0.88000000000E+00 0.  1.
        -11    1    4    4    0    0  0.65727279902E-01 -0.16933834008E-01  0.50925688644E-02  0.68066331150E-01  0.51100000000E-03 0.  1.
         11    1    4    4    0    0  0.49884197432E-01 -0.27331266673E-01  0.15957012374E-01  0.59078918882E-01  0.51100000000E-03 0. -1.
</event>
<event>
 8    1  0.1079508E+005  0.1043930E+01  0.7957747E-01            NaN
         13   -1    0    0    0    0  0.00000000000E+00  0.00000000000E+00  0.74505805969E-08  0.10566000000E+00  0.10566000000E+00 0.  1.
     999900   -1    0    0    0    0 -0.00000000000E+00 -0.00000000000E+00 -0.74505805969E-08  0.93827000000E+00  0.93827000000E+00 0. -1.
     999902    2    1    2    0    0  0.17720743672E-01  0.14756690535E-01  0.59953855031E-02  0.10201029289E+01  0.10198246203E+01 0.  0.
     999903    2    3    3    0    0 -0.98975947570E-01  0.46723157362E-01 -0.65194333554E-01  0.12897558170E+00  0.20127292841E-01 0.  0.
         14    1    1    2    0    0 -0.17720743672E-01 -0.14756690535E-01 -0.59953855031E-02  0.23827071141E-01  0.00000000000E+00 0. -1.
     999901    1    3    3    0    0  0.11669669124E+00 -0.31966466826E-01  0.71189719057E-01  0.89112734715E+00  0.88000000000E+00 0.  1.
        -11    1    4    4    0    0 -0.34246106499E-01  0.24739644858E-01 -0.18117092944E-01  0.45971034530E-01  0.51100000000E-03 0.  1.
         11    1    4    4    0    0 -0.64729841071E-01  0.21983512504E-01 -0.47077240610E-01  0.83004547174E-01  0.51100000000E-03 0. -1.
</event>
<event>
 8    1  0.1079508E+005  0.1043930E+01  0.7957747E-01            NaN
         13   -1    0    0    0    0  0.00000000000E+00  0.00000000000E+00  0.74505805969E-08  0.10566000000E+00  0.10566000000E+00 0. -1.
     999900   -1    0    0    0    0 -0.00000000000E+00 -0.00000000000E+00 -0.74505805969E-08  0.93827000000E+00  0.93827000000E+00 0.  1.
     999902    2    1    2    0    0  0.21442977047E-01  0.12014726302E-01  0.12011695825E-02  0.10193211048E+01  0.10190240022E+01 0.  0.
     999903    2    3    3    0    0  0.49927674322E-01 -0.80183343052E-01 -0.86564093346E-01  0.12970624247E+00  0.20204601265E-01 0.  0.
         14    1    1    2    0    0 -0.21442977047E-01 -0.12014726302E-01 -0.12011695825E-02  0.24608895162E-01  0.00000000000E+00 0. -1.
     999901    1    3    3    0    0 -0.28484697276E-01  0.92198069354E-01  0.87765262928E-01  0.88961486237E+00  0.88000000000E+00 0.  1.
        -11    1    4    4    0    0  0.30316781894E-01 -0.30374829388E-01 -0.35030030496E-01  0.55399473664E-01  0.51100000000E-03 0. -1.
         11    1    4    4    0    0  0.19610892428E-01 -0.49808513664E-01 -0.51534062850E-01  0.74306768804E-01  0.51100000000E-03 0.  1.
</event>
<event>
 8    1  0.1079508E+005  0.1043930E+01  0.7957747E-01            NaN
         13   -1    0    0    0    0  0.00000000000E+00  0.00000000000E+00  0.74505805969E-08  0.10566000000E+00  0.10566000000E+00 0. -1.
     999900   -1    0    0    0    0 -0.00000000000E+00 -0.00000000000E+00 -0.74505805969E-08  0.93827000000E+00  0.93827000000E+00 0. -1.
     999902    2    1    2    0    0 -0.20675196760E-01  0.11191628953E-01 -0.50873292071E-02  0.10198759517E+01  0.10195922517E+01 0.  0.
     999903    2    3    3    0    0  0.10902641569E-01  0.32721897128E-01 -0.12471414298E+00  0.13096015882E+00  0.20183052139E-01 0.  0.
         14    1    1    2    0    0  0.20675196760E-01 -0.11191628953E-01  0.50873292071E-02  0.24054048269E-01  0.00000000000E+00 0. -1.
     999901    1    3    3    0    0 -0.31577838328E-01 -0.21530268175E-01  0.11962681377E+00  0.88891579292E+00  0.88000000000E+00 0.  1.
        -11    1    4    4    0    0 -0.20817114296E-02  0.73977923761E-02 -0.56839886708E-01  0.57359347072E-01  0.51100000000E-03 0. -1.
         11    1    4    4    0    0  0.12984352998E-01  0.25324104752E-01 -0.67874256269E-01  0.73600811743E-01  0.51100000000E-03 0.  1.
</event>
<event>
 8    1  0.1079508E+005  0.1043930E+01  0.7957747E-01            NaN
         13   -1    0    0    0    0  0.00000000000E+00  0.00000000000E+00  0.74505805969E-08  0.10566000000E+00  0.10566000000E+00 0.  1.
     999900   -1    0    0    0    0 -0.00000000000E+00 -0.00000000000E+00 -0.74505805969E-08  0.93827000000E+00  0.93827000000E+00 0.  1.
     999902    2    1    2    0    0  0.15536494294E-01  0.16770772900E-01  0.59977961979E-02  0.10202949616E+01  0.10200211732E+01 0.  0.
     999903    2    3    3    0    0 -0.48593097200E-02  0.12997636829E+00 -0.15548357686E-01  0.13254740046E+00  0.20238397611E-01 0.  0.
         14    1    1    2    0    0 -0.15536494294E-01 -0.16770772900E-01 -0.59977961979E-02  0.23635038350E-01  0.00000000000E+00 0. -1.
     999901    1    3    3    0    0  0.20395804014E-01 -0.11320559539E+00  0.21546153884E-01  0.88774756119E+00  0.88000000000E+00 0. -1.
        -11    1    4    4    0    0 -0.95356473810E-02  0.68957897780E-01 -0.15624655560E-01  0.71347818604E-01  0.51100000000E-03 0. -1.
         11    1    4    4    0    0  0.46763376610E-02  0.61018470509E-01  0.76297873508E-04  0.61199581858E-01  0.51100000000E-03 0.  1.
</event>
<event>
 8    1  0.1079508E+005  0.1043930E+01  0.7957747E-01            NaN
         13   -1    0    0    0    0  0.00000000000E+00  0.00000000000E+00  0.74505805969E-08  0.10566000000E+00  0.10566000000E+00 0. -1.
     999900   -1    0    0    0    0 -0.00000000000E+00 -0.00000000000E+00 -0.74505805969E-08  0.93827000000E+00  0.93827000000E+00 0.  1.
     999902    2    1    2    0    0  0.12659875000E-01  0.26414726426E-02  0.20264437762E-01  0.10198905064E+01  0.10196071537E+01 0.  0.
     999903    2    3    3    0    0 -0.44981486998E-01 -0.11680695225E+00  0.28400496831E-01  0.12991486167E+00  0.20101860552E-01 0.  0.
         14    1    1    2    0    0 -0.12659875000E-01 -0.26414726426E-02 -0.20264437762E-01  0.24039493558E-01  0.00000000000E+00 0.  1.
     999901    1    3    3    0    0  0.57641361998E-01  0.11944842489E+00 -0.81360590689E-02  0.88997564477E+00  0.88000000000E+00 0.  1.
        -11    1    4    4    0    0 -0.13035676257E-01 -0.14153784531E-01  0.36378962248E-02  0.19589637106E-01  0.51100000000E-03 0. -1.
         11    1    4    4    0    0 -0.31945810741E-01 -0.10265316772E+00  0.24762600606E-01  0.11032522457E+00  0.51100000000E-03 0.  1.
</event>
<event>
 8    1  0.1079508E+005  0.1043930E+01  0.7957747E-01            NaN
         13   -1    0    0    0    0  0.00000000000E+00  0.00000000000E+00  0.74505805969E-08  0.10566000000E+00  0.10566000000E+00 0.  1.
     999900   -1    0    0    0    0 -0.00000000000E+00 -0.00000000000E+00 -0.74505805969E-08  0.93827000000E+00  0.93827000000E+00 0. -1.
     999902    2    1    2    0    0 -0.66636689054E-02 -0.19346821676E-01 -0.13400278219E-01  0.10194704119E+01  0.10191769470E+01 0.  0.
     999903    2    3    3    0    0  0.23213207920E-01 -0.75715936350E-01 -0.10429719825E+00  0.13249106892E+00  0.20105266525E-01 0.  0.
         14    1    1    2    0    0  0.66636689054E-02  0.19346821676E-01  0.13400278219E-01  0.24459588070E-01  0.00000000000E+00 0.  1.
     999901    1    3    3    0    0 -0.29876876825E-01  0.56369114675E-01  0.90896920027E-01  0.88697934301E+00  0.88000000000E+00 0. -1.
        -11    1    4    4    0    0  0.15971645104E-02 -0.11092018678E-01 -0.28156793272E-01  0.30309238545E-01  0.51100000000E-03 0. -1.
         11    1    4    4    0    0  0.21616043409E-01 -0.64623917672E-01 -0.76140404973E-01  0.10218183037E+00  0.51100000000E-03 0.  1.
</event>
<event>
 8    1  0.1079508E+005  0.1043930E+01  0.7957747E-01            NaN
         13   -1    0    0    0    0  0.00000000000E+00  0.00000000000E+00  0.74505805969E-08  0.10566000000E+00  0.10566000000E+00 0.  1.
     999900   -1    0    0    0    0 -0.00000000000E+00 -0.00000000000E+00 -0.74505805969E-08  0.93827000000E+00  0.93827000000E+00 0.  1.
     999902    2    1    2    0    0  0.16125123805E-01  0.16985903119E-01  0.19317291301E-02  0.10204295298E+01  0.10201588862E+01 0.  0.
     999903    2    3    3    0    0  0.37667170854E-01  0.11406520619E+00 -0.53594321837E-01  0.13308991431E+00  0.20270346144E-01 0.  0.
         14    1    1    2    0    0 -0.16125123805E-01 -0.16985903119E-01 -0.19317291301E-02  0.23500470207E-01  0.00000000000E+00 0. -1.
     999901    1    3    3    0    0 -0.21542047049E-01 -0.97079303074E-01  0.55526050967E-01  0.88733961549E+00  0.88000000000E+00 0.  1.
        -11    1    4    4    0    0  0.21321319678E-01  0.84557678767E-01 -0.31301323904E-01  0.92653298433E-01  0.51100000000E-03 0. -1.
         11    1    4    4    0    0  0.16345851176E-01  0.29507527426E-01 -0.22292997932E-01  0.40436615873E-01  0.51100000000E-03 0.  1.
</event>
<event>
 8    1  0.1079508E+005  0.1043930E+01  0.7957747E-01            NaN
         13   -1    0    0    0    0  0.00000000000E+00  0.00000000000E+00  0.74505805969E-08  0.10566000000E+00  0.10566000000E+00 0.  1.
     999900   -1    0    0    0    0 -0.00000000000E+00 -0.00000000000E+00 -0.74505805969E-08  0.93827000000E+00  0.93827000000E+00 0.  1.
     999902    2    1    2    0    0  0.23449398924E-01  0.41403994051E-03  0.35458134770E-02  0.10202104188E+01  0.10199346450E+01 0.  0.
     999903    2    3    3    0    0 -0.31720787868E-01 -0.11807259471E+00 -0.38181047984E-01  0.12957920271E+00  0.19637498468E-01 0.  0.
         14    1    1    2    0    0 -0.23449398924E-01 -0.41403994051E-03 -0.35458134770E-02  0.23719581198E-01  0.00000000000E+00 0.  1.
     999901    1    3    3    0    0  0.55170186792E-01  0.11848663465E+00  0.41726861461E-01  0.89063121609E+00  0.88000000000E+00 0. -1.
        -11    1    4    4    0    0 -0.13050903763E-01 -0.38806761748E-01 -0.35967873187E-02  0.41103392152E-01  0.51100000000E-03 0.  1.
         11    1    4    4    0    0 -0.18669884105E-01 -0.79265832964E-01 -0.34584260665E-01  0.88475810563E-01  0.51100000000E-03 0. -1.
</event>
<event>
 8    1  0.1079508E+005  0.1043930E+01  0.7957747E-01            NaN
         13   -1    0    0    0    0  0.00000000000E+00  0.00000000000E+00  0.74505805969E-08  0.10566000000E+00  0.10566000000E+00 0.  1.
     999900   -1    0    0    0    0 -0.00000000000E+00 -0.00000000000E+00 -0.74505805969E-08  0.93827000000E+00  0.93827000000E+00 0.  1.
     999902    2    1    2    0    0  0.11896141366E-01 -0.13942486484E-01 -0.17296798166E-01  0.10187290013E+01  0.10184172464E+01 0.  0.
     999903    2    3    3    0    0 -0.25969264800E-01 -0.12272804997E+00 -0.32326564739E-01  0.13109507806E+00  0.20108101362E-01 0.  0.
         14    1    1    2    0    0 -0.11896141366E-01  0.13942486484E-01  0.17296798166E-01  0.25200998701E-01  0.00000000000E+00 0.  1.
     999901    1    3    3    0    0  0.37865406166E-01  0.10878556348E+00  0.15029766574E-01  0.88763392324E+00  0.88000000000E+00 0. -1.
        -11    1    4    4    0    0  0.29216810130E-02 -0.23222536551E-01 -0.50677557379E-02  0.23953406711E-01  0.51100000000E-03 0. -1.
         11    1    4    4    0    0 -0.28890945813E-01 -0.99505513414E-01 -0.27258809001E-01  0.10714167135E+00  0.51100000000E-03 0.  1.
</event>
<event>
 8    1  0.1079508E+005  0.1043930E+01  0.7957747E-01            NaN
         13   -1    0    0    0    0  0.00000000000E+00  0.00000000000E+00  0.74505805969E-08  0.10566000000E+00  0.10566000000E+00 0. -1.
     999900   -1    0    0    0    0 -0.00000000000E+00 -0.00000000000E+00 -0.74505805969E-08  0.93827000000E+00  0.93827000000E+00 0. -1.
     999902    2    1    2    0    0 -0.66542882549E-02  0.34742752696E-01 -0.97169272771E-02  0.10072454379E+01  0.10065771780E+01 0.  0.
     999903    2    3    3    0    0 -0.10126004452E+00 -0.51926917378E-01  0.20782278506E-01  0.11741844219E+00  0.20129235010E-01 0.  0.
         14    1    1    2    0    0  0.66542882549E-02 -0.34742752696E-01  0.97169272771E-02  0.36684562050E-01  0.00000000000E+00 0. -1.
     999901    1    3    3    0    0  0.94605756264E-01  0.86669670074E-01 -0.30499205783E-01  0.88982699576E+00  0.88000000000E+00 0. -1.
        -11    1    4    4    0    0 -0.67800126760E-01 -0.37902386433E-01  0.49608376384E-02  0.77835204869E-01  0.51100000000E-03 0. -1.
         11    1    4    4    0    0 -0.33459917760E-01 -0.14024530945E-01  0.15821440867E-01  0.39583237321E-01  0.51100000000E-03 0.  1.
</event>
<event>
 8    1  0.1142555E+005  0.1043930E+01  0.7957747E-01            NaN
         13   -1    0    0    0    0  0.00000000000E+00  0.00000000000E+00  0.74505805969E-08  0.10566000000E+00  0.10566000000E+00 0.  1.
     999900   -1    0    0    0    0 -0.00000000000E+00 -0.00000000000E+00 -0.74505805969E-08  0.93827000000E+00  0.93827000000E+00 0. -1.
     999902    2    1    2    0    0 -0.77007058659E-02  0.20396667654E-01  0.19711337205E-02  0.10220391277E+01  0.10218046625E+01 0.  0.
     999903    2    3    3    0    0 -0.48322778507E-01  0.44686672697E-01  0.11449919065E+00  0.13361202279E+00  0.20251378602E-01 0.  0.
         14    1    1    2    0    0  0.77007058659E-02 -0.20396667654E-01 -0.19711337205E-02  0.21890872307E-01  0.00000000000E+00 0. -1.
     999901    1    3    3    0    0  0.40622072641E-01 -0.24290005044E-01 -0.11252805693E+00  0.88842710490E+00  0.88000000000E+00 0. -1.
        -11    1    4    4    0    0 -0.24238507168E-01  0.91579752456E-02  0.41495041565E-01  0.48923137020E-01  0.51100000000E-03 0. -1.
         11    1    4    4    0    0 -0.24084271339E-01  0.35528697452E-01  0.73004149084E-01  0.84688885770E-01  0.51100000000E-03 0.  1.
</event>
<event>
 8    1  0.1079508E+005  0.1043930E+01  0.7957747E-01            NaN
         13   -1    0    0    0    0  0.00000000000E+00  0.00000000000E+00  0.74505805969E-08  0.10566000000E+00  0.10566000000E+00 0. -1.
     999900   -1    0    0    0    0 -0.00000000000E+00 -0.00000000000E+00 -0.74505805969E-08  0.93827000000E+00  0.93827000000E+00 0. -1.
     999902    2    1    2    0    0  0.85182139117E-02  0.15424418877E-01 -0.15175819799E-01  0.10206753623E+01  0.10204104160E+01 0.  0.
     999903    2    3    3    0    0  0.22835769019E-01 -0.11478346123E+00 -0.53466140255E-01  0.13015572019E+00  0.19625698076E-01 0.  0.
         14    1    1    2    0    0 -0.85182139117E-02 -0.15424418877E-01  0.15175819799E-01  0.23254637656E-01  0.00000000000E+00 0.  1.
     999901    1    3    3    0    0 -0.14317555108E-01  0.13020788011E+00  0.38290320456E-01  0.89051964216E+00  0.88000000000E+00 0. -1.
        -11    1    4    4    0    0  0.15719133391E-01 -0.62437423156E-01 -0.19213353599E-01  0.67193281230E-01  0.51100000000E-03 0. -1.
         11    1    4    4    0    0  0.71166356286E-02 -0.52346038075E-01 -0.34252786656E-01  0.62962438958E-01  0.51100000000E-03 0.  1.
</event>
<event>
 8    1  0.1079508E+005  0.1043930E+01  0.7957747E-01            NaN
         13   -1    0    0    0    0  0.00000000000E+00  0.00000000000E+00  0.74505805969E-08  0.10566000000E+00  0.10566000000E+00 0.  1.
     999900   -1    0    0    0    0 -0.00000000000E+00 -0.00000000000E+00 -0.74505805969E-08  0.93827000000E+00  0.93827000000E+00 0.  1.
     999902    2    1    2    0    0  0.22994176285E-03  0.67365286600E-02  0.22509175539E-01  0.10204332625E+01  0.10201627059E+01 0.  0.
     999903    2    3    3    0    0  0.65772273264E-01 -0.10650155438E+00 -0.26841535950E-01  0.12939221212E+00  0.18796369010E-01 0.  0.
         14    1    1    2    0    0 -0.22994176285E-03 -0.67365286600E-02 -0.22509175539E-01  0.23496737540E-01  0.00000000000E+00 0. -1.
     999901    1    3    3    0    0 -0.65542331501E-01  0.11323808304E+00  0.49350711489E-01  0.89104105034E+00  0.88000000000E+00 0. -1.
        -11    1    4    4    0    0  0.51180866776E-01 -0.68289542900E-01 -0.22488268705E-01  0.88254893030E-01  0.51100000000E-03 0. -1.
         11    1    4    4    0    0  0.14591406487E-01 -0.38212011485E-01 -0.43532672450E-02  0.41137319088E-01  0.51100000000E-03 0.  1.
</event>
<event>
 8    1  0.1079508E+005  0.1043930E+01  0.7957747E-01            NaN
         13   -1    0    0    0    0  0.00000000000E+00  0.00000000000E+00  0.74505805969E-08  0.10566000000E+00  0.10566000000E+00 0. -1.
     999900   -1    0    0    0    0 -0.00000000000E+00 -0.00000000000E+00 -0.74505805969E-08  0.93827000000E+00  0.93827000000E+00 0.  1.
     999902    2    1    2    0    0 -0.21920154852E-01 -0.30540162921E-02  0.80098585701E-02  0.10203932619E+01  0.10201217726E+01 0.  0.
     999903    2    3    3    0    0  0.21636521208E-01 -0.10149939332E+00  0.77529998761E-01  0.13111168326E+00  0.20226390818E-01 0.  0.
         14    1    1    2    0    0  0.21920154852E-01  0.30540162921E-02 -0.80098585701E-02  0.23536738061E-01  0.00000000000E+00 0. -1.
     999901    1    3    3    0    0 -0.43556676059E-01  0.98445377025E-01 -0.69520140191E-01  0.88928157868E+00  0.88000000000E+00 0. -1.
        -11    1    4    4    0    0  0.12347961982E-01 -0.76332753408E-01  0.47098623656E-01  0.90541166766E-01  0.51100000000E-03 0. -1.
         11    1    4    4    0    0  0.92885592253E-02 -0.25166639909E-01  0.30431375105E-01  0.40570516493E-01  0.51100000000E-03 0.  1.
</event>
<event>
 8    1  0.1079508E+005  0.1043930E+01  0.7957747E-01            NaN
         13   -1    0    0    0    0  0.00000000000E+00  0.00000000000E+00  0.74505805969E-08  0.10566000000E+00  0.10566000000E+00 0.  1.
     999900   -1    0    0    0    0 -0.00000000000E+00 -0.00000000000E+00 -0.74505805969E-08  0.93827000000E+00  0.93827000000E+00 0.  1.
     999902    2    1    2    0    0 -0.21286272879E-01  0.44562379014E-02 -0.76868471262E-02  0.10208637674E+01  0.10206031454E+01 0.  0.
     999903    2    3    3    0    0  0.85255708903E-01 -0.94289643236E-01  0.60539216270E-02  0.12884877217E+00  0.20156472920E-01 0.  0.
         14    1    1    2    0    0  0.21286272879E-01 -0.44562379014E-02  0.76868471262E-02  0.23066232637E-01  0.00000000000E+00 0.  1.
     999901    1    3    3    0    0 -0.10654198178E+00  0.98745881137E-01 -0.13740768753E-01  0.89201499519E+00  0.88000000000E+00 0. -1.
        -11    1    4    4    0    0  0.69117550367E-01 -0.64369885035E-01  0.85264357728E-03  0.94454782781E-01  0.51100000000E-03 0.  1.
         11    1    4    4    0    0  0.16138158536E-01 -0.29919758201E-01  0.52012780498E-02  0.34393989389E-01  0.51100000000E-03 0. -1.
</event>
<event>
 8    1  0.1079508E+005  0.1043930E+01  0.7957747E-01            NaN
         13   -1    0    0    0    0  0.00000000000E+00  0.00000000000E+00  0.74505805969E-08  0.10566000000E+00  0.10566000000E+00 0. -1.
     999900   -1    0    0    0    0 -0.00000000000E+00 -0.00000000000E+00 -0.74505805969E-08  0.93827000000E+00  0.93827000000E+00 0.  1.
     999902    2    1    2    0    0 -0.88837695174E-02  0.19731878752E-01  0.11777729650E-01  0.10192929686E+01  0.10189951779E+01 0.  0.
     999903    2    3    3    0    0  0.56462253570E-02  0.12842028621E+00  0.24846649389E-01  0.13239100823E+00  0.19656380737E-01 0.  0.
         14    1    1    2    0    0  0.88837695174E-02 -0.19731878752E-01 -0.11777729650E-01  0.24637031389E-01  0.00000000000E+00 0. -1.
     999901    1    3    3    0    0 -0.14529994874E-01 -0.10868840746E+00 -0.13068919739E-01  0.88690196038E+00  0.88000000000E+00 0.  1.
        -11    1    4    4    0    0 -0.33279845747E-02  0.60023767253E-01  0.36737857484E-02  0.60230274276E-01  0.51100000000E-03 0. -1.
         11    1    4    4    0    0  0.89742099317E-02  0.68396518954E-01  0.21172863640E-01  0.72160733954E-01  0.51100000000E-03 0.  1.
</event>
<event>
 8    1  0.1079508E+005  0.1043930E+01  0.7957747E-01            NaN
         13   -1    0    0    0    0  0.00000000000E+00  0.00000000000E+00  0.74505805969E-08  0.10566000000E+00  0.10566000000E+00 0. -1.
     999900   -1    0    0    0    0 -0.00000000000E+00 -0.00000000000E+00 -0.74505805969E-08  0.93827000000E+00  0.93827000000E+00 0.  1.
     999902    2    1    2    0    0 -0.14143444677E-01 -0.15965817117E-01  0.24281419337E-02  0.10224628107E+01  0.10222374279E+01 0.  0.
     999903    2    3    3    0    0 -0.79629485071E-01 -0.12670900610E-01 -0.10460406366E+00  0.13355608274E+00  0.19844658922E-01 0.  0.
         14    1    1    2    0    0  0.14143444677E-01  0.15965817117E-01 -0.24281419337E-02  0.21467189308E-01  0.00000000000E+00 0.  1.
     999901    1    3    3    0    0  0.65486040394E-01 -0.32949165075E-02  0.10703220560E+00  0.88890672795E+00  0.88000000000E+00 0. -1.
        -11    1    4    4    0    0 -0.68461986172E-01 -0.39274556703E-02 -0.90501765978E-01  0.11354866457E+00  0.51100000000E-03 0.  1.
         11    1    4    4    0    0 -0.11167498898E-01 -0.87434449394E-02 -0.14102297683E-01  0.20007418174E-01  0.51100000000E-03 0. -1.
</event>
<event>
 8    1  0.1079508E+005  0.1043930E+01  0.7957747E-01            NaN
         13   -1    0    0    0    0  0.00000000000E+00  0.00000000000E+00  0.74505805969E-08  0.10566000000E+00  0.10566000000E+00 0. -1.
     999900   -1    0    0    0    0 -0.00000000000E+00 -0.00000000000E+00 -0.74505805969E-08  0.93827000000E+00  0.93827000000E+00 0. -1.
     999902    2    1    2    0    0  0.19255893140E-01 -0.43595749637E-02 -0.84752262274E-02  0.10224445451E+01  0.10222187745E+01 0.  0.
     999903    2    3    3    0    0 -0.21973234657E-01 -0.44958529494E-01  0.11968882208E+00  0.13128006003E+00  0.20123310279E-01 0.  0.
         14    1    1    2    0    0 -0.19255893140E-01  0.43595749637E-02  0.84752262274E-02  0.21485454942E-01  0.00000000000E+00 0. -1.
     999901    1    3    3    0    0  0.41229127797E-01  0.40598954530E-01 -0.12816404831E+00  0.89116448502E+00  0.88000000000E+00 0. -1.
        -11    1    4    4    0    0 -0.52016852181E-02 -0.43416409217E-02  0.37197321145E-01  0.37812817885E-01  0.51100000000E-03 0. -1.
         11    1    4    4    0    0 -0.16771549439E-01 -0.40616888572E-01  0.82491500933E-01  0.93467242150E-01  0.51100000000E-03 0.  1.
</event>
<event>
 8    1  0.1079508E+005  0.1043930E+01  0.7957747E-01            NaN
         13   -1    0    0    0    0  0.00000000000E+00  0.00000000000E+00  0.74505805969E-08  0.10566000000E+00  0.10566000000E+00 0. -1.
     999900   -1    0    0    0    0 -0.00000000000E+00 -0.00000000000E+00 -0.74505805969E-08  0.93827000000E+00  0.93827000000E+00 0.  1.
     999902    2    1    2    0    0  0.13796681952E-01  0.21146169255E-01  0.12455310483E-01  0.10157760719E+01  0.10153858304E+01 0.  0.
     999903    2    3    3    0    0 -0.50165612174E-01 -0.27986656842E-01  0.11123535453E+00  0.12658390665E+00  0.18717364131E-01 0.  0.
         14    1    1    2    0    0 -0.13796681952E-01 -0.21146169255E-01 -0.12455310483E-01  0.28153928079E-01  0.00000000000E+00 0.  1.
     999901    1    3    3    0    0  0.63962294126E-01  0.49132826097E-01 -0.98780044048E-01  0.88919216527E+00  0.88000000000E+00 0.  1.
        -11    1    4    4    0    0 -0.32450762196E-01 -0.27307376485E-01  0.72813153256E-01  0.84266014417E-01  0.51100000000E-03 0.  1.
         11    1    4    4    0    0 -0.17714849978E-01 -0.67928035709E-03  0.38422201276E-01  0.42317892237E-01  0.51100000000E-03 0. -1.
</event>
<event>
 8    1  0.1185273E+005  0.1043930E+01  0.7957747E-01            NaN
         13   -1    0    0    0    0  0.00000000000E+00  0.00000000000E+00  0.74505805969E-08  0.10566000000E+00  0.10566000000E+00 0. -1.
     999900   -1    0    0    0    0 -0.00000000000E+00 -0.00000000000E+00 -0.74505805969E-08  0.93827000000E+00  0.93827000000E+00 0.  1.
     999902    2    1    2    0    0 -0.60012406037E-02 -0.82677967471E-02  0.21519295568E-01  0.10201087609E+01  0.10198305901E+01 0.  0.
     999903    2    3    3    0    0 -0.81822010830E-01 -0.91422288541E-01  0.46854329774E-01  0.13258111473E+00  0.18153442284E-01 0.  0.
         14    1    1    2    0    0  0.60012406037E-02  0.82677967471E-02 -0.21519295568E-01  0.23821239128E-01  0.00000000000E+00 0.  1.
     999901    1    3    3    0    0  0.75820770227E-01  0.83154491794E-01 -0.25335034206E-01  0.88752764614E+00  0.88000000000E+00 0.  1.
        -11    1    4    4    0    0 -0.27003823479E-01 -0.41691190190E-01  0.23608803209E-01  0.54999986654E-01  0.51100000000E-03 0.  1.
         11    1    4    4    0    0 -0.54818187352E-01 -0.49731098351E-01  0.23245526565E-01  0.77581128079E-01  0.51100000000E-03 0. -1.
</event>
<event>
 8    1  0.1250490E+005  0.1043930E+01  0.7957747E-01            NaN
         13   -1    0    0    0    0  0.00000000000E+00  0.00000000000E+00  0.74505805969E-08  0.10566000000E+00  0.10566000000E+00 0. -1.
     999900   -1    0    0    0    0 -0.00000000000E+00 -0.00000000000E+00 -0.74505805969E-08  0.93827000000E+00  0.93827000000E+00 0. -1.
     999902    2    1    2    0    0  0.14901113606E-01  0.18021508123E-01  0.51618582742E-02  0.10199829183E+01  0.10197017657E+01 0.  0.
     999903    2    3    3    0    0  0.24824348644E-01  0.35317398426E-01  0.12293257135E+00  0.13191334935E+00  0.20619110600E-01 0.  0.
         14    1    1    2    0    0 -0.14901113606E-01 -0.18021508123E-01 -0.51618582742E-02  0.23947081713E-01  0.00000000000E+00 0.  1.
     999901    1    3    3    0    0 -0.99232350382E-02 -0.17295890303E-01 -0.11777071307E+00  0.88806956894E+00  0.88000000000E+00 0. -1.
        -11    1    4    4    0    0  0.20300448404E-01  0.24031204658E-01  0.59319587001E-01  0.67146716418E-01  0.51100000000E-03 0. -1.
         11    1    4    4    0    0  0.45239002397E-02  0.11286193768E-01  0.63612984344E-01  0.64766632932E-01  0.51100000000E-03 0.  1.
</event>
<event>
 8    1  0.1079508E+005  0.1043930E+01  0.7957747E-01            NaN
         13   -1    0    0    0    0  0.00000000000E+00  0.00000000000E+00  0.74505805969E-08  0.10566000000E+00  0.10566000000E+00 0.  1.
     999900   -1    0    0    0    0 -0.00000000000E+00 -0.00000000000E+00 -0.74505805969E-08  0.93827000000E+00  0.93827000000E+00 0. -1.
     999902    2    1    2    0    0  0.15432846416E-01  0.10259512291E-01 -0.16018287224E-01  0.10194347787E+01  0.10191404477E+01 0.  0.
     999903    2    3    3    0    0 -0.11908355745E-01 -0.11122704861E+00 -0.62225305325E-01  0.12946758024E+00  0.19406195698E-01 0.  0.
         14    1    1    2    0    0 -0.15432846416E-01 -0.10259512291E-01  0.16018287224E-01  0.24495221300E-01  0.00000000000E+00 0. -1.
     999901    1    3    3    0    0  0.27341202161E-01  0.12148656090E+00  0.46207018101E-01  0.88996719846E+00  0.88000000000E+00 0. -1.
        -11    1    4    4    0    0 -0.15501441554E-01 -0.66634524761E-01 -0.42739891076E-01  0.80668543997E-01  0.51100000000E-03 0. -1.
         11    1    4    4    0    0  0.35930858090E-02 -0.44592523847E-01 -0.19485414248E-01  0.48799036242E-01  0.51100000000E-03 0.  1.
</event>
<event>
 8    1  0.1079508E+005  0.1043930E+01  0.7957747E-01            NaN
         13   -1    0    0    0    0  0.00000000000E+00  0.00000000000E+00  0.74505805969E-08  0.10566000000E+00  0.10566000000E+00 0. -1.
     999900   -1    0    0    0    0 -0.00000000000E+00 -0.00000000000E+00 -0.74505805969E-08  0.93827000000E+00  0.93827000000E+00 0. -1.
     999902    2    1    2    0    0  0.13335859051E-01  0.19171722056E-01 -0.47271670429E-02  0.10201025752E+01  0.10198242583E+01 0.  0.
     999903    2    3    3    0    0 -0.86263103987E-01 -0.72690701671E-01 -0.57172891570E-01  0.12818934382E+00  0.20940561592E-01 0.  0.
         14    1    1    2    0    0 -0.13335859051E-01 -0.19171722056E-01  0.47271670429E-02  0.23827424776E-01  0.00000000000E+00 0.  1.
     999901    1    3    3    0    0  0.99598963038E-01  0.91862423727E-01  0.52445724527E-01  0.89191323140E+00  0.88000000000E+00 0.  1.
        -11    1    4    4    0    0 -0.54842321836E-01 -0.38931654848E-01 -0.24140467990E-01  0.71458920572E-01  0.51100000000E-03 0. -1.
         11    1    4    4    0    0 -0.31420782151E-01 -0.33759046823E-01 -0.33032423580E-01  0.56730423248E-01  0.51100000000E-03 0.  1.
</event>
<event>
 8    1  0.1079508E+005  0.1043930E+01  0.7957747E-01            NaN
         13   -1    0    0    0    0  0.00000000000E+00  0.00000000000E+00  0.74505805969E-08  0.10566000000E+00  0.10566000000E+00 0.  1.
     999900   -1    0    0    0    0 -0.00000000000E+00 -0.00000000000E+00 -0.74505805969E-08  0.93827000000E+00  0.93827000000E+00 0. -1.
     999902    2    1    2    0    0 -0.21569597193E-01  0.17029578285E-02  0.10096055470E-01  0.10200536953E+01  0.10197742218E+01 0.  0.
     999903    2    3    3    0    0  0.57949093919E-01 -0.91679395971E-01 -0.65678052756E-01  0.12832212041E+00  0.19742108335E-01 0.  0.
         14    1    1    2    0    0  0.21569597193E-01 -0.17029578285E-02 -0.10096055470E-01  0.23876304665E-01  0.00000000000E+00 0. -1.
     999901    1    3    3    0    0 -0.79518691112E-01  0.93382353799E-01  0.75774108226E-01  0.89173157492E+00  0.88000000000E+00 0. -1.
        -11    1    4    4    0    0  0.11524904001E-01 -0.91568934974E-02 -0.14595887950E-01  0.20735794578E-01  0.51100000000E-03 0. -1.
         11    1    4    4    0    0  0.46424189918E-01 -0.82522502473E-01 -0.51082164807E-01  0.10758632583E+00  0.51100000000E-03 0.  1.
</event>
<event>
 8    1  0.1079508E+005  0.1043930E+01  0.7957747E-01            NaN
         13   -1    0    0    0    0  0.00000000000E+00  0.00000000000E+00  0.74505805969E-08  0.10566000000E+00  0.10566000000E+00 0. -1.
     999900   -1    0    0    0    0 -0.00000000000E+00 -0.00000000000E+00 -0.74505805969E-08  0.93827000000E+00  0.93827000000E+00 0. -1.
     999902    2    1    2    0    0  0.15983089044E-01  0.15160207346E-01  0.95390858922E-02  0.10199240594E+01  0.10196415065E+01 0.  0.
     999903    2    3    3    0    0 -0.74764312204E-01  0.70594918699E-01 -0.75939450361E-01  0.12941034354E+00  0.20171563374E-01 0.  0.
         14    1    1    2    0    0 -0.15983089044E-01 -0.15160207346E-01 -0.95390858922E-02  0.24005940553E-01  0.00000000000E+00 0.  1.
     999901    1    3    3    0    0  0.90747401248E-01 -0.55434711353E-01  0.85478536253E-01  0.89051371591E+00  0.88000000000E+00 0.  1.
        -11    1    4    4    0    0 -0.11847575947E-01  0.13405457057E-01 -0.47512794774E-02  0.18517751278E-01  0.51100000000E-03 0. -1.
         11    1    4    4    0    0 -0.62916736256E-01  0.57189461642E-01 -0.71188170884E-01  0.11089259226E+00  0.51100000000E-03 0.  1.
</event>
<event>
 7    1  0.1079508E+005  0.1043930E+01  0.7957747E-01            NaN
         13   -1    0    0    0    0  0.00000000000E+00  0.00000000000E+00  0.74505805969E-08  0.10566000000E+00  0.10566000000E+00 0.  1.
     999900   -1    0    0    0    0 -0.00000000000E+00 -0.00000000000E+00 -0.74505805969E-08  0.93827000000E+00  0.93827000000E+00 0. -1.
     999902    2    1    2    0    0  0.59313915067E-02  0.22019762507E-01  0.22993531888E-02  0.10210097389E+01  0.10207524423E+01 0.  0.
         14    1    1    2    0    0 -0.59313915067E-02 -0.22019762507E-01 -0.22993531888E-02  0.22920261150E-01  0.00000000000E+00 0.  1.
     999901    1    3    3    0    0  0.12108765611E+00 -0.35965462069E-01  0.28224111749E-01  0.88946744483E+00  0.88000000000E+00 0. -1.
        -11    1    3    3    0    0 -0.54607557298E-01  0.28379406865E-01 -0.11293788438E-01  0.62571453766E-01  0.51100000000E-03 0.  1.
         11    1    3    3    0    0 -0.60548707300E-01  0.29605817712E-01 -0.14630970123E-01  0.68970840258E-01  0.51100000000E-03 0. -1.
</event>
<event>
 8    1  0.1079508E+005  0.1043930E+01  0.7957747E-01            NaN
         13   -1    0    0    0    0  0.00000000000E+00  0.00000000000E+00  0.74505805969E-08  0.10566000000E+00  0.10566000000E+00 0. -1.
     999900   -1    0    0    0    0 -0.00000000000E+00 -0.00000000000E+00 -0.74505805969E-08  0.93827000000E+00  0.93827000000E+00 0. -1.
     999902    2    1    2    0    0  0.87545107554E-02  0.51264674797E-02 -0.21680447178E-01  0.10199933353E+01  0.10197124301E+01 0.  0.
     999903    2    3    3    0    0 -0.78945334138E-01 -0.69253798809E-01 -0.75028231218E-01  0.13090972119E+00  0.21901260027E-01 0.  0.
         14    1    1    2    0    0 -0.87545107554E-02 -0.51264674797E-02  0.21680447178E-01  0.23936664705E-01  0.00000000000E+00 0. -1.
     999901    1    3    3    0    0  0.87699844893E-01  0.74380266289E-01  0.53347784041E-01  0.88908361410E+00  0.88000000000E+00 0. -1.
        -11    1    4    4    0    0 -0.40801424423E-01 -0.46291139233E-01 -0.52450091495E-01  0.80987029981E-01  0.51100000000E-03 0. -1.
         11    1    4    4    0    0 -0.38143909715E-01 -0.22962659576E-01 -0.22578139723E-01  0.49922691209E-01  0.51100000000E-03 0.  1.
</event>
<event>
 8    1  0.1079508E+005  0.1043930E+01  0.7957747E-01            NaN
         13   -1    0    0    0    0  0.00000000000E+00  0.00000000000E+00  0.74505805969E-08  0.10566000000E+00  0.10566000000E+00 0. -1.
     999900   -1    0    0    0    0 -0.00000000000E+00 -0.00000000000E+00 -0.74505805969E-08  0.93827000000E+00  0.93827000000E+00 0. -1.
     999902    2    1    2    0    0  0.12729983186E-01 -0.16812143745E-01  0.95289004600E-02  0.10207891143E+01  0.10205267832E+01 0.  0.
     999903    2    3    3    0    0 -0.12584376481E-02  0.11224903324E+00  0.61861734253E-01  0.12972728205E+00  0.20021598700E-01 0.  0.
         14    1    1    2    0    0 -0.12729983186E-01  0.16812143745E-01 -0.95289004600E-02  0.23140885748E-01  0.00000000000E+00 0.  1.
     999901    1    3    3    0    0  0.13988420834E-01 -0.12906117698E+00 -0.52332833793E-01  0.89106183221E+00  0.88000000000E+00 0. -1.
        -11    1    4    4    0    0  0.91930249910E-02  0.42108542648E-01  0.22666266515E-01  0.48699710791E-01  0.51100000000E-03 0. -1.
         11    1    4    4    0    0 -0.10451462639E-01  0.70140490589E-01  0.39195467738E-01  0.81027571256E-01  0.51100000000E-03 0.  1.
</event>
<event>
 8    1  0.1079508E+005  0.1043930E+01  0.7957747E-01            NaN
         13   -1    0    0    0    0  0.00000000000E+00  0.00000000000E+00  0.74505805969E-08  0.10566000000E+00  0.10566000000E+00 0.  1.
     999900   -1    0    0    0    0 -0.00000000000E+00 -0.00000000000E+00 -0.74505805969E-08  0.93827000000E+00  0.93827000000E+00 0.  1.
     999902    2    1    2    0    0 -0.73924162110E-02 -0.52685499627E-03 -0.21822201495E-01  0.10208836582E+01  0.10206234906E+01 0.  0.
     999903    2    3    3    0    0  0.52627086515E-01 -0.55355768730E-01  0.10133570981E+00  0.12859647256E+00  0.20838793294E-01 0.  0.
         14    1    1    2    0    0  0.73924162110E-02  0.52685499627E-03  0.21822201495E-01  0.23046341829E-01  0.00000000000E+00 0.  1.
     999901    1    3    3    0    0 -0.60019502726E-01  0.54828913733E-01 -0.12315791130E+00  0.89228718561E+00  0.88000000000E+00 0.  1.
        -11    1    4    4    0    0  0.23629329739E-01 -0.20236620105E-01  0.25931175124E-01  0.40503740340E-01  0.51100000000E-03 0. -1.
         11    1    4    4    0    0  0.28997756775E-01 -0.35119148625E-01  0.75404534684E-01  0.88092732221E-01  0.51100000000E-03 0.  1.
</event>
<event>
 8    1  0.1079508E+005  0.1043930E+01  0.7957747E-01            NaN
         13   -1    0    0    0    0  0.00000000000E+00  0.00000000000E+00  0.74505805969E-08  0.10566000000E+00  0.10566000000E+00 0.  1.
     999900   -1    0    0    0    0 -0.00000000000E+00 -0.00000000000E+00 -0.74505805969E-08  0.93827000000E+00  0.93827000000E+00 0. -1.
     999902    2    1    2    0    0 -0.26886364214E-02  0.16514853729E-01 -0.16402440375E-01  0.10204990544E+01  0.10202300284E+01 0.  0.
     999903    2    3    3    0    0  0.58235267487E-01  0.65079198667E-02 -0.11721901307E+00  0.13259374298E+00  0.20176824619E-01 0.  0.
         14    1    1    2    0    0  0.26886364214E-02 -0.16514853729E-01  0.16402440375E-01  0.23430945558E-01  0.00000000000E+00 0.  1.
     999901    1    3    3    0    0 -0.60923903909E-01  0.10006933862E-01  0.10081657270E+00  0.88790531146E+00  0.88000000000E+00 0.  1.
        -11    1    4    4    0    0  0.40629954479E-01 -0.48499017294E-02 -0.80940849839E-01  0.90697282437E-01  0.51100000000E-03 0.  1.
         11    1    4    4    0    0  0.17605313008E-01  0.11357821596E-01 -0.36278163232E-01  0.41896460542E-01  0.51100000000E-03 0. -1.
</event>
<event>
 8    1  0.1079508E+005  0.1043930E+01  0.7957747E-01            NaN
         13   -1    0    0    0    0  0.00000000000E+00  0.00000000000E+00  0.74505805969E-08  0.10566000000E+00  0.10566000000E+00 0. -1.
     999900   -1    0    0    0    0 -0.00000000000E+00 -0.00000000000E+00 -0.74505805969E-08  0.93827000000E+00  0.93827000000E+00 0. -1.
     999902    2    1    2    0    0  0.41555010563E-02  0.10638124062E-01  0.20806154539E-01  0.10201953431E+01  0.10199192145E+01 0.  0.
     999903    2    3    3    0    0 -0.31844740136E-01  0.11897828029E+00 -0.39304339431E-01  0.13078718126E+00  0.19762009733E-01 0.  0.
         14    1    1    2    0    0 -0.41555010563E-02 -0.10638124062E-01 -0.20806154539E-01  0.23734656924E-01  0.00000000000E+00 0. -1.
     999901    1    3    3    0    0  0.36000241193E-01 -0.10834015623E+00  0.60110493970E-01  0.88940816181E+00  0.88000000000E+00 0.  1.
        -11    1    4    4    0    0 -0.14033111222E-01  0.53377011759E-01 -0.73751408527E-02  0.55683816487E-01  0.51100000000E-03 0. -1.
         11    1    4    4    0    0 -0.17811628914E-01  0.65601268532E-01 -0.31929198579E-01  0.75103364775E-01  0.51100000000E-03 0.  1.
</event>
<event>
 8    1  0.1079508E+005  0.1043930E+01  0.7957747E-01            NaN
         13   -1    0    0    0    0  0.00000000000E+00  0.00000000000E+00  0.74505805969E-08  0.10566000000E+00  0.10566000000E+00 0.  1.
     999900   -1    0    0    0    0 -0.00000000000E+00 -0.00000000000E+00 -0.74505805969E-08  0.93827000000E+00  0.93827000000E+00 0.  1.
     999902    2    1    2    0    0 -0.81673643030E-02  0.16389518813E-02 -0.22098433106E-01  0.10203136339E+01  0.10200402829E+01 0.  0.
     999903    2    3    3    0    0 -0.10455013069E-01  0.10611471647E+00 -0.76195172593E-01  0.13248094922E+00  0.19387037688E-01 0.  0.
         14    1    1    2    0    0  0.81673643030E-02 -0.16389518813E-02  0.22098433106E-01  0.23616366119E-01  0.00000000000E+00 0.  1.
     999901    1    3    3    0    0  0.22876487656E-02 -0.10447576459E+00  0.54096739487E-01  0.88783268466E+00  0.88000000000E+00 0. -1.
        -11    1    4    4    0    0 -0.10820549175E-01  0.50931491345E-01 -0.46504291430E-01  0.69814119901E-01  0.51100000000E-03 0. -1.
         11    1    4    4    0    0  0.36553610671E-03  0.55183225128E-01 -0.29690881163E-01  0.62666829323E-01  0.51100000000E-03 0.  1.
</event>
<event>
 8    1  0.1079508E+005  0.1043930E+01  0.7957747E-01            NaN
         13   -1    0    0    0    0  0.00000000000E+00  0.00000000000E+00  0.74505805969E-08  0.10566000000E+00  0.10566000000E+00 0.  1.
     999900   -1    0    0    0    0 -0.00000000000E+00 -0.00000000000E+00 -0.74505805969E-08  0.93827000000E+00  0.93827000000E+00 0.  1.
     999902    2    1    2    0    0 -0.75779723929E-02 -0.16440222752E-01 -0.14299361582E-01  0.10208610093E+01  0.10206003243E+01 0.  0.
     999903    2    3    3    0    0  0.17220358195E-01  0.10240358223E+00 -0.76161857268E-01  0.13037475138E+00  0.20344849612E-01 0.  0.
         14    1    1    2    0    0  0.75779723929E-02  0.16440222752E-01  0.14299361582E-01  0.23068990689E-01  0.00000000000E+00 0. -1.
     999901    1    3    3    0    0 -0.24798330588E-01 -0.11884380498E+00  0.61862495686E-01  0.89048625793E+00  0.88000000000E+00 0. -1.
        -11    1    4    4    0    0  0.40781493843E-02  0.33748878912E-01 -0.37004280456E-01  0.50251328572E-01  0.51100000000E-03 0.  1.
         11    1    4    4    0    0  0.13142208811E-01  0.68654703320E-01 -0.39157576813E-01  0.80123422813E-01  0.51100000000E-03 0. -1.
</event>
<event>
 7    1  0.1079508E+005  0.1043930E+01  0.7957747E-01            NaN
         13   -1    0    0    0    0  0.00000000000E+00  0.00000000000E+00  0.74505805969E-08  0.10566000000E+00  0.10566000000E+00 0.  1.
     999900   -1    0    0    0    0 -0.00000000000E+00 -0.00000000000E+00 -0.74505805969E-08  0.93827000000E+00  0.93827000000E+00 0.  1.
     999902    2    1    2    0    0  0.16553213765E-01 -0.16349847068E-01 -0.61199507462E-02  0.10198721493E+01  0.10195883584E+01 0.  0.
         14    1    1    2    0    0 -0.16553213765E-01  0.16349847068E-01  0.61199507462E-02  0.24057850740E-01  0.00000000000E+00 0. -1.
     999901    1    3    3    0    0 -0.61899800792E-01  0.80069996834E-01 -0.52017798321E-01  0.88732668227E+00  0.88000000000E+00 0. -1.
        -11    1    3    3    0    0  0.23340471562E-01 -0.27232130658E-01  0.14286868392E-01  0.38610131861E-01  0.51100000000E-03 0.  1.
         11    1    3    3    0    0  0.55112542995E-01 -0.69187713244E-01  0.31610979183E-01  0.93935335126E-01  0.51100000000E-03 0. -1.
</event>
<event>
 8    1  0.1079508E+005  0.1043930E+01  0.7957747E-01            NaN
         13   -1    0    0    0    0  0.00000000000E+00  0.00000000000E+00  0.74505805969E-08  0.10566000000E+00  0.10566000000E+00 0.  1.
     999900   -1    0    0    0    0 -0.00000000000E+00 -0.00000000000E+00 -0.74505805969E-08  0.93827000000E+00  0.93827000000E+00 0.  1.
     999902    2    1    2    0    0 -0.10860407180E-01  0.12983817112E-01  0.19408645984E-01  0.10181768742E+01  0.10178511304E+01 0.  0.
     999903    2    3    3    0    0 -0.13323931269E-01  0.10991828062E+00 -0.63038500109E-01  0.12902003139E+00  0.20316506698E-01 0.  0.
         14    1    1    2    0    0  0.10860407180E-01 -0.12983817112E-01 -0.19408645984E-01  0.25753125827E-01  0.00000000000E+00 0. -1.
     999901    1    3    3    0    0  0.24635240889E-02 -0.96934463512E-01  0.82447146092E-01  0.88915684278E+00  0.88000000000E+00 0.  1.
        -11    1    4    4    0    0 -0.77473503299E-02  0.78976734196E-01 -0.34413596341E-01  0.86497992552E-01  0.51100000000E-03 0.  1.
         11    1    4    4    0    0 -0.55765809388E-02  0.30941546428E-01 -0.28624903768E-01  0.42522038839E-01  0.51100000000E-03 0. -1.
</event>
<event>
 8    1  0.1079508E+005  0.1043930E+01  0.7957747E-01            NaN
         13   -1    0    0    0    0  0.00000000000E+00  0.00000000000E+00  0.74505805969E-08  0.10566000000E+00  0.10566000000E+00 0.  1.
     999900   -1    0    0    0    0 -0.00000000000E+00 -0.00000000000E+00 -0.74505805969E-08  0.93827000000E+00  0.93827000000E+00 0. -1.
     999902    2    1    2    0    0 -0.14929251795E-02 -0.17575452920E-03 -0.24107050996E-01  0.10197761261E+01  0.10194900381E+01 0.  0.
     999903    2    3    3    0    0  0.71721438900E-01  0.71408919800E-01  0.76379469587E-01  0.12815835515E+00  0.18642478256E-01 0.  0.
         14    1    1    2    0    0  0.14929251795E-02  0.17575452920E-03  0.24107050996E-01  0.24153873871E-01  0.00000000000E+00 0.  1.
     999901    1    3    3    0    0 -0.73214364079E-01 -0.71584674329E-01 -0.10048652058E+00  0.89161777098E+00  0.88000000000E+00 0. -1.
        -11    1    4    4    0    0  0.21882380217E-01  0.25731428101E-01  0.15449601539E-01  0.37146954987E-01  0.51100000000E-03 0.  1.
         11    1    4    4    0    0  0.49839058683E-01  0.45677491698E-01  0.60929868049E-01  0.91011400163E-01  0.51100000000E-03 0. -1.
</event>
<event>
 8    1  0.1079508E+005  0.1043930E+01  0.7957747E-01            NaN
         13   -1    0    0    0    0  0.00000000000E+00  0.00000000000E+00  0.74505805969E-08  0.10566000000E+00  0.10566000000E+00 0. -1.
     999900   -1    0    0    0    0 -0.00000000000E+00 -0.00000000000E+00 -0.74505805969E-08  0.93827000000E+00  0.93827000000E+00 0. -1.
     999902    2    1    2    0    0 -0.12333385524E-01  0.64338808196E-02  0.19010792016E-01  0.10203733145E+01  0.10201013594E+01 0.  0.
     999903    2    3    3    0    0  0.20931036871E-01  0.10210973061E+00 -0.74766529057E-01  0.12961264178E+00  0.18571420344E-01 0.  0.
         14    1    1    2    0    0  0.12333385524E-01 -0.64338808196E-02 -0.19010792016E-01  0.23556685547E-01  0.00000000000E+00 0.  1.
     999901    1    3    3    0    0 -0.33264422395E-01 -0.95675849786E-01  0.93777321073E-01  0.89076067267E+00  0.88000000000E+00 0.  1.
        -11    1    4    4    0    0  0.60907253870E-02  0.64518677287E-01 -0.52915890103E-01  0.83666655252E-01  0.51100000000E-03 0.  1.
         11    1    4    4    0    0  0.14840311484E-01  0.37591053319E-01 -0.21850638955E-01  0.45945986530E-01  0.51100000000E-03 0. -1.
</event>
<event>
 8    1  0.1079508E+005  0.1043930E+01  0.7957747E-01            NaN
         13   -1    0    0    0    0  0.00000000000E+00  0.00000000000E+00  0.74505805969E-08  0.10566000000E+00  0.10566000000E+00 0.  1.
     999900   -1    0    0    0    0 -0.00000000000E+00 -0.00000000000E+00 -0.74505805969E-08  0.93827000000E+00  0.93827000000E+00 0.  1.
     999902    2    1    2    0    0 -0.22296887679E-01 -0.63720683597E-02 -0.56361412233E-02  0.10200653705E+01  0.10197861734E+01 0.  0.
     999903    2    3    3    0    0 -0.64756421021E-01  0.11222194642E+00  0.34220764414E-02  0.13104939556E+00  0.19366831097E-01 0.  0.
         14    1    1    2    0    0  0.22296887679E-01  0.63720683597E-02  0.56361412233E-02  0.23864629544E-01  0.00000000000E+00 0.  1.
     999901    1    3    3    0    0  0.42459533342E-01 -0.11859401478E+00 -0.90582176647E-02  0.88901597490E+00  0.88000000000E+00 0. -1.
        -11    1    4    4    0    0 -0.33225565860E-01  0.58838278184E-01 -0.78609225070E-02  0.68028938181E-01  0.51100000000E-03 0. -1.
         11    1    4    4    0    0 -0.31530855162E-01  0.53383668239E-01  0.11282998948E-01  0.63020457378E-01  0.51100000000E-03 0.  1.
</event>
<event>
 8    1  0.1079508E+005  0.1043930E+01  0.7957747E-01            NaN
         13   -1    0    0    0    0  0.00000000000E+00  0.00000000000E+00  0.74505805969E-08  0.10566000000E+00  0.10566000000E+00 0. -1.
     999900   -1    0    0    0    0 -0.00000000000E+00 -0.00000000000E+00 -0.74505805969E-08  0.93827000000E+00  0.93827000000E+00 0. -1.
     999902    2    1    2    0    0  0.11459264807E-01 -0.12571153154E-01  0.16861125153E-01  0.10199790881E+01  0.10196978444E+01 0.  0.
     999903    2    3    3    0    0  0.53192160156E-01  0.13004618978E-01 -0.11484082815E+00  0.12883310721E+00  0.20273817774E-01 0.  0.
         14    1    1    2    0    0 -0.11459264807E-01  0.12571153154E-01 -0.16861125153E-01  0.23950911945E-01  0.00000000000E+00 0. -1.
     999901    1    3    3    0    0 -0.41732895348E-01 -0.25575772132E-01  0.13170195330E+00  0.89114598085E+00  0.88000000000E+00 0.  1.
        -11    1    4    4    0    0  0.41769378101E-01  0.23893244613E-02 -0.93133850132E-01  0.10210075896E+00  0.51100000000E-03 0. -1.
         11    1    4    4    0    0  0.11422782054E-01  0.10615294517E-01 -0.21706978015E-01  0.26732348252E-01  0.51100000000E-03 0.  1.
</event>
<event>
 8    1  0.1079508E+005  0.1043930E+01  0.7957747E-01            NaN
         13   -1    0    0    0    0  0.00000000000E+00  0.00000000000E+00  0.74505805969E-08  0.10566000000E+00  0.10566000000E+00 0.  1.
     999900   -1    0    0    0    0 -0.00000000000E+00 -0.00000000000E+00 -0.74505805969E-08  0.93827000000E+00  0.93827000000E+00 0.  1.
     999902    2    1    2    0    0  0.11763276294E-01  0.19499373579E-01 -0.53849323982E-02  0.10205291937E+01  0.10202608673E+01 0.  0.
     999903    2    3    3    0    0 -0.82817008441E-02  0.88219977282E-01 -0.97102726765E-01  0.13287133376E+00  0.19352023930E-01 0.  0.
         14    1    1    2    0    0 -0.11763276294E-01 -0.19499373579E-01  0.53849323982E-02  0.23400806313E-01  0.00000000000E+00 0. -1.
     999901    1    3    3    0    0  0.20044977138E-01 -0.68720603703E-01  0.91717794367E-01  0.88765785992E+00  0.88000000000E+00 0. -1.
        -11    1    4    4    0    0 -0.48918067320E-02  0.24841627783E-01 -0.40836512870E-01  0.48051203403E-01  0.51100000000E-03 0.  1.
         11    1    4    4    0    0 -0.33898941121E-02  0.63378349499E-01 -0.56266213895E-01  0.84820130360E-01  0.51100000000E-03 0. -1.
</event>
<event>
 8    1  0.1079508E+005  0.1043930E+01  0.7957747E-01            NaN
         13   -1    0    0    0    0  0.00000000000E+00  0.00000000000E+00  0.74505805969E-08  0.10566000000E+00  0.10566000000E+00 0.  1.
     999900   -1    0    0    0    0 -0.00000000000E+00 -0.00000000000E+00 -0.74505805969E-08  0.93827000000E+00  0.93827000000E+00 0. -1.
     999902    2    1    2    0    0 -0.31175145026E-02  0.22803703578E-01  0.28171752631E-02  0.10207424113E+01  0.10204790081E+01 0.  0.
     999903    2    3    3    0    0 -0.11834046565E+00 -0.41700146691E-01 -0.28996321356E-01  0.13032162664E+00  0.19989288986E-01 0.  0.
         14    1    1    2    0    0  0.31175145026E-02 -0.22803703578E-01 -0.28171752631E-02  0.23187588707E-01  0.00000000000E+00 0.  1.
     999901    1    3    3    0    0  0.11522295115E+00  0.64503850269E-01  0.31813496619E-01  0.89042078465E+00  0.88000000000E+00 0.  1.
        -11    1    4    4    0    0 -0.76334555136E-01 -0.21348838058E-01 -0.26492714694E-01  0.83575488315E-01  0.51100000000E-03 0.  1.
         11    1    4    4    0    0 -0.42005910515E-01 -0.20351308633E-01 -0.25036066621E-02  0.46746138328E-01  0.51100000000E-03 0. -1.
</event>
<event>
 8    1  0.1079508E+005  0.1043930E+01  0.7957747E-01            NaN
         13   -1    0    0    0    0  0.00000000000E+00  0.00000000000E+00  0.74505805969E-08  0.10566000000E+00  0.10566000000E+00 0. -1.
     999900   -1    0    0    0    0 -0.00000000000E+00 -0.00000000000E+00 -0.74505805969E-08  0.93827000000E+00  0.93827000000E+00 0.  1.
     999902    2    1    2    0    0  0.15885381195E-03  0.78298671663E-02 -0.23341412018E-01  0.10193098138E+01  0.10190124351E+01 0.  0.
     999903    2    3    3    0    0  0.69256853779E-01  0.57057764769E-01  0.89614691996E-01  0.12804273769E+00  0.17664918250E-01 0.  0.
         14    1    1    2    0    0 -0.15885381195E-03 -0.78298671663E-02  0.23341412018E-01  0.24620186217E-01  0.00000000000E+00 0. -1.
     999901    1    3    3    0    0 -0.69097999967E-01 -0.49227897602E-01 -0.11295610401E+00  0.89126707610E+00  0.88000000000E+00 0.  1.
        -11    1    4    4    0    0  0.49367822807E-01  0.38267856527E-01  0.72792345497E-01  0.95919744870E-01  0.51100000000E-03 0.  1.
         11    1    4    4    0    0  0.19889030971E-01  0.18789908242E-01  0.16822346498E-01  0.32122992816E-01  0.51100000000E-03 0. -1.
</event>
<event>
 8    1  0.1079508E+005  0.1043930E+01  0.7957747E-01            NaN
         13   -1    0    0    0    0  0.00000000000E+00  0.00000000000E+00  0.74505805969E-08  0.10566000000E+00  0.10566000000E+00 0.  1.
     999900   -1    0    0    0    0 -0.00000000000E+00 -0.00000000000E+00 -0.74505805969E-08  0.93827000000E+00  0.93827000000E+00 0.  1.
     999902    2    1    2    0    0  0.14544315496E-01  0.19732687481E-02  0.17650570457E-01  0.10209740957E+01  0.10207159892E+01 0.  0.
     999903    2    3    3    0    0 -0.24265572580E-01 -0.32838140369E-01  0.12483820110E+00  0.13293849410E+00  0.20515976318E-01 0.  0.
         14    1    1    2    0    0 -0.14544315496E-01 -0.19732687481E-02 -0.17650570457E-01  0.22955904257E-01  0.00000000000E+00 0.  1.
     999901    1    3    3    0    0  0.38809888076E-01  0.34811409117E-01 -0.10718763065E+00  0.88803560164E+00  0.88000000000E+00 0.  1.
        -11    1    4    4    0    0 -0.52517409873E-02 -0.20759172752E-02  0.44181856515E-01  0.44544222769E-01  0.51100000000E-03 0. -1.
         11    1    4    4    0    0 -0.19013831592E-01 -0.30762223093E-01  0.80656344587E-01  0.88394271334E-01  0.51100000000E-03 0.  1.
</event>
<event>
 8    1  0.1079508E+005  0.1043930E+01  0.7957747E-01            NaN
         13   -1    0    0    0    0  0.00000000000E+00  0.00000000000E+00  0.74505805969E-08  0.10566000000E+00  0.10566000000E+00 0. -1.
     999900   -1    0    0    0    0 -0.00000000000E+00 -0.00000000000E+00 -0.74505805969E-08  0.93827000000E+00  0.93827000000E+00 0. -1.
     999902    2    1    2    0    0  0.98024937022E-02  0.21685611145E-01  0.10439475282E-01  0.10179427482E+01  0.10176109774E+01 0.  0.
     999903    2    3    3    0    0 -0.11171234956E+00 -0.59823618617E-02  0.59598849394E-01  0.12780342316E+00  0.16317304443E-01 0.  0.
         14    1    1    2    0    0 -0.98024937022E-02 -0.21685611145E-01 -0.10439475282E-01  0.25987251830E-01  0.00000000000E+00 0.  1.
     999901    1    3    3    0    0  0.12151484327E+00  0.27667973006E-01 -0.49159374113E-01  0.89013932501E+00  0.88000000000E+00 0. -1.
        -11    1    4    4    0    0 -0.80335735542E-01 -0.76370585705E-02  0.50050834818E-01  0.94960529989E-01  0.51100000000E-03 0.  1.
         11    1    4    4    0    0 -0.31376614021E-01  0.16546967088E-02  0.95480145761E-02  0.32842893173E-01  0.51100000000E-03 0. -1.
</event>
<event>
 8    1  0.1079508E+005  0.1043930E+01  0.7957747E-01            NaN
         13   -1    0    0    0    0  0.00000000000E+00  0.00000000000E+00  0.74505805969E-08  0.10566000000E+00  0.10566000000E+00 0.  1.
     999900   -1    0    0    0    0 -0.00000000000E+00 -0.00000000000E+00 -0.74505805969E-08  0.93827000000E+00  0.93827000000E+00 0. -1.
     999902    2    1    2    0    0 -0.21056473154E-01  0.88688464750E-02  0.36249902661E-02  0.10207962140E+01  0.10205340457E+01 0.  0.
     999903    2    3    3    0    0  0.90428805674E-01 -0.85599396450E-01 -0.24402872637E-01  0.12830600263E+00  0.19034299319E-01 0.  0.
         14    1    1    2    0    0  0.21056473154E-01 -0.88688464750E-02 -0.36249902661E-02  0.23133785983E-01  0.00000000000E+00 0. -1.
     999901    1    3    3    0    0 -0.11148527883E+00  0.94468242925E-01  0.28027862903E-01  0.89249021138E+00  0.88000000000E+00 0. -1.
        -11    1    4    4    0    0  0.63363243281E-01 -0.48023974700E-01 -0.18384530452E-01  0.81605482819E-01  0.51100000000E-03 0. -1.
         11    1    4    4    0    0  0.27065562393E-01 -0.37575421750E-01 -0.60183421851E-02  0.46700519815E-01  0.51100000000E-03 0.  1.
</event>
<event>
 8    1  0.1079508E+005  0.1043930E+01  0.7957747E-01            NaN
         13   -1    0    0    0    0  0.00000000000E+00  0.00000000000E+00  0.74505805969E-08  0.10566000000E+00  0.10566000000E+00 0. -1.
     999900   -1    0    0    0    0 -0.00000000000E+00 -0.00000000000E+00 -0.74505805969E-08  0.93827000000E+00  0.93827000000E+00 0.  1.
     999902    2    1    2    0    0 -0.82103333837E-02 -0.25902611186E-02  0.22030816612E-01  0.10202767569E+01  0.10200025416E+01 0.  0.
     999903    2    3    3    0    0  0.32171649562E-02 -0.11542752911E+00 -0.55359217299E-01  0.12962977069E+00  0.20133799493E-01 0.  0.
         14    1    1    2    0    0  0.82103333837E-02  0.25902611186E-02 -0.22030816612E-01  0.23653243066E-01  0.00000000000E+00 0.  1.
     999901    1    3    3    0    0 -0.11427498340E-01  0.11283726799E+00  0.77390033912E-01  0.89064698625E+00  0.88000000000E+00 0.  1.
        -11    1    4    4    0    0  0.77664401446E-02 -0.17797891547E-01 -0.10634607554E-01  0.22145846898E-01  0.51100000000E-03 0. -1.
         11    1    4    4    0    0 -0.45492751884E-02 -0.97629637559E-01 -0.44724609746E-01  0.10748392379E+00  0.51100000000E-03 0.  1.
</event>
<event>
 8    1  0.1079508E+005  0.1043930E+01  0.7957747E-01            NaN
         13   -1    0    0    0    0  0.00000000000E+00  0.00000000000E+00  0.74505805969E-08  0.10566000000E+00  0.10566000000E+00 0.  1.
     999900   -1    0    0    0    0 -0.00000000000E+00 -0.00000000000E+00 -0.74505805969E-08  0.93827000000E+00  0.93827000000E+00 0.  1.
     999902    2    1    2    0    0  0.17990019265E-02  0.34306610862E-02 -0.23252756549E-01  0.10203567836E+01  0.10200844423E+01 0.  0.
     999903    2    3    3    0    0 -0.24414200431E-01 -0.98542876883E-01  0.76291529198E-01  0.12850769367E+00  0.19674301445E-01 0.  0.
         14    1    1    2    0    0 -0.17990019265E-02 -0.34306610862E-02  0.23252756549E-01  0.23573216381E-01  0.00000000000E+00 0.  1.
     999901    1    3    3    0    0  0.26213202357E-01  0.10197353797E+00 -0.99544285746E-01  0.89184908995E+00  0.88000000000E+00 0.  1.
        -11    1    4    4    0    0 -0.13555188534E-02 -0.89614337540E-02  0.15028708599E-01  0.17557560464E-01  0.51100000000E-03 0.  1.
         11    1    4    4    0    0 -0.23058681578E-01 -0.89581443129E-01  0.61262820598E-01  0.11095013320E+00  0.51100000000E-03 0. -1.
</event>
<event>
 8    1  0.1079508E+005  0.1043930E+01  0.7957747E-01            NaN
         13   -1    0    0    0    0  0.00000000000E+00  0.00000000000E+00  0.74505805969E-08  0.10566000000E+00  0.10566000000E+00 0. -1.
     999900   -1    0    0    0    0 -0.00000000000E+00 -0.00000000000E+00 -0.74505805969E-08  0.93827000000E+00  0.93827000000E+00 0.  1.
     999902    2    1    2    0    0 -0.23742698769E-01  0.15356051911E-02 -0.17399025083E-02  0.10200741603E+01  0.10197951713E+01 0.  0.
     999903    2    3    3    0    0 -0.53656353529E-02 -0.25363212311E-01 -0.12624297739E+00  0.13071355934E+00  0.21832605774E-01 0.  0.
         14    1    1    2    0    0  0.23742698769E-01 -0.15356051911E-02  0.17399025083E-02  0.23855839723E-01  0.00000000000E+00 0. -1.
     999901    1    3    3    0    0 -0.18377063417E-01  0.26898817502E-01  0.12450307488E+00  0.88936060094E+00  0.88000000000E+00 0. -1.
        -11    1    4    4    0    0  0.16041410794E-02 -0.23513063448E-01 -0.66897009887E-01  0.70928897313E-01  0.51100000000E-03 0.  1.
         11    1    4    4    0    0 -0.69697764323E-02 -0.18501488629E-02 -0.59345967499E-01  0.59784662028E-01  0.51100000000E-03 0. -1.
</event>
<event>
 8    1  0.1079508E+005  0.1043930E+01  0.7957747E-01            NaN
         13   -1    0    0    0    0  0.00000000000E+00  0.00000000000E+00  0.74505805969E-08  0.10566000000E+00  0.10566000000E+00 0.  1.
     999900   -1    0    0    0    0 -0.00000000000E+00 -0.00000000000E+00 -0.74505805969E-08  0.93827000000E+00  0.93827000000E+00 0.  1.
     999902    2    1    2    0    0 -0.13982768338E-01  0.85202081618E-02 -0.12253716610E-01  0.10234784639E+01  0.10232741083E+01 0.  0.
     999903    2    3    3    0    0  0.91597896899E-01  0.34234915447E-01 -0.88699200650E-01  0.13350518618E+00  0.19846470472E-01 0.  0.
         14    1    1    2    0    0  0.13982768338E-01 -0.85202081618E-02  0.12253716610E-01  0.20451536086E-01  0.00000000000E+00 0.  1.
     999901    1    3    3    0    0 -0.10558066524E+00 -0.25714707285E-01  0.76445484040E-01  0.88997327773E+00  0.88000000000E+00 0.  1.
        -11    1    4    4    0    0  0.38599058053E-01  0.48700187082E-02 -0.39611283557E-01  0.55524042277E-01  0.51100000000E-03 0.  1.
         11    1    4    4    0    0  0.52998838846E-01  0.29364896739E-01 -0.49087917094E-01  0.77981143907E-01  0.51100000000E-03 0. -1.
</event>
<event>
 8    1  0.1079508E+005  0.1043930E+01  0.7957747E-01            NaN
         13   -1    0    0    0    0  0.00000000000E+00  0.00000000000E+00  0.74505805969E-08  0.10566000000E+00  0.10566000000E+00 0.  1.
     999900   -1    0    0    0    0 -0.00000000000E+00 -0.00000000000E+00 -0.74505805969E-08  0.93827000000E+00  0.93827000000E+00 0.  1.
     999902    2    1    2    0    0 -0.22200696025E-01 -0.23123130837E-02 -0.84607828132E-02  0.10200594629E+01  0.10197801260E+01 0.  0.
     999903    2    3    3    0    0  0.74168055720E-01  0.10299033592E+00  0.23233861201E-02  0.12849236924E+00  0.19924383235E-01 0.  0.
         14    1    1    2    0    0  0.22200696025E-01  0.23123130837E-02  0.84607828132E-02  0.23870537103E-01  0.00000000000E+00 0. -1.
     999901    1    3    3    0    0 -0.96368751744E-01 -0.10530264900E+00 -0.10784168933E-01  0.89156709366E+00  0.88000000000E+00 0.  1.
        -11    1    4    4    0    0  0.49535812033E-01  0.57258276113E-01  0.84592908384E-02  0.76184825127E-01  0.51100000000E-03 0. -1.
         11    1    4    4    0    0  0.24632243686E-01  0.45732059804E-01 -0.61359047184E-02  0.52307544109E-01  0.51100000000E-03 0.  1.
</event>
<event>
 8    1  0.1079508E+005  0.1043930E+01  0.7957747E-01            NaN
         13   -1    0    0    0    0  0.00000000000E+00  0.00000000000E+00  0.74505805969E-08  0.10566000000E+00  0.10566000000E+00 0.  1.
     999900   -1    0    0    0    0 -0.00000000000E+00 -0.00000000000E+00 -0.74505805969E-08  0.93827000000E+00  0.93827000000E+00 0. -1.
     999902    2    1    2    0    0  0.16115604811E-01  0.73236385399E-02  0.15591250951E-01  0.10203411148E+01  0.10200684070E+01 0.  0.
     999903    2    3    3    0    0  0.84579820757E-01  0.85601978980E-01 -0.49954659084E-01  0.13179673560E+00  0.19835994186E-01 0.  0.
         14    1    1    2    0    0 -0.16115604811E-01 -0.73236385399E-02 -0.15591250951E-01  0.23588885224E-01  0.00000000000E+00 0. -1.
     999901    1    3    3    0    0 -0.68464215946E-01 -0.78278340440E-01  0.65545910035E-01  0.88854437918E+00  0.88000000000E+00 0.  1.
        -11    1    4    4    0    0  0.45550331691E-01  0.58981831067E-01 -0.26954281027E-01  0.79249501575E-01  0.51100000000E-03 0. -1.
         11    1    4    4    0    0  0.39029489066E-01  0.26620147913E-01 -0.23000378057E-01  0.52547234023E-01  0.51100000000E-03 0.  1.
</event>
<event>
 8    1  0.1079508E+005  0.1043930E+01  0.7957747E-01            NaN
         13   -1    0    0    0    0  0.00000000000E+00  0.00000000000E+00  0.74505805969E-08  0.10566000000E+00  0.10566000000E+00 0. -1.
     999900   -1    0    0    0    0 -0.00000000000E+00 -0.00000000000E+00 -0.74505805969E-08  0.93827000000E+00  0.93827000000E+00 0. -1.
     999902    2    1    2    0    0 -0.12754108038E-01 -0.56455044037E-02  0.18245401065E-01  0.10209640763E+01  0.10207057418E+01 0.  0.
     999903    2    3    3    0    0  0.43757578673E-01 -0.12212198731E+00  0.88569835238E-03  0.13132274346E+00  0.20405220203E-01 0.  0.
         14    1    1    2    0    0  0.12754108038E-01  0.56455044037E-02 -0.18245401065E-01  0.22965923710E-01  0.00000000000E+00 0.  1.
     999901    1    3    3    0    0 -0.56511686710E-01  0.11647648291E+00  0.17359702713E-01  0.88964133283E+00  0.88000000000E+00 0. -1.
        -11    1    4    4    0    0  0.25582362821E-01 -0.68346846977E-01 -0.95624903346E-02  0.73603336349E-01  0.51100000000E-03 0.  1.
         11    1    4    4    0    0  0.18175215851E-01 -0.53775140335E-01  0.10448188687E-01  0.57719407109E-01  0.51100000000E-03 0. -1.
</event>
<event>
 8    1  0.1079508E+005  0.1043930E+01  0.7957747E-01            NaN
         13   -1    0    0    0    0  0.00000000000E+00  0.00000000000E+00  0.74505805969E-08  0.10566000000E+00  0.10566000000E+00 0.  1.
     999900   -1    0    0    0    0 -0.00000000000E+00 -0.00000000000E+00 -0.74505805969E-08  0.93827000000E+00  0.93827000000E+00 0.  1.
     999902    2    1    2    0    0 -0.15075395522E-01 -0.17717823490E-01 -0.64293758181E-02  0.10197944310E+01  0.10195087816E+01 0.  0.
     999903    2    3    3    0    0 -0.64413003229E-01  0.98429524939E-01 -0.50729597507E-01  0.12968942832E+00  0.20210130895E-01 0.  0.
         14    1    1    2    0    0  0.15075395522E-01  0.17717823490E-01  0.64293758181E-02  0.24135569038E-01  0.00000000000E+00 0.  1.
     999901    1    3    3    0    0  0.49337607707E-01 -0.11614734843E+00  0.44300221689E-01  0.89010500264E+00  0.88000000000E+00 0. -1.
        -11    1    4    4    0    0 -0.31327018815E-01  0.64783622282E-01 -0.34316177089E-01  0.79725535150E-01  0.51100000000E-03 0. -1.
         11    1    4    4    0    0 -0.33085984414E-01  0.33645902657E-01 -0.16413420418E-01  0.49963893173E-01  0.51100000000E-03 0.  1.
</event>
<event>
 8    1  0.1079508E+005  0.1043930E+01  0.7957747E-01            NaN
         13   -1    0    0    0    0  0.00000000000E+00  0.00000000000E+00  0.74505805969E-08  0.10566000000E+00  0.10566000000E+00 0.  1.
     999900   -1    0    0    0    0 -0.00000000000E+00 -0.00000000000E+00 -0.74505805969E-08  0.93827000000E+00  0.93827000000E+00 0. -1.
     999902    2    1    2    0    0 -0.15980407038E-03 -0.61424324912E-02 -0.22302891104E-01  0.10207961727E+01  0.10205340035E+01 0.  0.
     999903    2    3    3    0    0  0.99150915585E-01 -0.55026347707E-01  0.60352540959E-01  0.13001888478E+00  0.20091744498E-01 0.  0.
         14    1    1    2    0    0  0.15980407038E-03  0.61424324912E-02  0.22302891104E-01  0.23133827307E-01  0.00000000000E+00 0.  1.
     999901    1    3    3    0    0 -0.99310719656E-01  0.48883915216E-01 -0.82655432063E-01  0.89077728791E+00  0.88000000000E+00 0. -1.
        -11    1    4    4    0    0  0.62385041408E-01 -0.44029916916E-01  0.34825845474E-01  0.83926322504E-01  0.51100000000E-03 0.  1.
         11    1    4    4    0    0  0.36765874177E-01 -0.10996430791E-01  0.25526695485E-01  0.46092562280E-01  0.51100000000E-03 0. -1.
</event>
<event>
 8    1  0.1079508E+005  0.1043930E+01  0.7957747E-01            NaN
         13   -1    0    0    0    0  0.00000000000E+00  0.00000000000E+00  0.74505805969E-08  0.10566000000E+00  0.10566000000E+00 0.  1.
     999900   -1    0    0    0    0 -0.00000000000E+00 -0.00000000000E+00 -0.74505805969E-08  0.93827000000E+00  0.93827000000E+00 0.  1.
     999902    2    1    2    0    0 -0.16215272076E-01 -0.19071153462E-01  0.96623228437E-02  0.10170971018E+01  0.10167430895E+01 0.  0.
     999903    2    3    3    0    0  0.25656221693E-01  0.23614043335E-01 -0.11912549161E+00  0.12571528172E+00  0.19939522383E-01 0.  0.
         14    1    1    2    0    0  0.16215272076E-01  0.19071153462E-01 -0.96623228437E-02  0.26832898196E-01  0.00000000000E+00 0. -1.
     999901    1    3    3    0    0 -0.41871493769E-01 -0.42685196796E-01  0.12878781446E+00  0.89138182008E+00  0.88000000000E+00 0. -1.
        -11    1    4    4    0    0  0.60745834391E-02  0.15581163737E-01 -0.32667628453E-01  0.36702973954E-01  0.51100000000E-03 0. -1.
         11    1    4    4    0    0  0.19581638254E-01  0.80328795976E-02 -0.86457863160E-01  0.89012307770E-01  0.51100000000E-03 0.  1.
</event>
<event>
 8    1  0.1079508E+005  0.1043930E+01  0.7957747E-01            NaN
         13   -1    0    0    0    0  0.00000000000E+00  0.00000000000E+00  0.74505805969E-08  0.10566000000E+00  0.10566000000E+00 0.  1.
     999900   -1    0    0    0    0 -0.00000000000E+00 -0.00000000000E+00 -0.74505805969E-08  0.93827000000E+00  0.93827000000E+00 0.  1.
     999902    2    1    2    0    0  0.15848228277E-01 -0.17627241257E-01  0.83122948290E-02  0.10188106804E+01  0.10185009682E+01 0.  0.
     999903    2    3    3    0    0 -0.23164339257E-01  0.11017677692E+00 -0.52619425661E-01  0.12664000047E+00  0.24359330392E-01 0.  0.
         14    1    1    2    0    0 -0.15848228277E-01  0.17627241257E-01 -0.83122948290E-02  0.25119319640E-01  0.00000000000E+00 0. -1.
     999901    1    3    3    0    0  0.39012567534E-01 -0.12780401818E+00  0.60931720490E-01  0.89217067989E+00  0.88000000000E+00 0. -1.
        -11    1    4    4    0    0 -0.13773469223E-01  0.99655588443E-01 -0.42191055148E-01  0.10909303836E+00  0.51100000000E-03 0.  1.
         11    1    4    4    0    0 -0.93908700339E-02  0.10521188478E-01 -0.10428370513E-01  0.17546962117E-01  0.51100000000E-03 0. -1.
</event>
<event>
 8    1  0.1079508E+005  0.1043930E+01  0.7957747E-01            NaN
         13   -1    0    0    0    0  0.00000000000E+00  0.00000000000E+00  0.74505805969E-08  0.10566000000E+00  0.10566000000E+00 0.  1.
     999900   -1    0    0    0    0 -0.00000000000E+00 -0.00000000000E+00 -0.74505805969E-08  0.93827000000E+00  0.93827000000E+00 0.  1.
     999902    2    1    2    0    0  0.14387267206E-01  0.13453420572E-02  0.97479416623E-02  0.10264994013E+01  0.10263513995E+01 0.  0.
     999903    2    3    3    0    0  0.19023133240E-01 -0.66005306328E-01 -0.11476049064E+00  0.13517457233E+00  0.19586085187E-01 0.  0.
         14    1    1    2    0    0 -0.14387267206E-01 -0.13453420572E-02 -0.97479416623E-02  0.17430598657E-01  0.00000000000E+00 0. -1.
     999901    1    3    3    0    0 -0.46358660345E-02  0.67350648385E-01  0.12450843230E+00  0.89132482901E+00  0.88000000000E+00 0. -1.
        -11    1    4    4    0    0  0.19778632656E-01 -0.38210260333E-01 -0.77980373821E-01  0.89064123679E-01  0.51100000000E-03 0. -1.
         11    1    4    4    0    0 -0.75549941588E-03 -0.27795045996E-01 -0.36780116816E-01  0.46110448656E-01  0.51100000000E-03 0.  1.
</event>
<event>
 8    1  0.1079508E+005  0.1043930E+01  0.7957747E-01            NaN
         13   -1    0    0    0    0  0.00000000000E+00  0.00000000000E+00  0.74505805969E-08  0.10566000000E+00  0.10566000000E+00 0. -1.
     999900   -1    0    0    0    0 -0.00000000000E+00 -0.00000000000E+00 -0.74505805969E-08  0.93827000000E+00  0.93827000000E+00 0. -1.
     999902    2    1    2    0    0  0.51670380645E-02 -0.15068809906E-01  0.17486272813E-01  0.10202754645E+01  0.10200012188E+01 0.  0.
     999903    2    3    3    0    0 -0.97747715806E-01  0.43818494823E-01  0.72267407462E-01  0.13063501241E+00  0.19189889328E-01 0.  0.
         14    1    1    2    0    0 -0.51670380645E-02  0.15068809906E-01 -0.17486272813E-01  0.23654535532E-01  0.00000000000E+00 0.  1.
     999901    1    3    3    0    0  0.10291475387E+00 -0.58887304729E-01 -0.54781134649E-01  0.88964045206E+00  0.88000000000E+00 0. -1.
        -11    1    4    4    0    0 -0.56903518788E-01  0.35587699672E-01  0.46288068262E-01  0.81531228390E-01  0.51100000000E-03 0. -1.
         11    1    4    4    0    0 -0.40844197018E-01  0.82307951516E-02  0.25979339201E-01  0.49103784021E-01  0.51100000000E-03 0.  1.
</event>
<event>
 8    1  0.1079508E+005  0.1043930E+01  0.7957747E-01            NaN
         13   -1    0    0    0    0  0.00000000000E+00  0.00000000000E+00  0.74505805969E-08  0.10566000000E+00  0.10566000000E+00 0. -1.
     999900   -1    0    0    0    0 -0.00000000000E+00 -0.00000000000E+00 -0.74505805969E-08  0.93827000000E+00  0.93827000000E+00 0.  1.
     999902    2    1    2    0    0  0.10876487765E-01 -0.15188612958E-01 -0.14462387182E-01  0.10203047467E+01  0.10200311876E+01 0.  0.
     999903    2    3    3    0    0 -0.57048320438E-01  0.35142900513E-01 -0.11095885410E+00  0.13100243088E+00  0.18979864960E-01 0.  0.
         14    1    1    2    0    0 -0.10876487765E-01  0.15188612958E-01  0.14462387182E-01  0.23625253284E-01  0.00000000000E+00 0.  1.
     999901    1    3    3    0    0  0.67924808203E-01 -0.50331513471E-01  0.96496466915E-01  0.88930231583E+00  0.88000000000E+00 0.  1.
        -11    1    4    4    0    0 -0.38773893391E-01  0.27461711191E-01 -0.61510505116E-01  0.77726210192E-01  0.51100000000E-03 0. -1.
         11    1    4    4    0    0 -0.18274427046E-01  0.76811893219E-02 -0.49448348981E-01  0.53276220692E-01  0.51100000000E-03 0.  1.
</event>
<event>
 8    1  0.1079508E+005  0.1043930E+01  0.7957747E-01            NaN
         13   -1    0    0    0    0  0.00000000000E+00  0.00000000000E+00  0.74505805969E-08  0.10566000000E+00  0.10566000000E+00 0.  1.
     999900   -1    0    0    0    0 -0.00000000000E+00 -0.00000000000E+00 -0.74505805969E-08  0.93827000000E+00  0.93827000000E+00 0. -1.
     999902    2    1    2    0    0  0.14649929786E-01  0.17862129743E-01  0.22486656762E-02  0.10207193856E+01  0.10204554530E+01 0.  0.
     999903    2    3    3    0    0  0.88982881485E-02 -0.12522745701E+00 -0.20844089962E-01  0.12884440192E+00  0.20132270123E-01 0.  0.
         14    1    1    2    0    0 -0.14649929786E-01 -0.17862129743E-01 -0.22486656762E-02  0.23210614360E-01  0.00000000000E+00 0.  1.
     999901    1    3    3    0    0  0.57516416373E-02  0.14308958675E+00  0.23092755638E-01  0.89187498372E+00  0.88000000000E+00 0.  1.
        -11    1    4    4    0    0 -0.28824280034E-03 -0.12497652276E-01  0.38204245634E-02  0.13081710942E-01  0.51100000000E-03 0. -1.
         11    1    4    4    0    0  0.91865309488E-02 -0.11272980473E+00 -0.24664514526E-01  0.11576269098E+00  0.51100000000E-03 0.  1.
</event>
<event>
 8    1  0.1079508E+005  0.1043930E+01  0.7957747E-01            NaN
         13   -1    0    0    0    0  0.00000000000E+00  0.00000000000E+00  0.74505805969E-08  0.10566000000E+00  0.10566000000E+00 0.  1.
     999900   -1    0    0    0    0 -0.00000000000E+00 -0.00000000000E+00 -0.74505805969E-08  0.93827000000E+00  0.93827000000E+00 0.  1.
     999902    2    1    2    0    0 -0.34718475469E-02 -0.19275416783E-01 -0.14921218666E-01  0.10193080954E+01  0.10190106747E+01 0.  0.
     999903    2    3    3    0    0  0.46256128120E-01 -0.96111902423E-01  0.72273052124E-01  0.13027516132E+00  0.19263863022E-01 0.  0.
         14    1    1    2    0    0  0.34718475469E-02  0.19275416783E-01  0.14921218666E-01  0.24621904557E-01  0.00000000000E+00 0. -1.
     999901    1    3    3    0    0 -0.49727975667E-01  0.76836485641E-01 -0.87194270791E-01  0.88903293412E+00  0.88000000000E+00 0.  1.
        -11    1    4    4    0    0  0.82784511814E-02 -0.61692450256E-02  0.10536422567E-01  0.14760408519E-01  0.51100000000E-03 0.  1.
         11    1    4    4    0    0  0.37977676938E-01 -0.89942657398E-01  0.61736629557E-01  0.11551475280E+00  0.51100000000E-03 0. -1.
</event>
<event>
 8    1  0.1527504E+005  0.1043930E+01  0.7957747E-01            NaN
         13   -1    0    0    0    0  0.00000000000E+00  0.00000000000E+00  0.74505805969E-08  0.10566000000E+00  0.10566000000E+00 0. -1.
     999900   -1    0    0    0    0 -0.00000000000E+00 -0.00000000000E+00 -0.74505805969E-08  0.93827000000E+00  0.93827000000E+00 0.  1.
     999902    2    1    2    0    0 -0.69856156999E-02  0.24206323884E-01 -0.26893472745E-02  0.10185927245E+01  0.10182775461E+01 0.  0.
     999903    2    3    3    0    0  0.84311814224E-01 -0.81224580207E-01 -0.43683746150E-01  0.12666703418E+00  0.20744961402E-01 0.  0.
         14    1    1    2    0    0  0.69856156999E-02 -0.24206323884E-01  0.26893472745E-02  0.25337275534E-01  0.00000000000E+00 0. -1.
     999901    1    3    3    0    0 -0.91297429923E-01  0.10543090409E+00  0.40994398875E-01  0.89192569028E+00  0.88000000000E+00 0.  1.
        -11    1    4    4    0    0  0.36818903676E-01 -0.21780964464E-01 -0.16996423762E-01  0.46034569864E-01  0.51100000000E-03 0. -1.
         11    1    4    4    0    0  0.47492910548E-01 -0.59443615744E-01 -0.26687322388E-01  0.80632464319E-01  0.51100000000E-03 0.  1.
</event>
<event>
 8    1  0.1079508E+005  0.1043930E+01  0.7957747E-01            NaN
         13   -1    0    0    0    0  0.00000000000E+00  0.00000000000E+00  0.74505805969E-08  0.10566000000E+00  0.10566000000E+00 0. -1.
     999900   -1    0    0    0    0 -0.00000000000E+00 -0.00000000000E+00 -0.74505805969E-08  0.93827000000E+00  0.93827000000E+00 0. -1.
     999902    2    1    2    0    0 -0.15829546414E-02 -0.18046642935E-01  0.15178448884E-01  0.10202958642E+01  0.10200220968E+01 0.  0.
     999903    2    3    3    0    0  0.10908409501E+00 -0.54021417213E-01  0.47065294668E-01  0.13206270152E+00  0.20193114421E-01 0.  0.
         14    1    1    2    0    0  0.15829546414E-02  0.18046642935E-01 -0.15178448884E-01  0.23634135845E-01  0.00000000000E+00 0.  1.
     999901    1    3    3    0    0 -0.11066704965E+00  0.35974774278E-01 -0.31886845784E-01  0.88823316263E+00  0.88000000000E+00 0.  1.
        -11    1    4    4    0    0  0.40742080628E-01 -0.20527997839E-01  0.73453332312E-02  0.46211804449E-01  0.51100000000E-03 0. -1.
         11    1    4    4    0    0  0.68342014382E-01 -0.33493419374E-01  0.39719961437E-01  0.85850897075E-01  0.51100000000E-03 0.  1.
</event>
<event>
 8    1  0.1079508E+005  0.1043930E+01  0.7957747E-01            NaN
         13   -1    0    0    0    0  0.00000000000E+00  0.00000000000E+00  0.74505805969E-08  0.10566000000E+00  0.10566000000E+00 0. -1.
     999900   -1    0    0    0    0 -0.00000000000E+00 -0.00000000000E+00 -0.74505805969E-08  0.93827000000E+00  0.93827000000E+00 0. -1.
     999902    2    1    2    0    0 -0.42225820340E-02  0.21542838382E-01 -0.80130926518E-02  0.10205604955E+01  0.10202928949E+01 0.  0.
     999903    2    3    3    0    0  0.50963248649E-03 -0.10268459723E+00 -0.75790173795E-01  0.12924204385E+00  0.20370793293E-01 0.  0.
         14    1    1    2    0    0  0.42225820340E-02 -0.21542838382E-01  0.80130926518E-02  0.23369504454E-01  0.00000000000E+00 0. -1.
     999901    1    3    3    0    0 -0.47322145205E-02  0.12422743561E+00  0.67777081143E-01  0.89131845170E+00  0.88000000000E+00 0. -1.
        -11    1    4    4    0    0 -0.18266602974E-02 -0.98163123422E-01 -0.66329385893E-01  0.11848706276E+00  0.51100000000E-03 0. -1.
         11    1    4    4    0    0  0.23362927839E-02 -0.45214738101E-02 -0.94607879026E-02  0.10754981084E-01  0.51100000000E-03 0.  1.
</event>
<event>
 8    1  0.1079508E+005  0.1043930E+01  0.7957747E-01            NaN
         13   -1    0    0    0    0  0.00000000000E+00  0.00000000000E+00  0.74505805969E-08  0.10566000000E+00  0.10566000000E+00 0. -1.
     999900   -1    0    0    0    0 -0.00000000000E+00 -0.00000000000E+00 -0.74505805969E-08  0.93827000000E+00  0.93827000000E+00 0.  1.
     999902    2    1    2    0    0  0.49382153081E-02 -0.88922361950E-02 -0.21684994912E-01  0.10199780306E+01  0.10196967618E+01 0.  0.
     999903    2    3    3    0    0  0.91993377616E-01  0.55747787934E-01 -0.73685512101E-01  0.13179956439E+00  0.19260661862E-01 0.  0.
         14    1    1    2    0    0 -0.49382153081E-02  0.88922361950E-02  0.21684994912E-01  0.23951969425E-01  0.00000000000E+00 0. -1.
     999901    1    3    3    0    0 -0.87055162308E-01 -0.64640024129E-01  0.52000517189E-01  0.88817846618E+00  0.88000000000E+00 0. -1.
        -11    1    4    4    0    0  0.49688726781E-01  0.23218228800E-01 -0.46499647844E-01  0.71906425918E-01  0.51100000000E-03 0. -1.
         11    1    4    4    0    0  0.42304650835E-01  0.32529559134E-01 -0.27185864257E-01  0.59893138473E-01  0.51100000000E-03 0.  1.
</event>
<event>
 8    1  0.1079508E+005  0.1043930E+01  0.7957747E-01            NaN
         13   -1    0    0    0    0  0.00000000000E+00  0.00000000000E+00  0.74505805969E-08  0.10566000000E+00  0.10566000000E+00 0. -1.
     999900   -1    0    0    0    0 -0.00000000000E+00 -0.00000000000E+00 -0.74505805969E-08  0.93827000000E+00  0.93827000000E+00 0. -1.
     999902    2    1    2    0    0  0.22927310097E-01  0.12297712446E-02 -0.32259100355E-02  0.10207442203E+01  0.10204808586E+01 0.  0.
     999903    2    3    3    0    0 -0.63046067757E-01  0.71581047592E-01 -0.85669926460E-01  0.12993686758E+00  0.21109244965E-01 0.  0.
         14    1    1    2    0    0 -0.22927310097E-01 -0.12297712446E-02  0.32259100355E-02  0.23185779718E-01  0.00000000000E+00 0. -1.
     999901    1    3    3    0    0  0.85973377853E-01 -0.70351276347E-01  0.82444016424E-01  0.89080735270E+00  0.88000000000E+00 0.  1.
        -11    1    4    4    0    0 -0.64463619467E-02  0.25630728999E-02 -0.12268943631E-02  0.70633784987E-02  0.51100000000E-03 0.  1.
         11    1    4    4    0    0 -0.56599705810E-01  0.69017974692E-01 -0.84443032097E-01  0.12287348908E+00  0.51100000000E-03 0. -1.
</event>
<event>
 8    1  0.1079508E+005  0.1043930E+01  0.7957747E-01            NaN
         13   -1    0    0    0    0  0.00000000000E+00  0.00000000000E+00  0.74505805969E-08  0.10566000000E+00  0.10566000000E+00 0.  1.
     999900   -1    0    0    0    0 -0.00000000000E+00 -0.00000000000E+00 -0.74505805969E-08  0.93827000000E+00  0.93827000000E+00 0. -1.
     999902    2    1    2    0    0 -0.21516593697E-01 -0.19659141878E-02  0.69638049404E-02  0.10212292687E+01  0.10209769322E+01 0.  0.
     999903    2    3    3    0    0 -0.12988227275E+00  0.28226980315E-01  0.24272236298E-02  0.13405661816E+00  0.17295035885E-01 0.  0.
         14    1    1    2    0    0  0.21516593697E-01  0.19659141878E-02 -0.69638049404E-02  0.22700731313E-01  0.00000000000E+00 0. -1.
     999901    1    3    3    0    0  0.10836567905E+00 -0.30192894503E-01  0.45365813106E-02  0.88717265053E+00  0.88000000000E+00 0.  1.
        -11    1    4    4    0    0 -0.71418123185E-01  0.11019416852E-01  0.87079905160E-02  0.72787815511E-01  0.51100000000E-03 0.  1.
         11    1    4    4    0    0 -0.58464149561E-01  0.17207563463E-01 -0.62807668863E-02  0.61268802648E-01  0.51100000000E-03 0. -1.
</event>
<event>
 8    1  0.1079508E+005  0.1043930E+01  0.7957747E-01            NaN
         13   -1    0    0    0    0  0.00000000000E+00  0.00000000000E+00  0.74505805969E-08  0.10566000000E+00  0.10566000000E+00 0. -1.
     999900   -1    0    0    0    0 -0.00000000000E+00 -0.00000000000E+00 -0.74505805969E-08  0.93827000000E+00  0.93827000000E+00 0. -1.
     999902    2    1    2    0    0 -0.68710380171E-03 -0.70941479316E-02  0.22889362791E-01  0.10199566403E+01  0.10196748629E+01 0.  0.
     999903    2    3    3    0    0 -0.12303725724E+00  0.27189088598E-01  0.28343768478E-01  0.13081399095E+00  0.20773006708E-01 0.  0.
         14    1    1    2    0    0  0.68710380171E-03  0.70941479316E-02 -0.22889362791E-01  0.23973359704E-01  0.00000000000E+00 0.  1.
     999901    1    3    3    0    0  0.12235015344E+00 -0.34283236530E-01 -0.54544056867E-02  0.88914264935E+00  0.88000000000E+00 0. -1.
        -11    1    4    4    0    0 -0.97786547976E-01  0.24170137634E-01  0.14246980169E-01  0.10173319067E+00  0.51100000000E-03 0. -1.
         11    1    4    4    0    0 -0.25250709264E-01  0.30189509643E-02  0.14096788308E-01  0.29080800279E-01  0.51100000000E-03 0.  1.
</event>
<event>
 8    1  0.1079508E+005  0.1043930E+01  0.7957747E-01            NaN
         13   -1    0    0    0    0  0.00000000000E+00  0.00000000000E+00  0.74505805969E-08  0.10566000000E+00  0.10566000000E+00 0. -1.
     999900   -1    0    0    0    0 -0.00000000000E+00 -0.00000000000E+00 -0.74505805969E-08  0.93827000000E+00  0.93827000000E+00 0.  1.
     999902    2    1    2    0    0 -0.17420163657E-01 -0.16249072803E-01 -0.41687372383E-02  0.10197458556E+01  0.10194590415E+01 0.  0.
     999903    2    3    3    0    0 -0.40866007487E-01  0.54595335445E-01 -0.10933852901E+00  0.13034756303E+00  0.19618665644E-01 0.  0.
         14    1    1    2    0    0  0.17420163657E-01  0.16249072803E-01  0.41687372383E-02  0.24184144371E-01  0.00000000000E+00 0.  1.
     999901    1    3    3    0    0  0.23445843829E-01 -0.70844408248E-01  0.10516979177E+00  0.88939829260E+00  0.88000000000E+00 0. -1.
        -11    1    4    4    0    0 -0.20361915404E-01  0.38930238042E-01 -0.80014099481E-01  0.91283559690E-01  0.51100000000E-03 0.  1.
         11    1    4    4    0    0 -0.20504092083E-01  0.15665097402E-01 -0.29324429530E-01  0.39064003341E-01  0.51100000000E-03 0. -1.
</event>
<event>
 8    1  0.1079508E+005  0.1043930E+01  0.7957747E-01            NaN
         13   -1    0    0    0    0  0.00000000000E+00  0.00000000000E+00  0.74505805969E-08  0.10566000000E+00  0.10566000000E+00 0.  1.
     999900   -1    0    0    0    0 -0.00000000000E+00 -0.00000000000E+00 -0.74505805969E-08  0.93827000000E+00  0.93827000000E+00 0.  1.
     999902    2    1    2    0    0 -0.17336328784E-01 -0.18083708422E-01 -0.25547845410E-03  0.10188773739E+01  0.10185693246E+01 0.  0.
     999903    2    3    3    0    0 -0.12142287178E+00 -0.37356173943E-01  0.28399940452E-01  0.13207042229E+00  0.22294445580E-01 0.  0.
         14    1    1    2    0    0  0.17336328784E-01  0.18083708422E-01  0.25547845410E-03  0.25052626115E-01  0.00000000000E+00 0. -1.
     999901    1    3    3    0    0  0.10408654300E+00  0.19272465521E-01 -0.28655418906E-01  0.88680695159E+00  0.88000000000E+00 0.  1.
        -11    1    4    4    0    0 -0.66224513618E-01 -0.23618742090E-01  0.47714708675E-02  0.70473819515E-01  0.51100000000E-03 0. -1.
         11    1    4    4    0    0 -0.55198358163E-01 -0.13737431853E-01  0.23628469584E-01  0.61596602778E-01  0.51100000000E-03 0.  1.
</event>
<event>
 8    1  0.1079508E+005  0.1043930E+01  0.7957747E-01            NaN
         13   -1    0    0    0    0  0.00000000000E+00  0.00000000000E+00  0.74505805969E-08  0.10566000000E+00  0.10566000000E+00 0. -1.
     999900   -1    0    0    0    0 -0.00000000000E+00 -0.00000000000E+00 -0.74505805969E-08  0.93827000000E+00  0.93827000000E+00 0. -1.
     999902    2    1    2    0    0  0.13518757451E-01 -0.12182621330E-01 -0.15653960177E-01  0.10199254268E+01  0.10196429065E+01 0.  0.
     999903    2    3    3    0    0 -0.68764596523E-01 -0.21309486451E-01  0.10398667425E+00  0.12797939064E+00  0.19566094654E-01 0.  0.
         14    1    1    2    0    0 -0.13518757451E-01  0.12182621330E-01  0.15653960177E-01  0.24004573204E-01  0.00000000000E+00 0. -1.
     999901    1    3    3    0    0  0.82283353974E-01  0.91268651208E-02 -0.11964063442E+00  0.89194603616E+00  0.88000000000E+00 0. -1.
        -11    1    4    4    0    0 -0.58898203586E-01 -0.18862619032E-01  0.74732390691E-01  0.97005093277E-01  0.51100000000E-03 0. -1.
         11    1    4    4    0    0 -0.98663929373E-02 -0.24468674188E-02  0.29254283556E-01  0.30974297363E-01  0.51100000000E-03 0.  1.
</event>
<event>
 8    1  0.1079508E+005  0.1043930E+01  0.7957747E-01            NaN
         13   -1    0    0    0    0  0.00000000000E+00  0.00000000000E+00  0.74505805969E-08  0.10566000000E+00  0.10566000000E+00 0. -1.
     999900   -1    0    0    0    0 -0.00000000000E+00 -0.00000000000E+00 -0.74505805969E-08  0.93827000000E+00  0.93827000000E+00 0.  1.
     999902    2    1    2    0    0  0.14619222571E-01 -0.12938660591E-01 -0.12857154873E-01  0.10205540072E+01  0.10202862562E+01 0.  0.
     999903    2    3    3    0    0 -0.12914624674E-02 -0.77672306281E-01 -0.10615450395E+00  0.13311500081E+00  0.20400237552E-01 0.  0.
         14    1    1    2    0    0 -0.14619222571E-01  0.12938660591E-01  0.12857154873E-01  0.23375992768E-01  0.00000000000E+00 0.  1.
     999901    1    3    3    0    0  0.15910685038E-01  0.64733645690E-01  0.93297349076E-01  0.88743900643E+00  0.88000000000E+00 0. -1.
        -11    1    4    4    0    0  0.19602310604E-02 -0.34785831887E-01 -0.31584242489E-01  0.47028949599E-01  0.51100000000E-03 0. -1.
         11    1    4    4    0    0 -0.32516935278E-02 -0.42886474395E-01 -0.74570261461E-01  0.86086051206E-01  0.51100000000E-03 0.  1.
</event>
<event>
 8    1  0.1079508E+005  0.1043930E+01  0.7957747E-01            NaN
         13   -1    0    0    0    0  0.00000000000E+00  0.00000000000E+00  0.74505805969E-08  0.10566000000E+00  0.10566000000E+00 0.  1.
     999900   -1    0    0    0    0 -0.00000000000E+00 -0.00000000000E+00 -0.74505805969E-08  0.93827000000E+00  0.93827000000E+00 0.  1.
     999902    2    1    2    0    0 -0.40802052710E-02 -0.11862170596E-01 -0.22849065292E-01  0.10178639502E+01  0.10175301382E+01 0.  0.
     999903    2    3    3    0    0 -0.24704531264E-01 -0.84495519651E-01 -0.96237611934E-01  0.13158699295E+00  0.17425614938E-01 0.  0.
         14    1    1    2    0    0  0.40802052710E-02  0.11862170596E-01  0.22849065292E-01  0.26066049778E-01  0.00000000000E+00 0.  1.
     999901    1    3    3    0    0  0.20624325993E-01  0.72633349056E-01  0.73388546642E-01  0.88627695727E+00  0.88000000000E+00 0. -1.
        -11    1    4    4    0    0 -0.22266013149E-01 -0.67796073863E-01 -0.67334583362E-01  0.98113659652E-01  0.51100000000E-03 0.  1.
         11    1    4    4    0    0 -0.24385181151E-02 -0.16699445788E-01 -0.28903028573E-01  0.33473333295E-01  0.51100000000E-03 0. -1.
</event>
<event>
 8    1  0.1079508E+005  0.1043930E+01  0.7957747E-01            NaN
         13   -1    0    0    0    0  0.00000000000E+00  0.00000000000E+00  0.74505805969E-08  0.10566000000E+00  0.10566000000E+00 0. -1.
     999900   -1    0    0    0    0 -0.00000000000E+00 -0.00000000000E+00 -0.74505805969E-08  0.93827000000E+00  0.93827000000E+00 0.  1.
     999902    2    1    2    0    0  0.18183505760E-01  0.13751939699E-01  0.60220898406E-02  0.10203498962E+01  0.10200773939E+01 0.  0.
     999903    2    3    3    0    0 -0.80049717119E-01  0.71713784361E-01 -0.69884653178E-01  0.12974831576E+00  0.19998415325E-01 0.  0.
         14    1    1    2    0    0 -0.18183505760E-01 -0.13751939699E-01 -0.60220898406E-02  0.23580103758E-01  0.00000000000E+00 0.  1.
     999901    1    3    3    0    0  0.98233222879E-01 -0.57961844662E-01  0.75906743019E-01  0.89060158048E+00  0.88000000000E+00 0.  1.
        -11    1    4    4    0    0 -0.12984376924E-01  0.22815125385E-01 -0.14936150193E-01  0.30207179511E-01  0.51100000000E-03 0.  1.
         11    1    4    4    0    0 -0.67065340195E-01  0.48898658975E-01 -0.54948502986E-01  0.99541136253E-01  0.51100000000E-03 0. -1.
</event>
<event>
 8    1  0.1079508E+005  0.1043930E+01  0.7957747E-01            NaN
         13   -1    0    0    0    0  0.00000000000E+00  0.00000000000E+00  0.74505805969E-08  0.10566000000E+00  0.10566000000E+00 0. -1.
     999900   -1    0    0    0    0 -0.00000000000E+00 -0.00000000000E+00 -0.74505805969E-08  0.93827000000E+00  0.93827000000E+00 0.  1.
     999902    2    1    2    0    0  0.52494260070E-02 -0.77171634670E-02 -0.20483588590E-01  0.10214202580E+01  0.10211721965E+01 0.  0.
     999903    2    3    3    0    0  0.53191698489E-01  0.27240003478E-02  0.11644355487E+00  0.12948050550E+00  0.19217774798E-01 0.  0.
         14    1    1    2    0    0 -0.52494260070E-02  0.77171634670E-02  0.20483588590E-01  0.22509742044E-01  0.00000000000E+00 0. -1.
     999901    1    3    3    0    0 -0.47942272482E-01 -0.10441163815E-01 -0.13692714346E+00  0.89193975245E+00  0.88000000000E+00 0.  1.
        -11    1    4    4    0    0  0.10748042799E-01  0.32068499299E-03  0.45648166379E-01  0.46900314260E-01  0.51100000000E-03 0.  1.
         11    1    4    4    0    0  0.42443655689E-01  0.24033153548E-02  0.70795388490E-01  0.82580191241E-01  0.51100000000E-03 0. -1.
</event>
<event>
 8    1  0.1079508E+005  0.1043930E+01  0.7957747E-01            NaN
         13   -1    0    0    0    0  0.00000000000E+00  0.00000000000E+00  0.74505805969E-08  0.10566000000E+00  0.10566000000E+00 0. -1.
     999900   -1    0    0    0    0 -0.00000000000E+00 -0.00000000000E+00 -0.74505805969E-08  0.93827000000E+00  0.93827000000E+00 0. -1.
     999902    2    1    2    0    0  0.16482505479E-01  0.83264213575E-02  0.44817145150E-02  0.10249276832E+01  0.10247515151E+01 0.  0.
     999903    2    3    3    0    0  0.72953595342E-01 -0.10395074983E-01 -0.11162883109E+00  0.13530914852E+00  0.20427556989E-01 0.  0.
         14    1    1    2    0    0 -0.16482505479E-01 -0.83264213575E-02 -0.44817145150E-02  0.19002316819E-01  0.00000000000E+00 0.  1.
     999901    1    3    3    0    0 -0.56471089863E-01  0.18721496340E-01  0.11611054561E+00  0.88961853466E+00  0.88000000000E+00 0.  1.
        -11    1    4    4    0    0  0.68866541107E-01 -0.13956837528E-01 -0.97627858080E-01  0.12028654784E+00  0.51100000000E-03 0.  1.
         11    1    4    4    0    0  0.40870542349E-02  0.35617625454E-02 -0.14000973011E-01  0.15022600674E-01  0.51100000000E-03 0. -1.
</event>
<event>
 8    1  0.1079508E+005  0.1043930E+01  0.7957747E-01            NaN
         13   -1    0    0    0    0  0.00000000000E+00  0.00000000000E+00  0.74505805969E-08  0.10566000000E+00  0.10566000000E+00 0. -1.
     999900   -1    0    0    0    0 -0.00000000000E+00 -0.00000000000E+00 -0.74505805969E-08  0.93827000000E+00  0.93827000000E+00 0.  1.
     999902    2    1    2    0    0  0.12176146256E-01 -0.15522762384E-01 -0.14046862305E-01  0.10197116386E+01  0.10194240025E+01 0.  0.
     999903    2    3    3    0    0 -0.75745031827E-01 -0.35339572219E-01  0.95449248215E-01  0.12835747903E+00  0.19465051448E-01 0.  0.
         14    1    1    2    0    0 -0.12176146256E-01  0.15522762384E-01  0.14046862305E-01  0.24218361429E-01  0.00000000000E+00 0. -1.
     999901    1    3    3    0    0  0.87921178083E-01  0.19816809835E-01 -0.10949611052E+00  0.89135415954E+00  0.88000000000E+00 0.  1.
        -11    1    4    4    0    0 -0.52784403688E-01 -0.16619156438E-01  0.53288112642E-01  0.76826256601E-01  0.51100000000E-03 0.  1.
         11    1    4    4    0    0 -0.22960628139E-01 -0.18720415781E-01  0.42161135572E-01  0.51531222432E-01  0.51100000000E-03 0. -1.
</event>
<event>
 8    1  0.1079508E+005  0.1043930E+01  0.7957747E-01            NaN
         13   -1    0    0    0    0  0.00000000000E+00  0.00000000000E+00  0.74505805969E-08  0.10566000000E+00  0.10566000000E+00 0. -1.
     999900   -1    0    0    0    0 -0.00000000000E+00 -0.00000000000E+00 -0.74505805969E-08  0.93827000000E+00  0.93827000000E+00 0. -1.
     999902    2    1    2    0    0  0.11439291348E-01 -0.67634188104E-02 -0.20809858255E-01  0.10192388797E+01  0.10189397639E+01 0.  0.
     999903    2    3    3    0    0  0.91335310629E-02  0.11300849066E+00 -0.60466682928E-01  0.13023759143E+00  0.21243119500E-01 0.  0.
         14    1    1    2    0    0 -0.11439291348E-01  0.67634188104E-02  0.20809858255E-01  0.24691120290E-01  0.00000000000E+00 0. -1.
     999901    1    3    3    0    0  0.23057602856E-02 -0.11977190947E+00  0.39656824672E-01  0.88900128828E+00  0.88000000000E+00 0.  1.
        -11    1    4    4    0    0 -0.42067779998E-02  0.34112746788E-01 -0.26060267245E-01  0.43136702753E-01  0.51100000000E-03 0. -1.
         11    1    4    4    0    0  0.13340309063E-01  0.78895743869E-01 -0.34406415683E-01  0.87100888673E-01  0.51100000000E-03 0.  1.
</event>
<event>
 8    1  0.1079508E+005  0.1043930E+01  0.7957747E-01            NaN
         13   -1    0    0    0    0  0.00000000000E+00  0.00000000000E+00  0.74505805969E-08  0.10566000000E+00  0.10566000000E+00 0. -1.
     999900   -1    0    0    0    0 -0.00000000000E+00 -0.00000000000E+00 -0.74505805969E-08  0.93827000000E+00  0.93827000000E+00 0. -1.
     999902    2    1    2    0    0  0.48019407411E-03 -0.39465247353E-02  0.23195022572E-01  0.10203967317E+01  0.10201253234E+01 0.  0.
     999903    2    3    3    0    0  0.38099654804E-01  0.45805080928E-01  0.11736526470E+00  0.13317720951E+00  0.20294694825E-01 0.  0.
         14    1    1    2    0    0 -0.48019407411E-03  0.39465247353E-02 -0.23195022572E-01  0.23533268281E-01  0.00000000000E+00 0.  1.
     999901    1    3    3    0    0 -0.37619460730E-01 -0.49751605663E-01 -0.94170242132E-01  0.88721952221E+00  0.88000000000E+00 0. -1.
        -11    1    4    4    0    0  0.99355470391E-02  0.27715830145E-01  0.56462479038E-01  0.63680098898E-01  0.51100000000E-03 0.  1.
         11    1    4    4    0    0  0.28164107765E-01  0.18089250784E-01  0.60902785666E-01  0.69497110608E-01  0.51100000000E-03 0. -1.
</event>
<event>
 8    1  0.1079508E+005  0.1043930E+01  0.7957747E-01            NaN
         13   -1    0    0    0    0  0.00000000000E+00  0.00000000000E+00  0.74505805969E-08  0.10566000000E+00  0.10566000000E+00 0.  1.
     999900   -1    0    0    0    0 -0.00000000000E+00 -0.00000000000E+00 -0.74505805969E-08  0.93827000000E+00  0.93827000000E+00 0. -1.
     999902    2    1    2    0    0  0.17550881609E-01  0.90653637900E-02 -0.12599411024E-01  0.10205001169E+01  0.10202311155E+01 0.  0.
     999903    2    3    3    0    0 -0.35921678965E-01 -0.85958910388E-01 -0.89090594374E-01  0.13047774155E+00  0.20199151951E-01 0.  0.
         14    1    1    2    0    0 -0.17550881609E-01 -0.90653637900E-02  0.12599411024E-01  0.23429883142E-01  0.00000000000E+00 0.  1.
     999901    1    3    3    0    0  0.53472560573E-01  0.95024274179E-01  0.76491183350E-01  0.89002237531E+00  0.88000000000E+00 0. -1.
        -11    1    4    4    0    0 -0.92344346488E-02 -0.27166829015E-01 -0.15643154425E-01  0.32684564911E-01  0.51100000000E-03 0. -1.
         11    1    4    4    0    0 -0.26687244316E-01 -0.58792081373E-01 -0.73447439949E-01  0.97793176640E-01  0.51100000000E-03 0.  1.
</event>
<event>
 8    1  0.1079508E+005  0.1043930E+01  0.7957747E-01            NaN
         13   -1    0    0    0    0  0.00000000000E+00  0.00000000000E+00  0.74505805969E-08  0.10566000000E+00  0.10566000000E+00 0.  1.
     999900   -1    0    0    0    0 -0.00000000000E+00 -0.00000000000E+00 -0.74505805969E-08  0.93827000000E+00  0.93827000000E+00 0.  1.
     999902    2    1    2    0    0  0.23144854427E-01  0.74721787789E-03  0.50839823112E-02  0.10202215733E+01  0.10199460619E+01 0.  0.
     999903    2    3    3    0    0  0.12017821111E+00  0.22466538613E-02  0.54472008331E-01  0.13351029123E+00  0.20247179856E-01 0.  0.
         14    1    1    2    0    0 -0.23144854427E-01 -0.74721787789E-03 -0.50839823112E-02  0.23708426712E-01  0.00000000000E+00 0.  1.
     999901    1    3    3    0    0 -0.97033356687E-01 -0.14994359834E-02 -0.49388026020E-01  0.88671128206E+00  0.88000000000E+00 0. -1.
        -11    1    4    4    0    0  0.46510723949E-01  0.93281468014E-02  0.26876988627E-01  0.54524264357E-01  0.51100000000E-03 0.  1.
         11    1    4    4    0    0  0.73667487165E-01 -0.70814929401E-02  0.27595019704E-01  0.78986026871E-01  0.51100000000E-03 0. -1.
</event>
<event>
 8    1  0.1079508E+005  0.1043930E+01  0.7957747E-01            NaN
         13   -1    0    0    0    0  0.00000000000E+00  0.00000000000E+00  0.74505805969E-08  0.10566000000E+00  0.10566000000E+00 0.  1.
     999900   -1    0    0    0    0 -0.00000000000E+00 -0.00000000000E+00 -0.74505805969E-08  0.93827000000E+00  0.93827000000E+00 0. -1.
     999902    2    1    2    0    0  0.10507347863E-01  0.20883829856E-01 -0.24309600104E-02  0.10204257818E+01  0.10201550509E+01 0.  0.
     999903    2    3    3    0    0  0.67984408919E-01 -0.10211936499E+00  0.34492717016E-01  0.12924860722E+00  0.21568736137E-01 0.  0.
         14    1    1    2    0    0 -0.10507347863E-01 -0.20883829856E-01  0.24309600104E-02  0.23504218242E-01  0.00000000000E+00 0.  1.
     999901    1    3    3    0    0 -0.57477061056E-01  0.12300319485E+00 -0.36923677027E-01  0.89117717454E+00  0.88000000000E+00 0. -1.
        -11    1    4    4    0    0  0.44855053341E-01 -0.72681133643E-01  0.13947140660E-01  0.86540781436E-01  0.51100000000E-03 0. -1.
         11    1    4    4    0    0  0.23129355578E-01 -0.29438231351E-01  0.20545576356E-01  0.42707825785E-01  0.51100000000E-03 0.  1.
</event>
<event>
 8    1  0.1079508E+005  0.1043930E+01  0.7957747E-01            NaN
         13   -1    0    0    0    0  0.00000000000E+00  0.00000000000E+00  0.74505805969E-08  0.10566000000E+00  0.10566000000E+00 0. -1.
     999900   -1    0    0    0    0 -0.00000000000E+00 -0.00000000000E+00 -0.74505805969E-08  0.93827000000E+00  0.93827000000E+00 0. -1.
     999902    2    1    2    0    0 -0.32741828705E-02  0.23889057140E-01  0.65358356988E-02  0.10189475167E+01  0.10186412113E+01 0.  0.
     999903    2    3    3    0    0 -0.91592848241E-01 -0.35519977998E-01 -0.79854528028E-01  0.12833373111E+00  0.21020994445E-01 0.  0.
         14    1    1    2    0    0  0.32741828705E-02 -0.23889057140E-01 -0.65358356988E-02  0.24982483319E-01  0.00000000000E+00 0. -1.
     999901    1    3    3    0    0  0.88318665371E-01  0.59409035138E-01  0.86390363727E-01  0.89061378557E+00  0.88000000000E+00 0.  1.
        -11    1    4    4    0    0 -0.61344320670E-02 -0.89294317131E-03  0.19875676973E-03  0.62232812523E-02  0.51100000000E-03 0.  1.
         11    1    4    4    0    0 -0.85458416174E-01 -0.34627034826E-01 -0.80053284798E-01  0.12211044986E+00  0.51100000000E-03 0. -1.
</event>
<event>
 8    1  0.1079508E+005  0.1043930E+01  0.7957747E-01            NaN
         13   -1    0    0    0    0  0.00000000000E+00  0.00000000000E+00  0.74505805969E-08  0.10566000000E+00  0.10566000000E+00 0.  1.
     999900   -1    0    0    0    0 -0.00000000000E+00 -0.00000000000E+00 -0.74505805969E-08  0.93827000000E+00  0.93827000000E+00 0. -1.
     999902    2    1    2    0    0  0.95222827121E-02 -0.81435562345E-02 -0.18209080659E-01  0.10218265615E+01  0.10215874704E+01 0.  0.
     999903    2    3    3    0    0 -0.38035302484E-01 -0.11879983932E+00 -0.41457363420E-01  0.13331825001E+00  0.22247623401E-01 0.  0.
         14    1    1    2    0    0 -0.95222827121E-02  0.81435562345E-02  0.18209080659E-01  0.22103438525E-01  0.00000000000E+00 0.  1.
     999901    1    3    3    0    0  0.47557585196E-01  0.11065628308E+00  0.23248282761E-01  0.88850831147E+00  0.88000000000E+00 0.  1.
        -11    1    4    4    0    0 -0.54528931811E-02 -0.47115962335E-01 -0.97135087194E-02  0.48417572465E-01  0.51100000000E-03 0. -1.
         11    1    4    4    0    0 -0.32582409303E-01 -0.71683876980E-01 -0.31743854700E-01  0.84900677542E-01  0.51100000000E-03 0.  1.
</event>
<event>
 8    1  0.1079508E+005  0.1043930E+01  0.7957747E-01            NaN
         13   -1    0    0    0    0  0.00000000000E+00  0.00000000000E+00  0.74505805969E-08  0.10566000000E+00  0.10566000000E+00 0. -1.
     999900   -1    0    0    0    0 -0.00000000000E+00 -0.00000000000E+00 -0.74505805969E-08  0.93827000000E+00  0.93827000000E+00 0. -1.
     999902    2    1    2    0    0 -0.45111505121E-02 -0.18309124530E-02 -0.15232763805E-01  0.10279381329E+01  0.10278137308E+01 0.  0.
     999903    2    3    3    0    0 -0.10552939761E+00  0.83660942841E-01  0.17675997121E-01  0.13743460676E+00  0.20981495299E-01 0.  0.
         14    1    1    2    0    0  0.45111505121E-02  0.18309124530E-02  0.15232763805E-01  0.15991867073E-01  0.00000000000E+00 0. -1.
     999901    1    3    3    0    0  0.10101824710E+00 -0.85491855294E-01 -0.32908760926E-01  0.89050352617E+00  0.88000000000E+00 0.  1.
        -11    1    4    4    0    0 -0.37761443689E-01  0.23875522594E-01 -0.28189868299E-02  0.44768013317E-01  0.51100000000E-03 0. -1.
         11    1    4    4    0    0 -0.67767953918E-01  0.59785420247E-01  0.20494983951E-01  0.92666593444E-01  0.51100000000E-03 0.  1.
</event>
<event>
 8    1  0.1079508E+005  0.1043930E+01  0.7957747E-01            NaN
         13   -1    0    0    0    0  0.00000000000E+00  0.00000000000E+00  0.74505805969E-08  0.10566000000E+00  0.10566000000E+00 0. -1.
     999900   -1    0    0    0    0 -0.00000000000E+00 -0.00000000000E+00 -0.74505805969E-08  0.93827000000E+00  0.93827000000E+00 0.  1.
     999902    2    1    2    0    0  0.22967549139E-02 -0.15822339648E-01 -0.29824139164E-01  0.10100906621E+01  0.10095236722E+01 0.  0.
     999903    2    3    3    0    0  0.21603328398E-01  0.10904958864E+00 -0.44900165010E-01  0.12093767815E+00  0.15854986507E-01 0.  0.
         14    1    1    2    0    0 -0.22967549139E-02  0.15822339648E-01  0.29824139164E-01  0.33839337936E-01  0.00000000000E+00 0. -1.
     999901    1    3    3    0    0 -0.19306573484E-01 -0.12487192829E+00  0.15076025846E-01  0.88915298392E+00  0.88000000000E+00 0. -1.
        -11    1    4    4    0    0  0.15529944199E-01  0.87344335028E-01 -0.42170057299E-01  0.98228238720E-01  0.51100000000E-03 0. -1.
         11    1    4    4    0    0  0.60733841994E-02  0.21705253611E-01 -0.27301077112E-02  0.22709439427E-01  0.51100000000E-03 0.  1.
</event>
<event>
 8    1  0.1079508E+005  0.1043930E+01  0.7957747E-01            NaN
         13   -1    0    0    0    0  0.00000000000E+00  0.00000000000E+00  0.74505805969E-08  0.10566000000E+00  0.10566000000E+00 0.  1.
     999900   -1    0    0    0    0 -0.00000000000E+00 -0.00000000000E+00 -0.74505805969E-08  0.93827000000E+00  0.93827000000E+00 0.  1.
     999902    2    1    2    0    0 -0.10217197415E-01 -0.26528929854E-02 -0.21284742158E-01  0.10201714392E+01  0.10198947475E+01 0.  0.
     999903    2    3    3    0    0  0.81221826955E-01  0.27349465048E-01 -0.97957097952E-01  0.13161086903E+00  0.19515363026E-01 0.  0.
         14    1    1    2    0    0  0.10217197415E-01  0.26528929854E-02  0.21284742158E-01  0.23758560834E-01  0.00000000000E+00 0.  1.
     999901    1    3    3    0    0 -0.91439024370E-01 -0.30002358033E-01  0.76672355794E-01  0.88856057014E+00  0.88000000000E+00 0. -1.
        -11    1    4    4    0    0  0.48170606065E-01  0.65673154329E-02 -0.59052736318E-01  0.76491984601E-01  0.51100000000E-03 0. -1.
         11    1    4    4    0    0  0.33051220891E-01  0.20782149615E-01 -0.38904361634E-01  0.55118884424E-01  0.51100000000E-03 0.  1.
</event>
<event>
 8    1  0.1079508E+005  0.1043930E+01  0.7957747E-01            NaN
         13   -1    0    0    0    0  0.00000000000E+00  0.00000000000E+00  0.74505805969E-08  0.10566000000E+00  0.10566000000E+00 0.  1.
     999900   -1    0    0    0    0 -0.00000000000E+00 -0.00000000000E+00 -0.74505805969E-08  0.93827000000E+00  0.93827000000E+00 0.  1.
     999902    2    1    2    0    0  0.19218758084E-01  0.98402703046E-02 -0.11441301714E-01  0.10194944733E+01  0.10192015924E+01 0.  0.
     999903    2    3    3    0    0  0.10261181129E+00 -0.72055441171E-01 -0.33781272303E-01  0.13148524856E+00  0.20640392689E-01 0.  0.
         14    1    1    2    0    0 -0.19218758084E-01 -0.98402703046E-02  0.11441301714E-01  0.24435526736E-01  0.00000000000E+00 0.  1.
     999901    1    3    3    0    0 -0.83393053207E-01  0.81895711476E-01  0.22339970588E-01  0.88800922471E+00  0.88000000000E+00 0. -1.
        -11    1    4    4    0    0  0.92881022789E-01 -0.58083243025E-01 -0.33090436178E-01  0.11443681926E+00  0.51100000000E-03 0. -1.
         11    1    4    4    0    0  0.97307885020E-02 -0.13972198146E-01 -0.69083612437E-03  0.17048429296E-01  0.51100000000E-03 0.  1.
</event>
<event>
 8    1  0.1079508E+005  0.1043930E+01  0.7957747E-01            NaN
         13   -1    0    0    0    0  0.00000000000E+00  0.00000000000E+00  0.74505805969E-08  0.10566000000E+00  0.10566000000E+00 0. -1.
     999900   -1    0    0    0    0 -0.00000000000E+00 -0.00000000000E+00 -0.74505805969E-08  0.93827000000E+00  0.93827000000E+00 0. -1.
     999902    2    1    2    0    0 -0.22440083666E-01 -0.14521168592E-02  0.76609638165E-02  0.10201738142E+01  0.10198971785E+01 0.  0.
     999903    2    3    3    0    0 -0.75631345862E-01  0.94447368060E-01  0.50438964898E-01  0.13233600300E+00  0.18119677119E-01 0.  0.
         14    1    1    2    0    0  0.22440083666E-01  0.14521168592E-02 -0.76609638165E-02  0.23756185824E-01  0.00000000000E+00 0.  1.
     999901    1    3    3    0    0  0.53191262195E-01 -0.95899484920E-01 -0.42778001082E-01  0.88783781118E+00  0.88000000000E+00 0. -1.
        -11    1    4    4    0    0 -0.69875859438E-01  0.77451181476E-01  0.41310990530E-01  0.11219706014E+00  0.51100000000E-03 0. -1.
         11    1    4    4    0    0 -0.57554864235E-02  0.16996186584E-01  0.91279743678E-02  0.20138942858E-01  0.51100000000E-03 0.  1.
</event>
<event>
 8    1  0.1079508E+005  0.1043930E+01  0.7957747E-01            NaN
         13   -1    0    0    0    0  0.00000000000E+00  0.00000000000E+00  0.74505805969E-08  0.10566000000E+00  0.10566000000E+00 0.  1.
     999900   -1    0    0    0    0 -0.00000000000E+00 -0.00000000000E+00 -0.74505805969E-08  0.93827000000E+00  0.93827000000E+00 0.  1.
     999902    2    1    2    0    0  0.19302339674E-01 -0.18167989422E-02 -0.14131896726E-01  0.10199385103E+01  0.10196563015E+01 0.  0.
     999903    2    3    3    0    0 -0.35949531430E-01 -0.39729981386E-01 -0.11829940010E+00  0.13126475266E+00  0.19100968463E-01 0.  0.
         14    1    1    2    0    0 -0.19302339674E-01  0.18167989422E-02  0.14131896726E-01  0.23991489749E-01  0.00000000000E+00 0.  1.
     999901    1    3    3    0    0  0.55251871104E-01  0.37913182444E-01  0.10416750338E+00  0.88867375759E+00  0.88000000000E+00 0. -1.
        -11    1    4    4    0    0 -0.28163817673E-01 -0.19863570861E-01 -0.60201518096E-01  0.69370353721E-01  0.51100000000E-03 0.  1.
         11    1    4    4    0    0 -0.77857137569E-02 -0.19866410526E-01 -0.58097882007E-01  0.61894398944E-01  0.51100000000E-03 0. -1.
</event>
<event>
 8    1  0.1079508E+005  0.1043930E+01  0.7957747E-01            NaN
         13   -1    0    0    0    0  0.00000000000E+00  0.00000000000E+00  0.74505805969E-08  0.10566000000E+00  0.10566000000E+00 0. -1.
     999900   -1    0    0    0    0 -0.00000000000E+00 -0.00000000000E+00 -0.74505805969E-08  0.93827000000E+00  0.93827000000E+00 0. -1.
     999902    2    1    2    0    0  0.59042198339E-02 -0.10585222906E-01 -0.21153020651E-01  0.10195505612E+01  0.10192590396E+01 0.  0.
     999903    2    3    3    0    0 -0.70968328533E-01 -0.49593172046E-01  0.91907882376E-01  0.12813944580E+00  0.21832827528E-01 0.  0.
         14    1    1    2    0    0 -0.59042198339E-02  0.10585222906E-01  0.21153020651E-01  0.24379438847E-01  0.00000000000E+00 0.  1.
     999901    1    3    3    0    0  0.76872548367E-01  0.39007949140E-01 -0.11306090303E+00  0.89141111536E+00  0.88000000000E+00 0. -1.
        -11    1    4    4    0    0 -0.51445046323E-01 -0.37741123108E-01  0.80149585879E-01  0.10244609510E+00  0.51100000000E-03 0. -1.
         11    1    4    4    0    0 -0.19523282210E-01 -0.11852048938E-01  0.11758296497E-01  0.25693350692E-01  0.51100000000E-03 0.  1.
</event>
<event>
 8    1  0.1281958E+005  0.1043930E+01  0.7957747E-01            NaN
         13   -1    0    0    0    0  0.00000000000E+00  0.00000000000E+00  0.74505805969E-08  0.10566000000E+00  0.10566000000E+00 0. -1.
     999900   -1    0    0    0    0 -0.00000000000E+00 -0.00000000000E+00 -0.74505805969E-08  0.93827000000E+00  0.93827000000E+00 0.  1.
     999902    2    1    2    0    0 -0.82332989762E-02  0.33488025803E-02  0.21200544600E-01  0.10209416381E+01  0.10206827929E+01 0.  0.
     999903    2    3    3    0    0  0.11443984108E+00  0.11161444316E-01 -0.54811832570E-01  0.12915263945E+00  0.21331015486E-01 0.  0.
         14    1    1    2    0    0  0.82332989762E-02 -0.33488025803E-02 -0.21200544600E-01  0.22988361884E-01  0.00000000000E+00 0.  1.
     999901    1    3    3    0    0 -0.12267314005E+00 -0.78126417356E-02  0.76012377171E-01  0.89178899867E+00  0.88000000000E+00 0. -1.
        -11    1    4    4    0    0  0.56167717306E-01  0.99315443836E-02 -0.16420013104E-01  0.59357611075E-01  0.51100000000E-03 0.  1.
         11    1    4    4    0    0  0.58272123772E-01  0.12298999322E-02 -0.38391819466E-01  0.69795028374E-01  0.51100000000E-03 0. -1.
</event>
<event>
 8    1  0.1079508E+005  0.1043930E+01  0.7957747E-01            NaN
         13   -1    0    0    0    0  0.00000000000E+00  0.00000000000E+00  0.74505805969E-08  0.10566000000E+00  0.10566000000E+00 0. -1.
     999900   -1    0    0    0    0 -0.00000000000E+00 -0.00000000000E+00 -0.74505805969E-08  0.93827000000E+00  0.93827000000E+00 0.  1.
     999902    2    1    2    0    0 -0.88188961143E-02  0.15333581983E-02  0.21829655744E-01  0.10203363995E+01  0.10200635814E+01 0.  0.
     999903    2    3    3    0    0 -0.18474897821E-01  0.11283530242E+00 -0.58062953926E-01  0.12968260016E+00  0.19316905638E-01 0.  0.
         14    1    1    2    0    0  0.88188961143E-02 -0.15333581983E-02 -0.21829655744E-01  0.23593600529E-01  0.00000000000E+00 0.  1.
     999901    1    3    3    0    0  0.96560017070E-02 -0.11130194422E+00  0.79892609670E-01  0.89065379932E+00  0.88000000000E+00 0. -1.
        -11    1    4    4    0    0 -0.97015639025E-02  0.70895012597E-01 -0.25887095952E-01  0.76096162920E-01  0.51100000000E-03 0. -1.
         11    1    4    4    0    0 -0.87733339189E-02  0.41940289819E-01 -0.32175857974E-01  0.53586437235E-01  0.51100000000E-03 0.  1.
</event>
<event>
 8    1  0.1079508E+005  0.1043930E+01  0.7957747E-01            NaN
         13   -1    0    0    0    0  0.00000000000E+00  0.00000000000E+00  0.74505805969E-08  0.10566000000E+00  0.10566000000E+00 0. -1.
     999900   -1    0    0    0    0 -0.00000000000E+00 -0.00000000000E+00 -0.74505805969E-08  0.93827000000E+00  0.93827000000E+00 0.  1.
     999902    2    1    2    0    0 -0.12750260156E-01  0.36690518138E-02  0.20069772458E-01  0.10198711795E+01  0.10195873656E+01 0.  0.
     999903    2    3    3    0    0  0.17298864216E-01 -0.78188069004E-01  0.10256252439E+00  0.13172220993E+00  0.20470572594E-01 0.  0.
         14    1    1    2    0    0  0.12750260156E-01 -0.36690518138E-02 -0.20069772458E-01  0.24058820456E-01  0.00000000000E+00 0. -1.
     999901    1    3    3    0    0 -0.30049124372E-01  0.81857120818E-01 -0.82492751930E-01  0.88814896961E+00  0.88000000000E+00 0.  1.
        -11    1    4    4    0    0  0.55916187381E-02 -0.10824986997E-01  0.28085308783E-01  0.30618494967E-01  0.51100000000E-03 0. -1.
         11    1    4    4    0    0  0.11707245478E-01 -0.67363082007E-01  0.74477215605E-01  0.10110371496E+00  0.51100000000E-03 0.  1.
</event>
<event>
 8    1  0.1079508E+005  0.1043930E+01  0.7957747E-01            NaN
         13   -1    0    0    0    0  0.00000000000E+00  0.00000000000E+00  0.74505805969E-08  0.10566000000E+00  0.10566000000E+00 0.  1.
     999900   -1    0    0    0    0 -0.00000000000E+00 -0.00000000000E+00 -0.74505805969E-08  0.93827000000E+00  0.93827000000E+00 0. -1.
     999902    2    1    2    0    0  0.16049156388E-02  0.10856406065E-01 -0.22194079329E-01  0.10191708711E+01  0.10188700850E+01 0.  0.
     999903    2    3    3    0    0  0.89619135514E-01 -0.71684280181E-01 -0.58210322365E-01  0.13020707119E+00  0.19879997024E-01 0.  0.
         14    1    1    2    0    0 -0.16049156388E-02 -0.10856406065E-01  0.22194079329E-01  0.24759128905E-01  0.00000000000E+00 0.  1.
     999901    1    3    3    0    0 -0.88014219875E-01  0.82540686246E-01  0.36016243036E-01  0.88896379991E+00  0.88000000000E+00 0.  1.
        -11    1    4    4    0    0  0.69349216915E-01 -0.46674942907E-01 -0.48175902458E-01  0.96483381371E-01  0.51100000000E-03 0.  1.
         11    1    4    4    0    0  0.20269918599E-01 -0.25009337274E-01 -0.10034419907E-01  0.33723689815E-01  0.51100000000E-03 0. -1.
</event>
<event>
 8    1  0.1079508E+005  0.1043930E+01  0.7957747E-01            NaN
         13   -1    0    0    0    0  0.00000000000E+00  0.00000000000E+00  0.74505805969E-08  0.10566000000E+00  0.10566000000E+00 0. -1.
     999900   -1    0    0    0    0 -0.00000000000E+00 -0.00000000000E+00 -0.74505805969E-08  0.93827000000E+00  0.93827000000E+00 0.  1.
     999902    2    1    2    0    0 -0.21206695280E-01  0.12104748790E-01  0.92456749670E-02  0.10178200139E+01  0.10174850610E+01 0.  0.
     999903    2    3    3    0    0  0.11710625519E+00  0.38286921366E-02  0.42108974953E-01  0.12637233633E+00  0.21639494652E-01 0.  0.
         14    1    1    2    0    0  0.21206695280E-01 -0.12104748790E-01 -0.92456749670E-02  0.26109986089E-01  0.00000000000E+00 0. -1.
     999901    1    3    3    0    0 -0.13831295047E+00  0.82760566532E-02 -0.32863299986E-01  0.89144767758E+00  0.88000000000E+00 0. -1.
        -11    1    4    4    0    0  0.42177248347E-01  0.10216229861E-01  0.21293656284E-01  0.48342243945E-01  0.51100000000E-03 0. -1.
         11    1    4    4    0    0  0.74929006845E-01 -0.63875377246E-02  0.20815318668E-01  0.78030092383E-01  0.51100000000E-03 0.  1.
</event>
<event>
 8    1  0.1079508E+005  0.1043930E+01  0.7957747E-01            NaN
         13   -1    0    0    0    0  0.00000000000E+00  0.00000000000E+00  0.74505805969E-08  0.10566000000E+00  0.10566000000E+00 0. -1.
     999900   -1    0    0    0    0 -0.00000000000E+00 -0.00000000000E+00 -0.74505805969E-08  0.93827000000E+00  0.93827000000E+00 0.  1.
     999902    2    1    2    0    0 -0.93293474570E-02  0.43755074182E-02 -0.23025669745E-01  0.10187037586E+01  0.10183913710E+01 0.  0.
     999903    2    3    3    0    0 -0.86406762593E-01  0.82180707265E-01 -0.51492682229E-01  0.13145804974E+00  0.20246610834E-01 0.  0.
         14    1    1    2    0    0  0.93293474570E-02 -0.43755074182E-02  0.23025669745E-01  0.25226241423E-01  0.00000000000E+00 0. -1.
     999901    1    3    3    0    0  0.77077415136E-01 -0.77805199847E-01  0.28467012484E-01  0.88724570884E+00  0.88000000000E+00 0. -1.
        -11    1    4    4    0    0 -0.14290050403E-01  0.58046426343E-02 -0.10660168934E-01  0.18756325316E-01  0.51100000000E-03 0.  1.
         11    1    4    4    0    0 -0.72116712190E-01  0.76376064630E-01 -0.40832513294E-01  0.11270172443E+00  0.51100000000E-03 0. -1.
</event>
<event>
 7    1  0.1079508E+005  0.1043930E+01  0.7957747E-01            NaN
         13   -1    0    0    0    0  0.00000000000E+00  0.00000000000E+00  0.74505805969E-08  0.10566000000E+00  0.10566000000E+00 0. -1.
     999900   -1    0    0    0    0 -0.00000000000E+00 -0.00000000000E+00 -0.74505805969E-08  0.93827000000E+00  0.93827000000E+00 0.  1.
     999903    2    1    2    0    0 -0.10391597916E-01 -0.44748466709E-01  0.10082332545E+00  0.11260213893E+00  0.20087014613E-01 0.  0.
         14    1    1    2    0    0 -0.28401792546E-01  0.51690165534E-02 -0.37484479058E-01  0.47312437289E-01  0.00000000000E+00 0.  1.
     999901    1    1    2    0    0  0.38793390462E-01  0.39579450155E-01 -0.63338846397E-01  0.88401542378E+00  0.88000000000E+00 0. -1.
        -11    1    3    3    0    0  0.57519738010E-02 -0.10507052375E-01  0.29729045183E-01  0.32055586108E-01  0.51100000000E-03 0.  1.
         11    1    3    3    0    0 -0.16143571717E-01 -0.34241414334E-01  0.71094280272E-01  0.80546552824E-01  0.51100000000E-03 0. -1.
</event>
<event>
 8    1  0.1079508E+005  0.1043930E+01  0.7957747E-01            NaN
         13   -1    0    0    0    0  0.00000000000E+00  0.00000000000E+00  0.74505805969E-08  0.10566000000E+00  0.10566000000E+00 0.  1.
     999900   -1    0    0    0    0 -0.00000000000E+00 -0.00000000000E+00 -0.74505805969E-08  0.93827000000E+00  0.93827000000E+00 0.  1.
     999902    2    1    2    0    0 -0.27807973168E-03 -0.62123541417E-02  0.22852131057E-01  0.10202468717E+01  0.10199719548E+01 0.  0.
     999903    2    3    3    0    0 -0.91732701518E-01  0.30505283932E-01  0.88198248779E-01  0.13233795301E+00  0.19721608516E-01 0.  0.
         14    1    1    2    0    0  0.27807973168E-03  0.62123541417E-02 -0.22852131057E-01  0.23683128302E-01  0.00000000000E+00 0. -1.
     999901    1    3    3    0    0  0.91454621786E-01 -0.36717638074E-01 -0.65346117722E-01  0.88790891869E+00  0.88000000000E+00 0.  1.
        -11    1    4    4    0    0 -0.70077833540E-01  0.16545985490E-01  0.72401470866E-01  0.10211222500E+00  0.51100000000E-03 0. -1.
         11    1    4    4    0    0 -0.21654867978E-01  0.13959298443E-01  0.15796777913E-01  0.30225728007E-01  0.51100000000E-03 0.  1.
</event>
<event>
 8    1  0.1079508E+005  0.1043930E+01  0.7957747E-01            NaN
         13   -1    0    0    0    0  0.00000000000E+00  0.00000000000E+00  0.74505805969E-08  0.10566000000E+00  0.10566000000E+00 0. -1.
     999900   -1    0    0    0    0 -0.00000000000E+00 -0.00000000000E+00 -0.74505805969E-08  0.93827000000E+00  0.93827000000E+00 0. -1.
     999902    2    1    2    0    0 -0.11163756630E-01 -0.14625810141E-01  0.16214611713E-02  0.10254591332E+01  0.10252927684E+01 0.  0.
     999903    2    3    3    0    0  0.67375257912E-02 -0.49265244708E-01 -0.12451833139E+00  0.13560993608E+00  0.20317020478E-01 0.  0.
         14    1    1    2    0    0  0.11163756630E-01  0.14625810141E-01 -0.16214611713E-02  0.18470866810E-01  0.00000000000E+00 0.  1.
     999901    1    3    3    0    0 -0.17901282421E-01  0.34639434566E-01  0.12613979256E+00  0.88984919711E+00  0.88000000000E+00 0.  1.
        -11    1    4    4    0    0  0.32026717666E-02 -0.45092600268E-01 -0.90637627604E-01  0.10128692099E+00  0.51100000000E-03 0. -1.
         11    1    4    4    0    0  0.35348540247E-02 -0.41726444398E-02 -0.33880703783E-01  0.34323015083E-01  0.51100000000E-03 0.  1.
</event>
<event>
 8    1  0.1079508E+005  0.1043930E+01  0.7957747E-01            NaN
         13   -1    0    0    0    0  0.00000000000E+00  0.00000000000E+00  0.74505805969E-08  0.10566000000E+00  0.10566000000E+00 0.  1.
     999900   -1    0    0    0    0 -0.00000000000E+00 -0.00000000000E+00 -0.74505805969E-08  0.93827000000E+00  0.93827000000E+00 0.  1.
     999902    2    1    2    0    0 -0.19899348493E-02  0.16880017944E-01  0.17037707632E-01  0.10198638759E+01  0.10195798875E+01 0.  0.
     999903    2    3    3    0    0 -0.11687484814E+00 -0.62415033602E-02 -0.51591500531E-01  0.12944649275E+00  0.19900378535E-01 0.  0.
         14    1    1    2    0    0  0.19899348493E-02 -0.16880017944E-01 -0.17037707632E-01  0.24066124072E-01  0.00000000000E+00 0.  1.
     999901    1    3    3    0    0  0.11488491329E+00  0.23121521304E-01  0.68629208164E-01  0.89041738318E+00  0.88000000000E+00 0. -1.
        -11    1    4    4    0    0 -0.47555091333E-01 -0.12187956323E-01 -0.19493897596E-01  0.52823348583E-01  0.51100000000E-03 0. -1.
         11    1    4    4    0    0 -0.69319756811E-01  0.59464529626E-02 -0.32097602935E-01  0.76623144169E-01  0.51100000000E-03 0.  1.
</event>
<event>
 8    1  0.1079508E+005  0.1043930E+01  0.7957747E-01            NaN
         13   -1    0    0    0    0  0.00000000000E+00  0.00000000000E+00  0.74505805969E-08  0.10566000000E+00  0.10566000000E+00 0.  1.
     999900   -1    0    0    0    0 -0.00000000000E+00 -0.00000000000E+00 -0.74505805969E-08  0.93827000000E+00  0.93827000000E+00 0.  1.
     999902    2    1    2    0    0 -0.29012346754E-02 -0.16417426370E-01  0.19762451794E-01  0.10180745644E+01  0.10177461938E+01 0.  0.
     999903    2    3    3    0    0 -0.12622703160E+00  0.43961587038E-02 -0.13653108331E-01  0.12860334101E+00  0.19995555336E-01 0.  0.
         14    1    1    2    0    0  0.29012346754E-02  0.16417426370E-01 -0.19762451794E-01  0.25855435640E-01  0.00000000000E+00 0. -1.
     999901    1    3    3    0    0  0.12332579693E+00 -0.20813585073E-01  0.33415560125E-01  0.88947122335E+00  0.88000000000E+00 0. -1.
        -11    1    4    4    0    0 -0.12595661353E-01 -0.19915687158E-02  0.41224440332E-02  0.13411662711E-01  0.51100000000E-03 0.  1.
         11    1    4    4    0    0 -0.11363137025E+00  0.63877274196E-02 -0.17775552365E-01  0.11519167830E+00  0.51100000000E-03 0. -1.
</event>
<event>
 8    1  0.1079508E+005  0.1043930E+01  0.7957747E-01            NaN
         13   -1    0    0    0    0  0.00000000000E+00  0.00000000000E+00  0.74505805969E-08  0.10566000000E+00  0.10566000000E+00 0.  1.
     999900   -1    0    0    0    0 -0.00000000000E+00 -0.00000000000E+00 -0.74505805969E-08  0.93827000000E+00  0.93827000000E+00 0.  1.
     999902    2    1    2    0    0  0.13715668166E-01 -0.15310299801E-01  0.13270374479E-01  0.10194631311E+01  0.10191694894E+01 0.  0.
     999903    2    3    3    0    0  0.98181027018E-01 -0.60446932113E-01  0.62800312360E-01  0.13288266261E+00  0.20507977025E-01 0.  0.
         14    1    1    2    0    0 -0.13715668166E-01  0.15310299801E-01 -0.13270374479E-01  0.24466868865E-01  0.00000000000E+00 0. -1.
     999901    1    3    3    0    0 -0.84465358852E-01  0.45136632312E-01 -0.49529937881E-01  0.88658046852E+00  0.88000000000E+00 0.  1.
        -11    1    4    4    0    0  0.70911308400E-01 -0.45573176669E-01  0.35280311209E-01  0.91379918859E-01  0.51100000000E-03 0. -1.
         11    1    4    4    0    0  0.27269718618E-01 -0.14873755445E-01  0.27520001151E-01  0.41502743751E-01  0.51100000000E-03 0.  1.
</event>
<event>
 8    1  0.1079508E+005  0.1043930E+01  0.7957747E-01            NaN
         13   -1    0    0    0    0  0.00000000000E+00  0.00000000000E+00  0.74505805969E-08  0.10566000000E+00  0.10566000000E+00 0.  1.
     999900   -1    0    0    0    0 -0.00000000000E+00 -0.00000000000E+00 -0.74505805969E-08  0.93827000000E+00  0.93827000000E+00 0. -1.
     999902    2    1    2    0    0  0.11665459524E-01 -0.13123145509E-01  0.16358194024E-01  0.10199322833E+01  0.10196499263E+01 0.  0.
     999903    2    3    3    0    0  0.11352161652E+00 -0.63811223327E-01  0.15715261425E-01  0.13260800702E+00  0.19464954309E-01 0.  0.
         14    1    1    2    0    0 -0.11665459524E-01  0.13123145509E-01 -0.16358194024E-01  0.23997716676E-01  0.00000000000E+00 0. -1.
     999901    1    3    3    0    0 -0.10185615699E+00  0.50688077818E-01  0.64293259917E-03  0.88732427630E+00  0.88000000000E+00 0. -1.
        -11    1    4    4    0    0  0.43042833695E-01 -0.34961414803E-01  0.86316403826E-02  0.56122654910E-01  0.51100000000E-03 0.  1.
         11    1    4    4    0    0  0.70478782821E-01 -0.28849808525E-01  0.70836210422E-02  0.76485352113E-01  0.51100000000E-03 0. -1.
</event>
<event>
 8    1  0.1079508E+005  0.1043930E+01  0.7957747E-01            NaN
         13   -1    0    0    0    0  0.00000000000E+00  0.00000000000E+00  0.74505805969E-08  0.10566000000E+00  0.10566000000E+00 0. -1.
     999900   -1    0    0    0    0 -0.00000000000E+00 -0.00000000000E+00 -0.74505805969E-08  0.93827000000E+00  0.93827000000E+00 0.  1.
     999902    2    1    2    0    0  0.22418715497E-01 -0.73692244152E-02 -0.63055410515E-02  0.10195032908E+01  0.10192106239E+01 0.  0.
     999903    2    3    3    0    0 -0.57631000884E-01 -0.54870426029E-01  0.98977730687E-01  0.12835297323E+00  0.18595662116E-01 0.  0.
         14    1    1    2    0    0 -0.22418715497E-01  0.73692244152E-02  0.63055410515E-02  0.24426709172E-01  0.00000000000E+00 0.  1.
     999901    1    3    3    0    0  0.80049716381E-01  0.47501201614E-01 -0.10528327174E+00  0.89115031760E+00  0.88000000000E+00 0.  1.
        -11    1    4    4    0    0 -0.43553969126E-01 -0.44511409558E-01  0.64292841460E-01  0.89510023972E-01  0.51100000000E-03 0. -1.
         11    1    4    4    0    0 -0.14077031757E-01 -0.10359016471E-01  0.34684889227E-01  0.38842949258E-01  0.51100000000E-03 0.  1.
</event>
<event>
 8    1  0.1079508E+005  0.1043930E+01  0.7957747E-01            NaN
         13   -1    0    0    0    0  0.00000000000E+00  0.00000000000E+00  0.74505805969E-08  0.10566000000E+00  0.10566000000E+00 0.  1.
     999900   -1    0    0    0    0 -0.00000000000E+00 -0.00000000000E+00 -0.74505805969E-08  0.93827000000E+00  0.93827000000E+00 0.  1.
     999902    2    1    2    0    0  0.26497380936E-01 -0.47870383397E-02 -0.41311002059E-02  0.10166886175E+01  0.10163235961E+01 0.  0.
     999903    2    3    3    0    0 -0.60439258889E-01 -0.50966987146E-02  0.10794705285E+00  0.12533033507E+00  0.19397069783E-01 0.  0.
         14    1    1    2    0    0 -0.26497380936E-01  0.47870383397E-02  0.41311002059E-02  0.27241382517E-01  0.00000000000E+00 0.  1.
     999901    1    3    3    0    0  0.86936639826E-01  0.30966037490E-03 -0.11207815306E+00  0.89135828241E+00  0.88000000000E+00 0.  1.
        -11    1    4    4    0    0 -0.26974965000E-01  0.43837286221E-02  0.61508926876E-01  0.67308803435E-01  0.51100000000E-03 0.  1.
         11    1    4    4    0    0 -0.33464293890E-01 -0.94804273367E-02  0.46438125976E-01  0.58021531635E-01  0.51100000000E-03 0. -1.
</event>
<event>
 8    1  0.1079508E+005  0.1043930E+01  0.7957747E-01            NaN
         13   -1    0    0    0    0  0.00000000000E+00  0.00000000000E+00  0.74505805969E-08  0.10566000000E+00  0.10566000000E+00 0.  1.
     999900   -1    0    0    0    0 -0.00000000000E+00 -0.00000000000E+00 -0.74505805969E-08  0.93827000000E+00  0.93827000000E+00 0. -1.
     999902    2    1    2    0    0 -0.12214046878E-01 -0.16770159901E-01  0.28065547204E-02  0.10229944333E+01  0.10227801878E+01 0.  0.
     999903    2    3    3    0    0 -0.11838553457E-01  0.39875047099E-01 -0.12372664237E+00  0.13214120719E+00  0.20563216588E-01 0.  0.
         14    1    1    2    0    0  0.12214046878E-01  0.16770159901E-01 -0.28065547204E-02  0.20935566714E-01  0.00000000000E+00 0. -1.
     999901    1    3    3    0    0 -0.37549342101E-03 -0.56645207000E-01  0.12653319709E+00  0.89085322609E+00  0.88000000000E+00 0.  1.
        -11    1    4    4    0    0 -0.17079690750E-01  0.26779856816E-01 -0.94251421448E-01  0.99460887454E-01  0.51100000000E-03 0. -1.
         11    1    4    4    0    0  0.52411372922E-02  0.13095190283E-01 -0.29475220926E-01  0.32680319740E-01  0.51100000000E-03 0.  1.
</event>
<event>
 8    1  0.1079508E+005  0.1043930E+01  0.7957747E-01            NaN
         13   -1    0    0    0    0  0.00000000000E+00  0.00000000000E+00  0.74505805969E-08  0.10566000000E+00  0.10566000000E+00 0.  1.
     999900   -1    0    0    0    0 -0.00000000000E+00 -0.00000000000E+00 -0.74505805969E-08  0.93827000000E+00  0.93827000000E+00 0.  1.
     999902    2    1    2    0    0 -0.17942611377E-01  0.12880540720E-01 -0.83751305396E-02  0.10203082210E+01  0.10200347432E+01 0.  0.
     999903    2    3    3    0    0 -0.14624284417E-01  0.77659017932E-01 -0.10467593564E+00  0.13268154976E+00  0.20063633354E-01 0.  0.
         14    1    1    2    0    0  0.17942611377E-01 -0.12880540720E-01  0.83751305396E-02  0.23621779015E-01  0.00000000000E+00 0. -1.
     999901    1    3    3    0    0 -0.33183269603E-02 -0.64778477212E-01  0.96300805104E-01  0.88762667122E+00  0.88000000000E+00 0. -1.
        -11    1    4    4    0    0  0.22485872031E-02  0.34559666094E-01 -0.36914299646E-01  0.50619692850E-01  0.51100000000E-03 0. -1.
         11    1    4    4    0    0 -0.16872871620E-01  0.43099351838E-01 -0.67761635998E-01  0.82061856911E-01  0.51100000000E-03 0.  1.
</event>
<event>
 8    1  0.1079508E+005  0.1043930E+01  0.7957747E-01            NaN
         13   -1    0    0    0    0  0.00000000000E+00  0.00000000000E+00  0.74505805969E-08  0.10566000000E+00  0.10566000000E+00 0.  1.
     999900   -1    0    0    0    0 -0.00000000000E+00 -0.00000000000E+00 -0.74505805969E-08  0.93827000000E+00  0.93827000000E+00 0. -1.
     999902    2    1    2    0    0  0.18360280599E-01 -0.12465612816E-01 -0.83197116000E-02  0.10202295990E+01  0.10199542763E+01 0.  0.
     999903    2    3    3    0    0  0.11478546027E+00  0.22982048651E-01 -0.59294536336E-01  0.13278789120E+00  0.20320077760E-01 0.  0.
         14    1    1    2    0    0 -0.18360280599E-01  0.12465612816E-01  0.83197116000E-02  0.23700401002E-01  0.00000000000E+00 0.  1.
     999901    1    3    3    0    0 -0.96425179675E-01 -0.35447661467E-01  0.50974824736E-01  0.88744170780E+00  0.88000000000E+00 0.  1.
        -11    1    4    4    0    0  0.67149931801E-01  0.14100963948E-01 -0.45756041830E-01  0.82473189644E-01  0.51100000000E-03 0. -1.
         11    1    4    4    0    0  0.47635528473E-01  0.88810847027E-02 -0.13538494506E-01  0.50314701558E-01  0.51100000000E-03 0.  1.
</event>
<event>
 8    1  0.1079508E+005  0.1043930E+01  0.7957747E-01            NaN
         13   -1    0    0    0    0  0.00000000000E+00  0.00000000000E+00  0.74505805969E-08  0.10566000000E+00  0.10566000000E+00 0.  1.
     999900   -1    0    0    0    0 -0.00000000000E+00 -0.00000000000E+00 -0.74505805969E-08  0.93827000000E+00  0.93827000000E+00 0.  1.
     999902    2    1    2    0    0 -0.72513886831E-03 -0.18225104115E-01  0.15559475282E-01  0.10199554819E+01  0.10196736770E+01 0.  0.
     999903    2    3    3    0    0  0.10460796533E+00 -0.30407261272E-02 -0.72937121715E-01  0.12913716382E+00  0.20112457051E-01 0.  0.
         14    1    1    2    0    0  0.72513886831E-03  0.18225104115E-01 -0.15559475282E-01  0.23974518085E-01  0.00000000000E+00 0. -1.
     999901    1    3    3    0    0 -0.10533310420E+00 -0.15184377988E-01  0.88496596997E-01  0.89081831810E+00  0.88000000000E+00 0. -1.
        -11    1    4    4    0    0  0.97434850625E-01  0.16133031144E-02 -0.63107794584E-01  0.11609912886E+00  0.51100000000E-03 0. -1.
         11    1    4    4    0    0  0.71731147074E-02 -0.46540292417E-02 -0.98293271315E-02  0.13038034961E-01  0.51100000000E-03 0.  1.
</event>
<event>
 8    1  0.1079508E+005  0.1043930E+01  0.7957747E-01            NaN
         13   -1    0    0    0    0  0.00000000000E+00  0.00000000000E+00  0.74505805969E-08  0.10566000000E+00  0.10566000000E+00 0.  1.
     999900   -1    0    0    0    0 -0.00000000000E+00 -0.00000000000E+00 -0.74505805969E-08  0.93827000000E+00  0.93827000000E+00 0. -1.
     999902    2    1    2    0    0 -0.36571765578E-02 -0.13948612206E-01  0.19092075776E-01  0.10200041546E+01  0.10197235063E+01 0.  0.
     999903    2    3    3    0    0 -0.83407215478E-01 -0.41696950297E-01 -0.87660536849E-01  0.12954014109E+00  0.20021967306E-01 0.  0.
         14    1    1    2    0    0  0.36571765578E-02  0.13948612206E-01 -0.19092075776E-01  0.23925845446E-01  0.00000000000E+00 0. -1.
     999901    1    3    3    0    0  0.79750038921E-01  0.27748338091E-01  0.10675261262E+00  0.89046401347E+00  0.88000000000E+00 0. -1.
        -11    1    4    4    0    0 -0.26109344239E-01 -0.32711902593E-02 -0.26360002568E-01  0.37249287224E-01  0.51100000000E-03 0. -1.
         11    1    4    4    0    0 -0.57297871239E-01 -0.38425760038E-01 -0.61300534281E-01  0.92290853865E-01  0.51100000000E-03 0.  1.
</event>
<event>
 8    1  0.1079508E+005  0.1043930E+01  0.7957747E-01            NaN
         13   -1    0    0    0    0  0.00000000000E+00  0.00000000000E+00  0.74505805969E-08  0.10566000000E+00  0.10566000000E+00 0.  1.
     999900   -1    0    0    0    0 -0.00000000000E+00 -0.00000000000E+00 -0.74505805969E-08  0.93827000000E+00  0.93827000000E+00 0. -1.
     999902    2    1    2    0    0 -0.40250304806E-02  0.22420473379E-01  0.80426778703E-02  0.10197729479E+01  0.10194867837E+01 0.  0.
     999903    2    3    3    0    0  0.31434444349E-01 -0.18128245739E-01  0.12382440427E+00  0.13055588718E+00  0.19889670671E-01 0.  0.
         14    1    1    2    0    0  0.40250304806E-02 -0.22420473379E-01 -0.80426778703E-02  0.24157052060E-01  0.00000000000E+00 0.  1.
     999901    1    3    3    0    0 -0.35459474830E-01  0.40548719118E-01 -0.11578172640E+00  0.88921706076E+00  0.88000000000E+00 0. -1.
        -11    1    4    4    0    0  0.19654334335E-02 -0.99927019974E-02  0.41573636230E-01  0.42805903473E-01  0.51100000000E-03 0.  1.
         11    1    4    4    0    0  0.29469010915E-01 -0.81355437413E-02  0.82250768041E-01  0.87749983707E-01  0.51100000000E-03 0. -1.
</event>
<event>
 8    1  0.1079508E+005  0.1043930E+01  0.7957747E-01            NaN
         13   -1    0    0    0    0  0.00000000000E+00  0.00000000000E+00  0.74505805969E-08  0.10566000000E+00  0.10566000000E+00 0. -1.
     999900   -1    0    0    0    0 -0.00000000000E+00 -0.00000000000E+00 -0.74505805969E-08  0.93827000000E+00  0.93827000000E+00 0.  1.
     999902    2    1    2    0    0 -0.27345128951E-02  0.24645957821E-01 -0.23383922733E-02  0.10190227947E+01  0.10187183552E+01 0.  0.
     999903    2    3    3    0    0 -0.59169669316E-01 -0.69882036512E-01 -0.87367848617E-01  0.12809604291E+00  0.19771354136E-01 0.  0.
         14    1    1    2    0    0  0.27345128951E-02 -0.24645957821E-01  0.23383922733E-02  0.24907205305E-01  0.00000000000E+00 0. -1.
     999901    1    3    3    0    0  0.56435156420E-01  0.94527994333E-01  0.85029456343E-01  0.89092675178E+00  0.88000000000E+00 0. -1.
        -11    1    4    4    0    0 -0.22991708605E-01 -0.41079369805E-01 -0.49623272445E-01  0.68402219097E-01  0.51100000000E-03 0.  1.
         11    1    4    4    0    0 -0.36177960710E-01 -0.28802666707E-01 -0.37744576172E-01  0.59693823818E-01  0.51100000000E-03 0. -1.
</event>
<event>
 8    1  0.1079508E+005  0.1043930E+01  0.7957747E-01            NaN
         13   -1    0    0    0    0  0.00000000000E+00  0.00000000000E+00  0.74505805969E-08  0.10566000000E+00  0.10566000000E+00 0. -1.
     999900   -1    0    0    0    0 -0.00000000000E+00 -0.00000000000E+00 -0.74505805969E-08  0.93827000000E+00  0.93827000000E+00 0.  1.
     999902    2    1    2    0    0 -0.13188730302E-01 -0.93232399416E-02  0.17378058248E-01  0.10202052804E+01  0.10199293857E+01 0.  0.
     999903    2    3    3    0    0 -0.43889815825E-02 -0.92420251210E-01  0.93553669826E-01  0.13297065946E+00  0.19187004612E-01 0.  0.
         14    1    1    2    0    0  0.13188730302E-01  0.93232399416E-02 -0.17378058248E-01  0.23724719566E-01  0.00000000000E+00 0.  1.
     999901    1    3    3    0    0 -0.87997487195E-02  0.83097011268E-01 -0.76175611577E-01  0.88723462098E+00  0.88000000000E+00 0.  1.
        -11    1    4    4    0    0 -0.11971864583E-01 -0.59848825099E-01  0.59512138764E-01  0.85247657965E-01  0.51100000000E-03 0.  1.
         11    1    4    4    0    0  0.75828830004E-02 -0.32571426111E-01  0.34041531062E-01  0.47723001493E-01  0.51100000000E-03 0. -1.
</event>
<event>
 8    1  0.1079508E+005  0.1043930E+01  0.7957747E-01            NaN
         13   -1    0    0    0    0  0.00000000000E+00  0.00000000000E+00  0.74505805969E-08  0.10566000000E+00  0.10566000000E+00 0. -1.
     999900   -1    0    0    0    0 -0.00000000000E+00 -0.00000000000E+00 -0.74505805969E-08  0.93827000000E+00  0.93827000000E+00 0.  1.
     999902    2    1    2    0    0 -0.11891507869E-01  0.19946646870E-01 -0.88494005699E-03  0.10206908133E+01  0.10204262230E+01 0.  0.
     999903    2    3    3    0    0 -0.32725715186E-01  0.12778879205E+00 -0.12993087763E-01  0.13378010767E+00  0.18092790554E-01 0.  0.
         14    1    1    2    0    0  0.11891507869E-01 -0.19946646870E-01  0.88494005699E-03  0.23239186725E-01  0.00000000000E+00 0.  1.
     999901    1    3    3    0    0  0.20834207317E-01 -0.10784214518E+00  0.12108147706E-01  0.88691070560E+00  0.88000000000E+00 0. -1.
        -11    1    4    4    0    0 -0.71728571978E-02  0.51170476368E-01 -0.11795964073E-01  0.53002579385E-01  0.51100000000E-03 0.  1.
         11    1    4    4    0    0 -0.25552857988E-01  0.76618315686E-01 -0.11971236900E-02  0.80777528287E-01  0.51100000000E-03 0. -1.
</event>
<event>
 8    1  0.1079508E+005  0.1043930E+01  0.7957747E-01            NaN
         13   -1    0    0    0    0  0.00000000000E+00  0.00000000000E+00  0.74505805969E-08  0.10566000000E+00  0.10566000000E+00 0.  1.
     999900   -1    0    0    0    0 -0.00000000000E+00 -0.00000000000E+00 -0.74505805969E-08  0.93827000000E+00  0.93827000000E+00 0.  1.
     999902    2    1    2    0    0  0.11645399602E-01  0.15276561994E-01  0.13296988824E-01  0.10205676673E+01  0.10203002327E+01 0.  0.
     999903    2    3    3    0    0 -0.16815314847E-02  0.11158091663E+00  0.70477214376E-01  0.13336886543E+00  0.19159541105E-01 0.  0.
         14    1    1    2    0    0 -0.11645399602E-01 -0.15276561994E-01 -0.13296988824E-01  0.23362332718E-01  0.00000000000E+00 0. -1.
     999901    1    3    3    0    0  0.13326931087E-01 -0.96304354638E-01 -0.57180225552E-01  0.88719880185E+00  0.88000000000E+00 0.  1.
        -11    1    4    4    0    0 -0.85652473348E-02  0.26306859219E-01  0.16837947726E-01  0.32391231970E-01  0.51100000000E-03 0.  1.
         11    1    4    4    0    0  0.68837158501E-02  0.85274057412E-01  0.53639266650E-01  0.10097763346E+00  0.51100000000E-03 0. -1.
</event>
<event>
 8    1  0.1079508E+005  0.1043930E+01  0.7957747E-01            NaN
         13   -1    0    0    0    0  0.00000000000E+00  0.00000000000E+00  0.74505805969E-08  0.10566000000E+00  0.10566000000E+00 0. -1.
     999900   -1    0    0    0    0 -0.00000000000E+00 -0.00000000000E+00 -0.74505805969E-08  0.93827000000E+00  0.93827000000E+00 0.  1.
     999902    2    1    2    0    0 -0.12336939371E-01  0.16513085871E-01 -0.12054401328E-01  0.10200513344E+01  0.10197718050E+01 0.  0.
     999903    2    3    3    0    0 -0.25843183467E-03 -0.86113908013E-01 -0.95299902316E-01  0.13010301927E+00  0.20713577721E-01 0.  0.
         14    1    1    2    0    0  0.12336939371E-01 -0.16513085871E-01  0.12054401328E-01  0.23878665570E-01  0.00000000000E+00 0. -1.
     999901    1    3    3    0    0 -0.12078507537E-01  0.10262699388E+00  0.83245500988E-01  0.88994831516E+00  0.88000000000E+00 0. -1.
        -11    1    4    4    0    0 -0.83954316054E-02 -0.19597980092E-01 -0.27148951091E-01  0.34523770969E-01  0.51100000000E-03 0. -1.
         11    1    4    4    0    0  0.81369997707E-02 -0.66515927921E-01 -0.68150951224E-01  0.95579248303E-01  0.51100000000E-03 0.  1.
</event>
<event>
 8    1  0.1079508E+005  0.1043930E+01  0.7957747E-01            NaN
         13   -1    0    0    0    0  0.00000000000E+00  0.00000000000E+00  0.74505805969E-08  0.10566000000E+00  0.10566000000E+00 0. -1.
     999900   -1    0    0    0    0 -0.00000000000E+00 -0.00000000000E+00 -0.74505805969E-08  0.93827000000E+00  0.93827000000E+00 0.  1.
     999902    2    1    2    0    0  0.18385077223E-02  0.22363967606E-01 -0.10717786295E-01  0.10190623885E+01  0.10187589281E+01 0.  0.
     999903    2    3    3    0    0 -0.89047343390E-01  0.72701070913E-01 -0.59921623395E-01  0.13158558348E+00  0.22567448948E-01 0.  0.
         14    1    1    2    0    0 -0.18385077223E-02 -0.22363967606E-01  0.10717786295E-01  0.24867611481E-01  0.00000000000E+00 0. -1.
     999901    1    3    3    0    0  0.90885851112E-01 -0.50337103307E-01  0.49203837100E-01  0.88747680504E+00  0.88000000000E+00 0. -1.
        -11    1    4    4    0    0 -0.54631665421E-01  0.53511087325E-01 -0.30178735959E-01  0.82213578917E-01  0.51100000000E-03 0. -1.
         11    1    4    4    0    0 -0.34415677969E-01  0.19189983588E-01 -0.29742887436E-01  0.49372004560E-01  0.51100000000E-03 0.  1.
</event>
<event>
 8    1  0.1079508E+005  0.1043930E+01  0.7957747E-01            NaN
         13   -1    0    0    0    0  0.00000000000E+00  0.00000000000E+00  0.74505805969E-08  0.10566000000E+00  0.10566000000E+00 0. -1.
     999900   -1    0    0    0    0 -0.00000000000E+00 -0.00000000000E+00 -0.74505805969E-08  0.93827000000E+00  0.93827000000E+00 0. -1.
     999902    2    1    2    0    0  0.17936487139E-01  0.15445796054E-01 -0.58014303673E-02  0.10195589766E+01  0.10192676587E+01 0.  0.
     999903    2    3    3    0    0 -0.56237242844E-01  0.31089405233E-01 -0.11113996220E+00  0.13004075251E+00  0.20720219968E-01 0.  0.
         14    1    1    2    0    0 -0.17936487139E-01 -0.15445796054E-01  0.58014303673E-02  0.24371023387E-01  0.00000000000E+00 0.  1.
     999901    1    3    3    0    0  0.74173729982E-01 -0.15643609179E-01  0.10533853183E+00  0.88951822411E+00  0.88000000000E+00 0.  1.
        -11    1    4    4    0    0 -0.45359902779E-01  0.23334569159E-01 -0.68855938758E-01  0.85693782279E-01  0.51100000000E-03 0.  1.
         11    1    4    4    0    0 -0.10877340064E-01  0.77548360739E-02 -0.42284023438E-01  0.44346970229E-01  0.51100000000E-03 0. -1.
</event>
<event>
 8    1  0.1079508E+005  0.1043930E+01  0.7957747E-01            NaN
         13   -1    0    0    0    0  0.00000000000E+00  0.00000000000E+00  0.74505805969E-08  0.10566000000E+00  0.10566000000E+00 0. -1.
     999900   -1    0    0    0    0 -0.00000000000E+00 -0.00000000000E+00 -0.74505805969E-08  0.93827000000E+00  0.93827000000E+00 0. -1.
     999902    2    1    2    0    0 -0.17595381881E-02 -0.23307677139E-01 -0.50271990378E-02  0.10200214969E+01  0.10197412602E+01 0.  0.
     999903    2    3    3    0    0  0.50464903905E-01 -0.48689705185E-01  0.10854882851E+00  0.13082458189E+00  0.20367354755E-01 0.  0.
         14    1    1    2    0    0  0.17595381881E-02  0.23307677139E-01  0.50271990378E-02  0.23908503057E-01  0.00000000000E+00 0.  1.
     999901    1    3    3    0    0 -0.52224442093E-01  0.25382028046E-01 -0.11357602755E+00  0.88919691505E+00  0.88000000000E+00 0. -1.
        -11    1    4    4    0    0  0.19982182620E-01 -0.30635262488E-01  0.65959026264E-01  0.75423213911E-01  0.51100000000E-03 0.  1.
         11    1    4    4    0    0  0.30482721285E-01 -0.18054442697E-01  0.42589802246E-01  0.55401367983E-01  0.51100000000E-03 0. -1.
</event>
<event>
 8    1  0.1079508E+005  0.1043930E+01  0.7957747E-01            NaN
         13   -1    0    0    0    0  0.00000000000E+00  0.00000000000E+00  0.74505805969E-08  0.10566000000E+00  0.10566000000E+00 0. -1.
     999900   -1    0    0    0    0 -0.00000000000E+00 -0.00000000000E+00 -0.74505805969E-08  0.93827000000E+00  0.93827000000E+00 0.  1.
     999902    2    1    2    0    0 -0.89865695332E-02  0.15623188858E-01 -0.16475288077E-01  0.10195112044E+01  0.10192187294E+01 0.  0.
     999903    2    3    3    0    0  0.58757895868E-01 -0.27827161612E-01  0.10749308953E+00  0.12718536469E+00  0.19862312142E-01 0.  0.
         14    1    1    2    0    0  0.89865695332E-02 -0.15623188858E-01  0.16475288077E-01  0.24418795615E-01  0.00000000000E+00 0. -1.
     999901    1    3    3    0    0 -0.67744465401E-01  0.43450350470E-01 -0.12396837761E+00  0.89232583970E+00  0.88000000000E+00 0.  1.
        -11    1    4    4    0    0  0.13427077782E-01 -0.95310427826E-02  0.13738626308E-01  0.21450831409E-01  0.51100000000E-03 0.  1.
         11    1    4    4    0    0  0.45330818086E-01 -0.18296118830E-01  0.93754463220E-01  0.10573453328E+00  0.51100000000E-03 0. -1.
</event>
<event>
 8    1  0.1079508E+005  0.1043930E+01  0.7957747E-01            NaN
         13   -1    0    0    0    0  0.00000000000E+00  0.00000000000E+00  0.74505805969E-08  0.10566000000E+00  0.10566000000E+00 0. -1.
     999900   -1    0    0    0    0 -0.00000000000E+00 -0.00000000000E+00 -0.74505805969E-08  0.93827000000E+00  0.93827000000E+00 0.  1.
     999902    2    1    2    0    0  0.29981630759E-02  0.12583323608E-01 -0.20610822223E-01  0.10195961756E+01  0.10193057571E+01 0.  0.
     999903    2    3    3    0    0  0.28762430870E-01  0.10946304708E+00 -0.66354064431E-01  0.13272418797E+00  0.20085121415E-01 0.  0.
         14    1    1    2    0    0 -0.29981630759E-02 -0.12583323608E-01  0.20610822223E-01  0.24333824352E-01  0.00000000000E+00 0. -1.
     999901    1    3    3    0    0 -0.25764267794E-01 -0.96879723467E-01  0.45743242208E-01  0.88687198767E+00  0.88000000000E+00 0.  1.
        -11    1    4    4    0    0 -0.35458046513E-03  0.29969952532E-01 -0.13143326775E-01  0.32731207460E-01  0.51100000000E-03 0.  1.
         11    1    4    4    0    0  0.29117011335E-01  0.79493094543E-01 -0.53210737656E-01  0.99992980514E-01  0.51100000000E-03 0. -1.
</event>
<event>
 8    1  0.1079508E+005  0.1043930E+01  0.7957747E-01            NaN
         13   -1    0    0    0    0  0.00000000000E+00  0.00000000000E+00  0.74505805969E-08  0.10566000000E+00  0.10566000000E+00 0. -1.
     999900   -1    0    0    0    0 -0.00000000000E+00 -0.00000000000E+00 -0.74505805969E-08  0.93827000000E+00  0.93827000000E+00 0. -1.
     999902    2    1    2    0    0  0.21438560676E-01  0.94521954395E-02 -0.13452031264E-01  0.10169130974E+01  0.10165541474E+01 0.  0.
     999903    2    3    3    0    0 -0.88280442850E-01  0.26133503708E-01  0.81412992671E-01  0.12488400673E+00  0.22170772566E-01 0.  0.
         14    1    1    2    0    0 -0.21438560676E-01 -0.94521954395E-02  0.13452031264E-01  0.27016902628E-01  0.00000000000E+00 0. -1.
     999901    1    3    3    0    0  0.10971900353E+00 -0.16681308268E-01 -0.94865023935E-01  0.89202909064E+00  0.88000000000E+00 0. -1.
        -11    1    4    4    0    0 -0.47850272783E-01  0.16706557297E-01  0.30368825459E-01  0.59087091169E-01  0.51100000000E-03 0. -1.
         11    1    4    4    0    0 -0.40430170067E-01  0.94269464114E-02  0.51044167212E-01  0.65796915564E-01  0.51100000000E-03 0.  1.
</event>
<event>
 8    1  0.1079508E+005  0.1043930E+01  0.7957747E-01            NaN
         13   -1    0    0    0    0  0.00000000000E+00  0.00000000000E+00  0.74505805969E-08  0.10566000000E+00  0.10566000000E+00 0. -1.
     999900   -1    0    0    0    0 -0.00000000000E+00 -0.00000000000E+00 -0.74505805969E-08  0.93827000000E+00  0.93827000000E+00 0. -1.
     999902    2    1    2    0    0  0.13160890944E-01 -0.15373035160E-01  0.12188298439E-01  0.10203059893E+01  0.10200324593E+01 0.  0.
     999903    2    3    3    0    0 -0.76997505529E-02 -0.12943132176E+00 -0.16776040670E-01  0.13222750630E+00  0.19771815084E-01 0.  0.
         14    1    1    2    0    0 -0.13160890944E-01  0.15373035160E-01 -0.12188298439E-01  0.23624010652E-01  0.00000000000E+00 0.  1.
     999901    1    3    3    0    0  0.20860641496E-01  0.11405828660E+00  0.28964339109E-01  0.88807848304E+00  0.88000000000E+00 0.  1.
        -11    1    4    4    0    0 -0.64371689384E-02 -0.37058020585E-01  0.30529099262E-02  0.37740103519E-01  0.51100000000E-03 0. -1.
         11    1    4    4    0    0 -0.12625816145E-02 -0.92373301175E-01 -0.19828950596E-01  0.94487402785E-01  0.51100000000E-03 0.  1.
</event>
<event>
 8    1  0.1079508E+005  0.1043930E+01  0.7957747E-01            NaN
         13   -1    0    0    0    0  0.00000000000E+00  0.00000000000E+00  0.74505805969E-08  0.10566000000E+00  0.10566000000E+00 0.  1.
     999900   -1    0    0    0    0 -0.00000000000E+00 -0.00000000000E+00 -0.74505805969E-08  0.93827000000E+00  0.93827000000E+00 0.  1.
     999902    2    1    2    0    0 -0.71230907796E-02 -0.15024756699E-01  0.16737684375E-01  0.10203369541E+01  0.10200641490E+01 0.  0.
     999903    2    3    3    0    0  0.97419843191E-01 -0.78711503654E-01 -0.31064134287E-01  0.13057842471E+00  0.19990445335E-01 0.  0.
         14    1    1    2    0    0  0.71230907796E-02  0.15024756699E-01 -0.16737684375E-01  0.23593045890E-01  0.00000000000E+00 0. -1.
     999901    1    3    3    0    0 -0.10454293397E+00  0.63686746956E-01  0.47801818662E-01  0.88975852940E+00  0.88000000000E+00 0.  1.
        -11    1    4    4    0    0  0.52096405538E-01 -0.35446237445E-01 -0.24366723541E-01  0.67560858166E-01  0.51100000000E-03 0.  1.
         11    1    4    4    0    0  0.45323437653E-01 -0.43265266210E-01 -0.66974107451E-02  0.63017566540E-01  0.51100000000E-03 0. -1.
</event>
<event>
 8    1  0.1079508E+005  0.1043930E+01  0.7957747E-01            NaN
         13   -1    0    0    0    0  0.00000000000E+00  0.00000000000E+00  0.74505805969E-08  0.10566000000E+00  0.10566000000E+00 0.  1.
     999900   -1    0    0    0    0 -0.00000000000E+00 -0.00000000000E+00 -0.74505805969E-08  0.93827000000E+00  0.93827000000E+00 0. -1.
     999902    2    1    2    0    0  0.34611298704E-02  0.11757831425E-01  0.21227692189E-01  0.10194179431E+01  0.10191232024E+01 0.  0.
     999903    2    3    3    0    0 -0.79250879000E-01  0.83096303201E-01  0.61655028155E-01  0.13174411588E+00  0.19221658200E-01 0.  0.
         14    1    1    2    0    0 -0.34611298704E-02 -0.11757831425E-01 -0.21227692189E-01  0.24512056941E-01  0.00000000000E+00 0. -1.
     999901    1    3    3    0    0  0.82712008871E-01 -0.71338471776E-01 -0.40427335966E-01  0.88767382718E+00  0.88000000000E+00 0.  1.
        -11    1    4    4    0    0 -0.60680846511E-01  0.65400573637E-01  0.38447143582E-01  0.97148567339E-01  0.51100000000E-03 0.  1.
         11    1    4    4    0    0 -0.18570032489E-01  0.17695729564E-01  0.23207884573E-01  0.34595548540E-01  0.51100000000E-03 0. -1.
</event>
<event>
 8    1  0.1079508E+005  0.1043930E+01  0.7957747E-01            NaN
         13   -1    0    0    0    0  0.00000000000E+00  0.00000000000E+00  0.74505805969E-08  0.10566000000E+00  0.10566000000E+00 0.  1.
     999900   -1    0    0    0    0 -0.00000000000E+00 -0.00000000000E+00 -0.74505805969E-08  0.93827000000E+00  0.93827000000E+00 0.  1.
     999902    2    1    2    0    0 -0.22736380465E-01 -0.25143966379E-01 -0.11400886772E-01  0.10081649016E+01  0.10075303105E+01 0.  0.
     999903    2    3    3    0    0  0.40506145188E-01 -0.10702206833E+00  0.34226666421E-01  0.12093014452E+00  0.18925227905E-01 0.  0.
         14    1    1    2    0    0  0.22736380465E-01  0.25143966379E-01  0.11400886772E-01  0.35765098365E-01  0.00000000000E+00 0.  1.
     999901    1    3    3    0    0 -0.63242525653E-01  0.81878101948E-01 -0.45627553193E-01  0.88723475712E+00  0.88000000000E+00 0.  1.
        -11    1    4    4    0    0  0.40068644258E-01 -0.10025109751E+00  0.27606669701E-01  0.11143683474E+00  0.51100000000E-03 0. -1.
         11    1    4    4    0    0  0.43750093012E-03 -0.67709708210E-02  0.66199967203E-02  0.94933097758E-02  0.51100000000E-03 0.  1.
</event>
<event>
 8    1  0.1079508E+005  0.1043930E+01  0.7957747E-01            NaN
         13   -1    0    0    0    0  0.00000000000E+00  0.00000000000E+00  0.74505805969E-08  0.10566000000E+00  0.10566000000E+00 0.  1.
     999900   -1    0    0    0    0 -0.00000000000E+00 -0.00000000000E+00 -0.74505805969E-08  0.93827000000E+00  0.93827000000E+00 0. -1.
     999902    2    1    2    0    0  0.24011036290E-01  0.54758711943E-03 -0.61869236639E-02  0.10191286343E+01  0.10188268084E+01 0.  0.
     999903    2    3    3    0    0 -0.39101743819E-01  0.57164597648E-01  0.10570641969E+00  0.12800079322E+00  0.20337608174E-01 0.  0.
         14    1    1    2    0    0 -0.24011036290E-01 -0.54758711943E-03  0.61869236639E-02  0.24801365684E-01  0.00000000000E+00 0. -1.
     999901    1    3    3    0    0  0.63112780109E-01 -0.56617010528E-01 -0.11189334336E+00  0.89112784110E+00  0.88000000000E+00 0. -1.
        -11    1    4    4    0    0 -0.76514989488E-02  0.23610399441E-01  0.49495848829E-01  0.55372344814E-01  0.51100000000E-03 0. -1.
         11    1    4    4    0    0 -0.31450244870E-01  0.33554198207E-01  0.56210570862E-01  0.72628448403E-01  0.51100000000E-03 0.  1.
</event>
<event>
 8    1  0.1079508E+005  0.1043930E+01  0.7957747E-01            NaN
         13   -1    0    0    0    0  0.00000000000E+00  0.00000000000E+00  0.74505805969E-08  0.10566000000E+00  0.10566000000E+00 0.  1.
     999900   -1    0    0    0    0 -0.00000000000E+00 -0.00000000000E+00 -0.74505805969E-08  0.93827000000E+00  0.93827000000E+00 0.  1.
     999902    2    1    2    0    0  0.43231349652E-02 -0.18847256877E-01 -0.12611743058E-01  0.10208439728E+01  0.10205828983E+01 0.  0.
     999903    2    3    3    0    0  0.53181290923E-01  0.42060596274E-01 -0.11121113601E+00  0.13190149647E+00  0.20802512726E-01 0.  0.
         14    1    1    2    0    0 -0.43231349652E-02  0.18847256877E-01  0.12611743058E-01  0.23086027174E-01  0.00000000000E+00 0.  1.
     999901    1    3    3    0    0 -0.48858155957E-01 -0.60907853151E-01  0.98599392950E-01  0.88894247636E+00  0.88000000000E+00 0. -1.
        -11    1    4    4    0    0  0.25222582652E-01  0.16906018074E-01 -0.31462228942E-01  0.43727852609E-01  0.51100000000E-03 0.  1.
         11    1    4    4    0    0  0.27958708270E-01  0.25154578199E-01 -0.79748907066E-01  0.88173643862E-01  0.51100000000E-03 0. -1.
</event>
<event>
 8    1  0.1079508E+005  0.1043930E+01  0.7957747E-01            NaN
         13   -1    0    0    0    0  0.00000000000E+00  0.00000000000E+00  0.74505805969E-08  0.10566000000E+00  0.10566000000E+00 0.  1.
     999900   -1    0    0    0    0 -0.00000000000E+00 -0.00000000000E+00 -0.74505805969E-08  0.93827000000E+00  0.93827000000E+00 0.  1.
     999902    2    1    2    0    0 -0.13352984576E-01 -0.16140557172E-01  0.10215988265E-01  0.10206236447E+01  0.10203575049E+01 0.  0.
     999903    2    3    3    0    0 -0.82214187614E-02  0.32938100233E-01 -0.12282573906E+00  0.12925663339E+00  0.21647284490E-01 0.  0.
         14    1    1    2    0    0  0.13352984576E-01  0.16140557172E-01 -0.10215988265E-01  0.23306355338E-01  0.00000000000E+00 0. -1.
     999901    1    3    3    0    0 -0.51315658149E-02 -0.49078657404E-01  0.13304172732E+00  0.89136701128E+00  0.88000000000E+00 0. -1.
        -11    1    4    4    0    0 -0.35507082102E-02  0.16282144713E-01 -0.25930351207E-01  0.30827909432E-01  0.51100000000E-03 0. -1.
         11    1    4    4    0    0 -0.46707105511E-02  0.16655955519E-01 -0.96895387852E-01  0.98428723954E-01  0.51100000000E-03 0.  1.
</event>
<event>
 8    1  0.1079508E+005  0.1043930E+01  0.7957747E-01            NaN
         13   -1    0    0    0    0  0.00000000000E+00  0.00000000000E+00  0.74505805969E-08  0.10566000000E+00  0.10566000000E+00 0.  1.
     999900   -1    0    0    0    0 -0.00000000000E+00 -0.00000000000E+00 -0.74505805969E-08  0.93827000000E+00  0.93827000000E+00 0. -1.
     999902    2    1    2    0    0 -0.16978750866E-01  0.49896678175E-03  0.15870455035E-01  0.10206835316E+01  0.10204187736E+01 0.  0.
     999903    2    3    3    0    0  0.11998440427E+00  0.43386474453E-01  0.84767143987E-02  0.12902613577E+00  0.17240811816E-01 0.  0.
         14    1    1    2    0    0  0.16978750866E-01 -0.49896678175E-03 -0.15870455035E-01  0.23246468374E-01  0.00000000000E+00 0. -1.
     999901    1    3    3    0    0 -0.13696315514E+00 -0.42887507671E-01  0.73937406362E-02  0.89165739585E+00  0.88000000000E+00 0.  1.
        -11    1    4    4    0    0  0.53687275074E-01  0.20762606534E-01 -0.46574869842E-02  0.57752598565E-01  0.51100000000E-03 0. -1.
         11    1    4    4    0    0  0.66297129196E-01  0.22623867918E-01  0.13134201383E-01  0.71273537208E-01  0.51100000000E-03 0.  1.
</event>
<event>
 8    1  0.1079508E+005  0.1043930E+01  0.7957747E-01            NaN
         13   -1    0    0    0    0  0.00000000000E+00  0.00000000000E+00  0.74505805969E-08  0.10566000000E+00  0.10566000000E+00 0. -1.
     999900   -1    0    0    0    0 -0.00000000000E+00 -0.00000000000E+00 -0.74505805969E-08  0.93827000000E+00  0.93827000000E+00 0.  1.
     999902    2    1    2    0    0  0.21195174537E-01  0.70222999928E-02 -0.64063491308E-02  0.10207009357E+01  0.10204365784E+01 0.  0.
     999903    2    3    3    0    0 -0.10470429373E+00  0.59514841352E-01  0.42620529364E-01  0.12884344827E+00  0.16706859986E-01 0.  0.
         14    1    1    2    0    0 -0.21195174537E-01 -0.70222999928E-02  0.64063491308E-02  0.23229064338E-01  0.00000000000E+00 0. -1.
     999901    1    3    3    0    0  0.12589946827E+00 -0.52492541359E-01 -0.49026878495E-01  0.89185748740E+00  0.88000000000E+00 0. -1.
        -11    1    4    4    0    0 -0.76488079394E-01  0.46756242005E-01  0.24396806907E-01  0.92908760427E-01  0.51100000000E-03 0.  1.
         11    1    4    4    0    0 -0.28216214339E-01  0.12758599346E-01  0.18223722456E-01  0.35934687839E-01  0.51100000000E-03 0. -1.
</event>
<event>
 8    1  0.1079508E+005  0.1043930E+01  0.7957747E-01            NaN
         13   -1    0    0    0    0  0.00000000000E+00  0.00000000000E+00  0.74505805969E-08  0.10566000000E+00  0.10566000000E+00 0.  1.
     999900   -1    0    0    0    0 -0.00000000000E+00 -0.00000000000E+00 -0.74505805969E-08  0.93827000000E+00  0.93827000000E+00 0. -1.
     999902    2    1    2    0    0 -0.19690899105E-01 -0.10571562201E-02  0.12921359569E-01  0.10203543638E+01  0.10200819659E+01 0.  0.
     999903    2    3    3    0    0 -0.10785323779E-01 -0.60373391137E-01  0.11556477473E+00  0.13236033477E+00  0.20069167797E-01 0.  0.
         14    1    1    2    0    0  0.19690899105E-01  0.10571562201E-02 -0.12921359569E-01  0.23575636152E-01  0.00000000000E+00 0. -1.
     999901    1    3    3    0    0 -0.89055753261E-02  0.59316234917E-01 -0.10264341516E+00  0.88799402907E+00  0.88000000000E+00 0. -1.
        -11    1    4    4    0    0  0.19501362153E-02 -0.34625344360E-01  0.75220842748E-01  0.82832081998E-01  0.51100000000E-03 0.  1.
         11    1    4    4    0    0 -0.12735459995E-01 -0.25748046777E-01  0.40343931983E-01  0.49528252775E-01  0.51100000000E-03 0. -1.
</event>
<event>
 8    1  0.1079508E+005  0.1043930E+01  0.7957747E-01            NaN
         13   -1    0    0    0    0  0.00000000000E+00  0.00000000000E+00  0.74505805969E-08  0.10566000000E+00  0.10566000000E+00 0. -1.
     999900   -1    0    0    0    0 -0.00000000000E+00 -0.00000000000E+00 -0.74505805969E-08  0.93827000000E+00  0.93827000000E+00 0.  1.
     999902    2    1    2    0    0 -0.87667313092E-02 -0.17926498304E-01 -0.90679010651E-02  0.10220110185E+01  0.10217759442E+01 0.  0.
     999903    2    3    3    0    0  0.96400112378E-02  0.11958390306E+00 -0.46885999782E-01  0.13033948301E+00  0.19920947957E-01 0.  0.
         14    1    1    2    0    0  0.87667313092E-02  0.17926498304E-01  0.90679010651E-02  0.21918981478E-01  0.00000000000E+00 0.  1.
     999901    1    3    3    0    0 -0.18406742547E-01 -0.13751040136E+00  0.37818098717E-01  0.89167153551E+00  0.88000000000E+00 0. -1.
        -11    1    4    4    0    0  0.66057434736E-02  0.11294232375E+00 -0.39223929218E-01  0.11974298345E+00  0.51100000000E-03 0.  1.
         11    1    4    4    0    0  0.30342677642E-02  0.66415793114E-02 -0.76620705637E-02  0.10596499561E-01  0.51100000000E-03 0. -1.
</event>
<event>
 8    1  0.1079508E+005  0.1043930E+01  0.7957747E-01            NaN
         13   -1    0    0    0    0  0.00000000000E+00  0.00000000000E+00  0.74505805969E-08  0.10566000000E+00  0.10566000000E+00 0. -1.
     999900   -1    0    0    0    0 -0.00000000000E+00 -0.00000000000E+00 -0.74505805969E-08  0.93827000000E+00  0.93827000000E+00 0. -1.
     999902    2    1    2    0    0 -0.98132254257E-02  0.17944627117E-02 -0.21612337299E-01  0.10201263739E+01  0.10198486193E+01 0.  0.
     999903    2    3    3    0    0  0.66130734318E-01 -0.97011807861E-01  0.48549012399E-01  0.12858121014E+00  0.19787776765E-01 0.  0.
         14    1    1    2    0    0  0.98132254257E-02 -0.17944627117E-02  0.21612337299E-01  0.23803626052E-01  0.00000000000E+00 0. -1.
     999901    1    3    3    0    0 -0.75943959743E-01  0.98806270573E-01 -0.70161349698E-01  0.89154516381E+00  0.88000000000E+00 0. -1.
        -11    1    4    4    0    0  0.40077643621E-01 -0.41317057063E-01  0.24330204196E-01  0.62494293177E-01  0.51100000000E-03 0.  1.
         11    1    4    4    0    0  0.26053090697E-01 -0.55694750798E-01  0.24218808203E-01  0.66086916959E-01  0.51100000000E-03 0. -1.
</event>
<event>
 8    1  0.1593198E+005  0.1043930E+01  0.7957747E-01            NaN
         13   -1    0    0    0    0  0.00000000000E+00  0.00000000000E+00  0.74505805969E-08  0.10566000000E+00  0.10566000000E+00 0.  1.
     999900   -1    0    0    0    0 -0.00000000000E+00 -0.00000000000E+00 -0.74505805969E-08  0.93827000000E+00  0.93827000000E+00 0. -1.
     999902    2    1    2    0    0  0.43691742143E-03  0.84791070887E-02  0.24185964171E-01  0.10182970716E+01  0.10179744000E+01 0.  0.
     999903    2    3    3    0    0  0.77343595498E-04 -0.10607501587E+00 -0.65734971156E-01  0.12632815346E+00  0.19641816356E-01 0.  0.
         14    1    1    2    0    0 -0.43691742143E-03 -0.84791070887E-02 -0.24185964171E-01  0.25632928368E-01  0.00000000000E+00 0. -1.
     999901    1    3    3    0    0  0.35957382594E-03  0.11455412296E+00  0.89920935327E-01  0.89196891817E+00  0.88000000000E+00 0.  1.
        -11    1    4    4    0    0  0.87608020573E-02 -0.63576808307E-01 -0.34420518524E-01  0.72827161305E-01  0.51100000000E-03 0.  1.
         11    1    4    4    0    0 -0.86834584618E-02 -0.42498207560E-01 -0.31314452632E-01  0.53500992153E-01  0.51100000000E-03 0. -1.
</event>
<event>
 8    1  0.1079508E+005  0.1043930E+01  0.7957747E-01            NaN
         13   -1    0    0    0    0  0.00000000000E+00  0.00000000000E+00  0.74505805969E-08  0.10566000000E+00  0.10566000000E+00 0. -1.
     999900   -1    0    0    0    0 -0.00000000000E+00 -0.00000000000E+00 -0.74505805969E-08  0.93827000000E+00  0.93827000000E+00 0.  1.
     999902    2    1    2    0    0 -0.48210638975E-02 -0.34339387087E-02  0.22708563900E-01  0.10204627150E+01  0.10201928441E+01 0.  0.
     999903    2    3    3    0    0  0.56489501489E-01  0.11356400868E+00 -0.18184253897E-01  0.12966547224E+00  0.19865038526E-01 0.  0.
         14    1    1    2    0    0  0.48210638975E-02  0.34339387087E-02 -0.22708563900E-01  0.23467285027E-01  0.00000000000E+00 0.  1.
     999901    1    3    3    0    0 -0.61310565386E-01 -0.11699794738E+00  0.40892817797E-01  0.89079724274E+00  0.88000000000E+00 0. -1.
        -11    1    4    4    0    0  0.34885896656E-01  0.51324959504E-01 -0.34647781661E-02  0.62157405531E-01  0.51100000000E-03 0. -1.
         11    1    4    4    0    0  0.21603604832E-01  0.62239049171E-01 -0.14719475731E-01  0.67508066705E-01  0.51100000000E-03 0.  1.
</event>
<event>
 8    1  0.1079508E+005  0.1043930E+01  0.7957747E-01            NaN
         13   -1    0    0    0    0  0.00000000000E+00  0.00000000000E+00  0.74505805969E-08  0.10566000000E+00  0.10566000000E+00 0. -1.
     999900   -1    0    0    0    0 -0.00000000000E+00 -0.00000000000E+00 -0.74505805969E-08  0.93827000000E+00  0.93827000000E+00 0.  1.
     999902    2    1    2    0    0 -0.12299214921E-01  0.96507340792E-02  0.16135989004E-01  0.10214627461E+01  0.10212156306E+01 0.  0.
     999903    2    3    3    0    0  0.79993069310E-01 -0.10002356863E+00 -0.35248829635E-02  0.12964837738E+00  0.19815941490E-01 0.  0.
         14    1    1    2    0    0  0.12299214921E-01 -0.96507340792E-02 -0.16135989004E-01  0.22467253884E-01  0.00000000000E+00 0.  1.
     999901    1    3    3    0    0 -0.92292284231E-01  0.10967430271E+00  0.19660871968E-01  0.89181436874E+00  0.88000000000E+00 0. -1.
        -11    1    4    4    0    0  0.64071285172E-01 -0.79177248162E-01  0.52326159592E-02  0.10198925238E+00  0.51100000000E-03 0.  1.
         11    1    4    4    0    0  0.15921784138E-01 -0.20846320469E-01 -0.87574989227E-02  0.27659124997E-01  0.51100000000E-03 0. -1.
</event>
<event>
 8    1  0.1079508E+005  0.1043930E+01  0.7957747E-01            NaN
         13   -1    0    0    0    0  0.00000000000E+00  0.00000000000E+00  0.74505805969E-08  0.10566000000E+00  0.10566000000E+00 0. -1.
     999900   -1    0    0    0    0 -0.00000000000E+00 -0.00000000000E+00 -0.74505805969E-08  0.93827000000E+00  0.93827000000E+00 0.  1.
     999902    2    1    2    0    0 -0.30623825258E-02  0.21627317706E-01  0.84801668840E-02  0.10204985620E+01  0.10202295245E+01 0.  0.
     999903    2    3    3    0    0 -0.45128418370E-01 -0.75840211606E-01 -0.91232908362E-01  0.12852761624E+00  0.20188925870E-01 0.  0.
         14    1    1    2    0    0  0.30623825258E-02 -0.21627317706E-01 -0.84801668840E-02  0.23431438032E-01  0.00000000000E+00 0.  1.
     999901    1    3    3    0    0  0.42066035844E-01  0.97467529312E-01  0.99713075246E-01  0.89197094572E+00  0.88000000000E+00 0. -1.
        -11    1    4    4    0    0 -0.52785209621E-02 -0.25659846332E-01 -0.22262359770E-01  0.34382615969E-01  0.51100000000E-03 0. -1.
         11    1    4    4    0    0 -0.39849897408E-01 -0.50180365274E-01 -0.68970548592E-01  0.94145000274E-01  0.51100000000E-03 0.  1.
</event>
<event>
 8    1  0.1079508E+005  0.1043930E+01  0.7957747E-01            NaN
         13   -1    0    0    0    0  0.00000000000E+00  0.00000000000E+00  0.74505805969E-08  0.10566000000E+00  0.10566000000E+00 0.  1.
     999900   -1    0    0    0    0 -0.00000000000E+00 -0.00000000000E+00 -0.74505805969E-08  0.93827000000E+00  0.93827000000E+00 0. -1.
     999902    2    1    2    0    0  0.47719423432E-02 -0.51688238953E-02 -0.22246150575E-01  0.10205980607E+01  0.10203313296E+01 0.  0.
     999903    2    3    3    0    0 -0.11938293206E-01 -0.10144512089E+00 -0.83183593800E-01  0.13309497380E+00  0.19003325416E-01 0.  0.
         14    1    1    2    0    0 -0.47719423432E-02  0.51688238953E-02  0.22246150575E-01  0.23331939259E-01  0.00000000000E+00 0.  1.
     999901    1    3    3    0    0  0.16710235549E-01  0.96276296998E-01  0.60937443225E-01  0.88750308694E+00  0.88000000000E+00 0.  1.
        -11    1    4    4    0    0  0.30334998254E-02 -0.51314554114E-01 -0.45033106077E-01  0.68341988184E-01  0.51100000000E-03 0.  1.
         11    1    4    4    0    0 -0.14971793032E-01 -0.50130566779E-01 -0.38150487723E-01  0.64752985620E-01  0.51100000000E-03 0. -1.
</event>
<event>
 8    1  0.1079508E+005  0.1043930E+01  0.7957747E-01            NaN
         13   -1    0    0    0    0  0.00000000000E+00  0.00000000000E+00  0.74505805969E-08  0.10566000000E+00  0.10566000000E+00 0. -1.
     999900   -1    0    0    0    0 -0.00000000000E+00 -0.00000000000E+00 -0.74505805969E-08  0.93827000000E+00  0.93827000000E+00 0.  1.
     999902    2    1    2    0    0 -0.17408959991E-01 -0.11995933497E-01 -0.96952400722E-02  0.10206711955E+01  0.10204061531E+01 0.  0.
     999903    2    3    3    0    0 -0.10550484516E+00 -0.34454617424E-01 -0.71817354119E-01  0.13380906721E+00  0.20706064371E-01 0.  0.
         14    1    1    2    0    0  0.17408959991E-01  0.11995933497E-01  0.96952400722E-02  0.23258804537E-01  0.00000000000E+00 0.  1.
     999901    1    3    3    0    0  0.88095885170E-01  0.22458683927E-01  0.62122114047E-01  0.88686212825E+00  0.88000000000E+00 0. -1.
        -11    1    4    4    0    0 -0.90964977799E-01 -0.21647272016E-01 -0.60265708145E-01  0.11124499212E+00  0.51100000000E-03 0.  1.
         11    1    4    4    0    0 -0.14539867363E-01 -0.12807345409E-01 -0.11551645974E-01  0.22564075099E-01  0.51100000000E-03 0. -1.
</event>
<event>
 8    1  0.1079508E+005  0.1043930E+01  0.7957747E-01            NaN
         13   -1    0    0    0    0  0.00000000000E+00  0.00000000000E+00  0.74505805969E-08  0.10566000000E+00  0.10566000000E+00 0. -1.
     999900   -1    0    0    0    0 -0.00000000000E+00 -0.00000000000E+00 -0.74505805969E-08  0.93827000000E+00  0.93827000000E+00 0. -1.
     999902    2    1    2    0    0 -0.80306422995E-03  0.22359033940E-01  0.70398385473E-02  0.10204751362E+01  0.10202055542E+01 0.  0.
     999903    2    3    3    0    0  0.11449135054E+00  0.61109382210E-01  0.15502137451E-01  0.13206869648E+00  0.18952529665E-01 0.  0.
         14    1    1    2    0    0  0.80306422995E-03 -0.22359033940E-01 -0.70398385473E-02  0.23454863838E-01  0.00000000000E+00 0.  1.
     999901    1    3    3    0    0 -0.11529441477E+00 -0.38750348270E-01 -0.84622989041E-02  0.88840643968E+00  0.88000000000E+00 0.  1.
        -11    1    4    4    0    0  0.69580078303E-01  0.40389044549E-01  0.77016689088E-03  0.80458166113E-01  0.51100000000E-03 0. -1.
         11    1    4    4    0    0  0.44911272240E-01  0.20720337660E-01  0.14731970560E-01  0.51610530365E-01  0.51100000000E-03 0.  1.
</event>
<event>
 8    1  0.1079508E+005  0.1043930E+01  0.7957747E-01            NaN
         13   -1    0    0    0    0  0.00000000000E+00  0.00000000000E+00  0.74505805969E-08  0.10566000000E+00  0.10566000000E+00 0. -1.
     999900   -1    0    0    0    0 -0.00000000000E+00 -0.00000000000E+00 -0.74505805969E-08  0.93827000000E+00  0.93827000000E+00 0.  1.
     999902    2    1    2    0    0  0.78604302597E-02 -0.17652441481E-01  0.13182000464E-01  0.10205385445E+01  0.10202704350E+01 0.  0.
     999903    2    3    3    0    0 -0.26232415313E-01 -0.63725656161E-01 -0.10871887410E+00  0.13028864338E+00  0.20155350177E-01 0.  0.
         14    1    1    2    0    0 -0.78604302597E-02  0.17652441481E-01 -0.13182000464E-01  0.23391455499E-01  0.00000000000E+00 0.  1.
     999901    1    3    3    0    0  0.34092845572E-01  0.46073214680E-01  0.12190087457E+00  0.89024990112E+00  0.88000000000E+00 0. -1.
        -11    1    4    4    0    0 -0.13614334255E-01 -0.53130156613E-01 -0.76945825526E-01  0.94493834856E-01  0.51100000000E-03 0.  1.
         11    1    4    4    0    0 -0.12618081057E-01 -0.10595499548E-01 -0.31773048577E-01  0.35794808522E-01  0.51100000000E-03 0. -1.
</event>
<event>
 8    1  0.1079508E+005  0.1043930E+01  0.7957747E-01            NaN
         13   -1    0    0    0    0  0.00000000000E+00  0.00000000000E+00  0.74505805969E-08  0.10566000000E+00  0.10566000000E+00 0.  1.
     999900   -1    0    0    0    0 -0.00000000000E+00 -0.00000000000E+00 -0.74505805969E-08  0.93827000000E+00  0.93827000000E+00 0.  1.
     999902    2    1    2    0    0  0.11510119850E-01  0.20034990828E-01  0.68160097694E-03  0.10208140251E+01  0.10205522650E+01 0.  0.
     999903    2    3    3    0    0  0.32272947684E-01  0.19531811209E-01 -0.12449254454E+00  0.13171340372E+00  0.20663791331E-01 0.  0.
         14    1    1    2    0    0 -0.11510119850E-01 -0.20034990828E-01 -0.68160097694E-03  0.23115974917E-01  0.00000000000E+00 0.  1.
     999901    1    3    3    0    0 -0.20762827834E-01  0.50317961852E-03  0.12517414551E+00  0.88910062137E+00  0.88000000000E+00 0. -1.
        -11    1    4    4    0    0  0.20599255954E-02  0.77677288930E-02 -0.10703886271E-01  0.13394596221E-01  0.51100000000E-03 0.  1.
         11    1    4    4    0    0  0.30213022089E-01  0.11764082316E-01 -0.11378865827E+00  0.11831880750E+00  0.51100000000E-03 0. -1.
</event>
<event>
 8    1  0.1079508E+005  0.1043930E+01  0.7957747E-01            NaN
         13   -1    0    0    0    0  0.00000000000E+00  0.00000000000E+00  0.74505805969E-08  0.10566000000E+00  0.10566000000E+00 0.  1.
     999900   -1    0    0    0    0 -0.00000000000E+00 -0.00000000000E+00 -0.74505805969E-08  0.93827000000E+00  0.93827000000E+00 0.  1.
     999902    2    1    2    0    0  0.19687343373E-01 -0.31433441582E-02 -0.13468978806E-01  0.10198699607E+01  0.10195861176E+01 0.  0.
     999903    2    3    3    0    0  0.12458299157E+00  0.27914423995E-01 -0.31600473872E-01  0.13291086745E+00  0.19146067002E-01 0.  0.
         14    1    1    2    0    0 -0.19687343373E-01  0.31433441582E-02  0.13468978806E-01  0.24060039311E-01  0.00000000000E+00 0.  1.
     999901    1    3    3    0    0 -0.10489564819E+00 -0.31057768153E-01  0.18131495066E-01  0.88695909324E+00  0.88000000000E+00 0. -1.
        -11    1    4    4    0    0  0.63636008666E-01  0.18953985330E-01 -0.25011916355E-01  0.70955283380E-01  0.51100000000E-03 0.  1.
         11    1    4    4    0    0  0.60946982901E-01  0.89604386646E-02 -0.65885575169E-02  0.61955584066E-01  0.51100000000E-03 0. -1.
</event>
<event>
 8    1  0.1079508E+005  0.1043930E+01  0.7957747E-01            NaN
         13   -1    0    0    0    0  0.00000000000E+00  0.00000000000E+00  0.74505805969E-08  0.10566000000E+00  0.10566000000E+00 0.  1.
     999900   -1    0    0    0    0 -0.00000000000E+00 -0.00000000000E+00 -0.74505805969E-08  0.93827000000E+00  0.93827000000E+00 0. -1.
     999902    2    1    2    0    0 -0.21262536429E-01  0.88045563345E-02 -0.65501956359E-02  0.10200025946E+01  0.10197219092E+01 0.  0.
     999903    2    3    3    0    0 -0.12724037026E+00 -0.10417938243E-01  0.23557749148E-01  0.13292464202E+00  0.28554293055E-01 0.  0.
         14    1    1    2    0    0  0.21262536429E-01 -0.88045563345E-02  0.65501956359E-02  0.23927405428E-01  0.00000000000E+00 0. -1.
     999901    1    3    3    0    0  0.10597783383E+00  0.19222494578E-01 -0.30107944784E-01  0.88707795255E+00  0.88000000000E+00 0.  1.
        -11    1    4    4    0    0 -0.88167009385E-01 -0.15308526882E-02  0.38486133026E-02  0.88265723807E-01  0.51100000000E-03 0. -1.
         11    1    4    4    0    0 -0.39073360871E-01 -0.88870855552E-02  0.19709135846E-01  0.44658918215E-01  0.51100000000E-03 0.  1.
</event>
<event>
 8    1  0.1079508E+005  0.1043930E+01  0.7957747E-01            NaN
         13   -1    0    0    0    0  0.00000000000E+00  0.00000000000E+00  0.74505805969E-08  0.10566000000E+00  0.10566000000E+00 0.  1.
     999900   -1    0    0    0    0 -0.00000000000E+00 -0.00000000000E+00 -0.74505805969E-08  0.93827000000E+00  0.93827000000E+00 0. -1.
     999902    2    1    2    0    0 -0.23739900316E-01 -0.71096259597E-02  0.13504048330E-01  0.10157078638E+01  0.10153157025E+01 0.  0.
     999903    2    3    3    0    0 -0.58115523870E-01  0.42588997059E-01  0.10503543523E+00  0.12889918582E+00  0.19781826657E-01 0.  0.
         14    1    1    2    0    0  0.23739900316E-01  0.71096259597E-02 -0.13504048330E-01  0.28222136163E-01  0.00000000000E+00 0.  1.
     999901    1    3    3    0    0  0.34375623554E-01 -0.49698623019E-01 -0.91531386896E-01  0.88680867802E+00  0.88000000000E+00 0. -1.
        -11    1    4    4    0    0 -0.30055767862E-01  0.10600798326E-01  0.50633426602E-01  0.59830854226E-01  0.51100000000E-03 0.  1.
         11    1    4    4    0    0 -0.28059756008E-01  0.31988198733E-01  0.54402008624E-01  0.69068331591E-01  0.51100000000E-03 0. -1.
</event>
<event>
 8    1  0.1079508E+005  0.1043930E+01  0.7957747E-01            NaN
         13   -1    0    0    0    0  0.00000000000E+00  0.00000000000E+00  0.74505805969E-08  0.10566000000E+00  0.10566000000E+00 0. -1.
     999900   -1    0    0    0    0 -0.00000000000E+00 -0.00000000000E+00 -0.74505805969E-08  0.93827000000E+00  0.93827000000E+00 0.  1.
     999902    2    1    2    0    0 -0.18632684153E-01  0.50444158650E-04 -0.99418207731E-02  0.10228108318E+01  0.10225927726E+01 0.  0.
     999903    2    3    3    0    0 -0.56795944276E-01  0.18740697151E-01 -0.11934756236E+00  0.13501841451E+00  0.20227174806E-01 0.  0.
         14    1    1    2    0    0  0.18632684153E-01 -0.50444158650E-04  0.99418207731E-02  0.21119168157E-01  0.00000000000E+00 0. -1.
     999901    1    3    3    0    0  0.38163260124E-01 -0.18690252993E-01  0.10940574158E+00  0.88779241733E+00  0.88000000000E+00 0. -1.
        -11    1    4    4    0    0 -0.53708550926E-01  0.12363580267E-01 -0.96950870818E-01  0.11152219076E+00  0.51100000000E-03 0. -1.
         11    1    4    4    0    0 -0.30873933502E-02  0.63771168843E-02 -0.22396691540E-01  0.23496223747E-01  0.51100000000E-03 0.  1.
</event>
<event>
 8    1  0.1079508E+005  0.1043930E+01  0.7957747E-01            NaN
         13   -1    0    0    0    0  0.00000000000E+00  0.00000000000E+00  0.74505805969E-08  0.10566000000E+00  0.10566000000E+00 0. -1.
     999900   -1    0    0    0    0 -0.00000000000E+00 -0.00000000000E+00 -0.74505805969E-08  0.93827000000E+00  0.93827000000E+00 0.  1.
     999902    2    1    2    0    0  0.23600549094E-01  0.23514230681E-02 -0.20215293963E-02  0.10201266034E+01  0.10198488541E+01 0.  0.
     999903    2    3    3    0    0 -0.50528003335E-01 -0.12165996966E-01 -0.11686983580E+00  0.12945498533E+00  0.19973585168E-01 0.  0.
         14    1    1    2    0    0 -0.23600549094E-01 -0.23514230681E-02  0.20215293963E-02  0.23803396587E-01  0.00000000000E+00 0. -1.
     999901    1    3    3    0    0  0.74128552429E-01  0.14517420034E-01  0.11484830640E+00  0.89067161808E+00  0.88000000000E+00 0. -1.
        -11    1    4    4    0    0 -0.46932988089E-02  0.46457469758E-02 -0.18172628628E-01  0.19342067390E-01  0.51100000000E-03 0. -1.
         11    1    4    4    0    0 -0.45834704526E-01 -0.16811743942E-01 -0.98697207171E-01  0.11011291794E+00  0.51100000000E-03 0.  1.
</event>
<event>
 8    1  0.1079508E+005  0.1043930E+01  0.7957747E-01            NaN
         13   -1    0    0    0    0  0.00000000000E+00  0.00000000000E+00  0.74505805969E-08  0.10566000000E+00  0.10566000000E+00 0. -1.
     999900   -1    0    0    0    0 -0.00000000000E+00 -0.00000000000E+00 -0.74505805969E-08  0.93827000000E+00  0.93827000000E+00 0. -1.
     999902    2    1    2    0    0 -0.49140367410E-02  0.39841770094E-02  0.21297056774E-01  0.10217132034E+01  0.10214716266E+01 0.  0.
     999903    2    3    3    0    0 -0.28981707151E-02 -0.12363629275E+00  0.42450605577E-01  0.13225352437E+00  0.19864755612E-01 0.  0.
         14    1    1    2    0    0  0.49140367410E-02 -0.39841770094E-02 -0.21297056774E-01  0.22216796592E-01  0.00000000000E+00 0.  1.
     999901    1    3    3    0    0 -0.20158660259E-02  0.12762046976E+00 -0.21153548802E-01  0.88945967904E+00  0.88000000000E+00 0. -1.
        -11    1    4    4    0    0 -0.38444239573E-02 -0.53878693965E-01  0.85618572929E-02  0.54692410627E-01  0.51100000000E-03 0.  1.
         11    1    4    4    0    0  0.94625324219E-03 -0.69757598782E-01  0.33888748284E-01  0.77561113738E-01  0.51100000000E-03 0. -1.
</event>
<event>
 7    1  0.1079508E+005  0.1043930E+01  0.7957747E-01            NaN
         13   -1    0    0    0    0  0.00000000000E+00  0.00000000000E+00  0.74505805969E-08  0.10566000000E+00  0.10566000000E+00 0.  1.
     999900   -1    0    0    0    0 -0.00000000000E+00 -0.00000000000E+00 -0.74505805969E-08  0.93827000000E+00  0.93827000000E+00 0.  1.
     999903    2    1    2    0    0  0.67126906762E-01 -0.59080341179E-02 -0.77281429731E-01  0.10421241713E+00  0.18624769111E-01 0.  0.
         14    1    1    2    0    0 -0.38759936192E-01 -0.35132495635E-01  0.21444940073E-01  0.56537689711E-01  0.00000000000E+00 0.  1.
     999901    1    1    2    0    0 -0.28366970570E-01  0.41040529753E-01  0.55836489657E-01  0.88317989316E+00  0.88000000000E+00 0. -1.
        -11    1    3    3    0    0  0.60317750512E-01 -0.55143575929E-03 -0.72465706351E-01  0.94287193330E-01  0.51100000000E-03 0. -1.
         11    1    3    3    0    0  0.68091562500E-02 -0.53565983587E-02 -0.48157233800E-02  0.99252238003E-02  0.51100000000E-03 0.  1.
</event>
<event>
 8    1  0.1079508E+005  0.1043930E+01  0.7957747E-01            NaN
         13   -1    0    0    0    0  0.00000000000E+00  0.00000000000E+00  0.74505805969E-08  0.10566000000E+00  0.10566000000E+00 0.  1.
     999900   -1    0    0    0    0 -0.00000000000E+00 -0.00000000000E+00 -0.74505805969E-08  0.93827000000E+00  0.93827000000E+00 0. -1.
     999902    2    1    2    0    0 -0.50234557094E-02  0.15422227310E-01 -0.16847511090E-01  0.10205437042E+01  0.10202757144E+01 0.  0.
     999903    2    3    3    0    0 -0.10849384278E+00  0.72643754255E-01  0.75644305617E-02  0.13230028763E+00  0.19952858001E-01 0.  0.
         14    1    1    2    0    0  0.50234557094E-02 -0.15422227310E-01  0.16847511090E-01  0.23386295824E-01  0.00000000000E+00 0.  1.
     999901    1    3    3    0    0  0.10347038707E+00 -0.57221526946E-01 -0.24411941652E-01  0.88824341655E+00  0.88000000000E+00 0.  1.
        -11    1    4    4    0    0 -0.18190589380E-01  0.53583777489E-02 -0.29366008866E-02  0.19196210560E-01  0.51100000000E-03 0. -1.
         11    1    4    4    0    0 -0.90303253403E-01  0.67285376506E-01  0.10501031448E-01  0.11310407707E+00  0.51100000000E-03 0.  1.
</event>
<event>
 8    1  0.1079508E+005  0.1043930E+01  0.7957747E-01            NaN
         13   -1    0    0    0    0  0.00000000000E+00  0.00000000000E+00  0.74505805969E-08  0.10566000000E+00  0.10566000000E+00 0. -1.
     999900   -1    0    0    0    0 -0.00000000000E+00 -0.00000000000E+00 -0.74505805969E-08  0.93827000000E+00  0.93827000000E+00 0. -1.
     999902    2    1    2    0    0 -0.17009007650E-01  0.15301018880E-01 -0.53619384861E-02  0.10204315340E+01  0.10201609371E+01 0.  0.
     999903    2    3    3    0    0  0.11048855929E+00  0.39955576409E-01 -0.50702477858E-01  0.12974683036E+00  0.21431959999E-01 0.  0.
         14    1    1    2    0    0  0.17009007650E-01 -0.15301018880E-01  0.53619384861E-02  0.23498465999E-01  0.00000000000E+00 0.  1.
     999901    1    3    3    0    0 -0.12749756694E+00 -0.24654557529E-01  0.45340539371E-01  0.89068470364E+00  0.88000000000E+00 0.  1.
        -11    1    4    4    0    0  0.40401894579E-01  0.74019594805E-02 -0.94683376607E-02  0.42154627609E-01  0.51100000000E-03 0.  1.
         11    1    4    4    0    0  0.70086664707E-01  0.32553616928E-01 -0.41234140197E-01  0.87592202756E-01  0.51100000000E-03 0. -1.
</event>
<event>
 8    1  0.1079508E+005  0.1043930E+01  0.7957747E-01            NaN
         13   -1    0    0    0    0  0.00000000000E+00  0.00000000000E+00  0.74505805969E-08  0.10566000000E+00  0.10566000000E+00 0. -1.
     999900   -1    0    0    0    0 -0.00000000000E+00 -0.00000000000E+00 -0.74505805969E-08  0.93827000000E+00  0.93827000000E+00 0.  1.
     999902    2    1    2    0    0 -0.18332352227E-01  0.11919116492E-01 -0.21264782754E-03  0.10220625426E+01  0.10218285841E+01 0.  0.
     999903    2    3    3    0    0  0.31996690776E-01  0.16442314055E-01 -0.12514135029E+00  0.13180378658E+00  0.20438754643E-01 0.  0.
         14    1    1    2    0    0  0.18332352227E-01 -0.11919116492E-01  0.21264782754E-03  0.21867457448E-01  0.00000000000E+00 0.  1.
     999901    1    3    3    0    0 -0.50329043003E-01 -0.45231975630E-02  0.12492870247E+00  0.89025875597E+00  0.88000000000E+00 0. -1.
        -11    1    4    4    0    0  0.73025285826E-02  0.10583243750E-01 -0.21134313669E-01  0.24743732686E-01  0.51100000000E-03 0. -1.
         11    1    4    4    0    0  0.24694162194E-01  0.58590703045E-02 -0.10400703662E+00  0.10706005389E+00  0.51100000000E-03 0.  1.
</event>
<event>
 8    1  0.1079508E+005  0.1043930E+01  0.7957747E-01            NaN
         13   -1    0    0    0    0  0.00000000000E+00  0.00000000000E+00  0.74505805969E-08  0.10566000000E+00  0.10566000000E+00 0.  1.
     999900   -1    0    0    0    0 -0.00000000000E+00 -0.00000000000E+00 -0.74505805969E-08  0.93827000000E+00  0.93827000000E+00 0.  1.
     999902    2    1    2    0    0  0.14637193881E-01  0.15508429102E-01  0.97473621054E-02  0.10204828278E+01  0.10202134247E+01 0.  0.
     999903    2    3    3    0    0 -0.83365848090E-01  0.98490425323E-01 -0.10306420270E-01  0.13093644779E+00  0.19695241896E-01 0.  0.
         14    1    1    2    0    0 -0.14637193881E-01 -0.15508429102E-01 -0.97473621054E-02  0.23447172238E-01  0.00000000000E+00 0. -1.
     999901    1    3    3    0    0  0.98003041971E-01 -0.82981996221E-01  0.20053782375E-01  0.88954637997E+00  0.88000000000E+00 0. -1.
        -11    1    4    4    0    0 -0.50605002898E-01  0.44687723105E-01 -0.65376313165E-02  0.67829644396E-01  0.51100000000E-03 0. -1.
         11    1    4    4    0    0 -0.32760845193E-01  0.53802702217E-01 -0.37687889532E-02  0.63106803396E-01  0.51100000000E-03 0.  1.
</event>
<event>
 8    1  0.1079508E+005  0.1043930E+01  0.7957747E-01            NaN
         13   -1    0    0    0    0  0.00000000000E+00  0.00000000000E+00  0.74505805969E-08  0.10566000000E+00  0.10566000000E+00 0.  1.
     999900   -1    0    0    0    0 -0.00000000000E+00 -0.00000000000E+00 -0.74505805969E-08  0.93827000000E+00  0.93827000000E+00 0. -1.
     999902    2    1    2    0    0  0.66858486204E-02 -0.20638336711E-01  0.11617940691E-01  0.10193206916E+01  0.10190235789E+01 0.  0.
     999903    2    3    3    0    0  0.10783836163E+00  0.43237595167E-01  0.55045583547E-01  0.13016495399E+00  0.20354289558E-01 0.  0.
         14    1    1    2    0    0 -0.66858486204E-02  0.20638336711E-01 -0.11617940691E-01  0.24609308399E-01  0.00000000000E+00 0. -1.
     999901    1    3    3    0    0 -0.10115251301E+00 -0.63875931879E-01 -0.43427642856E-01  0.88915573761E+00  0.88000000000E+00 0. -1.
        -11    1    4    4    0    0  0.38474109579E-01  0.24858295542E-01  0.16366202040E-01  0.48644687843E-01  0.51100000000E-03 0.  1.
         11    1    4    4    0    0  0.69364252055E-01  0.18379299625E-01  0.38679381507E-01  0.81520266147E-01  0.51100000000E-03 0. -1.
</event>
<event>
 7    1  0.1079508E+005  0.1043930E+01  0.7957747E-01            NaN
         13   -1    0    0    0    0  0.00000000000E+00  0.00000000000E+00  0.74505805969E-08  0.10566000000E+00  0.10566000000E+00 0.  1.
     999900   -1    0    0    0    0 -0.00000000000E+00 -0.00000000000E+00 -0.74505805969E-08  0.93827000000E+00  0.93827000000E+00 0. -1.
     999902    2    1    2    0    0 -0.20595233491E-01 -0.75325170607E-02  0.91573862598E-02  0.10201653166E+01  0.10198884806E+01 0.  0.
         14    1    1    2    0    0  0.20595233491E-01  0.75325170607E-02 -0.91573862598E-02  0.23764683439E-01  0.00000000000E+00 0. -1.
     999901    1    3    3    0    0 -0.56078734824E-02  0.11872134408E+00  0.46343224552E-02  0.88800207361E+00  0.88000000000E+00 0. -1.
        -11    1    3    3    0    0 -0.28894806719E-02 -0.11543125696E+00  0.66291096377E-03  0.11547044970E+00  0.51100000000E-03 0. -1.
         11    1    3    3    0    0 -0.12097879337E-01 -0.10822604176E-01  0.38601528408E-02  0.16692793252E-01  0.51100000000E-03 0.  1.
</event>
<event>
 8    1  0.1079508E+005  0.1043930E+01  0.7957747E-01            NaN
         13   -1    0    0    0    0  0.00000000000E+00  0.00000000000E+00  0.74505805969E-08  0.10566000000E+00  0.10566000000E+00 0.  1.
     999900   -1    0    0    0    0 -0.00000000000E+00 -0.00000000000E+00 -0.74505805969E-08  0.93827000000E+00  0.93827000000E+00 0. -1.
     999902    2    1    2    0    0 -0.16897322529E-01  0.15543935577E-01  0.41282375290E-02  0.10206024243E+01  0.10203357941E+01 0.  0.
     999903    2    3    3    0    0  0.56502450572E-02  0.95265266914E-01  0.89619130334E-01  0.13258633425E+00  0.20979779768E-01 0.  0.
         14    1    1    2    0    0  0.16897322529E-01 -0.15543935577E-01 -0.41282375290E-02  0.23327575677E-01  0.00000000000E+00 0. -1.
     999901    1    3    3    0    0 -0.22547567586E-01 -0.79721331337E-01 -0.85490892805E-01  0.88801609007E+00  0.88000000000E+00 0. -1.
        -11    1    4    4    0    0  0.40778747774E-02  0.42823463486E-01  0.54571514385E-01  0.69489491227E-01  0.51100000000E-03 0. -1.
         11    1    4    4    0    0  0.15723702798E-02  0.52441803427E-01  0.35047615949E-01  0.63096843025E-01  0.51100000000E-03 0.  1.
</event>
<event>
 8    1  0.1079508E+005  0.1043930E+01  0.7957747E-01            NaN
         13   -1    0    0    0    0  0.00000000000E+00  0.00000000000E+00  0.74505805969E-08  0.10566000000E+00  0.10566000000E+00 0.  1.
     999900   -1    0    0    0    0 -0.00000000000E+00 -0.00000000000E+00 -0.74505805969E-08  0.93827000000E+00  0.93827000000E+00 0.  1.
     999902    2    1    2    0    0 -0.17710100959E-01  0.14259381068E-01  0.56855925096E-03  0.10211857505E+01  0.10209324347E+01 0.  0.
     999903    2    3    3    0    0  0.11390648207E+00  0.50952608139E-01 -0.31172097960E-01  0.13007588796E+00  0.19421174143E-01 0.  0.
         14    1    1    2    0    0  0.17710100959E-01 -0.14259381068E-01 -0.56855925096E-03  0.22744249472E-01  0.00000000000E+00 0. -1.
     999901    1    3    3    0    0 -0.13161658303E+00 -0.36693227072E-01  0.31740657211E-01  0.89110986256E+00  0.88000000000E+00 0. -1.
        -11    1    4    4    0    0  0.90272833131E-01  0.34929770529E-01 -0.17311290767E-01  0.98332167573E-01  0.51100000000E-03 0. -1.
         11    1    4    4    0    0  0.23633648936E-01  0.16022837611E-01 -0.13860807193E-01  0.31743720390E-01  0.51100000000E-03 0.  1.
</event>
<event>
 8    1  0.1079508E+005  0.1043930E+01  0.7957747E-01            NaN
         13   -1    0    0    0    0  0.00000000000E+00  0.00000000000E+00  0.74505805969E-08  0.10566000000E+00  0.10566000000E+00 0. -1.
     999900   -1    0    0    0    0 -0.00000000000E+00 -0.00000000000E+00 -0.74505805969E-08  0.93827000000E+00  0.93827000000E+00 0. -1.
     999902    2    1    2    0    0  0.20933818988E-01  0.61793349380E-02  0.39190219697E-02  0.10217541643E+01  0.10215134872E+01 0.  0.
     999903    2    3    3    0    0  0.35669238339E-01  0.12626470288E+00 -0.10071321639E-01  0.13336609709E+00  0.21679819526E-01 0.  0.
         14    1    1    2    0    0 -0.20933818988E-01 -0.61793349380E-02 -0.39190219697E-02  0.22175835743E-01  0.00000000000E+00 0. -1.
     999901    1    3    3    0    0 -0.14735419351E-01 -0.12008536794E+00  0.13990343609E-01  0.88838806717E+00  0.88000000000E+00 0.  1.
        -11    1    4    4    0    0  0.13670984379E-01  0.24060508122E-01  0.36726346163E-02  0.27920480494E-01  0.51100000000E-03 0. -1.
         11    1    4    4    0    0  0.21998253959E-01  0.10220419476E+00 -0.13743956255E-01  0.10544561659E+00  0.51100000000E-03 0.  1.
</event>
<event>
 8    1  0.1079508E+005  0.1043930E+01  0.7957747E-01            NaN
         13   -1    0    0    0    0  0.00000000000E+00  0.00000000000E+00  0.74505805969E-08  0.10566000000E+00  0.10566000000E+00 0. -1.
     999900   -1    0    0    0    0 -0.00000000000E+00 -0.00000000000E+00 -0.74505805969E-08  0.93827000000E+00  0.93827000000E+00 0. -1.
     999902    2    1    2    0    0 -0.16631063354E-02  0.67401587334E-02  0.23589414913E-01  0.10193402428E+01  0.10190436077E+01 0.  0.
     999903    2    3    3    0    0  0.26300491145E-01 -0.12480442075E+00  0.50849724988E-02  0.12893114944E+00  0.18152825635E-01 0.  0.
         14    1    1    2    0    0  0.16631063354E-02 -0.67401587334E-02 -0.23589414913E-01  0.24589757184E-01  0.00000000000E+00 0.  1.
     999901    1    3    3    0    0 -0.27963597480E-01  0.13154457948E+00  0.18504442415E-01  0.89040909337E+00  0.88000000000E+00 0. -1.
        -11    1    4    4    0    0  0.15278208865E-02 -0.23286406817E-01 -0.52438087482E-02  0.23923829758E-01  0.51100000000E-03 0. -1.
         11    1    4    4    0    0  0.24772670258E-01 -0.10151801393E+00  0.10328781247E-01  0.10500731968E+00  0.51100000000E-03 0.  1.
</event>
<event>
 8    1  0.1079508E+005  0.1043930E+01  0.7957747E-01            NaN
         13   -1    0    0    0    0  0.00000000000E+00  0.00000000000E+00  0.74505805969E-08  0.10566000000E+00  0.10566000000E+00 0.  1.
     999900   -1    0    0    0    0 -0.00000000000E+00 -0.00000000000E+00 -0.74505805969E-08  0.93827000000E+00  0.93827000000E+00 0. -1.
     999902    2    1    2    0    0 -0.99047193629E-02 -0.13930646265E-01 -0.16523803018E-01  0.10201560134E+01  0.10198789582E+01 0.  0.
     999903    2    3    3    0    0 -0.71531591920E-01 -0.35046011146E-01 -0.10463023446E+00  0.13336039250E+00  0.22192719143E-01 0.  0.
         14    1    1    2    0    0  0.99047193629E-02  0.13930646265E-01  0.16523803018E-01  0.23773986565E-01  0.00000000000E+00 0. -1.
     999901    1    3    3    0    0  0.61626872557E-01  0.21115364881E-01  0.88106431445E-01  0.88679562094E+00  0.88000000000E+00 0.  1.
        -11    1    4    4    0    0 -0.47652904240E-01 -0.34439309671E-01 -0.74343589417E-01  0.94784469938E-01  0.51100000000E-03 0.  1.
         11    1    4    4    0    0 -0.23878687680E-01 -0.60670147500E-03 -0.30286645046E-01  0.38575922558E-01  0.51100000000E-03 0. -1.
</event>
<event>
 8    1  0.1079508E+005  0.1043930E+01  0.7957747E-01            NaN
         13   -1    0    0    0    0  0.00000000000E+00  0.00000000000E+00  0.74505805969E-08  0.10566000000E+00  0.10566000000E+00 0.  1.
     999900   -1    0    0    0    0 -0.00000000000E+00 -0.00000000000E+00 -0.74505805969E-08  0.93827000000E+00  0.93827000000E+00 0.  1.
     999902    2    1    2    0    0 -0.14995365900E-01  0.42444108881E-02  0.18749691476E-01  0.10195491273E+01  0.10192575710E+01 0.  0.
     999903    2    3    3    0    0 -0.12052521228E+00 -0.46962481981E-01 -0.10042662843E-01  0.13129933474E+00  0.20170739088E-01 0.  0.
         14    1    1    2    0    0  0.14995365900E-01 -0.42444108881E-02 -0.18749691476E-01  0.24380872681E-01  0.00000000000E+00 0. -1.
     999901    1    3    3    0    0  0.10552984638E+00  0.51206892869E-01  0.28792354319E-01  0.88824979258E+00  0.88000000000E+00 0. -1.
        -11    1    4    4    0    0 -0.20540806789E-01 -0.16419880198E-01 -0.35011261905E-03  0.26304389541E-01  0.51100000000E-03 0.  1.
         11    1    4    4    0    0 -0.99984405495E-01 -0.30542601783E-01 -0.96925502239E-02  0.10499494520E+00  0.51100000000E-03 0. -1.
</event>
<event>
 8    1  0.1079508E+005  0.1043930E+01  0.7957747E-01            NaN
         13   -1    0    0    0    0  0.00000000000E+00  0.00000000000E+00  0.74505805969E-08  0.10566000000E+00  0.10566000000E+00 0.  1.
     999900   -1    0    0    0    0 -0.00000000000E+00 -0.00000000000E+00 -0.74505805969E-08  0.93827000000E+00  0.93827000000E+00 0.  1.
     999902    2    1    2    0    0  0.15009988614E-02  0.10520232654E-01  0.21365801991E-01  0.10200673558E+01  0.10197882058E+01 0.  0.
     999903    2    3    3    0    0 -0.33639553479E-01 -0.64389991743E-01 -0.10290222454E+00  0.12749302135E+00  0.19695483782E-01 0.  0.
         14    1    1    2    0    0 -0.15009988614E-02 -0.10520232654E-01 -0.21365801991E-01  0.23862644183E-01  0.00000000000E+00 0. -1.
     999901    1    3    3    0    0  0.35140552340E-01  0.74910224397E-01  0.12426802653E+00  0.89257433447E+00  0.88000000000E+00 0. -1.
        -11    1    4    4    0    0 -0.31802867209E-01 -0.44615403664E-01 -0.82313952420E-01  0.98882781569E-01  0.51100000000E-03 0. -1.
         11    1    4    4    0    0 -0.18366862699E-02 -0.19774588079E-01 -0.20588272121E-01  0.28610239777E-01  0.51100000000E-03 0.  1.
</event>
<event>
 8    1  0.1079508E+005  0.1043930E+01  0.7957747E-01            NaN
         13   -1    0    0    0    0  0.00000000000E+00  0.00000000000E+00  0.74505805969E-08  0.10566000000E+00  0.10566000000E+00 0. -1.
     999900   -1    0    0    0    0 -0.00000000000E+00 -0.00000000000E+00 -0.74505805969E-08  0.93827000000E+00  0.93827000000E+00 0.  1.
     999902    2    1    2    0    0  0.33824762286E-02 -0.16746488979E-01  0.16593774068E-01  0.10201132123E+01  0.10198351467E+01 0.  0.
     999903    2    3    3    0    0  0.11987820809E+00 -0.20231145699E-01  0.47108611966E-01  0.13190459170E+00  0.19987895292E-01 0.  0.
         14    1    1    2    0    0 -0.33824762286E-02  0.16746488979E-01 -0.16593774068E-01  0.23816787701E-01  0.00000000000E+00 0.  1.
     999901    1    3    3    0    0 -0.11649573186E+00  0.34846567200E-02 -0.30514837898E-01  0.88820862060E+00  0.88000000000E+00 0.  1.
        -11    1    4    4    0    0  0.33270481126E-01 -0.30661436669E-02  0.40152456510E-02  0.33655749434E-01  0.51100000000E-03 0. -1.
         11    1    4    4    0    0  0.86607726967E-01 -0.17165002032E-01  0.43093366315E-01  0.98248842266E-01  0.51100000000E-03 0.  1.
</event>
<event>
 8    1  0.1079508E+005  0.1043930E+01  0.7957747E-01            NaN
         13   -1    0    0    0    0  0.00000000000E+00  0.00000000000E+00  0.74505805969E-08  0.10566000000E+00  0.10566000000E+00 0. -1.
     999900   -1    0    0    0    0 -0.00000000000E+00 -0.00000000000E+00 -0.74505805969E-08  0.93827000000E+00  0.93827000000E+00 0.  1.
     999902    2    1    2    0    0 -0.10325133744E-01 -0.20598298076E-01  0.55618823864E-02  0.10202269874E+01  0.10199516033E+01 0.  0.
     999903    2    3    3    0    0 -0.23111176033E-01  0.11382983053E+00 -0.50448483564E-01  0.12816669475E+00  0.19755894608E-01 0.  0.
         14    1    1    2    0    0  0.10325133744E-01  0.20598298076E-01 -0.55618823864E-02  0.23703012596E-01  0.00000000000E+00 0. -1.
     999901    1    3    3    0    0  0.12786042290E-01 -0.13442812861E+00  0.56010365950E-01  0.89206029266E+00  0.88000000000E+00 0. -1.
        -11    1    4    4    0    0  0.80283009677E-03  0.33117929920E-01 -0.19695039751E-01  0.38543449900E-01  0.51100000000E-03 0. -1.
         11    1    4    4    0    0 -0.23914006130E-01  0.80711900613E-01 -0.30753443813E-01  0.89623244848E-01  0.51100000000E-03 0.  1.
</event>
<event>
 8    1  0.1079508E+005  0.1043930E+01  0.7957747E-01            NaN
         13   -1    0    0    0    0  0.00000000000E+00  0.00000000000E+00  0.74505805969E-08  0.10566000000E+00  0.10566000000E+00 0. -1.
     999900   -1    0    0    0    0 -0.00000000000E+00 -0.00000000000E+00 -0.74505805969E-08  0.93827000000E+00  0.93827000000E+00 0. -1.
     999902    2    1    2    0    0  0.19776944716E-01  0.13347536004E-01 -0.11668129554E-02  0.10200418081E+01  0.10197620529E+01 0.  0.
     999903    2    3    3    0    0  0.10823940501E+00  0.20914514180E-01 -0.71317494761E-01  0.13279664232E+00  0.19889128990E-01 0.  0.
         14    1    1    2    0    0 -0.19776944716E-01 -0.13347536004E-01  0.11668129554E-02  0.23888191898E-01  0.00000000000E+00 0.  1.
     999901    1    3    3    0    0 -0.88462460299E-01 -0.75669781760E-02  0.70150681806E-01  0.88724516578E+00  0.88000000000E+00 0.  1.
        -11    1    4    4    0    0  0.74892958437E-01  0.79516075089E-02 -0.40174111615E-01  0.85360433753E-01  0.51100000000E-03 0.  1.
         11    1    4    4    0    0  0.33346446577E-01  0.12962906671E-01 -0.31143383147E-01  0.47436208570E-01  0.51100000000E-03 0. -1.
</event>
<event>
 8    1  0.1079508E+005  0.1043930E+01  0.7957747E-01            NaN
         13   -1    0    0    0    0  0.00000000000E+00  0.00000000000E+00  0.74505805969E-08  0.10566000000E+00  0.10566000000E+00 0.  1.
     999900   -1    0    0    0    0 -0.00000000000E+00 -0.00000000000E+00 -0.74505805969E-08  0.93827000000E+00  0.93827000000E+00 0.  1.
     999902    2    1    2    0    0 -0.44023912341E-02  0.23484702205E-01  0.32498915923E-03  0.10200340191E+01  0.10197540793E+01 0.  0.
     999903    2    3    3    0    0 -0.10338316440E+00  0.55924883251E-01  0.57144769375E-01  0.13207115599E+00  0.19015633845E-01 0.  0.
         14    1    1    2    0    0  0.44023912341E-02 -0.23484702205E-01 -0.32498915923E-03  0.23895980921E-01  0.00000000000E+00 0.  1.
     999901    1    3    3    0    0  0.98980773161E-01 -0.32440181046E-01 -0.56819780216E-01  0.88796286309E+00  0.88000000000E+00 0.  1.
        -11    1    4    4    0    0 -0.26845956182E-01  0.12463583727E-01  0.23672828181E-01  0.37903960185E-01  0.51100000000E-03 0.  1.
         11    1    4    4    0    0 -0.76537208213E-01  0.43461299524E-01  0.33471941195E-01  0.94167195805E-01  0.51100000000E-03 0. -1.
</event>
<event>
 8    1  0.1079508E+005  0.1043930E+01  0.7957747E-01            NaN
         13   -1    0    0    0    0  0.00000000000E+00  0.00000000000E+00  0.74505805969E-08  0.10566000000E+00  0.10566000000E+00 0.  1.
     999900   -1    0    0    0    0 -0.00000000000E+00 -0.00000000000E+00 -0.74505805969E-08  0.93827000000E+00  0.93827000000E+00 0. -1.
     999902    2    1    2    0    0  0.14388691253E-01 -0.28145861777E-02 -0.22104814876E-01  0.10174049331E+01  0.10170591029E+01 0.  0.
     999903    2    3    3    0    0 -0.11971166546E-01 -0.33324728382E-01  0.11816760113E+00  0.12538359843E+00  0.22441444864E-01 0.  0.
         14    1    1    2    0    0 -0.14388691253E-01  0.28145861777E-02  0.22104814876E-01  0.26525066861E-01  0.00000000000E+00 0.  1.
     999901    1    3    3    0    0  0.26359857799E-01  0.30510142204E-01 -0.14027241601E+00  0.89202133471E+00  0.88000000000E+00 0. -1.
        -11    1    4    4    0    0 -0.16355810612E-01 -0.21606870000E-01  0.59323947667E-01  0.65222398452E-01  0.51100000000E-03 0. -1.
         11    1    4    4    0    0  0.43846440660E-02 -0.11717858382E-01  0.58843653467E-01  0.60161199979E-01  0.51100000000E-03 0.  1.
</event>
<event>
 8    1  0.1079508E+005  0.1043930E+01  0.7957747E-01            NaN
         13   -1    0    0    0    0  0.00000000000E+00  0.00000000000E+00  0.74505805969E-08  0.10566000000E+00  0.10566000000E+00 0.  1.
     999900   -1    0    0    0    0 -0.00000000000E+00 -0.00000000000E+00 -0.74505805969E-08  0.93827000000E+00  0.93827000000E+00 0. -1.
     999902    2    1    2    0    0 -0.23715218661E-01 -0.88052870551E-03  0.84082323851E-03  0.10201835495E+01  0.10199071432E+01 0.  0.
     999903    2    3    3    0    0  0.10622783746E-01 -0.59784168486E-01 -0.11275020313E+00  0.13026689136E+00  0.23871831583E-01 0.  0.
         14    1    1    2    0    0  0.23715218661E-01  0.88052870551E-03 -0.84082323851E-03  0.23746450486E-01  0.00000000000E+00 0.  1.
     999901    1    3    3    0    0 -0.34338002407E-01  0.58903639780E-01  0.11359102637E+00  0.88991665815E+00  0.88000000000E+00 0.  1.
        -11    1    4    4    0    0  0.18863904445E-02 -0.41715630631E-01 -0.93725125596E-01  0.10260805327E+00  0.51100000000E-03 0. -1.
         11    1    4    4    0    0  0.87363933016E-02 -0.18068537855E-01 -0.19025077533E-01  0.27658838086E-01  0.51100000000E-03 0.  1.
</event>
<event>
 8    1  0.1079508E+005  0.1043930E+01  0.7957747E-01            NaN
         13   -1    0    0    0    0  0.00000000000E+00  0.00000000000E+00  0.74505805969E-08  0.10566000000E+00  0.10566000000E+00 0.  1.
     999900   -1    0    0    0    0 -0.00000000000E+00 -0.00000000000E+00 -0.74505805969E-08  0.93827000000E+00  0.93827000000E+00 0. -1.
     999902    2    1    2    0    0  0.22700282219E-01 -0.23378294226E-02  0.31768254670E-02  0.10208895903E+01  0.10206295582E+01 0.  0.
     999903    2    3    3    0    0  0.12316528611E+00 -0.32489749295E-01  0.36423314641E-01  0.13403690562E+00  0.20346073523E-01 0.  0.
         14    1    1    2    0    0 -0.22700282219E-01  0.23378294226E-02 -0.31768254670E-02  0.23040409703E-01  0.00000000000E+00 0.  1.
     999901    1    3    3    0    0 -0.10046500389E+00  0.30151919872E-01 -0.33246489174E-01  0.88685268468E+00  0.88000000000E+00 0. -1.
        -11    1    4    4    0    0  0.57349101997E-01 -0.48878778575E-02  0.18333896258E-01  0.60408639471E-01  0.51100000000E-03 0.  1.
         11    1    4    4    0    0  0.65816184109E-01 -0.27601871437E-01  0.18089418383E-01  0.73628266148E-01  0.51100000000E-03 0. -1.
</event>
<event>
 8    1  0.1079508E+005  0.1043930E+01  0.7957747E-01            NaN
         13   -1    0    0    0    0  0.00000000000E+00  0.00000000000E+00  0.74505805969E-08  0.10566000000E+00  0.10566000000E+00 0. -1.
     999900   -1    0    0    0    0 -0.00000000000E+00 -0.00000000000E+00 -0.74505805969E-08  0.93827000000E+00  0.93827000000E+00 0. -1.
     999902    2    1    2    0    0 -0.55525971977E-02 -0.38466243313E-02  0.36499875364E-01  0.10068103454E+01  0.10061258385E+01 0.  0.
     999903    2    3    3    0    0  0.12664066464E-01 -0.99800218719E-01 -0.54634863632E-01  0.11672918072E+00  0.22809451356E-01 0.  0.
         14    1    1    2    0    0  0.55525971977E-02  0.38466243313E-02 -0.36499875364E-01  0.37119654578E-01  0.00000000000E+00 0.  1.
     999901    1    3    3    0    0 -0.18216663661E-01  0.95953594387E-01  0.91134738996E-01  0.89008116471E+00  0.88000000000E+00 0.  1.
        -11    1    4    4    0    0 -0.65609287798E-02 -0.29526571575E-01 -0.14466295667E-01  0.33532059984E-01  0.51100000000E-03 0. -1.
         11    1    4    4    0    0  0.19224995243E-01 -0.70273647143E-01 -0.40168567965E-01  0.83197120733E-01  0.51100000000E-03 0.  1.
</event>
<event>
 8    1  0.1079508E+005  0.1043930E+01  0.7957747E-01            NaN
         13   -1    0    0    0    0  0.00000000000E+00  0.00000000000E+00  0.74505805969E-08  0.10566000000E+00  0.10566000000E+00 0. -1.
     999900   -1    0    0    0    0 -0.00000000000E+00 -0.00000000000E+00 -0.74505805969E-08  0.93827000000E+00  0.93827000000E+00 0.  1.
     999902    2    1    2    0    0 -0.24840625237E-02 -0.10454772127E-01  0.22800149793E-01  0.10187244519E+01  0.10184125830E+01 0.  0.
     999903    2    3    3    0    0 -0.71809510051E-01 -0.33864243198E-01  0.10350161314E+00  0.13200761588E+00  0.20249296958E-01 0.  0.
         14    1    1    2    0    0  0.24840625237E-02  0.10454772127E-01 -0.22800149793E-01  0.25205548147E-01  0.00000000000E+00 0.  1.
     999901    1    3    3    0    0  0.69325447527E-01  0.23409471071E-01 -0.80701463344E-01  0.88671683597E+00  0.88000000000E+00 0.  1.
        -11    1    4    4    0    0 -0.65327337516E-01 -0.23764871801E-01  0.83214664858E-01  0.10843141485E+00  0.51100000000E-03 0.  1.
         11    1    4    4    0    0 -0.64821725349E-02 -0.10099371397E-01  0.20286948280E-01  0.23576201027E-01  0.51100000000E-03 0. -1.
</event>
<event>
 8    1  0.1079508E+005  0.1043930E+01  0.7957747E-01            NaN
         13   -1    0    0    0    0  0.00000000000E+00  0.00000000000E+00  0.74505805969E-08  0.10566000000E+00  0.10566000000E+00 0.  1.
     999900   -1    0    0    0    0 -0.00000000000E+00 -0.00000000000E+00 -0.74505805969E-08  0.93827000000E+00  0.93827000000E+00 0. -1.
     999902    2    1    2    0    0 -0.46809803694E-02 -0.17794946066E-02  0.22823534668E-01  0.10205635302E+01  0.10202959998E+01 0.  0.
     999903    2    3    3    0    0  0.12744115966E+00  0.19654312765E-01  0.50573901325E-03  0.13016263618E+00  0.17734567970E-01 0.  0.
         14    1    1    2    0    0  0.46809803694E-02  0.17794946066E-02 -0.22823534668E-01  0.23366469845E-01  0.00000000000E+00 0. -1.
     999901    1    3    3    0    0 -0.13212214003E+00 -0.21433807371E-01  0.22317795654E-01  0.89040089397E+00  0.88000000000E+00 0.  1.
        -11    1    4    4    0    0  0.92949139703E-01  0.98971875027E-02 -0.62412197239E-02  0.93684101301E-01  0.51100000000E-03 0. -1.
         11    1    4    4    0    0  0.34492019955E-01  0.97571252619E-02  0.67469587372E-02  0.36478534882E-01  0.51100000000E-03 0.  1.
</event>
<event>
 8    1  0.1079508E+005  0.1043930E+01  0.7957747E-01            NaN
         13   -1    0    0    0    0  0.00000000000E+00  0.00000000000E+00  0.74505805969E-08  0.10566000000E+00  0.10566000000E+00 0.  1.
     999900   -1    0    0    0    0 -0.00000000000E+00 -0.00000000000E+00 -0.74505805969E-08  0.93827000000E+00  0.93827000000E+00 0.  1.
     999902    2    1    2    0    0 -0.97813744619E-02  0.77297025598E-02  0.19691377094E-01  0.10206239081E+01  0.10203577744E+01 0.  0.
     999903    2    3    3    0    0 -0.68010251321E-01  0.82128418594E-01  0.78143257468E-01  0.13363890632E+00  0.19558046174E-01 0.  0.
         14    1    1    2    0    0  0.97813744619E-02 -0.77297025598E-02 -0.19691377094E-01  0.23306091905E-01  0.00000000000E+00 0. -1.
     999901    1    3    3    0    0  0.58228876859E-01 -0.74398716035E-01 -0.58451880374E-01  0.88698500177E+00  0.88000000000E+00 0.  1.
        -11    1    4    4    0    0 -0.48969949864E-01  0.54076723546E-01  0.63439945054E-01  0.96681103473E-01  0.51100000000E-03 0. -1.
         11    1    4    4    0    0 -0.19040301457E-01  0.28051695048E-01  0.14703312413E-01  0.36957802851E-01  0.51100000000E-03 0.  1.
</event>
<event>
 8    1  0.1079508E+005  0.1043930E+01  0.7957747E-01            NaN
         13   -1    0    0    0    0  0.00000000000E+00  0.00000000000E+00  0.74505805969E-08  0.10566000000E+00  0.10566000000E+00 0.  1.
     999900   -1    0    0    0    0 -0.00000000000E+00 -0.00000000000E+00 -0.74505805969E-08  0.93827000000E+00  0.93827000000E+00 0. -1.
     999902    2    1    2    0    0  0.58059256536E-02  0.16184382806E-01  0.16216887127E-01  0.10202946357E+01  0.10200208395E+01 0.  0.
     999903    2    3    3    0    0 -0.11037116592E+00  0.67551780129E-01  0.81808837177E-02  0.13113756097E+00  0.19623857236E-01 0.  0.
         14    1    1    2    0    0 -0.58059256536E-02 -0.16184382806E-01 -0.16216887127E-01  0.23635364343E-01  0.00000000000E+00 0. -1.
     999901    1    3    3    0    0  0.11617709158E+00 -0.51367397323E-01  0.80360034097E-02  0.88915707469E+00  0.88000000000E+00 0.  1.
        -11    1    4    4    0    0 -0.79095280984E-01  0.45044870937E-01 -0.28026249463E-02  0.91067116454E-01  0.51100000000E-03 0. -1.
         11    1    4    4    0    0 -0.31275884940E-01  0.22506909192E-01  0.10983508664E-01  0.40070444517E-01  0.51100000000E-03 0.  1.
</event>
<event>
 8    1  0.1079508E+005  0.1043930E+01  0.7957747E-01            NaN
         13   -1    0    0    0    0  0.00000000000E+00  0.00000000000E+00  0.74505805969E-08  0.10566000000E+00  0.10566000000E+00 0.  1.
     999900   -1    0    0    0    0 -0.00000000000E+00 -0.00000000000E+00 -0.74505805969E-08  0.93827000000E+00  0.93827000000E+00 0.  1.
     999902    2    1    2    0    0 -0.66443774474E-03  0.11763715278E-01 -0.20083430395E-01  0.10206454418E+01  0.10203798054E+01 0.  0.
     999903    2    3    3    0    0  0.92210647270E-01  0.61823350638E-01 -0.70876321995E-01  0.13288890628E+00  0.17637410175E-01 0.  0.
         14    1    1    2    0    0  0.66443774474E-03 -0.11763715278E-01  0.20083430395E-01  0.23284558211E-01  0.00000000000E+00 0.  1.
     999901    1    3    3    0    0 -0.92875085014E-01 -0.50059635360E-01  0.50792891600E-01  0.88775653551E+00  0.88000000000E+00 0. -1.
        -11    1    4    4    0    0  0.52294551397E-01  0.25826598859E-01 -0.31785179941E-01  0.66425086371E-01  0.51100000000E-03 0.  1.
         11    1    4    4    0    0  0.39916095873E-01  0.35996751779E-01 -0.39091142054E-01  0.66463819905E-01  0.51100000000E-03 0. -1.
</event>
<event>
 8    1  0.1079508E+005  0.1043930E+01  0.7957747E-01            NaN
         13   -1    0    0    0    0  0.00000000000E+00  0.00000000000E+00  0.74505805969E-08  0.10566000000E+00  0.10566000000E+00 0.  1.
     999900   -1    0    0    0    0 -0.00000000000E+00 -0.00000000000E+00 -0.74505805969E-08  0.93827000000E+00  0.93827000000E+00 0. -1.
     999902    2    1    2    0    0  0.22502417358E-01  0.23377660877E-02 -0.35631111499E-02  0.10210276050E+01  0.10207707139E+01 0.  0.
     999903    2    3    3    0    0 -0.25833008557E-01 -0.29881477718E-01 -0.12331176123E+00  0.13101966553E+00  0.20002881200E-01 0.  0.
         14    1    1    2    0    0 -0.22502417358E-01 -0.23377660877E-02  0.35631111499E-02  0.22902395034E-01  0.00000000000E+00 0.  1.
     999901    1    3    3    0    0  0.48335425915E-01  0.32219243806E-01  0.11974865008E+00  0.89000793944E+00  0.88000000000E+00 0.  1.
        -11    1    4    4    0    0 -0.25637201262E-01 -0.18794609872E-01 -0.75207732546E-01  0.81651500933E-01  0.51100000000E-03 0.  1.
         11    1    4    4    0    0 -0.19580729442E-03 -0.11086867846E-01 -0.48104028680E-01  0.49368164594E-01  0.51100000000E-03 0. -1.
</event>
<event>
 8    1  0.1079508E+005  0.1043930E+01  0.7957747E-01            NaN
         13   -1    0    0    0    0  0.00000000000E+00  0.00000000000E+00  0.74505805969E-08  0.10566000000E+00  0.10566000000E+00 0. -1.
     999900   -1    0    0    0    0 -0.00000000000E+00 -0.00000000000E+00 -0.74505805969E-08  0.93827000000E+00  0.93827000000E+00 0.  1.
     999902    2    1    2    0    0  0.12983018519E-01 -0.25331010052E-01  0.94819361932E-02  0.10139279008E+01  0.10134839230E+01 0.  0.
     999903    2    3    3    0    0 -0.40330442341E-01  0.67302502601E-01 -0.90507097240E-01  0.12183984488E+00  0.22298917326E-01 0.  0.
         14    1    1    2    0    0 -0.12983018519E-01  0.25331010052E-01 -0.94819361932E-02  0.30002099162E-01  0.00000000000E+00 0.  1.
     999901    1    3    3    0    0  0.53313460861E-01 -0.92633512653E-01  0.99989033434E-01  0.89208805596E+00  0.88000000000E+00 0. -1.
        -11    1    4    4    0    0 -0.25348797824E-01  0.54645390639E-01 -0.78073906759E-01  0.98612759351E-01  0.51100000000E-03 0. -1.
         11    1    4    4    0    0 -0.14981644517E-01  0.12657111962E-01 -0.12433190482E-01  0.23227085530E-01  0.51100000000E-03 0.  1.
</event>
<event>
 8    1  0.1079508E+005  0.1043930E+01  0.7957747E-01            NaN
         13   -1    0    0    0    0  0.00000000000E+00  0.00000000000E+00  0.74505805969E-08  0.10566000000E+00  0.10566000000E+00 0. -1.
     999900   -1    0    0    0    0 -0.00000000000E+00 -0.00000000000E+00 -0.74505805969E-08  0.93827000000E+00  0.93827000000E+00 0. -1.
     999902    2    1    2    0    0 -0.75157003392E-02 -0.18657570653E-01  0.12478988922E-01  0.10202590081E+01  0.10199843762E+01 0.  0.
     999903    2    3    3    0    0  0.61332400784E-01 -0.11333880490E+00 -0.19530675264E-01  0.13192955582E+00  0.20411083747E-01 0.  0.
         14    1    1    2    0    0  0.75157003392E-02  0.18657570653E-01 -0.12478988922E-01  0.23670991927E-01  0.00000000000E+00 0.  1.
     999901    1    3    3    0    0 -0.68848101123E-01  0.94681234245E-01  0.32009664186E-01  0.88832945226E+00  0.88000000000E+00 0.  1.
        -11    1    4    4    0    0  0.14827927730E-01 -0.20029804444E-01 -0.11240587450E-01  0.27343599508E-01  0.51100000000E-03 0.  1.
         11    1    4    4    0    0  0.46504473053E-01 -0.93309000455E-01 -0.82900878140E-02  0.10458595631E+00  0.51100000000E-03 0. -1.
</event>
<event>
 8    1  0.1079508E+005  0.1043930E+01  0.7957747E-01            NaN
         13   -1    0    0    0    0  0.00000000000E+00  0.00000000000E+00  0.74505805969E-08  0.10566000000E+00  0.10566000000E+00 0. -1.
     999900   -1    0    0    0    0 -0.00000000000E+00 -0.00000000000E+00 -0.74505805969E-08  0.93827000000E+00  0.93827000000E+00 0.  1.
     999902    2    1    2    0    0  0.20211589280E-01  0.45709325304E-03  0.12394661150E-01  0.10202161876E+01  0.10199405495E+01 0.  0.
     999903    2    3    3    0    0  0.11070109592E+00  0.65203033059E-01  0.27728659471E-01  0.13307723619E+00  0.20844761372E-01 0.  0.
         14    1    1    2    0    0 -0.20211589280E-01 -0.45709325304E-03 -0.12394661150E-01  0.23713812442E-01  0.00000000000E+00 0. -1.
     999901    1    3    3    0    0 -0.90489506643E-01 -0.64745939806E-01 -0.15333998321E-01  0.88713895137E+00  0.88000000000E+00 0.  1.
        -11    1    4    4    0    0  0.32610988781E-01  0.29079259535E-01  0.14407608787E-01  0.46010001481E-01  0.51100000000E-03 0. -1.
         11    1    4    4    0    0  0.78090107142E-01  0.36123773525E-01  0.13321050684E-01  0.87067234707E-01  0.51100000000E-03 0.  1.
</event>
<event>
 8    1  0.1079508E+005  0.1043930E+01  0.7957747E-01            NaN
         13   -1    0    0    0    0  0.00000000000E+00  0.00000000000E+00  0.74505805969E-08  0.10566000000E+00  0.10566000000E+00 0. -1.
     999900   -1    0    0    0    0 -0.00000000000E+00 -0.00000000000E+00 -0.74505805969E-08  0.93827000000E+00  0.93827000000E+00 0.  1.
     999902    2    1    2    0    0 -0.21120090070E-01 -0.16964269216E-02  0.57356556728E-02  0.10219792867E+01  0.10217435239E+01 0.  0.
     999903    2    3    3    0    0  0.64407333274E-01 -0.22981487228E-01 -0.10893468942E+00  0.13017365653E+00  0.20048964094E-01 0.  0.
         14    1    1    2    0    0  0.21120090070E-01  0.16964269216E-02 -0.57356556728E-02  0.21950713311E-01  0.00000000000E+00 0.  1.
     999901    1    3    3    0    0 -0.85527423344E-01  0.21285060306E-01  0.11467034509E+00  0.89180563016E+00  0.88000000000E+00 0. -1.
        -11    1    4    4    0    0  0.26382958891E-01 -0.16297554667E-01 -0.35002783092E-01  0.46766726988E-01  0.51100000000E-03 0.  1.
         11    1    4    4    0    0  0.38024374383E-01 -0.66839325607E-02 -0.73931906328E-01  0.83406929544E-01  0.51100000000E-03 0. -1.
</event>
<event>
 8    1  0.1079508E+005  0.1043930E+01  0.7957747E-01            NaN
         13   -1    0    0    0    0  0.00000000000E+00  0.00000000000E+00  0.74505805969E-08  0.10566000000E+00  0.10566000000E+00 0.  1.
     999900   -1    0    0    0    0 -0.00000000000E+00 -0.00000000000E+00 -0.74505805969E-08  0.93827000000E+00  0.93827000000E+00 0. -1.
     999902    2    1    2    0    0 -0.13206539979E-01 -0.39362215999E-02  0.20217584890E-01  0.10194625261E+01  0.10191688697E+01 0.  0.
     999903    2    3    3    0    0  0.27842065255E-01  0.12342526526E+00  0.18403145243E-01  0.12934498978E+00  0.19556940574E-01 0.  0.
         14    1    1    2    0    0  0.13206539979E-01  0.39362215999E-02 -0.20217584890E-01  0.24467473868E-01  0.00000000000E+00 0. -1.
     999901    1    3    3    0    0 -0.41048605234E-01 -0.12736148686E+00  0.18144396464E-02  0.89011753635E+00  0.88000000000E+00 0. -1.
        -11    1    4    4    0    0 -0.16479622991E-02  0.60643959856E-02 -0.20255262983E-02  0.66224282702E-02  0.51100000000E-03 0.  1.
         11    1    4    4    0    0  0.29490027554E-01  0.11736086927E+00  0.20428671542E-01  0.12272256151E+00  0.51100000000E-03 0. -1.
</event>
<event>
 7    1  0.1079508E+005  0.1043930E+01  0.7957747E-01            NaN
         13   -1    0    0    0    0  0.00000000000E+00  0.00000000000E+00  0.74505805969E-08  0.10566000000E+00  0.10566000000E+00 0. -1.
     999900   -1    0    0    0    0 -0.00000000000E+00 -0.00000000000E+00 -0.74505805969E-08  0.93827000000E+00  0.93827000000E+00 0. -1.
     999902    2    1    2    0    0  0.14440022987E-01  0.65014987764E-02 -0.17143870107E-01  0.10205912761E+01  0.10203243881E+01 0.  0.
         14    1    1    2    0    0 -0.14440022987E-01 -0.65014987764E-02  0.17143870107E-01  0.23338723882E-01  0.00000000000E+00 0. -1.
     999901    1    3    3    0    0  0.97055403178E-01 -0.28574773629E-01  0.78606443592E-01  0.88927793290E+00  0.88000000000E+00 0.  1.
        -11    1    3    3    0    0 -0.49892894496E-01  0.20475362057E-01 -0.54594013843E-01  0.76741832406E-01  0.51100000000E-03 0.  1.
         11    1    3    3    0    0 -0.32722485696E-01  0.14600910348E-01 -0.41156299857E-01  0.54571510809E-01  0.51100000000E-03 0. -1.
</event>
<event>
 8    1  0.1079508E+005  0.1043930E+01  0.7957747E-01            NaN
         13   -1    0    0    0    0  0.00000000000E+00  0.00000000000E+00  0.74505805969E-08  0.10566000000E+00  0.10566000000E+00 0.  1.
     999900   -1    0    0    0    0 -0.00000000000E+00 -0.00000000000E+00 -0.74505805969E-08  0.93827000000E+00  0.93827000000E+00 0. -1.
     999902    2    1    2    0    0  0.22082691967E-01  0.19498093578E-02 -0.25543269179E-02  0.10216147221E+01  0.10213709751E+01 0.  0.
     999903    2    3    3    0    0  0.55093375252E-01 -0.99304409675E-01  0.65480392322E-01  0.13258668819E+00  0.19872149591E-01 0.  0.
         14    1    1    2    0    0 -0.22082691967E-01 -0.19498093578E-02  0.25543269179E-02  0.22315277884E-01  0.00000000000E+00 0.  1.
     999901    1    3    3    0    0 -0.33010683286E-01  0.10125421903E+00 -0.68034719239E-01  0.88902803393E+00  0.88000000000E+00 0. -1.
        -11    1    4    4    0    0  0.28270868098E-01 -0.31578178541E-01  0.22109307388E-01  0.47806965362E-01  0.51100000000E-03 0. -1.
         11    1    4    4    0    0  0.26822507154E-01 -0.67726231134E-01  0.43371084933E-01  0.84779722829E-01  0.51100000000E-03 0.  1.
</event>
<event>
 8    1  0.1079508E+005  0.1043930E+01  0.7957747E-01            NaN
         13   -1    0    0    0    0  0.00000000000E+00  0.00000000000E+00  0.74505805969E-08  0.10566000000E+00  0.10566000000E+00 0. -1.
     999900   -1    0    0    0    0 -0.00000000000E+00 -0.00000000000E+00 -0.74505805969E-08  0.93827000000E+00  0.93827000000E+00 0.  1.
     999902    2    1    2    0    0 -0.14622455673E-01  0.16253990970E-01 -0.99857516986E-02  0.10198941170E+01  0.10196108504E+01 0.  0.
     999903    2    3    3    0    0  0.10753174153E+00  0.69683664476E-01 -0.69532218401E-02  0.12984604298E+00  0.19818149590E-01 0.  0.
         14    1    1    2    0    0  0.14622455673E-01 -0.16253990970E-01  0.99857516986E-02  0.24035882953E-01  0.00000000000E+00 0. -1.
     999901    1    3    3    0    0 -0.12215419720E+00 -0.53429673506E-01 -0.30325298585E-02  0.89004807406E+00  0.88000000000E+00 0. -1.
        -11    1    4    4    0    0  0.93009035120E-01  0.66132671386E-01 -0.10060786492E-01  0.11456740978E+00  0.51100000000E-03 0.  1.
         11    1    4    4    0    0  0.14522706411E-01  0.35509930903E-02  0.31075646516E-02  0.15278633201E-01  0.51100000000E-03 0. -1.
</event>
<event>
 8    1  0.1079508E+005  0.1043930E+01  0.7957747E-01            NaN
         13   -1    0    0    0    0  0.00000000000E+00  0.00000000000E+00  0.74505805969E-08  0.10566000000E+00  0.10566000000E+00 0. -1.
     999900   -1    0    0    0    0 -0.00000000000E+00 -0.00000000000E+00 -0.74505805969E-08  0.93827000000E+00  0.93827000000E+00 0.  1.
     999902    2    1    2    0    0 -0.17294436888E-02  0.19620396919E-01 -0.13436402999E-01  0.10200870162E+01  0.10198083314E+01 0.  0.
     999903    2    3    3    0    0  0.43546241989E-01 -0.11168954215E-01 -0.12226173771E+00  0.13169474624E+00  0.19353370494E-01 0.  0.
         14    1    1    2    0    0  0.17294436888E-02 -0.19620396919E-01  0.13436402999E-01  0.23842983795E-01  0.00000000000E+00 0.  1.
     999901    1    3    3    0    0 -0.45275685677E-01  0.30789351134E-01  0.10882533471E+00  0.88839226996E+00  0.88000000000E+00 0. -1.
        -11    1    4    4    0    0  0.38209295329E-01 -0.16000171542E-01 -0.10880577807E+00  0.11642557366E+00  0.51100000000E-03 0. -1.
         11    1    4    4    0    0  0.53369466596E-02  0.48312173268E-02 -0.13455959638E-01  0.15269172580E-01  0.51100000000E-03 0.  1.
</event>
<event>
 8    1  0.1079508E+005  0.1043930E+01  0.7957747E-01            NaN
         13   -1    0    0    0    0  0.00000000000E+00  0.00000000000E+00  0.74505805969E-08  0.10566000000E+00  0.10566000000E+00 0. -1.
     999900   -1    0    0    0    0 -0.00000000000E+00 -0.00000000000E+00 -0.74505805969E-08  0.93827000000E+00  0.93827000000E+00 0. -1.
     999902    2    1    2    0    0 -0.21731819243E-01 -0.85294452044E-02 -0.56297572410E-02  0.10199150553E+01  0.10196322878E+01 0.  0.
     999903    2    3    3    0    0 -0.20605504302E-01 -0.84944205439E-01  0.95195586994E-01  0.13086711833E+00  0.20588784107E-01 0.  0.
         14    1    1    2    0    0  0.21731819243E-01  0.85294452044E-02  0.56297572410E-02  0.24014944716E-01  0.00000000000E+00 0. -1.
     999901    1    3    3    0    0 -0.11263149408E-02  0.76414760235E-01 -0.10082534423E+00  0.88904793696E+00  0.88000000000E+00 0.  1.
        -11    1    4    4    0    0 -0.21664745525E-01 -0.53675353767E-01  0.68950209132E-01  0.90026647505E-01  0.51100000000E-03 0. -1.
         11    1    4    4    0    0  0.10592412229E-02 -0.31268851673E-01  0.26245377861E-01  0.40840470822E-01  0.51100000000E-03 0.  1.
</event>
<event>
 8    1  0.1079508E+005  0.1043930E+01  0.7957747E-01            NaN
         13   -1    0    0    0    0  0.00000000000E+00  0.00000000000E+00  0.74505805969E-08  0.10566000000E+00  0.10566000000E+00 0.  1.
     999900   -1    0    0    0    0 -0.00000000000E+00 -0.00000000000E+00 -0.74505805969E-08  0.93827000000E+00  0.93827000000E+00 0. -1.
     999902    2    1    2    0    0 -0.12079204621E-01  0.15357006341E-01  0.13451346929E-01  0.10202090480E+01  0.10199332420E+01 0.  0.
     999903    2    3    3    0    0  0.30170149473E-01  0.30191680707E-01  0.12386504419E+00  0.13217962283E+00  0.17525068194E-01 0.  0.
         14    1    1    2    0    0  0.12079204621E-01 -0.15357006341E-01 -0.13451346929E-01  0.23720951968E-01  0.00000000000E+00 0.  1.
     999901    1    3    3    0    0 -0.42249354094E-01 -0.14834674366E-01 -0.11041369726E+00  0.88802942520E+00  0.88000000000E+00 0. -1.
        -11    1    4    4    0    0  0.68904308918E-02 -0.10117643266E-02  0.14571333581E-01  0.16158174038E-01  0.51100000000E-03 0. -1.
         11    1    4    4    0    0  0.23279718581E-01  0.31203445034E-01  0.10929371061E+00  0.11602144879E+00  0.51100000000E-03 0.  1.
</event>
<event>
 8    1  0.1079508E+005  0.1043930E+01  0.7957747E-01            NaN
         13   -1    0    0    0    0  0.00000000000E+00  0.00000000000E+00  0.74505805969E-08  0.10566000000E+00  0.10566000000E+00 0.  1.
     999900   -1    0    0    0    0 -0.00000000000E+00 -0.00000000000E+00 -0.74505805969E-08  0.93827000000E+00  0.93827000000E+00 0.  1.
     999902    2    1    2    0    0  0.43398711772E-02 -0.76933915755E-02  0.26852694601E-01  0.10156618207E+01  0.10152683606E+01 0.  0.
     999903    2    3    3    0    0 -0.11535908442E+00 -0.44232363463E-01 -0.20341600630E-01  0.12555495183E+00  0.92760377697E-02 0.  0.
         14    1    1    2    0    0 -0.43398711772E-02  0.76933915755E-02 -0.26852694601E-01  0.28268179338E-01  0.00000000000E+00 0. -1.
     999901    1    3    3    0    0  0.11969895560E+00  0.36538971887E-01  0.47194295230E-01  0.89010686883E+00  0.88000000000E+00 0. -1.
        -11    1    4    4    0    0 -0.97720136396E-01 -0.38726419125E-01 -0.14167347347E-01  0.10606571287E+00  0.51100000000E-03 0.  1.
         11    1    4    4    0    0 -0.17638948026E-01 -0.55059443378E-02 -0.61742532825E-02  0.19489238957E-01  0.51100000000E-03 0. -1.
</event>
<event>
 8    1  0.1079508E+005  0.1043930E+01  0.7957747E-01            NaN
         13   -1    0    0    0    0  0.00000000000E+00  0.00000000000E+00  0.74505805969E-08  0.10566000000E+00  0.10566000000E+00 0. -1.
     999900   -1    0    0    0    0 -0.00000000000E+00 -0.00000000000E+00 -0.74505805969E-08  0.93827000000E+00  0.93827000000E+00 0. -1.
     999902    2    1    2    0    0  0.11925611126E-02  0.37641299002E-02 -0.22776517268E-01  0.10208137586E+01  0.10205519924E+01 0.  0.
     999903    2    3    3    0    0  0.45491074273E-01 -0.36031299709E-01  0.11287790659E+00  0.12843034485E+00  0.19627513451E-01 0.  0.
         14    1    1    2    0    0 -0.11925611126E-02 -0.37641299002E-02  0.22776517268E-01  0.23116241363E-01  0.00000000000E+00 0. -1.
     999901    1    3    3    0    0 -0.44298513160E-01  0.39795429610E-01 -0.13565442386E+00  0.89238341379E+00  0.88000000000E+00 0. -1.
        -11    1    4    4    0    0  0.40936038476E-01 -0.24999082640E-01  0.99725062290E-01  0.11066192908E+00  0.51100000000E-03 0.  1.
         11    1    4    4    0    0  0.45550357965E-02 -0.11032217069E-01  0.13152844305E-01  0.17768415767E-01  0.51100000000E-03 0. -1.
</event>
<event>
 8    1  0.1079508E+005  0.1043930E+01  0.7957747E-01            NaN
         13   -1    0    0    0    0  0.00000000000E+00  0.00000000000E+00  0.74505805969E-08  0.10566000000E+00  0.10566000000E+00 0. -1.
     999900   -1    0    0    0    0 -0.00000000000E+00 -0.00000000000E+00 -0.74505805969E-08  0.93827000000E+00  0.93827000000E+00 0.  1.
     999902    2    1    2    0    0  0.17366552589E-01 -0.11205130230E-01  0.11964430942E-01  0.10200490515E+01  0.10197694680E+01 0.  0.
     999903    2    3    3    0    0  0.38687885612E-02 -0.46752656688E-01  0.12136460891E+00  0.13246006150E+00  0.24809699015E-01 0.  0.
         14    1    1    2    0    0 -0.17366552589E-01  0.11205130230E-01 -0.11964430942E-01  0.23880948475E-01  0.00000000000E+00 0.  1.
     999901    1    3    3    0    0  0.13497764028E-01  0.35547526457E-01 -0.10940017797E+00  0.88758899002E+00  0.88000000000E+00 0.  1.
        -11    1    4    4    0    0 -0.58009279704E-02 -0.19742590017E-01  0.76368467811E-01  0.79093771074E-01  0.51100000000E-03 0. -1.
         11    1    4    4    0    0  0.96697165316E-02 -0.27010066670E-01  0.44996141097E-01  0.53366290427E-01  0.51100000000E-03 0.  1.
</event>
<event>
 8    1  0.1079508E+005  0.1043930E+01  0.7957747E-01            NaN
         13   -1    0    0    0    0  0.00000000000E+00  0.00000000000E+00  0.74505805969E-08  0.10566000000E+00  0.10566000000E+00 0. -1.
     999900   -1    0    0    0    0 -0.00000000000E+00 -0.00000000000E+00 -0.74505805969E-08  0.93827000000E+00  0.93827000000E+00 0.  1.
     999902    2    1    2    0    0 -0.11213301584E-01  0.13484377187E-01  0.16221524898E-01  0.10200405791E+01  0.10197607948E+01 0.  0.
     999903    2    3    3    0    0  0.94182354850E-01  0.45533742514E-01  0.76498670994E-01  0.13112621847E+00  0.19959980797E-01 0.  0.
         14    1    1    2    0    0  0.11213301584E-01 -0.13484377187E-01 -0.16221524898E-01  0.23889420891E-01  0.00000000000E+00 0.  1.
     999901    1    3    3    0    0 -0.10539565643E+00 -0.32049365327E-01 -0.60277146096E-01  0.88891436064E+00  0.88000000000E+00 0.  1.
        -11    1    4    4    0    0  0.67506614768E-01  0.23723022800E-01  0.45668094407E-01  0.84886752889E-01  0.51100000000E-03 0.  1.
         11    1    4    4    0    0  0.26675740081E-01  0.21810719714E-01  0.30830576587E-01  0.46239465578E-01  0.51100000000E-03 0. -1.
</event>
<event>
 8    1  0.1079508E+005  0.1043930E+01  0.7957747E-01            NaN
         13   -1    0    0    0    0  0.00000000000E+00  0.00000000000E+00  0.74505805969E-08  0.10566000000E+00  0.10566000000E+00 0. -1.
     999900   -1    0    0    0    0 -0.00000000000E+00 -0.00000000000E+00 -0.74505805969E-08  0.93827000000E+00  0.93827000000E+00 0.  1.
     999902    2    1    2    0    0  0.16164939834E-01  0.22486340489E-02 -0.17307115840E-01  0.10201413915E+01  0.10198639913E+01 0.  0.
     999903    2    3    3    0    0 -0.82287665615E-01  0.94462363762E-01  0.22270847270E-01  0.12898332325E+00  0.21126025632E-01 0.  0.
         14    1    1    2    0    0 -0.16164939834E-01 -0.22486340489E-02  0.17307115840E-01  0.23788608485E-01  0.00000000000E+00 0.  1.
     999901    1    3    3    0    0  0.98452605449E-01 -0.92213729713E-01 -0.39577963111E-01  0.89115806826E+00  0.88000000000E+00 0. -1.
        -11    1    4    4    0    0 -0.62053793892E-01  0.83453805941E-01  0.17664623054E-01  0.10548701859E+00  0.51100000000E-03 0. -1.
         11    1    4    4    0    0 -0.20233871723E-01  0.11008557821E-01  0.46062242167E-02  0.23496304662E-01  0.51100000000E-03 0.  1.
</event>
<event>
 8    1  0.1079508E+005  0.1043930E+01  0.7957747E-01            NaN
         13   -1    0    0    0    0  0.00000000000E+00  0.00000000000E+00  0.74505805969E-08  0.10566000000E+00  0.10566000000E+00 0.  1.
     999900   -1    0    0    0    0 -0.00000000000E+00 -0.00000000000E+00 -0.74505805969E-08  0.93827000000E+00  0.93827000000E+00 0. -1.
     999902    2    1    2    0    0  0.45038736603E-02  0.13466640463E-01 -0.20060842194E-01  0.10193521101E+01  0.10190557647E+01 0.  0.
     999903    2    3    3    0    0 -0.81758159448E-01 -0.68407212642E-01 -0.71294872322E-01  0.12987507720E+00  0.20509351064E-01 0.  0.
         14    1    1    2    0    0 -0.45038736603E-02 -0.13466640463E-01  0.20060842194E-01  0.24577889918E-01  0.00000000000E+00 0.  1.
     999901    1    3    3    0    0  0.86262033109E-01  0.81873853104E-01  0.51234030128E-01  0.88947703288E+00  0.88000000000E+00 0. -1.
        -11    1    4    4    0    0 -0.45257061358E-01 -0.26616400204E-01 -0.28080138832E-01  0.59543174927E-01  0.51100000000E-03 0.  1.
         11    1    4    4    0    0 -0.36501098090E-01 -0.41790812438E-01 -0.43214733490E-01  0.70331902275E-01  0.51100000000E-03 0. -1.
</event>
<event>
 8    1  0.1079508E+005  0.1043930E+01  0.7957747E-01            NaN
         13   -1    0    0    0    0  0.00000000000E+00  0.00000000000E+00  0.74505805969E-08  0.10566000000E+00  0.10566000000E+00 0.  1.
     999900   -1    0    0    0    0 -0.00000000000E+00 -0.00000000000E+00 -0.74505805969E-08  0.93827000000E+00  0.93827000000E+00 0.  1.
     999902    2    1    2    0    0 -0.16514872859E-01 -0.53792472144E-02  0.15914358211E-01  0.10203727480E+01  0.10201007797E+01 0.  0.
     999903    2    3    3    0    0 -0.19011811866E-01  0.12256167250E+00  0.36379517820E-01  0.13088191811E+00  0.20586272459E-01 0.  0.
         14    1    1    2    0    0  0.16514872859E-01  0.53792472144E-02 -0.15914358211E-01  0.23557252034E-01  0.00000000000E+00 0. -1.
     999901    1    3    3    0    0  0.24969390073E-02 -0.12794091972E+00 -0.20465159609E-01  0.88949082986E+00  0.88000000000E+00 0. -1.
        -11    1    4    4    0    0 -0.33892856205E-02  0.48416240810E-01  0.23840520569E-01  0.54076345782E-01  0.51100000000E-03 0.  1.
         11    1    4    4    0    0 -0.15622526246E-01  0.74145431693E-01  0.12538997251E-01  0.76805572326E-01  0.51100000000E-03 0. -1.
</event>
<event>
 8    1  0.1079508E+005  0.1043930E+01  0.7957747E-01            NaN
         13   -1    0    0    0    0  0.00000000000E+00  0.00000000000E+00  0.74505805969E-08  0.10566000000E+00  0.10566000000E+00 0.  1.
     999900   -1    0    0    0    0 -0.00000000000E+00 -0.00000000000E+00 -0.74505805969E-08  0.93827000000E+00  0.93827000000E+00 0.  1.
     999902    2    1    2    0    0  0.15489198940E-01 -0.10661486667E-01  0.14402246637E-01  0.10202444075E+01  0.10199694328E+01 0.  0.
     999903    2    3    3    0    0 -0.10196167915E-01  0.39458034805E-01 -0.11993443590E+00  0.12827016533E+00  0.20200694275E-01 0.  0.
         14    1    1    2    0    0 -0.15489198940E-01  0.10661486667E-01 -0.14402246637E-01  0.23685592455E-01  0.00000000000E+00 0. -1.
     999901    1    3    3    0    0  0.25685366855E-01 -0.50119521472E-01  0.13433668253E+00  0.89197424222E+00  0.88000000000E+00 0. -1.
        -11    1    4    4    0    0  0.22979199622E-03  0.33418417150E-01 -0.88778239552E-01  0.94861374375E-01  0.51100000000E-03 0. -1.
         11    1    4    4    0    0 -0.10425959911E-01  0.60396176540E-02 -0.31156196343E-01  0.33408790954E-01  0.51100000000E-03 0.  1.
</event>
<event>
 8    1  0.1079508E+005  0.1043930E+01  0.7957747E-01            NaN
         13   -1    0    0    0    0  0.00000000000E+00  0.00000000000E+00  0.74505805969E-08  0.10566000000E+00  0.10566000000E+00 0.  1.
     999900   -1    0    0    0    0 -0.00000000000E+00 -0.00000000000E+00 -0.74505805969E-08  0.93827000000E+00  0.93827000000E+00 0. -1.
     999902    2    1    2    0    0  0.18385887457E-01 -0.73124438640E-02  0.11537651302E-01  0.10210251950E+01  0.10207682493E+01 0.  0.
     999903    2    3    3    0    0 -0.95988225126E-01 -0.70051981863E-02 -0.82840894726E-01  0.12861898597E+00  0.20430799022E-01 0.  0.
         14    1    1    2    0    0 -0.18385887457E-01  0.73124438640E-02 -0.11537651302E-01  0.22904804963E-01  0.00000000000E+00 0.  1.
     999901    1    3    3    0    0  0.11437411258E+00 -0.30724567765E-03  0.94378546028E-01  0.89240620907E+00  0.88000000000E+00 0.  1.
        -11    1    4    4    0    0 -0.30579215630E-01 -0.10058324317E-01 -0.20246309996E-01  0.38031993191E-01  0.51100000000E-03 0. -1.
         11    1    4    4    0    0 -0.65409009496E-01  0.30531261303E-02 -0.62594584729E-01  0.90586992780E-01  0.51100000000E-03 0.  1.
</event>
<event>
 8    1  0.1079508E+005  0.1043930E+01  0.7957747E-01            NaN
         13   -1    0    0    0    0  0.00000000000E+00  0.00000000000E+00  0.74505805969E-08  0.10566000000E+00  0.10566000000E+00 0. -1.
     999900   -1    0    0    0    0 -0.00000000000E+00 -0.00000000000E+00 -0.74505805969E-08  0.93827000000E+00  0.93827000000E+00 0. -1.
     999902    2    1    2    0    0  0.18751964871E-02  0.19090233791E-01 -0.13153822094E-01  0.10206711001E+01  0.10204060555E+01 0.  0.
     999903    2    3    3    0    0  0.97965767898E-01  0.34560791018E-01 -0.80503840781E-01  0.13274725143E+00  0.18687547337E-01 0.  0.
         14    1    1    2    0    0 -0.18751964871E-02 -0.19090233791E-01  0.13153822094E-01  0.23258899882E-01  0.00000000000E+00 0.  1.
     999901    1    3    3    0    0 -0.96090571411E-01 -0.15470557227E-01  0.67350018688E-01  0.88792384869E+00  0.88000000000E+00 0.  1.
        -11    1    4    4    0    0  0.44905848558E-01  0.11222390223E-01 -0.46146494938E-01  0.65362354556E-01  0.51100000000E-03 0. -1.
         11    1    4    4    0    0  0.53059919340E-01  0.23338400795E-01 -0.34357345844E-01  0.67384896872E-01  0.51100000000E-03 0.  1.
</event>
<event>
 8    1  0.1079508E+005  0.1043930E+01  0.7957747E-01            NaN
         13   -1    0    0    0    0  0.00000000000E+00  0.00000000000E+00  0.74505805969E-08  0.10566000000E+00  0.10566000000E+00 0.  1.
     999900   -1    0    0    0    0 -0.00000000000E+00 -0.00000000000E+00 -0.74505805969E-08  0.93827000000E+00  0.93827000000E+00 0.  1.
     999902    2    1    2    0    0  0.10721881910E-01 -0.48834891703E-02 -0.19621319846E-01  0.10210432481E+01  0.10207867119E+01 0.  0.
     999903    2    3    3    0    0 -0.36099475541E-01 -0.20627760810E-01 -0.12491501737E+00  0.13339079118E+00  0.21463106877E-01 0.  0.
         14    1    1    2    0    0 -0.10721881910E-01  0.48834891703E-02  0.19621319846E-01  0.22886751859E-01  0.00000000000E+00 0.  1.
     999901    1    3    3    0    0  0.46821357452E-01  0.15744271639E-01  0.10529369753E+00  0.88765245696E+00  0.88000000000E+00 0. -1.
        -11    1    4    4    0    0 -0.36410233128E-01 -0.21589415042E-01 -0.10184068499E+00  0.11028868554E+00  0.51100000000E-03 0. -1.
         11    1    4    4    0    0  0.31075758659E-03  0.96165423184E-03 -0.23074332388E-01  0.23102105646E-01  0.51100000000E-03 0.  1.
</event>
<event>
 8    1  0.1079508E+005  0.1043930E+01  0.7957747E-01            NaN
         13   -1    0    0    0    0  0.00000000000E+00  0.00000000000E+00  0.74505805969E-08  0.10566000000E+00  0.10566000000E+00 0. -1.
     999900   -1    0    0    0    0 -0.00000000000E+00 -0.00000000000E+00 -0.74505805969E-08  0.93827000000E+00  0.93827000000E+00 0. -1.
     999902    2    1    2    0    0 -0.21216517118E-01  0.10200755476E-01 -0.62854219348E-02  0.10195639880E+01  0.10192727913E+01 0.  0.
     999903    2    3    3    0    0  0.54305463603E-01 -0.10778253792E+00 -0.38011118709E-01  0.12791935762E+00  0.18771202641E-01 0.  0.
         14    1    1    2    0    0  0.21216517118E-01 -0.10200755476E-01  0.62854219348E-02  0.24366011980E-01  0.00000000000E+00 0.  1.
     999901    1    3    3    0    0 -0.75521980721E-01  0.11798329340E+00  0.31725696774E-01  0.89164463040E+00  0.88000000000E+00 0.  1.
        -11    1    4    4    0    0 -0.27898608937E-03 -0.61724377542E-02  0.73007545236E-03  0.62426718825E-02  0.51100000000E-03 0.  1.
         11    1    4    4    0    0  0.54584449692E-01 -0.10161010017E+00 -0.38741194161E-01  0.12167668573E+00  0.51100000000E-03 0. -1.
</event>
<event>
 8    1  0.1079508E+005  0.1043930E+01  0.7957747E-01            NaN
         13   -1    0    0    0    0  0.00000000000E+00  0.00000000000E+00  0.74505805969E-08  0.10566000000E+00  0.10566000000E+00 0.  1.
     999900   -1    0    0    0    0 -0.00000000000E+00 -0.00000000000E+00 -0.74505805969E-08  0.93827000000E+00  0.93827000000E+00 0. -1.
     999902    2    1    2    0    0  0.16038864228E-01  0.15698030509E-01  0.65606931513E-02  0.10205480407E+01  0.10202801514E+01 0.  0.
     999903    2    3    3    0    0  0.10333681267E+00 -0.48907460853E-01  0.62841288189E-01  0.13208740187E+00  0.20678918065E-01 0.  0.
         14    1    1    2    0    0 -0.16038864228E-01 -0.15698030509E-01 -0.65606931513E-02  0.23381959332E-01  0.00000000000E+00 0. -1.
     999901    1    3    3    0    0 -0.87297948439E-01  0.64605491362E-01 -0.56280595038E-01  0.88846063880E+00  0.88000000000E+00 0. -1.
        -11    1    4    4    0    0  0.48094087250E-01 -0.34031105306E-01  0.33807208231E-01  0.67928976189E-01  0.51100000000E-03 0.  1.
         11    1    4    4    0    0  0.55242725417E-01 -0.14876355547E-01  0.29034079958E-01  0.64158425681E-01  0.51100000000E-03 0. -1.
</event>
<event>
 8    1  0.1079508E+005  0.1043930E+01  0.7957747E-01            NaN
         13   -1    0    0    0    0  0.00000000000E+00  0.00000000000E+00  0.74505805969E-08  0.10566000000E+00  0.10566000000E+00 0.  1.
     999900   -1    0    0    0    0 -0.00000000000E+00 -0.00000000000E+00 -0.74505805969E-08  0.93827000000E+00  0.93827000000E+00 0. -1.
     999902    2    1    2    0    0 -0.63854091859E-04  0.15084231794E-01 -0.18845196495E-01  0.10197912437E+01  0.10195055179E+01 0.  0.
     999903    2    3    3    0    0  0.92643583340E-01  0.58105212119E-01  0.66883652510E-01  0.12973792546E+00  0.19986423412E-01 0.  0.
         14    1    1    2    0    0  0.63854091859E-04 -0.15084231794E-01  0.18845196495E-01  0.24138756328E-01  0.00000000000E+00 0.  1.
     999901    1    3    3    0    0 -0.92707437432E-01 -0.43020980325E-01 -0.85728849005E-01  0.89005331821E+00  0.88000000000E+00 0. -1.
        -11    1    4    4    0    0  0.46867516160E-01  0.28185322028E-01  0.21857095579E-01  0.58897964285E-01  0.51100000000E-03 0. -1.
         11    1    4    4    0    0  0.45776067181E-01  0.29919890091E-01  0.45026556931E-01  0.70839961177E-01  0.51100000000E-03 0.  1.
</event>
<event>
 8    1  0.1079508E+005  0.1043930E+01  0.7957747E-01            NaN
         13   -1    0    0    0    0  0.00000000000E+00  0.00000000000E+00  0.74505805969E-08  0.10566000000E+00  0.10566000000E+00 0. -1.
     999900   -1    0    0    0    0 -0.00000000000E+00 -0.00000000000E+00 -0.74505805969E-08  0.93827000000E+00  0.93827000000E+00 0. -1.
     999902    2    1    2    0    0  0.33857859899E-02  0.97168939487E-02  0.21337839690E-01  0.10202406569E+01  0.10199655940E+01 0.  0.
     999903    2    3    3    0    0 -0.63469353011E-01 -0.10594027770E+00 -0.29774444176E-01  0.12869219688E+00  0.20578211790E-01 0.  0.
         14    1    1    2    0    0 -0.33857859899E-02 -0.97168939487E-02 -0.21337839690E-01  0.23689343119E-01  0.00000000000E+00 0.  1.
     999901    1    3    3    0    0  0.66855139000E-01  0.11565717165E+00  0.51112283866E-01  0.89154846000E+00  0.88000000000E+00 0. -1.
        -11    1    4    4    0    0 -0.41073007580E-01 -0.63714162410E-01 -0.28146232312E-01  0.80863823541E-01  0.51100000000E-03 0. -1.
         11    1    4    4    0    0 -0.22396345430E-01 -0.42226115295E-01 -0.16282118633E-02  0.47828373341E-01  0.51100000000E-03 0.  1.
</event>
<event>
 8    1  0.1079508E+005  0.1043930E+01  0.7957747E-01            NaN
         13   -1    0    0    0    0  0.00000000000E+00  0.00000000000E+00  0.74505805969E-08  0.10566000000E+00  0.10566000000E+00 0. -1.
     999900   -1    0    0    0    0 -0.00000000000E+00 -0.00000000000E+00 -0.74505805969E-08  0.93827000000E+00  0.93827000000E+00 0.  1.
     999902    2    1    2    0    0 -0.10628735838E-02 -0.15247473300E-01 -0.18363474483E-01  0.10200379022E+01  0.10197580544E+01 0.  0.
     999903    2    3    3    0    0 -0.36433537534E-01  0.39531329469E-01  0.11527824344E+00  0.12756274295E+00  0.96463107601E-02 0.  0.
         14    1    1    2    0    0  0.10628735838E-02  0.15247473300E-01  0.18363474483E-01  0.23892097802E-01  0.00000000000E+00 0.  1.
     999901    1    3    3    0    0  0.35370663950E-01 -0.54778802768E-01 -0.13364171793E+00  0.89247515925E+00  0.88000000000E+00 0.  1.
        -11    1    4    4    0    0 -0.51569371859E-02  0.75211125208E-02  0.28417574862E-01  0.29849301780E-01  0.51100000000E-03 0.  1.
         11    1    4    4    0    0 -0.31276600348E-01  0.32010216948E-01  0.86860668581E-01  0.97713441172E-01  0.51100000000E-03 0. -1.
</event>
<event>
 8    1  0.1079508E+005  0.1043930E+01  0.7957747E-01            NaN
         13   -1    0    0    0    0  0.00000000000E+00  0.00000000000E+00  0.74505805969E-08  0.10566000000E+00  0.10566000000E+00 0. -1.
     999900   -1    0    0    0    0 -0.00000000000E+00 -0.00000000000E+00 -0.74505805969E-08  0.93827000000E+00  0.93827000000E+00 0.  1.
     999902    2    1    2    0    0 -0.18870007114E-01  0.12097641409E-01  0.44514335287E-02  0.10210773118E+01  0.10208215473E+01 0.  0.
     999903    2    3    3    0    0  0.50623740488E-01 -0.56515924995E-01 -0.10231640801E+00  0.12926086522E+00  0.21975237235E-01 0.  0.
         14    1    1    2    0    0  0.18870007114E-01 -0.12097641409E-01 -0.44514335287E-02  0.22852688170E-01  0.00000000000E+00 0.  1.
     999901    1    3    3    0    0 -0.69493747602E-01  0.68613566404E-01  0.10676784154E+00  0.89181644661E+00  0.88000000000E+00 0. -1.
        -11    1    4    4    0    0  0.27115097656E-01 -0.14840334391E-01 -0.44987743195E-01  0.54585915807E-01  0.51100000000E-03 0. -1.
         11    1    4    4    0    0  0.23508642832E-01 -0.41675590605E-01 -0.57328664814E-01  0.74674949417E-01  0.51100000000E-03 0.  1.
</event>
<event>
 8    1  0.1079508E+005  0.1043930E+01  0.7957747E-01            NaN
         13   -1    0    0    0    0  0.00000000000E+00  0.00000000000E+00  0.74505805969E-08  0.10566000000E+00  0.10566000000E+00 0.  1.
     999900   -1    0    0    0    0 -0.00000000000E+00 -0.00000000000E+00 -0.74505805969E-08  0.93827000000E+00  0.93827000000E+00 0. -1.
     999902    2    1    2    0    0 -0.22243851323E-01  0.64482763183E-02 -0.58616066419E-02  0.10200400937E+01  0.10197602979E+01 0.  0.
     999903    2    3    3    0    0 -0.49620594003E-01 -0.79324844197E-01  0.88645813624E-01  0.13041198787E+00  0.19863837804E-01 0.  0.
         14    1    1    2    0    0  0.22243851323E-01 -0.64482763183E-02  0.58616066419E-02  0.23889906270E-01  0.00000000000E+00 0. -1.
     999901    1    3    3    0    0  0.27376742681E-01  0.85773120515E-01 -0.94507420266E-01  0.88962810586E+00  0.88000000000E+00 0.  1.
        -11    1    4    4    0    0 -0.25270337781E-01 -0.56444290508E-01  0.51831798498E-01  0.80692901541E-01  0.51100000000E-03 0.  1.
         11    1    4    4    0    0 -0.24350256223E-01 -0.22880553689E-01  0.36814015126E-01  0.49719086334E-01  0.51100000000E-03 0. -1.
</event>
<event>
 8    1  0.1079508E+005  0.1043930E+01  0.7957747E-01            NaN
         13   -1    0    0    0    0  0.00000000000E+00  0.00000000000E+00  0.74505805969E-08  0.10566000000E+00  0.10566000000E+00 0.  1.
     999900   -1    0    0    0    0 -0.00000000000E+00 -0.00000000000E+00 -0.74505805969E-08  0.93827000000E+00  0.93827000000E+00 0.  1.
     999902    2    1    2    0    0 -0.12029061953E-01  0.20517511343E-01 -0.73929231596E-03  0.10201347661E+01  0.10198572095E+01 0.  0.
     999903    2    3    3    0    0 -0.12880986446E+00  0.17038716167E-01  0.14395476603E-01  0.13228403592E+00  0.20237029993E-01 0.  0.
         14    1    1    2    0    0  0.12029061953E-01 -0.20517511343E-01  0.73929231596E-03  0.23795233899E-01  0.00000000000E+00 0.  1.
     999901    1    3    3    0    0  0.11678080250E+00  0.34787951756E-02 -0.15134768919E-01  0.88785073018E+00  0.88000000000E+00 0.  1.
        -11    1    4    4    0    0 -0.60608482732E-01  0.68082902210E-02 -0.33089802005E-02  0.61081514927E-01  0.51100000000E-03 0.  1.
         11    1    4    4    0    0 -0.68201381725E-01  0.10230425946E-01  0.17704456803E-01  0.71202520994E-01  0.51100000000E-03 0. -1.
</event>
<event>
 8    1  0.1079508E+005  0.1043930E+01  0.7957747E-01            NaN
         13   -1    0    0    0    0  0.00000000000E+00  0.00000000000E+00  0.74505805969E-08  0.10566000000E+00  0.10566000000E+00 0. -1.
     999900   -1    0    0    0    0 -0.00000000000E+00 -0.00000000000E+00 -0.74505805969E-08  0.93827000000E+00  0.93827000000E+00 0. -1.
     999902    2    1    2    0    0 -0.10197735649E-01  0.82322128316E-03 -0.20775824674E-01  0.10207717100E+01  0.10205089796E+01 0.  0.
     999903    2    3    3    0    0 -0.88220646036E-01 -0.94317665696E-01  0.15094537222E-01  0.13148770260E+00  0.19556749019E-01 0.  0.
         14    1    1    2    0    0  0.10197735649E-01 -0.82322128316E-03  0.20775824674E-01  0.23158290018E-01  0.00000000000E+00 0. -1.
     999901    1    3    3    0    0  0.78022910387E-01  0.95140886979E-01 -0.35870361896E-01  0.88928400738E+00  0.88000000000E+00 0. -1.
        -11    1    4    4    0    0 -0.73398328923E-01 -0.68741420166E-01  0.16409264240E-01  0.10189319216E+00  0.51100000000E-03 0.  1.
         11    1    4    4    0    0 -0.14822317113E-01 -0.25576245530E-01 -0.13147270184E-02  0.29594510439E-01  0.51100000000E-03 0. -1.
</event>
<event>
 8    1  0.1079508E+005  0.1043930E+01  0.7957747E-01            NaN
         13   -1    0    0    0    0  0.00000000000E+00  0.00000000000E+00  0.74505805969E-08  0.10566000000E+00  0.10566000000E+00 0.  1.
     999900   -1    0    0    0    0 -0.00000000000E+00 -0.00000000000E+00 -0.74505805969E-08  0.93827000000E+00  0.93827000000E+00 0.  1.
     999902    2    1    2    0    0 -0.22920084147E-01  0.12528051642E-01  0.66988054245E-02  0.10169641637E+01  0.10166065875E+01 0.  0.
     999903    2    3    3    0    0 -0.91885877524E-01  0.73124304896E-01 -0.52820095073E-01  0.13018872079E+00  0.19208386783E-01 0.  0.
         14    1    1    2    0    0  0.22920084147E-01 -0.12528051642E-01 -0.66988054245E-02  0.26965836337E-01  0.00000000000E+00 0.  1.
     999901    1    3    3    0    0  0.68965793377E-01 -0.60596253254E-01  0.59518900498E-01  0.88677544287E+00  0.88000000000E+00 0.  1.
        -11    1    4    4    0    0 -0.47427817882E-01  0.49773172381E-01 -0.29381935150E-01  0.74768481542E-01  0.51100000000E-03 0. -1.
         11    1    4    4    0    0 -0.44458059642E-01  0.23351132515E-01 -0.23438159923E-01  0.55420239249E-01  0.51100000000E-03 0.  1.
</event>
<event>
 8    1  0.1079508E+005  0.1043930E+01  0.7957747E-01            NaN
         13   -1    0    0    0    0  0.00000000000E+00  0.00000000000E+00  0.74505805969E-08  0.10566000000E+00  0.10566000000E+00 0. -1.
     999900   -1    0    0    0    0 -0.00000000000E+00 -0.00000000000E+00 -0.74505805969E-08  0.93827000000E+00  0.93827000000E+00 0. -1.
     999902    2    1    2    0    0 -0.19644411588E-01 -0.38054254077E-02 -0.15620589177E-01  0.10185452216E+01  0.10182288453E+01 0.  0.
     999903    2    3    3    0    0  0.35472352503E-01  0.10611581111E+00  0.56890065403E-01  0.12704181107E+00  0.19603292017E-01 0.  0.
         14    1    1    2    0    0  0.19644411588E-01  0.38054254077E-02  0.15620589177E-01  0.25384778420E-01  0.00000000000E+00 0. -1.
     999901    1    3    3    0    0 -0.55116764091E-01 -0.10992123652E+00 -0.72510654580E-01  0.89150341051E+00  0.88000000000E+00 0. -1.
        -11    1    4    4    0    0  0.19857592128E-01  0.78370858506E-01  0.33413905545E-01  0.87481801724E-01  0.51100000000E-03 0.  1.
         11    1    4    4    0    0  0.15614760375E-01  0.27744952609E-01  0.23476159858E-01  0.39560009347E-01  0.51100000000E-03 0. -1.
</event>
<event>
 8    1  0.1079508E+005  0.1043930E+01  0.7957747E-01            NaN
         13   -1    0    0    0    0  0.00000000000E+00  0.00000000000E+00  0.74505805969E-08  0.10566000000E+00  0.10566000000E+00 0.  1.
     999900   -1    0    0    0    0 -0.00000000000E+00 -0.00000000000E+00 -0.74505805969E-08  0.93827000000E+00  0.93827000000E+00 0. -1.
     999902    2    1    2    0    0  0.13439985621E-01 -0.31967893497E-02  0.19010372442E-01  0.10204300652E+01  0.10201594341E+01 0.  0.
     999903    2    3    3    0    0  0.66636941800E-01  0.97328652153E-01 -0.50895139209E-01  0.13036149418E+00  0.22146228308E-01 0.  0.
         14    1    1    2    0    0 -0.13439985621E-01  0.31967893497E-02 -0.19010372442E-01  0.23499934809E-01  0.00000000000E+00 0. -1.
     999901    1    3    3    0    0 -0.53196956179E-01 -0.10052544150E+00  0.69905511651E-01  0.89006857101E+00  0.88000000000E+00 0.  1.
        -11    1    4    4    0    0  0.33525896128E-01  0.46016443933E-01 -0.36456151957E-01  0.67607772925E-01  0.51100000000E-03 0. -1.
         11    1    4    4    0    0  0.33111045672E-01  0.51312208219E-01 -0.14438987253E-01  0.62753721258E-01  0.51100000000E-03 0.  1.
</event>
<event>
 8    1  0.1079508E+005  0.1043930E+01  0.7957747E-01            NaN
         13   -1    0    0    0    0  0.00000000000E+00  0.00000000000E+00  0.74505805969E-08  0.10566000000E+00  0.10566000000E+00 0. -1.
     999900   -1    0    0    0    0 -0.00000000000E+00 -0.00000000000E+00 -0.74505805969E-08  0.93827000000E+00  0.93827000000E+00 0. -1.
     999902    2    1    2    0    0 -0.83172817043E-02 -0.15752030465E-01  0.14106654139E-01  0.10212077349E+01  0.10209549141E+01 0.  0.
     999903    2    3    3    0    0 -0.85442685367E-01  0.42586977842E-01  0.89953938931E-01  0.13266703334E+00  0.19867748774E-01 0.  0.
         14    1    1    2    0    0  0.83172817043E-02  0.15752030465E-01 -0.14106654139E-01  0.22722265066E-01  0.00000000000E+00 0.  1.
     999901    1    3    3    0    0  0.77125403662E-01 -0.58339008308E-01 -0.75847284792E-01  0.88854070159E+00  0.88000000000E+00 0. -1.
        -11    1    4    4    0    0 -0.76407046864E-01  0.43949610988E-01  0.83909405364E-01  0.12169903264E+00  0.51100000000E-03 0.  1.
         11    1    4    4    0    0 -0.90356385029E-02 -0.13626331459E-02  0.60445335667E-02  0.10968000697E-01  0.51100000000E-03 0. -1.
</event>
<event>
 8    1  0.1079508E+005  0.1043930E+01  0.7957747E-01            NaN
         13   -1    0    0    0    0  0.00000000000E+00  0.00000000000E+00  0.74505805969E-08  0.10566000000E+00  0.10566000000E+00 0.  1.
     999900   -1    0    0    0    0 -0.00000000000E+00 -0.00000000000E+00 -0.74505805969E-08  0.93827000000E+00  0.93827000000E+00 0.  1.
     999902    2    1    2    0    0  0.12876880140E-01  0.15801405955E-01  0.11216187078E-01  0.10206641167E+01  0.10203989111E+01 0.  0.
     999903    2    3    3    0    0  0.93777686120E-01  0.89838306924E-01  0.24597171362E-01  0.13375631212E+00  0.20507422768E-01 0.  0.
         14    1    1    2    0    0 -0.12876880140E-01 -0.15801405955E-01 -0.11216187078E-01  0.23265883281E-01  0.00000000000E+00 0. -1.
     999901    1    3    3    0    0 -0.80900805980E-01 -0.74036900969E-01 -0.13380984284E-01  0.88690780460E+00  0.88000000000E+00 0. -1.
        -11    1    4    4    0    0  0.39325117361E-01  0.49036702909E-01  0.55958777040E-02  0.63108145718E-01  0.51100000000E-03 0. -1.
         11    1    4    4    0    0  0.54452568760E-01  0.40801604014E-01  0.19001293658E-01  0.70648166405E-01  0.51100000000E-03 0.  1.
</event>
<event>
 8    1  0.1079508E+005  0.1043930E+01  0.7957747E-01            NaN
         13   -1    0    0    0    0  0.00000000000E+00  0.00000000000E+00  0.74505805969E-08  0.10566000000E+00  0.10566000000E+00 0. -1.
     999900   -1    0    0    0    0 -0.00000000000E+00 -0.00000000000E+00 -0.74505805969E-08  0.93827000000E+00  0.93827000000E+00 0.  1.
     999902    2    1    2    0    0  0.17788376330E-01 -0.14586122509E-01  0.24696901373E-01  0.10101791742E+01  0.10096151969E+01 0.  0.
     999903    2    3    3    0    0  0.83631474668E-01 -0.78040650992E-01  0.46818890000E-01  0.12516438726E+00  0.19736985975E-01 0.  0.
         14    1    1    2    0    0 -0.17788376330E-01  0.14586122509E-01 -0.24696901373E-01  0.33750825764E-01  0.00000000000E+00 0.  1.
     999901    1    3    3    0    0 -0.65843098338E-01  0.63454528482E-01 -0.22121988628E-01  0.88501478698E+00  0.88000000000E+00 0.  1.
        -11    1    4    4    0    0  0.52203557949E-01 -0.42016040299E-01  0.18189262016E-01  0.69438242192E-01  0.51100000000E-03 0.  1.
         11    1    4    4    0    0  0.31427916718E-01 -0.36024610693E-01  0.28629627984E-01  0.55726145070E-01  0.51100000000E-03 0. -1.
</event>
<event>
 8    1  0.1079508E+005  0.1043930E+01  0.7957747E-01            NaN
         13   -1    0    0    0    0  0.00000000000E+00  0.00000000000E+00  0.74505805969E-08  0.10566000000E+00  0.10566000000E+00 0.  1.
     999900   -1    0    0    0    0 -0.00000000000E+00 -0.00000000000E+00 -0.74505805969E-08  0.93827000000E+00  0.93827000000E+00 0. -1.
     999902    2    1    2    0    0  0.10961679787E-01  0.20893609051E-01  0.63982415786E-02  0.10194833475E+01  0.10191901967E+01 0.  0.
     999903    2    3    3    0    0  0.99916229714E-01 -0.63632173962E-01 -0.47685061495E-01  0.12932464052E+00  0.20461941084E-01 0.  0.
         14    1    1    2    0    0 -0.10961679787E-01 -0.20893609051E-01 -0.63982415786E-02  0.24446652496E-01  0.00000000000E+00 0. -1.
     999901    1    3    3    0    0 -0.88954549927E-01  0.84525783013E-01  0.54083303073E-01  0.89015870698E+00  0.88000000000E+00 0. -1.
        -11    1    4    4    0    0  0.59484106255E-01 -0.26584748032E-01 -0.29734912085E-01  0.71620764046E-01  0.51100000000E-03 0.  1.
         11    1    4    4    0    0  0.40432123459E-01 -0.37047425930E-01 -0.17950149410E-01  0.57703876475E-01  0.51100000000E-03 0. -1.
</event>
<event>
 8    1  0.1079508E+005  0.1043930E+01  0.7957747E-01            NaN
         13   -1    0    0    0    0  0.00000000000E+00  0.00000000000E+00  0.74505805969E-08  0.10566000000E+00  0.10566000000E+00 0. -1.
     999900   -1    0    0    0    0 -0.00000000000E+00 -0.00000000000E+00 -0.74505805969E-08  0.93827000000E+00  0.93827000000E+00 0.  1.
     999902    2    1    2    0    0 -0.10051475495E-01 -0.36343110210E-02  0.21207923028E-01  0.10201809711E+01  0.10199045040E+01 0.  0.
     999903    2    3    3    0    0  0.75240964132E-01  0.60014581239E-01  0.87192617029E-01  0.13131654856E+00  0.19455868466E-01 0.  0.
         14    1    1    2    0    0  0.10051475495E-01  0.36343110210E-02 -0.21207923028E-01  0.23749028935E-01  0.00000000000E+00 0.  1.
     999901    1    3    3    0    0 -0.85292439627E-01 -0.63648892260E-01 -0.65984694002E-01  0.88886442250E+00  0.88000000000E+00 0. -1.
        -11    1    4    4    0    0  0.55856648306E-01  0.34849009480E-01  0.51932324159E-01  0.83854910621E-01  0.51100000000E-03 0.  1.
         11    1    4    4    0    0  0.19384315826E-01  0.25165571759E-01  0.35260292870E-01  0.47461637944E-01  0.51100000000E-03 0. -1.
</event>
<event>
 8    1  0.1093116E+005  0.1043930E+01  0.7957747E-01            NaN
         13   -1    0    0    0    0  0.00000000000E+00  0.00000000000E+00  0.74505805969E-08  0.10566000000E+00  0.10566000000E+00 0.  1.
     999900   -1    0    0    0    0 -0.00000000000E+00 -0.00000000000E+00 -0.74505805969E-08  0.93827000000E+00  0.93827000000E+00 0.  1.
     999902    2    1    2    0    0 -0.96274313068E-03 -0.37803521652E-02 -0.24625782997E-01  0.10189971477E+01  0.10186920731E+01 0.  0.
     999903    2    3    3    0    0  0.37712949020E-01 -0.22114412180E-01  0.11719119744E+00  0.12661606156E+00  0.19660532450E-01 0.  0.
         14    1    1    2    0    0  0.96274313068E-03  0.37803521652E-02  0.24625782997E-01  0.24932852324E-01  0.00000000000E+00 0.  1.
     999901    1    3    3    0    0 -0.38675692150E-01  0.18334060015E-01 -0.14181698044E+00  0.89238108612E+00  0.88000000000E+00 0.  1.
        -11    1    4    4    0    0  0.14965498141E-01 -0.18853088800E-01  0.47874061856E-01  0.53587237394E-01  0.51100000000E-03 0.  1.
         11    1    4    4    0    0  0.22747450878E-01 -0.32613233806E-02  0.69317135588E-01  0.73028824164E-01  0.51100000000E-03 0. -1.
</event>
<event>
 8    1  0.1079508E+005  0.1043930E+01  0.7957747E-01            NaN
         13   -1    0    0    0    0  0.00000000000E+00  0.00000000000E+00  0.74505805969E-08  0.10566000000E+00  0.10566000000E+00 0.  1.
     999900   -1    0    0    0    0 -0.00000000000E+00 -0.00000000000E+00 -0.74505805969E-08  0.93827000000E+00  0.93827000000E+00 0. -1.
     999902    2    1    2    0    0 -0.57946099983E-02 -0.15248757783E-01  0.17008769974E-01  0.10203630661E+01  0.10200908715E+01 0.  0.
     999903    2    3    3    0    0 -0.11016612376E+00  0.66569242550E-01  0.33916850162E-02  0.13032204282E+00  0.20107024591E-01 0.  0.
         14    1    1    2    0    0  0.57946099983E-02  0.15248757783E-01 -0.17008769974E-01  0.23566933933E-01  0.00000000000E+00 0. -1.
     999901    1    3    3    0    0  0.10437151377E+00 -0.81818000333E-01  0.13617084958E-01  0.89004102325E+00  0.88000000000E+00 0. -1.
        -11    1    4    4    0    0 -0.92810819288E-01  0.61484801035E-01 -0.23049899608E-02  0.11135440285E+00  0.51100000000E-03 0.  1.
         11    1    4    4    0    0 -0.17355304477E-01  0.50844415147E-02  0.56966749769E-02  0.18967639964E-01  0.51100000000E-03 0. -1.
</event>
<event>
 8    1  0.1079508E+005  0.1043930E+01  0.7957747E-01            NaN
         13   -1    0    0    0    0  0.00000000000E+00  0.00000000000E+00  0.74505805969E-08  0.10566000000E+00  0.10566000000E+00 0. -1.
     999900   -1    0    0    0    0 -0.00000000000E+00 -0.00000000000E+00 -0.74505805969E-08  0.93827000000E+00  0.93827000000E+00 0. -1.
     999902    2    1    2    0    0 -0.24779053887E-01  0.18069851805E-02  0.41051532438E-02  0.10187482806E+01  0.10184370085E+01 0.  0.
     999903    2    3    3    0    0 -0.75644527335E-01 -0.24284014653E-01 -0.10164536156E+00  0.13057531998E+00  0.20157548908E-01 0.  0.
         14    1    1    2    0    0  0.24779053887E-01 -0.18069851805E-02 -0.41051532438E-02  0.25181719365E-01  0.00000000000E+00 0. -1.
     999901    1    3    3    0    0  0.50865473448E-01  0.26090999833E-01  0.10575051480E+00  0.88817296066E+00  0.88000000000E+00 0.  1.
        -11    1    4    4    0    0 -0.44883548851E-01 -0.24254910859E-01 -0.59182449648E-01  0.78138704402E-01  0.51100000000E-03 0.  1.
         11    1    4    4    0    0 -0.30760978484E-01 -0.29103793751E-04 -0.42462911909E-01  0.52436615577E-01  0.51100000000E-03 0. -1.
</event>
<event>
 8    1  0.1079508E+005  0.1043930E+01  0.7957747E-01            NaN
         13   -1    0    0    0    0  0.00000000000E+00  0.00000000000E+00  0.74505805969E-08  0.10566000000E+00  0.10566000000E+00 0.  1.
     999900   -1    0    0    0    0 -0.00000000000E+00 -0.00000000000E+00 -0.74505805969E-08  0.93827000000E+00  0.93827000000E+00 0.  1.
     999902    2    1    2    0    0  0.12605465559E-01 -0.19136090101E-02 -0.17890679060E-01  0.10219610205E+01  0.10217248609E+01 0.  0.
     999903    2    3    3    0    0  0.72225876218E-01 -0.65700769386E-01  0.85832082574E-01  0.13157806558E+00  0.20309422686E-01 0.  0.
         14    1    1    2    0    0 -0.12605465559E-01  0.19136090101E-02  0.17890679060E-01  0.21968979462E-01  0.00000000000E+00 0.  1.
     999901    1    3    3    0    0 -0.59620410659E-01  0.63787160375E-01 -0.10372276163E+00  0.89038295496E+00  0.88000000000E+00 0. -1.
        -11    1    4    4    0    0  0.48130876927E-01 -0.55717965777E-01  0.64269790341E-01  0.97734027317E-01  0.51100000000E-03 0. -1.
         11    1    4    4    0    0  0.24094999291E-01 -0.99828036086E-02  0.21562292233E-01  0.33844038264E-01  0.51100000000E-03 0.  1.
</event>
<event>
 8    1  0.1079508E+005  0.1043930E+01  0.7957747E-01            NaN
         13   -1    0    0    0    0  0.00000000000E+00  0.00000000000E+00  0.74505805969E-08  0.10566000000E+00  0.10566000000E+00 0. -1.
     999900   -1    0    0    0    0 -0.00000000000E+00 -0.00000000000E+00 -0.74505805969E-08  0.93827000000E+00  0.93827000000E+00 0.  1.
     999902    2    1    2    0    0  0.14211700794E-01 -0.86047908554E-02 -0.16918304922E-01  0.10202183171E+01  0.10199427291E+01 0.  0.
     999903    2    3    3    0    0  0.99917292821E-01  0.31304049858E-01 -0.79446771911E-01  0.13294836197E+00  0.20001710952E-01 0.  0.
         14    1    1    2    0    0 -0.14211700794E-01  0.86047908554E-02  0.16918304922E-01  0.23711682912E-01  0.00000000000E+00 0. -1.
     999901    1    3    3    0    0 -0.85705592028E-01 -0.39908840714E-01  0.62528466989E-01  0.88726995512E+00  0.88000000000E+00 0. -1.
        -11    1    4    4    0    0  0.68940153150E-01  0.31063966633E-01 -0.56401099438E-01  0.94334828553E-01  0.51100000000E-03 0.  1.
         11    1    4    4    0    0  0.30977139671E-01  0.24008322541E-03 -0.23045672473E-01  0.38613533416E-01  0.51100000000E-03 0. -1.
</event>
<event>
 8    1  0.1251833E+005  0.1043930E+01  0.7957747E-01            NaN
         13   -1    0    0    0    0  0.00000000000E+00  0.00000000000E+00  0.74505805969E-08  0.10566000000E+00  0.10566000000E+00 0.  1.
     999900   -1    0    0    0    0 -0.00000000000E+00 -0.00000000000E+00 -0.74505805969E-08  0.93827000000E+00  0.93827000000E+00 0. -1.
     999902    2    1    2    0    0 -0.74703533312E-02 -0.50421401894E-02  0.22047157781E-01  0.10201118027E+01  0.10198337038E+01 0.  0.
     999903    2    3    3    0    0  0.70467543932E-01 -0.10280811846E+00 -0.29978763329E-01  0.12975277466E+00  0.20046753188E-01 0.  0.
         14    1    1    2    0    0  0.74703533312E-02  0.50421401894E-02 -0.22047157781E-01  0.23818197304E-01  0.00000000000E+00 0. -1.
     999901    1    3    3    0    0 -0.77937897263E-01  0.97765978266E-01  0.52025921110E-01  0.89035902803E+00  0.88000000000E+00 0.  1.
        -11    1    4    4    0    0  0.15543306990E-01 -0.38230019343E-01 -0.64724228586E-02  0.41776574175E-01  0.51100000000E-03 0.  1.
         11    1    4    4    0    0  0.54924236942E-01 -0.64578099113E-01 -0.23506340470E-01  0.87976200486E-01  0.51100000000E-03 0. -1.
</event>
<event>
 8    1  0.1079508E+005  0.1043930E+01  0.7957747E-01            NaN
         13   -1    0    0    0    0  0.00000000000E+00  0.00000000000E+00  0.74505805969E-08  0.10566000000E+00  0.10566000000E+00 0. -1.
     999900   -1    0    0    0    0 -0.00000000000E+00 -0.00000000000E+00 -0.74505805969E-08  0.93827000000E+00  0.93827000000E+00 0.  1.
     999902    2    1    2    0    0 -0.23836209808E-01 -0.68049980061E-03 -0.29226937248E-02  0.10199056349E+01  0.10196226430E+01 0.  0.
     999903    2    3    3    0    0  0.11233672543E+00  0.36024135816E-01  0.43251843309E-01  0.12748063168E+00  0.21524666399E-01 0.  0.
         14    1    1    2    0    0  0.23836209808E-01  0.68049980061E-03  0.29226937248E-02  0.24024365062E-01  0.00000000000E+00 0. -1.
     999901    1    3    3    0    0 -0.13617293524E+00 -0.36704635616E-01 -0.46174537033E-01  0.89242500326E+00  0.88000000000E+00 0.  1.
        -11    1    4    4    0    0  0.11189734510E+00  0.34906568681E-01  0.39798293561E-01  0.12378872997E+00  0.51100000000E-03 0. -1.
         11    1    4    4    0    0  0.43938032981E-03  0.11175671347E-02  0.34535497475E-02  0.36919017096E-02  0.51100000000E-03 0.  1.
</event>
<event>
 8    1  0.1079508E+005  0.1043930E+01  0.7957747E-01            NaN
         13   -1    0    0    0    0  0.00000000000E+00  0.00000000000E+00  0.74505805969E-08  0.10566000000E+00  0.10566000000E+00 0. -1.
     999900   -1    0    0    0    0 -0.00000000000E+00 -0.00000000000E+00 -0.74505805969E-08  0.93827000000E+00  0.93827000000E+00 0. -1.
     999902    2    1    2    0    0 -0.65773000374E-02 -0.23203272064E-01 -0.52559790407E-03  0.10198067962E+01  0.10195214429E+01 0.  0.
     999903    2    3    3    0    0  0.72099394358E-02 -0.31764657949E-01  0.12505131413E+00  0.13074383656E+00  0.19878201953E-01 0.  0.
         14    1    1    2    0    0  0.65773000374E-02  0.23203272064E-01  0.52559790407E-03  0.24123203838E-01  0.00000000000E+00 0. -1.
     999901    1    3    3    0    0 -0.13787239473E-01  0.85613858852E-02 -0.12557691203E+00  0.88906295960E+00  0.88000000000E+00 0. -1.
        -11    1    4    4    0    0  0.96166631710E-02 -0.28951738492E-01  0.81360255261E-01  0.86893242714E-01  0.51100000000E-03 0.  1.
         11    1    4    4    0    0 -0.24067237351E-02 -0.28129194566E-02  0.43691058864E-01  0.43850593846E-01  0.51100000000E-03 0. -1.
</event>
<event>
 8    1  0.1079508E+005  0.1043930E+01  0.7957747E-01            NaN
         13   -1    0    0    0    0  0.00000000000E+00  0.00000000000E+00  0.74505805969E-08  0.10566000000E+00  0.10566000000E+00 0.  1.
     999900   -1    0    0    0    0 -0.00000000000E+00 -0.00000000000E+00 -0.74505805969E-08  0.93827000000E+00  0.93827000000E+00 0. -1.
     999902    2    1    2    0    0  0.18573184869E-01  0.13900072781E-01 -0.53211621681E-02  0.10201289499E+01  0.10198512560E+01 0.  0.
     999903    2    3    3    0    0 -0.89117637427E-01  0.20918704084E-01  0.87798549218E-01  0.12865945796E+00  0.21566766032E-01 0.  0.
         14    1    1    2    0    0 -0.18573184869E-01 -0.13900072781E-01  0.53211621681E-02  0.23801050109E-01  0.00000000000E+00 0.  1.
     999901    1    3    3    0    0  0.10769082230E+00 -0.70186313029E-02 -0.93119711386E-01  0.89146949193E+00  0.88000000000E+00 0. -1.
        -11    1    4    4    0    0 -0.91695903821E-02 -0.26996585168E-02  0.15964622690E-01  0.18614506239E-01  0.51100000000E-03 0.  1.
         11    1    4    4    0    0 -0.79948047045E-01  0.23618362600E-01  0.71833926528E-01  0.11004495172E+00  0.51100000000E-03 0. -1.
</event>
<event>
 8    1  0.1079508E+005  0.1043930E+01  0.7957747E-01            NaN
         13   -1    0    0    0    0  0.00000000000E+00  0.00000000000E+00  0.74505805969E-08  0.10566000000E+00  0.10566000000E+00 0.  1.
     999900   -1    0    0    0    0 -0.00000000000E+00 -0.00000000000E+00 -0.74505805969E-08  0.93827000000E+00  0.93827000000E+00 0.  1.
     999902    2    1    2    0    0  0.50480731008E-02 -0.30032940639E-02 -0.22792977367E-01  0.10203923146E+01  0.10201208032E+01 0.  0.
     999903    2    3    3    0    0  0.97973592570E-01  0.81273152747E-01  0.20215214401E-01  0.13045558863E+00  0.20145855961E-01 0.  0.
         14    1    1    2    0    0 -0.50480731008E-02  0.30032940639E-02  0.22792977367E-01  0.23537685411E-01  0.00000000000E+00 0.  1.
     999901    1    3    3    0    0 -0.92925519470E-01 -0.84276446811E-01 -0.43008191767E-01  0.88993672596E+00  0.88000000000E+00 0.  1.
        -11    1    4    4    0    0  0.73261934781E-01  0.57795305466E-01  0.23435261707E-01  0.96213725809E-01  0.51100000000E-03 0.  1.
         11    1    4    4    0    0  0.24711657789E-01  0.23477847281E-01 -0.32200473065E-02  0.34241862819E-01  0.51100000000E-03 0. -1.
</event>
<event>
 8    1  0.1079508E+005  0.1043930E+01  0.7957747E-01            NaN
         13   -1    0    0    0    0  0.00000000000E+00  0.00000000000E+00  0.74505805969E-08  0.10566000000E+00  0.10566000000E+00 0. -1.
     999900   -1    0    0    0    0 -0.00000000000E+00 -0.00000000000E+00 -0.74505805969E-08  0.93827000000E+00  0.93827000000E+00 0. -1.
     999902    2    1    2    0    0  0.11412089609E-01 -0.66386267835E-02 -0.19591448559E-01  0.10203051823E+01  0.10200316333E+01 0.  0.
     999903    2    3    3    0    0 -0.14820780478E-02  0.12464896999E+00 -0.32536061273E-01  0.13037807538E+00  0.20007123308E-01 0.  0.
         14    1    1    2    0    0 -0.11412089609E-01  0.66386267835E-02  0.19591448559E-01  0.23624817701E-01  0.00000000000E+00 0. -1.
     999901    1    3    3    0    0  0.12894167656E-01 -0.13128759677E+00  0.12944612714E-01  0.88992710692E+00  0.88000000000E+00 0.  1.
        -11    1    4    4    0    0  0.25358371777E-02  0.11940124073E+00 -0.29153972736E-01  0.12293617045E+00  0.51100000000E-03 0. -1.
         11    1    4    4    0    0 -0.40179152255E-02  0.52477292550E-02 -0.33820885372E-02  0.74419049286E-02  0.51100000000E-03 0.  1.
</event>
<event>
 8    1  0.1079508E+005  0.1043930E+01  0.7957747E-01            NaN
         13   -1    0    0    0    0  0.00000000000E+00  0.00000000000E+00  0.74505805969E-08  0.10566000000E+00  0.10566000000E+00 0.  1.
     999900   -1    0    0    0    0 -0.00000000000E+00 -0.00000000000E+00 -0.74505805969E-08  0.93827000000E+00  0.93827000000E+00 0.  1.
     999902    2    1    2    0    0 -0.42758446258E-02  0.14927627997E-01 -0.17225934385E-01  0.10207384123E+01  0.10204749172E+01 0.  0.
     999903    2    3    3    0    0 -0.58060279715E-01  0.11526788268E+00  0.22580498323E-01  0.13251238011E+00  0.19798260480E-01 0.  0.
         14    1    1    2    0    0  0.42758446258E-02 -0.14927627997E-01  0.17225934385E-01  0.23191587706E-01  0.00000000000E+00 0.  1.
     999901    1    3    3    0    0  0.53784435089E-01 -0.10034025469E+00 -0.39806432708E-01  0.88822603219E+00  0.88000000000E+00 0.  1.
        -11    1    4    4    0    0 -0.91459082658E-02  0.21039997044E-01 -0.34339909713E-02  0.23203071534E-01  0.51100000000E-03 0. -1.
         11    1    4    4    0    0 -0.48914371449E-01  0.94227885640E-01  0.26014489295E-01  0.10930930857E+00  0.51100000000E-03 0.  1.
</event>
<event>
 8    1  0.1079508E+005  0.1043930E+01  0.7957747E-01            NaN
         13   -1    0    0    0    0  0.00000000000E+00  0.00000000000E+00  0.74505805969E-08  0.10566000000E+00  0.10566000000E+00 0. -1.
     999900   -1    0    0    0    0 -0.00000000000E+00 -0.00000000000E+00 -0.74505805969E-08  0.93827000000E+00  0.93827000000E+00 0.  1.
     999902    2    1    2    0    0  0.60281088324E-02  0.96502670363E-02  0.20545527870E-01  0.10204441646E+01  0.10201738619E+01 0.  0.
     999903    2    3    3    0    0  0.59733969693E-02 -0.10094449717E+00 -0.76371251950E-01  0.12824235609E+00  0.19699258633E-01 0.  0.
         14    1    1    2    0    0 -0.60281088324E-02 -0.96502670363E-02 -0.20545527870E-01  0.23485835421E-01  0.00000000000E+00 0.  1.
     999901    1    3    3    0    0  0.54711863055E-04  0.11059476421E+00  0.96916779820E-01  0.89220180849E+00  0.88000000000E+00 0. -1.
        -11    1    4    4    0    0  0.70943986757E-02 -0.25780220282E-01 -0.12163096573E-01  0.29379453528E-01  0.51100000000E-03 0.  1.
         11    1    4    4    0    0 -0.11210017063E-02 -0.75164276886E-01 -0.64208155377E-01  0.98862902560E-01  0.51100000000E-03 0. -1.
</event>
<event>
 8    1  0.1079508E+005  0.1043930E+01  0.7957747E-01            NaN
         13   -1    0    0    0    0  0.00000000000E+00  0.00000000000E+00  0.74505805969E-08  0.10566000000E+00  0.10566000000E+00 0.  1.
     999900   -1    0    0    0    0 -0.00000000000E+00 -0.00000000000E+00 -0.74505805969E-08  0.93827000000E+00  0.93827000000E+00 0.  1.
     999902    2    1    2    0    0 -0.10869332024E-01 -0.20623580812E-02  0.21077075913E-01  0.10201258233E+01  0.10198480556E+01 0.  0.
     999903    2    3    3    0    0  0.51119664894E-01  0.43110558374E-01  0.11168148728E+00  0.13215488488E+00  0.22812685382E-01 0.  0.
         14    1    1    2    0    0  0.10869332024E-01  0.20623580812E-02 -0.21077075913E-01  0.23804176704E-01  0.00000000000E+00 0. -1.
     999901    1    3    3    0    0 -0.61988996918E-01 -0.45172916455E-01 -0.90604411362E-01  0.88797093842E+00  0.88000000000E+00 0.  1.
        -11    1    4    4    0    0  0.17471990668E-01  0.19861718148E-01  0.64482606568E-01  0.69699540720E-01  0.51100000000E-03 0.  1.
         11    1    4    4    0    0  0.33647674226E-01  0.23248840226E-01  0.47198880707E-01  0.62455344156E-01  0.51100000000E-03 0. -1.
</event>
<event>
 8    1  0.1079508E+005  0.1043930E+01  0.7957747E-01            NaN
         13   -1    0    0    0    0  0.00000000000E+00  0.00000000000E+00  0.74505805969E-08  0.10566000000E+00  0.10566000000E+00 0. -1.
     999900   -1    0    0    0    0 -0.00000000000E+00 -0.00000000000E+00 -0.74505805969E-08  0.93827000000E+00  0.93827000000E+00 0. -1.
     999902    2    1    2    0    0 -0.11325534509E-01 -0.12674680125E-01 -0.15148344830E-01  0.10211618732E+01  0.10209080192E+01 0.  0.
     999903    2    3    3    0    0 -0.12157031141E+00  0.17998805545E-01  0.43225816376E-01  0.13183498375E+00  0.20216184641E-01 0.  0.
         14    1    1    2    0    0  0.11325534509E-01  0.12674680125E-01  0.15148344830E-01  0.22768126828E-01  0.00000000000E+00 0. -1.
     999901    1    3    3    0    0  0.11024477690E+00 -0.30673485670E-01 -0.58374161206E-01  0.88932688942E+00  0.88000000000E+00 0. -1.
        -11    1    4    4    0    0 -0.64190118027E-01  0.18589765500E-03  0.17980203865E-01  0.66662993199E-01  0.51100000000E-03 0. -1.
         11    1    4    4    0    0 -0.57380193380E-01  0.17812907890E-01  0.25245612512E-01  0.65171990548E-01  0.51100000000E-03 0.  1.
</event>
<event>
 8    1  0.1079508E+005  0.1043930E+01  0.7957747E-01            NaN
         13   -1    0    0    0    0  0.00000000000E+00  0.00000000000E+00  0.74505805969E-08  0.10566000000E+00  0.10566000000E+00 0.  1.
     999900   -1    0    0    0    0 -0.00000000000E+00 -0.00000000000E+00 -0.74505805969E-08  0.93827000000E+00  0.93827000000E+00 0. -1.
     999902    2    1    2    0    0 -0.22296052460E-01  0.14788240047E-02 -0.64131449201E-02  0.10206828646E+01  0.10204180912E+01 0.  0.
     999903    2    3    3    0    0 -0.38863563025E-01 -0.12449394413E+00  0.87787016155E-02  0.13142788829E+00  0.13678653547E-01 0.  0.
         14    1    1    2    0    0  0.22296052460E-01 -0.14788240047E-02  0.64131449201E-02  0.23247135382E-01  0.00000000000E+00 0.  1.
     999901    1    3    3    0    0  0.16567510566E-01  0.12597276813E+00 -0.15191846536E-01  0.88925497633E+00  0.88000000000E+00 0. -1.
        -11    1    4    4    0    0 -0.35823778981E-01 -0.11759111639E+00  0.51332702965E-02  0.12303505752E+00  0.51100000000E-03 0. -1.
         11    1    4    4    0    0 -0.30397840444E-02 -0.69028277372E-02  0.36454313190E-02  0.83928307684E-02  0.51100000000E-03 0.  1.
</event>
<event>
 8    1  0.1079508E+005  0.1043930E+01  0.7957747E-01            NaN
         13   -1    0    0    0    0  0.00000000000E+00  0.00000000000E+00  0.74505805969E-08  0.10566000000E+00  0.10566000000E+00 0.  1.
     999900   -1    0    0    0    0 -0.00000000000E+00 -0.00000000000E+00 -0.74505805969E-08  0.93827000000E+00  0.93827000000E+00 0. -1.
     999902    2    1    2    0    0 -0.13970166220E-02 -0.14012264463E-01 -0.18587244507E-01  0.10206108905E+01  0.10203444560E+01 0.  0.
     999903    2    3    3    0    0  0.72696050045E-01 -0.59428780862E-01  0.87559372752E-01  0.12998215365E+00  0.20303222037E-01 0.  0.
         14    1    1    2    0    0  0.13970166220E-02  0.14012264463E-01  0.18587244507E-01  0.23319109528E-01  0.00000000000E+00 0.  1.
     999901    1    3    3    0    0 -0.74093066667E-01  0.45416516400E-01 -0.10614661726E+00  0.89062873682E+00  0.88000000000E+00 0. -1.
        -11    1    4    4    0    0  0.42196349223E-01 -0.44139529205E-01  0.64365300116E-01  0.88724195720E-01  0.51100000000E-03 0. -1.
         11    1    4    4    0    0  0.30499700822E-01 -0.15289251657E-01  0.23194072636E-01  0.41257957934E-01  0.51100000000E-03 0.  1.
</event>
<event>
 8    1  0.1079508E+005  0.1043930E+01  0.7957747E-01            NaN
         13   -1    0    0    0    0  0.00000000000E+00  0.00000000000E+00  0.74505805969E-08  0.10566000000E+00  0.10566000000E+00 0.  1.
     999900   -1    0    0    0    0 -0.00000000000E+00 -0.00000000000E+00 -0.74505805969E-08  0.93827000000E+00  0.93827000000E+00 0.  1.
     999902    2    1    2    0    0 -0.21207204415E-02  0.18806009606E-01  0.14900812388E-01  0.10198427075E+01  0.10195582133E+01 0.  0.
     999903    2    3    3    0    0  0.25821817024E-01  0.57561551107E-01  0.11506879908E+00  0.13287235679E+00  0.20835937163E-01 0.  0.
         14    1    1    2    0    0  0.21207204415E-02 -0.18806009606E-01 -0.14900812388E-01  0.24087292549E-01  0.00000000000E+00 0. -1.
     999901    1    3    3    0    0 -0.27942537466E-01 -0.38755541501E-01 -0.10016798669E+00  0.88697035066E+00  0.88000000000E+00 0.  1.
        -11    1    4    4    0    0  0.53797330432E-02  0.37037964168E-01  0.62628754665E-01  0.72961457970E-01  0.51100000000E-03 0. -1.
         11    1    4    4    0    0  0.20442083981E-01  0.20523586939E-01  0.52440044412E-01  0.59910898819E-01  0.51100000000E-03 0.  1.
</event>
<event>
 8    1  0.1079508E+005  0.1043930E+01  0.7957747E-01            NaN
         13   -1    0    0    0    0  0.00000000000E+00  0.00000000000E+00  0.74505805969E-08  0.10566000000E+00  0.10566000000E+00 0.  1.
     999900   -1    0    0    0    0 -0.00000000000E+00 -0.00000000000E+00 -0.74505805969E-08  0.93827000000E+00  0.93827000000E+00 0. -1.
     999902    2    1    2    0    0 -0.15268792059E-01  0.16832377563E-01 -0.75622746959E-02  0.10199789469E+01  0.10196976999E+01 0.  0.
     999903    2    3    3    0    0 -0.24844884562E-01  0.35704327266E-01  0.12132612557E+00  0.13033852980E+00  0.19391656188E-01 0.  0.
         14    1    1    2    0    0  0.15268792059E-01 -0.16832377563E-01  0.75622746959E-02  0.23951053086E-01  0.00000000000E+00 0. -1.
     999901    1    3    3    0    0  0.95760925031E-02 -0.18871949703E-01 -0.12888840027E+00  0.88964041711E+00  0.88000000000E+00 0. -1.
        -11    1    4    4    0    0 -0.25211262290E-02  0.20342222329E-01  0.50546813256E-01  0.54547259675E-01  0.51100000000E-03 0. -1.
         11    1    4    4    0    0 -0.22323758333E-01  0.15362104937E-01  0.70779312319E-01  0.75791270128E-01  0.51100000000E-03 0.  1.
</event>
<event>
 8    1  0.1079508E+005  0.1043930E+01  0.7957747E-01            NaN
         13   -1    0    0    0    0  0.00000000000E+00  0.00000000000E+00  0.74505805969E-08  0.10566000000E+00  0.10566000000E+00 0. -1.
     999900   -1    0    0    0    0 -0.00000000000E+00 -0.00000000000E+00 -0.74505805969E-08  0.93827000000E+00  0.93827000000E+00 0.  1.
     999902    2    1    2    0    0  0.89861930273E-02  0.27636702424E-02  0.21901171111E-01  0.10200961830E+01  0.10198177149E+01 0.  0.
     999903    2    3    3    0    0  0.41020681070E-01  0.10849524074E+00 -0.54739471878E-01  0.12988319633E+00  0.20477337934E-01 0.  0.
         14    1    1    2    0    0 -0.89861930273E-02 -0.27636702424E-02 -0.21901171111E-01  0.23833817033E-01  0.00000000000E+00 0.  1.
     999901    1    3    3    0    0 -0.32034488043E-01 -0.10573157049E+00  0.76640642989E-01  0.89021298664E+00  0.88000000000E+00 0. -1.
        -11    1    4    4    0    0  0.11139652470E-01  0.28148164261E-01 -0.47485762085E-02  0.30646714431E-01  0.51100000000E-03 0.  1.
         11    1    4    4    0    0  0.29881028600E-01  0.80347076477E-01 -0.49990895669E-01  0.99236481897E-01  0.51100000000E-03 0. -1.
</event>
<event>
 8    1  0.1079508E+005  0.1043930E+01  0.7957747E-01            NaN
         13   -1    0    0    0    0  0.00000000000E+00  0.00000000000E+00  0.74505805969E-08  0.10566000000E+00  0.10566000000E+00 0.  1.
     999900   -1    0    0    0    0 -0.00000000000E+00 -0.00000000000E+00 -0.74505805969E-08  0.93827000000E+00  0.93827000000E+00 0.  1.
     999902    2    1    2    0    0  0.10982655977E-01  0.86675908660E-02  0.20361683049E-01  0.10192248588E+01  0.10189253991E+01 0.  0.
     999903    2    3    3    0    0  0.94956294545E-01  0.15707066715E-01 -0.83603053559E-01  0.12910700559E+00  0.20389666736E-01 0.  0.
         14    1    1    2    0    0 -0.10982655977E-01 -0.86675908660E-02 -0.20361683049E-01  0.24705141172E-01  0.00000000000E+00 0. -1.
     999901    1    3    3    0    0 -0.83973638568E-01 -0.70394758494E-02  0.10396473661E+00  0.89011785324E+00  0.88000000000E+00 0. -1.
        -11    1    4    4    0    0  0.33379237323E-01  0.15420792073E-01 -0.32808775800E-01  0.49281347414E-01  0.51100000000E-03 0.  1.
         11    1    4    4    0    0  0.61577057222E-01  0.28627464286E-03 -0.50794277759E-01  0.79825658177E-01  0.51100000000E-03 0. -1.
</event>
<event>
 8    1  0.1079508E+005  0.1043930E+01  0.7957747E-01            NaN
         13   -1    0    0    0    0  0.00000000000E+00  0.00000000000E+00  0.74505805969E-08  0.10566000000E+00  0.10566000000E+00 0.  1.
     999900   -1    0    0    0    0 -0.00000000000E+00 -0.00000000000E+00 -0.74505805969E-08  0.93827000000E+00  0.93827000000E+00 0. -1.
     999902    2    1    2    0    0 -0.19215478492E-01  0.41517091180E-02 -0.13697534623E-01  0.10199697463E+01  0.10196882806E+01 0.  0.
     999903    2    3    3    0    0  0.99189071091E-02  0.10864032615E+00 -0.70648635633E-01  0.13148220480E+00  0.19880525099E-01 0.  0.
         14    1    1    2    0    0  0.19215478492E-01 -0.41517091180E-02  0.13697534623E-01  0.23960253693E-01  0.00000000000E+00 0.  1.
     999901    1    3    3    0    0 -0.29134385601E-01 -0.10448861703E+00  0.56951101010E-01  0.88848754151E+00  0.88000000000E+00 0.  1.
        -11    1    4    4    0    0  0.11102215366E-01  0.26615080297E-01 -0.17564378099E-01  0.33769663668E-01  0.51100000000E-03 0.  1.
         11    1    4    4    0    0 -0.11833082565E-02  0.82025245849E-01 -0.53084257534E-01  0.97712541129E-01  0.51100000000E-03 0. -1.
</event>
<event>
 8    1  0.1079508E+005  0.1043930E+01  0.7957747E-01            NaN
         13   -1    0    0    0    0  0.00000000000E+00  0.00000000000E+00  0.74505805969E-08  0.10566000000E+00  0.10566000000E+00 0. -1.
     999900   -1    0    0    0    0 -0.00000000000E+00 -0.00000000000E+00 -0.74505805969E-08  0.93827000000E+00  0.93827000000E+00 0. -1.
     999902    2    1    2    0    0  0.89101668781E-03  0.14255797702E-01 -0.19751325209E-01  0.10195550841E+01  0.10192636719E+01 0.  0.
     999903    2    3    3    0    0 -0.10497911201E+00  0.12250773798E-01 -0.75889291453E-01  0.13143123262E+00  0.18555024502E-01 0.  0.
         14    1    1    2    0    0 -0.89101668781E-03 -0.14255797702E-01  0.19751325209E-01  0.24374915925E-01  0.00000000000E+00 0. -1.
     999901    1    3    3    0    0  0.10587012869E+00  0.20050239047E-02  0.56137966245E-01  0.88812385146E+00  0.88000000000E+00 0. -1.
        -11    1    4    4    0    0 -0.39549993572E-01  0.81333510992E-02 -0.18992197161E-01  0.44624187002E-01  0.51100000000E-03 0. -1.
         11    1    4    4    0    0 -0.65429118434E-01  0.41174226985E-02 -0.56897094292E-01  0.86807045616E-01  0.51100000000E-03 0.  1.
</event>
<event>
 8    1  0.1079508E+005  0.1043930E+01  0.7957747E-01            NaN
         13   -1    0    0    0    0  0.00000000000E+00  0.00000000000E+00  0.74505805969E-08  0.10566000000E+00  0.10566000000E+00 0. -1.
     999900   -1    0    0    0    0 -0.00000000000E+00 -0.00000000000E+00 -0.74505805969E-08  0.93827000000E+00  0.93827000000E+00 0.  1.
     999902    2    1    2    0    0 -0.34360349081E-02  0.13456466978E-01  0.20209419048E-01  0.10194085103E+01  0.10191135400E+01 0.  0.
     999903    2    3    3    0    0  0.64104740156E-02  0.58705813239E-01  0.11726548953E+00  0.13286221263E+00  0.20339759683E-01 0.  0.
         14    1    1    2    0    0  0.34360349081E-02 -0.13456466978E-01 -0.20209419048E-01  0.24521489712E-01  0.00000000000E+00 0.  1.
     999901    1    3    3    0    0 -0.98465089237E-02 -0.45249346261E-01 -0.97056070486E-01  0.88654629766E+00  0.88000000000E+00 0.  1.
        -11    1    4    4    0    0  0.11638734473E-01  0.31371580341E-01  0.76512047379E-01  0.83510422753E-01  0.51100000000E-03 0. -1.
         11    1    4    4    0    0 -0.52282604572E-02  0.27334232899E-01  0.40753442155E-01  0.49351789877E-01  0.51100000000E-03 0.  1.
</event>
<event>
 8    1  0.1079508E+005  0.1043930E+01  0.7957747E-01            NaN
         13   -1    0    0    0    0  0.00000000000E+00  0.00000000000E+00  0.74505805969E-08  0.10566000000E+00  0.10566000000E+00 0. -1.
     999900   -1    0    0    0    0 -0.00000000000E+00 -0.00000000000E+00 -0.74505805969E-08  0.93827000000E+00  0.93827000000E+00 0. -1.
     999902    2    1    2    0    0 -0.13594298524E-01  0.95365152275E-02 -0.16996822089E-01  0.10201678024E+01  0.10198910250E+01 0.  0.
     999903    2    3    3    0    0 -0.29588901485E-01  0.53000972915E-01 -0.11704629629E+00  0.13328850749E+00  0.19529068901E-01 0.  0.
         14    1    1    2    0    0  0.13594298524E-01 -0.95365152275E-02  0.16996822089E-01  0.23762197629E-01  0.00000000000E+00 0. -1.
     999901    1    3    3    0    0  0.15994602961E-01 -0.43464457688E-01  0.10004947420E+00  0.88687929488E+00  0.88000000000E+00 0.  1.
        -11    1    4    4    0    0 -0.11250229401E-01  0.24954441712E-01 -0.72833903721E-01  0.77809578298E-01  0.51100000000E-03 0. -1.
         11    1    4    4    0    0 -0.18338672084E-01  0.28046531204E-01 -0.44212392568E-01  0.55478929189E-01  0.51100000000E-03 0.  1.
</event>
<event>
 8    1  0.1079508E+005  0.1043930E+01  0.7957747E-01            NaN
         13   -1    0    0    0    0  0.00000000000E+00  0.00000000000E+00  0.74505805969E-08  0.10566000000E+00  0.10566000000E+00 0. -1.
     999900   -1    0    0    0    0 -0.00000000000E+00 -0.00000000000E+00 -0.74505805969E-08  0.93827000000E+00  0.93827000000E+00 0. -1.
     999902    2    1    2    0    0  0.17320526524E-01  0.14941043601E-01  0.93046848054E-02  0.10192356164E+01  0.10189364205E+01 0.  0.
     999903    2    3    3    0    0 -0.11643464662E-01  0.12864732363E+00  0.13774320360E-01  0.13143608465E+00  0.20000207524E-01 0.  0.
         14    1    1    2    0    0 -0.17320526524E-01 -0.14941043601E-01 -0.93046848054E-02  0.24694383619E-01  0.00000000000E+00 0.  1.
     999901    1    3    3    0    0  0.28963991186E-01 -0.11370628002E+00 -0.44696355546E-02  0.88779953173E+00  0.88000000000E+00 0.  1.
        -11    1    4    4    0    0 -0.35550724303E-02  0.46031221192E-01 -0.46458885115E-02  0.46404280680E-01  0.51100000000E-03 0.  1.
         11    1    4    4    0    0 -0.80883922317E-02  0.82616102434E-01  0.18420208872E-01  0.85031803969E-01  0.51100000000E-03 0. -1.
</event>
<event>
 8    1  0.1079508E+005  0.1043930E+01  0.7957747E-01            NaN
         13   -1    0    0    0    0  0.00000000000E+00  0.00000000000E+00  0.74505805969E-08  0.10566000000E+00  0.10566000000E+00 0. -1.
     999900   -1    0    0    0    0 -0.00000000000E+00 -0.00000000000E+00 -0.74505805969E-08  0.93827000000E+00  0.93827000000E+00 0.  1.
     999902    2    1    2    0    0 -0.22621802851E-01  0.33280361618E-02  0.75816858061E-02  0.10198405054E+01  0.10195559586E+01 0.  0.
     999903    2    3    3    0    0  0.99493304785E-01 -0.57636143901E-01  0.52817097666E-01  0.12817073851E+00  0.20426688971E-01 0.  0.
         14    1    1    2    0    0  0.22621802851E-01 -0.33280361618E-02 -0.75816858061E-02  0.24089494569E-01  0.00000000000E+00 0.  1.
     999901    1    3    3    0    0 -0.12211510764E+00  0.60964180062E-01 -0.45235411860E-01  0.89166976693E+00  0.88000000000E+00 0.  1.
        -11    1    4    4    0    0  0.36461769723E-01 -0.27801163335E-01  0.29995315528E-01  0.54793662121E-01  0.51100000000E-03 0.  1.
         11    1    4    4    0    0  0.63031535062E-01 -0.29834980566E-01  0.22821782139E-01  0.73377076384E-01  0.51100000000E-03 0. -1.
</event>
<event>
 8    1  0.1079508E+005  0.1043930E+01  0.7957747E-01            NaN
         13   -1    0    0    0    0  0.00000000000E+00  0.00000000000E+00  0.74505805969E-08  0.10566000000E+00  0.10566000000E+00 0. -1.
     999900   -1    0    0    0    0 -0.00000000000E+00 -0.00000000000E+00 -0.74505805969E-08  0.93827000000E+00  0.93827000000E+00 0. -1.
     999902    2    1    2    0    0  0.21423223942E-01  0.56602191222E-02 -0.89887157497E-02  0.10200178772E+01  0.10197375546E+01 0.  0.
     999903    2    3    3    0    0 -0.89177265695E-02 -0.12038902509E+00 -0.43278047199E-01  0.12985792335E+00  0.20421745215E-01 0.  0.
         14    1    1    2    0    0 -0.21423223942E-01 -0.56602191222E-02  0.89887157497E-02  0.23912122770E-01  0.00000000000E+00 0.  1.
     999901    1    3    3    0    0  0.30340950511E-01  0.12604924421E+00  0.34289331449E-01  0.89015995388E+00  0.88000000000E+00 0. -1.
        -11    1    4    4    0    0 -0.67341375077E-02 -0.10277492603E+00 -0.44194798812E-01  0.11207798799E+00  0.51100000000E-03 0. -1.
         11    1    4    4    0    0 -0.21835890618E-02 -0.17614099058E-01  0.91675161317E-03  0.17779935358E-01  0.51100000000E-03 0.  1.
</event>
<event>
 8    1  0.1079508E+005  0.1043930E+01  0.7957747E-01            NaN
         13   -1    0    0    0    0  0.00000000000E+00  0.00000000000E+00  0.74505805969E-08  0.10566000000E+00  0.10566000000E+00 0.  1.
     999900   -1    0    0    0    0 -0.00000000000E+00 -0.00000000000E+00 -0.74505805969E-08  0.93827000000E+00  0.93827000000E+00 0.  1.
     999902    2    1    2    0    0  0.84313835530E-02 -0.10206162038E-01 -0.20486274081E-01  0.10195385794E+01  0.10192467677E+01 0.  0.
     999903    2    3    3    0    0  0.12679106190E+00 -0.16273824952E-01 -0.18029540941E-01  0.13159045845E+00  0.25498502973E-01 0.  0.
         14    1    1    2    0    0 -0.84313835530E-02  0.10206162038E-01  0.20486274081E-01  0.24391420579E-01  0.00000000000E+00 0.  1.
     999901    1    3    3    0    0 -0.11835967834E+00  0.60676629140E-02 -0.24567331394E-02  0.88794812097E+00  0.88000000000E+00 0. -1.
        -11    1    4    4    0    0  0.92824420789E-01 -0.86303266218E-03 -0.16281932483E-01  0.94246911709E-01  0.51100000000E-03 0. -1.
         11    1    4    4    0    0  0.33966641108E-01 -0.15410792290E-01 -0.17476084577E-02  0.37343546745E-01  0.51100000000E-03 0.  1.
</event>
<event>
 8    1  0.1079508E+005  0.1043930E+01  0.7957747E-01            NaN
         13   -1    0    0    0    0  0.00000000000E+00  0.00000000000E+00  0.74505805969E-08  0.10566000000E+00  0.10566000000E+00 0.  1.
     999900   -1    0    0    0    0 -0.00000000000E+00 -0.00000000000E+00 -0.74505805969E-08  0.93827000000E+00  0.93827000000E+00 0.  1.
     999902    2    1    2    0    0 -0.71979367630E-02 -0.21896680244E-01 -0.66183979998E-04  0.10208805037E+01  0.10206202641E+01 0.  0.
     999903    2    3    3    0    0  0.12327868188E+00  0.10353108041E-01 -0.32365090354E-01  0.13009017135E+00  0.23898396533E-01 0.  0.
         14    1    1    2    0    0  0.71979367630E-02  0.21896680244E-01  0.66183979998E-04  0.23049496300E-01  0.00000000000E+00 0.  1.
     999901    1    3    3    0    0 -0.13047661864E+00 -0.32249788285E-01  0.32298906374E-01  0.89079033235E+00  0.88000000000E+00 0. -1.
        -11    1    4    4    0    0  0.11885741491E-01 -0.61306703221E-02 -0.29545521997E-02  0.13705709361E-01  0.51100000000E-03 0. -1.
         11    1    4    4    0    0  0.11139294039E+00  0.16483778363E-01 -0.29410538154E-01  0.11638446199E+00  0.51100000000E-03 0.  1.
</event>
<event>
 8    1  0.1079508E+005  0.1043930E+01  0.7957747E-01            NaN
         13   -1    0    0    0    0  0.00000000000E+00  0.00000000000E+00  0.74505805969E-08  0.10566000000E+00  0.10566000000E+00 0. -1.
     999900   -1    0    0    0    0 -0.00000000000E+00 -0.00000000000E+00 -0.74505805969E-08  0.93827000000E+00  0.93827000000E+00 0.  1.
     999902    2    1    2    0    0  0.13177287901E-01 -0.91567587721E-02  0.14068855570E-02  0.10278220369E+01  0.10276958077E+01 0.  0.
     999903    2    3    3    0    0 -0.39365805020E-01 -0.93133843687E-01 -0.90996938086E-01  0.13745616042E+00  0.19752818852E-01 0.  0.
         14    1    1    2    0    0 -0.13177287901E-01  0.91567587721E-02 -0.14068855570E-02  0.16107963081E-01  0.00000000000E+00 0.  1.
     999901    1    3    3    0    0  0.52543092921E-01  0.83977084915E-01  0.92403823643E-01  0.89036587650E+00  0.88000000000E+00 0. -1.
        -11    1    4    4    0    0 -0.35713950932E-01 -0.76374934350E-01 -0.83714681299E-01  0.11881509110E+00  0.51100000000E-03 0.  1.
         11    1    4    4    0    0 -0.36518540883E-02 -0.16758909337E-01 -0.72822567862E-02  0.18641069319E-01  0.51100000000E-03 0. -1.
</event>
<event>
 8    1  0.1079508E+005  0.1043930E+01  0.7957747E-01            NaN
         13   -1    0    0    0    0  0.00000000000E+00  0.00000000000E+00  0.74505805969E-08  0.10566000000E+00  0.10566000000E+00 0. -1.
     999900   -1    0    0    0    0 -0.00000000000E+00 -0.00000000000E+00 -0.74505805969E-08  0.93827000000E+00  0.93827000000E+00 0.  1.
     999902    2    1    2    0    0 -0.80192831966E-02  0.11205223125E-03 -0.22278055973E-01  0.10202523051E+01  0.10199775158E+01 0.  0.
     999903    2    3    3    0    0 -0.78199457500E-02 -0.70938844864E-02  0.12577984191E+00  0.12785491244E+00  0.20367504916E-01 0.  0.
         14    1    1    2    0    0  0.80192831966E-02 -0.11205223125E-03  0.22278055973E-01  0.23677694918E-01  0.00000000000E+00 0. -1.
     999901    1    3    3    0    0 -0.19933744653E-03  0.72059367177E-02 -0.14805789788E+00  0.89239739264E+00  0.88000000000E+00 0.  1.
        -11    1    4    4    0    0 -0.14150178301E-02 -0.83348617326E-02  0.18177904689E-01  0.20054165040E-01  0.51100000000E-03 0.  1.
         11    1    4    4    0    0 -0.64049279200E-02  0.12409772461E-02  0.10760193722E+00  0.10780074741E+00  0.51100000000E-03 0. -1.
</event>
<event>
 8    1  0.1079508E+005  0.1043930E+01  0.7957747E-01            NaN
         13   -1    0    0    0    0  0.00000000000E+00  0.00000000000E+00  0.74505805969E-08  0.10566000000E+00  0.10566000000E+00 0. -1.
     999900   -1    0    0    0    0 -0.00000000000E+00 -0.00000000000E+00 -0.74505805969E-08  0.93827000000E+00  0.93827000000E+00 0.  1.
     999902    2    1    2    0    0 -0.14125291989E-01 -0.16904504163E-01  0.20580924216E-01  0.10137826854E+01  0.10133343341E+01 0.  0.
     999903    2    3    3    0    0  0.41874608478E-01  0.56732943367E-01 -0.96413783888E-01  0.12123228110E+00  0.20725312021E-01 0.  0.
         14    1    1    2    0    0  0.14125291989E-01  0.16904504163E-01 -0.20580924216E-01  0.30147314579E-01  0.00000000000E+00 0.  1.
     999901    1    3    3    0    0 -0.55999900467E-01 -0.73637447530E-01  0.11699470810E+00  0.89255040432E+00  0.88000000000E+00 0. -1.
        -11    1    4    4    0    0  0.36960668690E-01  0.35384235462E-01 -0.61404579766E-01  0.79930711785E-01  0.51100000000E-03 0.  1.
         11    1    4    4    0    0  0.49139397881E-02  0.21348707905E-01 -0.35009204122E-01  0.41301569313E-01  0.51100000000E-03 0. -1.
</event>
<event>
 8    1  0.1079508E+005  0.1043930E+01  0.7957747E-01            NaN
         13   -1    0    0    0    0  0.00000000000E+00  0.00000000000E+00  0.74505805969E-08  0.10566000000E+00  0.10566000000E+00 0. -1.
     999900   -1    0    0    0    0 -0.00000000000E+00 -0.00000000000E+00 -0.74505805969E-08  0.93827000000E+00  0.93827000000E+00 0. -1.
     999902    2    1    2    0    0  0.47549652987E-02 -0.22555177182E-01  0.90694039164E-02  0.10191590533E+01  0.10188579764E+01 0.  0.
     999903    2    3    3    0    0  0.88890086042E-01 -0.40551980275E-01  0.86005385279E-01  0.13162215340E+00  0.19533419269E-01 0.  0.
         14    1    1    2    0    0 -0.47549652987E-02  0.22555177182E-01 -0.90694039164E-02  0.24770946694E-01  0.00000000000E+00 0. -1.
     999901    1    3    3    0    0 -0.84135120743E-01  0.17996803093E-01 -0.76935981363E-01  0.88753689990E+00  0.88000000000E+00 0. -1.
        -11    1    4    4    0    0  0.35675651945E-01 -0.21755349915E-01  0.25860895529E-01  0.49143610268E-01  0.51100000000E-03 0.  1.
         11    1    4    4    0    0  0.53214434097E-01 -0.18796630360E-01  0.60144489750E-01  0.82478543134E-01  0.51100000000E-03 0. -1.
</event>
<event>
 8    1  0.1079508E+005  0.1043930E+01  0.7957747E-01            NaN
         13   -1    0    0    0    0  0.00000000000E+00  0.00000000000E+00  0.74505805969E-08  0.10566000000E+00  0.10566000000E+00 0. -1.
     999900   -1    0    0    0    0 -0.00000000000E+00 -0.00000000000E+00 -0.74505805969E-08  0.93827000000E+00  0.93827000000E+00 0.  1.
     999902    2    1    2    0    0 -0.27526165696E-03  0.22852495419E-01 -0.72169115723E-02  0.10199634373E+01  0.10196818216E+01 0.  0.
     999903    2    3    3    0    0  0.12153436755E+00 -0.27758619392E-01  0.28279132788E-01  0.12942481382E+00  0.20246719129E-01 0.  0.
         14    1    1    2    0    0  0.27526165696E-03 -0.22852495419E-01  0.72169115723E-02  0.23966562717E-01  0.00000000000E+00 0.  1.
     999901    1    3    3    0    0 -0.12180962921E+00  0.50611114810E-01 -0.35496044360E-01  0.89053862346E+00  0.88000000000E+00 0.  1.
        -11    1    4    4    0    0  0.73974320708E-01 -0.13234992702E-01  0.26419008823E-01  0.79659213555E-01  0.51100000000E-03 0.  1.
         11    1    4    4    0    0  0.47560046841E-01 -0.14523626690E-01  0.18601239651E-02  0.49765600267E-01  0.51100000000E-03 0. -1.
</event>
<event>
 8    1  0.1079508E+005  0.1043930E+01  0.7957747E-01            NaN
         13   -1    0    0    0    0  0.00000000000E+00  0.00000000000E+00  0.74505805969E-08  0.10566000000E+00  0.10566000000E+00 0.  1.
     999900   -1    0    0    0    0 -0.00000000000E+00 -0.00000000000E+00 -0.74505805969E-08  0.93827000000E+00  0.93827000000E+00 0. -1.
     999902    2    1    2    0    0 -0.35477613172E-02  0.24555489569E-01  0.23878095977E-02  0.10190049060E+01  0.10187000236E+01 0.  0.
     999903    2    3    3    0    0  0.97355745825E-01  0.13159266533E-01 -0.81461564465E-01  0.12920599093E+00  0.20171615365E-01 0.  0.
         14    1    1    2    0    0  0.35477613172E-02 -0.24555489569E-01 -0.23878095977E-02  0.24925094042E-01  0.00000000000E+00 0.  1.
     999901    1    3    3    0    0 -0.10090350714E+00  0.11396223036E-01  0.83849374062E-01  0.88979891503E+00  0.88000000000E+00 0. -1.
        -11    1    4    4    0    0  0.33773854893E-01  0.13044699542E-01 -0.35850599826E-01  0.50954529625E-01  0.51100000000E-03 0. -1.
         11    1    4    4    0    0  0.63581890932E-01  0.11456699138E-03 -0.45610964639E-01  0.78251461305E-01  0.51100000000E-03 0.  1.
</event>
<event>
 8    1  0.1079508E+005  0.1043930E+01  0.7957747E-01            NaN
         13   -1    0    0    0    0  0.00000000000E+00  0.00000000000E+00  0.74505805969E-08  0.10566000000E+00  0.10566000000E+00 0. -1.
     999900   -1    0    0    0    0 -0.00000000000E+00 -0.00000000000E+00 -0.74505805969E-08  0.93827000000E+00  0.93827000000E+00 0.  1.
     999902    2    1    2    0    0 -0.19227539555E-01  0.28859983575E-02 -0.11397488318E-01  0.10213926975E+01  0.10211440214E+01 0.  0.
     999903    2    3    3    0    0 -0.10239100989E+00 -0.74471581495E-01 -0.37548820949E-01  0.13370792792E+00  0.20927510054E-01 0.  0.
         14    1    1    2    0    0  0.19227539555E-01 -0.28859983575E-02  0.11397488318E-01  0.22537302496E-01  0.00000000000E+00 0. -1.
     999901    1    3    3    0    0  0.83163470333E-01  0.77357579852E-01  0.26151332631E-01  0.88768476959E+00  0.88000000000E+00 0. -1.
        -11    1    4    4    0    0 -0.93435358290E-01 -0.63376680100E-01 -0.27344726229E-01  0.11616697006E+00  0.51100000000E-03 0. -1.
         11    1    4    4    0    0 -0.89556515973E-02 -0.11094901394E-01 -0.10204094720E-01  0.17540957857E-01  0.51100000000E-03 0.  1.
</event>
<event>
 8    1  0.1079508E+005  0.1043930E+01  0.7957747E-01            NaN
         13   -1    0    0    0    0  0.00000000000E+00  0.00000000000E+00  0.74505805969E-08  0.10566000000E+00  0.10566000000E+00 0.  1.
     999900   -1    0    0    0    0 -0.00000000000E+00 -0.00000000000E+00 -0.74505805969E-08  0.93827000000E+00  0.93827000000E+00 0. -1.
     999902    2    1    2    0    0 -0.36471070232E-02 -0.22519570030E-01 -0.84529081264E-02  0.10196013321E+01  0.10193110381E+01 0.  0.
     999903    2    3    3    0    0 -0.48212240601E-01  0.35351072686E-01 -0.11408041672E+00  0.13028011178E+00  0.19607334359E-01 0.  0.
         14    1    1    2    0    0  0.36471070232E-02  0.22519570030E-01  0.84529081264E-02  0.24328667859E-01  0.00000000000E+00 0. -1.
     999901    1    3    3    0    0  0.44565133578E-01 -0.57870642716E-01  0.10562750860E+00  0.88932122037E+00  0.88000000000E+00 0.  1.
        -11    1    4    4    0    0 -0.25731191263E-02  0.69206945261E-02 -0.26457770467E-01  0.27473472548E-01  0.51100000000E-03 0.  1.
         11    1    4    4    0    0 -0.45639121475E-01  0.28430378160E-01 -0.87622646257E-01  0.10280663923E+00  0.51100000000E-03 0. -1.
</event>
<event>
 8    1  0.1079508E+005  0.1043930E+01  0.7957747E-01            NaN
         13   -1    0    0    0    0  0.00000000000E+00  0.00000000000E+00  0.74505805969E-08  0.10566000000E+00  0.10566000000E+00 0. -1.
     999900   -1    0    0    0    0 -0.00000000000E+00 -0.00000000000E+00 -0.74505805969E-08  0.93827000000E+00  0.93827000000E+00 0. -1.
     999902    2    1    2    0    0 -0.18415769996E-01 -0.22406061678E-02 -0.14727345346E-01  0.10202433877E+01  0.10199683890E+01 0.  0.
     999903    2    3    3    0    0  0.54704916408E-01  0.24728295428E-01 -0.11482951772E+00  0.13114586700E+00  0.20231258417E-01 0.  0.
         14    1    1    2    0    0  0.18415769996E-01  0.22406061678E-02  0.14727345346E-01  0.23686612284E-01  0.00000000000E+00 0. -1.
     999901    1    3    3    0    0 -0.73120686404E-01 -0.26968901596E-01  0.10010217237E+00  0.88909752072E+00  0.88000000000E+00 0. -1.
        -11    1    4    4    0    0  0.10211828886E-01  0.82921157873E-02 -0.43785304510E-01  0.45721489974E-01  0.51100000000E-03 0.  1.
         11    1    4    4    0    0  0.44493087522E-01  0.16436179641E-01 -0.71044213208E-01  0.85424377023E-01  0.51100000000E-03 0. -1.
</event>
<event>
 8    1  0.1079508E+005  0.1043930E+01  0.7957747E-01            NaN
         13   -1    0    0    0    0  0.00000000000E+00  0.00000000000E+00  0.74505805969E-08  0.10566000000E+00  0.10566000000E+00 0.  1.
     999900   -1    0    0    0    0 -0.00000000000E+00 -0.00000000000E+00 -0.74505805969E-08  0.93827000000E+00  0.93827000000E+00 0. -1.
     999902    2    1    2    0    0 -0.13974876962E-01  0.13746628345E-03 -0.18801641326E-01  0.10205031394E+01  0.10202342082E+01 0.  0.
     999903    2    3    3    0    0 -0.13118452765E+00 -0.95240781934E-02 -0.53757748372E-03  0.13249130177E+00  0.15923809105E-01 0.  0.
         14    1    1    2    0    0  0.13974876962E-01 -0.13746628345E-03  0.18801641326E-01  0.23426860644E-01  0.00000000000E+00 0.  1.
     999901    1    3    3    0    0  0.11720965069E+00  0.96615444768E-02 -0.18264063842E-01  0.88801183758E+00  0.88000000000E+00 0. -1.
        -11    1    4    4    0    0 -0.83672029693E-01 -0.13396444246E-01  0.18411692423E-02  0.84759213638E-01  0.51100000000E-03 0. -1.
         11    1    4    4    0    0 -0.47512497956E-01  0.38723660524E-02 -0.23787467260E-02  0.47732088137E-01  0.51100000000E-03 0.  1.
</event>
<event>
 8    1  0.1079508E+005  0.1043930E+01  0.7957747E-01            NaN
         13   -1    0    0    0    0  0.00000000000E+00  0.00000000000E+00  0.74505805969E-08  0.10566000000E+00  0.10566000000E+00 0. -1.
     999900   -1    0    0    0    0 -0.00000000000E+00 -0.00000000000E+00 -0.74505805969E-08  0.93827000000E+00  0.93827000000E+00 0.  1.
     999902    2    1    2    0    0 -0.16937745226E-01  0.15202370723E-01 -0.56975665314E-02  0.10204680829E+01  0.10201983369E+01 0.  0.
     999903    2    3    3    0    0 -0.15659472620E-01  0.53149309178E-01 -0.11872533068E+00  0.13242704806E+00  0.19265273550E-01 0.  0.
         14    1    1    2    0    0  0.16937745226E-01 -0.15202370723E-01  0.56975665314E-02  0.23461917085E-01  0.00000000000E+00 0. -1.
     999901    1    3    3    0    0 -0.12782726059E-02 -0.37946938455E-01  0.11302776414E+00  0.88804103486E+00  0.88000000000E+00 0. -1.
        -11    1    4    4    0    0 -0.71666093217E-02  0.41732771535E-01 -0.71472171773E-01  0.83075369203E-01  0.51100000000E-03 0.  1.
         11    1    4    4    0    0 -0.84928632980E-02  0.11416537643E-01 -0.47253158903E-01  0.49351678858E-01  0.51100000000E-03 0. -1.
</event>
<event>
 8    1  0.1079508E+005  0.1043930E+01  0.7957747E-01            NaN
         13   -1    0    0    0    0  0.00000000000E+00  0.00000000000E+00  0.74505805969E-08  0.10566000000E+00  0.10566000000E+00 0.  1.
     999900   -1    0    0    0    0 -0.00000000000E+00 -0.00000000000E+00 -0.74505805969E-08  0.93827000000E+00  0.93827000000E+00 0.  1.
     999902    2    1    2    0    0  0.17613513225E-01  0.13230636607E-01  0.72674737741E-02  0.10207329793E+01  0.10204693593E+01 0.  0.
     999903    2    3    3    0    0  0.94297593969E-02  0.10763792227E+00  0.75388161475E-01  0.13302799595E+00  0.18391034294E-01 0.  0.
         14    1    1    2    0    0 -0.17613513225E-01 -0.13230636607E-01 -0.72674737741E-02  0.23197020675E-01  0.00000000000E+00 0. -1.
     999901    1    3    3    0    0  0.81837538278E-02 -0.94407285667E-01 -0.68120687701E-01  0.88770498337E+00  0.88000000000E+00 0.  1.
        -11    1    4    4    0    0  0.26206632261E-02  0.70513906511E-01  0.58566445398E-01  0.91702609204E-01  0.51100000000E-03 0.  1.
         11    1    4    4    0    0  0.68090961708E-02  0.37124015763E-01  0.16821716077E-01  0.41325386747E-01  0.51100000000E-03 0. -1.
</event>
<event>
 8    1  0.1079508E+005  0.1043930E+01  0.7957747E-01            NaN
         13   -1    0    0    0    0  0.00000000000E+00  0.00000000000E+00  0.74505805969E-08  0.10566000000E+00  0.10566000000E+00 0. -1.
     999900   -1    0    0    0    0 -0.00000000000E+00 -0.00000000000E+00 -0.74505805969E-08  0.93827000000E+00  0.93827000000E+00 0. -1.
     999902    2    1    2    0    0  0.18707660463E-01  0.96189021533E-02 -0.16591575506E-01  0.10171385794E+01  0.10167856753E+01 0.  0.
     999903    2    3    3    0    0 -0.85562185447E-01 -0.78097312721E-01  0.41450880442E-01  0.12476239092E+00  0.20673675675E-01 0.  0.
         14    1    1    2    0    0 -0.18707660463E-01 -0.96189021533E-02  0.16591575506E-01  0.26791420575E-01  0.00000000000E+00 0.  1.
     999901    1    3    3    0    0  0.10426984591E+00  0.87716214875E-01 -0.58042455948E-01  0.89237618850E+00  0.88000000000E+00 0.  1.
        -11    1    4    4    0    0 -0.42169862750E-01 -0.24973483758E-01  0.19362626297E-01  0.52698620793E-01  0.51100000000E-03 0.  1.
         11    1    4    4    0    0 -0.43392322697E-01 -0.53123828963E-01  0.22088254144E-01  0.72063770127E-01  0.51100000000E-03 0. -1.
</event>
<event>
 8    1  0.1079508E+005  0.1043930E+01  0.7957747E-01            NaN
         13   -1    0    0    0    0  0.00000000000E+00  0.00000000000E+00  0.74505805969E-08  0.10566000000E+00  0.10566000000E+00 0.  1.
     999900   -1    0    0    0    0 -0.00000000000E+00 -0.00000000000E+00 -0.74505805969E-08  0.93827000000E+00  0.93827000000E+00 0. -1.
     999902    2    1    2    0    0 -0.11548696227E-01 -0.20963945317E-01 -0.22006669602E-02  0.10198945611E+01  0.10196113051E+01 0.  0.
     999903    2    3    3    0    0  0.18327410744E-01  0.84027377005E-02  0.12650051402E+00  0.12954688866E+00  0.19326570517E-01 0.  0.
         14    1    1    2    0    0  0.11548696227E-01  0.20963945317E-01  0.22006669602E-02  0.24035438894E-01  0.00000000000E+00 0. -1.
     999901    1    3    3    0    0 -0.29876106970E-01 -0.29366683017E-01 -0.12870118099E+00  0.89034767244E+00  0.88000000000E+00 0. -1.
        -11    1    4    4    0    0  0.16326008377E-01 -0.25147626030E-02  0.66235294289E-01  0.68265935216E-01  0.51100000000E-03 0. -1.
         11    1    4    4    0    0  0.20014023669E-02  0.10917500304E-01  0.60265219736E-01  0.61280953445E-01  0.51100000000E-03 0.  1.
</event>
<event>
 8    1  0.1079508E+005  0.1043930E+01  0.7957747E-01            NaN
         13   -1    0    0    0    0  0.00000000000E+00  0.00000000000E+00  0.74505805969E-08  0.10566000000E+00  0.10566000000E+00 0. -1.
     999900   -1    0    0    0    0 -0.00000000000E+00 -0.00000000000E+00 -0.74505805969E-08  0.93827000000E+00  0.93827000000E+00 0.  1.
     999902    2    1    2    0    0  0.45423943068E-02 -0.18163858727E-01 -0.15887890100E-01  0.10193742642E+01  0.10190784593E+01 0.  0.
     999903    2    3    3    0    0 -0.77465099325E-01 -0.10156995580E+00  0.19718871501E-01  0.13092074963E+00  0.20835336722E-01 0.  0.
         14    1    1    2    0    0 -0.45423943068E-02  0.18163858727E-01  0.15887890100E-01  0.24555735821E-01  0.00000000000E+00 0. -1.
     999901    1    3    3    0    0  0.82007493632E-01  0.83406097071E-01 -0.35606761601E-01  0.88845351455E+00  0.88000000000E+00 0. -1.
        -11    1    4    4    0    0 -0.28772799972E-01 -0.53341445783E-01  0.49443768500E-02  0.60810293864E-01  0.51100000000E-03 0.  1.
         11    1    4    4    0    0 -0.48692299353E-01 -0.48228510016E-01  0.14774494651E-01  0.70110455767E-01  0.51100000000E-03 0. -1.
</event>
<event>
 8    1  0.1079508E+005  0.1043930E+01  0.7957747E-01            NaN
         13   -1    0    0    0    0  0.00000000000E+00  0.00000000000E+00  0.74505805969E-08  0.10566000000E+00  0.10566000000E+00 0.  1.
     999900   -1    0    0    0    0 -0.00000000000E+00 -0.00000000000E+00 -0.74505805969E-08  0.93827000000E+00  0.93827000000E+00 0.  1.
     999902    2    1    2    0    0 -0.14431251212E-01 -0.81500724605E-03 -0.14224358160E-01  0.10236505125E+01  0.10234496148E+01 0.  0.
     999903    2    3    3    0    0  0.98262995388E-01 -0.62288825760E-01  0.57504030530E-01  0.13144874982E+00  0.20893688635E-01 0.  0.
         14    1    1    2    0    0  0.14431251212E-01  0.81500724605E-03  0.14224358160E-01  0.20279487504E-01  0.00000000000E+00 0. -1.
     999901    1    3    3    0    0 -0.11269424660E+00  0.61473818514E-01 -0.71728388691E-01  0.89220176268E+00  0.88000000000E+00 0.  1.
        -11    1    4    4    0    0  0.83661628232E-01 -0.45268314314E-01  0.40920767041E-01  0.10355316806E+00  0.51100000000E-03 0.  1.
         11    1    4    4    0    0  0.14601367156E-01 -0.17020511445E-01  0.16583263489E-01  0.27895581758E-01  0.51100000000E-03 0. -1.
</event>
<event>
 8    1  0.1079508E+005  0.1043930E+01  0.7957747E-01            NaN
         13   -1    0    0    0    0  0.00000000000E+00  0.00000000000E+00  0.74505805969E-08  0.10566000000E+00  0.10566000000E+00 0.  1.
     999900   -1    0    0    0    0 -0.00000000000E+00 -0.00000000000E+00 -0.74505805969E-08  0.93827000000E+00  0.93827000000E+00 0. -1.
     999902    2    1    2    0    0  0.21831923523E-01  0.89998726782E-02  0.36565724085E-02  0.10200343704E+01  0.10197544389E+01 0.  0.
     999903    2    3    3    0    0 -0.57456526907E-01  0.77209325471E-01  0.85130968571E-01  0.13010332527E+00  0.20422071727E-01 0.  0.
         14    1    1    2    0    0 -0.21831923523E-01 -0.89998726782E-02 -0.36565724085E-02  0.23895629615E-01  0.00000000000E+00 0. -1.
     999901    1    3    3    0    0  0.79288450430E-01 -0.68209452792E-01 -0.81474396162E-01  0.88993104511E+00  0.88000000000E+00 0.  1.
        -11    1    4    4    0    0 -0.13905647460E-01  0.35275830135E-01  0.32227454162E-01  0.49765662316E-01  0.51100000000E-03 0.  1.
         11    1    4    4    0    0 -0.43550879448E-01  0.41933495335E-01  0.52903514409E-01  0.80337662958E-01  0.51100000000E-03 0. -1.
</event>
<event>
 8    1  0.1079508E+005  0.1043930E+01  0.7957747E-01            NaN
         13   -1    0    0    0    0  0.00000000000E+00  0.00000000000E+00  0.74505805969E-08  0.10566000000E+00  0.10566000000E+00 0. -1.
     999900   -1    0    0    0    0 -0.00000000000E+00 -0.00000000000E+00 -0.74505805969E-08  0.93827000000E+00  0.93827000000E+00 0.  1.
     999902    2    1    2    0    0  0.23596082067E-01 -0.56748577861E-02  0.16868204114E-03  0.10196605222E+01  0.10193716559E+01 0.  0.
     999903    2    3    3    0    0  0.48237919014E-01  0.93895854237E-01  0.74226227633E-01  0.13061267933E+00  0.20169552803E-01 0.  0.
         14    1    1    2    0    0 -0.23596082067E-01  0.56748577861E-02 -0.16868204114E-03  0.24269477815E-01  0.00000000000E+00 0.  1.
     999901    1    3    3    0    0 -0.24641836947E-01 -0.99570712023E-01 -0.74057545592E-01  0.88904784285E+00  0.88000000000E+00 0.  1.
        -11    1    4    4    0    0  0.59187453503E-02  0.23862172710E-02  0.66951199716E-02  0.92634406038E-02  0.51100000000E-03 0. -1.
         11    1    4    4    0    0  0.42319173663E-01  0.91509636966E-01  0.67531107661E-01  0.12134923873E+00  0.51100000000E-03 0.  1.
</event>
<event>
 8    1  0.1079508E+005  0.1043930E+01  0.7957747E-01            NaN
         13   -1    0    0    0    0  0.00000000000E+00  0.00000000000E+00  0.74505805969E-08  0.10566000000E+00  0.10566000000E+00 0.  1.
     999900   -1    0    0    0    0 -0.00000000000E+00 -0.00000000000E+00 -0.74505805969E-08  0.93827000000E+00  0.93827000000E+00 0. -1.
     999902    2    1    2    0    0 -0.28873090762E-01  0.16260965496E-01  0.85909464012E-02  0.10096972857E+01  0.10091168069E+01 0.  0.
     999903    2    3    3    0    0 -0.12019235711E+00 -0.22046793180E-01 -0.80438900601E-02  0.12398660462E+00  0.19383244338E-01 0.  0.
         14    1    1    2    0    0  0.28873090762E-01 -0.16260965496E-01 -0.85909464012E-02  0.34232714311E-01  0.00000000000E+00 0. -1.
     999901    1    3    3    0    0  0.91319266343E-01  0.38307758676E-01  0.16634836461E-01  0.88571068107E+00  0.88000000000E+00 0.  1.
        -11    1    4    4    0    0 -0.51572450544E-01 -0.23356452369E-03 -0.40401559215E-03  0.51577093337E-01  0.51100000000E-03 0. -1.
         11    1    4    4    0    0 -0.68619906561E-01 -0.21813228657E-01 -0.76398744679E-02  0.72409511280E-01  0.51100000000E-03 0.  1.
</event>
<event>
 8    1  0.1079508E+005  0.1043930E+01  0.7957747E-01            NaN
         13   -1    0    0    0    0  0.00000000000E+00  0.00000000000E+00  0.74505805969E-08  0.10566000000E+00  0.10566000000E+00 0. -1.
     999900   -1    0    0    0    0 -0.00000000000E+00 -0.00000000000E+00 -0.74505805969E-08  0.93827000000E+00  0.93827000000E+00 0.  1.
     999902    2    1    2    0    0 -0.95829910364E-02  0.10658769792E-01  0.18967615528E-01  0.10201557801E+01  0.10198787194E+01 0.  0.
     999903    2    3    3    0    0 -0.40845583855E-01 -0.10934778933E+00 -0.50180215924E-01  0.12877463466E+00  0.20965488513E-01 0.  0.
         14    1    1    2    0    0  0.95829910364E-02 -0.10658769792E-01 -0.18967615528E-01  0.23774219850E-01  0.00000000000E+00 0.  1.
     999901    1    3    3    0    0  0.31262592818E-01  0.12000655913E+00  0.69147831452E-01  0.89138114549E+00  0.88000000000E+00 0.  1.
        -11    1    4    4    0    0 -0.28055992224E-01 -0.72437176225E-01 -0.43832057974E-01  0.89195255627E-01  0.51100000000E-03 0. -1.
         11    1    4    4    0    0 -0.12789591631E-01 -0.36910613109E-01 -0.63481579502E-02  0.39579379032E-01  0.51100000000E-03 0.  1.
</event>
<event>
 8    1  0.1111350E+005  0.1043930E+01  0.7957747E-01            NaN
         13   -1    0    0    0    0  0.00000000000E+00  0.00000000000E+00  0.74505805969E-08  0.10566000000E+00  0.10566000000E+00 0. -1.
     999900   -1    0    0    0    0 -0.00000000000E+00 -0.00000000000E+00 -0.74505805969E-08  0.93827000000E+00  0.93827000000E+00 0.  1.
     999902    2    1    2    0    0 -0.31501510914E-03  0.10384767000E-01  0.20681750939E-01  0.10207852934E+01  0.10205228747E+01 0.  0.
     999903    2    3    3    0    0  0.84496348170E-01 -0.87205979102E-01 -0.39340992333E-01  0.12931479433E+00  0.20738531982E-01 0.  0.
         14    1    1    2    0    0  0.31501510914E-03 -0.10384767000E-01 -0.20681750939E-01  0.23144706567E-01  0.00000000000E+00 0.  1.
     999901    1    3    3    0    0 -0.84811363279E-01  0.97590746102E-01  0.60022743273E-01  0.89147049911E+00  0.88000000000E+00 0.  1.
        -11    1    4    4    0    0  0.34180725700E-01 -0.31525572563E-01 -0.49591831891E-02  0.46765781868E-01  0.51100000000E-03 0.  1.
         11    1    4    4    0    0  0.50315622470E-01 -0.55680406539E-01 -0.34381809144E-01  0.82549012459E-01  0.51100000000E-03 0. -1.
</event>
<event>
 8    1  0.1079508E+005  0.1043930E+01  0.7957747E-01            NaN
         13   -1    0    0    0    0  0.00000000000E+00  0.00000000000E+00  0.74505805969E-08  0.10566000000E+00  0.10566000000E+00 0.  1.
     999900   -1    0    0    0    0 -0.00000000000E+00 -0.00000000000E+00 -0.74505805969E-08  0.93827000000E+00  0.93827000000E+00 0.  1.
     999902    2    1    2    0    0 -0.30160176762E-02  0.29346279178E-03  0.23132116761E-01  0.10206002484E+01  0.10203335679E+01 0.  0.
     999903    2    3    3    0    0 -0.56378606898E-01  0.11662877183E+00  0.33589173847E-02  0.13112149686E+00  0.20018663232E-01 0.  0.
         14    1    1    2    0    0  0.30160176762E-02 -0.29346279178E-03 -0.23132116761E-01  0.23329751582E-01  0.00000000000E+00 0. -1.
     999901    1    3    3    0    0  0.53362589222E-01 -0.11633530904E+00  0.19773199377E-01  0.88947875156E+00  0.88000000000E+00 0.  1.
        -11    1    4    4    0    0 -0.41455209863E-01  0.64987340464E-01  0.58490929200E-02  0.77306932770E-01  0.51100000000E-03 0. -1.
         11    1    4    4    0    0 -0.14923397035E-01  0.51641431370E-01 -0.24901755353E-02  0.53814564090E-01  0.51100000000E-03 0.  1.
</event>
<event>
 8    1  0.1079508E+005  0.1043930E+01  0.7957747E-01            NaN
         13   -1    0    0    0    0  0.00000000000E+00  0.00000000000E+00  0.74505805969E-08  0.10566000000E+00  0.10566000000E+00 0. -1.
     999900   -1    0    0    0    0 -0.00000000000E+00 -0.00000000000E+00 -0.74505805969E-08  0.93827000000E+00  0.93827000000E+00 0.  1.
     999902    2    1    2    0    0 -0.22238190631E-02 -0.23280249556E-01  0.40675455263E-02  0.10201926809E+01  0.10199164897E+01 0.  0.
     999903    2    3    3    0    0  0.98526865243E-01 -0.55842316756E-01 -0.63186984849E-01  0.13129777123E+00  0.20508587494E-01 0.  0.
         14    1    1    2    0    0  0.22238190631E-02  0.23280249556E-01 -0.40675455263E-02  0.23737319082E-01  0.00000000000E+00 0.  1.
     999901    1    3    3    0    0 -0.10075068431E+00  0.32562067200E-01  0.67254530376E-01  0.88889490969E+00  0.88000000000E+00 0. -1.
        -11    1    4    4    0    0  0.22690337892E-01 -0.77122926424E-02 -0.21794583920E-01  0.32397467505E-01  0.51100000000E-03 0. -1.
         11    1    4    4    0    0  0.75836527350E-01 -0.48130024114E-01 -0.41392400929E-01  0.98900303728E-01  0.51100000000E-03 0.  1.
</event>
<event>
 8    1  0.1079508E+005  0.1043930E+01  0.7957747E-01            NaN
         13   -1    0    0    0    0  0.00000000000E+00  0.00000000000E+00  0.74505805969E-08  0.10566000000E+00  0.10566000000E+00 0. -1.
     999900   -1    0    0    0    0 -0.00000000000E+00 -0.00000000000E+00 -0.74505805969E-08  0.93827000000E+00  0.93827000000E+00 0. -1.
     999902    2    1    2    0    0  0.27620043191E-02 -0.12475361233E-01  0.28153862246E-01  0.10130123147E+01  0.10125403925E+01 0.  0.
     999903    2    3    3    0    0  0.23934511051E-01  0.11747247364E+00  0.21102818351E-01  0.12318961771E+00  0.18913225217E-01 0.  0.
         14    1    1    2    0    0 -0.27620043191E-02  0.12475361233E-01 -0.28153862246E-01  0.30917685313E-01  0.00000000000E+00 0.  1.
     999901    1    3    3    0    0 -0.21172506732E-01 -0.12994783487E+00  0.70510438946E-02  0.88982269697E+00  0.88000000000E+00 0. -1.
        -11    1    4    4    0    0  0.11134708529E-01  0.69654620427E-01  0.21295776575E-01  0.73685270589E-01  0.51100000000E-03 0.  1.
         11    1    4    4    0    0  0.12799802522E-01  0.47817853211E-01 -0.19295822408E-03  0.49504347124E-01  0.51100000000E-03 0. -1.
</event>
<event>
 8    1  0.1079508E+005  0.1043930E+01  0.7957747E-01            NaN
         13   -1    0    0    0    0  0.00000000000E+00  0.00000000000E+00  0.74505805969E-08  0.10566000000E+00  0.10566000000E+00 0. -1.
     999900   -1    0    0    0    0 -0.00000000000E+00 -0.00000000000E+00 -0.74505805969E-08  0.93827000000E+00  0.93827000000E+00 0.  1.
     999902    2    1    2    0    0 -0.98718818275E-02 -0.18750721739E-01  0.82190851954E-02  0.10212012302E+01  0.10209482629E+01 0.  0.
     999903    2    3    3    0    0 -0.11151622138E-01  0.10522452086E+00  0.73093017252E-01  0.13014560588E+00  0.19968252156E-01 0.  0.
         14    1    1    2    0    0  0.98718818275E-02  0.18750721739E-01 -0.82190851954E-02  0.22728769830E-01  0.00000000000E+00 0.  1.
     999901    1    3    3    0    0  0.12797403110E-02 -0.12397524259E+00 -0.64873932057E-01  0.89105562429E+00  0.88000000000E+00 0.  1.
        -11    1    4    4    0    0 -0.60090663107E-02  0.31974410641E-01  0.33576551097E-01  0.46755937786E-01  0.51100000000E-03 0. -1.
         11    1    4    4    0    0 -0.51425558278E-02  0.73250110215E-01  0.39516466156E-01  0.83389668097E-01  0.51100000000E-03 0.  1.
</event>
<event>
 8    1  0.1079508E+005  0.1043930E+01  0.7957747E-01            NaN
         13   -1    0    0    0    0  0.00000000000E+00  0.00000000000E+00  0.74505805969E-08  0.10566000000E+00  0.10566000000E+00 0. -1.
     999900   -1    0    0    0    0 -0.00000000000E+00 -0.00000000000E+00 -0.74505805969E-08  0.93827000000E+00  0.93827000000E+00 0.  1.
     999902    2    1    2    0    0 -0.17906064251E-01  0.10539192678E-01  0.92835055142E-02  0.10211729089E+01  0.10209193037E+01 0.  0.
     999903    2    3    3    0    0  0.12225184949E+00  0.27240770329E-01 -0.24298084774E-01  0.12929236385E+00  0.20941445888E-01 0.  0.
         14    1    1    2    0    0  0.17906064251E-01 -0.10539192678E-01 -0.92835055142E-02  0.22757091069E-01  0.00000000000E+00 0.  1.
     999901    1    3    3    0    0 -0.14015791374E+00 -0.16701577651E-01  0.33581590288E-01  0.89188054508E+00  0.88000000000E+00 0.  1.
        -11    1    4    4    0    0  0.91796628600E-01  0.12110127679E-01 -0.22197830632E-01  0.95217020645E-01  0.51100000000E-03 0.  1.
         11    1    4    4    0    0  0.30455220889E-01  0.15130642650E-01 -0.21002541411E-02  0.34075343209E-01  0.51100000000E-03 0. -1.
</event>
<event>
 8    1  0.1079508E+005  0.1043930E+01  0.7957747E-01            NaN
         13   -1    0    0    0    0  0.00000000000E+00  0.00000000000E+00  0.74505805969E-08  0.10566000000E+00  0.10566000000E+00 0. -1.
     999900   -1    0    0    0    0 -0.00000000000E+00 -0.00000000000E+00 -0.74505805969E-08  0.93827000000E+00  0.93827000000E+00 0.  1.
     999902    2    1    2    0    0  0.21294645205E-01  0.44265014421E-02 -0.92462972746E-02  0.10202963409E+01  0.10200225848E+01 0.  0.
     999903    2    3    3    0    0  0.74281877041E-02  0.12059962858E+00 -0.48563116107E-01  0.13168265298E+00  0.19557516798E-01 0.  0.
         14    1    1    2    0    0 -0.21294645205E-01 -0.44265014421E-02  0.92462972746E-02  0.23633659105E-01  0.00000000000E+00 0.  1.
     999901    1    3    3    0    0  0.13866457501E-01 -0.11617312714E+00  0.39316818833E-01  0.88861368792E+00  0.88000000000E+00 0.  1.
        -11    1    4    4    0    0 -0.65656702899E-02  0.37716947314E-01 -0.13360624373E-01  0.40551739120E-01  0.51100000000E-03 0.  1.
         11    1    4    4    0    0  0.13993857994E-01  0.82882681264E-01 -0.35202491734E-01  0.91130913857E-01  0.51100000000E-03 0. -1.
</event>
<event>
 8    1  0.1079508E+005  0.1043930E+01  0.7957747E-01            NaN
         13   -1    0    0    0    0  0.00000000000E+00  0.00000000000E+00  0.74505805969E-08  0.10566000000E+00  0.10566000000E+00 0.  1.
     999900   -1    0    0    0    0 -0.00000000000E+00 -0.00000000000E+00 -0.74505805969E-08  0.93827000000E+00  0.93827000000E+00 0. -1.
     999902    2    1    2    0    0  0.18689504832E-01 -0.12862483217E-01 -0.44570328460E-02  0.10208084471E+01  0.10205465592E+01 0.  0.
     999903    2    3    3    0    0 -0.37136049602E-02  0.12767020389E+00  0.56292964350E-02  0.12931920462E+00  0.19449829880E-01 0.  0.
         14    1    1    2    0    0 -0.18689504832E-01  0.12862483217E-01  0.44570328460E-02  0.23121552871E-01  0.00000000000E+00 0.  1.
     999901    1    3    3    0    0  0.22403109792E-01 -0.14053268710E+00 -0.10086329281E-01  0.89148924251E+00  0.88000000000E+00 0. -1.
        -11    1    4    4    0    0  0.32681510949E-02  0.11158055914E+00  0.56525696346E-02  0.11177260243E+00  0.51100000000E-03 0.  1.
         11    1    4    4    0    0 -0.69817560552E-02  0.16089644749E-01 -0.23273199598E-04  0.17546602190E-01  0.51100000000E-03 0. -1.
</event>
<event>
 8    1  0.1079508E+005  0.1043930E+01  0.7957747E-01            NaN
         13   -1    0    0    0    0  0.00000000000E+00  0.00000000000E+00  0.74505805969E-08  0.10566000000E+00  0.10566000000E+00 0.  1.
     999900   -1    0    0    0    0 -0.00000000000E+00 -0.00000000000E+00 -0.74505805969E-08  0.93827000000E+00  0.93827000000E+00 0.  1.
     999902    2    1    2    0    0  0.59341622132E-03 -0.20044687396E-01  0.13034326828E-01  0.10200127403E+01  0.10197322958E+01 0.  0.
     999903    2    3    3    0    0  0.54067059679E-01 -0.11727823271E+00  0.24618353522E-01  0.13296821912E+00  0.19926192716E-01 0.  0.
         14    1    1    2    0    0 -0.59341622132E-03  0.20044687396E-01 -0.13034326828E-01  0.23917259698E-01  0.00000000000E+00 0. -1.
     999901    1    3    3    0    0 -0.53473643458E-01  0.97233545316E-01 -0.11584026694E-01  0.88704452118E+00  0.88000000000E+00 0. -1.
        -11    1    4    4    0    0  0.33658609799E-01 -0.50354370585E-01  0.14393488407E-01  0.62256712732E-01  0.51100000000E-03 0. -1.
         11    1    4    4    0    0  0.20408449880E-01 -0.66923862127E-01  0.10224865115E-01  0.70711506391E-01  0.51100000000E-03 0.  1.
</event>
<event>
 8    1  0.1176105E+005  0.1043930E+01  0.7957747E-01            NaN
         13   -1    0    0    0    0  0.00000000000E+00  0.00000000000E+00  0.74505805969E-08  0.10566000000E+00  0.10566000000E+00 0. -1.
     999900   -1    0    0    0    0 -0.00000000000E+00 -0.00000000000E+00 -0.74505805969E-08  0.93827000000E+00  0.93827000000E+00 0. -1.
     999902    2    1    2    0    0 -0.17815066928E-01  0.74981865477E-02 -0.13958398150E-01  0.10200880980E+01  0.10198094388E+01 0.  0.
     999903    2    3    3    0    0 -0.35415105161E-01  0.56013494224E-01  0.10999655350E+00  0.12990366406E+00  0.19595380746E-01 0.  0.
         14    1    1    2    0    0  0.17815066928E-01 -0.74981865477E-02  0.13958398150E-01  0.23841901981E-01  0.00000000000E+00 0. -1.
     999901    1    3    3    0    0  0.17600038233E-01 -0.48515307677E-01 -0.12395495165E+00  0.89018443396E+00  0.88000000000E+00 0. -1.
        -11    1    4    4    0    0 -0.20449273700E-01  0.32363978975E-01  0.81042447132E-01  0.89631129013E-01  0.51100000000E-03 0.  1.
         11    1    4    4    0    0 -0.14965831461E-01  0.23649515249E-01  0.28954106364E-01  0.40272535048E-01  0.51100000000E-03 0. -1.
</event>
<event>
 8    1  0.1079508E+005  0.1043930E+01  0.7957747E-01            NaN
         13   -1    0    0    0    0  0.00000000000E+00  0.00000000000E+00  0.74505805969E-08  0.10566000000E+00  0.10566000000E+00 0. -1.
     999900   -1    0    0    0    0 -0.00000000000E+00 -0.00000000000E+00 -0.74505805969E-08  0.93827000000E+00  0.93827000000E+00 0.  1.
     999902    2    1    2    0    0  0.89610509049E-02 -0.71367218868E-02  0.20888353223E-01  0.10201065550E+01  0.10198283321E+01 0.  0.
     999903    2    3    3    0    0 -0.16544676940E-02  0.76455277780E-01 -0.10038676007E+00  0.12780169409E+00  0.20189716522E-01 0.  0.
         14    1    1    2    0    0 -0.89610509049E-02  0.71367218868E-02 -0.20888353223E-01  0.23823445027E-01  0.00000000000E+00 0.  1.
     999901    1    3    3    0    0  0.10615518599E-01 -0.83591999667E-01  0.12127511329E+00  0.89230486088E+00  0.88000000000E+00 0. -1.
        -11    1    4    4    0    0 -0.79369632544E-02  0.16320171483E-01 -0.17603145278E-01  0.25287847430E-01  0.51100000000E-03 0.  1.
         11    1    4    4    0    0  0.62824955604E-02  0.60135106297E-01 -0.82783614788E-01  0.10251384667E+00  0.51100000000E-03 0. -1.
</event>
<event>
 8    1  0.1079508E+005  0.1043930E+01  0.7957747E-01            NaN
         13   -1    0    0    0    0  0.00000000000E+00  0.00000000000E+00  0.74505805969E-08  0.10566000000E+00  0.10566000000E+00 0.  1.
     999900   -1    0    0    0    0 -0.00000000000E+00 -0.00000000000E+00 -0.74505805969E-08  0.93827000000E+00  0.93827000000E+00 0. -1.
     999902    2    1    2    0    0  0.15102889497E-01 -0.13098970479E-01 -0.10755026208E-01  0.10212286589E+01  0.10209763087E+01 0.  0.
     999903    2    3    3    0    0  0.99646567156E-01 -0.65016430546E-01  0.56336366646E-01  0.13311587829E+00  0.19735152898E-01 0.  0.
         14    1    1    2    0    0 -0.15102889497E-01  0.13098970479E-01  0.10755026208E-01  0.22701341095E-01  0.00000000000E+00 0.  1.
     999901    1    3    3    0    0 -0.84543677659E-01  0.51917460067E-01 -0.67091392854E-01  0.88811278061E+00  0.88000000000E+00 0. -1.
        -11    1    4    4    0    0  0.58484456259E-01 -0.40230360556E-01  0.22951095701E-01  0.74605143584E-01  0.51100000000E-03 0.  1.
         11    1    4    4    0    0  0.41162110897E-01 -0.24786069991E-01  0.33385270946E-01  0.58510734709E-01  0.51100000000E-03 0. -1.
</event>
<event>
 8    1  0.1079508E+005  0.1043930E+01  0.7957747E-01            NaN
         13   -1    0    0    0    0  0.00000000000E+00  0.00000000000E+00  0.74505805969E-08  0.10566000000E+00  0.10566000000E+00 0. -1.
     999900   -1    0    0    0    0 -0.00000000000E+00 -0.00000000000E+00 -0.74505805969E-08  0.93827000000E+00  0.93827000000E+00 0. -1.
     999902    2    1    2    0    0 -0.77446200938E-02  0.22388756524E-01  0.31021742356E-03  0.10202375583E+01  0.10199624226E+01 0.  0.
     999903    2    3    3    0    0 -0.68898828073E-01 -0.32283552070E-01 -0.10374676482E+00  0.13031803720E+00  0.20739415696E-01 0.  0.
         14    1    1    2    0    0  0.77446200938E-02 -0.22388756524E-01 -0.31021742356E-03  0.23692441705E-01  0.00000000000E+00 0. -1.
     999901    1    3    3    0    0  0.61154207979E-01  0.54672308594E-01  0.10405698224E+00  0.88991952110E+00  0.88000000000E+00 0.  1.
        -11    1    4    4    0    0 -0.46693785786E-02 -0.91818998022E-02 -0.10112219340E-01  0.14443977335E-01  0.51100000000E-03 0.  1.
         11    1    4    4    0    0 -0.64229449494E-01 -0.23101652268E-01 -0.93634545482E-01  0.11587405986E+00  0.51100000000E-03 0. -1.
</event>
<event>
 8    1  0.1079508E+005  0.1043930E+01  0.7957747E-01            NaN
         13   -1    0    0    0    0  0.00000000000E+00  0.00000000000E+00  0.74505805969E-08  0.10566000000E+00  0.10566000000E+00 0. -1.
     999900   -1    0    0    0    0 -0.00000000000E+00 -0.00000000000E+00 -0.74505805969E-08  0.93827000000E+00  0.93827000000E+00 0. -1.
     999902    2    1    2    0    0 -0.17528575210E-01  0.11753946545E-01 -0.70857307662E-02  0.10216676149E+01  0.10214250348E+01 0.  0.
     999903    2    3    3    0    0 -0.29239807883E-01  0.28118927624E-01 -0.12563878961E+00  0.13348982117E+00  0.19717668361E-01 0.  0.
         14    1    1    2    0    0  0.17528575210E-01 -0.11753946545E-01  0.70857307662E-02  0.22262385065E-01  0.00000000000E+00 0. -1.
     999901    1    3    3    0    0  0.11711232673E-01 -0.16364981079E-01  0.11855305884E+00  0.88817779377E+00  0.88000000000E+00 0.  1.
        -11    1    4    4    0    0 -0.25031632299E-01  0.12135587523E-01 -0.89981812904E-01  0.94185152092E-01  0.51100000000E-03 0. -1.
         11    1    4    4    0    0 -0.42081755845E-02  0.15983340101E-01 -0.35656976706E-01  0.39304669078E-01  0.51100000000E-03 0.  1.
</event>
<event>
 8    1  0.1079508E+005  0.1043930E+01  0.7957747E-01            NaN
         13   -1    0    0    0    0  0.00000000000E+00  0.00000000000E+00  0.74505805969E-08  0.10566000000E+00  0.10566000000E+00 0.  1.
     999900   -1    0    0    0    0 -0.00000000000E+00 -0.00000000000E+00 -0.74505805969E-08  0.93827000000E+00  0.93827000000E+00 0. -1.
     999902    2    1    2    0    0 -0.14320594127E-01  0.50622102897E-02  0.17913897139E-01  0.10204435550E+01  0.10201732381E+01 0.  0.
     999903    2    3    3    0    0 -0.77063869399E-01 -0.45628676611E-01  0.96792353978E-01  0.13324115667E+00  0.19069083516E-01 0.  0.
         14    1    1    2    0    0  0.14320594127E-01 -0.50622102897E-02 -0.17913897139E-01  0.23486445024E-01  0.00000000000E+00 0. -1.
     999901    1    3    3    0    0  0.62743275272E-01  0.50690886901E-01 -0.78878456840E-01  0.88720239831E+00  0.88000000000E+00 0. -1.
        -11    1    4    4    0    0 -0.16408734202E-01 -0.16558934090E-01  0.16866214218E-01  0.28778032583E-01  0.51100000000E-03 0. -1.
         11    1    4    4    0    0 -0.60655135197E-01 -0.29069742521E-01  0.79926139760E-01  0.10446312409E+00  0.51100000000E-03 0.  1.
</event>
<event>
 8    1  0.1079508E+005  0.1043930E+01  0.7957747E-01            NaN
         13   -1    0    0    0    0  0.00000000000E+00  0.00000000000E+00  0.74505805969E-08  0.10566000000E+00  0.10566000000E+00 0. -1.
     999900   -1    0    0    0    0 -0.00000000000E+00 -0.00000000000E+00 -0.74505805969E-08  0.93827000000E+00  0.93827000000E+00 0.  1.
     999902    2    1    2    0    0  0.20097145046E-01  0.12174035871E-01  0.87004854768E-02  0.10188740459E+01  0.10185659137E+01 0.  0.
     999903    2    3    3    0    0  0.48515359294E-01 -0.11041889413E+00  0.42311814370E-01  0.12928630834E+00  0.19457328208E-01 0.  0.
         14    1    1    2    0    0 -0.20097145046E-01 -0.12174035871E-01 -0.87004854768E-02  0.25055954101E-01  0.00000000000E+00 0.  1.
     999901    1    3    3    0    0 -0.28418214249E-01  0.12259293000E+00 -0.33611328893E-01  0.88958773756E+00  0.88000000000E+00 0.  1.
        -11    1    4    4    0    0  0.36971318897E-01 -0.86703510272E-01  0.41235865506E-01  0.10288359850E+00  0.51100000000E-03 0.  1.
         11    1    4    4    0    0  0.11544040397E-01 -0.23715383856E-01  0.10759488633E-02  0.26402709843E-01  0.51100000000E-03 0. -1.
</event>
<event>
 8    1  0.1079508E+005  0.1043930E+01  0.7957747E-01            NaN
         13   -1    0    0    0    0  0.00000000000E+00  0.00000000000E+00  0.74505805969E-08  0.10566000000E+00  0.10566000000E+00 0. -1.
     999900   -1    0    0    0    0 -0.00000000000E+00 -0.00000000000E+00 -0.74505805969E-08  0.93827000000E+00  0.93827000000E+00 0.  1.
     999902    2    1    2    0    0 -0.18712566791E-01 -0.69720755751E-02  0.13311925627E-01  0.10199304717E+01  0.10196480715E+01 0.  0.
     999903    2    3    3    0    0 -0.46120594668E-01 -0.35131322430E-01  0.11773669651E+00  0.13288555970E+00  0.20864400374E-01 0.  0.
         14    1    1    2    0    0  0.18712566791E-01  0.69720755751E-02 -0.13311925627E-01  0.23999528279E-01  0.00000000000E+00 0. -1.
     999901    1    3    3    0    0  0.27408027877E-01  0.28159246855E-01 -0.10442477088E+00  0.88704491202E+00  0.88000000000E+00 0.  1.
        -11    1    4    4    0    0 -0.93535151042E-02 -0.61212791525E-02  0.45025563913E-01  0.46395267322E-01  0.51100000000E-03 0. -1.
         11    1    4    4    0    0 -0.36767079564E-01 -0.29010043277E-01  0.72711132595E-01  0.86490292373E-01  0.51100000000E-03 0.  1.
</event>
<event>
 8    1  0.1079508E+005  0.1043930E+01  0.7957747E-01            NaN
         13   -1    0    0    0    0  0.00000000000E+00  0.00000000000E+00  0.74505805969E-08  0.10566000000E+00  0.10566000000E+00 0. -1.
     999900   -1    0    0    0    0 -0.00000000000E+00 -0.00000000000E+00 -0.74505805969E-08  0.93827000000E+00  0.93827000000E+00 0.  1.
     999902    2    1    2    0    0 -0.18751150187E-01  0.28667846744E-02 -0.11431004934E-01  0.10217829469E+01  0.10215429010E+01 0.  0.
     999903    2    3    3    0    0 -0.20733680775E-01 -0.91291277041E-01  0.88715171362E-01  0.13110964672E+00  0.23566396628E-01 0.  0.
         14    1    1    2    0    0  0.18751150187E-01 -0.28667846744E-02  0.11431004934E-01  0.22147053111E-01  0.00000000000E+00 0.  1.
     999901    1    3    3    0    0  0.19825305884E-02  0.94158061716E-01 -0.10014617630E+00  0.89067330017E+00  0.88000000000E+00 0. -1.
        -11    1    4    4    0    0 -0.47745519329E-02 -0.22642093345E-01  0.93418656276E-02  0.24959813934E-01  0.51100000000E-03 0.  1.
         11    1    4    4    0    0 -0.15959128842E-01 -0.68649183696E-01  0.79373305735E-01  0.10614983278E+00  0.51100000000E-03 0. -1.
</event>
<event>
 8    1  0.1079508E+005  0.1043930E+01  0.7957747E-01            NaN
         13   -1    0    0    0    0  0.00000000000E+00  0.00000000000E+00  0.74505805969E-08  0.10566000000E+00  0.10566000000E+00 0. -1.
     999900   -1    0    0    0    0 -0.00000000000E+00 -0.00000000000E+00 -0.74505805969E-08  0.93827000000E+00  0.93827000000E+00 0. -1.
     999902    2    1    2    0    0 -0.16559112364E-01  0.14558518272E-01  0.78061047609E-02  0.10205400464E+01  0.10202719718E+01 0.  0.
     999903    2    3    3    0    0 -0.11381180002E+00 -0.20697135022E-01 -0.58867027076E-01  0.13197583780E+00  0.23891372193E-01 0.  0.
         14    1    1    2    0    0  0.16559112364E-01 -0.14558518272E-01 -0.78061047609E-02  0.23389953571E-01  0.00000000000E+00 0.  1.
     999901    1    3    3    0    0  0.97252687654E-01  0.35255653293E-01  0.66673131837E-01  0.88856420863E+00  0.88000000000E+00 0.  1.
        -11    1    4    4    0    0 -0.68576571238E-01 -0.17062412502E-02 -0.40005324952E-01  0.79412496041E-01  0.51100000000E-03 0. -1.
         11    1    4    4    0    0 -0.45235228779E-01 -0.18990893772E-01 -0.18861702124E-01  0.52563341760E-01  0.51100000000E-03 0.  1.
</event>
<event>
 8    1  0.1079508E+005  0.1043930E+01  0.7957747E-01            NaN
         13   -1    0    0    0    0  0.00000000000E+00  0.00000000000E+00  0.74505805969E-08  0.10566000000E+00  0.10566000000E+00 0. -1.
     999900   -1    0    0    0    0 -0.00000000000E+00 -0.00000000000E+00 -0.74505805969E-08  0.93827000000E+00  0.93827000000E+00 0. -1.
     999902    2    1    2    0    0 -0.13069912349E-01 -0.26578365500E-01  0.20845886869E-01  0.10077114534E+01  0.10070603706E+01 0.  0.
     999903    2    3    3    0    0 -0.72649845736E-01  0.74253983941E-01  0.55478560864E-01  0.11927667620E+00  0.18905040422E-01 0.  0.
         14    1    1    2    0    0  0.13069912349E-01  0.26578365500E-01 -0.20845886869E-01  0.36218546641E-01  0.00000000000E+00 0.  1.
     999901    1    3    3    0    0  0.59579933387E-01 -0.10083234944E+00 -0.34632673995E-01  0.88843477716E+00  0.88000000000E+00 0.  1.
        -11    1    4    4    0    0 -0.17144048127E-01  0.30125725203E-01  0.17396637984E-01  0.38786361512E-01  0.51100000000E-03 0.  1.
         11    1    4    4    0    0 -0.55505797609E-01  0.44128258738E-01  0.38081922880E-01  0.80490314689E-01  0.51100000000E-03 0. -1.
</event>
<event>
 8    1  0.1079508E+005  0.1043930E+01  0.7957747E-01            NaN
         13   -1    0    0    0    0  0.00000000000E+00  0.00000000000E+00  0.74505805969E-08  0.10566000000E+00  0.10566000000E+00 0. -1.
     999900   -1    0    0    0    0 -0.00000000000E+00 -0.00000000000E+00 -0.74505805969E-08  0.93827000000E+00  0.93827000000E+00 0. -1.
     999902    2    1    2    0    0  0.15502317659E-01 -0.14876844502E-01  0.89207601135E-02  0.10206658147E+01  0.10204006483E+01 0.  0.
     999903    2    3    3    0    0  0.76351647100E-01  0.24300527089E-01  0.10373975989E+00  0.13261843421E+00  0.20140051586E-01 0.  0.
         14    1    1    2    0    0 -0.15502317659E-01  0.14876844502E-01 -0.89207601135E-02  0.23264185267E-01  0.00000000000E+00 0.  1.
     999901    1    3    3    0    0 -0.60849329440E-01 -0.39177371591E-01 -0.94818999777E-01  0.88804738052E+00  0.88000000000E+00 0. -1.
        -11    1    4    4    0    0 -0.20860711220E-04  0.25177091744E-02  0.69855186856E-02  0.74429756793E-02  0.51100000000E-03 0.  1.
         11    1    4    4    0    0  0.76372507811E-01  0.21782817915E-01  0.96754241205E-01  0.12517545853E+00  0.51100000000E-03 0. -1.
</event>
<event>
 8    1  0.1079508E+005  0.1043930E+01  0.7957747E-01            NaN
         13   -1    0    0    0    0  0.00000000000E+00  0.00000000000E+00  0.74505805969E-08  0.10566000000E+00  0.10566000000E+00 0. -1.
     999900   -1    0    0    0    0 -0.00000000000E+00 -0.00000000000E+00 -0.74505805969E-08  0.93827000000E+00  0.93827000000E+00 0. -1.
     999902    2    1    2    0    0 -0.27023589148E-02  0.11862568498E-01 -0.20048549962E-01  0.10204786113E+01  0.10202091102E+01 0.  0.
     999903    2    3    3    0    0  0.11232379007E+00 -0.37304909801E-01 -0.53191469152E-01  0.13101421689E+00  0.18085975951E-01 0.  0.
         14    1    1    2    0    0  0.27023589148E-02 -0.11862568498E-01  0.20048549962E-01  0.23451388672E-01  0.00000000000E+00 0. -1.
     999901    1    3    3    0    0 -0.11502614899E+00  0.49167478300E-01  0.33142919190E-01  0.88946439443E+00  0.88000000000E+00 0. -1.
        -11    1    4    4    0    0  0.29753182934E-01 -0.16894254574E-01 -0.10184356798E-01  0.35702240499E-01  0.51100000000E-03 0.  1.
         11    1    4    4    0    0  0.82570607139E-01 -0.20410655228E-01 -0.43007112354E-01  0.95311976394E-01  0.51100000000E-03 0. -1.
</event>
<event>
 8    1  0.1079508E+005  0.1043930E+01  0.7957747E-01            NaN
         13   -1    0    0    0    0  0.00000000000E+00  0.00000000000E+00  0.74505805969E-08  0.10566000000E+00  0.10566000000E+00 0. -1.
     999900   -1    0    0    0    0 -0.00000000000E+00 -0.00000000000E+00 -0.74505805969E-08  0.93827000000E+00  0.93827000000E+00 0.  1.
     999902    2    1    2    0    0 -0.22926131865E-01  0.58627644051E-03 -0.95500888395E-02  0.10190873866E+01  0.10187845435E+01 0.  0.
     999903    2    3    3    0    0  0.72964892567E-01 -0.23268844483E-01 -0.10118668712E+00  0.12882819880E+00  0.22195596094E-01 0.  0.
         14    1    1    2    0    0  0.22926131865E-01 -0.58627644051E-03  0.95500888395E-02  0.24842613373E-01  0.00000000000E+00 0.  1.
     999901    1    3    3    0    0 -0.95891024432E-01  0.23855120924E-01  0.91636598278E-01  0.89025918782E+00  0.88000000000E+00 0. -1.
        -11    1    4    4    0    0  0.47349502732E-01 -0.41362587978E-02 -0.55659201511E-01  0.73193523482E-01  0.51100000000E-03 0. -1.
         11    1    4    4    0    0  0.25615389835E-01 -0.19132585686E-01 -0.45527485607E-01  0.55634675321E-01  0.51100000000E-03 0.  1.
</event>
<event>
 8    1  0.1079508E+005  0.1043930E+01  0.7957747E-01            NaN
         13   -1    0    0    0    0  0.00000000000E+00  0.00000000000E+00  0.74505805969E-08  0.10566000000E+00  0.10566000000E+00 0. -1.
     999900   -1    0    0    0    0 -0.00000000000E+00 -0.00000000000E+00 -0.74505805969E-08  0.93827000000E+00  0.93827000000E+00 0. -1.
     999902    2    1    2    0    0 -0.11629775764E-01  0.89682143260E-03 -0.19208862994E-01  0.10214569853E+01  0.10212097416E+01 0.  0.
     999903    2    3    3    0    0 -0.77275977625E-01  0.96298195637E-01  0.43599387938E-01  0.13165042068E+00  0.13638454330E-01 0.  0.
         14    1    1    2    0    0  0.11629775764E-01 -0.89682143260E-03  0.19208862994E-01  0.22473014718E-01  0.00000000000E+00 0. -1.
     999901    1    3    3    0    0  0.65646201861E-01 -0.95401374204E-01 -0.62808250932E-01  0.88980656460E+00  0.88000000000E+00 0.  1.
        -11    1    4    4    0    0 -0.59322962835E-01  0.82228509083E-01  0.36264550361E-01  0.10768528386E+00  0.51100000000E-03 0.  1.
         11    1    4    4    0    0 -0.17953014790E-01  0.14069686554E-01  0.73348375775E-02  0.23965136825E-01  0.51100000000E-03 0. -1.
</event>
<event>
 8    1  0.1079508E+005  0.1043930E+01  0.7957747E-01            NaN
         13   -1    0    0    0    0  0.00000000000E+00  0.00000000000E+00  0.74505805969E-08  0.10566000000E+00  0.10566000000E+00 0.  1.
     999900   -1    0    0    0    0 -0.00000000000E+00 -0.00000000000E+00 -0.74505805969E-08  0.93827000000E+00  0.93827000000E+00 0. -1.
     999902    2    1    2    0    0 -0.18942413140E-01  0.35852255594E-02  0.29422512083E-02  0.10244280591E+01  0.10242424139E+01 0.  0.
     999903    2    3    3    0    0  0.12991882878E+00 -0.53505674378E-02  0.99895265851E-02  0.13185359056E+00  0.19443458009E-01 0.  0.
         14    1    1    2    0    0  0.18942413140E-01 -0.35852255594E-02 -0.29422512083E-02  0.19501940930E-01  0.00000000000E+00 0.  1.
     999901    1    3    3    0    0 -0.14886124192E+00  0.89357929972E-02 -0.70472753768E-02  0.89257446851E+00  0.88000000000E+00 0.  1.
        -11    1    4    4    0    0  0.12326528221E+00 -0.87703413675E-02  0.11799090605E-01  0.12413995468E+00  0.51100000000E-03 0.  1.
         11    1    4    4    0    0  0.66535465644E-02  0.34197739297E-02 -0.18095640198E-02  0.77136358844E-02  0.51100000000E-03 0. -1.
</event>
<event>
 8    1  0.1079508E+005  0.1043930E+01  0.7957747E-01            NaN
         13   -1    0    0    0    0  0.00000000000E+00  0.00000000000E+00  0.74505805969E-08  0.10566000000E+00  0.10566000000E+00 0. -1.
     999900   -1    0    0    0    0 -0.00000000000E+00 -0.00000000000E+00 -0.74505805969E-08  0.93827000000E+00  0.93827000000E+00 0.  1.
     999902    2    1    2    0    0 -0.19635347993E-01  0.78606126164E-02  0.11110814820E-01  0.10200388651E+01  0.10197590401E+01 0.  0.
     999903    2    3    3    0    0 -0.35139393665E-01  0.28121095186E-02  0.12614007255E+00  0.13240290764E+00  0.19404306258E-01 0.  0.
         14    1    1    2    0    0  0.19635347993E-01 -0.78606126164E-02 -0.11110814820E-01  0.23891134914E-01  0.00000000000E+00 0.  1.
     999901    1    3    3    0    0  0.15504045672E-01  0.50485030978E-02 -0.11502925773E+00  0.88763595745E+00  0.88000000000E+00 0.  1.
        -11    1    4    4    0    0 -0.19514839018E-01  0.98588981621E-02  0.54168175090E-01  0.58416428583E-01  0.51100000000E-03 0.  1.
         11    1    4    4    0    0 -0.15624554647E-01 -0.70467886435E-02  0.71971897462E-01  0.73986479057E-01  0.51100000000E-03 0. -1.
</event>
<event>
 8    1  0.1138029E+005  0.1043930E+01  0.7957747E-01            NaN
         13   -1    0    0    0    0  0.00000000000E+00  0.00000000000E+00  0.74505805969E-08  0.10566000000E+00  0.10566000000E+00 0. -1.
     999900   -1    0    0    0    0 -0.00000000000E+00 -0.00000000000E+00 -0.74505805969E-08  0.93827000000E+00  0.93827000000E+00 0.  1.
     999902    2    1    2    0    0 -0.53641431975E-02  0.20467015519E-01 -0.10202733090E-01  0.10204402465E+01  0.10201698526E+01 0.  0.
     999903    2    3    3    0    0  0.74946943518E-01  0.26706148523E-01  0.10108481983E+00  0.12978109910E+00  0.17167707275E-01 0.  0.
         14    1    1    2    0    0  0.53641431975E-02 -0.20467015519E-01  0.10202733090E-01  0.23489753490E-01  0.00000000000E+00 0. -1.
     999901    1    3    3    0    0 -0.80311086715E-01 -0.62391330032E-02 -0.11128755292E+00  0.89065914741E+00  0.88000000000E+00 0.  1.
        -11    1    4    4    0    0  0.40662770932E-01  0.21832570457E-01  0.49824770155E-01  0.67918266428E-01  0.51100000000E-03 0.  1.
         11    1    4    4    0    0  0.34284172585E-01  0.48735780661E-02  0.51260049671E-01  0.61862832673E-01  0.51100000000E-03 0. -1.
</event>
<event>
 8    1  0.1079508E+005  0.1043930E+01  0.7957747E-01            NaN
         13   -1    0    0    0    0  0.00000000000E+00  0.00000000000E+00  0.74505805969E-08  0.10566000000E+00  0.10566000000E+00 0. -1.
     999900   -1    0    0    0    0 -0.00000000000E+00 -0.00000000000E+00 -0.74505805969E-08  0.93827000000E+00  0.93827000000E+00 0. -1.
     999902    2    1    2    0    0  0.51322346477E-02 -0.19148936657E-01 -0.10707813059E-01  0.10213982697E+01  0.10211497180E+01 0.  0.
     999903    2    3    3    0    0 -0.38418137222E-01  0.12093470909E+00  0.12308923738E-01  0.12895788918E+00  0.19428598706E-01 0.  0.
         14    1    1    2    0    0 -0.51322346477E-02  0.19148936657E-01  0.10707813059E-01  0.22531730250E-01  0.00000000000E+00 0. -1.
     999901    1    3    3    0    0  0.43550371869E-01 -0.14008364575E+00 -0.23016736797E-01  0.89244038057E+00  0.88000000000E+00 0.  1.
        -11    1    4    4    0    0 -0.27771400268E-01  0.77701543146E-01 -0.86755387077E-03  0.82521477512E-01  0.51100000000E-03 0. -1.
         11    1    4    4    0    0 -0.10646736954E-01  0.43233165947E-01  0.13176477609E-01  0.46436411669E-01  0.51100000000E-03 0.  1.
</event>
<event>
 8    1  0.1079508E+005  0.1043930E+01  0.7957747E-01            NaN
         13   -1    0    0    0    0  0.00000000000E+00  0.00000000000E+00  0.74505805969E-08  0.10566000000E+00  0.10566000000E+00 0.  1.
     999900   -1    0    0    0    0 -0.00000000000E+00 -0.00000000000E+00 -0.74505805969E-08  0.93827000000E+00  0.93827000000E+00 0.  1.
     999902    2    1    2    0    0 -0.15214002960E-01 -0.18196089898E-01  0.63760521743E-02  0.10193695111E+01  0.10190735903E+01 0.  0.
     999903    2    3    3    0    0  0.99434041818E-01  0.82704026133E-02  0.78632076055E-01  0.12860266036E+00  0.20002815664E-01 0.  0.
         14    1    1    2    0    0  0.15214002960E-01  0.18196089898E-01 -0.63760521743E-02  0.24560488900E-01  0.00000000000E+00 0. -1.
     999901    1    3    3    0    0 -0.11464804478E+00 -0.26466492511E-01 -0.72256023880E-01  0.89076685074E+00  0.88000000000E+00 0. -1.
        -11    1    4    4    0    0  0.75987500657E-01  0.10631396883E-01  0.68821774904E-01  0.10307193933E+00  0.51100000000E-03 0. -1.
         11    1    4    4    0    0  0.23446541161E-01 -0.23609942697E-02  0.98103011508E-02  0.25530721024E-01  0.51100000000E-03 0.  1.
</event>
<event>
 8    1  0.1079508E+005  0.1043930E+01  0.7957747E-01            NaN
         13   -1    0    0    0    0  0.00000000000E+00  0.00000000000E+00  0.74505805969E-08  0.10566000000E+00  0.10566000000E+00 0. -1.
     999900   -1    0    0    0    0 -0.00000000000E+00 -0.00000000000E+00 -0.74505805969E-08  0.93827000000E+00  0.93827000000E+00 0.  1.
     999902    2    1    2    0    0 -0.14360385409E-01  0.10122066991E-01  0.16141857514E-01  0.10200713229E+01  0.10197922667E+01 0.  0.
     999903    2    3    3    0    0  0.12090594436E+00  0.33745666492E-01  0.23626157534E-01  0.12939120682E+00  0.20660873485E-01 0.  0.
         14    1    1    2    0    0  0.14360385409E-01 -0.10122066991E-01 -0.16141857514E-01  0.23858677107E-01  0.00000000000E+00 0.  1.
     999901    1    3    3    0    0 -0.13526632977E+00 -0.23623599501E-01 -0.74843000200E-02  0.89068011607E+00  0.88000000000E+00 0. -1.
        -11    1    4    4    0    0  0.33396550897E-01  0.16170895003E-02  0.11609708745E-01  0.35397613598E-01  0.51100000000E-03 0.  1.
         11    1    4    4    0    0  0.87509393465E-01  0.32128576992E-01  0.12016448789E-01  0.93993593221E-01  0.51100000000E-03 0. -1.
</event>
<event>
 8    1  0.1079508E+005  0.1043930E+01  0.7957747E-01            NaN
         13   -1    0    0    0    0  0.00000000000E+00  0.00000000000E+00  0.74505805969E-08  0.10566000000E+00  0.10566000000E+00 0. -1.
     999900   -1    0    0    0    0 -0.00000000000E+00 -0.00000000000E+00 -0.74505805969E-08  0.93827000000E+00  0.93827000000E+00 0.  1.
     999902    2    1    2    0    0 -0.18262566567E-01  0.14695685482E-01  0.22170290614E-02  0.10203843055E+01  0.10201126072E+01 0.  0.
     999903    2    3    3    0    0  0.44559705491E-01  0.87888296796E-01  0.84667357346E-01  0.13128259435E+00  0.18884864637E-01 0.  0.
         14    1    1    2    0    0  0.18262566567E-01 -0.14695685482E-01 -0.22170290614E-02  0.23545694453E-01  0.00000000000E+00 0. -1.
     999901    1    3    3    0    0 -0.62822272058E-01 -0.73192611314E-01 -0.82450328285E-01  0.88910171120E+00  0.88000000000E+00 0.  1.
        -11    1    4    4    0    0  0.23359716690E-01  0.27320005259E-01  0.26376006004E-01  0.44587149101E-01  0.51100000000E-03 0. -1.
         11    1    4    4    0    0  0.21199988801E-01  0.60568291537E-01  0.58291351342E-01  0.86695445250E-01  0.51100000000E-03 0.  1.
</event>
<event>
 8    1  0.1079508E+005  0.1043930E+01  0.7957747E-01            NaN
         13   -1    0    0    0    0  0.00000000000E+00  0.00000000000E+00  0.74505805969E-08  0.10566000000E+00  0.10566000000E+00 0.  1.
     999900   -1    0    0    0    0 -0.00000000000E+00 -0.00000000000E+00 -0.74505805969E-08  0.93827000000E+00  0.93827000000E+00 0. -1.
     999902    2    1    2    0    0 -0.15907500483E-01  0.14505056033E-01  0.12537940625E-02  0.10223657420E+01  0.10221382946E+01 0.  0.
     999903    2    3    3    0    0 -0.13053538696E+00  0.24308152940E-01 -0.10995587654E-01  0.13479281522E+00  0.20440805706E-01 0.  0.
         14    1    1    2    0    0  0.15907500483E-01 -0.14505056033E-01 -0.12537940625E-02  0.21564257967E-01  0.00000000000E+00 0.  1.
     999901    1    3    3    0    0  0.11462788648E+00 -0.98030969076E-02  0.12249381717E-01  0.88757292682E+00  0.88000000000E+00 0.  1.
        -11    1    4    4    0    0 -0.61652622873E-01  0.23200720095E-02 -0.98158962005E-02  0.62474327371E-01  0.51100000000E-03 0.  1.
         11    1    4    4    0    0 -0.68882764086E-01  0.21988080931E-01 -0.11796914540E-02  0.72318487844E-01  0.51100000000E-03 0. -1.
</event>
<event>
 8    1  0.1079508E+005  0.1043930E+01  0.7957747E-01            NaN
         13   -1    0    0    0    0  0.00000000000E+00  0.00000000000E+00  0.74505805969E-08  0.10566000000E+00  0.10566000000E+00 0.  1.
     999900   -1    0    0    0    0 -0.00000000000E+00 -0.00000000000E+00 -0.74505805969E-08  0.93827000000E+00  0.93827000000E+00 0.  1.
     999902    2    1    2    0    0  0.19061553785E-01 -0.14006896124E-01 -0.91315542990E-02  0.10185741081E+01  0.10182584605E+01 0.  0.
     999903    2    3    3    0    0 -0.10569549219E+00 -0.64899611981E-01 -0.25397955587E-01  0.12817027561E+00  0.19976653796E-01 0.  0.
         14    1    1    2    0    0 -0.19061553785E-01  0.14006896124E-01  0.91315542990E-02  0.25355891932E-01  0.00000000000E+00 0.  1.
     999901    1    3    3    0    0  0.12475704598E+00  0.50892715857E-01  0.16266401288E-01  0.89040383246E+00  0.88000000000E+00 0.  1.
        -11    1    4    4    0    0 -0.40657952604E-01 -0.15773334288E-01 -0.33980196847E-02  0.43745569413E-01  0.51100000000E-03 0.  1.
         11    1    4    4    0    0 -0.65037539586E-01 -0.49126277693E-01 -0.21999935902E-01  0.84424706195E-01  0.51100000000E-03 0. -1.
</event>
<event>
 8    1  0.1079508E+005  0.1043930E+01  0.7957747E-01            NaN
         13   -1    0    0    0    0  0.00000000000E+00  0.00000000000E+00  0.74505805969E-08  0.10566000000E+00  0.10566000000E+00 0. -1.
     999900   -1    0    0    0    0 -0.00000000000E+00 -0.00000000000E+00 -0.74505805969E-08  0.93827000000E+00  0.93827000000E+00 0. -1.
     999902    2    1    2    0    0 -0.69388565087E-02  0.98090543627E-02 -0.20841679376E-01  0.10198729662E+01  0.10195891949E+01 0.  0.
     999903    2    3    3    0    0  0.10939043052E+00  0.67306831534E-01  0.28888334905E-02  0.13004060295E+00  0.20142919250E-01 0.  0.
         14    1    1    2    0    0  0.69388565087E-02 -0.98090543627E-02  0.20841679376E-01  0.24057033822E-01  0.00000000000E+00 0. -1.
     999901    1    3    3    0    0 -0.11632928703E+00 -0.57497777171E-01 -0.23730512866E-01  0.88983236322E+00  0.88000000000E+00 0.  1.
        -11    1    4    4    0    0  0.82310715229E-01  0.42125052789E-01  0.75141717322E-02  0.92770134266E-01  0.51100000000E-03 0. -1.
         11    1    4    4    0    0  0.27079715296E-01  0.25181778745E-01 -0.46253382417E-02  0.37270468686E-01  0.51100000000E-03 0.  1.
</event>
<event>
 8    1  0.1079508E+005  0.1043930E+01  0.7957747E-01            NaN
         13   -1    0    0    0    0  0.00000000000E+00  0.00000000000E+00  0.74505805969E-08  0.10566000000E+00  0.10566000000E+00 0. -1.
     999900   -1    0    0    0    0 -0.00000000000E+00 -0.00000000000E+00 -0.74505805969E-08  0.93827000000E+00  0.93827000000E+00 0.  1.
     999902    2    1    2    0    0  0.11834277611E-01  0.10440171124E-01  0.16972143221E-01  0.10207545616E+01  0.10204914375E+01 0.  0.
     999903    2    3    3    0    0  0.23175485372E-01 -0.12089870991E+00  0.38638579478E-01  0.13067144237E+00  0.20699875522E-01 0.  0.
         14    1    1    2    0    0 -0.11834277611E-01 -0.10440171124E-01 -0.16972143221E-01  0.23175438404E-01  0.00000000000E+00 0.  1.
     999901    1    3    3    0    0 -0.11341207761E-01  0.13133888104E+00 -0.21666436257E-01  0.89008311922E+00  0.88000000000E+00 0. -1.
        -11    1    4    4    0    0  0.12519524655E-01 -0.28338033355E-01  0.15608702832E-01  0.34694024804E-01  0.51100000000E-03 0. -1.
         11    1    4    4    0    0  0.10655960717E-01 -0.92560676559E-01  0.23029876647E-01  0.95977417569E-01  0.51100000000E-03 0.  1.
</event>
<event>
 8    1  0.1079508E+005  0.1043930E+01  0.7957747E-01            NaN
         13   -1    0    0    0    0  0.00000000000E+00  0.00000000000E+00  0.74505805969E-08  0.10566000000E+00  0.10566000000E+00 0.  1.
     999900   -1    0    0    0    0 -0.00000000000E+00 -0.00000000000E+00 -0.74505805969E-08  0.93827000000E+00  0.93827000000E+00 0.  1.
     999902    2    1    2    0    0  0.16457029884E-01  0.16550289564E-01  0.50310792279E-02  0.10200541194E+01  0.10197746559E+01 0.  0.
     999903    2    3    3    0    0 -0.78644003848E-01  0.10109612763E+00  0.17553389656E-01  0.13081342440E+00  0.19968078329E-01 0.  0.
         14    1    1    2    0    0 -0.16457029884E-01 -0.16550289564E-01 -0.50310792279E-02  0.23875880621E-01  0.00000000000E+00 0.  1.
     999901    1    3    3    0    0  0.95101033732E-01 -0.84545838063E-01 -0.12522310428E-01  0.88924069498E+00  0.88000000000E+00 0.  1.
        -11    1    4    4    0    0 -0.62039595884E-01  0.75217970948E-01  0.51017974830E-02  0.97636796698E-01  0.51100000000E-03 0.  1.
         11    1    4    4    0    0 -0.16604407964E-01  0.25878156679E-01  0.12451592173E-01  0.33176627701E-01  0.51100000000E-03 0. -1.
</event>
<event>
 8    1  0.1079508E+005  0.1043930E+01  0.7957747E-01            NaN
         13   -1    0    0    0    0  0.00000000000E+00  0.00000000000E+00  0.74505805969E-08  0.10566000000E+00  0.10566000000E+00 0. -1.
     999900   -1    0    0    0    0 -0.00000000000E+00 -0.00000000000E+00 -0.74505805969E-08  0.93827000000E+00  0.93827000000E+00 0. -1.
     999902    2    1    2    0    0 -0.76447005193E-02 -0.21554920751E-01  0.13395264359E-02  0.10210203866E+01  0.10207633318E+01 0.  0.
     999903    2    3    3    0    0 -0.47313518407E-01 -0.42375273506E-02  0.12129458159E+00  0.13182821251E+00  0.20242935233E-01 0.  0.
         14    1    1    2    0    0  0.76447005193E-02  0.21554920751E-01 -0.13395264359E-02  0.22909613390E-01  0.00000000000E+00 0. -1.
     999901    1    3    3    0    0  0.39668817888E-01 -0.17317393401E-01 -0.11995505516E+00  0.88919217410E+00  0.88000000000E+00 0. -1.
        -11    1    4    4    0    0 -0.41148737286E-01  0.13025388230E-02  0.83088784799E-01  0.92730375109E-01  0.51100000000E-03 0. -1.
         11    1    4    4    0    0 -0.61647811216E-02 -0.55400661736E-02  0.38205796795E-01  0.39097837398E-01  0.51100000000E-03 0.  1.
</event>
<event>
 8    1  0.1098240E+005  0.1043930E+01  0.7957747E-01            NaN
         13   -1    0    0    0    0  0.00000000000E+00  0.00000000000E+00  0.74505805969E-08  0.10566000000E+00  0.10566000000E+00 0. -1.
     999900   -1    0    0    0    0 -0.00000000000E+00 -0.00000000000E+00 -0.74505805969E-08  0.93827000000E+00  0.93827000000E+00 0. -1.
     999902    2    1    2    0    0 -0.36029807530E-02  0.23404513438E-01  0.44316992305E-02  0.10198386597E+01  0.10195540688E+01 0.  0.
     999903    2    3    3    0    0  0.91294309707E-01 -0.75036873513E-01 -0.44932866760E-01  0.12791205802E+00  0.19425465258E-01 0.  0.
         14    1    1    2    0    0  0.36029807530E-02 -0.23404513438E-01 -0.44316992305E-02  0.24091340304E-01  0.00000000000E+00 0.  1.
     999901    1    3    3    0    0 -0.94897290460E-01  0.98441386950E-01  0.49364565990E-01  0.89192660168E+00  0.88000000000E+00 0.  1.
        -11    1    4    4    0    0  0.39034889229E-01 -0.39990727375E-01 -0.13132935497E-01  0.57408326651E-01  0.51100000000E-03 0.  1.
         11    1    4    4    0    0  0.52259420478E-01 -0.35046146138E-01 -0.31799931262E-01  0.70503731370E-01  0.51100000000E-03 0. -1.
</event>
<event>
 8    1  0.1079508E+005  0.1043930E+01  0.7957747E-01            NaN
         13   -1    0    0    0    0  0.00000000000E+00  0.00000000000E+00  0.74505805969E-08  0.10566000000E+00  0.10566000000E+00 0.  1.
     999900   -1    0    0    0    0 -0.00000000000E+00 -0.00000000000E+00 -0.74505805969E-08  0.93827000000E+00  0.93827000000E+00 0. -1.
     999902    2    1    2    0    0  0.84383819398E-02  0.43538576983E-02  0.24620985589E-01  0.10175414552E+01  0.10171992222E+01 0.  0.
     999903    2    3    3    0    0  0.52183851083E-01 -0.78766407905E-01 -0.81259331748E-01  0.12623158413E+00  0.20100559878E-01 0.  0.
         14    1    1    2    0    0 -0.84383819398E-02 -0.43538576983E-02 -0.24620985589E-01  0.26388544825E-01  0.00000000000E+00 0. -1.
     999901    1    3    3    0    0 -0.43745469143E-01  0.83120265603E-01  0.10588031734E+00  0.89130987105E+00  0.88000000000E+00 0.  1.
        -11    1    4    4    0    0  0.24251933608E-01 -0.36934200196E-01 -0.51201513646E-01  0.67632444496E-01  0.51100000000E-03 0. -1.
         11    1    4    4    0    0  0.27931917475E-01 -0.41832207709E-01 -0.30057818102E-01  0.58599139633E-01  0.51100000000E-03 0.  1.
</event>
<event>
 8    1  0.1079508E+005  0.1043930E+01  0.7957747E-01            NaN
         13   -1    0    0    0    0  0.00000000000E+00  0.00000000000E+00  0.74505805969E-08  0.10566000000E+00  0.10566000000E+00 0. -1.
     999900   -1    0    0    0    0 -0.00000000000E+00 -0.00000000000E+00 -0.74505805969E-08  0.93827000000E+00  0.93827000000E+00 0.  1.
     999902    2    1    2    0    0 -0.55558745035E-02  0.23183872181E-01  0.99820045574E-03  0.10200688166E+01  0.10197897011E+01 0.  0.
     999903    2    3    3    0    0 -0.53568365351E-01 -0.10710537868E+00 -0.41214239850E-01  0.12818184038E+00  0.19769641563E-01 0.  0.
         14    1    1    2    0    0  0.55558745035E-02 -0.23183872181E-01 -0.99820045574E-03  0.23861183436E-01  0.00000000000E+00 0.  1.
     999901    1    3    3    0    0  0.48012490847E-01  0.13028925087E+00  0.42212440305E-01  0.89188697618E+00  0.88000000000E+00 0. -1.
        -11    1    4    4    0    0 -0.35024196674E-01 -0.87870876469E-01 -0.30493165506E-01  0.99388528250E-01  0.51100000000E-03 0. -1.
         11    1    4    4    0    0 -0.18544168677E-01 -0.19234502216E-01 -0.10721074343E-01  0.28793312131E-01  0.51100000000E-03 0.  1.
</event>
<event>
 8    1  0.1079508E+005  0.1043930E+01  0.7957747E-01            NaN
         13   -1    0    0    0    0  0.00000000000E+00  0.00000000000E+00  0.74505805969E-08  0.10566000000E+00  0.10566000000E+00 0.  1.
     999900   -1    0    0    0    0 -0.00000000000E+00 -0.00000000000E+00 -0.74505805969E-08  0.93827000000E+00  0.93827000000E+00 0. -1.
     999902    2    1    2    0    0 -0.18304287664E-01 -0.36450951018E-02 -0.14428269791E-01  0.10203395648E+01  0.10200668208E+01 0.  0.
     999903    2    3    3    0    0 -0.36539696799E-01  0.98283506145E-01 -0.77632266087E-01  0.13201714861E+00  0.20173293430E-01 0.  0.
         14    1    1    2    0    0  0.18304287664E-01  0.36450951018E-02  0.14428269791E-01  0.23590435230E-01  0.00000000000E+00 0. -1.
     999901    1    3    3    0    0  0.18235409135E-01 -0.10192860125E+00  0.63203996297E-01  0.88832241616E+00  0.88000000000E+00 0.  1.
        -11    1    4    4    0    0 -0.22751999265E-01  0.34136245570E-01 -0.26625566221E-01  0.48909289810E-01  0.51100000000E-03 0. -1.
         11    1    4    4    0    0 -0.13787697535E-01  0.64147260575E-01 -0.51006699867E-01  0.83107858803E-01  0.51100000000E-03 0.  1.
</event>
<event>
 8    1  0.1079508E+005  0.1043930E+01  0.7957747E-01            NaN
         13   -1    0    0    0    0  0.00000000000E+00  0.00000000000E+00  0.74505805969E-08  0.10566000000E+00  0.10566000000E+00 0. -1.
     999900   -1    0    0    0    0 -0.00000000000E+00 -0.00000000000E+00 -0.74505805969E-08  0.93827000000E+00  0.93827000000E+00 0.  1.
     999902    2    1    2    0    0  0.10947250114E-01 -0.21524894502E-01  0.20593401972E-02  0.10196935760E+01  0.10194055055E+01 0.  0.
     999903    2    3    3    0    0 -0.20368235894E-01 -0.12172989437E+00 -0.43460934545E-01  0.13228510345E+00  0.19428421109E-01 0.  0.
         14    1    1    2    0    0 -0.10947250114E-01  0.21524894502E-01 -0.20593401972E-02  0.24236424044E-01  0.00000000000E+00 0. -1.
     999901    1    3    3    0    0  0.31315486008E-01  0.10020499987E+00  0.45520274742E-01  0.88740847251E+00  0.88000000000E+00 0.  1.
        -11    1    4    4    0    0 -0.68642981241E-02 -0.86396833373E-02 -0.37097831792E-02  0.11652739126E-01  0.51100000000E-03 0.  1.
         11    1    4    4    0    0 -0.13503937770E-01 -0.11309021103E+00 -0.39751151366E-01  0.12063236432E+00  0.51100000000E-03 0. -1.
</event>
<event>
 8    1  0.1079508E+005  0.1043930E+01  0.7957747E-01            NaN
         13   -1    0    0    0    0  0.00000000000E+00  0.00000000000E+00  0.74505805969E-08  0.10566000000E+00  0.10566000000E+00 0.  1.
     999900   -1    0    0    0    0 -0.00000000000E+00 -0.00000000000E+00 -0.74505805969E-08  0.93827000000E+00  0.93827000000E+00 0.  1.
     999902    2    1    2    0    0 -0.52777837733E-02  0.22612297175E-01 -0.34924900077E-04  0.10207099181E+01  0.10204457676E+01 0.  0.
     999903    2    3    3    0    0 -0.59642846890E-01 -0.87563087543E-01  0.71438480108E-01  0.12930505881E+00  0.19793390543E-01 0.  0.
         14    1    1    2    0    0  0.52777837733E-02 -0.22612297175E-01  0.34924900077E-04  0.23220081930E-01  0.00000000000E+00 0. -1.
     999901    1    3    3    0    0  0.54365063117E-01  0.11017538472E+00 -0.71473405008E-01  0.89140485926E+00  0.88000000000E+00 0. -1.
        -11    1    4    4    0    0 -0.22116842870E-01 -0.49698972457E-01  0.38356973800E-01  0.66563211776E-01  0.51100000000E-03 0.  1.
         11    1    4    4    0    0 -0.37526004021E-01 -0.37864115085E-01  0.33081506308E-01  0.62741847037E-01  0.51100000000E-03 0. -1.
</event>
<event>
 8    1  0.1079508E+005  0.1043930E+01  0.7957747E-01            NaN
         13   -1    0    0    0    0  0.00000000000E+00  0.00000000000E+00  0.74505805969E-08  0.10566000000E+00  0.10566000000E+00 0.  1.
     999900   -1    0    0    0    0 -0.00000000000E+00 -0.00000000000E+00 -0.74505805969E-08  0.93827000000E+00  0.93827000000E+00 0. -1.
     999902    2    1    2    0    0 -0.12711900595E-01 -0.14194201579E-01  0.15304987134E-01  0.10194900653E+01  0.10191970776E+01 0.  0.
     999903    2    3    3    0    0  0.10252632693E+00 -0.40203175818E-01 -0.62143214209E-01  0.12822436998E+00  0.21254809450E-01 0.  0.
         14    1    1    2    0    0  0.12711900595E-01  0.14194201579E-01 -0.15304987134E-01  0.24439934663E-01  0.00000000000E+00 0. -1.
     999901    1    3    3    0    0 -0.11523822753E+00  0.26008974239E-01  0.77448201343E-01  0.89126569535E+00  0.88000000000E+00 0.  1.
        -11    1    4    4    0    0  0.43765458467E-01 -0.28295102951E-01 -0.31372728618E-01  0.60832042772E-01  0.51100000000E-03 0. -1.
         11    1    4    4    0    0  0.58760868466E-01 -0.11908072867E-01 -0.30770485592E-01  0.67392327210E-01  0.51100000000E-03 0.  1.
</event>
<event>
 8    1  0.1079508E+005  0.1043930E+01  0.7957747E-01            NaN
         13   -1    0    0    0    0  0.00000000000E+00  0.00000000000E+00  0.74505805969E-08  0.10566000000E+00  0.10566000000E+00 0.  1.
     999900   -1    0    0    0    0 -0.00000000000E+00 -0.00000000000E+00 -0.74505805969E-08  0.93827000000E+00  0.93827000000E+00 0.  1.
     999902    2    1    2    0    0  0.14732446462E-01  0.78487483560E-02 -0.16473658640E-01  0.10204772974E+01  0.10202077657E+01 0.  0.
     999903    2    3    3    0    0  0.92155984533E-01 -0.10205619730E-01  0.89707009480E-01  0.13053645740E+00  0.19888162313E-01 0.  0.
         14    1    1    2    0    0 -0.14732446462E-01 -0.78487483560E-02  0.16473658640E-01  0.23452702584E-01  0.00000000000E+00 0. -1.
     999901    1    3    3    0    0 -0.77423538071E-01  0.18054368086E-01 -0.10618066812E+00  0.88994084002E+00  0.88000000000E+00 0.  1.
        -11    1    4    4    0    0  0.45000310140E-01 -0.14974100857E-01  0.44672727939E-01  0.65154933441E-01  0.51100000000E-03 0.  1.
         11    1    4    4    0    0  0.47155674393E-01  0.47684811268E-02  0.45034281541E-01  0.65381523955E-01  0.51100000000E-03 0. -1.
</event>
<event>
 8    1  0.1079508E+005  0.1043930E+01  0.7957747E-01            NaN
         13   -1    0    0    0    0  0.00000000000E+00  0.00000000000E+00  0.74505805969E-08  0.10566000000E+00  0.10566000000E+00 0. -1.
     999900   -1    0    0    0    0 -0.00000000000E+00 -0.00000000000E+00 -0.74505805969E-08  0.93827000000E+00  0.93827000000E+00 0. -1.
     999902    2    1    2    0    0  0.13340126059E-01  0.17755377205E-02  0.18689588556E-01  0.10208993201E+01  0.10206395101E+01 0.  0.
     999903    2    3    3    0    0  0.35399241747E-01 -0.91881367969E-01 -0.82362798839E-01  0.12990560205E+00  0.19913380276E-01 0.  0.
         14    1    1    2    0    0 -0.13340126059E-01 -0.17755377205E-02 -0.18689588556E-01  0.23030679926E-01  0.00000000000E+00 0.  1.
     999901    1    3    3    0    0 -0.22059115688E-01  0.93656905690E-01  0.10105238740E+00  0.89099371803E+00  0.88000000000E+00 0.  1.
        -11    1    4    4    0    0  0.27918227905E-01 -0.60003480102E-01 -0.65320554830E-01  0.92988607248E-01  0.51100000000E-03 0. -1.
         11    1    4    4    0    0  0.74810138413E-02 -0.31877887867E-01 -0.17042244009E-01  0.36916994797E-01  0.51100000000E-03 0.  1.
</event>
<event>
 8    1  0.1079508E+005  0.1043930E+01  0.7957747E-01            NaN
         13   -1    0    0    0    0  0.00000000000E+00  0.00000000000E+00  0.74505805969E-08  0.10566000000E+00  0.10566000000E+00 0.  1.
     999900   -1    0    0    0    0 -0.00000000000E+00 -0.00000000000E+00 -0.74505805969E-08  0.93827000000E+00  0.93827000000E+00 0. -1.
     999902    2    1    2    0    0  0.13699903063E-01  0.10223486168E-01  0.15892309344E-01  0.10205896378E+01  0.10203227118E+01 0.  0.
     999903    2    3    3    0    0  0.96818309805E-01  0.42638895539E-01 -0.75257389522E-01  0.13139466706E+00  0.20224325175E-01 0.  0.
         14    1    1    2    0    0 -0.13699903063E-01 -0.10223486168E-01 -0.15892309344E-01  0.23340362243E-01  0.00000000000E+00 0. -1.
     999901    1    3    3    0    0 -0.83118406742E-01 -0.32415409372E-01  0.91149698865E-01  0.88919497069E+00  0.88000000000E+00 0.  1.
        -11    1    4    4    0    0  0.41866367924E-01  0.90535193750E-02 -0.36105234969E-01  0.56023281673E-01  0.51100000000E-03 0. -1.
         11    1    4    4    0    0  0.54951941880E-01  0.33585376164E-01 -0.39152154552E-01  0.75371385390E-01  0.51100000000E-03 0.  1.
</event>
<event>
 8    1  0.1079508E+005  0.1043930E+01  0.7957747E-01            NaN
         13   -1    0    0    0    0  0.00000000000E+00  0.00000000000E+00  0.74505805969E-08  0.10566000000E+00  0.10566000000E+00 0.  1.
     999900   -1    0    0    0    0 -0.00000000000E+00 -0.00000000000E+00 -0.74505805969E-08  0.93827000000E+00  0.93827000000E+00 0. -1.
     999902    2    1    2    0    0  0.15581663842E-01 -0.24630652133E-02 -0.18540142701E-01  0.10195867909E+01  0.10192961455E+01 0.  0.
     999903    2    3    3    0    0 -0.74463021363E-01 -0.37221142188E-01 -0.98613129265E-01  0.13069542946E+00  0.20654080521E-01 0.  0.
         14    1    1    2    0    0 -0.15581663842E-01  0.24630652133E-02  0.18540142701E-01  0.24343209109E-01  0.00000000000E+00 0.  1.
     999901    1    3    3    0    0  0.90044685205E-01  0.34758076975E-01  0.80072986564E-01  0.88889136143E+00  0.88000000000E+00 0.  1.
        -11    1    4    4    0    0 -0.53057159960E-01 -0.29318510501E-01 -0.84015906416E-01  0.10360294848E+00  0.51100000000E-03 0. -1.
         11    1    4    4    0    0 -0.21405861404E-01 -0.79026316873E-02 -0.14597222849E-01  0.27092480985E-01  0.51100000000E-03 0.  1.
</event>
<event>
 8    1  0.1079508E+005  0.1043930E+01  0.7957747E-01            NaN
         13   -1    0    0    0    0  0.00000000000E+00  0.00000000000E+00  0.74505805969E-08  0.10566000000E+00  0.10566000000E+00 0. -1.
     999900   -1    0    0    0    0 -0.00000000000E+00 -0.00000000000E+00 -0.74505805969E-08  0.93827000000E+00  0.93827000000E+00 0. -1.
     999902    2    1    2    0    0 -0.83977184089E-02  0.42530899809E-02  0.11656063964E-01  0.10289475344E+01  0.10288384490E+01 0.  0.
     999903    2    3    3    0    0 -0.20320893291E-01 -0.12695805952E+00  0.47275299184E-01  0.13842675542E+00  0.19892840943E-01 0.  0.
         14    1    1    2    0    0  0.83977184089E-02 -0.42530899809E-02 -0.11656063964E-01  0.14982465618E-01  0.00000000000E+00 0.  1.
     999901    1    3    3    0    0  0.11923174882E-01  0.13121114950E+00 -0.35619235220E-01  0.89052077897E+00  0.88000000000E+00 0. -1.
        -11    1    4    4    0    0 -0.98118096870E-02 -0.22343032620E-01  0.14031647351E-01  0.28153702498E-01  0.51100000000E-03 0.  1.
         11    1    4    4    0    0 -0.10509083604E-01 -0.10461502690E+00  0.33243651833E-01  0.11027305292E+00  0.51100000000E-03 0. -1.
</event>
<event>
 8    1  0.1079508E+005  0.1043930E+01  0.7957747E-01            NaN
         13   -1    0    0    0    0  0.00000000000E+00  0.00000000000E+00  0.74505805969E-08  0.10566000000E+00  0.10566000000E+00 0.  1.
     999900   -1    0    0    0    0 -0.00000000000E+00 -0.00000000000E+00 -0.74505805969E-08  0.93827000000E+00  0.93827000000E+00 0. -1.
     999902    2    1    2    0    0  0.93892977524E-02  0.15129170065E-01 -0.15564134953E-01  0.10202806238E+01  0.10200064991E+01 0.  0.
     999903    2    3    3    0    0 -0.42930073439E-01  0.11190087752E+00  0.49254388042E-01  0.13106550869E+00  0.19681850307E-01 0.  0.
         14    1    1    2    0    0 -0.93892977524E-02 -0.15129170065E-01  0.15564134953E-01  0.23649376228E-01  0.00000000000E+00 0.  1.
     999901    1    3    3    0    0  0.52319371191E-01 -0.96771707456E-01 -0.64818522995E-01  0.88921511508E+00  0.88000000000E+00 0. -1.
        -11    1    4    4    0    0 -0.42228325557E-01  0.96089995113E-01  0.47245331201E-01  0.11510387084E+00  0.51100000000E-03 0.  1.
         11    1    4    4    0    0 -0.70174788169E-03  0.15810882408E-01  0.20090568410E-02  0.15961637854E-01  0.51100000000E-03 0. -1.
</event>
<event>
 8    1  0.1079508E+005  0.1043930E+01  0.7957747E-01            NaN
         13   -1    0    0    0    0  0.00000000000E+00  0.00000000000E+00  0.74505805969E-08  0.10566000000E+00  0.10566000000E+00 0.  1.
     999900   -1    0    0    0    0 -0.00000000000E+00 -0.00000000000E+00 -0.74505805969E-08  0.93827000000E+00  0.93827000000E+00 0.  1.
     999902    2    1    2    0    0 -0.16345379010E-01  0.52736192624E-02  0.16962907421E-01  0.10197903500E+01  0.10195046028E+01 0.  0.
     999903    2    3    3    0    0 -0.37320684378E-01  0.76729906735E-01 -0.95415321743E-01  0.12952363104E+00  0.19798366210E-01 0.  0.
         14    1    1    2    0    0  0.16345379010E-01 -0.52736192624E-02 -0.16962907421E-01  0.24139650024E-01  0.00000000000E+00 0. -1.
     999901    1    3    3    0    0  0.20975305367E-01 -0.71456287472E-01  0.11237822916E+00  0.89026671894E+00  0.88000000000E+00 0. -1.
        -11    1    4    4    0    0 -0.79831126938E-02  0.38569941562E-01 -0.45414068776E-01  0.60117129374E-01  0.51100000000E-03 0. -1.
         11    1    4    4    0    0 -0.29337571684E-01  0.38159965173E-01 -0.50001252967E-01  0.69406501666E-01  0.51100000000E-03 0.  1.
</event>
<event>
 8    1  0.1079508E+005  0.1043930E+01  0.7957747E-01            NaN
         13   -1    0    0    0    0  0.00000000000E+00  0.00000000000E+00  0.74505805969E-08  0.10566000000E+00  0.10566000000E+00 0. -1.
     999900   -1    0    0    0    0 -0.00000000000E+00 -0.00000000000E+00 -0.74505805969E-08  0.93827000000E+00  0.93827000000E+00 0. -1.
     999902    2    1    2    0    0 -0.11991445306E-01 -0.19341200307E-01 -0.32846704390E-02  0.10209372653E+01  0.10206783204E+01 0.  0.
     999903    2    3    3    0    0  0.68811641383E-01 -0.32030952196E-01  0.10471740640E+00  0.13056957875E+00  0.17934765247E-01 0.  0.
         14    1    1    2    0    0  0.11991445306E-01  0.19341200307E-01  0.32846704390E-02  0.22992734717E-01  0.00000000000E+00 0. -1.
     999901    1    3    3    0    0 -0.80803086689E-01  0.12689751889E-01 -0.10800207683E+00  0.89036768653E+00  0.88000000000E+00 0. -1.
        -11    1    4    4    0    0  0.35810518420E-01 -0.14057168117E-01  0.38489428205E-01  0.54421451740E-01  0.51100000000E-03 0.  1.
         11    1    4    4    0    0  0.33001122963E-01 -0.17973784079E-01  0.66227978191E-01  0.76148127010E-01  0.51100000000E-03 0. -1.
</event>
<event>
 8    1  0.1079508E+005  0.1043930E+01  0.7957747E-01            NaN
         13   -1    0    0    0    0  0.00000000000E+00  0.00000000000E+00  0.74505805969E-08  0.10566000000E+00  0.10566000000E+00 0. -1.
     999900   -1    0    0    0    0 -0.00000000000E+00 -0.00000000000E+00 -0.74505805969E-08  0.93827000000E+00  0.93827000000E+00 0. -1.
     999902    2    1    2    0    0 -0.12441466968E-01 -0.17035622844E-01  0.11171644698E-01  0.10200593446E+01  0.10197800048E+01 0.  0.
     999903    2    3    3    0    0 -0.11810325872E+00 -0.44261478100E-01  0.36959525315E-01  0.13294566739E+00  0.20027126661E-01 0.  0.
         14    1    1    2    0    0  0.12441466968E-01  0.17035622844E-01 -0.11171644698E-01  0.23870655443E-01  0.00000000000E+00 0.  1.
     999901    1    3    3    0    0  0.10566179175E+00  0.27225855256E-01 -0.25787880617E-01  0.88711367717E+00  0.88000000000E+00 0.  1.
        -11    1    4    4    0    0 -0.22893803262E-01 -0.11342852871E-01 -0.24019431622E-03  0.25555925993E-01  0.51100000000E-03 0.  1.
         11    1    4    4    0    0 -0.95209455458E-01 -0.32918625228E-01  0.37199719632E-01  0.10738974140E+00  0.51100000000E-03 0. -1.
</event>
<event>
 8    1  0.1079508E+005  0.1043930E+01  0.7957747E-01            NaN
         13   -1    0    0    0    0  0.00000000000E+00  0.00000000000E+00  0.74505805969E-08  0.10566000000E+00  0.10566000000E+00 0.  1.
     999900   -1    0    0    0    0 -0.00000000000E+00 -0.00000000000E+00 -0.74505805969E-08  0.93827000000E+00  0.93827000000E+00 0. -1.
     999902    2    1    2    0    0  0.93646428744E-02  0.14211368713E-01 -0.15875720549E-01  0.10206555926E+01  0.10203901904E+01 0.  0.
     999903    2    3    3    0    0 -0.58919377683E-01 -0.11275478326E+00 -0.10442780157E-02  0.12880185857E+00  0.20092138751E-01 0.  0.
         14    1    1    2    0    0 -0.93646428744E-02 -0.14211368713E-01  0.15875720549E-01  0.23274407400E-01  0.00000000000E+00 0.  1.
     999901    1    3    3    0    0  0.68284020557E-01  0.12696615198E+00 -0.14831442533E-01  0.89185373403E+00  0.88000000000E+00 0. -1.
        -11    1    4    4    0    0 -0.23397902339E-01 -0.44727901123E-01  0.94050209958E-02  0.51349415904E-01  0.51100000000E-03 0. -1.
         11    1    4    4    0    0 -0.35521475344E-01 -0.68026882142E-01 -0.10449299011E-01  0.77452442669E-01  0.51100000000E-03 0.  1.
</event>
<event>
 8    1  0.1079508E+005  0.1043930E+01  0.7957747E-01            NaN
         13   -1    0    0    0    0  0.00000000000E+00  0.00000000000E+00  0.74505805969E-08  0.10566000000E+00  0.10566000000E+00 0.  1.
     999900   -1    0    0    0    0 -0.00000000000E+00 -0.00000000000E+00 -0.74505805969E-08  0.93827000000E+00  0.93827000000E+00 0.  1.
     999902    2    1    2    0    0 -0.14310969570E-01  0.18461673090E-01 -0.90855888877E-02  0.10188663780E+01  0.10185580548E+01 0.  0.
     999903    2    3    3    0    0  0.10397783945E+00  0.72713117812E-01 -0.15342180238E-01  0.12927399575E+00  0.19436946356E-01 0.  0.
         14    1    1    2    0    0  0.14310969570E-01 -0.18461673090E-01  0.90855888877E-02  0.25063622019E-01  0.00000000000E+00 0. -1.
     999901    1    3    3    0    0 -0.11828880902E+00 -0.54251444723E-01  0.62565913504E-02  0.88959238223E+00  0.88000000000E+00 0.  1.
        -11    1    4    4    0    0  0.58105563240E-01  0.35429963238E-01 -0.16953772256E-01  0.70137224704E-01  0.51100000000E-03 0. -1.
         11    1    4    4    0    0  0.45872276208E-01  0.37283154575E-01  0.16115920182E-02  0.59136771043E-01  0.51100000000E-03 0.  1.
</event>
<event>
 8    1  0.1079508E+005  0.1043930E+01  0.7957747E-01            NaN
         13   -1    0    0    0    0  0.00000000000E+00  0.00000000000E+00  0.74505805969E-08  0.10566000000E+00  0.10566000000E+00 0. -1.
     999900   -1    0    0    0    0 -0.00000000000E+00 -0.00000000000E+00 -0.74505805969E-08  0.93827000000E+00  0.93827000000E+00 0.  1.
     999902    2    1    2    0    0 -0.15172695812E-01  0.13687188467E-01 -0.11936081860E-01  0.10202652609E+01  0.10199907758E+01 0.  0.
     999903    2    3    3    0    0  0.11422998026E+00 -0.22418243802E-01 -0.52402516538E-01  0.12915012404E+00  0.19561818794E-01 0.  0.
         14    1    1    2    0    0  0.15172695812E-01 -0.13687188467E-01  0.11936081860E-01  0.23664739096E-01  0.00000000000E+00 0.  1.
     999901    1    3    3    0    0 -0.12940267607E+00  0.36105432269E-01  0.40466434679E-01  0.89111513686E+00  0.88000000000E+00 0.  1.
        -11    1    4    4    0    0  0.36516160122E-01  0.20151195958E-02 -0.16299418901E-01  0.40042762574E-01  0.51100000000E-03 0.  1.
         11    1    4    4    0    0  0.77713820137E-01 -0.24433363397E-01 -0.36103097637E-01  0.89107361465E-01  0.51100000000E-03 0. -1.
</event>
<event>
 8    1  0.1079508E+005  0.1043930E+01  0.7957747E-01            NaN
         13   -1    0    0    0    0  0.00000000000E+00  0.00000000000E+00  0.74505805969E-08  0.10566000000E+00  0.10566000000E+00 0.  1.
     999900   -1    0    0    0    0 -0.00000000000E+00 -0.00000000000E+00 -0.74505805969E-08  0.93827000000E+00  0.93827000000E+00 0.  1.
     999902    2    1    2    0    0 -0.20101996786E-01 -0.18898427070E-02  0.14185444630E-01  0.10192543314E+01  0.10189555945E+01 0.  0.
     999903    2    3    3    0    0 -0.75889175873E-01  0.10098644630E-01 -0.10277306453E+00  0.12968408347E+00  0.19862252548E-01 0.  0.
         14    1    1    2    0    0  0.20101996786E-01  0.18898427070E-02 -0.14185444630E-01  0.24675668574E-01  0.00000000000E+00 0. -1.
     999901    1    3    3    0    0  0.55787179087E-01 -0.11988487337E-01  0.11695850915E+00  0.88957024795E+00  0.88000000000E+00 0. -1.
        -11    1    4    4    0    0 -0.35901681734E-01  0.25226461292E-02 -0.64234145846E-01  0.73631386707E-01  0.51100000000E-03 0.  1.
         11    1    4    4    0    0 -0.39987494139E-01  0.75759985009E-02 -0.38538918680E-01  0.56052696766E-01  0.51100000000E-03 0. -1.
</event>
<event>
 8    1  0.1079508E+005  0.1043930E+01  0.7957747E-01            NaN
         13   -1    0    0    0    0  0.00000000000E+00  0.00000000000E+00  0.74505805969E-08  0.10566000000E+00  0.10566000000E+00 0.  1.
     999900   -1    0    0    0    0 -0.00000000000E+00 -0.00000000000E+00 -0.74505805969E-08  0.93827000000E+00  0.93827000000E+00 0. -1.
     999902    2    1    2    0    0 -0.30821956867E-02  0.17618092557E-01  0.17181102766E-01  0.10191290442E+01  0.10188272284E+01 0.  0.
     999903    2    3    3    0    0 -0.22262403686E-01  0.56288388093E-01  0.11621064836E+00  0.13252308719E+00  0.19835740287E-01 0.  0.
         14    1    1    2    0    0  0.30821956867E-02 -0.17618092557E-01 -0.17181102766E-01  0.24800955785E-01  0.00000000000E+00 0. -1.
     999901    1    3    3    0    0  0.19180208000E-01 -0.38670295537E-01 -0.99029545596E-01  0.88660595703E+00  0.88000000000E+00 0. -1.
        -11    1    4    4    0    0 -0.20907015711E-01  0.41163698066E-01  0.69803345604E-01  0.83691824708E-01  0.51100000000E-03 0.  1.
         11    1    4    4    0    0 -0.13553879748E-02  0.15124690027E-01  0.46407302758E-01  0.48831262479E-01  0.51100000000E-03 0. -1.
</event>
<event>
 8    1  0.1079508E+005  0.1043930E+01  0.7957747E-01            NaN
         13   -1    0    0    0    0  0.00000000000E+00  0.00000000000E+00  0.74505805969E-08  0.10566000000E+00  0.10566000000E+00 0. -1.
     999900   -1    0    0    0    0 -0.00000000000E+00 -0.00000000000E+00 -0.74505805969E-08  0.93827000000E+00  0.93827000000E+00 0.  1.
     999902    2    1    2    0    0 -0.16228030030E-01  0.36134897273E-02  0.16002431604E-01  0.10208543833E+01  0.10205935469E+01 0.  0.
     999903    2    3    3    0    0  0.69606834347E-01  0.92566582419E-01 -0.54323678488E-01  0.12943639026E+00  0.19723932416E-01 0.  0.
         14    1    1    2    0    0  0.16228030030E-01 -0.36134897273E-02 -0.16002431604E-01  0.23075616653E-01  0.00000000000E+00 0. -1.
     999901    1    3    3    0    0 -0.85834864378E-01 -0.88953092692E-01  0.70326110092E-01  0.89141799309E+00  0.88000000000E+00 0.  1.
        -11    1    4    4    0    0  0.19709474063E-01  0.34368654463E-01 -0.99266632102E-02  0.40846879207E-01  0.51100000000E-03 0.  1.
         11    1    4    4    0    0  0.49897360284E-01  0.58197927956E-01 -0.44397015278E-01  0.88589511051E-01  0.51100000000E-03 0. -1.
</event>
<event>
 8    1  0.1079508E+005  0.1043930E+01  0.7957747E-01            NaN
         13   -1    0    0    0    0  0.00000000000E+00  0.00000000000E+00  0.74505805969E-08  0.10566000000E+00  0.10566000000E+00 0. -1.
     999900   -1    0    0    0    0 -0.00000000000E+00 -0.00000000000E+00 -0.74505805969E-08  0.93827000000E+00  0.93827000000E+00 0. -1.
     999902    2    1    2    0    0  0.47431342050E-02  0.64003667166E-02  0.22916865425E-01  0.10196679981E+01  0.10193793119E+01 0.  0.
     999903    2    3    3    0    0 -0.67955442202E-01 -0.10811673073E-01 -0.10517783771E+00  0.12726136975E+00  0.19956058844E-01 0.  0.
         14    1    1    2    0    0 -0.47431342050E-02 -0.64003667166E-02 -0.22916865425E-01  0.24262001918E-01  0.00000000000E+00 0.  1.
     999901    1    3    3    0    0  0.72698576407E-01  0.17212039789E-01  0.12809470314E+00  0.89240662834E+00  0.88000000000E+00 0.  1.
        -11    1    4    4    0    0 -0.47099460689E-01 -0.16616289217E-01 -0.71304080983E-01  0.87057414104E-01  0.51100000000E-03 0. -1.
         11    1    4    4    0    0 -0.20855981514E-01  0.58046161441E-02 -0.33873756728E-01  0.40203955643E-01  0.51100000000E-03 0.  1.
</event>
<event>
 8    1  0.1079508E+005  0.1043930E+01  0.7957747E-01            NaN
         13   -1    0    0    0    0  0.00000000000E+00  0.00000000000E+00  0.74505805969E-08  0.10566000000E+00  0.10566000000E+00 0. -1.
     999900   -1    0    0    0    0 -0.00000000000E+00 -0.00000000000E+00 -0.74505805969E-08  0.93827000000E+00  0.93827000000E+00 0.  1.
     999902    2    1    2    0    0 -0.90220105278E-02 -0.72764704178E-02  0.21218003218E-01  0.10197525858E+01  0.10194659332E+01 0.  0.
     999903    2    3    3    0    0  0.71721481950E-01  0.33866107259E-01 -0.97480509867E-01  0.12717118321E+00  0.19472438011E-01 0.  0.
         14    1    1    2    0    0  0.90220105278E-02  0.72764704178E-02 -0.21218003218E-01  0.24177414177E-01  0.00000000000E+00 0.  1.
     999901    1    3    3    0    0 -0.80743492477E-01 -0.41142577676E-01  0.11869851309E+00  0.89258140261E+00  0.88000000000E+00 0. -1.
        -11    1    4    4    0    0  0.47040553297E-01  0.30451233548E-01 -0.59412768803E-01  0.81671472969E-01  0.51100000000E-03 0. -1.
         11    1    4    4    0    0  0.24680928652E-01  0.34148737103E-02 -0.38067741064E-01  0.45499710244E-01  0.51100000000E-03 0.  1.
</event>
<event>
 8    1  0.1079508E+005  0.1043930E+01  0.7957747E-01            NaN
         13   -1    0    0    0    0  0.00000000000E+00  0.00000000000E+00  0.74505805969E-08  0.10566000000E+00  0.10566000000E+00 0.  1.
     999900   -1    0    0    0    0 -0.00000000000E+00 -0.00000000000E+00 -0.74505805969E-08  0.93827000000E+00  0.93827000000E+00 0. -1.
     999902    2    1    2    0    0 -0.33123976163E-01  0.74781866173E-03 -0.13723693979E-01  0.10080678081E+01  0.10074297042E+01 0.  0.
     999903    2    3    3    0    0 -0.95129709421E-01 -0.74615572565E-01  0.28565261077E-02  0.12251755241E+00  0.19627674957E-01 0.  0.
         14    1    1    2    0    0  0.33123976163E-01 -0.74781866173E-03  0.13723693979E-01  0.35862191874E-01  0.00000000000E+00 0.  1.
     999901    1    3    3    0    0  0.62005733258E-01  0.75363391226E-01 -0.16580220087E-01  0.88555025571E+00  0.88000000000E+00 0. -1.
        -11    1    4    4    0    0 -0.64102663206E-01 -0.60916307352E-01  0.46062758738E-02  0.88551831319E-01  0.51100000000E-03 0.  1.
         11    1    4    4    0    0 -0.31027046215E-01 -0.13699265212E-01 -0.17497497661E-02  0.33965721094E-01  0.51100000000E-03 0. -1.
</event>
<event>
 8    1  0.1079508E+005  0.1043930E+01  0.7957747E-01            NaN
         13   -1    0    0    0    0  0.00000000000E+00  0.00000000000E+00  0.74505805969E-08  0.10566000000E+00  0.10566000000E+00 0. -1.
     999900   -1    0    0    0    0 -0.00000000000E+00 -0.00000000000E+00 -0.74505805969E-08  0.93827000000E+00  0.93827000000E+00 0.  1.
     999902    2    1    2    0    0  0.21829551372E-01 -0.90788956585E-02 -0.43943560576E-02  0.10198828375E+01  0.10195993018E+01 0.  0.
     999903    2    3    3    0    0 -0.87334360585E-01 -0.53654693508E-01 -0.76582817611E-01  0.12908828463E+00  0.17109663973E-01 0.  0.
         14    1    1    2    0    0 -0.21829551372E-01  0.90788956585E-02  0.43943560576E-02  0.24047162507E-01  0.00000000000E+00 0. -1.
     999901    1    3    3    0    0  0.10916391196E+00  0.44575797850E-01  0.72188461554E-01  0.89079455286E+00  0.88000000000E+00 0. -1.
        -11    1    4    4    0    0 -0.59787316064E-01 -0.28644319621E-01 -0.43466910524E-01  0.79275807407E-01  0.51100000000E-03 0.  1.
         11    1    4    4    0    0 -0.27547044522E-01 -0.25010373887E-01 -0.33115907088E-01  0.49812477223E-01  0.51100000000E-03 0. -1.
</event>
<event>
 8    1  0.1079508E+005  0.1043930E+01  0.7957747E-01            NaN
         13   -1    0    0    0    0  0.00000000000E+00  0.00000000000E+00  0.74505805969E-08  0.10566000000E+00  0.10566000000E+00 0. -1.
     999900   -1    0    0    0    0 -0.00000000000E+00 -0.00000000000E+00 -0.74505805969E-08  0.93827000000E+00  0.93827000000E+00 0. -1.
     999902    2    1    2    0    0 -0.11144127144E-02  0.18364675692E-01 -0.14397944583E-01  0.10205675507E+01  0.10203001135E+01 0.  0.
     999903    2    3    3    0    0  0.11091215234E+00  0.61293988710E-01  0.28471637696E-01  0.13139339550E+00  0.19877918363E-01 0.  0.
         14    1    1    2    0    0  0.11144127144E-02 -0.18364675692E-01  0.14397944583E-01  0.23362449297E-01  0.00000000000E+00 0. -1.
     999901    1    3    3    0    0 -0.11202656506E+00 -0.42929313018E-01 -0.42869582279E-01  0.88917415520E+00  0.88000000000E+00 0.  1.
        -11    1    4    4    0    0  0.88549818429E-01  0.42578763572E-01  0.15489737882E-01  0.99469666491E-01  0.51100000000E-03 0. -1.
         11    1    4    4    0    0  0.22362333914E-01  0.18715225138E-01  0.12981899814E-01  0.31923729009E-01  0.51100000000E-03 0.  1.
</event>
<event>
 8    1  0.1079508E+005  0.1043930E+01  0.7957747E-01            NaN
         13   -1    0    0    0    0  0.00000000000E+00  0.00000000000E+00  0.74505805969E-08  0.10566000000E+00  0.10566000000E+00 0. -1.
     999900   -1    0    0    0    0 -0.00000000000E+00 -0.00000000000E+00 -0.74505805969E-08  0.93827000000E+00  0.93827000000E+00 0.  1.
     999902    2    1    2    0    0  0.21145982605E-01  0.74908450918E-02 -0.60202917590E-02  0.10207026615E+01  0.10204383440E+01 0.  0.
     999903    2    3    3    0    0  0.12684063824E+00 -0.31666904560E-01 -0.16672424872E-01  0.13344950850E+00  0.20963330238E-01 0.  0.
         14    1    1    2    0    0 -0.21145982605E-01 -0.74908450918E-02  0.60202917590E-02  0.23227338491E-01  0.00000000000E+00 0.  1.
     999901    1    3    3    0    0 -0.10569465563E+00  0.39157749652E-01  0.10652133113E-01  0.88725315301E+00  0.88000000000E+00 0.  1.
        -11    1    4    4    0    0  0.81918819794E-01 -0.26724387651E-01 -0.18828280020E-01  0.88202330929E-01  0.51100000000E-03 0.  1.
         11    1    4    4    0    0  0.44921818443E-01 -0.49425169094E-02  0.21558551484E-02  0.45247177570E-01  0.51100000000E-03 0. -1.
</event>
<event>
 8    1  0.1079508E+005  0.1043930E+01  0.7957747E-01            NaN
         13   -1    0    0    0    0  0.00000000000E+00  0.00000000000E+00  0.74505805969E-08  0.10566000000E+00  0.10566000000E+00 0.  1.
     999900   -1    0    0    0    0 -0.00000000000E+00 -0.00000000000E+00 -0.74505805969E-08  0.93827000000E+00  0.93827000000E+00 0. -1.
     999902    2    1    2    0    0  0.12829436464E-01  0.66172180644E-03  0.19832468782E-01  0.10203003759E+01  0.10200267144E+01 0.  0.
     999903    2    3    3    0    0  0.94556938224E-01  0.78660303416E-01 -0.41316998129E-01  0.13097342785E+00  0.17846191990E-01 0.  0.
         14    1    1    2    0    0 -0.12829436464E-01 -0.66172180644E-03 -0.19832468782E-01  0.23629624071E-01  0.00000000000E+00 0. -1.
     999901    1    3    3    0    0 -0.81727501760E-01 -0.77998581610E-01  0.61149466911E-01  0.88932694808E+00  0.88000000000E+00 0.  1.
        -11    1    4    4    0    0  0.77754990369E-01  0.69646226558E-01 -0.29268992366E-01  0.10841296249E+00  0.51100000000E-03 0. -1.
         11    1    4    4    0    0  0.16801947855E-01  0.90140768583E-02 -0.12048005763E-01  0.22560465359E-01  0.51100000000E-03 0.  1.
</event>
<event>
 8    1  0.1079508E+005  0.1043930E+01  0.7957747E-01            NaN
         13   -1    0    0    0    0  0.00000000000E+00  0.00000000000E+00  0.74505805969E-08  0.10566000000E+00  0.10566000000E+00 0. -1.
     999900   -1    0    0    0    0 -0.00000000000E+00 -0.00000000000E+00 -0.74505805969E-08  0.93827000000E+00  0.93827000000E+00 0.  1.
     999902    2    1    2    0    0 -0.16423004642E-01 -0.77553580362E-02  0.14283208013E-01  0.10208243580E+01  0.10205628345E+01 0.  0.
     999903    2    3    3    0    0 -0.62244412514E-02 -0.84767944730E-01 -0.96725931440E-01  0.13045478406E+00  0.20933149521E-01 0.  0.
         14    1    1    2    0    0  0.16423004642E-01  0.77553580362E-02 -0.14283208013E-01  0.23105641971E-01  0.00000000000E+00 0. -1.
     999901    1    3    3    0    0 -0.10198563390E-01  0.77012586694E-01  0.11100913945E+00  0.89036957397E+00  0.88000000000E+00 0. -1.
        -11    1    4    4    0    0 -0.77935089881E-02 -0.66137477475E-01 -0.86408342489E-01  0.10909430545E+00  0.51100000000E-03 0. -1.
         11    1    4    4    0    0  0.15690677367E-02 -0.18630467255E-01 -0.10317588951E-01  0.21360478610E-01  0.51100000000E-03 0.  1.
</event>
<event>
 7    1  0.1079508E+005  0.1043930E+01  0.7957747E-01            NaN
         13   -1    0    0    0    0  0.00000000000E+00  0.00000000000E+00  0.74505805969E-08  0.10566000000E+00  0.10566000000E+00 0. -1.
     999900   -1    0    0    0    0 -0.00000000000E+00 -0.00000000000E+00 -0.74505805969E-08  0.93827000000E+00  0.93827000000E+00 0. -1.
     999903    2    1    2    0    0 -0.45984827895E-01 -0.49114684621E-01 -0.44560633097E-01  0.84471627767E-01  0.24958950974E-01 0.  0.
         14    1    1    2    0    0 -0.52912306778E-01 -0.31706109654E-01  0.33446266699E-01  0.70168670744E-01  0.00000000000E+00 0.  1.
     999901    1    1    2    0    0  0.98897134673E-01  0.80820794274E-01  0.11114366398E-01  0.88928970149E+00  0.88000000000E+00 0.  1.
        -11    1    3    3    0    0 -0.24553954946E-01 -0.40203827270E-01 -0.21625870691E-01  0.51838053925E-01  0.51100000000E-03 0.  1.
         11    1    3    3    0    0 -0.21430872949E-01 -0.89108573511E-02 -0.22934762406E-01  0.32633573842E-01  0.51100000000E-03 0. -1.
</event>
<event>
 8    1  0.1079508E+005  0.1043930E+01  0.7957747E-01            NaN
         13   -1    0    0    0    0  0.00000000000E+00  0.00000000000E+00  0.74505805969E-08  0.10566000000E+00  0.10566000000E+00 0.  1.
     999900   -1    0    0    0    0 -0.00000000000E+00 -0.00000000000E+00 -0.74505805969E-08  0.93827000000E+00  0.93827000000E+00 0. -1.
     999902    2    1    2    0    0  0.21257605506E-01 -0.10374110403E-01 -0.99550426607E-03  0.10202551402E+01  0.10199804175E+01 0.  0.
     999903    2    3    3    0    0  0.99912495251E-01  0.24317721768E-01  0.80817905041E-01  0.13228917865E+00  0.19875480214E-01 0.  0.
         14    1    1    2    0    0 -0.21257605506E-01  0.10374110403E-01  0.99550426607E-03  0.23674859815E-01  0.00000000000E+00 0. -1.
     999901    1    3    3    0    0 -0.78654889745E-01 -0.34691832170E-01 -0.81813409307E-01  0.88796596153E+00  0.88000000000E+00 0. -1.
        -11    1    4    4    0    0  0.58895495158E-01  0.12857879072E-01  0.59336210983E-01  0.84587537255E-01  0.51100000000E-03 0.  1.
         11    1    4    4    0    0  0.41017000094E-01  0.11459842696E-01  0.21481694058E-01  0.47701641396E-01  0.51100000000E-03 0. -1.
</event>
<event>
 8    1  0.1079508E+005  0.1043930E+01  0.7957747E-01            NaN
         13   -1    0    0    0    0  0.00000000000E+00  0.00000000000E+00  0.74505805969E-08  0.10566000000E+00  0.10566000000E+00 0.  1.
     999900   -1    0    0    0    0 -0.00000000000E+00 -0.00000000000E+00 -0.74505805969E-08  0.93827000000E+00  0.93827000000E+00 0. -1.
     999902    2    1    2    0    0 -0.19245665180E-01  0.20994607682E-02  0.13995542333E-01  0.10200411204E+01  0.10197613489E+01 0.  0.
     999903    2    3    3    0    0 -0.93196213229E-01  0.88694082545E-01 -0.21456537687E-01  0.13199598525E+00  0.20257903961E-01 0.  0.
         14    1    1    2    0    0  0.19245665180E-01 -0.20994607682E-02 -0.13995542333E-01  0.23888879609E-01  0.00000000000E+00 0. -1.
     999901    1    3    3    0    0  0.73950548049E-01 -0.86594621776E-01  0.35452080020E-01  0.88804513515E+00  0.88000000000E+00 0.  1.
        -11    1    4    4    0    0 -0.27519791060E-01  0.14382038799E-01 -0.57646582399E-02  0.31585983373E-01  0.51100000000E-03 0.  1.
         11    1    4    4    0    0 -0.65676422169E-01  0.74312043746E-01 -0.15691879447E-01  0.10041000187E+00  0.51100000000E-03 0. -1.
</event>
<event>
 8    1  0.1079508E+005  0.1043930E+01  0.7957747E-01            NaN
         13   -1    0    0    0    0  0.00000000000E+00  0.00000000000E+00  0.74505805969E-08  0.10566000000E+00  0.10566000000E+00 0.  1.
     999900   -1    0    0    0    0 -0.00000000000E+00 -0.00000000000E+00 -0.74505805969E-08  0.93827000000E+00  0.93827000000E+00 0. -1.
     999902    2    1    2    0    0  0.88986245102E-02  0.12944404075E-01 -0.17746100262E-01  0.10202304812E+01  0.10199551792E+01 0.  0.
     999903    2    3    3    0    0  0.11726605705E+00 -0.93548626946E-02 -0.57310934077E-01  0.13242074159E+00  0.20294532451E-01 0.  0.
         14    1    1    2    0    0 -0.88986245102E-02 -0.12944404075E-01  0.17746100262E-01  0.23699518762E-01  0.00000000000E+00 0.  1.
     999901    1    3    3    0    0 -0.10836743254E+00  0.22299266770E-01  0.39564833815E-01  0.88780973964E+00  0.88000000000E+00 0. -1.
        -11    1    4    4    0    0  0.77908429517E-01 -0.54576398177E-02 -0.27170287042E-01  0.82692169164E-01  0.51100000000E-03 0.  1.
         11    1    4    4    0    0  0.39357627532E-01 -0.38972228769E-02 -0.30140647035E-01  0.49728572429E-01  0.51100000000E-03 0. -1.
</event>
<event>
 8    1  0.1079508E+005  0.1043930E+01  0.7957747E-01            NaN
         13   -1    0    0    0    0  0.00000000000E+00  0.00000000000E+00  0.74505805969E-08  0.10566000000E+00  0.10566000000E+00 0.  1.
     999900   -1    0    0    0    0 -0.00000000000E+00 -0.00000000000E+00 -0.74505805969E-08  0.93827000000E+00  0.93827000000E+00 0. -1.
     999902    2    1    2    0    0  0.68187680221E-02  0.22436797376E-01  0.41460594889E-02  0.10201162375E+01  0.10198382434E+01 0.  0.
     999903    2    3    3    0    0 -0.69023077528E-01 -0.10530155979E+00 -0.54698680590E-02  0.12761327423E+00  0.20065507195E-01 0.  0.
         14    1    1    2    0    0 -0.68187680221E-02 -0.22436797376E-01 -0.41460594889E-02  0.23813762473E-01  0.00000000000E+00 0.  1.
     999901    1    3    3    0    0  0.75841845550E-01  0.12773835716E+00  0.96159275479E-02  0.89250296329E+00  0.88000000000E+00 0. -1.
        -11    1    4    4    0    0 -0.42069474666E-01 -0.79405175765E-01 -0.20522280079E-03  0.89862816973E-01  0.51100000000E-03 0.  1.
         11    1    4    4    0    0 -0.26953602862E-01 -0.25896384021E-01 -0.52646452582E-02  0.37750457260E-01  0.51100000000E-03 0. -1.
</event>
<event>
 8    1  0.1079508E+005  0.1043930E+01  0.7957747E-01            NaN
         13   -1    0    0    0    0  0.00000000000E+00  0.00000000000E+00  0.74505805969E-08  0.10566000000E+00  0.10566000000E+00 0. -1.
     999900   -1    0    0    0    0 -0.00000000000E+00 -0.00000000000E+00 -0.74505805969E-08  0.93827000000E+00  0.93827000000E+00 0. -1.
     999902    2    1    2    0    0 -0.36038083574E-02 -0.21593892164E-01  0.19385459719E-01  0.10146882548E+01  0.10142668164E+01 0.  0.
     999903    2    3    3    0    0 -0.12160080938E-01  0.56013072043E-01 -0.10600566300E+00  0.12237721915E+00  0.21299093180E-01 0.  0.
         14    1    1    2    0    0  0.36038083574E-02  0.21593892164E-01 -0.19385459719E-01  0.29241745194E-01  0.00000000000E+00 0.  1.
     999901    1    3    3    0    0  0.85562725810E-02 -0.77606964208E-01  0.12539112272E+00  0.89231103565E+00  0.88000000000E+00 0.  1.
        -11    1    4    4    0    0 -0.94092385580E-02  0.29695431576E-01 -0.77251962724E-01  0.83297534732E-01  0.51100000000E-03 0.  1.
         11    1    4    4    0    0 -0.27508423804E-02  0.26317640467E-01 -0.28753700279E-01  0.39079684419E-01  0.51100000000E-03 0. -1.
</event>
<event>
 8    1  0.1079508E+005  0.1043930E+01  0.7957747E-01            NaN
         13   -1    0    0    0    0  0.00000000000E+00  0.00000000000E+00  0.74505805969E-08  0.10566000000E+00  0.10566000000E+00 0. -1.
     999900   -1    0    0    0    0 -0.00000000000E+00 -0.00000000000E+00 -0.74505805969E-08  0.93827000000E+00  0.93827000000E+00 0.  1.
     999902    2    1    2    0    0  0.96927478522E-02  0.60517559313E-03 -0.22784395864E-01  0.10191621924E+01  0.10188611928E+01 0.  0.
     999903    2    3    3    0    0 -0.97619386180E-01  0.61696770249E-01 -0.55939069636E-01  0.12992245564E+00  0.20362439668E-01 0.  0.
         14    1    1    2    0    0 -0.96927478522E-02 -0.60517559313E-03  0.22784395864E-01  0.24767807600E-01  0.00000000000E+00 0. -1.
     999901    1    3    3    0    0  0.10731213403E+00 -0.61091594656E-01  0.33154673772E-01  0.88923973676E+00  0.88000000000E+00 0.  1.
        -11    1    4    4    0    0 -0.29954809656E-01  0.28132639171E-01 -0.26240261608E-01  0.48760111346E-01  0.51100000000E-03 0.  1.
         11    1    4    4    0    0 -0.67664576524E-01  0.33564131078E-01 -0.29698808029E-01  0.81162344289E-01  0.51100000000E-03 0. -1.
</event>
<event>
 8    1  0.1079508E+005  0.1043930E+01  0.7957747E-01            NaN
         13   -1    0    0    0    0  0.00000000000E+00  0.00000000000E+00  0.74505805969E-08  0.10566000000E+00  0.10566000000E+00 0.  1.
     999900   -1    0    0    0    0 -0.00000000000E+00 -0.00000000000E+00 -0.74505805969E-08  0.93827000000E+00  0.93827000000E+00 0. -1.
     999902    2    1    2    0    0 -0.18908452414E-01  0.23010098752E-02 -0.11738379272E-01  0.10215556002E+01  0.10213105456E+01 0.  0.
     999903    2    3    3    0    0  0.72886802599E-02 -0.39448962269E-01 -0.12508063426E+00  0.13291854452E+00  0.20318192003E-01 0.  0.
         14    1    1    2    0    0  0.18908452414E-01 -0.23010098752E-02  0.11738379272E-01  0.22374399815E-01  0.00000000000E+00 0.  1.
     999901    1    3    3    0    0 -0.26197132674E-01  0.41749972144E-01  0.11334225499E+00  0.88863705566E+00  0.88000000000E+00 0.  1.
        -11    1    4    4    0    0  0.87698378426E-02 -0.26782335417E-01 -0.10787069441E+00  0.11149238261E+00  0.51100000000E-03 0. -1.
         11    1    4    4    0    0 -0.14811575827E-02 -0.12666626852E-01 -0.17209939848E-01  0.21426161909E-01  0.51100000000E-03 0.  1.
</event>
<event>
 8    1  0.1079508E+005  0.1043930E+01  0.7957747E-01            NaN
         13   -1    0    0    0    0  0.00000000000E+00  0.00000000000E+00  0.74505805969E-08  0.10566000000E+00  0.10566000000E+00 0.  1.
     999900   -1    0    0    0    0 -0.00000000000E+00 -0.00000000000E+00 -0.74505805969E-08  0.93827000000E+00  0.93827000000E+00 0. -1.
     999902    2    1    2    0    0  0.12617092176E-01 -0.18196489561E-01  0.77570673556E-02  0.10204677891E+01  0.10201980363E+01 0.  0.
     999903    2    3    3    0    0 -0.21952236943E-02  0.14099301080E-01 -0.12719879592E+00  0.12947087111E+00  0.19482389100E-01 0.  0.
         14    1    1    2    0    0 -0.12617092176E-01  0.18196489561E-01 -0.77570673556E-02  0.23462210921E-01  0.00000000000E+00 0.  1.
     999901    1    3    3    0    0  0.14812315871E-01 -0.32295790641E-01  0.13495586328E+00  0.89099691797E+00  0.88000000000E+00 0.  1.
        -11    1    4    4    0    0  0.20652273752E-03  0.11145992538E-02 -0.89754235528E-01  0.89762848102E-01  0.51100000000E-03 0.  1.
         11    1    4    4    0    0 -0.24017464318E-02  0.12984701827E-01 -0.37444560391E-01  0.39708023010E-01  0.51100000000E-03 0. -1.
</event>
<event>
 8    1  0.1079508E+005  0.1043930E+01  0.7957747E-01            NaN
         13   -1    0    0    0    0  0.00000000000E+00  0.00000000000E+00  0.74505805969E-08  0.10566000000E+00  0.10566000000E+00 0.  1.
     999900   -1    0    0    0    0 -0.00000000000E+00 -0.00000000000E+00 -0.74505805969E-08  0.93827000000E+00  0.93827000000E+00 0.  1.
     999902    2    1    2    0    0 -0.69326497850E-02 -0.19098795662E-01 -0.49701213083E-02  0.10230128364E+01  0.10227989713E+01 0.  0.
     999903    2    3    3    0    0 -0.75158667575E-01  0.60963006089E-01 -0.90311134563E-01  0.13264899492E+00  0.86221461862E-02 0.  0.
         14    1    1    2    0    0  0.69326497850E-02  0.19098795662E-01  0.49701213083E-02  0.20917163636E-01  0.00000000000E+00 0. -1.
     999901    1    3    3    0    0  0.68226017790E-01 -0.80061801751E-01  0.85341013254E-01  0.89036384144E+00  0.88000000000E+00 0. -1.
        -11    1    4    4    0    0 -0.17282036964E-01  0.17843908953E-01 -0.26261565494E-01  0.36152521787E-01  0.51100000000E-03 0.  1.
         11    1    4    4    0    0 -0.57876630611E-01  0.43119097136E-01 -0.64049569068E-01  0.96496473135E-01  0.51100000000E-03 0. -1.
</event>
<event>
 8    1  0.1079508E+005  0.1043930E+01  0.7957747E-01            NaN
         13   -1    0    0    0    0  0.00000000000E+00  0.00000000000E+00  0.74505805969E-08  0.10566000000E+00  0.10566000000E+00 0.  1.
     999900   -1    0    0    0    0 -0.00000000000E+00 -0.00000000000E+00 -0.74505805969E-08  0.93827000000E+00  0.93827000000E+00 0. -1.
     999902    2    1    2    0    0  0.21521544700E-01  0.52488599414E-02 -0.57179991644E-02  0.10210515619E+01  0.10207952141E+01 0.  0.
     999903    2    3    3    0    0 -0.53668435961E-01  0.10350996674E+00 -0.56973183502E-01  0.13091905925E+00  0.17298618496E-01 0.  0.
         14    1    1    2    0    0 -0.21521544700E-01 -0.52488599414E-02  0.57179991644E-02  0.22878438133E-01  0.00000000000E+00 0.  1.
     999901    1    3    3    0    0  0.75189980661E-01 -0.98261106801E-01  0.51255184338E-01  0.89013250262E+00  0.88000000000E+00 0.  1.
        -11    1    4    4    0    0 -0.54298300829E-01  0.98458592042E-01 -0.56336504270E-01  0.12576351877E+00  0.51100000000E-03 0. -1.
         11    1    4    4    0    0  0.62986486873E-03  0.50513747004E-02 -0.63667923229E-03  0.51555404723E-02  0.51100000000E-03 0.  1.
</event>
<event>
 8    1  0.1079508E+005  0.1043930E+01  0.7957747E-01            NaN
         13   -1    0    0    0    0  0.00000000000E+00  0.00000000000E+00  0.74505805969E-08  0.10566000000E+00  0.10566000000E+00 0. -1.
     999900   -1    0    0    0    0 -0.00000000000E+00 -0.00000000000E+00 -0.74505805969E-08  0.93827000000E+00  0.93827000000E+00 0. -1.
     999902    2    1    2    0    0 -0.12788666597E-01 -0.19130677893E-03  0.19832880589E-01  0.10203306410E+01  0.10200576882E+01 0.  0.
     999903    2    3    3    0    0 -0.12566816404E+00  0.11325431755E-01 -0.31288741228E-01  0.13157429847E+00  0.20299207698E-01 0.  0.
         14    1    1    2    0    0  0.12788666597E-01  0.19130677893E-03 -0.19832880589E-01  0.23599358976E-01  0.00000000000E+00 0.  1.
     999901    1    3    3    0    0  0.11287949744E+00 -0.11516738533E-01  0.51121621818E-01  0.88875634255E+00  0.88000000000E+00 0.  1.
        -11    1    4    4    0    0 -0.47420150282E-01 -0.55413366360E-02 -0.11002618350E-01  0.48996895779E-01  0.51100000000E-03 0. -1.
         11    1    4    4    0    0 -0.78248013758E-01  0.16866768391E-01 -0.20286122878E-01  0.82577402692E-01  0.51100000000E-03 0.  1.
</event>
<event>
 8    1  0.1079508E+005  0.1043930E+01  0.7957747E-01            NaN
         13   -1    0    0    0    0  0.00000000000E+00  0.00000000000E+00  0.74505805969E-08  0.10566000000E+00  0.10566000000E+00 0.  1.
     999900   -1    0    0    0    0 -0.00000000000E+00 -0.00000000000E+00 -0.74505805969E-08  0.93827000000E+00  0.93827000000E+00 0. -1.
     999902    2    1    2    0    0  0.13677079244E-01  0.16388576406E-01 -0.10990353393E-01  0.10199209225E+01  0.10196382949E+01 0.  0.
     999903    2    3    3    0    0 -0.62523308372E-01  0.74942244223E-01  0.83163954292E-01  0.12969619543E+00  0.19477057169E-01 0.  0.
         14    1    1    2    0    0 -0.13677079244E-01 -0.16388576406E-01  0.10990353393E-01  0.24009077470E-01  0.00000000000E+00 0.  1.
     999901    1    3    3    0    0  0.76200387616E-01 -0.58553667817E-01 -0.94154307686E-01  0.89022472710E+00  0.88000000000E+00 0. -1.
        -11    1    4    4    0    0 -0.12031101599E-01  0.28392139237E-01  0.25165265688E-01  0.39804681814E-01  0.51100000000E-03 0.  1.
         11    1    4    4    0    0 -0.50492206773E-01  0.46550104986E-01  0.57998688605E-01  0.89891513615E-01  0.51100000000E-03 0. -1.
</event>
<event>
 8    1  0.1079508E+005  0.1043930E+01  0.7957747E-01            NaN
         13   -1    0    0    0    0  0.00000000000E+00  0.00000000000E+00  0.74505805969E-08  0.10566000000E+00  0.10566000000E+00 0. -1.
     999900   -1    0    0    0    0 -0.00000000000E+00 -0.00000000000E+00 -0.74505805969E-08  0.93827000000E+00  0.93827000000E+00 0. -1.
     999902    2    1    2    0    0 -0.23513254173E-01 -0.71162830354E-03 -0.26779208203E-02  0.10202540460E+01  0.10199792977E+01 0.  0.
     999903    2    3    3    0    0  0.45530318394E-01 -0.15340742079E-01 -0.11909394235E+00  0.12978578946E+00  0.18778599010E-01 0.  0.
         14    1    1    2    0    0  0.23513254173E-01  0.71162830354E-03  0.26779208203E-02  0.23675953974E-01  0.00000000000E+00 0. -1.
     999901    1    3    3    0    0 -0.69043572567E-01  0.14629113775E-01  0.11641602153E+00  0.89046825657E+00  0.88000000000E+00 0.  1.
        -11    1    4    4    0    0  0.37204746033E-01 -0.46246801720E-02 -0.94948237741E-01  0.10208334715E+00  0.51100000000E-03 0.  1.
         11    1    4    4    0    0  0.83255723611E-02 -0.10716061907E-01 -0.24145704609E-01  0.27702442311E-01  0.51100000000E-03 0. -1.
</event>
<event>
 8    1  0.1103857E+005  0.1043930E+01  0.7957747E-01            NaN
         13   -1    0    0    0    0  0.00000000000E+00  0.00000000000E+00  0.74505805969E-08  0.10566000000E+00  0.10566000000E+00 0. -1.
     999900   -1    0    0    0    0 -0.00000000000E+00 -0.00000000000E+00 -0.74505805969E-08  0.93827000000E+00  0.93827000000E+00 0. -1.
     999902    2    1    2    0    0 -0.11590657355E-02 -0.97028595911E-02  0.21007745881E-01  0.10207607466E+01  0.10204977645E+01 0.  0.
     999903    2    3    3    0    0 -0.10705822919E+00  0.24850255058E-01 -0.65638113197E-01  0.12951664115E+00  0.19677368111E-01 0.  0.
         14    1    1    2    0    0  0.11590657355E-02  0.97028595911E-02 -0.21007745881E-01  0.23169253433E-01  0.00000000000E+00 0.  1.
     999901    1    3    3    0    0  0.10589916346E+00 -0.34553114649E-01  0.86645859078E-01  0.89124410542E+00  0.88000000000E+00 0.  1.
        -11    1    4    4    0    0 -0.69643473550E-01  0.12311853715E-01 -0.31854027255E-01  0.77567617749E-01  0.51100000000E-03 0.  1.
         11    1    4    4    0    0 -0.37414755641E-01  0.12538401343E-01 -0.33784085942E-01  0.51949023397E-01  0.51100000000E-03 0. -1.
</event>
<event>
 8    1  0.1079508E+005  0.1043930E+01  0.7957747E-01            NaN
         13   -1    0    0    0    0  0.00000000000E+00  0.00000000000E+00  0.74505805969E-08  0.10566000000E+00  0.10566000000E+00 0. -1.
     999900   -1    0    0    0    0 -0.00000000000E+00 -0.00000000000E+00 -0.74505805969E-08  0.93827000000E+00  0.93827000000E+00 0.  1.
     999902    2    1    2    0    0  0.36722152344E-02 -0.19086036713E-02  0.24070163742E-01  0.10195066359E+01  0.10192140501E+01 0.  0.
     999903    2    3    3    0    0 -0.36839947375E-01 -0.11570328243E+00  0.43880481188E-01  0.13103440057E+00  0.22362607509E-01 0.  0.
         14    1    1    2    0    0 -0.36722152344E-02  0.19086036713E-02 -0.24070163742E-01  0.24423364127E-01  0.00000000000E+00 0.  1.
     999901    1    3    3    0    0  0.40512162609E-01  0.11379467876E+00 -0.19810317446E-01  0.88847223531E+00  0.88000000000E+00 0.  1.
        -11    1    4    4    0    0 -0.12344806971E-01 -0.37194164572E-01  0.33193527159E-02  0.39332929725E-01  0.51100000000E-03 0.  1.
         11    1    4    4    0    0 -0.24495140404E-01 -0.78509117860E-01  0.40561128472E-01  0.91701470841E-01  0.51100000000E-03 0. -1.
</event>
<event>
 7    1  0.1079508E+005  0.1043930E+01  0.7957747E-01            NaN
         13   -1    0    0    0    0  0.00000000000E+00  0.00000000000E+00  0.74505805969E-08  0.10566000000E+00  0.10566000000E+00 0.  1.
     999900   -1    0    0    0    0 -0.00000000000E+00 -0.00000000000E+00 -0.74505805969E-08  0.93827000000E+00  0.93827000000E+00 0.  1.
     999903    2    1    2    0    0  0.46047790634E-01  0.88415063252E-01 -0.27643689944E-02  0.10166165546E+00  0.19744062980E-01 0.  0.
         14    1    1    2    0    0  0.17473688949E-01 -0.25183358103E-01 -0.47229465317E-01  0.56304118189E-01  0.00000000000E+00 0. -1.
     999901    1    1    2    0    0 -0.63521479583E-01 -0.63231705149E-01  0.49993834312E-01  0.88596422635E+00  0.88000000000E+00 0. -1.
        -11    1    3    3    0    0  0.19913159701E-01  0.44670690692E-01 -0.10756039618E-01  0.50079517225E-01  0.51100000000E-03 0.  1.
         11    1    3    3    0    0  0.26134630932E-01  0.43744372560E-01  0.79916706235E-02  0.51582138236E-01  0.51100000000E-03 0. -1.
</event>
<event>
 8    1  0.1079508E+005  0.1043930E+01  0.7957747E-01            NaN
         13   -1    0    0    0    0  0.00000000000E+00  0.00000000000E+00  0.74505805969E-08  0.10566000000E+00  0.10566000000E+00 0.  1.
     999900   -1    0    0    0    0 -0.00000000000E+00 -0.00000000000E+00 -0.74505805969E-08  0.93827000000E+00  0.93827000000E+00 0. -1.
     999902    2    1    2    0    0  0.78504561454E-03  0.16912888007E-01 -0.16652565486E-01  0.10201819471E+01  0.10199055031E+01 0.  0.
     999903    2    3    3    0    0 -0.98154928385E-01  0.16367050071E-01  0.80409846120E-01  0.12933374001E+00  0.18952642524E-01 0.  0.
         14    1    1    2    0    0 -0.78504561454E-03 -0.16912888007E-01  0.16652565486E-01  0.23748052859E-01  0.00000000000E+00 0.  1.
     999901    1    3    3    0    0  0.98939973999E-01  0.54583793614E-03 -0.97062411606E-01  0.89084820713E+00  0.88000000000E+00 0. -1.
        -11    1    4    4    0    0 -0.49075422210E-01  0.13386019650E-01  0.51018719285E-01  0.72046883525E-01  0.51100000000E-03 0. -1.
         11    1    4    4    0    0 -0.49079506175E-01  0.29810304204E-02  0.29391126835E-01  0.57286856489E-01  0.51100000000E-03 0.  1.
</event>
<event>
 8    1  0.1079508E+005  0.1043930E+01  0.7957747E-01            NaN
         13   -1    0    0    0    0  0.00000000000E+00  0.00000000000E+00  0.74505805969E-08  0.10566000000E+00  0.10566000000E+00 0. -1.
     999900   -1    0    0    0    0 -0.00000000000E+00 -0.00000000000E+00 -0.74505805969E-08  0.93827000000E+00  0.93827000000E+00 0.  1.
     999902    2    1    2    0    0 -0.24451634140E-01 -0.97427746456E-03 -0.68804407190E-02  0.10185100847E+01  0.10181928209E+01 0.  0.
     999903    2    3    3    0    0  0.60142460000E-01  0.38422586443E-01  0.10219422735E+00  0.12687924358E+00  0.23691173542E-01 0.  0.
         14    1    1    2    0    0  0.24451634140E-01  0.97427746456E-03  0.68804407190E-02  0.25419915287E-01  0.00000000000E+00 0. -1.
     999901    1    3    3    0    0 -0.84594094140E-01 -0.39396863908E-01 -0.10907466807E+00  0.89163084114E+00  0.88000000000E+00 0.  1.
        -11    1    4    4    0    0  0.41519045707E-01  0.26021949811E-01  0.86927477247E-01  0.99787877270E-01  0.51100000000E-03 0.  1.
         11    1    4    4    0    0  0.18623414293E-01  0.12400636632E-01  0.15266750101E-01  0.27091366308E-01  0.51100000000E-03 0. -1.
</event>
<event>
 8    1  0.1079508E+005  0.1043930E+01  0.7957747E-01            NaN
         13   -1    0    0    0    0  0.00000000000E+00  0.00000000000E+00  0.74505805969E-08  0.10566000000E+00  0.10566000000E+00 0.  1.
     999900   -1    0    0    0    0 -0.00000000000E+00 -0.00000000000E+00 -0.74505805969E-08  0.93827000000E+00  0.93827000000E+00 0. -1.
     999902    2    1    2    0    0 -0.21044180628E-01  0.42198204539E-02  0.10549947806E-01  0.10200141931E+01  0.10197337830E+01 0.  0.
     999903    2    3    3    0    0 -0.12181498137E-01 -0.80050403779E-01  0.10147902201E+00  0.13128019778E+00  0.19494675644E-01 0.  0.
         14    1    1    2    0    0  0.21044180628E-01 -0.42198204539E-02 -0.10549947806E-01  0.23915806942E-01  0.00000000000E+00 0.  1.
     999901    1    3    3    0    0 -0.88626824916E-02  0.84270224233E-01 -0.90929074202E-01  0.88873399528E+00  0.88000000000E+00 0. -1.
        -11    1    4    4    0    0 -0.12783254802E-01 -0.44727459734E-01  0.45426163246E-01  0.65021186438E-01  0.51100000000E-03 0. -1.
         11    1    4    4    0    0  0.60175666516E-03 -0.35322944045E-01  0.56052858763E-01  0.66259011338E-01  0.51100000000E-03 0.  1.
</event>
<event>
 8    1  0.1079508E+005  0.1043930E+01  0.7957747E-01            NaN
         13   -1    0    0    0    0  0.00000000000E+00  0.00000000000E+00  0.74505805969E-08  0.10566000000E+00  0.10566000000E+00 0.  1.
     999900   -1    0    0    0    0 -0.00000000000E+00 -0.00000000000E+00 -0.74505805969E-08  0.93827000000E+00  0.93827000000E+00 0. -1.
     999902    2    1    2    0    0  0.31179549766E-02  0.42504563164E-02 -0.22863075010E-01  0.10204670884E+01  0.10201973193E+01 0.  0.
     999903    2    3    3    0    0  0.14053084940E-01 -0.98001219433E-01  0.79567304434E-01  0.12857754092E+00  0.19987493271E-01 0.  0.
         14    1    1    2    0    0 -0.31179549766E-02 -0.42504563164E-02  0.22863075010E-01  0.23462911606E-01  0.00000000000E+00 0.  1.
     999901    1    3    3    0    0 -0.10935129964E-01  0.10225167575E+00 -0.10243037944E+00  0.89188954747E+00  0.88000000000E+00 0. -1.
        -11    1    4    4    0    0 -0.31317711490E-02 -0.11223113891E-01  0.43150285321E-02  0.12435709395E-01  0.51100000000E-03 0.  1.
         11    1    4    4    0    0  0.17184856089E-01 -0.86778105543E-01  0.75252275902E-01  0.11614183152E+00  0.51100000000E-03 0. -1.
</event>
<event>
 8    1  0.1079508E+005  0.1043930E+01  0.7957747E-01            NaN
         13   -1    0    0    0    0  0.00000000000E+00  0.00000000000E+00  0.74505805969E-08  0.10566000000E+00  0.10566000000E+00 0.  1.
     999900   -1    0    0    0    0 -0.00000000000E+00 -0.00000000000E+00 -0.74505805969E-08  0.93827000000E+00  0.93827000000E+00 0. -1.
     999902    2    1    2    0    0  0.17867028231E-01 -0.51484558708E-02 -0.13552195166E-01  0.10209213214E+01  0.10206620132E+01 0.  0.
     999903    2    3    3    0    0 -0.11453328760E+00 -0.47976470795E-01  0.26290941664E-01  0.12909647425E+00  0.23559930625E-01 0.  0.
         14    1    1    2    0    0 -0.17867028231E-01  0.51484558708E-02  0.13552195166E-01  0.23008678569E-01  0.00000000000E+00 0.  1.
     999901    1    3    3    0    0  0.13240031584E+00  0.42828014924E-01 -0.39843136830E-01  0.89182484718E+00  0.88000000000E+00 0. -1.
        -11    1    4    4    0    0 -0.29404425162E-01 -0.23888298804E-01  0.91712592523E-02  0.38982613511E-01  0.51100000000E-03 0. -1.
         11    1    4    4    0    0 -0.85128862442E-01 -0.24088171991E-01  0.17119682411E-01  0.90113860740E-01  0.51100000000E-03 0.  1.
</event>
<event>
 8    1  0.1079508E+005  0.1043930E+01  0.7957747E-01            NaN
         13   -1    0    0    0    0  0.00000000000E+00  0.00000000000E+00  0.74505805969E-08  0.10566000000E+00  0.10566000000E+00 0. -1.
     999900   -1    0    0    0    0 -0.00000000000E+00 -0.00000000000E+00 -0.74505805969E-08  0.93827000000E+00  0.93827000000E+00 0.  1.
     999902    2    1    2    0    0  0.16627195545E-02 -0.18644138606E-01  0.15957017683E-01  0.10193333548E+01  0.10190365515E+01 0.  0.
     999903    2    3    3    0    0 -0.25364137958E-01  0.91192705599E-01  0.85694061414E-01  0.12935704129E+00  0.20744226229E-01 0.  0.
         14    1    1    2    0    0 -0.16627195545E-02  0.18644138606E-01 -0.15957017683E-01  0.24596645178E-01  0.00000000000E+00 0.  1.
     999901    1    3    3    0    0  0.27026857513E-01 -0.10983684421E+00 -0.69737043732E-01  0.88997631353E+00  0.88000000000E+00 0.  1.
        -11    1    4    4    0    0 -0.11978095310E-01  0.24337603504E-01  0.14433096206E-01  0.30730588974E-01  0.51100000000E-03 0.  1.
         11    1    4    4    0    0 -0.13386042648E-01  0.66855102095E-01  0.71260965208E-01  0.98626452321E-01  0.51100000000E-03 0. -1.
</event>
<event>
 8    1  0.1079508E+005  0.1043930E+01  0.7957747E-01            NaN
         13   -1    0    0    0    0  0.00000000000E+00  0.00000000000E+00  0.74505805969E-08  0.10566000000E+00  0.10566000000E+00 0. -1.
     999900   -1    0    0    0    0 -0.00000000000E+00 -0.00000000000E+00 -0.74505805969E-08  0.93827000000E+00  0.93827000000E+00 0.  1.
     999902    2    1    2    0    0  0.18990158273E-01 -0.12158782735E-01  0.47205599152E-02  0.10208920792E+01  0.10206321039E+01 0.  0.
     999903    2    3    3    0    0  0.12497166784E+00  0.32889459286E-01 -0.24416046604E-01  0.13291101729E+00  0.19223966522E-01 0.  0.
         14    1    1    2    0    0 -0.18990158273E-01  0.12158782735E-01 -0.47205599152E-02  0.23037920799E-01  0.00000000000E+00 0.  1.
     999901    1    3    3    0    0 -0.10598150957E+00 -0.45048242021E-01  0.29136606519E-01  0.88798106191E+00  0.88000000000E+00 0. -1.
        -11    1    4    4    0    0  0.31672562636E-01  0.98388454568E-02  0.20344130837E-02  0.33231823024E-01  0.51100000000E-03 0.  1.
         11    1    4    4    0    0  0.93299105206E-01  0.23050613829E-01 -0.26450459688E-01  0.99679194262E-01  0.51100000000E-03 0. -1.
</event>
<event>
 8    1  0.1079508E+005  0.1043930E+01  0.7957747E-01            NaN
         13   -1    0    0    0    0  0.00000000000E+00  0.00000000000E+00  0.74505805969E-08  0.10566000000E+00  0.10566000000E+00 0.  1.
     999900   -1    0    0    0    0 -0.00000000000E+00 -0.00000000000E+00 -0.74505805969E-08  0.93827000000E+00  0.93827000000E+00 0.  1.
     999902    2    1    2    0    0  0.62948617238E-02  0.22110092470E-01 -0.42286041284E-02  0.10205556002E+01  0.10202878861E+01 0.  0.
     999903    2    3    3    0    0  0.74231824961E-01  0.68059819504E-01  0.83325142749E-01  0.13241570864E+00  0.21173984326E-01 0.  0.
         14    1    1    2    0    0 -0.62948617238E-02 -0.22110092470E-01  0.42286041284E-02  0.23374399801E-01  0.00000000000E+00 0.  1.
     999901    1    3    3    0    0 -0.67936963238E-01 -0.45949727034E-01 -0.87553746877E-01  0.88813989156E+00  0.88000000000E+00 0. -1.
        -11    1    4    4    0    0  0.55141800825E-01  0.39872402195E-01  0.47468294296E-01  0.82969432561E-01  0.51100000000E-03 0.  1.
         11    1    4    4    0    0  0.19090024136E-01  0.28187417309E-01  0.35856848452E-01  0.49446276078E-01  0.51100000000E-03 0. -1.
</event>
<event>
 8    1  0.1079508E+005  0.1043930E+01  0.7957747E-01            NaN
         13   -1    0    0    0    0  0.00000000000E+00  0.00000000000E+00  0.74505805969E-08  0.10566000000E+00  0.10566000000E+00 0.  1.
     999900   -1    0    0    0    0 -0.00000000000E+00 -0.00000000000E+00 -0.74505805969E-08  0.93827000000E+00  0.93827000000E+00 0. -1.
     999902    2    1    2    0    0 -0.38598483032E-02  0.11606639564E-01  0.23645087890E-01  0.10173085295E+01  0.10169601474E+01 0.  0.
     999903    2    3    3    0    0  0.42400980728E-01 -0.11115413227E+00 -0.34874287416E-01  0.12566129617E+00  0.20529518875E-01 0.  0.
         14    1    1    2    0    0  0.38598483032E-02 -0.11606639564E-01 -0.23645087890E-01  0.26621470512E-01  0.00000000000E+00 0. -1.
     999901    1    3    3    0    0 -0.46260829031E-01  0.12276077183E+00  0.58519375306E-01  0.89164723332E+00  0.88000000000E+00 0.  1.
        -11    1    4    4    0    0  0.11476569529E-03 -0.13053317140E-01  0.65513677652E-03  0.13080236417E-01  0.51100000000E-03 0.  1.
         11    1    4    4    0    0  0.42286215032E-01 -0.98100815126E-01 -0.35529424192E-01  0.11258105975E+00  0.51100000000E-03 0. -1.
</event>
<event>
 8    1  0.1079508E+005  0.1043930E+01  0.7957747E-01            NaN
         13   -1    0    0    0    0  0.00000000000E+00  0.00000000000E+00  0.74505805969E-08  0.10566000000E+00  0.10566000000E+00 0. -1.
     999900   -1    0    0    0    0 -0.00000000000E+00 -0.00000000000E+00 -0.74505805969E-08  0.93827000000E+00  0.93827000000E+00 0.  1.
     999902    2    1    2    0    0 -0.13736185833E-01  0.15713271204E-01  0.13358147269E-01  0.10191503755E+01  0.10188490850E+01 0.  0.
     999903    2    3    3    0    0 -0.20007467220E-01 -0.59408306409E-01 -0.10925046761E+00  0.12745791008E+00  0.19498937244E-01 0.  0.
         14    1    1    2    0    0  0.13736185833E-01 -0.15713271204E-01 -0.13358147269E-01  0.24779624525E-01  0.00000000000E+00 0.  1.
     999901    1    3    3    0    0  0.62712813875E-02  0.75121577613E-01  0.12260861488E+00  0.89169246539E+00  0.88000000000E+00 0. -1.
        -11    1    4    4    0    0 -0.13946078050E-01 -0.44486845081E-01 -0.95504441431E-01  0.10627761727E+00  0.51100000000E-03 0.  1.
         11    1    4    4    0    0 -0.60613891709E-02 -0.14921461328E-01 -0.13746026183E-01  0.21180292814E-01  0.51100000000E-03 0. -1.
</event>
<event>
 8    1  0.1079508E+005  0.1043930E+01  0.7957747E-01            NaN
         13   -1    0    0    0    0  0.00000000000E+00  0.00000000000E+00  0.74505805969E-08  0.10566000000E+00  0.10566000000E+00 0. -1.
     999900   -1    0    0    0    0 -0.00000000000E+00 -0.00000000000E+00 -0.74505805969E-08  0.93827000000E+00  0.93827000000E+00 0. -1.
     999902    2    1    2    0    0 -0.25091967881E-02 -0.11978753357E-01 -0.17124783740E-01  0.10228813701E+01  0.10226647802E+01 0.  0.
     999903    2    3    3    0    0  0.11282494984E+00  0.38155332736E-01  0.51925277421E-01  0.13126300845E+00  0.18666660909E-01 0.  0.
         14    1    1    2    0    0  0.25091967881E-02  0.11978753357E-01  0.17124783740E-01  0.21048629852E-01  0.00000000000E+00 0. -1.
     999901    1    3    3    0    0 -0.11533414663E+00 -0.50134086093E-01 -0.69050061161E-01  0.89161836170E+00  0.88000000000E+00 0. -1.
        -11    1    4    4    0    0  0.33535888892E-01  0.41000613058E-02  0.94777523376E-02  0.35093521580E-01  0.51100000000E-03 0.  1.
         11    1    4    4    0    0  0.79289060950E-01  0.34055271430E-01  0.42447525083E-01  0.96169486872E-01  0.51100000000E-03 0. -1.
</event>
<event>
 8    1  0.1079508E+005  0.1043930E+01  0.7957747E-01            NaN
         13   -1    0    0    0    0  0.00000000000E+00  0.00000000000E+00  0.74505805969E-08  0.10566000000E+00  0.10566000000E+00 0. -1.
     999900   -1    0    0    0    0 -0.00000000000E+00 -0.00000000000E+00 -0.74505805969E-08  0.93827000000E+00  0.93827000000E+00 0. -1.
     999902    2    1    2    0    0  0.18532303153E-01 -0.11130645365E-01  0.24212213713E-02  0.10221768430E+01  0.10219453501E+01 0.  0.
     999903    2    3    3    0    0 -0.34375226111E-02  0.85311450334E-01  0.98081877656E-01  0.13148345455E+00  0.19441810025E-01 0.  0.
         14    1    1    2    0    0 -0.18532303153E-01  0.11130645365E-01 -0.24212213713E-02  0.21753156997E-01  0.00000000000E+00 0. -1.
     999901    1    3    3    0    0  0.21969825764E-01 -0.96442095699E-01 -0.95660656285E-01  0.89069338845E+00  0.88000000000E+00 0. -1.
        -11    1    4    4    0    0  0.79967100891E-02  0.42331583860E-01  0.47547009305E-01  0.64162992287E-01  0.51100000000E-03 0. -1.
         11    1    4    4    0    0 -0.11434232700E-01  0.42979866474E-01  0.50534868351E-01  0.67320462267E-01  0.51100000000E-03 0.  1.
</event>
<event>
 8    1  0.1079508E+005  0.1043930E+01  0.7957747E-01            NaN
         13   -1    0    0    0    0  0.00000000000E+00  0.00000000000E+00  0.74505805969E-08  0.10566000000E+00  0.10566000000E+00 0.  1.
     999900   -1    0    0    0    0 -0.00000000000E+00 -0.00000000000E+00 -0.74505805969E-08  0.93827000000E+00  0.93827000000E+00 0. -1.
     999902    2    1    2    0    0  0.30880735011E-02  0.20689990231E-01  0.11482637535E-01  0.10200665791E+01  0.10197874106E+01 0.  0.
     999903    2    3    3    0    0  0.39344854127E-01  0.33507253115E-01  0.12040965969E+00  0.13251718184E+00  0.19787970544E-01 0.  0.
         14    1    1    2    0    0 -0.30880735011E-02 -0.20689990231E-01 -0.11482637535E-01  0.23863420930E-01  0.00000000000E+00 0. -1.
     999901    1    3    3    0    0 -0.36256780626E-01 -0.12817262885E-01 -0.10892702216E+00  0.88754939723E+00  0.88000000000E+00 0. -1.
        -11    1    4    4    0    0  0.82258708195E-02  0.30093566847E-02  0.41091374871E-01  0.42017655672E-01  0.51100000000E-03 0. -1.
         11    1    4    4    0    0  0.31118983308E-01  0.30497896431E-01  0.79318284820E-01  0.90499526168E-01  0.51100000000E-03 0.  1.
</event>
<event>
 8    1  0.1079508E+005  0.1043930E+01  0.7957747E-01            NaN
         13   -1    0    0    0    0  0.00000000000E+00  0.00000000000E+00  0.74505805969E-08  0.10566000000E+00  0.10566000000E+00 0.  1.
     999900   -1    0    0    0    0 -0.00000000000E+00 -0.00000000000E+00 -0.74505805969E-08  0.93827000000E+00  0.93827000000E+00 0.  1.
     999902    2    1    2    0    0  0.40142990284E-02  0.11915304771E-01  0.18006921173E-01  0.10219677985E+01  0.10217317862E+01 0.  0.
     999903    2    3    3    0    0  0.11471971936E+00 -0.60395575118E-01 -0.83521290700E-02  0.13169853981E+00  0.21598792194E-01 0.  0.
         14    1    1    2    0    0 -0.40142990284E-02 -0.11915304771E-01 -0.18006921173E-01  0.21962201498E-01  0.00000000000E+00 0. -1.
     999901    1    3    3    0    0 -0.11070542033E+00  0.72310879889E-01  0.26359050243E-01  0.89026925869E+00  0.88000000000E+00 0. -1.
        -11    1    4    4    0    0  0.11042071014E+00 -0.53889619922E-01 -0.11203377519E-01  0.12337990579E+00  0.51100000000E-03 0.  1.
         11    1    4    4    0    0  0.42990092188E-02 -0.65059551959E-02  0.28512484491E-02  0.83186340220E-02  0.51100000000E-03 0. -1.
</event>
<event>
 8    1  0.1079508E+005  0.1043930E+01  0.7957747E-01            NaN
         13   -1    0    0    0    0  0.00000000000E+00  0.00000000000E+00  0.74505805969E-08  0.10566000000E+00  0.10566000000E+00 0. -1.
     999900   -1    0    0    0    0 -0.00000000000E+00 -0.00000000000E+00 -0.74505805969E-08  0.93827000000E+00  0.93827000000E+00 0.  1.
     999902    2    1    2    0    0 -0.14986452847E-01  0.79333838629E-02  0.15568869822E-01  0.10209099640E+01  0.10206503969E+01 0.  0.
     999903    2    3    3    0    0 -0.10212494422E+00  0.31821964985E-01 -0.74154656193E-01  0.13174513561E+00  0.20389360807E-01 0.  0.
         14    1    1    2    0    0  0.14986452847E-01 -0.79333838629E-02 -0.15568869822E-01  0.23020035969E-01  0.00000000000E+00 0. -1.
     999901    1    3    3    0    0  0.87138491370E-01 -0.23888581122E-01  0.89723526014E-01  0.88916482842E+00  0.88000000000E+00 0. -1.
        -11    1    4    4    0    0 -0.38883282675E-01  0.21307831337E-02 -0.29012091258E-01  0.48563489048E-01  0.51100000000E-03 0. -1.
         11    1    4    4    0    0 -0.63241661543E-01  0.29691181852E-01 -0.45142564934E-01  0.83181646559E-01  0.51100000000E-03 0.  1.
</event>
<event>
 8    1  0.1079508E+005  0.1043930E+01  0.7957747E-01            NaN
         13   -1    0    0    0    0  0.00000000000E+00  0.00000000000E+00  0.74505805969E-08  0.10566000000E+00  0.10566000000E+00 0.  1.
     999900   -1    0    0    0    0 -0.00000000000E+00 -0.00000000000E+00 -0.74505805969E-08  0.93827000000E+00  0.93827000000E+00 0. -1.
     999902    2    1    2    0    0 -0.54154773638E-02 -0.34060086061E-02 -0.22670758723E-01  0.10203738630E+01  0.10201019207E+01 0.  0.
     999903    2    3    3    0    0  0.86445149565E-01 -0.76319694037E-02 -0.97856731174E-01  0.13239347809E+00  0.20520291499E-01 0.  0.
         14    1    1    2    0    0  0.54154773638E-02  0.34060086061E-02  0.22670758723E-01  0.23556137009E-01  0.00000000000E+00 0.  1.
     999901    1    3    3    0    0 -0.91860626929E-01  0.42259607976E-02  0.75185972451E-01  0.88798038491E+00  0.88000000000E+00 0.  1.
        -11    1    4    4    0    0  0.32339521777E-01  0.70608879197E-02 -0.35930875515E-01  0.48856829034E-01  0.51100000000E-03 0.  1.
         11    1    4    4    0    0  0.54105627788E-01 -0.14692857323E-01 -0.61925855659E-01  0.83536649051E-01  0.51100000000E-03 0. -1.
</event>
<event>
 8    1  0.1079508E+005  0.1043930E+01  0.7957747E-01            NaN
         13   -1    0    0    0    0  0.00000000000E+00  0.00000000000E+00  0.74505805969E-08  0.10566000000E+00  0.10566000000E+00 0.  1.
     999900   -1    0    0    0    0 -0.00000000000E+00 -0.00000000000E+00 -0.74505805969E-08  0.93827000000E+00  0.93827000000E+00 0.  1.
     999902    2    1    2    0    0  0.69795763585E-03  0.17193675333E-01 -0.15787648630E-01  0.10205770673E+01  0.10203098504E+01 0.  0.
     999903    2    3    3    0    0  0.23204558704E-01  0.13673275957E-01 -0.12810795230E+00  0.13314549759E+00  0.24303622504E-01 0.  0.
         14    1    1    2    0    0 -0.69795763585E-03 -0.17193675333E-01  0.15787648630E-01  0.23352932698E-01  0.00000000000E+00 0.  1.
     999901    1    3    3    0    0 -0.22506601068E-01  0.35203993761E-02  0.11232030367E+00  0.88743156971E+00  0.88000000000E+00 0. -1.
        -11    1    4    4    0    0  0.26221835769E-01  0.16807822022E-01 -0.11941589668E+00  0.12341193237E+00  0.51100000000E-03 0. -1.
         11    1    4    4    0    0 -0.30172770646E-02 -0.31345460647E-02 -0.86920556200E-02  0.97335652162E-02  0.51100000000E-03 0.  1.
</event>
<event>
 8    1  0.1079508E+005  0.1043930E+01  0.7957747E-01            NaN
         13   -1    0    0    0    0  0.00000000000E+00  0.00000000000E+00  0.74505805969E-08  0.10566000000E+00  0.10566000000E+00 0.  1.
     999900   -1    0    0    0    0 -0.00000000000E+00 -0.00000000000E+00 -0.74505805969E-08  0.93827000000E+00  0.93827000000E+00 0.  1.
     999902    2    1    2    0    0  0.77417479859E-02  0.21828366770E-01  0.24979146778E-02  0.10206351114E+01  0.10203692365E+01 0.  0.
     999903    2    3    3    0    0  0.13002780826E+00  0.10246721928E-01  0.62681545995E-02  0.13209573143E+00  0.19944078516E-01 0.  0.
         14    1    1    2    0    0 -0.77417479859E-02 -0.21828366770E-01 -0.24979146778E-02  0.23294888612E-01  0.00000000000E+00 0. -1.
     999901    1    3    3    0    0 -0.12228606027E+00  0.11581644842E-01 -0.37702399218E-02  0.88853937996E+00  0.88000000000E+00 0.  1.
        -11    1    4    4    0    0  0.84182231284E-01  0.16085113092E-01  0.52110171906E-02  0.85864979755E-01  0.51100000000E-03 0.  1.
         11    1    4    4    0    0  0.45845576975E-01 -0.58383911635E-02  0.10571374090E-02  0.46230751671E-01  0.51100000000E-03 0. -1.
</event>
<event>
 8    1  0.1079508E+005  0.1043930E+01  0.7957747E-01            NaN
         13   -1    0    0    0    0  0.00000000000E+00  0.00000000000E+00  0.74505805969E-08  0.10566000000E+00  0.10566000000E+00 0.  1.
     999900   -1    0    0    0    0 -0.00000000000E+00 -0.00000000000E+00 -0.74505805969E-08  0.93827000000E+00  0.93827000000E+00 0.  1.
     999902    2    1    2    0    0 -0.74358052338E-02  0.15792363299E-01 -0.15194793185E-01  0.10207875784E+01  0.10205252121E+01 0.  0.
     999903    2    3    3    0    0  0.21426750989E-01  0.10740056432E+00  0.70060611100E-01  0.13146559305E+00  0.19512202679E-01 0.  0.
         14    1    1    2    0    0  0.74358052338E-02 -0.15792363299E-01  0.15194793185E-01  0.23142421610E-01  0.00000000000E+00 0.  1.
     999901    1    3    3    0    0 -0.28862556223E-01 -0.91608201026E-01 -0.85255404285E-01  0.88932198534E+00  0.88000000000E+00 0.  1.
        -11    1    4    4    0    0 -0.23203615474E-04  0.43812962384E-01  0.32555499592E-01  0.54586609035E-01  0.51100000000E-03 0.  1.
         11    1    4    4    0    0  0.21449954604E-01  0.63587601941E-01  0.37505111508E-01  0.76878984016E-01  0.51100000000E-03 0. -1.
</event>
<event>
 8    1  0.1079508E+005  0.1043930E+01  0.7957747E-01            NaN
         13   -1    0    0    0    0  0.00000000000E+00  0.00000000000E+00  0.74505805969E-08  0.10566000000E+00  0.10566000000E+00 0. -1.
     999900   -1    0    0    0    0 -0.00000000000E+00 -0.00000000000E+00 -0.74505805969E-08  0.93827000000E+00  0.93827000000E+00 0. -1.
     999902    2    1    2    0    0  0.17233963621E-01 -0.52170144969E-03 -0.15744371295E-01  0.10205811906E+01  0.10203140691E+01 0.  0.
     999903    2    3    3    0    0 -0.79868744075E-01  0.14709262519E-01  0.96918684601E-01  0.12797047907E+00  0.19693486383E-01 0.  0.
         14    1    1    2    0    0 -0.17233963621E-01  0.52170144969E-03  0.15744371295E-01  0.23348809434E-01  0.00000000000E+00 0. -1.
     999901    1    3    3    0    0  0.97102707696E-01 -0.15230963969E-01 -0.11266305590E+00  0.89261071149E+00  0.88000000000E+00 0. -1.
        -11    1    4    4    0    0 -0.34265268775E-01  0.65724029200E-02  0.56927080160E-01  0.66770193207E-01  0.51100000000E-03 0. -1.
         11    1    4    4    0    0 -0.45603475299E-01  0.81368595991E-02  0.39991604441E-01  0.61200285868E-01  0.51100000000E-03 0.  1.
</event>
<event>
 8    1  0.1079508E+005  0.1043930E+01  0.7957747E-01            NaN
         13   -1    0    0    0    0  0.00000000000E+00  0.00000000000E+00  0.74505805969E-08  0.10566000000E+00  0.10566000000E+00 0. -1.
     999900   -1    0    0    0    0 -0.00000000000E+00 -0.00000000000E+00 -0.74505805969E-08  0.93827000000E+00  0.93827000000E+00 0. -1.
     999902    2    1    2    0    0 -0.49190278948E-02 -0.23105758137E-01  0.18850221360E-02  0.10202313460E+01  0.10199560643E+01 0.  0.
     999903    2    3    3    0    0  0.94284124269E-01  0.83196079754E-01 -0.16413009286E-01  0.12811242783E+00  0.18229742618E-01 0.  0.
         14    1    1    2    0    0  0.49190278948E-02  0.23105758137E-01 -0.18850221360E-02  0.23698654033E-01  0.00000000000E+00 0.  1.
     999901    1    3    3    0    0 -0.99203152164E-01 -0.10630183789E+00  0.18298031422E-01  0.89211891813E+00  0.88000000000E+00 0.  1.
        -11    1    4    4    0    0  0.49680580484E-01  0.53503986404E-01 -0.40909860329E-02  0.73128885716E-01  0.51100000000E-03 0. -1.
         11    1    4    4    0    0  0.44603543785E-01  0.29692093349E-01 -0.12322023253E-01  0.54983542117E-01  0.51100000000E-03 0.  1.
</event>
<event>
 8    1  0.1079508E+005  0.1043930E+01  0.7957747E-01            NaN
         13   -1    0    0    0    0  0.00000000000E+00  0.00000000000E+00  0.74505805969E-08  0.10566000000E+00  0.10566000000E+00 0.  1.
     999900   -1    0    0    0    0 -0.00000000000E+00 -0.00000000000E+00 -0.74505805969E-08  0.93827000000E+00  0.93827000000E+00 0. -1.
     999902    2    1    2    0    0 -0.16317627915E-01 -0.94987881946E-02  0.13995312296E-01  0.10204276443E+01  0.10201569568E+01 0.  0.
     999903    2    3    3    0    0  0.53546291712E-01 -0.55352016691E-01  0.10518294254E+00  0.13177773024E+00  0.19257925040E-01 0.  0.
         14    1    1    2    0    0  0.16317627915E-01  0.94987881946E-02 -0.13995312296E-01  0.23502355716E-01  0.00000000000E+00 0. -1.
     999901    1    3    3    0    0 -0.69863919627E-01  0.45853228497E-01 -0.91187630243E-01  0.88864991405E+00  0.88000000000E+00 0. -1.
        -11    1    4    4    0    0  0.46675200455E-01 -0.36855452990E-01  0.75101513629E-01  0.95798732888E-01  0.51100000000E-03 0. -1.
         11    1    4    4    0    0  0.68710912570E-02 -0.18496563701E-01  0.30081428910E-01  0.35978997347E-01  0.51100000000E-03 0.  1.
</event>
<event>
 8    1  0.1079508E+005  0.1043930E+01  0.7957747E-01            NaN
         13   -1    0    0    0    0  0.00000000000E+00  0.00000000000E+00  0.74505805969E-08  0.10566000000E+00  0.10566000000E+00 0. -1.
     999900   -1    0    0    0    0 -0.00000000000E+00 -0.00000000000E+00 -0.74505805969E-08  0.93827000000E+00  0.93827000000E+00 0. -1.
     999902    2    1    2    0    0 -0.34555323416E-02 -0.24320914913E-02  0.22111470778E-01  0.10214183827E+01  0.10211702795E+01 0.  0.
     999903    2    3    3    0    0 -0.10889113648E+00 -0.67531644606E-02  0.74617487638E-01  0.13356016200E+00  0.19174529368E-01 0.  0.
         14    1    1    2    0    0  0.34555323416E-02  0.24320914913E-02 -0.22111470778E-01  0.22511617285E-01  0.00000000000E+00 0.  1.
     999901    1    3    3    0    0  0.10543560414E+00  0.43210729694E-02 -0.52506016860E-01  0.88785822072E+00  0.88000000000E+00 0.  1.
        -11    1    4    4    0    0 -0.60234398428E-01 -0.33107115224E-02  0.29670600747E-01  0.67229080274E-01  0.51100000000E-03 0.  1.
         11    1    4    4    0    0 -0.48656738053E-01 -0.34424529382E-02  0.44946886891E-01  0.66331081722E-01  0.51100000000E-03 0. -1.
</event>
<event>
 8    1  0.1079508E+005  0.1043930E+01  0.7957747E-01            NaN
         13   -1    0    0    0    0  0.00000000000E+00  0.00000000000E+00  0.74505805969E-08  0.10566000000E+00  0.10566000000E+00 0.  1.
     999900   -1    0    0    0    0 -0.00000000000E+00 -0.00000000000E+00 -0.74505805969E-08  0.93827000000E+00  0.93827000000E+00 0.  1.
     999902    2    1    2    0    0  0.25755927357E-02  0.15942822187E-01 -0.16925976235E-01  0.10205356432E+01  0.10202674665E+01 0.  0.
     999903    2    3    3    0    0 -0.52797653489E-01 -0.23558992227E-01 -0.11734037919E+00  0.13221720817E+00  0.19235571756E-01 0.  0.
         14    1    1    2    0    0 -0.25755927357E-02 -0.15942822187E-01  0.16925976235E-01  0.23394356771E-01  0.00000000000E+00 0.  1.
     999901    1    3    3    0    0  0.55373246225E-01  0.39501814414E-01  0.10041440295E+00  0.88831843506E+00  0.88000000000E+00 0. -1.
        -11    1    4    4    0    0 -0.12787153847E-01 -0.14819264421E-01 -0.31190508176E-01  0.36827039288E-01  0.51100000000E-03 0. -1.
         11    1    4    4    0    0 -0.40010499641E-01 -0.87397278061E-02 -0.86149871011E-01  0.95390168885E-01  0.51100000000E-03 0.  1.
</event>
<event>
 8    1  0.1079508E+005  0.1043930E+01  0.7957747E-01            NaN
         13   -1    0    0    0    0  0.00000000000E+00  0.00000000000E+00  0.74505805969E-08  0.10566000000E+00  0.10566000000E+00 0.  1.
     999900   -1    0    0    0    0 -0.00000000000E+00 -0.00000000000E+00 -0.74505805969E-08  0.93827000000E+00  0.93827000000E+00 0.  1.
     999902    2    1    2    0    0  0.54117059242E-02 -0.14760682020E-01  0.16698118954E-01  0.10209954961E+01  0.10207378760E+01 0.  0.
     999903    2    3    3    0    0 -0.50735066034E-01 -0.68095874431E-01  0.10060390707E+00  0.13361886574E+00  0.22842069130E-01 0.  0.
         14    1    1    2    0    0 -0.54117059242E-02  0.14760682020E-01 -0.16698118954E-01  0.22934503948E-01  0.00000000000E+00 0. -1.
     999901    1    3    3    0    0  0.56146771959E-01  0.53335192411E-01 -0.83905788119E-01  0.88737663032E+00  0.88000000000E+00 0. -1.
        -11    1    4    4    0    0 -0.21482582269E-01 -0.38220661278E-01  0.36342057761E-01  0.56950211350E-01  0.51100000000E-03 0.  1.
         11    1    4    4    0    0 -0.29252483765E-01 -0.29875213153E-01  0.64261849312E-01  0.76668654386E-01  0.51100000000E-03 0. -1.
</event>
<event>
 8    1  0.1079508E+005  0.1043930E+01  0.7957747E-01            NaN
         13   -1    0    0    0    0  0.00000000000E+00  0.00000000000E+00  0.74505805969E-08  0.10566000000E+00  0.10566000000E+00 0.  1.
     999900   -1    0    0    0    0 -0.00000000000E+00 -0.00000000000E+00 -0.74505805969E-08  0.93827000000E+00  0.93827000000E+00 0.  1.
     999902    2    1    2    0    0 -0.19043465805E-01 -0.36459744599E-02 -0.13445590258E-01  0.10203348603E+01  0.10200620062E+01 0.  0.
     999903    2    3    3    0    0 -0.42795586939E-01  0.42790239614E-02 -0.12433104919E+00  0.13302287805E+00  0.19674958319E-01 0.  0.
         14    1    1    2    0    0  0.19043465805E-01  0.36459744599E-02  0.13445590258E-01  0.23595139691E-01  0.00000000000E+00 0.  1.
     999901    1    3    3    0    0  0.23752121133E-01 -0.79249984212E-02  0.11088545893E+00  0.88731198226E+00  0.88000000000E+00 0. -1.
        -11    1    4    4    0    0 -0.28382546598E-01 -0.66741689018E-02 -0.78766006744E-01  0.83990823435E-01  0.51100000000E-03 0.  1.
         11    1    4    4    0    0 -0.14413040340E-01  0.10953192863E-01 -0.45565042445E-01  0.49032054615E-01  0.51100000000E-03 0. -1.
</event>
<event>
 8    1  0.1079508E+005  0.1043930E+01  0.7957747E-01            NaN
         13   -1    0    0    0    0  0.00000000000E+00  0.00000000000E+00  0.74505805969E-08  0.10566000000E+00  0.10566000000E+00 0.  1.
     999900   -1    0    0    0    0 -0.00000000000E+00 -0.00000000000E+00 -0.74505805969E-08  0.93827000000E+00  0.93827000000E+00 0.  1.
     999902    2    1    2    0    0  0.68888359444E-02 -0.22728290993E-01  0.54067318096E-02  0.10195729883E+01  0.10192820092E+01 0.  0.
     999903    2    3    3    0    0 -0.99903618896E-01 -0.60709335458E-01  0.55489267177E-01  0.13089112814E+00  0.19674149903E-01 0.  0.
         14    1    1    2    0    0 -0.68888359444E-02  0.22728290993E-01 -0.54067318096E-02  0.24357011741E-01  0.00000000000E+00 0. -1.
     999901    1    3    3    0    0  0.10679245484E+00  0.37981044465E-01 -0.50082535367E-01  0.88868186012E+00  0.88000000000E+00 0.  1.
        -11    1    4    4    0    0 -0.21165042452E-01 -0.41334027892E-02  0.10988569914E-01  0.24208548704E-01  0.51100000000E-03 0.  1.
         11    1    4    4    0    0 -0.78738576444E-01 -0.56575932669E-01  0.44500697262E-01  0.10668257944E+00  0.51100000000E-03 0. -1.
</event>
<event>
 8    1  0.1079508E+005  0.1043930E+01  0.7957747E-01            NaN
         13   -1    0    0    0    0  0.00000000000E+00  0.00000000000E+00  0.74505805969E-08  0.10566000000E+00  0.10566000000E+00 0. -1.
     999900   -1    0    0    0    0 -0.00000000000E+00 -0.00000000000E+00 -0.74505805969E-08  0.93827000000E+00  0.93827000000E+00 0. -1.
     999902    2    1    2    0    0 -0.23027486070E-01 -0.19584946250E-03 -0.43768659742E-02  0.10204894277E+01  0.10202201781E+01 0.  0.
     999903    2    3    3    0    0  0.18657538566E-01  0.10127277557E+00  0.76792445373E-01  0.12997161195E+00  0.19780329364E-01 0.  0.
         14    1    1    2    0    0  0.23027486070E-01  0.19584946250E-03  0.43768659742E-02  0.23440572252E-01  0.00000000000E+00 0.  1.
     999901    1    3    3    0    0 -0.41685024636E-01 -0.10146862503E+00 -0.81169311347E-01  0.89051781580E+00  0.88000000000E+00 0.  1.
        -11    1    4    4    0    0  0.16597544900E-01  0.10076430115E+00  0.72779276380E-01  0.12540337745E+00  0.51100000000E-03 0. -1.
         11    1    4    4    0    0  0.20599936656E-02  0.50847441933E-03  0.40131689930E-02  0.45682345062E-02  0.51100000000E-03 0.  1.
</event>
<event>
 8    1  0.1079508E+005  0.1043930E+01  0.7957747E-01            NaN
         13   -1    0    0    0    0  0.00000000000E+00  0.00000000000E+00  0.74505805969E-08  0.10566000000E+00  0.10566000000E+00 0.  1.
     999900   -1    0    0    0    0 -0.00000000000E+00 -0.00000000000E+00 -0.74505805969E-08  0.93827000000E+00  0.93827000000E+00 0.  1.
     999902    2    1    2    0    0 -0.12173175036E-01  0.10013705484E-01 -0.17449524443E-01  0.10204151878E+01  0.10201442100E+01 0.  0.
     999903    2    3    3    0    0  0.50186379752E-01  0.75058725328E-01  0.90726756897E-01  0.12922403184E+00  0.17748831700E-01 0.  0.
         14    1    1    2    0    0  0.12173175036E-01 -0.10013705484E-01  0.17449524443E-01  0.23514812167E-01  0.00000000000E+00 0. -1.
     999901    1    3    3    0    0 -0.62359554788E-01 -0.65045019844E-01 -0.10817628134E+00  0.89119115600E+00  0.88000000000E+00 0. -1.
        -11    1    4    4    0    0  0.33105168896E-01  0.43539696291E-01  0.43257482714E-01  0.69736133335E-01  0.51100000000E-03 0. -1.
         11    1    4    4    0    0  0.17081210856E-01  0.31519029037E-01  0.47469274183E-01  0.59487898502E-01  0.51100000000E-03 0.  1.
</event>
<event>
 8    1  0.1079508E+005  0.1043930E+01  0.7957747E-01            NaN
         13   -1    0    0    0    0  0.00000000000E+00  0.00000000000E+00  0.74505805969E-08  0.10566000000E+00  0.10566000000E+00 0.  1.
     999900   -1    0    0    0    0 -0.00000000000E+00 -0.00000000000E+00 -0.74505805969E-08  0.93827000000E+00  0.93827000000E+00 0.  1.
     999902    2    1    2    0    0  0.10647990795E-01  0.20136605407E-01  0.30620746461E-02  0.10209465519E+01  0.10206878186E+01 0.  0.
     999903    2    3    3    0    0 -0.11284284114E+00 -0.16165638418E-01  0.58594250776E-01  0.12985078765E+00  0.20811202936E-01 0.  0.
         14    1    1    2    0    0 -0.10647990795E-01 -0.20136605407E-01 -0.30620746461E-02  0.22983448097E-01  0.00000000000E+00 0. -1.
     999901    1    3    3    0    0  0.12349083194E+00  0.36302243825E-01 -0.55532176130E-01  0.89109576425E+00  0.88000000000E+00 0. -1.
        -11    1    4    4    0    0 -0.68869942959E-01 -0.19554747816E-01  0.32735568603E-01  0.78723159096E-01  0.51100000000E-03 0.  1.
         11    1    4    4    0    0 -0.43972898182E-01  0.33891093983E-02  0.25858682173E-01  0.51127628556E-01  0.51100000000E-03 0. -1.
</event>
<event>
 8    1  0.1079508E+005  0.1043930E+01  0.7957747E-01            NaN
         13   -1    0    0    0    0  0.00000000000E+00  0.00000000000E+00  0.74505805969E-08  0.10566000000E+00  0.10566000000E+00 0. -1.
     999900   -1    0    0    0    0 -0.00000000000E+00 -0.00000000000E+00 -0.74505805969E-08  0.93827000000E+00  0.93827000000E+00 0.  1.
     999902    2    1    2    0    0 -0.22755975474E-02 -0.14246236360E-01  0.16177614347E-01  0.10222540040E+01  0.10220241680E+01 0.  0.
     999903    2    3    3    0    0 -0.32849419095E-01 -0.12485572294E+00 -0.28456899557E-01  0.13368129632E+00  0.19820645003E-01 0.  0.
         14    1    1    2    0    0  0.22755975474E-02  0.14246236360E-01 -0.16177614347E-01  0.21675995954E-01  0.00000000000E+00 0.  1.
     999901    1    3    3    0    0  0.30573821547E-01  0.11060948658E+00  0.44634513904E-01  0.88857270773E+00  0.88000000000E+00 0.  1.
        -11    1    4    4    0    0 -0.26966704866E-01 -0.98716918580E-01 -0.30561748656E-01  0.10680128645E+00  0.51100000000E-03 0.  1.
         11    1    4    4    0    0 -0.58827142285E-02 -0.26138804357E-01  0.21048490994E-02  0.26880009871E-01  0.51100000000E-03 0. -1.
</event>
<event>
 8    1  0.1079508E+005  0.1043930E+01  0.7957747E-01            NaN
         13   -1    0    0    0    0  0.00000000000E+00  0.00000000000E+00  0.74505805969E-08  0.10566000000E+00  0.10566000000E+00 0. -1.
     999900   -1    0    0    0    0 -0.00000000000E+00 -0.00000000000E+00 -0.74505805969E-08  0.93827000000E+00  0.93827000000E+00 0. -1.
     999902    2    1    2    0    0 -0.11890477954E-02 -0.28336292590E-02 -0.23202204121E-01  0.10205251807E+01  0.10202567613E+01 0.  0.
     999903    2    3    3    0    0 -0.10191742657E+00 -0.59855405861E-01 -0.56423885286E-01  0.13232398201E+00  0.18871935071E-01 0.  0.
         14    1    1    2    0    0  0.11890477954E-02  0.28336292590E-02  0.23202204121E-01  0.23404819279E-01  0.00000000000E+00 0. -1.
     999901    1    3    3    0    0  0.10072837878E+00  0.57021776602E-01  0.33221681165E-01  0.88820119871E+00  0.88000000000E+00 0. -1.
        -11    1    4    4    0    0 -0.69140270821E-01 -0.42095888264E-01 -0.47970095678E-01  0.94094803567E-01  0.51100000000E-03 0.  1.
         11    1    4    4    0    0 -0.32777155751E-01 -0.17759517598E-01 -0.84537896081E-02  0.38229178440E-01  0.51100000000E-03 0. -1.
</event>
<event>
 8    1  0.1079508E+005  0.1043930E+01  0.7957747E-01            NaN
         13   -1    0    0    0    0  0.00000000000E+00  0.00000000000E+00  0.74505805969E-08  0.10566000000E+00  0.10566000000E+00 0.  1.
     999900   -1    0    0    0    0 -0.00000000000E+00 -0.00000000000E+00 -0.74505805969E-08  0.93827000000E+00  0.93827000000E+00 0.  1.
     999902    2    1    2    0    0 -0.20578708660E-01 -0.11536097118E-01  0.25489565418E-03  0.10203369977E+01  0.10200641936E+01 0.  0.
     999903    2    3    3    0    0 -0.88657950879E-01 -0.23127683452E-01  0.94667656444E-01  0.13259665417E+00  0.14992849090E-01 0.  0.
         14    1    1    2    0    0  0.20578708660E-01  0.11536097118E-01 -0.25489565418E-03  0.23593002323E-01  0.00000000000E+00 0.  1.
     999901    1    3    3    0    0  0.68079242219E-01  0.11591586335E-01 -0.94412760790E-01  0.88774034351E+00  0.88000000000E+00 0.  1.
        -11    1    4    4    0    0 -0.22064478296E-01  0.76579586051E-03  0.21794190823E-01  0.31027012753E-01  0.51100000000E-03 0. -1.
         11    1    4    4    0    0 -0.66593472584E-01 -0.23893479313E-01  0.72873465620E-01  0.10156964141E+00  0.51100000000E-03 0.  1.
</event>
<event>
 8    1  0.1079508E+005  0.1043930E+01  0.7957747E-01            NaN
         13   -1    0    0    0    0  0.00000000000E+00  0.00000000000E+00  0.74505805969E-08  0.10566000000E+00  0.10566000000E+00 0. -1.
     999900   -1    0    0    0    0 -0.00000000000E+00 -0.00000000000E+00 -0.74505805969E-08  0.93827000000E+00  0.93827000000E+00 0.  1.
     999902    2    1    2    0    0  0.15901081255E-01  0.65433030150E-02  0.19565650306E-02  0.10266242973E+01  0.10264784267E+01 0.  0.
     999903    2    3    3    0    0  0.13149181749E+00  0.36830008913E-01 -0.79680844167E-02  0.13849311243E+00  0.21686498072E-01 0.  0.
         14    1    1    2    0    0 -0.15901081255E-01 -0.65433030150E-02 -0.19565650306E-02  0.17305702706E-01  0.00000000000E+00 0. -1.
     999901    1    3    3    0    0 -0.11559073623E+00 -0.30286705898E-01  0.99246494473E-02  0.88813118486E+00  0.88000000000E+00 0. -1.
        -11    1    4    4    0    0  0.10516722359E+00  0.32199406988E-01 -0.14592068312E-01  0.11095105365E+00  0.51100000000E-03 0.  1.
         11    1    4    4    0    0  0.26324593901E-01  0.46306019247E-02  0.66239838955E-02  0.27542058781E-01  0.51100000000E-03 0. -1.
</event>
<event>
 8    1  0.1079508E+005  0.1043930E+01  0.7957747E-01            NaN
         13   -1    0    0    0    0  0.00000000000E+00  0.00000000000E+00  0.74505805969E-08  0.10566000000E+00  0.10566000000E+00 0.  1.
     999900   -1    0    0    0    0 -0.00000000000E+00 -0.00000000000E+00 -0.74505805969E-08  0.93827000000E+00  0.93827000000E+00 0. -1.
     999902    2    1    2    0    0 -0.25239735975E-02 -0.11159654851E-02  0.21322859015E-01  0.10224292991E+01  0.10222032046E+01 0.  0.
     999903    2    3    3    0    0  0.58240921045E-01 -0.53033710016E-01 -0.10176174053E+00  0.13027592483E+00  0.20292497941E-01 0.  0.
         14    1    1    2    0    0  0.25239735975E-02  0.11159654851E-02 -0.21322859015E-01  0.21500700878E-01  0.00000000000E+00 0. -1.
     999901    1    3    3    0    0 -0.60764894643E-01  0.51917744531E-01  0.12308459954E+00  0.89215337429E+00  0.88000000000E+00 0.  1.
        -11    1    4    4    0    0  0.33872337387E-01 -0.17192323653E-01 -0.48444794823E-01  0.61563548461E-01  0.51100000000E-03 0.  1.
         11    1    4    4    0    0  0.24368583658E-01 -0.35841386363E-01 -0.53316945705E-01  0.68712376369E-01  0.51100000000E-03 0. -1.
</event>
<event>
 8    1  0.1079508E+005  0.1043930E+01  0.7957747E-01            NaN
         13   -1    0    0    0    0  0.00000000000E+00  0.00000000000E+00  0.74505805969E-08  0.10566000000E+00  0.10566000000E+00 0. -1.
     999900   -1    0    0    0    0 -0.00000000000E+00 -0.00000000000E+00 -0.74505805969E-08  0.93827000000E+00  0.93827000000E+00 0.  1.
     999902    2    1    2    0    0 -0.11397395658E-01 -0.19068481965E-01  0.71340284249E-02  0.10205975763E+01  0.10203308340E+01 0.  0.
     999903    2    3    3    0    0  0.38357794555E-01  0.91946981223E-01  0.79435612429E-01  0.12929093378E+00  0.21921707893E-01 0.  0.
         14    1    1    2    0    0  0.11397395658E-01  0.19068481965E-01 -0.71340284249E-02  0.23332423660E-01  0.00000000000E+00 0.  1.
     999901    1    3    3    0    0 -0.49755190214E-01 -0.11101546319E+00 -0.72301584004E-01  0.89130664256E+00  0.88000000000E+00 0. -1.
        -11    1    4    4    0    0  0.22624675743E-01  0.30584703380E-01  0.36788677813E-01  0.52924171884E-01  0.51100000000E-03 0.  1.
         11    1    4    4    0    0  0.15733118812E-01  0.61362277843E-01  0.42646934616E-01  0.76366761898E-01  0.51100000000E-03 0. -1.
</event>
<event>
 8    1  0.1079508E+005  0.1043930E+01  0.7957747E-01            NaN
         13   -1    0    0    0    0  0.00000000000E+00  0.00000000000E+00  0.74505805969E-08  0.10566000000E+00  0.10566000000E+00 0.  1.
     999900   -1    0    0    0    0 -0.00000000000E+00 -0.00000000000E+00 -0.74505805969E-08  0.93827000000E+00  0.93827000000E+00 0. -1.
     999902    2    1    2    0    0  0.13690512184E-01  0.18788760854E-01  0.10212791787E-02  0.10206600479E+01  0.10203947485E+01 0.  0.
     999903    2    3    3    0    0  0.38779113087E-01 -0.12163437018E+00  0.10711074447E-03  0.12917312748E+00  0.19670937204E-01 0.  0.
         14    1    1    2    0    0 -0.13690512184E-01 -0.18788760854E-01 -0.10212791787E-02  0.23269952072E-01  0.00000000000E+00 0. -1.
     999901    1    3    3    0    0 -0.25088600903E-01  0.14042313103E+00  0.91416843426E-03  0.89148692045E+00  0.88000000000E+00 0. -1.
        -11    1    4    4    0    0  0.17607184904E-01 -0.73033644206E-01  0.80852761034E-02  0.75561623572E-01  0.51100000000E-03 0.  1.
         11    1    4    4    0    0  0.21171928182E-01 -0.48600725971E-01 -0.79781653589E-02  0.53611503909E-01  0.51100000000E-03 0. -1.
</event>
<event>
 8    1  0.1079508E+005  0.1043930E+01  0.7957747E-01            NaN
         13   -1    0    0    0    0  0.00000000000E+00  0.00000000000E+00  0.74505805969E-08  0.10566000000E+00  0.10566000000E+00 0.  1.
     999900   -1    0    0    0    0 -0.00000000000E+00 -0.00000000000E+00 -0.74505805969E-08  0.93827000000E+00  0.93827000000E+00 0. -1.
     999902    2    1    2    0    0 -0.24128227648E-01 -0.28120181167E-02  0.46698781400E-02  0.10191936588E+01  0.10188934329E+01 0.  0.
     999903    2    3    3    0    0  0.20915682130E-01 -0.65966119499E-01 -0.10626680042E+00  0.12884297451E+00  0.22779037016E-01 0.  0.
         14    1    1    2    0    0  0.24128227648E-01  0.28120181167E-02 -0.46698781400E-02  0.24736341224E-01  0.00000000000E+00 0.  1.
     999901    1    3    3    0    0 -0.45043909778E-01  0.63154101383E-01  0.11093667856E+00  0.89035068427E+00  0.88000000000E+00 0.  1.
        -11    1    4    4    0    0  0.78101298441E-02 -0.55539722010E-01 -0.82790768236E-01  0.10000115637E+00  0.51100000000E-03 0. -1.
         11    1    4    4    0    0  0.13105552286E-01 -0.10426397489E-01 -0.23476032184E-01  0.28841818136E-01  0.51100000000E-03 0.  1.
</event>
<event>
 8    1  0.1079508E+005  0.1043930E+01  0.7957747E-01            NaN
         13   -1    0    0    0    0  0.00000000000E+00  0.00000000000E+00  0.74505805969E-08  0.10566000000E+00  0.10566000000E+00 0.  1.
     999900   -1    0    0    0    0 -0.00000000000E+00 -0.00000000000E+00 -0.74505805969E-08  0.93827000000E+00  0.93827000000E+00 0.  1.
     999902    2    1    2    0    0 -0.70358538481E-02 -0.20010163494E-01  0.10610688013E-01  0.10202129896E+01  0.10199372763E+01 0.  0.
     999903    2    3    3    0    0  0.49205087001E-01  0.87127470402E-01  0.79609813478E-01  0.12925710105E+00  0.18903414596E-01 0.  0.
         14    1    1    2    0    0  0.70358538481E-02  0.20010163494E-01 -0.10610688013E-01  0.23717010405E-01  0.00000000000E+00 0.  1.
     999901    1    3    3    0    0 -0.56240940849E-01 -0.10713763390E+00 -0.68999125465E-01  0.89095588855E+00  0.88000000000E+00 0.  1.
        -11    1    4    4    0    0  0.20121796366E-01  0.38738022769E-01  0.46609207673E-01  0.63860789675E-01  0.51100000000E-03 0.  1.
         11    1    4    4    0    0  0.29083290636E-01  0.48389447633E-01  0.33000605805E-01  0.65396311371E-01  0.51100000000E-03 0. -1.
</event>
<event>
 8    1  0.1079508E+005  0.1043930E+01  0.7957747E-01            NaN
         13   -1    0    0    0    0  0.00000000000E+00  0.00000000000E+00  0.74505805969E-08  0.10566000000E+00  0.10566000000E+00 0. -1.
     999900   -1    0    0    0    0 -0.00000000000E+00 -0.00000000000E+00 -0.74505805969E-08  0.93827000000E+00  0.93827000000E+00 0. -1.
     999902    2    1    2    0    0 -0.27118474401E-01 -0.37444752436E-02  0.15068506349E-01  0.10126811179E+01  0.10121988707E+01 0.  0.
     999903    2    3    3    0    0 -0.95047650627E-01 -0.52709757805E-01 -0.59640115143E-01  0.12555466130E+00  0.19865930194E-01 0.  0.
         14    1    1    2    0    0  0.27118474401E-01  0.37444752436E-02 -0.15068506349E-01  0.31248882097E-01  0.00000000000E+00 0. -1.
     999901    1    3    3    0    0  0.67929176226E-01  0.48965282561E-01  0.74708621492E-01  0.88712645660E+00  0.88000000000E+00 0.  1.
        -11    1    4    4    0    0 -0.63606156846E-02 -0.89526224239E-02 -0.22788198279E-02  0.11227689921E-01  0.51100000000E-03 0.  1.
         11    1    4    4    0    0 -0.88687034942E-01 -0.43757135381E-01 -0.57361295315E-01  0.11432697138E+00  0.51100000000E-03 0. -1.
</event>
<event>
 8    1  0.1079508E+005  0.1043930E+01  0.7957747E-01            NaN
         13   -1    0    0    0    0  0.00000000000E+00  0.00000000000E+00  0.74505805969E-08  0.10566000000E+00  0.10566000000E+00 0.  1.
     999900   -1    0    0    0    0 -0.00000000000E+00 -0.00000000000E+00 -0.74505805969E-08  0.93827000000E+00  0.93827000000E+00 0.  1.
     999902    2    1    2    0    0  0.37170728851E-03  0.18364451638E-01  0.14721391510E-01  0.10203904457E+01  0.10201188906E+01 0.  0.
     999903    2    3    3    0    0  0.68497669441E-02 -0.10696950719E+00 -0.66625958295E-01  0.12777184973E+00  0.19930692116E-01 0.  0.
         14    1    1    2    0    0 -0.37170728851E-03 -0.18364451638E-01 -0.14721391510E-01  0.23539554335E-01  0.00000000000E+00 0. -1.
     999901    1    3    3    0    0 -0.64780596556E-02  0.12533395883E+00  0.81347349805E-01  0.89261859594E+00  0.88000000000E+00 0.  1.
        -11    1    4    4    0    0 -0.14718431757E-02 -0.54656742132E-01 -0.43936634393E-01  0.70144242427E-01  0.51100000000E-03 0. -1.
         11    1    4    4    0    0  0.83216101199E-02 -0.52312765059E-01 -0.22689323901E-01  0.57627607301E-01  0.51100000000E-03 0.  1.
</event>
<event>
 8    1  0.1079508E+005  0.1043930E+01  0.7957747E-01            NaN
         13   -1    0    0    0    0  0.00000000000E+00  0.00000000000E+00  0.74505805969E-08  0.10566000000E+00  0.10566000000E+00 0. -1.
     999900   -1    0    0    0    0 -0.00000000000E+00 -0.00000000000E+00 -0.74505805969E-08  0.93827000000E+00  0.93827000000E+00 0.  1.
     999902    2    1    2    0    0 -0.16776019272E-01  0.87109506974E-02 -0.14199487060E-01  0.10202880687E+01  0.10200141186E+01 0.  0.
     999903    2    3    3    0    0 -0.12834708567E+00 -0.23117308184E-01 -0.13583490700E-01  0.13267243091E+00  0.20250391793E-01 0.  0.
         14    1    1    2    0    0  0.16776019272E-01 -0.87109506974E-02  0.14199487060E-01  0.23641931339E-01  0.00000000000E+00 0. -1.
     999901    1    3    3    0    0  0.11157106640E+00  0.31828258882E-01 -0.61599635986E-03  0.88761563775E+00  0.88000000000E+00 0.  1.
        -11    1    4    4    0    0 -0.65123342690E-01 -0.17999872742E-02 -0.41006144433E-02  0.65279138146E-01  0.51100000000E-03 0. -1.
         11    1    4    4    0    0 -0.63223742979E-01 -0.21317320910E-01 -0.94828762566E-02  0.67393292769E-01  0.51100000000E-03 0.  1.
</event>
<event>
 8    1  0.1079508E+005  0.1043930E+01  0.7957747E-01            NaN
         13   -1    0    0    0    0  0.00000000000E+00  0.00000000000E+00  0.74505805969E-08  0.10566000000E+00  0.10566000000E+00 0.  1.
     999900   -1    0    0    0    0 -0.00000000000E+00 -0.00000000000E+00 -0.74505805969E-08  0.93827000000E+00  0.93827000000E+00 0. -1.
     999902    2    1    2    0    0 -0.21382296117E-01  0.15988886578E-01  0.98914126982E-03  0.10172124874E+01  0.10168615535E+01 0.  0.
     999903    2    3    3    0    0 -0.53302511601E-01 -0.42048496812E-01  0.10730252126E+00  0.12834254592E+00  0.18674694050E-01 0.  0.
         14    1    1    2    0    0  0.21382296117E-01 -0.15988886578E-01 -0.98914126982E-03  0.26717512640E-01  0.00000000000E+00 0.  1.
     999901    1    3    3    0    0  0.31920215484E-01  0.58037383390E-01 -0.10631337999E+00  0.88886994144E+00  0.88000000000E+00 0. -1.
        -11    1    4    4    0    0 -0.49177499710E-01 -0.42688176594E-01  0.93724906725E-01  0.11412855103E+00  0.51100000000E-03 0. -1.
         11    1    4    4    0    0 -0.41250118912E-02  0.63967978199E-03  0.13577614535E-01  0.14213994892E-01  0.51100000000E-03 0.  1.
</event>
<event>
 8    1  0.1079508E+005  0.1043930E+01  0.7957747E-01            NaN
         13   -1    0    0    0    0  0.00000000000E+00  0.00000000000E+00  0.74505805969E-08  0.10566000000E+00  0.10566000000E+00 0. -1.
     999900   -1    0    0    0    0 -0.00000000000E+00 -0.00000000000E+00 -0.74505805969E-08  0.93827000000E+00  0.93827000000E+00 0.  1.
     999902    2    1    2    0    0 -0.84546686245E-02 -0.96021762402E-02  0.19797454142E-01  0.10203583560E+01  0.10200860514E+01 0.  0.
     999903    2    3    3    0    0  0.11838729659E+00  0.41410551382E-01 -0.21814589581E-01  0.12883003638E+00  0.19771600707E-01 0.  0.
         14    1    1    2    0    0  0.84546686245E-02  0.96021762402E-02 -0.19797454142E-01  0.23571643994E-01  0.00000000000E+00 0. -1.
     999901    1    3    3    0    0 -0.12684196521E+00 -0.51012727622E-01  0.41612043723E-01  0.89152831963E+00  0.88000000000E+00 0. -1.
        -11    1    4    4    0    0  0.12656298457E-01  0.37278116691E-02 -0.87174771995E-02  0.15821946789E-01  0.51100000000E-03 0. -1.
         11    1    4    4    0    0  0.10573099813E+00  0.37682739713E-01 -0.13097112382E-01  0.11300808959E+00  0.51100000000E-03 0.  1.
</event>
<event>
 8    1  0.1079508E+005  0.1043930E+01  0.7957747E-01            NaN
         13   -1    0    0    0    0  0.00000000000E+00  0.00000000000E+00  0.74505805969E-08  0.10566000000E+00  0.10566000000E+00 0.  1.
     999900   -1    0    0    0    0 -0.00000000000E+00 -0.00000000000E+00 -0.74505805969E-08  0.93827000000E+00  0.93827000000E+00 0.  1.
     999902    2    1    2    0    0 -0.11823274545E-01  0.36016118054E-02 -0.20205250169E-01  0.10202442751E+01  0.10199692973E+01 0.  0.
     999903    2    3    3    0    0  0.51590467476E-01 -0.10650723174E+00  0.46308916571E-01  0.12863371300E+00  0.19918574736E-01 0.  0.
         14    1    1    2    0    0  0.11823274545E-01 -0.36016118054E-02  0.20205250169E-01  0.23685724877E-01  0.00000000000E+00 0.  1.
     999901    1    3    3    0    0 -0.63413742021E-01  0.11010884355E+00 -0.66514166740E-01  0.89161056212E+00  0.88000000000E+00 0. -1.
        -11    1    4    4    0    0  0.67130462192E-02 -0.29317726366E-01  0.17558851551E-01  0.34830567862E-01  0.51100000000E-03 0.  1.
         11    1    4    4    0    0  0.44877421257E-01 -0.77189505377E-01  0.28750065019E-01  0.93803145142E-01  0.51100000000E-03 0. -1.
</event>
<event>
 8    1  0.1079508E+005  0.1043930E+01  0.7957747E-01            NaN
         13   -1    0    0    0    0  0.00000000000E+00  0.00000000000E+00  0.74505805969E-08  0.10566000000E+00  0.10566000000E+00 0. -1.
     999900   -1    0    0    0    0 -0.00000000000E+00 -0.00000000000E+00 -0.74505805969E-08  0.93827000000E+00  0.93827000000E+00 0. -1.
     999902    2    1    2    0    0 -0.16875062192E-01 -0.12711436178E-01 -0.83390736830E-02  0.10212168214E+01  0.10209642049E+01 0.  0.
     999903    2    3    3    0    0  0.81066488417E-01 -0.90016990887E-01  0.43027828084E-01  0.13093189241E+00  0.24838121279E-01 0.  0.
         14    1    1    2    0    0  0.16875062192E-01  0.12711436178E-01  0.83390736830E-02  0.22713178633E-01  0.00000000000E+00 0. -1.
     999901    1    3    3    0    0 -0.97941550610E-01  0.77305554709E-01 -0.51366901767E-01  0.89028492895E+00  0.88000000000E+00 0. -1.
        -11    1    4    4    0    0  0.53294016579E-01 -0.62682554484E-01  0.40951395017E-01  0.91905564111E-01  0.51100000000E-03 0.  1.
         11    1    4    4    0    0  0.27772471839E-01 -0.27334436403E-01  0.20764330674E-02  0.39026328303E-01  0.51100000000E-03 0. -1.
</event>
<event>
 8    1  0.1079508E+005  0.1043930E+01  0.7957747E-01            NaN
         13   -1    0    0    0    0  0.00000000000E+00  0.00000000000E+00  0.74505805969E-08  0.10566000000E+00  0.10566000000E+00 0.  1.
     999900   -1    0    0    0    0 -0.00000000000E+00 -0.00000000000E+00 -0.74505805969E-08  0.93827000000E+00  0.93827000000E+00 0.  1.
     999902    2    1    2    0    0 -0.33075414477E-02  0.13298111670E-01 -0.19632508811E-01  0.10199880910E+01  0.10197070613E+01 0.  0.
     999903    2    3    3    0    0  0.98231526212E-01  0.76788579779E-01  0.31372601246E-01  0.13041361798E+00  0.21852984195E-01 0.  0.
         14    1    1    2    0    0  0.33075414477E-02 -0.13298111670E-01  0.19632508811E-01  0.23941909001E-01  0.00000000000E+00 0.  1.
     999901    1    3    3    0    0 -0.10153906766E+00 -0.63490468109E-01 -0.51005110057E-01  0.88957447302E+00  0.88000000000E+00 0. -1.
        -11    1    4    4    0    0  0.36604317024E-01  0.20737134768E-01  0.19108902348E-01  0.46209480122E-01  0.51100000000E-03 0.  1.
         11    1    4    4    0    0  0.61627209188E-01  0.56051445010E-01  0.12263698898E-01  0.84204137854E-01  0.51100000000E-03 0. -1.
</event>
<event>
 8    1  0.1079508E+005  0.1043930E+01  0.7957747E-01            NaN
         13   -1    0    0    0    0  0.00000000000E+00  0.00000000000E+00  0.74505805969E-08  0.10566000000E+00  0.10566000000E+00 0.  1.
     999900   -1    0    0    0    0 -0.00000000000E+00 -0.00000000000E+00 -0.74505805969E-08  0.93827000000E+00  0.93827000000E+00 0.  1.
     999902    2    1    2    0    0  0.14686055330E-01  0.20564154929E-01 -0.14873285771E-02  0.10186164298E+01  0.10183018483E+01 0.  0.
     999903    2    3    3    0    0  0.11111344495E+00  0.68183440726E-01  0.40797849317E-02  0.13205180690E+00  0.20636274478E-01 0.  0.
         14    1    1    2    0    0 -0.14686055330E-01 -0.20564154929E-01  0.14873285771E-02  0.25313570183E-01  0.00000000000E+00 0. -1.
     999901    1    3    3    0    0 -0.96427389617E-01 -0.47619285797E-01 -0.55671135088E-02  0.88656462291E+00  0.88000000000E+00 0.  1.
        -11    1    4    4    0    0  0.15772404148E-01  0.16787282456E-01  0.56681528807E-02  0.23727002822E-01  0.51100000000E-03 0. -1.
         11    1    4    4    0    0  0.95341040800E-01  0.51396158270E-01 -0.15883679490E-02  0.10832480408E+00  0.51100000000E-03 0.  1.
</event>
<event>
 8    1  0.1079508E+005  0.1043930E+01  0.7957747E-01            NaN
         13   -1    0    0    0    0  0.00000000000E+00  0.00000000000E+00  0.74505805969E-08  0.10566000000E+00  0.10566000000E+00 0.  1.
     999900   -1    0    0    0    0 -0.00000000000E+00 -0.00000000000E+00 -0.74505805969E-08  0.93827000000E+00  0.93827000000E+00 0. -1.
     999902    2    1    2    0    0  0.23382415356E-01 -0.52966484351E-02  0.97410981968E-03  0.10199354022E+01  0.10196531194E+01 0.  0.
     999903    2    3    3    0    0 -0.78114762187E-02  0.94435773395E-01  0.86101490225E-01  0.12967348249E+00  0.20557504332E-01 0.  0.
         14    1    1    2    0    0 -0.23382415356E-01  0.52966484351E-02 -0.97410981968E-03  0.23994597777E-01  0.00000000000E+00 0. -1.
     999901    1    3    3    0    0  0.31193891575E-01 -0.99732421830E-01 -0.85127380405E-01  0.89026191973E+00  0.88000000000E+00 0. -1.
        -11    1    4    4    0    0 -0.86620602532E-02  0.13688827207E-01  0.14063141930E-01  0.21458060492E-01  0.51100000000E-03 0.  1.
         11    1    4    4    0    0  0.85058403446E-03  0.80746946187E-01  0.72038348295E-01  0.10821542200E+00  0.51100000000E-03 0. -1.
</event>
<event>
 8    1  0.1079508E+005  0.1043930E+01  0.7957747E-01            NaN
         13   -1    0    0    0    0  0.00000000000E+00  0.00000000000E+00  0.74505805969E-08  0.10566000000E+00  0.10566000000E+00 0.  1.
     999900   -1    0    0    0    0 -0.00000000000E+00 -0.00000000000E+00 -0.74505805969E-08  0.93827000000E+00  0.93827000000E+00 0.  1.
     999902    2    1    2    0    0 -0.14909030303E-01 -0.24190878131E-01  0.22089469422E-03  0.10155129881E+01  0.10151153149E+01 0.  0.
     999903    2    3    3    0    0  0.81038251563E-01  0.18959585294E-01  0.90663266853E-01  0.12464393710E+00  0.19738769188E-01 0.  0.
         14    1    1    2    0    0  0.14909030303E-01  0.24190878131E-01 -0.22089469422E-03  0.28417011874E-01  0.00000000000E+00 0. -1.
     999901    1    3    3    0    0 -0.95947281866E-01 -0.43150463425E-01 -0.90442372158E-01  0.89086905102E+00  0.88000000000E+00 0.  1.
        -11    1    4    4    0    0  0.23668364835E-01 -0.35641072255E-03  0.16248752236E-01  0.28715877016E-01  0.51100000000E-03 0.  1.
         11    1    4    4    0    0  0.57369886728E-01  0.19315996016E-01  0.74414514617E-01  0.95928060087E-01  0.51100000000E-03 0. -1.
</event>
<event>
 8    1  0.1079508E+005  0.1043930E+01  0.7957747E-01            NaN
         13   -1    0    0    0    0  0.00000000000E+00  0.00000000000E+00  0.74505805969E-08  0.10566000000E+00  0.10566000000E+00 0.  1.
     999900   -1    0    0    0    0 -0.00000000000E+00 -0.00000000000E+00 -0.74505805969E-08  0.93827000000E+00  0.93827000000E+00 0. -1.
     999902    2    1    2    0    0 -0.66949305255E-02  0.43696673569E-02  0.16316088500E-01  0.10257604972E+01  0.10255995646E+01 0.  0.
     999903    2    3    3    0    0 -0.21472074241E-01  0.12882556006E+00  0.32908075530E-01  0.13672566818E+00  0.23534910379E-01 0.  0.
         14    1    1    2    0    0  0.66949305255E-02 -0.43696673569E-02 -0.16316088500E-01  0.18169502786E-01  0.00000000000E+00 0. -1.
     999901    1    3    3    0    0  0.14777143716E-01 -0.12445589270E+00 -0.16591987030E-01  0.88903482904E+00  0.88000000000E+00 0. -1.
        -11    1    4    4    0    0 -0.10158601163E-01  0.77597306509E-01  0.80637736189E-02  0.78675439122E-01  0.51100000000E-03 0. -1.
         11    1    4    4    0    0 -0.11313473079E-01  0.51228253552E-01  0.24844301911E-01  0.58050229056E-01  0.51100000000E-03 0.  1.
</event>
<event>
 8    1  0.1079508E+005  0.1043930E+01  0.7957747E-01            NaN
         13   -1    0    0    0    0  0.00000000000E+00  0.00000000000E+00  0.74505805969E-08  0.10566000000E+00  0.10566000000E+00 0. -1.
     999900   -1    0    0    0    0 -0.00000000000E+00 -0.00000000000E+00 -0.74505805969E-08  0.93827000000E+00  0.93827000000E+00 0. -1.
     999902    2    1    2    0    0  0.13461415278E-01  0.17828336013E-01  0.72780778871E-02  0.10204346880E+01  0.10201641647E+01 0.  0.
     999903    2    3    3    0    0  0.11691570181E+00 -0.12401257438E-01 -0.55640135097E-01  0.13162913043E+00  0.20182438617E-01 0.  0.
         14    1    1    2    0    0 -0.13461415278E-01 -0.17828336013E-01 -0.72780778871E-02  0.23495311958E-01  0.00000000000E+00 0.  1.
     999901    1    3    3    0    0 -0.10345428653E+00  0.30229593451E-01  0.62918212984E-01  0.88880555761E+00  0.88000000000E+00 0.  1.
        -11    1    4    4    0    0  0.27386429879E-01  0.45523112166E-02 -0.85172501050E-02  0.29043841848E-01  0.51100000000E-03 0. -1.
         11    1    4    4    0    0  0.89529271927E-01 -0.16953568654E-01 -0.47122884992E-01  0.10258528858E+00  0.51100000000E-03 0.  1.
</event>
<event>
 8    1  0.1079508E+005  0.1043930E+01  0.7957747E-01            NaN
         13   -1    0    0    0    0  0.00000000000E+00  0.00000000000E+00  0.74505805969E-08  0.10566000000E+00  0.10566000000E+00 0. -1.
     999900   -1    0    0    0    0 -0.00000000000E+00 -0.00000000000E+00 -0.74505805969E-08  0.93827000000E+00  0.93827000000E+00 0. -1.
     999902    2    1    2    0    0 -0.39322701665E-02  0.20642239216E-01 -0.98020901408E-02  0.10207428104E+01  0.10204794164E+01 0.  0.
     999903    2    3    3    0    0  0.40585659738E-01  0.76209950066E-01  0.97110669326E-01  0.13141724873E+00  0.19617821032E-01 0.  0.
         14    1    1    2    0    0  0.39322701665E-02 -0.20642239216E-01  0.98020901408E-02  0.23187189559E-01  0.00000000000E+00 0.  1.
     999901    1    3    3    0    0 -0.44517929904E-01 -0.55567710851E-01 -0.10691275947E+00  0.88932556171E+00  0.88000000000E+00 0. -1.
        -11    1    4    4    0    0  0.32036536874E-01  0.53148052000E-01  0.56442485137E-01  0.83887247992E-01  0.51100000000E-03 0.  1.
         11    1    4    4    0    0  0.85491228641E-02  0.23061898066E-01  0.40668184188E-01  0.47530000740E-01  0.51100000000E-03 0. -1.
</event>
<event>
 8    1  0.1079508E+005  0.1043930E+01  0.7957747E-01            NaN
         13   -1    0    0    0    0  0.00000000000E+00  0.00000000000E+00  0.74505805969E-08  0.10566000000E+00  0.10566000000E+00 0.  1.
     999900   -1    0    0    0    0 -0.00000000000E+00 -0.00000000000E+00 -0.74505805969E-08  0.93827000000E+00  0.93827000000E+00 0. -1.
     999902    2    1    2    0    0  0.10100638249E-01 -0.21007394582E-01 -0.52111348053E-02  0.10200450791E+01  0.10197654014E+01 0.  0.
     999903    2    3    3    0    0  0.67721676912E-01  0.10006723725E+00 -0.40331856652E-01  0.12919564420E+00  0.21567993037E-01 0.  0.
         14    1    1    2    0    0 -0.10100638249E-01  0.21007394582E-01  0.52111348053E-02  0.23884920894E-01  0.00000000000E+00 0.  1.
     999901    1    3    3    0    0 -0.57621038664E-01 -0.12107463184E+00  0.35120721846E-01  0.89084943491E+00  0.88000000000E+00 0. -1.
        -11    1    4    4    0    0  0.31383084982E-01  0.32464138253E-01 -0.22258476565E-01  0.50344008536E-01  0.51100000000E-03 0.  1.
         11    1    4    4    0    0  0.36338591931E-01  0.67603099000E-01 -0.18073380086E-01  0.78851635663E-01  0.51100000000E-03 0. -1.
</event>
<event>
 8    1  0.1079508E+005  0.1043930E+01  0.7957747E-01            NaN
         13   -1    0    0    0    0  0.00000000000E+00  0.00000000000E+00  0.74505805969E-08  0.10566000000E+00  0.10566000000E+00 0.  1.
     999900   -1    0    0    0    0 -0.00000000000E+00 -0.00000000000E+00 -0.74505805969E-08  0.93827000000E+00  0.93827000000E+00 0.  1.
     999902    2    1    2    0    0 -0.16140401706E-01  0.15255711761E-01 -0.89317483693E-02  0.10199920503E+01  0.10197111146E+01 0.  0.
     999903    2    3    3    0    0  0.88391920676E-02  0.81735974693E-01  0.99324029912E-01  0.13051865606E+00  0.20272044467E-01 0.  0.
         14    1    1    2    0    0  0.16140401706E-01 -0.15255711761E-01  0.89317483693E-02  0.23937949735E-01  0.00000000000E+00 0.  1.
     999901    1    3    3    0    0 -0.24979593774E-01 -0.66480262931E-01 -0.10825577828E+00  0.88947339420E+00  0.88000000000E+00 0.  1.
        -11    1    4    4    0    0 -0.49556777004E-02  0.11559402596E-01  0.20738683510E-01  0.24259691766E-01  0.51100000000E-03 0. -1.
         11    1    4    4    0    0  0.13794869768E-01  0.70176572096E-01  0.78585346402E-01  0.10625896430E+00  0.51100000000E-03 0.  1.
</event>
<event>
 8    1  0.1079508E+005  0.1043930E+01  0.7957747E-01            NaN
         13   -1    0    0    0    0  0.00000000000E+00  0.00000000000E+00  0.74505805969E-08  0.10566000000E+00  0.10566000000E+00 0. -1.
     999900   -1    0    0    0    0 -0.00000000000E+00 -0.00000000000E+00 -0.74505805969E-08  0.93827000000E+00  0.93827000000E+00 0.  1.
     999902    2    1    2    0    0  0.19488289554E-01 -0.11186675480E-01 -0.99174386463E-02  0.10193680227E+01  0.10190720657E+01 0.  0.
     999903    2    3    3    0    0 -0.97911737535E-01 -0.41948894840E-01 -0.69762948801E-01  0.12902507443E+00  0.20837050686E-01 0.  0.
         14    1    1    2    0    0 -0.19488289554E-01  0.11186675480E-01  0.99174386463E-02  0.24561977268E-01  0.00000000000E+00 0. -1.
     999901    1    3    3    0    0  0.11740002709E+00  0.30762219360E-01  0.59845510155E-01  0.89034294830E+00  0.88000000000E+00 0. -1.
        -11    1    4    4    0    0 -0.86475866280E-01 -0.38532064803E-01 -0.53180030890E-01  0.10858716440E+00  0.51100000000E-03 0.  1.
         11    1    4    4    0    0 -0.11435871255E-01 -0.34168300375E-02 -0.16582917911E-01  0.20437910028E-01  0.51100000000E-03 0. -1.
</event>
<event>
 8    1  0.1079508E+005  0.1043930E+01  0.7957747E-01            NaN
         13   -1    0    0    0    0  0.00000000000E+00  0.00000000000E+00  0.74505805969E-08  0.10566000000E+00  0.10566000000E+00 0.  1.
     999900   -1    0    0    0    0 -0.00000000000E+00 -0.00000000000E+00 -0.74505805969E-08  0.93827000000E+00  0.93827000000E+00 0.  1.
     999902    2    1    2    0    0 -0.22095806003E-01 -0.36768652741E-02 -0.73097498911E-02  0.10203678179E+01  0.10200957344E+01 0.  0.
     999903    2    3    3    0    0 -0.95324271952E-01  0.82723657232E-01  0.33719125172E-01  0.13216129514E+00  0.19992704694E-01 0.  0.
         14    1    1    2    0    0  0.22095806003E-01  0.36768652741E-02  0.73097498911E-02  0.23562182086E-01  0.00000000000E+00 0.  1.
     999901    1    3    3    0    0  0.73228465949E-01 -0.86400522507E-01 -0.41028875063E-01  0.88820652278E+00  0.88000000000E+00 0. -1.
        -11    1    4    4    0    0 -0.47503708592E-01  0.38184263342E-01  0.62437129608E-02  0.61268959266E-01  0.51100000000E-03 0.  1.
         11    1    4    4    0    0 -0.47820563360E-01  0.44539393890E-01  0.27475412211E-01  0.70892335872E-01  0.51100000000E-03 0. -1.
</event>
<event>
 8    1  0.1079508E+005  0.1043930E+01  0.7957747E-01            NaN
         13   -1    0    0    0    0  0.00000000000E+00  0.00000000000E+00  0.74505805969E-08  0.10566000000E+00  0.10566000000E+00 0. -1.
     999900   -1    0    0    0    0 -0.00000000000E+00 -0.00000000000E+00 -0.74505805969E-08  0.93827000000E+00  0.93827000000E+00 0. -1.
     999902    2    1    2    0    0 -0.13158916858E-01  0.13565052933E-01 -0.12280787374E-01  0.10213914665E+01  0.10211427630E+01 0.  0.
     999903    2    3    3    0    0 -0.11748879256E+00  0.59584731123E-01  0.12033950356E-01  0.13370135153E+00  0.19423668023E-01 0.  0.
         14    1    1    2    0    0  0.13158916858E-01 -0.13565052933E-01  0.12280787374E-01  0.22538533503E-01  0.00000000000E+00 0. -1.
     999901    1    3    3    0    0  0.10432987570E+00 -0.46019678189E-01 -0.24314737730E-01  0.88769011497E+00  0.88000000000E+00 0.  1.
        -11    1    4    4    0    0 -0.88064199756E-01  0.35913613331E-01  0.12541291567E-01  0.95930370667E-01  0.51100000000E-03 0. -1.
         11    1    4    4    0    0 -0.29424592802E-01  0.23671117792E-01 -0.50734121055E-03  0.37770980861E-01  0.51100000000E-03 0.  1.
</event>
<event>
 8    1  0.1079508E+005  0.1043930E+01  0.7957747E-01            NaN
         13   -1    0    0    0    0  0.00000000000E+00  0.00000000000E+00  0.74505805969E-08  0.10566000000E+00  0.10566000000E+00 0. -1.
     999900   -1    0    0    0    0 -0.00000000000E+00 -0.00000000000E+00 -0.74505805969E-08  0.93827000000E+00  0.93827000000E+00 0.  1.
     999902    2    1    2    0    0 -0.15081570999E-01  0.49442569192E-02  0.17880897445E-01  0.10200212996E+01  0.10197410582E+01 0.  0.
     999903    2    3    3    0    0 -0.10281268627E+00 -0.14772512921E-01  0.80845293667E-01  0.13320112913E+00  0.20442693001E-01 0.  0.
         14    1    1    2    0    0  0.15081570999E-01 -0.49442569192E-02 -0.17880897445E-01  0.23908700377E-01  0.00000000000E+00 0. -1.
     999901    1    3    3    0    0  0.87731115273E-01  0.19716769840E-01 -0.62964396221E-01  0.88682017049E+00  0.88000000000E+00 0.  1.
        -11    1    4    4    0    0 -0.64508963986E-01 -0.11959520495E-01  0.62578705057E-01  0.90668583383E-01  0.51100000000E-03 0. -1.
         11    1    4    4    0    0 -0.38303722286E-01 -0.28129924252E-02  0.18266588609E-01  0.42532545747E-01  0.51100000000E-03 0.  1.
</event>
<event>
 8    1  0.1079508E+005  0.1043930E+01  0.7957747E-01            NaN
         13   -1    0    0    0    0  0.00000000000E+00  0.00000000000E+00  0.74505805969E-08  0.10566000000E+00  0.10566000000E+00 0.  1.
     999900   -1    0    0    0    0 -0.00000000000E+00 -0.00000000000E+00 -0.74505805969E-08  0.93827000000E+00  0.93827000000E+00 0.  1.
     999902    2    1    2    0    0 -0.22855251581E-01  0.39217133494E-03  0.39743871237E-02  0.10207284467E+01  0.10204647225E+01 0.  0.
     999903    2    3    3    0    0  0.10573315151E+00  0.11750359022E-01 -0.70414927711E-01  0.12820519433E+00  0.12678309972E-01 0.  0.
         14    1    1    2    0    0  0.22855251581E-01 -0.39217133494E-03 -0.39743871237E-02  0.23201553314E-01  0.00000000000E+00 0. -1.
     999901    1    3    3    0    0 -0.12858840309E+00 -0.11358187687E-01  0.74389314835E-01  0.89252325236E+00  0.88000000000E+00 0. -1.
        -11    1    4    4    0    0  0.27272303002E-01  0.69460891833E-02 -0.23440614470E-01  0.36629908459E-01  0.51100000000E-03 0. -1.
         11    1    4    4    0    0  0.78460848505E-01  0.48042698386E-02 -0.46974313241E-01  0.91575285870E-01  0.51100000000E-03 0.  1.
</event>
<event>
 8    1  0.1079508E+005  0.1043930E+01  0.7957747E-01            NaN
         13   -1    0    0    0    0  0.00000000000E+00  0.00000000000E+00  0.74505805969E-08  0.10566000000E+00  0.10566000000E+00 0.  1.
     999900   -1    0    0    0    0 -0.00000000000E+00 -0.00000000000E+00 -0.74505805969E-08  0.93827000000E+00  0.93827000000E+00 0. -1.
     999902    2    1    2    0    0 -0.11583240264E-01 -0.17877263838E-01 -0.77990394367E-02  0.10212453569E+01  0.10209933819E+01 0.  0.
     999903    2    3    3    0    0  0.11167555304E+00 -0.67081127740E-01 -0.67278447601E-02  0.13129316838E+00  0.14877006552E-01 0.  0.
         14    1    1    2    0    0  0.11583240264E-01  0.17877263838E-01  0.77990394367E-02  0.22684643120E-01  0.00000000000E+00 0.  1.
     999901    1    3    3    0    0 -0.12325879330E+00  0.49203863901E-01 -0.10711946766E-02  0.88995218850E+00  0.88000000000E+00 0.  1.
        -11    1    4    4    0    0  0.33253360651E-01 -0.13991821741E-01  0.23393645955E-02  0.36156476846E-01  0.51100000000E-03 0. -1.
         11    1    4    4    0    0  0.78422192388E-01 -0.53089305999E-01 -0.90672093556E-02  0.95136691538E-01  0.51100000000E-03 0.  1.
</event>
<event>
 8    1  0.1079508E+005  0.1043930E+01  0.7957747E-01            NaN
         13   -1    0    0    0    0  0.00000000000E+00  0.00000000000E+00  0.74505805969E-08  0.10566000000E+00  0.10566000000E+00 0.  1.
     999900   -1    0    0    0    0 -0.00000000000E+00 -0.00000000000E+00 -0.74505805969E-08  0.93827000000E+00  0.93827000000E+00 0.  1.
     999902    2    1    2    0    0  0.74627741379E-02 -0.21959567560E-01  0.18153582681E-03  0.10207362819E+01  0.10204727378E+01 0.  0.
     999903    2    3    3    0    0 -0.30800998240E-01  0.12288103833E-01  0.12464082984E+00  0.13049635065E+00  0.19856033916E-01 0.  0.
         14    1    1    2    0    0 -0.74627741379E-02  0.21959567560E-01 -0.18153582681E-03  0.23193718126E-01  0.00000000000E+00 0. -1.
     999901    1    3    3    0    0  0.38263772378E-01 -0.34247671393E-01 -0.12445929401E+00  0.89023993122E+00  0.88000000000E+00 0.  1.
        -11    1    4    4    0    0 -0.99124673451E-02 -0.52680097477E-02  0.41261158518E-01  0.42763924736E-01  0.51100000000E-03 0. -1.
         11    1    4    4    0    0 -0.20888530895E-01  0.17556113581E-01  0.83379671320E-01  0.87732425918E-01  0.51100000000E-03 0.  1.
</event>
<event>
 8    1  0.1079508E+005  0.1043930E+01  0.7957747E-01            NaN
         13   -1    0    0    0    0  0.00000000000E+00  0.00000000000E+00  0.74505805969E-08  0.10566000000E+00  0.10566000000E+00 0. -1.
     999900   -1    0    0    0    0 -0.00000000000E+00 -0.00000000000E+00 -0.74505805969E-08  0.93827000000E+00  0.93827000000E+00 0. -1.
     999902    2    1    2    0    0 -0.17362818398E-01 -0.20828298963E-03 -0.15319947835E-01  0.10207737558E+01  0.10205110724E+01 0.  0.
     999903    2    3    3    0    0 -0.74449991604E-01 -0.91904438462E-01 -0.57948417720E-01  0.13314527679E+00  0.19504321492E-01 0.  0.
         14    1    1    2    0    0  0.17362818398E-01  0.20828298963E-03  0.15319947835E-01  0.23156244216E-01  0.00000000000E+00 0. -1.
     999901    1    3    3    0    0  0.57087173207E-01  0.91696155473E-01  0.42628469884E-01  0.88762847899E+00  0.88000000000E+00 0. -1.
        -11    1    4    4    0    0 -0.33699435901E-01 -0.39843474406E-01 -0.36324734689E-01  0.63583817941E-01  0.51100000000E-03 0. -1.
         11    1    4    4    0    0 -0.40750555703E-01 -0.52060964056E-01 -0.21623683030E-01  0.69561458851E-01  0.51100000000E-03 0.  1.
</event>
<event>
 8    1  0.1079508E+005  0.1043930E+01  0.7957747E-01            NaN
         13   -1    0    0    0    0  0.00000000000E+00  0.00000000000E+00  0.74505805969E-08  0.10566000000E+00  0.10566000000E+00 0.  1.
     999900   -1    0    0    0    0 -0.00000000000E+00 -0.00000000000E+00 -0.74505805969E-08  0.93827000000E+00  0.93827000000E+00 0. -1.
     999902    2    1    2    0    0 -0.88409388853E-02 -0.21155229292E-01  0.81609997557E-02  0.10195926245E+01  0.10193021202E+01 0.  0.
     999903    2    3    3    0    0 -0.91443470752E-01  0.28671706877E-01  0.86914882356E-01  0.13082489569E+00  0.19416009856E-01 0.  0.
         14    1    1    2    0    0  0.88409388853E-02  0.21155229292E-01 -0.81609997557E-02  0.24337375450E-01  0.00000000000E+00 0.  1.
     999901    1    3    3    0    0  0.82602531867E-01 -0.49826936169E-01 -0.78753882600E-01  0.88876772886E+00  0.88000000000E+00 0. -1.
        -11    1    4    4    0    0 -0.11143239730E-01  0.10748343866E-01  0.13038546322E-01  0.20247555377E-01  0.51100000000E-03 0.  1.
         11    1    4    4    0    0 -0.80300231022E-01  0.17923363011E-01  0.73876336034E-01  0.11057734031E+00  0.51100000000E-03 0. -1.
</event>
<event>
 8    1  0.1079508E+005  0.1043930E+01  0.7957747E-01            NaN
         13   -1    0    0    0    0  0.00000000000E+00  0.00000000000E+00  0.74505805969E-08  0.10566000000E+00  0.10566000000E+00 0. -1.
     999900   -1    0    0    0    0 -0.00000000000E+00 -0.00000000000E+00 -0.74505805969E-08  0.93827000000E+00  0.93827000000E+00 0. -1.
     999902    2    1    2    0    0 -0.15359111889E-01  0.16283249001E-01 -0.61407677264E-03  0.10215375100E+01  0.10212920546E+01 0.  0.
     999903    2    3    3    0    0  0.92874227322E-01  0.19814774214E-01 -0.87407742834E-01  0.13066149855E+00  0.20348619582E-01 0.  0.
         14    1    1    2    0    0  0.15359111889E-01 -0.16283249001E-01  0.61407677264E-03  0.22392489953E-01  0.00000000000E+00 0. -1.
     999901    1    3    3    0    0 -0.10823333921E+00 -0.35315252135E-02  0.86793666062E-01  0.89087601149E+00  0.88000000000E+00 0.  1.
        -11    1    4    4    0    0  0.29165542794E-01  0.13808190512E-01 -0.21386167403E-01  0.38715943600E-01  0.51100000000E-03 0.  1.
         11    1    4    4    0    0  0.63708684528E-01  0.60065837020E-02 -0.66021575432E-01  0.91945554952E-01  0.51100000000E-03 0. -1.
</event>
<event>
 8    1  0.1079508E+005  0.1043930E+01  0.7957747E-01            NaN
         13   -1    0    0    0    0  0.00000000000E+00  0.00000000000E+00  0.74505805969E-08  0.10566000000E+00  0.10566000000E+00 0. -1.
     999900   -1    0    0    0    0 -0.00000000000E+00 -0.00000000000E+00 -0.74505805969E-08  0.93827000000E+00  0.93827000000E+00 0. -1.
     999902    2    1    2    0    0 -0.68852884259E-02  0.11449575628E-01  0.15138451648E-01  0.10237390937E+01  0.10235399647E+01 0.  0.
     999903    2    3    3    0    0  0.31848422447E-01  0.12501183975E+00  0.35872166311E-01  0.13535484400E+00  0.19794933397E-01 0.  0.
         14    1    1    2    0    0  0.68852884259E-02 -0.11449575628E-01 -0.15138451648E-01  0.20190906296E-01  0.00000000000E+00 0.  1.
     999901    1    3    3    0    0 -0.38733710873E-01 -0.11356226413E+00 -0.20733714663E-01  0.88838424970E+00  0.88000000000E+00 0. -1.
        -11    1    4    4    0    0  0.21811076701E-01  0.11140739253E+00  0.32768674504E-01  0.11815827236E+00  0.51100000000E-03 0.  1.
         11    1    4    4    0    0  0.10037345746E-01  0.13604447224E-01  0.31034918074E-02  0.17196571644E-01  0.51100000000E-03 0. -1.
</event>
<event>
 8    1  0.1079508E+005  0.1043930E+01  0.7957747E-01            NaN
         13   -1    0    0    0    0  0.00000000000E+00  0.00000000000E+00  0.74505805969E-08  0.10566000000E+00  0.10566000000E+00 0.  1.
     999900   -1    0    0    0    0 -0.00000000000E+00 -0.00000000000E+00 -0.74505805969E-08  0.93827000000E+00  0.93827000000E+00 0. -1.
     999902    2    1    2    0    0 -0.22963545778E-03 -0.21222435098E-01 -0.91869868126E-02  0.10208032793E+01  0.10205412730E+01 0.  0.
     999903    2    3    3    0    0  0.46540304449E-01  0.11682288365E+00  0.16502226619E-01  0.12844467817E+00  0.20300881356E-01 0.  0.
         14    1    1    2    0    0  0.22963545778E-03  0.21222435098E-01  0.91869868126E-02  0.23126720706E-01  0.00000000000E+00 0. -1.
     999901    1    3    3    0    0 -0.46769939907E-01 -0.13804531875E+00 -0.25689213431E-01  0.89235860112E+00  0.88000000000E+00 0.  1.
        -11    1    4    4    0    0  0.37740769305E-01  0.73264248991E-01  0.51492379284E-02  0.82575974836E-01  0.51100000000E-03 0. -1.
         11    1    4    4    0    0  0.87995351438E-02  0.43558634664E-01  0.11352988690E-01  0.45868703336E-01  0.51100000000E-03 0.  1.
</event>
<event>
 8    1  0.1079508E+005  0.1043930E+01  0.7957747E-01            NaN
         13   -1    0    0    0    0  0.00000000000E+00  0.00000000000E+00  0.74505805969E-08  0.10566000000E+00  0.10566000000E+00 0. -1.
     999900   -1    0    0    0    0 -0.00000000000E+00 -0.00000000000E+00 -0.74505805969E-08  0.93827000000E+00  0.93827000000E+00 0.  1.
     999902    2    1    2    0    0 -0.17380525231E-01 -0.48281535083E-02  0.20384162754E-01  0.10167103781E+01  0.10163459476E+01 0.  0.
     999903    2    3    3    0    0  0.10478768714E+00 -0.65603585916E-01  0.52776138709E-02  0.12606626676E+00  0.24094824025E-01 0.  0.
         14    1    1    2    0    0  0.17380525231E-01  0.48281535083E-02 -0.20384162754E-01  0.27219621871E-01  0.00000000000E+00 0.  1.
     999901    1    3    3    0    0 -0.12216821237E+00  0.60775432407E-01  0.15106548883E-01  0.89064411137E+00  0.88000000000E+00 0.  1.
        -11    1    4    4    0    0  0.68795858467E-01 -0.54202559201E-01  0.93838278807E-02  0.88085781559E-01  0.51100000000E-03 0.  1.
         11    1    4    4    0    0  0.35991828676E-01 -0.11401026715E-01 -0.41062140098E-02  0.37980485200E-01  0.51100000000E-03 0. -1.
</event>
<event>
 8    1  0.1079508E+005  0.1043930E+01  0.7957747E-01            NaN
         13   -1    0    0    0    0  0.00000000000E+00  0.00000000000E+00  0.74505805969E-08  0.10566000000E+00  0.10566000000E+00 0. -1.
     999900   -1    0    0    0    0 -0.00000000000E+00 -0.00000000000E+00 -0.74505805969E-08  0.93827000000E+00  0.93827000000E+00 0.  1.
     999902    2    1    2    0    0  0.16100047495E-01  0.17946761504E-01  0.22997328582E-02  0.10197104511E+01  0.10194227864E+01 0.  0.
     999903    2    3    3    0    0 -0.24830861459E-01 -0.11816902690E+00 -0.36430102185E-01  0.12746449438E+00  0.18427001427E-01 0.  0.
         14    1    1    2    0    0 -0.16100047495E-01 -0.17946761504E-01 -0.22997328582E-02  0.24219548903E-01  0.00000000000E+00 0.  1.
     999901    1    3    3    0    0  0.40930908955E-01  0.13611578841E+00  0.38729835044E-01  0.89224595672E+00  0.88000000000E+00 0.  1.
        -11    1    4    4    0    0 -0.26819325879E-01 -0.97937702621E-01 -0.33448742960E-01  0.10691187662E+00  0.51100000000E-03 0. -1.
         11    1    4    4    0    0  0.19884644192E-02 -0.20231324281E-01 -0.29813592253E-02  0.20552617759E-01  0.51100000000E-03 0.  1.
</event>
<event>
 8    1  0.1079508E+005  0.1043930E+01  0.7957747E-01            NaN
         13   -1    0    0    0    0  0.00000000000E+00  0.00000000000E+00  0.74505805969E-08  0.10566000000E+00  0.10566000000E+00 0.  1.
     999900   -1    0    0    0    0 -0.00000000000E+00 -0.00000000000E+00 -0.74505805969E-08  0.93827000000E+00  0.93827000000E+00 0.  1.
     999902    2    1    2    0    0 -0.44865998301E-02 -0.56579944620E-02  0.22837628997E-01  0.10199779692E+01  0.10196966990E+01 0.  0.
     999903    2    3    3    0    0  0.11435434219E+00 -0.47529716418E-01  0.37310861252E-01  0.13088523783E+00  0.20071262864E-01 0.  0.
         14    1    1    2    0    0  0.44865998301E-02  0.56579944620E-02 -0.22837628997E-01  0.23952030761E-01  0.00000000000E+00 0. -1.
     999901    1    3    3    0    0 -0.11884094202E+00  0.41871721956E-01 -0.14473232254E-01  0.88909273141E+00  0.88000000000E+00 0.  1.
        -11    1    4    4    0    0  0.11158087065E+00 -0.42688777550E-01  0.37680609069E-01  0.12527055458E+00  0.51100000000E-03 0. -1.
         11    1    4    4    0    0  0.27734715366E-02 -0.48409388671E-02 -0.36974781705E-03  0.56146832438E-02  0.51100000000E-03 0.  1.
</event>
<event>
 8    1  0.1079508E+005  0.1043930E+01  0.7957747E-01            NaN
         13   -1    0    0    0    0  0.00000000000E+00  0.00000000000E+00  0.74505805969E-08  0.10566000000E+00  0.10566000000E+00 0.  1.
     999900   -1    0    0    0    0 -0.00000000000E+00 -0.00000000000E+00 -0.74505805969E-08  0.93827000000E+00  0.93827000000E+00 0.  1.
     999902    2    1    2    0    0  0.86388720085E-02 -0.43275304569E-02  0.21594994345E-01  0.10202719906E+01  0.10199976634E+01 0.  0.
     999903    2    3    3    0    0 -0.77330800581E-01  0.11450670550E-01  0.10443442832E+00  0.13207037604E+00  0.20612225367E-01 0.  0.
         14    1    1    2    0    0 -0.86388720085E-02  0.43275304569E-02 -0.21594994345E-01  0.23658009431E-01  0.00000000000E+00 0. -1.
     999901    1    3    3    0    0  0.85969672590E-01 -0.15778201007E-01 -0.82839433973E-01  0.88820161453E+00  0.88000000000E+00 0.  1.
        -11    1    4    4    0    0 -0.41554917561E-02  0.19258747114E-03  0.16955650063E-01  0.17465978121E-01  0.51100000000E-03 0. -1.
         11    1    4    4    0    0 -0.73175308825E-01  0.11258083079E-01  0.87478778255E-01  0.11460439792E+00  0.51100000000E-03 0.  1.
</event>
<event>
 8    1  0.1079508E+005  0.1043930E+01  0.7957747E-01            NaN
         13   -1    0    0    0    0  0.00000000000E+00  0.00000000000E+00  0.74505805969E-08  0.10566000000E+00  0.10566000000E+00 0.  1.
     999900   -1    0    0    0    0 -0.00000000000E+00 -0.00000000000E+00 -0.74505805969E-08  0.93827000000E+00  0.93827000000E+00 0.  1.
     999902    2    1    2    0    0 -0.17750188558E-01 -0.10340396002E-01  0.19644117259E-01  0.10155066940E+01  0.10151088420E+01 0.  0.
     999903    2    3    3    0    0  0.28790995066E-01  0.90249874395E-01 -0.77687114079E-01  0.12322991355E+00  0.13280160907E-01 0.  0.
         14    1    1    2    0    0  0.17750188558E-01  0.10340396002E-01 -0.19644117259E-01  0.28423306039E-01  0.00000000000E+00 0. -1.
     999901    1    3    3    0    0 -0.46541183624E-01 -0.10059027040E+00  0.97331231338E-01  0.89227678041E+00  0.88000000000E+00 0. -1.
        -11    1    4    4    0    0  0.26566590323E-01  0.68408806431E-01 -0.55485259650E-01  0.92002302569E-01  0.51100000000E-03 0.  1.
         11    1    4    4    0    0  0.22244047425E-02  0.21841067965E-01 -0.22201854429E-01  0.31227610978E-01  0.51100000000E-03 0. -1.
</event>
<event>
 8    1  0.1079508E+005  0.1043930E+01  0.7957747E-01            NaN
         13   -1    0    0    0    0  0.00000000000E+00  0.00000000000E+00  0.74505805969E-08  0.10566000000E+00  0.10566000000E+00 0. -1.
     999900   -1    0    0    0    0 -0.00000000000E+00 -0.00000000000E+00 -0.74505805969E-08  0.93827000000E+00  0.93827000000E+00 0.  1.
     999902    2    1    2    0    0  0.51642848559E-02 -0.15012848224E-01  0.17242417105E-01  0.10204916469E+01  0.10202224487E+01 0.  0.
     999903    2    3    3    0    0 -0.12497477525E+00 -0.93513547304E-02 -0.27271637644E-01  0.12978982889E+00  0.19887563426E-01 0.  0.
         14    1    1    2    0    0 -0.51642848559E-02  0.15012848224E-01 -0.17242417105E-01  0.23438353131E-01  0.00000000000E+00 0.  1.
     999901    1    3    3    0    0  0.13013906011E+00 -0.56614934933E-02  0.44514054749E-01  0.89070181798E+00  0.88000000000E+00 0. -1.
        -11    1    4    4    0    0 -0.36076331502E-01 -0.95188759912E-02 -0.14241777882E-01  0.39939955596E-01  0.51100000000E-03 0.  1.
         11    1    4    4    0    0 -0.88898443753E-01  0.16752126082E-03 -0.13029859761E-01  0.89849873297E-01  0.51100000000E-03 0. -1.
</event>
<event>
 8    1  0.1079508E+005  0.1043930E+01  0.7957747E-01            NaN
         13   -1    0    0    0    0  0.00000000000E+00  0.00000000000E+00  0.74505805969E-08  0.10566000000E+00  0.10566000000E+00 0.  1.
     999900   -1    0    0    0    0 -0.00000000000E+00 -0.00000000000E+00 -0.74505805969E-08  0.93827000000E+00  0.93827000000E+00 0.  1.
     999902    2    1    2    0    0 -0.41077295927E-02 -0.20481849707E-01  0.10272660076E-01  0.10206511007E+01  0.10203855948E+01 0.  0.
     999903    2    3    3    0    0  0.65918501238E-01 -0.69354643684E-01 -0.87373324678E-01  0.13114170703E+00  0.20217172223E-01 0.  0.
         14    1    1    2    0    0  0.41077295927E-02  0.20481849707E-01 -0.10272660076E-01  0.23278899348E-01  0.00000000000E+00 0. -1.
     999901    1    3    3    0    0 -0.70026230831E-01  0.48872793977E-01  0.97645984754E-01  0.88950939362E+00  0.88000000000E+00 0. -1.
        -11    1    4    4    0    0  0.32226621104E-01 -0.38706437815E-01 -0.58571949121E-01  0.77250746151E-01  0.51100000000E-03 0.  1.
         11    1    4    4    0    0  0.33691880134E-01 -0.30648205869E-01 -0.28801375557E-01  0.53890960883E-01  0.51100000000E-03 0. -1.
</event>
<event>
 8    1  0.1079508E+005  0.1043930E+01  0.7957747E-01            NaN
         13   -1    0    0    0    0  0.00000000000E+00  0.00000000000E+00  0.74505805969E-08  0.10566000000E+00  0.10566000000E+00 0. -1.
     999900   -1    0    0    0    0 -0.00000000000E+00 -0.00000000000E+00 -0.74505805969E-08  0.93827000000E+00  0.93827000000E+00 0. -1.
     999902    2    1    2    0    0 -0.65859722520E-03  0.86849514932E-02  0.19200861632E-01  0.10228459961E+01  0.10226286699E+01 0.  0.
     999903    2    3    3    0    0 -0.10561645260E+00  0.44533325671E-01  0.67481010407E-01  0.13457113431E+00  0.20436518018E-01 0.  0.
         14    1    1    2    0    0  0.65859722520E-03 -0.86849514932E-02 -0.19200861632E-01  0.21084003893E-01  0.00000000000E+00 0.  1.
     999901    1    3    3    0    0  0.10495785537E+00 -0.35848374178E-01 -0.48280148776E-01  0.88827486180E+00  0.88000000000E+00 0. -1.
        -11    1    4    4    0    0 -0.86475552701E-01  0.42831055441E-01  0.61522462572E-01  0.11444559864E+00  0.51100000000E-03 0.  1.
         11    1    4    4    0    0 -0.19140899898E-01  0.17022702307E-02  0.59585478351E-02  0.20125535674E-01  0.51100000000E-03 0. -1.
</event>
<event>
 8    1  0.1079508E+005  0.1043930E+01  0.7957747E-01            NaN
         13   -1    0    0    0    0  0.00000000000E+00  0.00000000000E+00  0.74505805969E-08  0.10566000000E+00  0.10566000000E+00 0.  1.
     999900   -1    0    0    0    0 -0.00000000000E+00 -0.00000000000E+00 -0.74505805969E-08  0.93827000000E+00  0.93827000000E+00 0. -1.
     999902    2    1    2    0    0  0.19367954513E-02 -0.49551681728E-02 -0.23168228822E-01  0.10201587633E+01  0.10198817729E+01 0.  0.
     999903    2    3    3    0    0  0.53852253217E-01 -0.10526190435E+00 -0.56244907352E-01  0.13232391223E+00  0.19130981763E-01 0.  0.
         14    1    1    2    0    0 -0.19367954513E-02  0.49551681728E-02  0.23168228822E-01  0.23771236715E-01  0.00000000000E+00 0.  1.
     999901    1    3    3    0    0 -0.51915457766E-01  0.10030673617E+00  0.33076678530E-01  0.88783485105E+00  0.88000000000E+00 0.  1.
        -11    1    4    4    0    0  0.18562113971E-01 -0.56617586164E-01 -0.30581730288E-01  0.66974670485E-01  0.51100000000E-03 0.  1.
         11    1    4    4    0    0  0.35290139246E-01 -0.48644318181E-01 -0.25663177063E-01  0.65349241750E-01  0.51100000000E-03 0. -1.
</event>
<event>
 8    1  0.1079508E+005  0.1043930E+01  0.7957747E-01            NaN
         13   -1    0    0    0    0  0.00000000000E+00  0.00000000000E+00  0.74505805969E-08  0.10566000000E+00  0.10566000000E+00 0. -1.
     999900   -1    0    0    0    0 -0.00000000000E+00 -0.00000000000E+00 -0.74505805969E-08  0.93827000000E+00  0.93827000000E+00 0.  1.
     999902    2    1    2    0    0 -0.19879443392E-01 -0.16437443767E-01 -0.11925476637E-03  0.10181347282E+01  0.10178079036E+01 0.  0.
     999903    2    3    3    0    0 -0.68106521922E-01  0.18308806376E-01 -0.10679128984E+00  0.12970235817E+00  0.21085810608E-01 0.  0.
         14    1    1    2    0    0  0.19879443392E-01  0.16437443767E-01  0.11925476637E-03  0.25795271831E-01  0.00000000000E+00 0. -1.
     999901    1    3    3    0    0  0.48227078530E-01 -0.34746250143E-01  0.10667203507E+00  0.88843237000E+00  0.88000000000E+00 0. -1.
        -11    1    4    4    0    0 -0.11261520376E-01  0.44286703552E-02 -0.35275228626E-01  0.37296619658E-01  0.51100000000E-03 0. -1.
         11    1    4    4    0    0 -0.56845001546E-01  0.13880136021E-01 -0.71516061213E-01  0.92405738508E-01  0.51100000000E-03 0.  1.
</event>
<event>
 8    1  0.1079508E+005  0.1043930E+01  0.7957747E-01            NaN
         13   -1    0    0    0    0  0.00000000000E+00  0.00000000000E+00  0.74505805969E-08  0.10566000000E+00  0.10566000000E+00 0.  1.
     999900   -1    0    0    0    0 -0.00000000000E+00 -0.00000000000E+00 -0.74505805969E-08  0.93827000000E+00  0.93827000000E+00 0. -1.
     999902    2    1    2    0    0  0.15553964095E-01  0.69563232501E-02 -0.16202886185E-01  0.10204172428E+01  0.10201463128E+01 0.  0.
     999903    2    3    3    0    0 -0.36996246845E-01  0.11598879367E+00 -0.45844198188E-01  0.13163818605E+00  0.20119616828E-01 0.  0.
         14    1    1    2    0    0 -0.15553964095E-01 -0.69563232501E-02  0.16202886185E-01  0.23512757238E-01  0.00000000000E+00 0.  1.
     999901    1    3    3    0    0  0.52550210940E-01 -0.10903247042E+00  0.29641312003E-01  0.88877905671E+00  0.88000000000E+00 0. -1.
        -11    1    4    4    0    0 -0.41913639023E-02  0.43642960240E-01 -0.13620180421E-01  0.45913461486E-01  0.51100000000E-03 0.  1.
         11    1    4    4    0    0 -0.32804882942E-01  0.72345833428E-01 -0.32224017767E-01  0.85724724562E-01  0.51100000000E-03 0. -1.
</event>
<event>
 8    1  0.1079508E+005  0.1043930E+01  0.7957747E-01            NaN
         13   -1    0    0    0    0  0.00000000000E+00  0.00000000000E+00  0.74505805969E-08  0.10566000000E+00  0.10566000000E+00 0.  1.
     999900   -1    0    0    0    0 -0.00000000000E+00 -0.00000000000E+00 -0.74505805969E-08  0.93827000000E+00  0.93827000000E+00 0. -1.
     999902    2    1    2    0    0 -0.25373956451E-03  0.15125321848E-01  0.18182361009E-01  0.10202775583E+01  0.10200033618E+01 0.  0.
     999903    2    3    3    0    0  0.96219221455E-01  0.62052748421E-01 -0.59086083345E-01  0.13040137141E+00  0.20116417561E-01 0.  0.
         14    1    1    2    0    0  0.25373956451E-03 -0.15125321848E-01 -0.18182361009E-01  0.23652441664E-01  0.00000000000E+00 0. -1.
     999901    1    3    3    0    0 -0.96472961020E-01 -0.46927426573E-01  0.77268444355E-01  0.88987618693E+00  0.88000000000E+00 0. -1.
        -11    1    4    4    0    0  0.34819881194E-01  0.15611351433E-01 -0.28194481175E-01  0.47448164449E-01  0.51100000000E-03 0.  1.
         11    1    4    4    0    0  0.61399340262E-01  0.46441396988E-01 -0.30891602170E-01  0.82953206957E-01  0.51100000000E-03 0. -1.
</event>
<event>
 8    1  0.1079508E+005  0.1043930E+01  0.7957747E-01            NaN
         13   -1    0    0    0    0  0.00000000000E+00  0.00000000000E+00  0.74505805969E-08  0.10566000000E+00  0.10566000000E+00 0. -1.
     999900   -1    0    0    0    0 -0.00000000000E+00 -0.00000000000E+00 -0.74505805969E-08  0.93827000000E+00  0.93827000000E+00 0.  1.
     999902    2    1    2    0    0  0.10030361982E-01  0.13014106159E-02 -0.10646156248E-01  0.10292452299E+01  0.10291404670E+01 0.  0.
     999903    2    3    3    0    0  0.58455093727E-02  0.12351498448E+00  0.57104472219E-01  0.13820997900E+00  0.23472455688E-01 0.  0.
         14    1    1    2    0    0 -0.10030361982E-01 -0.13014106159E-02  0.10646156248E-01  0.14684770136E-01  0.00000000000E+00 0. -1.
     999901    1    3    3    0    0  0.41848526098E-02 -0.12221357386E+00 -0.67750628467E-01  0.89103525087E+00  0.88000000000E+00 0.  1.
        -11    1    4    4    0    0 -0.62543931866E-02  0.90074332298E-01  0.40566461319E-01  0.98986876292E-01  0.51100000000E-03 0.  1.
         11    1    4    4    0    0  0.12099902559E-01  0.33440652183E-01  0.16538010899E-01  0.39223102706E-01  0.51100000000E-03 0. -1.
</event>
<event>
 8    1  0.1079508E+005  0.1043930E+01  0.7957747E-01            NaN
         13   -1    0    0    0    0  0.00000000000E+00  0.00000000000E+00  0.74505805969E-08  0.10566000000E+00  0.10566000000E+00 0.  1.
     999900   -1    0    0    0    0 -0.00000000000E+00 -0.00000000000E+00 -0.74505805969E-08  0.93827000000E+00  0.93827000000E+00 0. -1.
     999902    2    1    2    0    0 -0.18970178213E-01  0.12666714427E-01  0.88299576199E-02  0.10194702071E+01  0.10191767373E+01 0.  0.
     999903    2    3    3    0    0 -0.12555404527E+00  0.17370729138E-01  0.33742344084E-01  0.13267661476E+00  0.19974428777E-01 0.  0.
         14    1    1    2    0    0  0.18970178213E-01 -0.12666714427E-01 -0.88299576199E-02  0.24459792872E-01  0.00000000000E+00 0. -1.
     999901    1    3    3    0    0  0.10658386706E+00 -0.47040147111E-02 -0.24912386464E-01  0.88679359237E+00  0.88000000000E+00 0.  1.
        -11    1    4    4    0    0 -0.36767735562E-01 -0.13124029062E-02  0.16480654593E-01  0.40317017208E-01  0.51100000000E-03 0.  1.
         11    1    4    4    0    0 -0.88786309706E-01  0.18683132044E-01  0.17261689491E-01  0.92359597548E-01  0.51100000000E-03 0. -1.
</event>
<event>
 8    1  0.1079508E+005  0.1043930E+01  0.7957747E-01            NaN
         13   -1    0    0    0    0  0.00000000000E+00  0.00000000000E+00  0.74505805969E-08  0.10566000000E+00  0.10566000000E+00 0.  1.
     999900   -1    0    0    0    0 -0.00000000000E+00 -0.00000000000E+00 -0.74505805969E-08  0.93827000000E+00  0.93827000000E+00 0. -1.
     999902    2    1    2    0    0  0.15278157333E-01  0.10799386619E-01 -0.62537833357E-02  0.10242028956E+01  0.10240128967E+01 0.  0.
     999903    2    3    3    0    0  0.77808058248E-01  0.10773407427E+00  0.21138040280E-01  0.13625208941E+00  0.21379673375E-01 0.  0.
         14    1    1    2    0    0 -0.15278157333E-01 -0.10799386619E-01  0.62537833357E-02  0.19727104421E-01  0.00000000000E+00 0.  1.
     999901    1    3    3    0    0 -0.62529900915E-01 -0.96934687652E-01 -0.27391823616E-01  0.88795080617E+00  0.88000000000E+00 0.  1.
        -11    1    4    4    0    0  0.48464617933E-01  0.80064007358E-01  0.20992060986E-01  0.95916589863E-01  0.51100000000E-03 0.  1.
         11    1    4    4    0    0  0.29343440316E-01  0.27670066914E-01  0.14597929469E-03  0.40335499545E-01  0.51100000000E-03 0. -1.
</event>
<event>
 8    1  0.1079508E+005  0.1043930E+01  0.7957747E-01            NaN
         13   -1    0    0    0    0  0.00000000000E+00  0.00000000000E+00  0.74505805969E-08  0.10566000000E+00  0.10566000000E+00 0. -1.
     999900   -1    0    0    0    0 -0.00000000000E+00 -0.00000000000E+00 -0.74505805969E-08  0.93827000000E+00  0.93827000000E+00 0. -1.
     999902    2    1    2    0    0  0.13009019562E-01  0.72293087649E-03  0.20691110654E-01  0.10194784299E+01  0.10191851597E+01 0.  0.
     999903    2    3    3    0    0  0.37804235761E-01 -0.96669516353E-01  0.78818848121E-01  0.13185298787E+00  0.19966070148E-01 0.  0.
         14    1    1    2    0    0 -0.13009019562E-01 -0.72293087649E-03 -0.20691110654E-01  0.24451570075E-01  0.00000000000E+00 0.  1.
     999901    1    3    3    0    0 -0.24795216199E-01  0.97392447230E-01 -0.58127737466E-01  0.88762544206E+00  0.88000000000E+00 0. -1.
        -11    1    4    4    0    0  0.16143122436E-01 -0.33645222933E-01  0.40086880463E-01  0.54770617437E-01  0.51100000000E-03 0.  1.
         11    1    4    4    0    0  0.21661113325E-01 -0.63024293420E-01  0.38731967658E-01  0.77082370431E-01  0.51100000000E-03 0. -1.
</event>
<event>
 8    1  0.1079508E+005  0.1043930E+01  0.7957747E-01            NaN
         13   -1    0    0    0    0  0.00000000000E+00  0.00000000000E+00  0.74505805969E-08  0.10566000000E+00  0.10566000000E+00 0.  1.
     999900   -1    0    0    0    0 -0.00000000000E+00 -0.00000000000E+00 -0.74505805969E-08  0.93827000000E+00  0.93827000000E+00 0. -1.
     999902    2    1    2    0    0 -0.97605821649E-02 -0.21029118818E-01  0.41382256343E-02  0.10203796770E+01  0.10201078705E+01 0.  0.
     999903    2    3    3    0    0  0.66964989526E-01 -0.10731439712E+00 -0.32098939832E-01  0.13209757385E+00  0.20463074698E-01 0.  0.
         14    1    1    2    0    0  0.97605821649E-02  0.21029118818E-01 -0.41382256343E-02  0.23550323009E-01  0.00000000000E+00 0. -1.
     999901    1    3    3    0    0 -0.76725571691E-01  0.86285278304E-01  0.36237165466E-01  0.88828210314E+00  0.88000000000E+00 0.  1.
        -11    1    4    4    0    0  0.35381324210E-01 -0.50030853195E-01 -0.25417131154E-01  0.66341661506E-01  0.51100000000E-03 0. -1.
         11    1    4    4    0    0  0.31583665316E-01 -0.57283543927E-01 -0.66818086783E-02  0.65755912341E-01  0.51100000000E-03 0.  1.
</event>
<event>
 8    1  0.1079508E+005  0.1043930E+01  0.7957747E-01            NaN
         13   -1    0    0    0    0  0.00000000000E+00  0.00000000000E+00  0.74505805969E-08  0.10566000000E+00  0.10566000000E+00 0. -1.
     999900   -1    0    0    0    0 -0.00000000000E+00 -0.00000000000E+00 -0.74505805969E-08  0.93827000000E+00  0.93827000000E+00 0.  1.
     999902    2    1    2    0    0  0.82473910202E-02  0.22335765781E-01 -0.90414749046E-02  0.10184613102E+01  0.10181428123E+01 0.  0.
     999903    2    3    3    0    0 -0.73423681845E-01  0.10636127092E+00 -0.10262140422E-02  0.13065801326E+00  0.19149577139E-01 0.  0.
         14    1    1    2    0    0 -0.82473910202E-02 -0.22335765781E-01  0.90414749046E-02  0.25468689799E-01  0.00000000000E+00 0. -1.
     999901    1    3    3    0    0  0.81671072866E-01 -0.84025505144E-01 -0.80152608624E-02  0.88780329694E+00  0.88000000000E+00 0. -1.
        -11    1    4    4    0    0 -0.51996230251E-01  0.62238674090E-01  0.48915821733E-02  0.81249302828E-01  0.51100000000E-03 0.  1.
         11    1    4    4    0    0 -0.21427451594E-01  0.44122596834E-01 -0.59177962155E-02  0.49408710429E-01  0.51100000000E-03 0. -1.
</event>
<event>
 8    1  0.1079508E+005  0.1043930E+01  0.7957747E-01            NaN
         13   -1    0    0    0    0  0.00000000000E+00  0.00000000000E+00  0.74505805969E-08  0.10566000000E+00  0.10566000000E+00 0.  1.
     999900   -1    0    0    0    0 -0.00000000000E+00 -0.00000000000E+00 -0.74505805969E-08  0.93827000000E+00  0.93827000000E+00 0. -1.
     999902    2    1    2    0    0  0.20994914476E-01  0.59350465712E-02  0.92906638368E-02  0.10202165514E+01  0.10199409218E+01 0.  0.
     999903    2    3    3    0    0  0.52143441945E-01 -0.37957943382E-01  0.11396074707E+00  0.13238061401E+00  0.19437877738E-01 0.  0.
         14    1    1    2    0    0 -0.20994914476E-01 -0.59350465712E-02 -0.92906638368E-02  0.23713448635E-01  0.00000000000E+00 0. -1.
     999901    1    3    3    0    0 -0.31148527469E-01  0.43892989953E-01 -0.10467008323E+00  0.88783593735E+00  0.88000000000E+00 0. -1.
        -11    1    4    4    0    0  0.11228292687E-01  0.42608667992E-03  0.19879271619E-01  0.22840811449E-01  0.51100000000E-03 0. -1.
         11    1    4    4    0    0  0.40915149258E-01 -0.38384030062E-01  0.94081475446E-01  0.10953980256E+00  0.51100000000E-03 0.  1.
</event>
<event>
 8    1  0.1079508E+005  0.1043930E+01  0.7957747E-01            NaN
         13   -1    0    0    0    0  0.00000000000E+00  0.00000000000E+00  0.74505805969E-08  0.10566000000E+00  0.10566000000E+00 0.  1.
     999900   -1    0    0    0    0 -0.00000000000E+00 -0.00000000000E+00 -0.74505805969E-08  0.93827000000E+00  0.93827000000E+00 0. -1.
     999902    2    1    2    0    0  0.23901137502E-01 -0.30530819160E-03  0.14880613188E-04  0.10200269080E+01  0.10197467995E+01 0.  0.
     999903    2    3    3    0    0  0.56253813718E-01  0.11494809220E+00 -0.22610666267E-01  0.13163400090E+00  0.20945465057E-01 0.  0.
         14    1    1    2    0    0 -0.23901137502E-01  0.30530819160E-03 -0.14880613188E-04  0.23903092027E-01  0.00000000000E+00 0. -1.
     999901    1    3    3    0    0 -0.32352676215E-01 -0.11525340039E+00  0.22625546880E-01  0.88839290707E+00  0.88000000000E+00 0.  1.
        -11    1    4    4    0    0  0.33715010442E-01  0.48867582017E-01 -0.16068582413E-01  0.61507747179E-01  0.51100000000E-03 0.  1.
         11    1    4    4    0    0  0.22538803276E-01  0.66080510184E-01 -0.65420838531E-02  0.70126253724E-01  0.51100000000E-03 0. -1.
</event>
<event>
 8    1  0.1079508E+005  0.1043930E+01  0.7957747E-01            NaN
         13   -1    0    0    0    0  0.00000000000E+00  0.00000000000E+00  0.74505805969E-08  0.10566000000E+00  0.10566000000E+00 0.  1.
     999900   -1    0    0    0    0 -0.00000000000E+00 -0.00000000000E+00 -0.74505805969E-08  0.93827000000E+00  0.93827000000E+00 0. -1.
     999902    2    1    2    0    0  0.56310220131E-02 -0.25330837810E-01  0.68519532558E-02  0.10170914267E+01  0.10167372626E+01 0.  0.
     999903    2    3    3    0    0  0.76590645341E-01 -0.10289663723E+00  0.16190963691E-01  0.13078508097E+00  0.19716622194E-01 0.  0.
         14    1    1    2    0    0 -0.56310220131E-02  0.25330837810E-01 -0.68519532558E-02  0.26838573295E-01  0.00000000000E+00 0.  1.
     999901    1    3    3    0    0 -0.70959623328E-01  0.77565799421E-01 -0.93390104350E-02  0.88630634574E+00  0.88000000000E+00 0. -1.
        -11    1    4    4    0    0  0.15988856921E-01 -0.36357655274E-01  0.67336898439E-02  0.40288042179E-01  0.51100000000E-03 0. -1.
         11    1    4    4    0    0  0.60601788420E-01 -0.66538981957E-01  0.94572738469E-02  0.90497038787E-01  0.51100000000E-03 0.  1.
</event>
<event>
 8    1  0.1079508E+005  0.1043930E+01  0.7957747E-01            NaN
         13   -1    0    0    0    0  0.00000000000E+00  0.00000000000E+00  0.74505805969E-08  0.10566000000E+00  0.10566000000E+00 0. -1.
     999900   -1    0    0    0    0 -0.00000000000E+00 -0.00000000000E+00 -0.74505805969E-08  0.93827000000E+00  0.93827000000E+00 0. -1.
     999902    2    1    2    0    0 -0.84882248642E-02 -0.13312672451E-01  0.16235941468E-01  0.10212830796E+01  0.10210319513E+01 0.  0.
     999903    2    3    3    0    0  0.43860468076E-01 -0.18886392118E-01 -0.11872848615E+00  0.12943844696E+00  0.19427343132E-01 0.  0.
         14    1    1    2    0    0  0.84882248642E-02  0.13312672451E-01 -0.16235941468E-01  0.22646920420E-01  0.00000000000E+00 0.  1.
     999901    1    3    3    0    0 -0.52348692940E-01  0.55737196670E-02  0.13496442762E+00  0.89184463262E+00  0.88000000000E+00 0.  1.
        -11    1    4    4    0    0  0.39494287243E-01 -0.20580711770E-01 -0.91021758092E-01  0.10133403174E+00  0.51100000000E-03 0. -1.
         11    1    4    4    0    0  0.43661808324E-02  0.16943196518E-02 -0.27706728061E-01  0.28104415223E-01  0.51100000000E-03 0.  1.
</event>
<event>
 8    1  0.1115647E+005  0.1043930E+01  0.7957747E-01            NaN
         13   -1    0    0    0    0  0.00000000000E+00  0.00000000000E+00  0.74505805969E-08  0.10566000000E+00  0.10566000000E+00 0. -1.
     999900   -1    0    0    0    0 -0.00000000000E+00 -0.00000000000E+00 -0.74505805969E-08  0.93827000000E+00  0.93827000000E+00 0.  1.
     999902    2    1    2    0    0  0.16960024670E-01  0.13410196553E-01 -0.11007880179E-01  0.10196679054E+01  0.10193792170E+01 0.  0.
     999903    2    3    3    0    0 -0.11882326063E+00  0.16924197193E-01 -0.41840893367E-01  0.12871329181E+00  0.20274501614E-01 0.  0.
         14    1    1    2    0    0 -0.16960024670E-01 -0.13410196553E-01  0.11007880179E-01  0.24262094601E-01  0.00000000000E+00 0. -1.
     999901    1    3    3    0    0  0.13578328529E+00 -0.35140006405E-02  0.30833013188E-01  0.89095461358E+00  0.88000000000E+00 0. -1.
        -11    1    4    4    0    0 -0.75775370266E-01  0.97275730887E-02 -0.16222464880E-01  0.78102252880E-01  0.51100000000E-03 0. -1.
         11    1    4    4    0    0 -0.43047890359E-01  0.71966241045E-02 -0.25618428487E-01  0.50611038934E-01  0.51100000000E-03 0.  1.
</event>
<event>
 8    1  0.1079508E+005  0.1043930E+01  0.7957747E-01            NaN
         13   -1    0    0    0    0  0.00000000000E+00  0.00000000000E+00  0.74505805969E-08  0.10566000000E+00  0.10566000000E+00 0. -1.
     999900   -1    0    0    0    0 -0.00000000000E+00 -0.00000000000E+00 -0.74505805969E-08  0.93827000000E+00  0.93827000000E+00 0. -1.
     999902    2    1    2    0    0  0.74613118900E-02 -0.13818486226E-01  0.18147116815E-01  0.10199312587E+01  0.10196488772E+01 0.  0.
     999903    2    3    3    0    0 -0.92996706044E-01 -0.65255037586E-01 -0.58989511005E-01  0.12937660480E+00  0.18759962555E-01 0.  0.
         14    1    1    2    0    0 -0.74613118900E-02  0.13818486226E-01 -0.18147116815E-01  0.23998741329E-01  0.00000000000E+00 0.  1.
     999901    1    3    3    0    0  0.10045801793E+00  0.51436551360E-01  0.77136627820E-01  0.89055465387E+00  0.88000000000E+00 0.  1.
        -11    1    4    4    0    0 -0.30499677523E-01 -0.11538662697E-01 -0.19428708895E-01  0.37961914022E-01  0.51100000000E-03 0.  1.
         11    1    4    4    0    0 -0.62497028521E-01 -0.53716374889E-01 -0.39560802110E-01  0.91414690776E-01  0.51100000000E-03 0. -1.
</event>
<event>
 8    1  0.1079508E+005  0.1043930E+01  0.7957747E-01            NaN
         13   -1    0    0    0    0  0.00000000000E+00  0.00000000000E+00  0.74505805969E-08  0.10566000000E+00  0.10566000000E+00 0. -1.
     999900   -1    0    0    0    0 -0.00000000000E+00 -0.00000000000E+00 -0.74505805969E-08  0.93827000000E+00  0.93827000000E+00 0.  1.
     999902    2    1    2    0    0 -0.30898019928E-01 -0.19056677565E-01 -0.89420774125E-02  0.10065427650E+01  0.10058481657E+01 0.  0.
     999903    2    3    3    0    0 -0.11872737965E+00 -0.19288666315E-01  0.53516917497E-02  0.12205513809E+00  0.20014314939E-01 0.  0.
         14    1    1    2    0    0  0.30898019928E-01  0.19056677565E-01  0.89420774125E-02  0.37387235038E-01  0.00000000000E+00 0.  1.
     999901    1    3    3    0    0  0.87829359726E-01  0.23198874967E-03 -0.14293769162E-01  0.88448762687E+00  0.88000000000E+00 0. -1.
        -11    1    4    4    0    0 -0.39818428212E-01 -0.13283442700E-01  0.85961595813E-02  0.42849879297E-01  0.51100000000E-03 0.  1.
         11    1    4    4    0    0 -0.78908951442E-01 -0.60052236155E-02 -0.32444678316E-02  0.79205258796E-01  0.51100000000E-03 0. -1.
</event>
<event>
 8    1  0.1079508E+005  0.1043930E+01  0.7957747E-01            NaN
         13   -1    0    0    0    0  0.00000000000E+00  0.00000000000E+00  0.74505805969E-08  0.10566000000E+00  0.10566000000E+00 0.  1.
     999900   -1    0    0    0    0 -0.00000000000E+00 -0.00000000000E+00 -0.74505805969E-08  0.93827000000E+00  0.93827000000E+00 0.  1.
     999902    2    1    2    0    0  0.47802842263E-02  0.13925171611E-01 -0.18797062372E-01  0.10200534199E+01  0.10197739399E+01 0.  0.
     999903    2    3    3    0    0  0.78872891952E-01 -0.98157036994E-01 -0.26842806994E-01  0.12981925411E+00  0.16636269208E-01 0.  0.
         14    1    1    2    0    0 -0.47802842263E-02 -0.13925171611E-01  0.18797062372E-01  0.23876580063E-01  0.00000000000E+00 0.  1.
     999901    1    3    3    0    0 -0.74092607725E-01  0.11208220861E+00  0.80457446222E-02  0.89023416583E+00  0.88000000000E+00 0. -1.
        -11    1    4    4    0    0  0.35833468998E-01 -0.52916361685E-01 -0.69711860599E-02  0.64288703444E-01  0.51100000000E-03 0.  1.
         11    1    4    4    0    0  0.43039422953E-01 -0.45240675309E-01 -0.19871620934E-01  0.65530550663E-01  0.51100000000E-03 0. -1.
</event>
<event>
 8    1  0.1079508E+005  0.1043930E+01  0.7957747E-01            NaN
         13   -1    0    0    0    0  0.00000000000E+00  0.00000000000E+00  0.74505805969E-08  0.10566000000E+00  0.10566000000E+00 0. -1.
     999900   -1    0    0    0    0 -0.00000000000E+00 -0.00000000000E+00 -0.74505805969E-08  0.93827000000E+00  0.93827000000E+00 0.  1.
     999902    2    1    2    0    0  0.14227873576E-01 -0.31014057209E-02  0.21465885431E-01  0.10179909302E+01  0.10176604044E+01 0.  0.
     999903    2    3    3    0    0  0.11078776747E+00 -0.65090187037E-01  0.10812765371E-01  0.13047760013E+00  0.19920501240E-01 0.  0.
         14    1    1    2    0    0 -0.14227873576E-01  0.31014057209E-02 -0.21465885431E-01  0.25939069784E-01  0.00000000000E+00 0.  1.
     999901    1    3    3    0    0 -0.96559893897E-01  0.61988781316E-01  0.10653120060E-01  0.88751333009E+00  0.88000000000E+00 0.  1.
        -11    1    4    4    0    0  0.88073465665E-01 -0.60335322581E-01  0.73955609702E-02  0.10701514822E+00  0.51100000000E-03 0. -1.
         11    1    4    4    0    0  0.22714301809E-01 -0.47548644567E-02  0.34172044006E-02  0.23462451909E-01  0.51100000000E-03 0.  1.
</event>
<event>
 8    1  0.1079508E+005  0.1043930E+01  0.7957747E-01            NaN
         13   -1    0    0    0    0  0.00000000000E+00  0.00000000000E+00  0.74505805969E-08  0.10566000000E+00  0.10566000000E+00 0. -1.
     999900   -1    0    0    0    0 -0.00000000000E+00 -0.00000000000E+00 -0.74505805969E-08  0.93827000000E+00  0.93827000000E+00 0.  1.
     999902    2    1    2    0    0  0.13565602347E-01  0.15747708157E-01 -0.11645243380E-01  0.10201050641E+01  0.10198268060E+01 0.  0.
     999903    2    3    3    0    0 -0.40559449670E-01  0.79646449418E-01 -0.95298060007E-01  0.13218031267E+00  0.20032197963E-01 0.  0.
         14    1    1    2    0    0 -0.13565602347E-01 -0.15747708157E-01  0.11645243380E-01  0.23824935942E-01  0.00000000000E+00 0. -1.
     999901    1    3    3    0    0  0.54125052017E-01 -0.63898741261E-01  0.83652816626E-01  0.88792475138E+00  0.88000000000E+00 0. -1.
        -11    1    4    4    0    0 -0.22787066487E-01  0.39356206660E-01 -0.34386683418E-01  0.57016370625E-01  0.51100000000E-03 0.  1.
         11    1    4    4    0    0 -0.17772383183E-01  0.40290242758E-01 -0.60911376589E-01  0.75163942050E-01  0.51100000000E-03 0. -1.
</event>
<event>
 8    1  0.1079508E+005  0.1043930E+01  0.7957747E-01            NaN
         13   -1    0    0    0    0  0.00000000000E+00  0.00000000000E+00  0.74505805969E-08  0.10566000000E+00  0.10566000000E+00 0. -1.
     999900   -1    0    0    0    0 -0.00000000000E+00 -0.00000000000E+00 -0.74505805969E-08  0.93827000000E+00  0.93827000000E+00 0. -1.
     999902    2    1    2    0    0  0.26439621561E-02  0.10860843876E-01 -0.21090712589E-01  0.10200602153E+01  0.10197808961E+01 0.  0.
     999903    2    3    3    0    0 -0.82439843079E-01 -0.27534167955E-01  0.91696272192E-01  0.12796474124E+00  0.20305431168E-01 0.  0.
         14    1    1    2    0    0 -0.26439621561E-02 -0.10860843876E-01  0.21090712589E-01  0.23869784731E-01  0.00000000000E+00 0. -1.
     999901    1    3    3    0    0  0.85083805236E-01  0.38395011831E-01 -0.11278698478E+00  0.89209547403E+00  0.88000000000E+00 0. -1.
        -11    1    4    4    0    0 -0.52125236028E-01 -0.26576986967E-01  0.66074038845E-01  0.88257669341E-01  0.51100000000E-03 0. -1.
         11    1    4    4    0    0 -0.30314607052E-01 -0.95718098756E-03  0.25622233346E-01  0.39707071899E-01  0.51100000000E-03 0.  1.
</event>
<event>
 8    1  0.1079508E+005  0.1043930E+01  0.7957747E-01            NaN
         13   -1    0    0    0    0  0.00000000000E+00  0.00000000000E+00  0.74505805969E-08  0.10566000000E+00  0.10566000000E+00 0.  1.
     999900   -1    0    0    0    0 -0.00000000000E+00 -0.00000000000E+00 -0.74505805969E-08  0.93827000000E+00  0.93827000000E+00 0. -1.
     999902    2    1    2    0    0 -0.15380716478E-01 -0.13310972758E-01 -0.81157057399E-02  0.10220299289E+01  0.10217952644E+01 0.  0.
     999903    2    3    3    0    0 -0.73401680575E-01 -0.15245598305E-01 -0.10960269475E+00  0.13429698256E+00  0.20067233260E-01 0.  0.
         14    1    1    2    0    0  0.15380716478E-01  0.13310972758E-01  0.81157057399E-02  0.21900071114E-01  0.00000000000E+00 0. -1.
     999901    1    3    3    0    0  0.58020964096E-01  0.19346255475E-02  0.10148698901E+00  0.88773294632E+00  0.88000000000E+00 0.  1.
        -11    1    4    4    0    0 -0.59003336694E-01 -0.18957763117E-01 -0.80318015331E-01  0.10144966846E+00  0.51100000000E-03 0.  1.
         11    1    4    4    0    0 -0.14398343881E-01  0.37121648118E-02 -0.29284679416E-01  0.32847314101E-01  0.51100000000E-03 0. -1.
</event>
<event>
 8    1  0.1079508E+005  0.1043930E+01  0.7957747E-01            NaN
         13   -1    0    0    0    0  0.00000000000E+00  0.00000000000E+00  0.74505805969E-08  0.10566000000E+00  0.10566000000E+00 0.  1.
     999900   -1    0    0    0    0 -0.00000000000E+00 -0.00000000000E+00 -0.74505805969E-08  0.93827000000E+00  0.93827000000E+00 0.  1.
     999902    2    1    2    0    0 -0.17768725467E-01  0.57070635869E-03 -0.14347626219E-01  0.10210847010E+01  0.10208291036E+01 0.  0.
     999903    2    3    3    0    0 -0.11760136973E+00 -0.22437907459E-01  0.53470927117E-01  0.13254921525E+00  0.19406508317E-01 0.  0.
         14    1    1    2    0    0  0.17768725467E-01 -0.57070635869E-03  0.14347626219E-01  0.22845299048E-01  0.00000000000E+00 0.  1.
     999901    1    3    3    0    0  0.99832644259E-01  0.23008613817E-01 -0.67818553336E-01  0.88853548570E+00  0.88000000000E+00 0.  1.
        -11    1    4    4    0    0 -0.86584458919E-01 -0.24991117742E-01  0.38266998431E-01  0.97908369317E-01  0.51100000000E-03 0. -1.
         11    1    4    4    0    0 -0.31016910807E-01  0.25532102832E-02  0.15203928686E-01  0.34640845937E-01  0.51100000000E-03 0.  1.
</event>
<event>
 8    1  0.1079508E+005  0.1043930E+01  0.7957747E-01            NaN
         13   -1    0    0    0    0  0.00000000000E+00  0.00000000000E+00  0.74505805969E-08  0.10566000000E+00  0.10566000000E+00 0. -1.
     999900   -1    0    0    0    0 -0.00000000000E+00 -0.00000000000E+00 -0.74505805969E-08  0.93827000000E+00  0.93827000000E+00 0. -1.
     999902    2    1    2    0    0  0.16854109964E-01  0.72290672721E-02  0.15071523519E-01  0.10201924505E+01  0.10199162538E+01 0.  0.
     999903    2    3    3    0    0  0.43660337755E-01  0.42549175102E-01  0.11679475620E+00  0.13322362355E+00  0.19770215009E-01 0.  0.
         14    1    1    2    0    0 -0.16854109964E-01 -0.72290672721E-02 -0.15071523519E-01  0.23737549525E-01  0.00000000000E+00 0.  1.
     999901    1    3    3    0    0 -0.26806227791E-01 -0.35320107830E-01 -0.10172323268E+00  0.88696882692E+00  0.88000000000E+00 0. -1.
        -11    1    4    4    0    0  0.53127045541E-02 -0.16101267719E-02  0.91110599803E-02  0.10681286105E-01  0.51100000000E-03 0.  1.
         11    1    4    4    0    0  0.38347633201E-01  0.44159301874E-01  0.10768369622E+00  0.12254233745E+00  0.51100000000E-03 0. -1.
</event>
<event>
 8    1  0.1079508E+005  0.1043930E+01  0.7957747E-01            NaN
         13   -1    0    0    0    0  0.00000000000E+00  0.00000000000E+00  0.74505805969E-08  0.10566000000E+00  0.10566000000E+00 0. -1.
     999900   -1    0    0    0    0 -0.00000000000E+00 -0.00000000000E+00 -0.74505805969E-08  0.93827000000E+00  0.93827000000E+00 0.  1.
     999902    2    1    2    0    0 -0.45573095086E-02 -0.21766793292E-01 -0.69288156522E-02  0.10206368498E+01  0.10203710150E+01 0.  0.
     999903    2    3    3    0    0 -0.35188167496E-01  0.31515385174E-01 -0.12070904511E+00  0.13118579402E+00  0.20189411730E-01 0.  0.
         14    1    1    2    0    0  0.45573095086E-02  0.21766793292E-01  0.69288156522E-02  0.23293150206E-01  0.00000000000E+00 0. -1.
     999901    1    3    3    0    0  0.30630857988E-01 -0.53282178466E-01  0.11378022946E+00  0.88945105577E+00  0.88000000000E+00 0. -1.
        -11    1    4    4    0    0 -0.14945518421E-01  0.24621849455E-01 -0.82665231194E-01  0.87540879370E-01  0.51100000000E-03 0. -1.
         11    1    4    4    0    0 -0.20242649075E-01  0.68935357189E-02 -0.38043813918E-01  0.43644914649E-01  0.51100000000E-03 0.  1.
</event>
<event>
 8    1  0.1079508E+005  0.1043930E+01  0.7957747E-01            NaN
         13   -1    0    0    0    0  0.00000000000E+00  0.00000000000E+00  0.74505805969E-08  0.10566000000E+00  0.10566000000E+00 0. -1.
     999900   -1    0    0    0    0 -0.00000000000E+00 -0.00000000000E+00 -0.74505805969E-08  0.93827000000E+00  0.93827000000E+00 0.  1.
     999902    2    1    2    0    0 -0.29365745214E-02 -0.18318357343E-01 -0.14799003679E-01  0.10201982450E+01  0.10199221847E+01 0.  0.
     999903    2    3    3    0    0  0.79331611275E-01  0.60598965721E-01  0.78372622198E-01  0.12796680073E+00  0.16355273899E-01 0.  0.
         14    1    1    2    0    0  0.29365745214E-02  0.18318357343E-01  0.14799003679E-01  0.23731755004E-01  0.00000000000E+00 0. -1.
     999901    1    3    3    0    0 -0.82268185796E-01 -0.78917323064E-01 -0.93171625876E-01  0.89223144427E+00  0.88000000000E+00 0.  1.
        -11    1    4    4    0    0  0.51019670072E-01  0.34808827903E-01  0.39050948237E-01  0.73074611962E-01  0.51100000000E-03 0.  1.
         11    1    4    4    0    0  0.28311941203E-01  0.25790137818E-01  0.39321673961E-01  0.54892188765E-01  0.51100000000E-03 0. -1.
</event>
<event>
 8    1  0.1079508E+005  0.1043930E+01  0.7957747E-01            NaN
         13   -1    0    0    0    0  0.00000000000E+00  0.00000000000E+00  0.74505805969E-08  0.10566000000E+00  0.10566000000E+00 0.  1.
     999900   -1    0    0    0    0 -0.00000000000E+00 -0.00000000000E+00 -0.74505805969E-08  0.93827000000E+00  0.93827000000E+00 0.  1.
     999902    2    1    2    0    0  0.17004675581E-01  0.12148982679E-02 -0.17348496938E-01  0.10196070619E+01  0.10193169063E+01 0.  0.
     999903    2    3    3    0    0 -0.52862536584E-01  0.55589794686E-01 -0.10416466830E+00  0.13091414293E+00  0.20088843938E-01 0.  0.
         14    1    1    2    0    0 -0.17004675581E-01 -0.12148982679E-02  0.17348496938E-01  0.24322938051E-01  0.00000000000E+00 0.  1.
     999901    1    3    3    0    0  0.69867212165E-01 -0.54374896418E-01  0.86816171362E-01  0.88869291901E+00  0.88000000000E+00 0. -1.
        -11    1    4    4    0    0 -0.21286048411E-01  0.19776432244E-01 -0.56009203203E-01  0.63099089484E-01  0.51100000000E-03 0. -1.
         11    1    4    4    0    0 -0.31576488173E-01  0.35813362442E-01 -0.48155465098E-01  0.67815053451E-01  0.51100000000E-03 0.  1.
</event>
<event>
 8    1  0.1079508E+005  0.1043930E+01  0.7957747E-01            NaN
         13   -1    0    0    0    0  0.00000000000E+00  0.00000000000E+00  0.74505805969E-08  0.10566000000E+00  0.10566000000E+00 0.  1.
     999900   -1    0    0    0    0 -0.00000000000E+00 -0.00000000000E+00 -0.74505805969E-08  0.93827000000E+00  0.93827000000E+00 0. -1.
     999902    2    1    2    0    0 -0.91897839055E-02  0.36438989517E-02 -0.18336496052E-01  0.10230983602E+01  0.10228862583E+01 0.  0.
     999903    2    3    3    0    0 -0.70965865390E-01 -0.93609920815E-01  0.56545481848E-01  0.13243461879E+00  0.23293033559E-01 0.  0.
         14    1    1    2    0    0  0.91897839055E-02 -0.36438989517E-02  0.18336496052E-01  0.20831639765E-01  0.00000000000E+00 0.  1.
     999901    1    3    3    0    0  0.61776081485E-01  0.97253819766E-01 -0.74881977900E-01  0.89066374144E+00  0.88000000000E+00 0.  1.
        -11    1    4    4    0    0  0.83083293235E-03 -0.52045745738E-02  0.54850559096E-02  0.76239647944E-02  0.51100000000E-03 0.  1.
         11    1    4    4    0    0 -0.71796698323E-01 -0.88405346241E-01  0.51060425938E-01  0.12481065400E+00  0.51100000000E-03 0. -1.
</event>
<event>
 8    1  0.1079508E+005  0.1043930E+01  0.7957747E-01            NaN
         13   -1    0    0    0    0  0.00000000000E+00  0.00000000000E+00  0.74505805969E-08  0.10566000000E+00  0.10566000000E+00 0. -1.
     999900   -1    0    0    0    0 -0.00000000000E+00 -0.00000000000E+00 -0.74505805969E-08  0.93827000000E+00  0.93827000000E+00 0.  1.
     999902    2    1    2    0    0 -0.28780781657E-03 -0.44736849766E-02 -0.23051104531E-01  0.10204470251E+01  0.10201767890E+01 0.  0.
     999903    2    3    3    0    0  0.12849748889E+00 -0.12000782120E-01  0.41928073704E-02  0.13062426713E+00  0.19735655783E-01 0.  0.
         14    1    1    2    0    0  0.28780781657E-03  0.44736849766E-02  0.23051104531E-01  0.23482974912E-01  0.00000000000E+00 0. -1.
     999901    1    3    3    0    0 -0.12878529670E+00  0.75270971432E-02 -0.27243911901E-01  0.88982275795E+00  0.88000000000E+00 0. -1.
        -11    1    4    4    0    0  0.10736534892E+00 -0.72960027063E-02 -0.34229179508E-02  0.10766859938E+00  0.51100000000E-03 0. -1.
         11    1    4    4    0    0  0.21132139969E-01 -0.47047794135E-02  0.76157253213E-02  0.22955667757E-01  0.51100000000E-03 0.  1.
</event>
<event>
 8    1  0.1079508E+005  0.1043930E+01  0.7957747E-01            NaN
         13   -1    0    0    0    0  0.00000000000E+00  0.00000000000E+00  0.74505805969E-08  0.10566000000E+00  0.10566000000E+00 0.  1.
     999900   -1    0    0    0    0 -0.00000000000E+00 -0.00000000000E+00 -0.74505805969E-08  0.93827000000E+00  0.93827000000E+00 0.  1.
     999902    2    1    2    0    0 -0.16751824803E-02 -0.45984965210E-02  0.22978226930E-01  0.10204363558E+01  0.10201658712E+01 0.  0.
     999903    2    3    3    0    0  0.14278891411E-01  0.10358260025E+00  0.78306170587E-01  0.13194388899E+00  0.18549708204E-01 0.  0.
         14    1    1    2    0    0  0.16751824803E-02  0.45984965210E-02 -0.22978226930E-01  0.23493644235E-01  0.00000000000E+00 0. -1.
     999901    1    3    3    0    0 -0.15954073891E-01 -0.10818109677E+00 -0.55327943657E-01  0.88849246678E+00  0.88000000000E+00 0. -1.
        -11    1    4    4    0    0  0.77969120525E-02  0.27489483110E-01  0.12741109036E-01  0.31289942468E-01  0.51100000000E-03 0.  1.
         11    1    4    4    0    0  0.64819793587E-02  0.76093117139E-01  0.65565061552E-01  0.10065394652E+00  0.51100000000E-03 0. -1.
</event>
<event>
 7    1  0.1079508E+005  0.1043930E+01  0.7957747E-01            NaN
         13   -1    0    0    0    0  0.00000000000E+00  0.00000000000E+00  0.74505805969E-08  0.10566000000E+00  0.10566000000E+00 0. -1.
     999900   -1    0    0    0    0 -0.00000000000E+00 -0.00000000000E+00 -0.74505805969E-08  0.93827000000E+00  0.93827000000E+00 0. -1.
     999902    2    1    2    0    0  0.19207990570E-01  0.15909769036E-03  0.14109822507E-01  0.10200960053E+01  0.10198175330E+01 0.  0.
         14    1    1    2    0    0 -0.19207990570E-01 -0.15909769036E-03 -0.14109822507E-01  0.23833994734E-01  0.00000000000E+00 0.  1.
     999901    1    3    3    0    0 -0.10335529519E+00  0.41752367850E-01 -0.16116525046E-01  0.88717829079E+00  0.88000000000E+00 0.  1.
        -11    1    3    3    0    0  0.80497195134E-01 -0.27691466940E-01  0.19828199903E-01  0.87407290303E-01  0.51100000000E-03 0. -1.
         11    1    3    3    0    0  0.42066090623E-01 -0.13901803220E-01  0.10398147650E-01  0.45510424175E-01  0.51100000000E-03 0.  1.
</event>
<event>
 8    1  0.1079508E+005  0.1043930E+01  0.7957747E-01            NaN
         13   -1    0    0    0    0  0.00000000000E+00  0.00000000000E+00  0.74505805969E-08  0.10566000000E+00  0.10566000000E+00 0.  1.
     999900   -1    0    0    0    0 -0.00000000000E+00 -0.00000000000E+00 -0.74505805969E-08  0.93827000000E+00  0.93827000000E+00 0. -1.
     999902    2    1    2    0    0  0.16153830289E-01  0.12275482460E-01  0.12027292101E-01  0.10203442107E+01  0.10200715753E+01 0.  0.
     999903    2    3    3    0    0 -0.72935861820E-01 -0.86360534322E-01  0.58979128391E-01  0.12912565613E+00  0.20423409525E-01 0.  0.
         14    1    1    2    0    0 -0.16153830289E-01 -0.12275482460E-01 -0.12027292101E-01  0.23585789321E-01  0.00000000000E+00 0. -1.
     999901    1    3    3    0    0  0.89089692109E-01  0.98636016781E-01 -0.46951836290E-01  0.89121855455E+00  0.88000000000E+00 0. -1.
        -11    1    4    4    0    0 -0.20487270962E-01 -0.33083082278E-01  0.29184879914E-01  0.48643981550E-01  0.51100000000E-03 0.  1.
         11    1    4    4    0    0 -0.52448590858E-01 -0.53277452044E-01  0.29794248477E-01  0.80481674577E-01  0.51100000000E-03 0. -1.
</event>
<event>
 8    1  0.1079508E+005  0.1043930E+01  0.7957747E-01            NaN
         13   -1    0    0    0    0  0.00000000000E+00  0.00000000000E+00  0.74505805969E-08  0.10566000000E+00  0.10566000000E+00 0. -1.
     999900   -1    0    0    0    0 -0.00000000000E+00 -0.00000000000E+00 -0.74505805969E-08  0.93827000000E+00  0.93827000000E+00 0.  1.
     999902    2    1    2    0    0  0.22727880971E-03 -0.15115763310E-01  0.17003998220E-01  0.10211775515E+01  0.10209240510E+01 0.  0.
     999903    2    3    3    0    0 -0.67837633368E-01  0.10765701141E+00  0.18365126218E-01  0.13005026592E+00  0.19591253118E-01 0.  0.
         14    1    1    2    0    0 -0.22727880971E-03  0.15115763310E-01 -0.17003998220E-01  0.22752448475E-01  0.00000000000E+00 0.  1.
     999901    1    3    3    0    0  0.68064912178E-01 -0.12277277472E+00 -0.13611279979E-02  0.89112728561E+00  0.88000000000E+00 0. -1.
        -11    1    4    4    0    0 -0.56289369979E-01  0.99636252916E-01  0.13847637820E-01  0.11527312897E+00  0.51100000000E-03 0.  1.
         11    1    4    4    0    0 -0.11548263389E-01  0.80207584905E-02  0.45174883983E-02  0.14777136952E-01  0.51100000000E-03 0. -1.
</event>
<event>
 8    1  0.1079508E+005  0.1043930E+01  0.7957747E-01            NaN
         13   -1    0    0    0    0  0.00000000000E+00  0.00000000000E+00  0.74505805969E-08  0.10566000000E+00  0.10566000000E+00 0. -1.
     999900   -1    0    0    0    0 -0.00000000000E+00 -0.00000000000E+00 -0.74505805969E-08  0.93827000000E+00  0.93827000000E+00 0. -1.
     999902    2    1    2    0    0  0.18403858375E-01  0.10181818041E-01  0.30830295903E-02  0.10226726132E+01  0.10224516601E+01 0.  0.
     999903    2    3    3    0    0  0.11846915516E-01 -0.76255708871E-01 -0.10499285021E+00  0.13183321391E+00  0.20030355736E-01 0.  0.
         14    1    1    2    0    0 -0.18403858375E-01 -0.10181818041E-01 -0.30830295903E-02  0.21257386791E-01  0.00000000000E+00 0. -1.
     999901    1    3    3    0    0  0.65569428585E-02  0.86437526912E-01  0.10807587980E+00  0.89083939930E+00  0.88000000000E+00 0.  1.
        -11    1    4    4    0    0 -0.28341302739E-02 -0.44109704556E-01 -0.53910657038E-01  0.69715983775E-01  0.51100000000E-03 0.  1.
         11    1    4    4    0    0  0.14681045790E-01 -0.32146004316E-01 -0.51082193171E-01  0.62117230131E-01  0.51100000000E-03 0. -1.
</event>
<event>
 8    1  0.1079508E+005  0.1043930E+01  0.7957747E-01            NaN
         13   -1    0    0    0    0  0.00000000000E+00  0.00000000000E+00  0.74505805969E-08  0.10566000000E+00  0.10566000000E+00 0.  1.
     999900   -1    0    0    0    0 -0.00000000000E+00 -0.00000000000E+00 -0.74505805969E-08  0.93827000000E+00  0.93827000000E+00 0. -1.
     999902    2    1    2    0    0 -0.21436926795E-01  0.38932086425E-03  0.10752086206E-01  0.10199445719E+01  0.10196625074E+01 0.  0.
     999903    2    3    3    0    0  0.90527502072E-01 -0.87169045303E-01 -0.15575304689E-01  0.12815107997E+00  0.19658028672E-01 0.  0.
         14    1    1    2    0    0  0.21436926795E-01 -0.38932086426E-03 -0.10752086206E-01  0.23985428054E-01  0.00000000000E+00 0. -1.
     999901    1    3    3    0    0 -0.11196442887E+00  0.87558366167E-01  0.26327390895E-01  0.89179349197E+00  0.88000000000E+00 0.  1.
        -11    1    4    4    0    0  0.63318101387E-01 -0.55186160562E-01 -0.20016556459E-02  0.84017629264E-01  0.51100000000E-03 0.  1.
         11    1    4    4    0    0  0.27209400685E-01 -0.31982884740E-01 -0.13573649043E-01  0.44133450707E-01  0.51100000000E-03 0. -1.
</event>
<event>
 8    1  0.1079508E+005  0.1043930E+01  0.7957747E-01            NaN
         13   -1    0    0    0    0  0.00000000000E+00  0.00000000000E+00  0.74505805969E-08  0.10566000000E+00  0.10566000000E+00 0.  1.
     999900   -1    0    0    0    0 -0.00000000000E+00 -0.00000000000E+00 -0.74505805969E-08  0.93827000000E+00  0.93827000000E+00 0.  1.
     999902    2    1    2    0    0 -0.98724363164E-02  0.13463426469E-01  0.16741329779E-01  0.10202867986E+01  0.10200128187E+01 0.  0.
     999903    2    3    3    0    0  0.13826131183E-02 -0.12484835269E+00 -0.23397604986E-01  0.12850882257E+00  0.19443424897E-01 0.  0.
         14    1    1    2    0    0  0.98724363164E-02 -0.13463426469E-01 -0.16741329779E-01  0.23643201430E-01  0.00000000000E+00 0. -1.
     999901    1    3    3    0    0 -0.11255049435E-01  0.13831177916E+00  0.40138934765E-01  0.89177797600E+00  0.88000000000E+00 0.  1.
        -11    1    4    4    0    0  0.96602068107E-02 -0.43018321836E-01 -0.71027844427E-02  0.44661015181E-01  0.51100000000E-03 0. -1.
         11    1    4    4    0    0 -0.82775936924E-02 -0.81830030853E-01 -0.16294820543E-01  0.83847807391E-01  0.51100000000E-03 0.  1.
</event>
<event>
 8    1  0.1079508E+005  0.1043930E+01  0.7957747E-01            NaN
         13   -1    0    0    0    0  0.00000000000E+00  0.00000000000E+00  0.74505805969E-08  0.10566000000E+00  0.10566000000E+00 0.  1.
     999900   -1    0    0    0    0 -0.00000000000E+00 -0.00000000000E+00 -0.74505805969E-08  0.93827000000E+00  0.93827000000E+00 0.  1.
     999902    2    1    2    0    0 -0.13456805392E-01 -0.10708389512E-01  0.16994503854E-01  0.10197521511E+01  0.10194654880E+01 0.  0.
     999903    2    3    3    0    0  0.11393038115E+00  0.32267733495E-01  0.46821795177E-01  0.12904226017E+00  0.20935282019E-01 0.  0.
         14    1    1    2    0    0  0.13456805392E-01  0.10708389512E-01 -0.16994503854E-01  0.24177848923E-01  0.00000000000E+00 0. -1.
     999901    1    3    3    0    0 -0.12738718654E+00 -0.42976123007E-01 -0.29827291323E-01  0.89070989090E+00  0.88000000000E+00 0.  1.
        -11    1    4    4    0    0  0.76752398163E-01  0.17181222878E-01  0.40344470090E-01  0.88397185652E-01  0.51100000000E-03 0. -1.
         11    1    4    4    0    0  0.37177982988E-01  0.15086510616E-01  0.64773250868E-02  0.40645074522E-01  0.51100000000E-03 0.  1.
</event>
<event>
 8    1  0.1079508E+005  0.1043930E+01  0.7957747E-01            NaN
         13   -1    0    0    0    0  0.00000000000E+00  0.00000000000E+00  0.74505805969E-08  0.10566000000E+00  0.10566000000E+00 0. -1.
     999900   -1    0    0    0    0 -0.00000000000E+00 -0.00000000000E+00 -0.74505805969E-08  0.93827000000E+00  0.93827000000E+00 0. -1.
     999902    2    1    2    0    0  0.22262048006E-01  0.19343971463E-02 -0.95964667451E-02  0.10196106076E+01  0.10193205375E+01 0.  0.
     999903    2    3    3    0    0  0.40310267142E-02  0.12215170154E+00  0.39345045779E-01  0.12990287913E+00  0.19734183853E-01 0.  0.
         14    1    1    2    0    0 -0.22262048006E-01 -0.19343971463E-02  0.95964667451E-02  0.24319392421E-01  0.00000000000E+00 0.  1.
     999901    1    3    3    0    0  0.18231021292E-01 -0.12021730440E+00 -0.48941512524E-01  0.88970772845E+00  0.88000000000E+00 0.  1.
        -11    1    4    4    0    0 -0.62449109702E-02  0.84226836161E-01  0.25200245704E-01  0.88138937747E-01  0.51100000000E-03 0. -1.
         11    1    4    4    0    0  0.10275937684E-01  0.37924865384E-01  0.14144800075E-01  0.41763941383E-01  0.51100000000E-03 0.  1.
</event>
<event>
 8    1  0.1079508E+005  0.1043930E+01  0.7957747E-01            NaN
         13   -1    0    0    0    0  0.00000000000E+00  0.00000000000E+00  0.74505805969E-08  0.10566000000E+00  0.10566000000E+00 0.  1.
     999900   -1    0    0    0    0 -0.00000000000E+00 -0.00000000000E+00 -0.74505805969E-08  0.93827000000E+00  0.93827000000E+00 0. -1.
     999902    2    1    2    0    0  0.39100604562E-02  0.16612818387E-01  0.15865683748E-01  0.10206277634E+01  0.10203617188E+01 0.  0.
     999903    2    3    3    0    0 -0.63268133585E-01  0.45887276471E-01  0.10568118908E+00  0.13302609116E+00  0.20467738875E-01 0.  0.
         14    1    1    2    0    0 -0.39100604562E-02 -0.16612818387E-01 -0.15865683748E-01  0.23302236552E-01  0.00000000000E+00 0.  1.
     999901    1    3    3    0    0  0.67178194041E-01 -0.29274458084E-01 -0.89815505332E-01  0.88760167229E+00  0.88000000000E+00 0. -1.
        -11    1    4    4    0    0 -0.20436882710E-01  0.22155101996E-01  0.53896673773E-01  0.61754572981E-01  0.51100000000E-03 0.  1.
         11    1    4    4    0    0 -0.42831250876E-01  0.23732174475E-01  0.51784515307E-01  0.71271518179E-01  0.51100000000E-03 0. -1.
</event>
<event>
 7    1  0.1079508E+005  0.1043930E+01  0.7957747E-01            NaN
         13   -1    0    0    0    0  0.00000000000E+00  0.00000000000E+00  0.74505805969E-08  0.10566000000E+00  0.10566000000E+00 0. -1.
     999900   -1    0    0    0    0 -0.00000000000E+00 -0.00000000000E+00 -0.74505805969E-08  0.93827000000E+00  0.93827000000E+00 0. -1.
     999903    2    1    2    0    0  0.86342870722E-01  0.77453577151E-01 -0.32126298464E-02  0.11746995914E+00  0.18295419429E-01 0.  0.
         14    1    1    2    0    0  0.16296861201E-01 -0.31489788020E-01 -0.16445718067E-01  0.39085241170E-01  0.00000000000E+00 0.  1.
     999901    1    1    2    0    0 -0.10263973192E+00 -0.45963789130E-01  0.19658347913E-01  0.88737479969E+00  0.88000000000E+00 0. -1.
        -11    1    3    3    0    0  0.11755215848E-01  0.16469282153E-01  0.47640532398E-02  0.20793741331E-01  0.51100000000E-03 0.  1.
         11    1    3    3    0    0  0.74587654874E-01  0.60984294998E-01 -0.79766830862E-02  0.96676217810E-01  0.51100000000E-03 0. -1.
</event>
<event>
 8    1  0.1079508E+005  0.1043930E+01  0.7957747E-01            NaN
         13   -1    0    0    0    0  0.00000000000E+00  0.00000000000E+00  0.74505805969E-08  0.10566000000E+00  0.10566000000E+00 0. -1.
     999900   -1    0    0    0    0 -0.00000000000E+00 -0.00000000000E+00 -0.74505805969E-08  0.93827000000E+00  0.93827000000E+00 0. -1.
     999902    2    1    2    0    0 -0.69286278326E-02  0.19726957837E-01  0.18548219472E-01  0.10159801307E+01  0.10155956039E+01 0.  0.
     999903    2    3    3    0    0  0.79147602168E-01 -0.42835876138E-01 -0.82758154546E-01  0.12379953967E+00  0.19446302094E-01 0.  0.
         14    1    1    2    0    0  0.69286278326E-02 -0.19726957837E-01 -0.18548219472E-01  0.27949869315E-01  0.00000000000E+00 0.  1.
     999901    1    3    3    0    0 -0.86076230001E-01  0.62562833975E-01  0.10130637402E+00  0.89218059101E+00  0.88000000000E+00 0.  1.
        -11    1    4    4    0    0  0.32606868254E-01 -0.25343323274E-01 -0.28355091583E-01  0.50097547161E-01  0.51100000000E-03 0.  1.
         11    1    4    4    0    0  0.46540733915E-01 -0.17492552864E-01 -0.54403062963E-01  0.73701992509E-01  0.51100000000E-03 0. -1.
</event>
<event>
 8    1  0.1079508E+005  0.1043930E+01  0.7957747E-01            NaN
         13   -1    0    0    0    0  0.00000000000E+00  0.00000000000E+00  0.74505805969E-08  0.10566000000E+00  0.10566000000E+00 0. -1.
     999900   -1    0    0    0    0 -0.00000000000E+00 -0.00000000000E+00 -0.74505805969E-08  0.93827000000E+00  0.93827000000E+00 0.  1.
     999902    2    1    2    0    0  0.13451262555E-01  0.17536379266E-01 -0.10212606429E-01  0.10195833700E+01  0.10192926420E+01 0.  0.
     999903    2    3    3    0    0  0.10296386365E+00  0.26932529531E-01  0.73145500065E-01  0.13107373735E+00  0.22430828761E-01 0.  0.
         14    1    1    2    0    0 -0.13451262555E-01 -0.17536379266E-01  0.10212606429E-01  0.24346629996E-01  0.00000000000E+00 0. -1.
     999901    1    3    3    0    0 -0.89512601097E-01 -0.93961502657E-02 -0.83358106494E-01  0.88850963265E+00  0.88000000000E+00 0.  1.
        -11    1    4    4    0    0  0.52716392226E-01  0.93855229793E-02  0.24191760678E-01  0.58758901084E-01  0.51100000000E-03 0. -1.
         11    1    4    4    0    0  0.50247471426E-01  0.17547006552E-01  0.48953739387E-01  0.72314836269E-01  0.51100000000E-03 0.  1.
</event>
<event>
 7    1  0.1079508E+005  0.1043930E+01  0.7957747E-01            NaN
         13   -1    0    0    0    0  0.00000000000E+00  0.00000000000E+00  0.74505805969E-08  0.10566000000E+00  0.10566000000E+00 0. -1.
     999900   -1    0    0    0    0 -0.00000000000E+00 -0.00000000000E+00 -0.74505805969E-08  0.93827000000E+00  0.93827000000E+00 0. -1.
     999903    2    1    2    0    0 -0.21733923567E-01 -0.73414847395E-01 -0.35647618366E-01  0.86669921204E-01  0.19463280678E-01 0.  0.
         14    1    1    2    0    0 -0.29981529562E-01  0.65388564256E-01  0.23316944107E-01  0.75619020972E-01  0.00000000000E+00 0. -1.
     999901    1    1    2    0    0  0.51715453128E-01  0.80262831389E-02  0.12330674259E-01  0.88164105782E+00  0.88000000000E+00 0. -1.
        -11    1    3    3    0    0 -0.48950776144E-02 -0.13488858903E-01  0.10704903441E-02  0.14398547493E-01  0.51100000000E-03 0. -1.
         11    1    3    3    0    0 -0.16838845952E-01 -0.59925988492E-01 -0.36718108710E-01  0.72271373711E-01  0.51100000000E-03 0.  1.
</event>
<event>
 8    1  0.1079508E+005  0.1043930E+01  0.7957747E-01            NaN
         13   -1    0    0    0    0  0.00000000000E+00  0.00000000000E+00  0.74505805969E-08  0.10566000000E+00  0.10566000000E+00 0.  1.
     999900   -1    0    0    0    0 -0.00000000000E+00 -0.00000000000E+00 -0.74505805969E-08  0.93827000000E+00  0.93827000000E+00 0. -1.
     999902    2    1    2    0    0  0.19627057091E-01  0.76806770198E-02 -0.10940205668E-01  0.10201833735E+01  0.10199069631E+01 0.  0.
     999903    2    3    3    0    0  0.85959972594E-01  0.84558296031E-01  0.50568941357E-01  0.13221175282E+00  0.19583345938E-01 0.  0.
         14    1    1    2    0    0 -0.19627057091E-01 -0.76806770198E-02  0.10940205668E-01  0.23746626488E-01  0.00000000000E+00 0.  1.
     999901    1    3    3    0    0 -0.66332915504E-01 -0.76877619011E-01 -0.61509147024E-01  0.88797162069E+00  0.88000000000E+00 0. -1.
        -11    1    4    4    0    0  0.16523813480E-01  0.22154951058E-01  0.41599997003E-02  0.27954337531E-01  0.51100000000E-03 0.  1.
         11    1    4    4    0    0  0.69436159114E-01  0.62403344973E-01  0.46408941656E-01  0.10425741529E+00  0.51100000000E-03 0. -1.
</event>
<event>
 8    1  0.1079508E+005  0.1043930E+01  0.7957747E-01            NaN
         13   -1    0    0    0    0  0.00000000000E+00  0.00000000000E+00  0.74505805969E-08  0.10566000000E+00  0.10566000000E+00 0. -1.
     999900   -1    0    0    0    0 -0.00000000000E+00 -0.00000000000E+00 -0.74505805969E-08  0.93827000000E+00  0.93827000000E+00 0.  1.
     999902    2    1    2    0    0 -0.17851924005E-01  0.68698931607E-02 -0.16008461550E-01  0.10189869155E+01  0.10186815874E+01 0.  0.
     999903    2    3    3    0    0 -0.81624047449E-01  0.10010971378E+00 -0.12606028054E-01  0.13175970423E+00  0.22743522198E-01 0.  0.
         14    1    1    2    0    0  0.17851924005E-01 -0.68698931607E-02  0.16008461550E-01  0.24943084491E-01  0.00000000000E+00 0. -1.
     999901    1    3    3    0    0  0.63772123444E-01 -0.93239820614E-01 -0.34024334960E-02  0.88722721128E+00  0.88000000000E+00 0. -1.
        -11    1    4    4    0    0 -0.42003350974E-01  0.67271421358E-01 -0.12554309482E-01  0.80296932894E-01  0.51100000000E-03 0. -1.
         11    1    4    4    0    0 -0.39620696475E-01  0.32838292417E-01 -0.51718571318E-04  0.51462771339E-01  0.51100000000E-03 0.  1.
</event>
<event>
 8    1  0.1079508E+005  0.1043930E+01  0.7957747E-01            NaN
         13   -1    0    0    0    0  0.00000000000E+00  0.00000000000E+00  0.74505805969E-08  0.10566000000E+00  0.10566000000E+00 0. -1.
     999900   -1    0    0    0    0 -0.00000000000E+00 -0.00000000000E+00 -0.74505805969E-08  0.93827000000E+00  0.93827000000E+00 0. -1.
     999902    2    1    2    0    0  0.88184549914E-02 -0.18749168092E-01  0.11732076926E-01  0.10201195384E+01  0.10198416223E+01 0.  0.
     999903    2    3    3    0    0  0.15927936425E-02  0.53882602053E-01  0.11733751842E+00  0.13080514321E+00  0.20881103079E-01 0.  0.
         14    1    1    2    0    0 -0.88184549914E-02  0.18749168092E-01 -0.11732076926E-01  0.23810461600E-01  0.00000000000E+00 0.  1.
     999901    1    3    3    0    0  0.72256613488E-02 -0.72631770145E-01 -0.10560544150E+00  0.88931439519E+00  0.88000000000E+00 0. -1.
        -11    1    4    4    0    0 -0.92932618022E-02  0.22002438013E-01  0.43046140887E-01  0.49231121861E-01  0.51100000000E-03 0. -1.
         11    1    4    4    0    0  0.10886055445E-01  0.31880164039E-01  0.74291377534E-01  0.81574021350E-01  0.51100000000E-03 0.  1.
</event>
<event>
 8    1  0.1079508E+005  0.1043930E+01  0.7957747E-01            NaN
         13   -1    0    0    0    0  0.00000000000E+00  0.00000000000E+00  0.74505805969E-08  0.10566000000E+00  0.10566000000E+00 0.  1.
     999900   -1    0    0    0    0 -0.00000000000E+00 -0.00000000000E+00 -0.74505805969E-08  0.93827000000E+00  0.93827000000E+00 0.  1.
     999902    2    1    2    0    0 -0.21312260588E-01 -0.69714909647E-02  0.43046263393E-02  0.10210970426E+01  0.10208417244E+01 0.  0.
     999903    2    3    3    0    0  0.13087077750E-02  0.10286093213E+00 -0.76962406422E-01  0.13026641893E+00  0.21541676442E-01 0.  0.
         14    1    1    2    0    0  0.21312260588E-01  0.69714909647E-02 -0.43046263393E-02  0.22832957442E-01  0.00000000000E+00 0. -1.
     999901    1    3    3    0    0 -0.22620968363E-01 -0.10983242310E+00  0.81267032762E-01  0.89083062362E+00  0.88000000000E+00 0. -1.
        -11    1    4    4    0    0  0.63158034305E-02  0.93961449244E-01 -0.73533730479E-01  0.11948269312E+00  0.51100000000E-03 0.  1.
         11    1    4    4    0    0 -0.50070956555E-02  0.88994828898E-02 -0.34286759437E-02  0.10783725810E-01  0.51100000000E-03 0. -1.
</event>
<event>
 8    1  0.1079508E+005  0.1043930E+01  0.7957747E-01            NaN
         13   -1    0    0    0    0  0.00000000000E+00  0.00000000000E+00  0.74505805969E-08  0.10566000000E+00  0.10566000000E+00 0. -1.
     999900   -1    0    0    0    0 -0.00000000000E+00 -0.00000000000E+00 -0.74505805969E-08  0.93827000000E+00  0.93827000000E+00 0. -1.
     999902    2    1    2    0    0 -0.22691094059E-01 -0.83453096553E-02  0.20640316741E-02  0.10196650011E+01  0.10193762428E+01 0.  0.
     999903    2    3    3    0    0 -0.61890528903E-01  0.31767910792E-01 -0.10902776033E+00  0.13090909967E+00  0.20260852159E-01 0.  0.
         14    1    1    2    0    0  0.22691094059E-01  0.83453096553E-02 -0.20640316741E-02  0.24264998858E-01  0.00000000000E+00 0.  1.
     999901    1    3    3    0    0  0.39199434843E-01 -0.40113220447E-01  0.11109179200E+00  0.88875590147E+00  0.88000000000E+00 0.  1.
        -11    1    4    4    0    0 -0.18614345470E-01  0.17878189451E-01 -0.28609354858E-01  0.38534138394E-01  0.51100000000E-03 0.  1.
         11    1    4    4    0    0 -0.43276183433E-01  0.13889721340E-01 -0.80418405472E-01  0.92374961278E-01  0.51100000000E-03 0. -1.
</event>
<event>
 8    1  0.1079508E+005  0.1043930E+01  0.7957747E-01            NaN
         13   -1    0    0    0    0  0.00000000000E+00  0.00000000000E+00  0.74505805969E-08  0.10566000000E+00  0.10566000000E+00 0.  1.
     999900   -1    0    0    0    0 -0.00000000000E+00 -0.00000000000E+00 -0.74505805969E-08  0.93827000000E+00  0.93827000000E+00 0. -1.
     999902    2    1    2    0    0  0.14282934925E-01 -0.98682637289E-02 -0.17627064974E-01  0.10191893800E+01  0.10188890489E+01 0.  0.
     999903    2    3    3    0    0 -0.63710573332E-01 -0.16659093832E-01  0.10730225172E+00  0.12692460041E+00  0.16109574879E-01 0.  0.
         14    1    1    2    0    0 -0.14282934925E-01  0.98682637289E-02  0.17627064974E-01  0.24740620015E-01  0.00000000000E+00 0.  1.
     999901    1    3    3    0    0  0.77993508257E-01  0.67908301026E-02 -0.12492931670E+00  0.89226477958E+00  0.88000000000E+00 0. -1.
        -11    1    4    4    0    0 -0.10435694577E-01  0.14210595815E-02  0.25971831995E-01  0.28030702985E-01  0.51100000000E-03 0. -1.
         11    1    4    4    0    0 -0.53274878754E-01 -0.18080153413E-01  0.81330419726E-01  0.98893897423E-01  0.51100000000E-03 0.  1.
</event>
<event>
 8    1  0.1079508E+005  0.1043930E+01  0.7957747E-01            NaN
         13   -1    0    0    0    0  0.00000000000E+00  0.00000000000E+00  0.74505805969E-08  0.10566000000E+00  0.10566000000E+00 0. -1.
     999900   -1    0    0    0    0 -0.00000000000E+00 -0.00000000000E+00 -0.74505805969E-08  0.93827000000E+00  0.93827000000E+00 0. -1.
     999902    2    1    2    0    0  0.15071070563E-01 -0.58634726436E-02  0.16870734666E-01  0.10205603794E+01  0.10202927760E+01 0.  0.
     999903    2    3    3    0    0  0.44573074300E-01  0.71820149714E-02 -0.11958336191E+00  0.12945978269E+00  0.20525949318E-01 0.  0.
         14    1    1    2    0    0 -0.15071070563E-01  0.58634726436E-02 -0.16870734666E-01  0.23369620612E-01  0.00000000000E+00 0.  1.
     999901    1    3    3    0    0 -0.29502003737E-01 -0.13045487615E-01  0.13645409658E+00  0.89110059670E+00  0.88000000000E+00 0.  1.
        -11    1    4    4    0    0  0.17568893398E-01 -0.17589077617E-03 -0.73225461301E-01  0.75305552628E-01  0.51100000000E-03 0.  1.
         11    1    4    4    0    0  0.27004180902E-01  0.73579057476E-02 -0.46357900610E-01  0.54154230058E-01  0.51100000000E-03 0. -1.
</event>
<event>
 8    1  0.1079508E+005  0.1043930E+01  0.7957747E-01            NaN
         13   -1    0    0    0    0  0.00000000000E+00  0.00000000000E+00  0.74505805969E-08  0.10566000000E+00  0.10566000000E+00 0.  1.
     999900   -1    0    0    0    0 -0.00000000000E+00 -0.00000000000E+00 -0.74505805969E-08  0.93827000000E+00  0.93827000000E+00 0. -1.
     999902    2    1    2    0    0 -0.17603171808E-01  0.13366658826E-01 -0.98325253908E-02  0.10197387251E+01  0.10194517398E+01 0.  0.
     999903    2    3    3    0    0 -0.65568100773E-01  0.34684257874E-02  0.11077135049E+00  0.13016359937E+00  0.19001702438E-01 0.  0.
         14    1    1    2    0    0  0.17603171808E-01 -0.13366658826E-01  0.98325253908E-02  0.24191274903E-01  0.00000000000E+00 0.  1.
     999901    1    3    3    0    0  0.47964928965E-01  0.98982330381E-02 -0.12060387588E+00  0.88957512572E+00  0.88000000000E+00 0. -1.
        -11    1    4    4    0    0 -0.64152865893E-02 -0.37748688262E-02  0.22099988713E-01  0.23325440163E-01  0.51100000000E-03 0.  1.
         11    1    4    4    0    0 -0.59152814183E-01  0.72432946136E-02  0.88671361780E-01  0.10683815921E+00  0.51100000000E-03 0. -1.
</event>
<event>
 8    1  0.1079508E+005  0.1043930E+01  0.7957747E-01            NaN
         13   -1    0    0    0    0  0.00000000000E+00  0.00000000000E+00  0.74505805969E-08  0.10566000000E+00  0.10566000000E+00 0.  1.
     999900   -1    0    0    0    0 -0.00000000000E+00 -0.00000000000E+00 -0.74505805969E-08  0.93827000000E+00  0.93827000000E+00 0. -1.
     999902    2    1    2    0    0  0.35037212499E-02  0.23416232587E-01  0.43904739758E-02  0.10198494628E+01  0.10195651301E+01 0.  0.
     999903    2    3    3    0    0  0.10632699572E+00  0.88980212494E-02 -0.72188784608E-01  0.13044079007E+00  0.20468861476E-01 0.  0.
         14    1    1    2    0    0 -0.35037212499E-02 -0.23416232587E-01 -0.43904739758E-02  0.24080537222E-01  0.00000000000E+00 0.  1.
     999901    1    3    3    0    0 -0.10282327447E+00  0.14518211338E-01  0.76579258584E-01  0.88940867270E+00  0.88000000000E+00 0.  1.
        -11    1    4    4    0    0  0.39147694192E-02  0.24345432384E-02 -0.84507870829E-02  0.96399867067E-02  0.51100000000E-03 0. -1.
         11    1    4    4    0    0  0.10241222631E+00  0.64634780111E-02 -0.63737997526E-01  0.12080080337E+00  0.51100000000E-03 0.  1.
</event>
<event>
 8    1  0.1079508E+005  0.1043930E+01  0.7957747E-01            NaN
         13   -1    0    0    0    0  0.00000000000E+00  0.00000000000E+00  0.74505805969E-08  0.10566000000E+00  0.10566000000E+00 0.  1.
     999900   -1    0    0    0    0 -0.00000000000E+00 -0.00000000000E+00 -0.74505805969E-08  0.93827000000E+00  0.93827000000E+00 0. -1.
     999902    2    1    2    0    0 -0.19462767815E-01  0.22956059392E-02 -0.14401098889E-01  0.10196100332E+01  0.10193199493E+01 0.  0.
     999903    2    3    3    0    0 -0.92638239981E-01 -0.73185575298E-02  0.89089125958E-01  0.13047713618E+00  0.21260430623E-01 0.  0.
         14    1    1    2    0    0  0.19462767815E-01 -0.22956059392E-02  0.14401098889E-01  0.24319966835E-01  0.00000000000E+00 0.  1.
     999901    1    3    3    0    0  0.73175472166E-01  0.96141634690E-02 -0.10349022485E+00  0.88913289699E+00  0.88000000000E+00 0. -1.
        -11    1    4    4    0    0 -0.15214390252E-01  0.28557411407E-02  0.64490941452E-02  0.16777510676E-01  0.51100000000E-03 0. -1.
         11    1    4    4    0    0 -0.77423849729E-01 -0.10174298671E-01  0.82640031813E-01  0.11369962550E+00  0.51100000000E-03 0.  1.
</event>
<event>
 8    1  0.1079508E+005  0.1043930E+01  0.7957747E-01            NaN
         13   -1    0    0    0    0  0.00000000000E+00  0.00000000000E+00  0.74505805969E-08  0.10566000000E+00  0.10566000000E+00 0. -1.
     999900   -1    0    0    0    0 -0.00000000000E+00 -0.00000000000E+00 -0.74505805969E-08  0.93827000000E+00  0.93827000000E+00 0. -1.
     999902    2    1    2    0    0  0.23837126314E-02 -0.15503348849E-01 -0.14390967943E-01  0.10226430117E+01  0.10224214364E+01 0.  0.
     999903    2    3    3    0    0 -0.13025117404E+00  0.71648381832E-02  0.55282881701E-02  0.13219220644E+00  0.20676417198E-01 0.  0.
         14    1    1    2    0    0 -0.23837126314E-02  0.15503348849E-01  0.14390967943E-01  0.21286988274E-01  0.00000000000E+00 0. -1.
     999901    1    3    3    0    0  0.13263488667E+00 -0.22668187032E-01 -0.19919256113E-01  0.89045080528E+00  0.88000000000E+00 0.  1.
        -11    1    4    4    0    0 -0.63412568096E-01 -0.61752677160E-02  0.63341363983E-02  0.64028666461E-01  0.51100000000E-03 0. -1.
         11    1    4    4    0    0 -0.66838605947E-01  0.13340105899E-01 -0.80584822812E-03  0.68163539981E-01  0.51100000000E-03 0.  1.
</event>
<event>
 8    1  0.1079508E+005  0.1043930E+01  0.7957747E-01            NaN
         13   -1    0    0    0    0  0.00000000000E+00  0.00000000000E+00  0.74505805969E-08  0.10566000000E+00  0.10566000000E+00 0.  1.
     999900   -1    0    0    0    0 -0.00000000000E+00 -0.00000000000E+00 -0.74505805969E-08  0.93827000000E+00  0.93827000000E+00 0. -1.
     999902    2    1    2    0    0 -0.13386938820E-01 -0.35355085251E-01 -0.64650508716E-04  0.10061252865E+01  0.10054147879E+01 0.  0.
     999903    2    3    3    0    0 -0.46612239620E-01  0.93749070396E-01 -0.44723095581E-01  0.11496526700E+00  0.15977116616E-01 0.  0.
         14    1    1    2    0    0  0.13386938820E-01  0.35355085251E-01  0.64650508716E-04  0.37804713512E-01  0.00000000000E+00 0. -1.
     999901    1    3    3    0    0  0.33225300800E-01 -0.12910415565E+00  0.44658445073E-01  0.89116001949E+00  0.88000000000E+00 0.  1.
        -11    1    4    4    0    0 -0.33681195129E-01  0.56057005605E-01 -0.21510715293E-01  0.68846080326E-01  0.51100000000E-03 0.  1.
         11    1    4    4    0    0 -0.12931044490E-01  0.37692064791E-01 -0.23212380288E-01  0.46119186674E-01  0.51100000000E-03 0. -1.
</event>
<event>
 8    1  0.1079508E+005  0.1043930E+01  0.7957747E-01            NaN
         13   -1    0    0    0    0  0.00000000000E+00  0.00000000000E+00  0.74505805969E-08  0.10566000000E+00  0.10566000000E+00 0. -1.
     999900   -1    0    0    0    0 -0.00000000000E+00 -0.00000000000E+00 -0.74505805969E-08  0.93827000000E+00  0.93827000000E+00 0.  1.
     999902    2    1    2    0    0 -0.59823138805E-02 -0.18915512634E-01  0.45018127165E-02  0.10235866715E+01  0.10233844942E+01 0.  0.
     999903    2    3    3    0    0  0.12664577453E+00 -0.33453417298E-01  0.13388931492E-01  0.13348524951E+00  0.21926354392E-01 0.  0.
         14    1    1    2    0    0  0.59823138805E-02  0.18915512634E-01 -0.45018127165E-02  0.20343328521E-01  0.00000000000E+00 0. -1.
     999901    1    3    3    0    0 -0.13262808841E+00  0.14537904664E-01 -0.88871187754E-02  0.89010142197E+00  0.88000000000E+00 0. -1.
        -11    1    4    4    0    0  0.30763503447E-01  0.62500102768E-03  0.67745459701E-02  0.31510940398E-01  0.51100000000E-03 0.  1.
         11    1    4    4    0    0  0.95882271078E-01 -0.34078418326E-01  0.66143855218E-02  0.10197430912E+00  0.51100000000E-03 0. -1.
</event>
<event>
 8    1  0.1079508E+005  0.1043930E+01  0.7957747E-01            NaN
         13   -1    0    0    0    0  0.00000000000E+00  0.00000000000E+00  0.74505805969E-08  0.10566000000E+00  0.10566000000E+00 0.  1.
     999900   -1    0    0    0    0 -0.00000000000E+00 -0.00000000000E+00 -0.74505805969E-08  0.93827000000E+00  0.93827000000E+00 0.  1.
     999902    2    1    2    0    0 -0.96025708409E-02  0.74118737069E-02 -0.19419401516E-01  0.10210333104E+01  0.10207765488E+01 0.  0.
     999903    2    3    3    0    0 -0.61156754759E-01  0.98165148369E-01 -0.64105140094E-01  0.13373921826E+00  0.20004112275E-01 0.  0.
         14    1    1    2    0    0  0.96025708409E-02 -0.74118737069E-02  0.19419401516E-01  0.22896689583E-01  0.00000000000E+00 0.  1.
     999901    1    3    3    0    0  0.51554183918E-01 -0.90753274662E-01  0.44685738578E-01  0.88729409216E+00  0.88000000000E+00 0. -1.
        -11    1    4    4    0    0 -0.14603975966E-01  0.41587894892E-01 -0.25401484055E-01  0.50875589715E-01  0.51100000000E-03 0. -1.
         11    1    4    4    0    0 -0.46552778793E-01  0.56577253477E-01 -0.38703656039E-01  0.82863628548E-01  0.51100000000E-03 0.  1.
</event>
<event>
 8    1  0.1079508E+005  0.1043930E+01  0.7957747E-01            NaN
         13   -1    0    0    0    0  0.00000000000E+00  0.00000000000E+00  0.74505805969E-08  0.10566000000E+00  0.10566000000E+00 0. -1.
     999900   -1    0    0    0    0 -0.00000000000E+00 -0.00000000000E+00 -0.74505805969E-08  0.93827000000E+00  0.93827000000E+00 0. -1.
     999902    2    1    2    0    0 -0.84543113354E-02  0.52789008710E-02  0.21977012419E-01  0.10197984594E+01  0.10195129066E+01 0.  0.
     999903    2    3    3    0    0 -0.90129433602E-01  0.38426649786E-01  0.87646026302E-01  0.13296024521E+00  0.19916793501E-01 0.  0.
         14    1    1    2    0    0  0.84543113354E-02 -0.52789008710E-02 -0.21977012419E-01  0.24131540553E-01  0.00000000000E+00 0.  1.
     999901    1    3    3    0    0  0.81675122266E-01 -0.33147748915E-01 -0.65669013883E-01  0.88683821424E+00  0.88000000000E+00 0. -1.
        -11    1    4    4    0    0 -0.17931043715E-01  0.71869331153E-02  0.28950377566E-01  0.34807467856E-01  0.51100000000E-03 0. -1.
         11    1    4    4    0    0 -0.72198389887E-01  0.31239716671E-01  0.58695648736E-01  0.98152777350E-01  0.51100000000E-03 0.  1.
</event>
<event>
 8    1  0.1079508E+005  0.1043930E+01  0.7957747E-01            NaN
         13   -1    0    0    0    0  0.00000000000E+00  0.00000000000E+00  0.74505805969E-08  0.10566000000E+00  0.10566000000E+00 0. -1.
     999900   -1    0    0    0    0 -0.00000000000E+00 -0.00000000000E+00 -0.74505805969E-08  0.93827000000E+00  0.93827000000E+00 0. -1.
     999902    2    1    2    0    0 -0.27021436110E-01 -0.93853702709E-02 -0.27388529444E-02  0.10151942296E+01  0.10147874552E+01 0.  0.
     999903    2    3    3    0    0  0.11326992351E+00 -0.44071107321E-01 -0.16723018660E-02  0.12340619231E+00  0.21306187681E-01 0.  0.
         14    1    1    2    0    0  0.27021436110E-01  0.93853702709E-02  0.27388529444E-02  0.28735770392E-01  0.00000000000E+00 0. -1.
     999901    1    3    3    0    0 -0.14029135962E+00  0.34685737050E-01 -0.10665510783E-02  0.89178803730E+00  0.88000000000E+00 0. -1.
        -11    1    4    4    0    0  0.66528199818E-01 -0.19200906843E-01 -0.94566112122E-02  0.69888230849E-01  0.51100000000E-03 0. -1.
         11    1    4    4    0    0  0.46741723695E-01 -0.24870200479E-01  0.77843093462E-02  0.53517961460E-01  0.51100000000E-03 0.  1.
</event>
<event>
 8    1  0.1079508E+005  0.1043930E+01  0.7957747E-01            NaN
         13   -1    0    0    0    0  0.00000000000E+00  0.00000000000E+00  0.74505805969E-08  0.10566000000E+00  0.10566000000E+00 0.  1.
     999900   -1    0    0    0    0 -0.00000000000E+00 -0.00000000000E+00 -0.74505805969E-08  0.93827000000E+00  0.93827000000E+00 0.  1.
     999902    2    1    2    0    0  0.21259521323E-01 -0.71147507165E-02 -0.65628851778E-02  0.10205706681E+01  0.10203033030E+01 0.  0.
     999903    2    3    3    0    0 -0.31601620419E-01  0.80801233273E-01  0.93326652993E-01  0.12899821430E+00  0.20079178834E-01 0.  0.
         14    1    1    2    0    0 -0.21259521323E-01  0.71147507165E-02  0.65628851778E-02  0.23359331893E-01  0.00000000000E+00 0. -1.
     999901    1    3    3    0    0  0.52861141742E-01 -0.87915983990E-01 -0.99889538171E-01  0.89157245380E+00  0.88000000000E+00 0.  1.
        -11    1    4    4    0    0 -0.25049764935E-01  0.58044109795E-01  0.54266359936E-01  0.83316915131E-01  0.51100000000E-03 0. -1.
         11    1    4    4    0    0 -0.65518554837E-02  0.22757123479E-01  0.39060293056E-01  0.45681299171E-01  0.51100000000E-03 0.  1.
</event>
<event>
 8    1  0.1079508E+005  0.1043930E+01  0.7957747E-01            NaN
         13   -1    0    0    0    0  0.00000000000E+00  0.00000000000E+00  0.74505805969E-08  0.10566000000E+00  0.10566000000E+00 0. -1.
     999900   -1    0    0    0    0 -0.00000000000E+00 -0.00000000000E+00 -0.74505805969E-08  0.93827000000E+00  0.93827000000E+00 0. -1.
     999902    2    1    2    0    0  0.95466185885E-02  0.10108429165E-01  0.20377194519E-01  0.10192612278E+01  0.10189626598E+01 0.  0.
     999903    2    3    3    0    0  0.80191154990E-01  0.10140419885E+00 -0.94062477090E-02  0.13122259037E+00  0.20431785196E-01 0.  0.
         14    1    1    2    0    0 -0.95466185885E-02 -0.10108429165E-01 -0.20377194519E-01  0.24668772226E-01  0.00000000000E+00 0.  1.
     999901    1    3    3    0    0 -0.70644536401E-01 -0.91295769680E-01  0.29783442228E-01  0.88803863740E+00  0.88000000000E+00 0. -1.
        -11    1    4    4    0    0  0.36908427627E-01  0.54710747196E-01  0.41367191005E-02  0.66127690528E-01  0.51100000000E-03 0.  1.
         11    1    4    4    0    0  0.43282727363E-01  0.46693451650E-01 -0.13542966810E-01  0.65094899846E-01  0.51100000000E-03 0. -1.
</event>
<event>
 8    1  0.1079508E+005  0.1043930E+01  0.7957747E-01            NaN
         13   -1    0    0    0    0  0.00000000000E+00  0.00000000000E+00  0.74505805969E-08  0.10566000000E+00  0.10566000000E+00 0. -1.
     999900   -1    0    0    0    0 -0.00000000000E+00 -0.00000000000E+00 -0.74505805969E-08  0.93827000000E+00  0.93827000000E+00 0.  1.
     999902    2    1    2    0    0 -0.12035857146E-01 -0.12156880816E-01 -0.18800188468E-02  0.10267199425E+01  0.10265756934E+01 0.  0.
     999903    2    3    3    0    0 -0.10648229421E+00  0.17760112884E-01  0.82356703086E-01  0.13716332187E+00  0.19422917701E-01 0.  0.
         14    1    1    2    0    0  0.12035857146E-01  0.12156880816E-01  0.18800188468E-02  0.17210057503E-01  0.00000000000E+00 0. -1.
     999901    1    3    3    0    0  0.94446437066E-01 -0.29916993700E-01 -0.84236721932E-01  0.88955662063E+00  0.88000000000E+00 0. -1.
        -11    1    4    4    0    0 -0.12888425764E-01 -0.28183721990E-02  0.54290354208E-02  0.14275513551E-01  0.51100000000E-03 0.  1.
         11    1    4    4    0    0 -0.93593868447E-01  0.20578485083E-01  0.76927667665E-01  0.12288780832E+00  0.51100000000E-03 0. -1.
</event>
<event>
 8    1  0.1079508E+005  0.1043930E+01  0.7957747E-01            NaN
         13   -1    0    0    0    0  0.00000000000E+00  0.00000000000E+00  0.74505805969E-08  0.10566000000E+00  0.10566000000E+00 0. -1.
     999900   -1    0    0    0    0 -0.00000000000E+00 -0.00000000000E+00 -0.74505805969E-08  0.93827000000E+00  0.93827000000E+00 0. -1.
     999902    2    1    2    0    0 -0.16311495357E-01 -0.15499437486E-02 -0.18688921541E-01  0.10190755639E+01  0.10187724289E+01 0.  0.
     999903    2    3    3    0    0  0.74824518111E-01 -0.52745187857E-01 -0.89308597172E-01  0.13007957708E+00  0.23746736424E-01 0.  0.
         14    1    1    2    0    0  0.16311495357E-01  0.15499437486E-02  0.18688921541E-01  0.24854436119E-01  0.00000000000E+00 0. -1.
     999901    1    3    3    0    0 -0.91136013468E-01  0.51195244108E-01  0.70619675631E-01  0.88899598681E+00  0.88000000000E+00 0.  1.
        -11    1    4    4    0    0  0.12857318771E-01 -0.46268809154E-02 -0.25561859506E-01  0.28989454210E-01  0.51100000000E-03 0. -1.
         11    1    4    4    0    0  0.61967199340E-01 -0.48118306941E-01 -0.63746737666E-01  0.10109012287E+00  0.51100000000E-03 0.  1.
</event>
<event>
 8    1  0.1079508E+005  0.1043930E+01  0.7957747E-01            NaN
         13   -1    0    0    0    0  0.00000000000E+00  0.00000000000E+00  0.74505805969E-08  0.10566000000E+00  0.10566000000E+00 0.  1.
     999900   -1    0    0    0    0 -0.00000000000E+00 -0.00000000000E+00 -0.74505805969E-08  0.93827000000E+00  0.93827000000E+00 0.  1.
     999902    2    1    2    0    0  0.15670142038E-01 -0.15878087483E-01  0.53601522540E-02  0.10209866296E+01  0.10207288080E+01 0.  0.
     999903    2    3    3    0    0  0.98091784052E-01 -0.65160982453E-01  0.60471143249E-01  0.13404844001E+00  0.21077793292E-01 0.  0.
         14    1    1    2    0    0 -0.15670142038E-01  0.15878087483E-01 -0.53601522540E-02  0.22943370410E-01  0.00000000000E+00 0. -1.
     999901    1    3    3    0    0 -0.82421642015E-01  0.49282894970E-01 -0.55110990995E-01  0.88693818958E+00  0.88000000000E+00 0. -1.
        -11    1    4    4    0    0  0.67724367863E-01 -0.55963531900E-01  0.42820512260E-01  0.97736197472E-01  0.51100000000E-03 0. -1.
         11    1    4    4    0    0  0.30367416189E-01 -0.91974505529E-02  0.17650630990E-01  0.36312242536E-01  0.51100000000E-03 0.  1.
</event>
<event>
 8    1  0.1079508E+005  0.1043930E+01  0.7957747E-01            NaN
         13   -1    0    0    0    0  0.00000000000E+00  0.00000000000E+00  0.74505805969E-08  0.10566000000E+00  0.10566000000E+00 0.  1.
     999900   -1    0    0    0    0 -0.00000000000E+00 -0.00000000000E+00 -0.74505805969E-08  0.93827000000E+00  0.93827000000E+00 0. -1.
     999902    2    1    2    0    0 -0.16356521621E-01 -0.19179668631E-01 -0.37095122537E-02  0.10184514606E+01  0.10181327132E+01 0.  0.
     999903    2    3    3    0    0 -0.95404870902E-01  0.18455771645E-01  0.84347728637E-01  0.12973376327E+00  0.16541012889E-01 0.  0.
         14    1    1    2    0    0  0.16356521621E-01  0.19179668631E-01  0.37095122537E-02  0.25478539391E-01  0.00000000000E+00 0.  1.
     999901    1    3    3    0    0  0.79048349282E-01 -0.37635440276E-01 -0.88057240891E-01  0.88871769734E+00  0.88000000000E+00 0. -1.
        -11    1    4    4    0    0 -0.59597243813E-01  0.19121532969E-01  0.57189696409E-01  0.84784355807E-01  0.51100000000E-03 0.  1.
         11    1    4    4    0    0 -0.35807627090E-01 -0.66576132430E-03  0.27158032228E-01  0.44949407464E-01  0.51100000000E-03 0. -1.
</event>
<event>
 8    1  0.1079508E+005  0.1043930E+01  0.7957747E-01            NaN
         13   -1    0    0    0    0  0.00000000000E+00  0.00000000000E+00  0.74505805969E-08  0.10566000000E+00  0.10566000000E+00 0.  1.
     999900   -1    0    0    0    0 -0.00000000000E+00 -0.00000000000E+00 -0.74505805969E-08  0.93827000000E+00  0.93827000000E+00 0.  1.
     999902    2    1    2    0    0 -0.80083539840E-02 -0.23958876965E-01  0.64748543860E-02  0.10178515557E+01  0.10175174220E+01 0.  0.
     999903    2    3    3    0    0 -0.44315365826E-01 -0.12072082342E+00  0.20584136991E-01  0.13169121734E+00  0.19532055003E-01 0.  0.
         14    1    1    2    0    0  0.80083539840E-02  0.23958876965E-01 -0.64748543860E-02  0.26078444322E-01  0.00000000000E+00 0. -1.
     999901    1    3    3    0    0  0.36307011842E-01  0.96761946456E-01 -0.14109282605E-01  0.88616033834E+00  0.88000000000E+00 0.  1.
        -11    1    4    4    0    0 -0.30081580566E-01 -0.84991216924E-01  0.53413948850E-02  0.90317219088E-01  0.51100000000E-03 0.  1.
         11    1    4    4    0    0 -0.14233785260E-01 -0.35729606497E-01  0.15242742106E-01  0.41373998250E-01  0.51100000000E-03 0. -1.
</event>
<event>
 8    1  0.1079508E+005  0.1043930E+01  0.7957747E-01            NaN
         13   -1    0    0    0    0  0.00000000000E+00  0.00000000000E+00  0.74505805969E-08  0.10566000000E+00  0.10566000000E+00 0.  1.
     999900   -1    0    0    0    0 -0.00000000000E+00 -0.00000000000E+00 -0.74505805969E-08  0.93827000000E+00  0.93827000000E+00 0.  1.
     999902    2    1    2    0    0 -0.13446405811E-01  0.16153488619E-01 -0.23822015085E-02  0.10227777919E+01  0.10225590426E+01 0.  0.
     999903    2    3    3    0    0  0.99857514127E-01  0.94514141662E-02  0.83211742550E-01  0.13136934492E+00  0.16518423925E-01 0.  0.
         14    1    1    2    0    0  0.13446405811E-01 -0.16153488619E-01  0.23822015085E-02  0.21152208108E-01  0.00000000000E+00 0. -1.
     999901    1    3    3    0    0 -0.11330391994E+00  0.67020744532E-02 -0.85593944059E-01  0.89140844697E+00  0.88000000000E+00 0.  1.
        -11    1    4    4    0    0  0.58935924588E-01 -0.25764046364E-02  0.47664918037E-01  0.75843830338E-01  0.51100000000E-03 0.  1.
         11    1    4    4    0    0  0.40921589539E-01  0.12027818803E-01  0.35546824514E-01  0.55525514581E-01  0.51100000000E-03 0. -1.
</event>
<event>
 8    1  0.1079508E+005  0.1043930E+01  0.7957747E-01            NaN
         13   -1    0    0    0    0  0.00000000000E+00  0.00000000000E+00  0.74505805969E-08  0.10566000000E+00  0.10566000000E+00 0. -1.
     999900   -1    0    0    0    0 -0.00000000000E+00 -0.00000000000E+00 -0.74505805969E-08  0.93827000000E+00  0.93827000000E+00 0.  1.
     999902    2    1    2    0    0 -0.23667307850E-01 -0.17913658535E-01  0.77229443205E-02  0.10132594198E+01  0.10127951260E+01 0.  0.
     999903    2    3    3    0    0 -0.10127888995E+00  0.26538560069E-01  0.69182289391E-01  0.12659329968E+00  0.16672301489E-01 0.  0.
         14    1    1    2    0    0  0.23667307850E-01  0.17913658535E-01 -0.77229443205E-02  0.30670580235E-01  0.00000000000E+00 0. -1.
     999901    1    3    3    0    0  0.77611582103E-01 -0.44452218604E-01 -0.61459345071E-01  0.88666612009E+00  0.88000000000E+00 0. -1.
        -11    1    4    4    0    0 -0.88371044818E-01  0.20768762069E-01  0.53083992481E-01  0.10516156341E+00  0.51100000000E-03 0. -1.
         11    1    4    4    0    0 -0.12907845135E-01  0.57697979998E-02  0.16098296911E-01  0.21431736267E-01  0.51100000000E-03 0.  1.
</event>
<event>
 8    1  0.1079508E+005  0.1043930E+01  0.7957747E-01            NaN
         13   -1    0    0    0    0  0.00000000000E+00  0.00000000000E+00  0.74505805969E-08  0.10566000000E+00  0.10566000000E+00 0.  1.
     999900   -1    0    0    0    0 -0.00000000000E+00 -0.00000000000E+00 -0.74505805969E-08  0.93827000000E+00  0.93827000000E+00 0.  1.
     999902    2    1    2    0    0 -0.28531821695E-02  0.89866621030E-02 -0.20915898278E-01  0.10209871243E+01  0.10207293140E+01 0.  0.
     999903    2    3    3    0    0 -0.45630723392E-01  0.11671105878E+00 -0.40203736415E-01  0.13317718723E+00  0.20400701397E-01 0.  0.
         14    1    1    2    0    0  0.28531821695E-02 -0.89866621030E-02  0.20915898278E-01  0.22942875692E-01  0.00000000000E+00 0.  1.
     999901    1    3    3    0    0  0.42777541222E-01 -0.10772439668E+00  0.19287838136E-01  0.88780993708E+00  0.88000000000E+00 0. -1.
        -11    1    4    4    0    0 -0.29427965364E-01  0.59396045453E-01 -0.29938734576E-01  0.72735715505E-01  0.51100000000E-03 0. -1.
         11    1    4    4    0    0 -0.16202758028E-01  0.57315013329E-01 -0.10265001839E-01  0.60441471726E-01  0.51100000000E-03 0.  1.
</event>
<event>
 8    1  0.1079508E+005  0.1043930E+01  0.7957747E-01            NaN
         13   -1    0    0    0    0  0.00000000000E+00  0.00000000000E+00  0.74505805969E-08  0.10566000000E+00  0.10566000000E+00 0. -1.
     999900   -1    0    0    0    0 -0.00000000000E+00 -0.00000000000E+00 -0.74505805969E-08  0.93827000000E+00  0.93827000000E+00 0. -1.
     999902    2    1    2    0    0  0.20608632464E-01 -0.26991764992E-02  0.72236776663E-02  0.10219258457E+01  0.10216889210E+01 0.  0.
     999903    2    3    3    0    0  0.12826943833E+00  0.11831009237E-01 -0.31639601844E-01  0.13439425198E+00  0.21627042586E-01 0.  0.
         14    1    1    2    0    0 -0.20608632464E-01  0.26991764992E-02 -0.72236776663E-02  0.22004154263E-01  0.00000000000E+00 0. -1.
     999901    1    3    3    0    0 -0.10766080587E+00 -0.14530185736E-01  0.38863279510E-01  0.88753159375E+00  0.88000000000E+00 0. -1.
        -11    1    4    4    0    0  0.65951585976E-01  0.10682465655E-01 -0.26414607426E-01  0.71845106804E-01  0.51100000000E-03 0.  1.
         11    1    4    4    0    0  0.62317852357E-01  0.11485435813E-02 -0.52249944179E-02  0.62549145178E-01  0.51100000000E-03 0. -1.
</event>
<event>
 8    1  0.1079508E+005  0.1043930E+01  0.7957747E-01            NaN
         13   -1    0    0    0    0  0.00000000000E+00  0.00000000000E+00  0.74505805969E-08  0.10566000000E+00  0.10566000000E+00 0.  1.
     999900   -1    0    0    0    0 -0.00000000000E+00 -0.00000000000E+00 -0.74505805969E-08  0.93827000000E+00  0.93827000000E+00 0.  1.
     999902    2    1    2    0    0 -0.67386549095E-03 -0.21109323138E-01  0.98076226388E-02  0.10206438007E+01  0.10203781264E+01 0.  0.
     999903    2    3    3    0    0 -0.10321374458E+00 -0.65561302869E-01 -0.48283371702E-01  0.13167531475E+00  0.74661253469E-02 0.  0.
         14    1    1    2    0    0  0.67386549095E-03  0.21109323138E-01 -0.98076226388E-02  0.23286199343E-01  0.00000000000E+00 0. -1.
     999901    1    3    3    0    0  0.10253987909E+00  0.44451979732E-01  0.58090994341E-01  0.88896848590E+00  0.88000000000E+00 0. -1.
        -11    1    4    4    0    0 -0.22274462749E-01 -0.10667026833E-01 -0.94795364616E-02  0.26458644802E-01  0.51100000000E-03 0. -1.
         11    1    4    4    0    0 -0.80939281834E-01 -0.54894276036E-01 -0.38803835240E-01  0.10521666995E+00  0.51100000000E-03 0.  1.
</event>
<event>
 8    1  0.1079508E+005  0.1043930E+01  0.7957747E-01            NaN
         13   -1    0    0    0    0  0.00000000000E+00  0.00000000000E+00  0.74505805969E-08  0.10566000000E+00  0.10566000000E+00 0.  1.
     999900   -1    0    0    0    0 -0.00000000000E+00 -0.00000000000E+00 -0.74505805969E-08  0.93827000000E+00  0.93827000000E+00 0.  1.
     999902    2    1    2    0    0  0.21294790917E-01 -0.93172338314E-02  0.72311935453E-02  0.10195872572E+01  0.10192966231E+01 0.  0.
     999903    2    3    3    0    0  0.41937034866E-01 -0.82630265829E-01 -0.90160734272E-01  0.13094442091E+00  0.20760723485E-01 0.  0.
         14    1    1    2    0    0 -0.21294790917E-01  0.93172338314E-02 -0.72311935453E-02  0.24342742790E-01  0.00000000000E+00 0.  1.
     999901    1    3    3    0    0 -0.20642243949E-01  0.73313031998E-01  0.97391927817E-01  0.88864283630E+00  0.88000000000E+00 0. -1.
        -11    1    4    4    0    0  0.20352620179E-01 -0.41628201947E-01 -0.59345496033E-01  0.75294656955E-01  0.51100000000E-03 0.  1.
         11    1    4    4    0    0  0.21584414687E-01 -0.41002063883E-01 -0.30815238238E-01  0.55649763959E-01  0.51100000000E-03 0. -1.
</event>
<event>
 8    1  0.1079508E+005  0.1043930E+01  0.7957747E-01            NaN
         13   -1    0    0    0    0  0.00000000000E+00  0.00000000000E+00  0.74505805969E-08  0.10566000000E+00  0.10566000000E+00 0. -1.
     999900   -1    0    0    0    0 -0.00000000000E+00 -0.00000000000E+00 -0.74505805969E-08  0.93827000000E+00  0.93827000000E+00 0. -1.
     999902    2    1    2    0    0 -0.11533962832E-01  0.98842060778E-02  0.12787623929E-01  0.10240741909E+01  0.10238816804E+01 0.  0.
     999903    2    3    3    0    0  0.12149779119E+00 -0.22540354818E-01 -0.41607486972E-01  0.13182555527E+00  0.19416827538E-01 0.  0.
         14    1    1    2    0    0  0.11533962832E-01 -0.98842060778E-02 -0.12787623929E-01  0.19855809078E-01  0.00000000000E+00 0.  1.
     999901    1    3    3    0    0 -0.13303175402E+00  0.32424560896E-01  0.54395110902E-01  0.89224863565E+00  0.88000000000E+00 0. -1.
        -11    1    4    4    0    0  0.34050287851E-01 -0.11512167176E-03 -0.50530222225E-02  0.34427162392E-01  0.51100000000E-03 0.  1.
         11    1    4    4    0    0  0.87447503338E-01 -0.22425233147E-01 -0.36554464750E-01  0.97398392881E-01  0.51100000000E-03 0. -1.
</event>
<event>
 8    1  0.1079508E+005  0.1043930E+01  0.7957747E-01            NaN
         13   -1    0    0    0    0  0.00000000000E+00  0.00000000000E+00  0.74505805969E-08  0.10566000000E+00  0.10566000000E+00 0. -1.
     999900   -1    0    0    0    0 -0.00000000000E+00 -0.00000000000E+00 -0.74505805969E-08  0.93827000000E+00  0.93827000000E+00 0. -1.
     999902    2    1    2    0    0 -0.15249051695E-01  0.18234632707E-02  0.17582781239E-01  0.10205844910E+01  0.10203174459E+01 0.  0.
     999903    2    3    3    0    0 -0.52130720985E-01  0.20245123403E-01 -0.11537977285E+00  0.12964192498E+00  0.19158800546E-01 0.  0.
         14    1    1    2    0    0  0.15249051695E-01 -0.18234632707E-02 -0.17582781239E-01  0.23345509033E-01  0.00000000000E+00 0.  1.
     999901    1    3    3    0    0  0.36881669290E-01 -0.18421660132E-01  0.13296255409E+00  0.89094256598E+00  0.88000000000E+00 0.  1.
        -11    1    4    4    0    0 -0.31044285864E-01  0.19935600819E-01 -0.60706968506E-01  0.71040643374E-01  0.51100000000E-03 0.  1.
         11    1    4    4    0    0 -0.21086435120E-01  0.30952258340E-03 -0.54672804345E-01  0.58601281609E-01  0.51100000000E-03 0. -1.
</event>
<event>
 8    1  0.1079508E+005  0.1043930E+01  0.7957747E-01            NaN
         13   -1    0    0    0    0  0.00000000000E+00  0.00000000000E+00  0.74505805969E-08  0.10566000000E+00  0.10566000000E+00 0.  1.
     999900   -1    0    0    0    0 -0.00000000000E+00 -0.00000000000E+00 -0.74505805969E-08  0.93827000000E+00  0.93827000000E+00 0. -1.
     999902    2    1    2    0    0 -0.17530225742E-01  0.13010785353E-01 -0.94376407002E-02  0.10201464256E+01  0.10198691442E+01 0.  0.
     999903    2    3    3    0    0 -0.12817020006E+00 -0.97018934166E-02  0.20701250809E-01  0.13241593581E+00  0.24160119053E-01 0.  0.
         14    1    1    2    0    0  0.17530225742E-01 -0.13010785353E-01  0.94376407002E-02  0.23783574418E-01  0.00000000000E+00 0.  1.
     999901    1    3    3    0    0  0.11063997431E+00  0.22712678770E-01 -0.30138891509E-01  0.88773048977E+00  0.88000000000E+00 0.  1.
        -11    1    4    4    0    0 -0.72516041938E-01 -0.15064332786E-02  0.23056919812E-01  0.76109975376E-01  0.51100000000E-03 0. -1.
         11    1    4    4    0    0 -0.55654158118E-01 -0.81954601380E-02 -0.23556690033E-02  0.56305960432E-01  0.51100000000E-03 0.  1.
</event>
<event>
 8    1  0.1079508E+005  0.1043930E+01  0.7957747E-01            NaN
         13   -1    0    0    0    0  0.00000000000E+00  0.00000000000E+00  0.74505805969E-08  0.10566000000E+00  0.10566000000E+00 0.  1.
     999900   -1    0    0    0    0 -0.00000000000E+00 -0.00000000000E+00 -0.74505805969E-08  0.93827000000E+00  0.93827000000E+00 0.  1.
     999902    2    1    2    0    0  0.45475341269E-02 -0.22945386791E-01 -0.13859268704E-02  0.10204972956E+01  0.10202282287E+01 0.  0.
     999903    2    3    3    0    0  0.54167266114E-01 -0.51898855141E-01  0.10631223033E+00  0.13207210788E+00  0.22653200174E-01 0.  0.
         14    1    1    2    0    0 -0.45475341269E-02  0.22945386791E-01  0.13859268704E-02  0.23432704388E-01  0.00000000000E+00 0.  1.
     999901    1    3    3    0    0 -0.49619731987E-01  0.28953468350E-01 -0.10769815720E+00  0.88842518773E+00  0.88000000000E+00 0.  1.
        -11    1    4    4    0    0  0.48200522421E-01 -0.53488184740E-01  0.95389150809E-01  0.11951413089E+00  0.51100000000E-03 0. -1.
         11    1    4    4    0    0  0.59667436934E-02  0.15893295990E-02  0.10923079524E-01  0.12557976994E-01  0.51100000000E-03 0.  1.
</event>
<event>
 8    1  0.1079508E+005  0.1043930E+01  0.7957747E-01            NaN
         13   -1    0    0    0    0  0.00000000000E+00  0.00000000000E+00  0.74505805969E-08  0.10566000000E+00  0.10566000000E+00 0.  1.
     999900   -1    0    0    0    0 -0.00000000000E+00 -0.00000000000E+00 -0.74505805969E-08  0.93827000000E+00  0.93827000000E+00 0. -1.
     999902    2    1    2    0    0 -0.11096598483E-01  0.16037146708E-01 -0.11403780978E-01  0.10213386124E+01  0.10210887280E+01 0.  0.
     999903    2    3    3    0    0 -0.36860500406E-01 -0.30070753657E-01  0.11977911099E+00  0.13004816129E+00  0.17393737682E-01 0.  0.
         14    1    1    2    0    0  0.11096598483E-01 -0.16037146708E-01  0.11403780978E-01  0.22591387585E-01  0.00000000000E+00 0.  1.
     999901    1    3    3    0    0  0.25763901923E-01  0.46107900365E-01 -0.13118289197E+00  0.89129045112E+00  0.88000000000E+00 0. -1.
        -11    1    4    4    0    0 -0.18088510831E-01 -0.93151754858E-02  0.70453536178E-01  0.73334361655E-01  0.51100000000E-03 0.  1.
         11    1    4    4    0    0 -0.18771989576E-01 -0.20755578172E-01  0.49325574811E-01  0.56713799637E-01  0.51100000000E-03 0. -1.
</event>
<event>
 8    1  0.1079508E+005  0.1043930E+01  0.7957747E-01            NaN
         13   -1    0    0    0    0  0.00000000000E+00  0.00000000000E+00  0.74505805969E-08  0.10566000000E+00  0.10566000000E+00 0.  1.
     999900   -1    0    0    0    0 -0.00000000000E+00 -0.00000000000E+00 -0.74505805969E-08  0.93827000000E+00  0.93827000000E+00 0.  1.
     999902    2    1    2    0    0  0.24814583354E-02  0.22213842514E-01 -0.32028470832E-03  0.10215756935E+01  0.10213310837E+01 0.  0.
     999903    2    3    3    0    0  0.92158520255E-01  0.17956831603E-01 -0.91006754355E-01  0.13237148002E+00  0.20599483674E-01 0.  0.
         14    1    1    2    0    0 -0.24814583354E-02 -0.22213842514E-01  0.32028470832E-03  0.22354306454E-01  0.00000000000E+00 0. -1.
     999901    1    3    3    0    0 -0.89677061920E-01  0.42570109117E-02  0.90686469646E-01  0.88920421353E+00  0.88000000000E+00 0. -1.
        -11    1    4    4    0    0  0.57870108049E-01  0.10648034554E-02 -0.55978551417E-01  0.80522931838E-01  0.51100000000E-03 0. -1.
         11    1    4    4    0    0  0.34288412207E-01  0.16892028147E-01 -0.35028202937E-01  0.51848548182E-01  0.51100000000E-03 0.  1.
</event>
<event>
 8    1  0.1079508E+005  0.1043930E+01  0.7957747E-01            NaN
         13   -1    0    0    0    0  0.00000000000E+00  0.00000000000E+00  0.74505805969E-08  0.10566000000E+00  0.10566000000E+00 0. -1.
     999900   -1    0    0    0    0 -0.00000000000E+00 -0.00000000000E+00 -0.74505805969E-08  0.93827000000E+00  0.93827000000E+00 0.  1.
     999902    2    1    2    0    0 -0.86594501491E-02 -0.21988474944E-01 -0.41713974674E-02  0.10199325071E+01  0.10196501554E+01 0.  0.
     999903    2    3    3    0    0 -0.75696273399E-01  0.93500356020E-03 -0.10547230506E+00  0.13129236882E+00  0.19557068721E-01 0.  0.
         14    1    1    2    0    0  0.86594501491E-02  0.21988474944E-01  0.41713974674E-02  0.23997492870E-01  0.00000000000E+00 0.  1.
     999901    1    3    3    0    0  0.67036823250E-01 -0.22923478504E-01  0.10130090759E+00  0.88864013831E+00  0.88000000000E+00 0. -1.
        -11    1    4    4    0    0 -0.53210239927E-01  0.53573874543E-02 -0.60046227378E-01  0.80410458131E-01  0.51100000000E-03 0.  1.
         11    1    4    4    0    0 -0.22486033472E-01 -0.44223838941E-02 -0.45426077683E-01  0.50881910688E-01  0.51100000000E-03 0. -1.
</event>
<event>
 8    1  0.1079508E+005  0.1043930E+01  0.7957747E-01            NaN
         13   -1    0    0    0    0  0.00000000000E+00  0.00000000000E+00  0.74505805969E-08  0.10566000000E+00  0.10566000000E+00 0. -1.
     999900   -1    0    0    0    0 -0.00000000000E+00 -0.00000000000E+00 -0.74505805969E-08  0.93827000000E+00  0.93827000000E+00 0.  1.
     999902    2    1    2    0    0 -0.16935046039E-01  0.23586778983E-02 -0.16073993472E-01  0.10204623113E+01  0.10201924311E+01 0.  0.
     999903    2    3    3    0    0  0.41463294760E-01 -0.11576193590E+00 -0.38564802495E-01  0.13036755114E+00  0.19708469859E-01 0.  0.
         14    1    1    2    0    0  0.16935046039E-01 -0.23586778983E-02  0.16073993472E-01  0.23467688679E-01  0.00000000000E+00 0. -1.
     999901    1    3    3    0    0 -0.58398340799E-01  0.11812061379E+00  0.22490809023E-01  0.89009476018E+00  0.88000000000E+00 0. -1.
        -11    1    4    4    0    0 -0.24684237931E-03 -0.68085237683E-02  0.15358333897E-02  0.70026303818E-02  0.51100000000E-03 0. -1.
         11    1    4    4    0    0  0.41710137139E-01 -0.10895341213E+00 -0.40100635885E-01  0.12336492076E+00  0.51100000000E-03 0.  1.
</event>
<event>
 8    1  0.1079508E+005  0.1043930E+01  0.7957747E-01            NaN
         13   -1    0    0    0    0  0.00000000000E+00  0.00000000000E+00  0.74505805969E-08  0.10566000000E+00  0.10566000000E+00 0. -1.
     999900   -1    0    0    0    0 -0.00000000000E+00 -0.00000000000E+00 -0.74505805969E-08  0.93827000000E+00  0.93827000000E+00 0.  1.
     999902    2    1    2    0    0 -0.86993355156E-02  0.14087254543E-01  0.17019063774E-01  0.10201859963E+01  0.10199096477E+01 0.  0.
     999903    2    3    3    0    0  0.10959391207E+00  0.30140455633E-01  0.62045933179E-01  0.13098499730E+00  0.19700230077E-01 0.  0.
         14    1    1    2    0    0  0.86993355156E-02 -0.14087254543E-01 -0.17019063774E-01  0.23744003679E-01  0.00000000000E+00 0.  1.
     999901    1    3    3    0    0 -0.11829324759E+00 -0.16053201090E-01 -0.45026869404E-01  0.88920099902E+00  0.88000000000E+00 0.  1.
        -11    1    4    4    0    0  0.41258627317E-01  0.15211532047E-01  0.14100769766E-01  0.46181791480E-01  0.51100000000E-03 0. -1.
         11    1    4    4    0    0  0.68335284754E-01  0.14928923586E-01  0.47945163412E-01  0.84803205821E-01  0.51100000000E-03 0.  1.
</event>
<event>
 8    1  0.1079508E+005  0.1043930E+01  0.7957747E-01            NaN
         13   -1    0    0    0    0  0.00000000000E+00  0.00000000000E+00  0.74505805969E-08  0.10566000000E+00  0.10566000000E+00 0. -1.
     999900   -1    0    0    0    0 -0.00000000000E+00 -0.00000000000E+00 -0.74505805969E-08  0.93827000000E+00  0.93827000000E+00 0.  1.
     999902    2    1    2    0    0 -0.12519232103E-01 -0.17339087796E-01 -0.20186564207E-01  0.10145212851E+01  0.10140949489E+01 0.  0.
     999903    2    3    3    0    0  0.11303581391E+00 -0.26167546774E-01 -0.42934451535E-01  0.12527470644E+00  0.19711651775E-01 0.  0.
         14    1    1    2    0    0  0.12519232103E-01  0.17339087796E-01  0.20186564207E-01  0.29408714908E-01  0.00000000000E+00 0. -1.
     999901    1    3    3    0    0 -0.12555504601E+00  0.88284589780E-02  0.22747887328E-01  0.88924657865E+00  0.88000000000E+00 0. -1.
        -11    1    4    4    0    0  0.16171505450E-01 -0.10998728727E-01 -0.54673429561E-02  0.20313605837E-01  0.51100000000E-03 0. -1.
         11    1    4    4    0    0  0.96864308455E-01 -0.15168818047E-01 -0.37467108579E-01  0.10496110060E+00  0.51100000000E-03 0.  1.
</event>
<event>
 7    1  0.1079508E+005  0.1043930E+01  0.7957747E-01            NaN
         13   -1    0    0    0    0  0.00000000000E+00  0.00000000000E+00  0.74505805969E-08  0.10566000000E+00  0.10566000000E+00 0. -1.
     999900   -1    0    0    0    0 -0.00000000000E+00 -0.00000000000E+00 -0.74505805969E-08  0.93827000000E+00  0.93827000000E+00 0. -1.
     999902    2    1    2    0    0 -0.27617945330E-02 -0.20911387556E-01 -0.10483084529E-01  0.10203756225E+01  0.10201037213E+01 0.  0.
         14    1    1    2    0    0  0.27617945330E-02  0.20911387556E-01  0.10483084529E-01  0.23554377508E-01  0.00000000000E+00 0. -1.
     999901    1    3    3    0    0 -0.66523705936E-01  0.86439399738E-01  0.34940988809E-02  0.88674087647E+00  0.88000000000E+00 0. -1.
        -11    1    3    3    0    0  0.68942619431E-01 -0.83544825497E-01 -0.14333698834E-01  0.10926362013E+00  0.51100000000E-03 0.  1.
         11    1    3    3    0    0 -0.51807080281E-02 -0.23805961797E-01  0.35651542409E-03  0.24371125887E-01  0.51100000000E-03 0. -1.
</event>
<event>
 8    1  0.1079508E+005  0.1043930E+01  0.7957747E-01            NaN
         13   -1    0    0    0    0  0.00000000000E+00  0.00000000000E+00  0.74505805969E-08  0.10566000000E+00  0.10566000000E+00 0.  1.
     999900   -1    0    0    0    0 -0.00000000000E+00 -0.00000000000E+00 -0.74505805969E-08  0.93827000000E+00  0.93827000000E+00 0. -1.
     999902    2    1    2    0    0  0.11438489424E-01 -0.18729228852E-01  0.91054285416E-02  0.10201701203E+01  0.10198933976E+01 0.  0.
     999903    2    3    3    0    0  0.12576485638E+00 -0.38618806304E-01  0.94724501961E-03  0.13251440472E+00  0.15841681850E-01 0.  0.
         14    1    1    2    0    0 -0.11438489424E-01  0.18729228852E-01 -0.91054285416E-02  0.23759879684E-01  0.00000000000E+00 0. -1.
     999901    1    3    3    0    0 -0.11432636696E+00  0.19889577453E-01  0.81581835220E-02  0.88765571560E+00  0.88000000000E+00 0. -1.
        -11    1    4    4    0    0  0.92642814178E-01 -0.21031749321E-01  0.19417098472E-03  0.95001706941E-01  0.51100000000E-03 0.  1.
         11    1    4    4    0    0  0.33122042204E-01 -0.17587056984E-01  0.75307403490E-03  0.37512697778E-01  0.51100000000E-03 0. -1.
</event>
<event>
 8    1  0.1079508E+005  0.1043930E+01  0.7957747E-01            NaN
         13   -1    0    0    0    0  0.00000000000E+00  0.00000000000E+00  0.74505805969E-08  0.10566000000E+00  0.10566000000E+00 0. -1.
     999900   -1    0    0    0    0 -0.00000000000E+00 -0.00000000000E+00 -0.74505805969E-08  0.93827000000E+00  0.93827000000E+00 0. -1.
     999902    2    1    2    0    0  0.23284492523E-01  0.12667434698E-02  0.53921977393E-02  0.10199957562E+01  0.10197149085E+01 0.  0.
     999903    2    3    3    0    0  0.12041023913E+00 -0.16907549030E-01  0.50947649975E-01  0.13329455803E+00  0.19679564548E-01 0.  0.
         14    1    1    2    0    0 -0.23284492523E-01 -0.12667434698E-02 -0.53921977393E-02  0.23934243826E-01  0.00000000000E+00 0.  1.
     999901    1    3    3    0    0 -0.97125746607E-01  0.18174292500E-01 -0.45555452236E-01  0.88670119814E+00  0.88000000000E+00 0. -1.
        -11    1    4    4    0    0  0.49640242325E-01 -0.28170613784E-02  0.11422054818E-01  0.51017780725E-01  0.51100000000E-03 0.  1.
         11    1    4    4    0    0  0.70769996805E-01 -0.14090487651E-01  0.39525595157E-01  0.82276777304E-01  0.51100000000E-03 0. -1.
</event>
<event>
 7    1  0.1079508E+005  0.1043930E+01  0.7957747E-01            NaN
         13   -1    0    0    0    0  0.00000000000E+00  0.00000000000E+00  0.74505805969E-08  0.10566000000E+00  0.10566000000E+00 0. -1.
     999900   -1    0    0    0    0 -0.00000000000E+00 -0.00000000000E+00 -0.74505805969E-08  0.93827000000E+00  0.93827000000E+00 0.  1.
     999903    2    1    2    0    0  0.28963481413E-01  0.85606806555E-01 -0.48559333601E-02  0.92620274610E-01  0.19685695209E-01 0.  0.
         14    1    1    2    0    0 -0.12160331499E-01 -0.39474075068E-01 -0.53991101982E-01  0.67978786087E-01  0.00000000000E+00 0. -1.
     999901    1    1    2    0    0 -0.16803149915E-01 -0.46132731487E-01  0.58847035342E-01  0.88333093930E+00  0.88000000000E+00 0. -1.
        -11    1    3    3    0    0  0.13702361949E-01  0.15297824650E-01 -0.87526234247E-03  0.20562231571E-01  0.51100000000E-03 0.  1.
         11    1    3    3    0    0  0.15261119464E-01  0.70308981906E-01 -0.39806710176E-02  0.72058043039E-01  0.51100000000E-03 0. -1.
</event>
<event>
 8    1  0.1079508E+005  0.1043930E+01  0.7957747E-01            NaN
         13   -1    0    0    0    0  0.00000000000E+00  0.00000000000E+00  0.74505805969E-08  0.10566000000E+00  0.10566000000E+00 0.  1.
     999900   -1    0    0    0    0 -0.00000000000E+00 -0.00000000000E+00 -0.74505805969E-08  0.93827000000E+00  0.93827000000E+00 0. -1.
     999902    2    1    2    0    0 -0.17668897702E-01  0.15092337797E-01  0.41030674227E-02  0.10203333102E+01  0.10200604199E+01 0.  0.
     999903    2    3    3    0    0  0.64824556822E-01  0.11113835587E+00  0.15433850341E-01  0.13119980266E+00  0.20523819548E-01 0.  0.
         14    1    1    2    0    0  0.17668897702E-01 -0.15092337797E-01 -0.41030674227E-02  0.23596689777E-01  0.00000000000E+00 0.  1.
     999901    1    3    3    0    0 -0.82493454523E-01 -0.96046018076E-01 -0.11330782918E-01  0.88913350756E+00  0.88000000000E+00 0.  1.
        -11    1    4    4    0    0  0.31004605846E-01  0.72979849674E-01  0.89558364412E-02  0.79798572477E-01  0.51100000000E-03 0.  1.
         11    1    4    4    0    0  0.33819950976E-01  0.38158506198E-01  0.64780138993E-02  0.51401230184E-01  0.51100000000E-03 0. -1.
</event>
<event>
 8    1  0.1079508E+005  0.1043930E+01  0.7957747E-01            NaN
         13   -1    0    0    0    0  0.00000000000E+00  0.00000000000E+00  0.74505805969E-08  0.10566000000E+00  0.10566000000E+00 0. -1.
     999900   -1    0    0    0    0 -0.00000000000E+00 -0.00000000000E+00 -0.74505805969E-08  0.93827000000E+00  0.93827000000E+00 0. -1.
     999902    2    1    2    0    0 -0.69864502917E-02  0.98153700771E-02  0.19794149006E-01  0.10207575959E+01  0.10204945415E+01 0.  0.
     999903    2    3    3    0    0 -0.12306199465E+00  0.44290935400E-01 -0.40496250165E-04  0.13224450665E+00  0.19561861182E-01 0.  0.
         14    1    1    2    0    0  0.69864502917E-02 -0.98153700771E-02 -0.19794149006E-01  0.23172404112E-01  0.00000000000E+00 0.  1.
     999901    1    3    3    0    0  0.11607554436E+00 -0.34475565323E-01  0.19834645256E-01  0.88851308924E+00  0.88000000000E+00 0. -1.
        -11    1    4    4    0    0 -0.70457372711E-01  0.31133972117E-01  0.79139101895E-02  0.77436791544E-01  0.51100000000E-03 0. -1.
         11    1    4    4    0    0 -0.52604621937E-01  0.13156963283E-01 -0.79544064397E-02  0.54807715103E-01  0.51100000000E-03 0.  1.
</event>
<event>
 8    1  0.1079508E+005  0.1043930E+01  0.7957747E-01            NaN
         13   -1    0    0    0    0  0.00000000000E+00  0.00000000000E+00  0.74505805969E-08  0.10566000000E+00  0.10566000000E+00 0. -1.
     999900   -1    0    0    0    0 -0.00000000000E+00 -0.00000000000E+00 -0.74505805969E-08  0.93827000000E+00  0.93827000000E+00 0.  1.
     999902    2    1    2    0    0 -0.36950775947E-02  0.21464805228E-01  0.25343806358E-03  0.10221479961E+01  0.10219158822E+01 0.  0.
     999903    2    3    3    0    0 -0.84008733935E-01  0.10212561251E+00  0.14763282713E-01  0.13469828779E+00  0.20941970086E-01 0.  0.
         14    1    1    2    0    0  0.36950775947E-02 -0.21464805228E-01 -0.25343806358E-03  0.21782003874E-01  0.00000000000E+00 0.  1.
     999901    1    3    3    0    0  0.80313656340E-01 -0.80660807279E-01 -0.14509844650E-01  0.88744970833E+00  0.88000000000E+00 0.  1.
        -11    1    4    4    0    0 -0.33797653468E-01  0.47085079772E-01 -0.32320953768E-02  0.58051646649E-01  0.51100000000E-03 0. -1.
         11    1    4    4    0    0 -0.50211080466E-01  0.55040532735E-01  0.17995378090E-01  0.76646641146E-01  0.51100000000E-03 0.  1.
</event>
<event>
 8    1  0.1079508E+005  0.1043930E+01  0.7957747E-01            NaN
         13   -1    0    0    0    0  0.00000000000E+00  0.00000000000E+00  0.74505805969E-08  0.10566000000E+00  0.10566000000E+00 0. -1.
     999900   -1    0    0    0    0 -0.00000000000E+00 -0.00000000000E+00 -0.74505805969E-08  0.93827000000E+00  0.93827000000E+00 0. -1.
     999902    2    1    2    0    0  0.25721246122E-02 -0.11791259707E-01 -0.17674523586E-01  0.10225281680E+01  0.10223041699E+01 0.  0.
     999903    2    3    3    0    0 -0.20115307572E-01  0.66915631818E-01 -0.11218250939E+00  0.13368551950E+00  0.20114057998E-01 0.  0.
         14    1    1    2    0    0 -0.25721246122E-02  0.11791259707E-01  0.17674523586E-01  0.21401832035E-01  0.00000000000E+00 0. -1.
     999901    1    3    3    0    0  0.22687432184E-01 -0.78706891524E-01  0.94507985808E-01  0.88884264847E+00  0.88000000000E+00 0. -1.
        -11    1    4    4    0    0 -0.11176905049E-01  0.46152646558E-01 -0.57915164361E-01  0.74896043786E-01  0.51100000000E-03 0. -1.
         11    1    4    4    0    0 -0.89384025228E-02  0.20762985259E-01 -0.54267345032E-01  0.58789475711E-01  0.51100000000E-03 0.  1.
</event>
<event>
 8    1  0.1079508E+005  0.1043930E+01  0.7957747E-01            NaN
         13   -1    0    0    0    0  0.00000000000E+00  0.00000000000E+00  0.74505805969E-08  0.10566000000E+00  0.10566000000E+00 0. -1.
     999900   -1    0    0    0    0 -0.00000000000E+00 -0.00000000000E+00 -0.74505805969E-08  0.93827000000E+00  0.93827000000E+00 0. -1.
     999902    2    1    2    0    0  0.34179971595E-02  0.13404092833E-01 -0.19162065297E-01  0.10202966093E+01  0.10200228595E+01 0.  0.
     999903    2    3    3    0    0  0.12645998629E+00  0.11628498891E-01  0.24226004010E-01  0.13067589890E+00  0.19024751350E-01 0.  0.
         14    1    1    2    0    0 -0.34179971595E-02 -0.13404092833E-01  0.19162065297E-01  0.23633390695E-01  0.00000000000E+00 0. -1.
     999901    1    3    3    0    0 -0.12304198913E+00  0.17755939426E-02 -0.43388069307E-01  0.88962071041E+00  0.88000000000E+00 0. -1.
        -11    1    4    4    0    0  0.87463238025E-01  0.56323210038E-02  0.79953978344E-02  0.88009820777E-01  0.51100000000E-03 0. -1.
         11    1    4    4    0    0  0.38996748266E-01  0.59961778867E-02  0.16230606176E-01  0.42666078123E-01  0.51100000000E-03 0.  1.
</event>
<event>
 7    1  0.1079508E+005  0.1043930E+01  0.7957747E-01            NaN
         13   -1    0    0    0    0  0.00000000000E+00  0.00000000000E+00  0.74505805969E-08  0.10566000000E+00  0.10566000000E+00 0.  1.
     999900   -1    0    0    0    0 -0.00000000000E+00 -0.00000000000E+00 -0.74505805969E-08  0.93827000000E+00  0.93827000000E+00 0. -1.
     999903    2    1    2    0    0 -0.21451939279E-01 -0.57705752109E-01 -0.67562028337E-01  0.93635944945E-01  0.20320506575E-01 0.  0.
         14    1    1    2    0    0  0.46154859147E-01  0.47331874756E-01 -0.82742957178E-02  0.66626131213E-01  0.00000000000E+00 0.  1.
     999901    1    1    2    0    0 -0.24702919868E-01  0.10373877353E-01  0.75836324055E-01  0.88366792384E+00  0.88000000000E+00 0.  1.
        -11    1    3    3    0    0 -0.87111390543E-02 -0.48049835790E-01 -0.50704121143E-01  0.70397724998E-01  0.51100000000E-03 0.  1.
         11    1    3    3    0    0 -0.12740800225E-01 -0.96559163188E-02 -0.16857907194E-01  0.23238219947E-01  0.51100000000E-03 0. -1.
</event>
<event>
 8    1  0.1079508E+005  0.1043930E+01  0.7957747E-01            NaN
         13   -1    0    0    0    0  0.00000000000E+00  0.00000000000E+00  0.74505805969E-08  0.10566000000E+00  0.10566000000E+00 0.  1.
     999900   -1    0    0    0    0 -0.00000000000E+00 -0.00000000000E+00 -0.74505805969E-08  0.93827000000E+00  0.93827000000E+00 0. -1.
     999902    2    1    2    0    0  0.10466682763E-01  0.19785000509E-01 -0.82742916973E-02  0.10200666055E+01  0.10197874377E+01 0.  0.
     999903    2    3    3    0    0 -0.67764978945E-01 -0.57116733856E-01 -0.91952740683E-01  0.12931627435E+00  0.20321875792E-01 0.  0.
         14    1    1    2    0    0 -0.10466682763E-01 -0.19785000509E-01  0.82742916973E-02  0.23863394484E-01  0.00000000000E+00 0. -1.
     999901    1    3    3    0    0  0.78231661708E-01  0.76901734365E-01  0.83678448986E-01  0.89075033116E+00  0.88000000000E+00 0. -1.
        -11    1    4    4    0    0 -0.43343512284E-01 -0.38558226958E-01 -0.73044752494E-01  0.93280190347E-01  0.51100000000E-03 0.  1.
         11    1    4    4    0    0 -0.24421466661E-01 -0.18558506898E-01 -0.18907988189E-01  0.36036084006E-01  0.51100000000E-03 0. -1.
</event>
<event>
 8    1  0.1079508E+005  0.1043930E+01  0.7957747E-01            NaN
         13   -1    0    0    0    0  0.00000000000E+00  0.00000000000E+00  0.74505805969E-08  0.10566000000E+00  0.10566000000E+00 0.  1.
     999900   -1    0    0    0    0 -0.00000000000E+00 -0.00000000000E+00 -0.74505805969E-08  0.93827000000E+00  0.93827000000E+00 0. -1.
     999902    2    1    2    0    0 -0.10432795518E-01  0.80060838771E-02  0.25698444686E-01  0.10150621864E+01  0.10146516110E+01 0.  0.
     999903    2    3    3    0    0 -0.84906548476E-02 -0.74947189102E-01 -0.95032097505E-01  0.12295183382E+00  0.19921885182E-01 0.  0.
         14    1    1    2    0    0  0.10432795518E-01 -0.80060838771E-02 -0.25698444686E-01  0.28867813575E-01  0.00000000000E+00 0. -1.
     999901    1    3    3    0    0 -0.19421406701E-02  0.82953272979E-01  0.12073054219E+00  0.89211035261E+00  0.88000000000E+00 0.  1.
        -11    1    4    4    0    0  0.38670265322E-02 -0.19630016521E-01 -0.15632660484E-01  0.25395523968E-01  0.51100000000E-03 0.  1.
         11    1    4    4    0    0 -0.12357681380E-01 -0.55317172581E-01 -0.79399437021E-01  0.97556309851E-01  0.51100000000E-03 0. -1.
</event>
<event>
 8    1  0.1079508E+005  0.1043930E+01  0.7957747E-01            NaN
         13   -1    0    0    0    0  0.00000000000E+00  0.00000000000E+00  0.74505805969E-08  0.10566000000E+00  0.10566000000E+00 0. -1.
     999900   -1    0    0    0    0 -0.00000000000E+00 -0.00000000000E+00 -0.74505805969E-08  0.93827000000E+00  0.93827000000E+00 0. -1.
     999902    2    1    2    0    0  0.12496348643E-01  0.86446431236E-02  0.18073556490E-01  0.10203176721E+01  0.10200444157E+01 0.  0.
     999903    2    3    3    0    0 -0.41564905560E-02 -0.12765915507E+00  0.12204803567E-01  0.12964911158E+00  0.18595661257E-01 0.  0.
         14    1    1    2    0    0 -0.12496348643E-01 -0.86446431236E-02 -0.18073556490E-01  0.23612327889E-01  0.00000000000E+00 0.  1.
     999901    1    3    3    0    0  0.16652839199E-01  0.13630379819E+00  0.58687529227E-02  0.89066856053E+00  0.88000000000E+00 0.  1.
        -11    1    4    4    0    0 -0.35897564989E-03 -0.12308241157E+00  0.11154249560E-01  0.12358837852E+00  0.51100000000E-03 0.  1.
         11    1    4    4    0    0 -0.37975149061E-02 -0.45767434972E-02  0.10505540069E-02  0.60607330599E-02  0.51100000000E-03 0. -1.
</event>
<event>
 8    1  0.1079508E+005  0.1043930E+01  0.7957747E-01            NaN
         13   -1    0    0    0    0  0.00000000000E+00  0.00000000000E+00  0.74505805969E-08  0.10566000000E+00  0.10566000000E+00 0.  1.
     999900   -1    0    0    0    0 -0.00000000000E+00 -0.00000000000E+00 -0.74505805969E-08  0.93827000000E+00  0.93827000000E+00 0. -1.
     999902    2    1    2    0    0  0.15080540709E-01 -0.16002442331E-01 -0.71964294305E-02  0.10207936765E+01  0.10205314500E+01 0.  0.
     999903    2    3    3    0    0 -0.14007729289E-01  0.95014484377E-01  0.83609657855E-01  0.12870812513E+00  0.18741341125E-01 0.  0.
         14    1    1    2    0    0 -0.15080540709E-01  0.16002442331E-01  0.71964294305E-02  0.23136323502E-01  0.00000000000E+00 0.  1.
     999901    1    3    3    0    0  0.29088269998E-01 -0.11101692671E+00 -0.90806087286E-01  0.89208555137E+00  0.88000000000E+00 0. -1.
        -11    1    4    4    0    0 -0.75222092100E-02  0.34506215683E-01  0.42529512745E-01  0.55283660583E-01  0.51100000000E-03 0.  1.
         11    1    4    4    0    0 -0.64855200790E-02  0.60508268694E-01  0.41080145110E-01  0.73424464549E-01  0.51100000000E-03 0. -1.
</event>
<event>
 8    1  0.1079508E+005  0.1043930E+01  0.7957747E-01            NaN
         13   -1    0    0    0    0  0.00000000000E+00  0.00000000000E+00  0.74505805969E-08  0.10566000000E+00  0.10566000000E+00 0.  1.
     999900   -1    0    0    0    0 -0.00000000000E+00 -0.00000000000E+00 -0.74505805969E-08  0.93827000000E+00  0.93827000000E+00 0. -1.
     999902    2    1    2    0    0  0.36735172858E-02 -0.10734750060E-02 -0.23473997891E-01  0.10201460631E+01  0.10198687731E+01 0.  0.
     999903    2    3    3    0    0 -0.77713162988E-01 -0.64148538350E-01 -0.82940801900E-01  0.13214912834E+00  0.20732699496E-01 0.  0.
         14    1    1    2    0    0 -0.36735172858E-02  0.10734750060E-02  0.23473997891E-01  0.23783936908E-01  0.00000000000E+00 0.  1.
     999901    1    3    3    0    0  0.81386680274E-01  0.63075063344E-01  0.59466804009E-01  0.88799693475E+00  0.88000000000E+00 0.  1.
        -11    1    4    4    0    0 -0.32097891989E-01 -0.16693457355E-01 -0.21406309026E-01  0.42040901224E-01  0.51100000000E-03 0.  1.
         11    1    4    4    0    0 -0.45615270998E-01 -0.47455080995E-01 -0.61534492875E-01  0.90108227121E-01  0.51100000000E-03 0. -1.
</event>
<event>
 8    1  0.1079508E+005  0.1043930E+01  0.7957747E-01            NaN
         13   -1    0    0    0    0  0.00000000000E+00  0.00000000000E+00  0.74505805969E-08  0.10566000000E+00  0.10566000000E+00 0.  1.
     999900   -1    0    0    0    0 -0.00000000000E+00 -0.00000000000E+00 -0.74505805969E-08  0.93827000000E+00  0.93827000000E+00 0.  1.
     999902    2    1    2    0    0  0.17987236159E-01  0.69328911177E-02 -0.71665569975E-02  0.10233638826E+01  0.10231572074E+01 0.  0.
     999903    2    3    3    0    0 -0.40035946839E-01 -0.41633780697E-02 -0.12569403430E+00  0.13345457275E+00  0.19771746854E-01 0.  0.
         14    1    1    2    0    0 -0.17987236159E-01 -0.69328911177E-02  0.71665569975E-02  0.20566117356E-01  0.00000000000E+00 0.  1.
     999901    1    3    3    0    0  0.58023182999E-01  0.11096269187E-01  0.11852747730E+00  0.88990930989E+00  0.88000000000E+00 0. -1.
        -11    1    4    4    0    0 -0.22110642772E-01 -0.59061338682E-02 -0.96256224881E-01  0.98940815088E-01  0.51100000000E-03 0. -1.
         11    1    4    4    0    0 -0.17925304068E-01  0.17427557986E-02 -0.29437809420E-01  0.34513757664E-01  0.51100000000E-03 0.  1.
</event>
<event>
 8    1  0.1079508E+005  0.1043930E+01  0.7957747E-01            NaN
         13   -1    0    0    0    0  0.00000000000E+00  0.00000000000E+00  0.74505805969E-08  0.10566000000E+00  0.10566000000E+00 0.  1.
     999900   -1    0    0    0    0 -0.00000000000E+00 -0.00000000000E+00 -0.74505805969E-08  0.93827000000E+00  0.93827000000E+00 0.  1.
     999902    2    1    2    0    0  0.62738679132E-02  0.91319363318E-02  0.21113861240E-01  0.10200857383E+01  0.10198070232E+01 0.  0.
     999903    2    3    3    0    0  0.11615813151E+00 -0.96399998929E-02  0.59441681688E-01  0.13222541212E+00  0.19094632071E-01 0.  0.
         14    1    1    2    0    0 -0.62738679132E-02 -0.91319363318E-02 -0.21113861240E-01  0.23844261705E-01  0.00000000000E+00 0. -1.
     999901    1    3    3    0    0 -0.10988426360E+00  0.18771936225E-01 -0.38327820447E-01  0.88786032618E+00  0.88000000000E+00 0.  1.
        -11    1    4    4    0    0  0.69894958907E-01 -0.50159091785E-02  0.25156484208E-01  0.74455184132E-01  0.51100000000E-03 0. -1.
         11    1    4    4    0    0  0.46263172606E-01 -0.46240907145E-02  0.34285197480E-01  0.57770227988E-01  0.51100000000E-03 0.  1.
</event>
<event>
 8    1  0.1079508E+005  0.1043930E+01  0.7957747E-01            NaN
         13   -1    0    0    0    0  0.00000000000E+00  0.00000000000E+00  0.74505805969E-08  0.10566000000E+00  0.10566000000E+00 0. -1.
     999900   -1    0    0    0    0 -0.00000000000E+00 -0.00000000000E+00 -0.74505805969E-08  0.93827000000E+00  0.93827000000E+00 0. -1.
     999902    2    1    2    0    0  0.13436359675E-01  0.12438896076E-01 -0.13657755610E-01  0.10210871415E+01  0.10208315994E+01 0.  0.
     999903    2    3    3    0    0 -0.10215082774E+00  0.38605433444E-01  0.66867106290E-01  0.12949904210E+00  0.19329275781E-01 0.  0.
         14    1    1    2    0    0 -0.13436359675E-01 -0.12438896076E-01  0.13657755610E-01  0.22842858517E-01  0.00000000000E+00 0. -1.
     999901    1    3    3    0    0  0.11558718742E+00 -0.26166537368E-01 -0.80524861901E-01  0.89158809938E+00  0.88000000000E+00 0. -1.
        -11    1    4    4    0    0 -0.96373249011E-01  0.40367863951E-01  0.65382665089E-01  0.12325794733E+00  0.51100000000E-03 0.  1.
         11    1    4    4    0    0 -0.57775787307E-02 -0.17624305073E-02  0.14844412014E-02  0.62410947728E-02  0.51100000000E-03 0. -1.
</event>
<event>
 7    1  0.1079508E+005  0.1043930E+01  0.7957747E-01            NaN
         13   -1    0    0    0    0  0.00000000000E+00  0.00000000000E+00  0.74505805969E-08  0.10566000000E+00  0.10566000000E+00 0. -1.
     999900   -1    0    0    0    0 -0.00000000000E+00 -0.00000000000E+00 -0.74505805969E-08  0.93827000000E+00  0.93827000000E+00 0.  1.
     999903    2    1    2    0    0 -0.28515139235E-01  0.48321213991E-01 -0.64933148613E-01  0.88244152716E-01  0.20558789180E-01 0.  0.
         14    1    1    2    0    0 -0.45311038307E-02  0.16089860014E-01  0.70746030596E-01  0.72693984223E-01  0.00000000000E+00 0. -1.
     999901    1    1    2    0    0  0.33046243066E-01 -0.64411074006E-01 -0.58128819829E-02  0.88299186306E+00  0.88000000000E+00 0.  1.
        -11    1    3    3    0    0 -0.30620288576E-02 -0.31181428539E-03 -0.10437540413E-01  0.10893879922E-01  0.51100000000E-03 0.  1.
         11    1    3    3    0    0 -0.25453110377E-01  0.48633028277E-01 -0.54495608200E-01  0.77350272794E-01  0.51100000000E-03 0. -1.
</event>
<event>
 8    1  0.1079508E+005  0.1043930E+01  0.7957747E-01            NaN
         13   -1    0    0    0    0  0.00000000000E+00  0.00000000000E+00  0.74505805969E-08  0.10566000000E+00  0.10566000000E+00 0.  1.
     999900   -1    0    0    0    0 -0.00000000000E+00 -0.00000000000E+00 -0.74505805969E-08  0.93827000000E+00  0.93827000000E+00 0. -1.
     999902    2    1    2    0    0 -0.14514973505E-01 -0.18298397330E-01  0.26981637229E-02  0.10204183882E+01  0.10201474850E+01 0.  0.
     999903    2    3    3    0    0  0.69127432381E-01  0.96565516482E-02  0.10750116361E+00  0.12982240799E+00  0.20627809870E-01 0.  0.
         14    1    1    2    0    0  0.14514973505E-01  0.18298397330E-01 -0.26981637229E-02  0.23511611773E-01  0.00000000000E+00 0. -1.
     999901    1    3    3    0    0 -0.83642405886E-01 -0.27954948978E-01 -0.10480299989E+00  0.89059598024E+00  0.88000000000E+00 0.  1.
        -11    1    4    4    0    0  0.11795500626E-01  0.66857154226E-02  0.10711327804E-01  0.17286592783E-01  0.51100000000E-03 0. -1.
         11    1    4    4    0    0  0.57331931756E-01  0.29708362256E-02  0.96789835809E-01  0.11253581520E+00  0.51100000000E-03 0.  1.
</event>
<event>
 8    1  0.1079508E+005  0.1043930E+01  0.7957747E-01            NaN
         13   -1    0    0    0    0  0.00000000000E+00  0.00000000000E+00  0.74505805969E-08  0.10566000000E+00  0.10566000000E+00 0. -1.
     999900   -1    0    0    0    0 -0.00000000000E+00 -0.00000000000E+00 -0.74505805969E-08  0.93827000000E+00  0.93827000000E+00 0. -1.
     999902    2    1    2    0    0 -0.14158661186E-01 -0.18080525802E-01 -0.61542189804E-02  0.10201550655E+01  0.10198779879E+01 0.  0.
     999903    2    3    3    0    0  0.73570354177E-01  0.55342534832E-01  0.86568849553E-01  0.12791916988E+00  0.19843264213E-01 0.  0.
         14    1    1    2    0    0  0.14158661186E-01  0.18080525802E-01  0.61542189804E-02  0.23774934513E-01  0.00000000000E+00 0. -1.
     999901    1    3    3    0    0 -0.87729015363E-01 -0.73423060634E-01 -0.92723068534E-01  0.89223589561E+00  0.88000000000E+00 0. -1.
        -11    1    4    4    0    0  0.16724515704E-01  0.34605289492E-02  0.13250349315E-01  0.21622154474E-01  0.51100000000E-03 0.  1.
         11    1    4    4    0    0  0.56845838473E-01  0.51882005883E-01  0.73318500238E-01  0.10629701541E+00  0.51100000000E-03 0. -1.
</event>
<event>
 8    1  0.1079508E+005  0.1043930E+01  0.7957747E-01            NaN
         13   -1    0    0    0    0  0.00000000000E+00  0.00000000000E+00  0.74505805969E-08  0.10566000000E+00  0.10566000000E+00 0.  1.
     999900   -1    0    0    0    0 -0.00000000000E+00 -0.00000000000E+00 -0.74505805969E-08  0.93827000000E+00  0.93827000000E+00 0.  1.
     999902    2    1    2    0    0  0.18538826336E-02  0.21143559177E-01  0.39402474248E-02  0.10223426767E+01  0.10221147373E+01 0.  0.
     999903    2    3    3    0    0  0.16866054320E-01 -0.12201203326E+00 -0.35758366324E-01  0.12976502249E+00  0.19720554047E-01 0.  0.
         14    1    1    2    0    0 -0.18538826336E-02 -0.21143559177E-01 -0.39402474248E-02  0.21587323253E-01  0.00000000000E+00 0. -1.
     999901    1    3    3    0    0 -0.15012171687E-01  0.14315559243E+00  0.39698613749E-01  0.89257765426E+00  0.88000000000E+00 0.  1.
        -11    1    4    4    0    0  0.15486418167E-02 -0.69996377317E-01 -0.14381730644E-01  0.71477174163E-01  0.51100000000E-03 0.  1.
         11    1    4    4    0    0  0.15317412504E-01 -0.52015655940E-01 -0.21376635680E-01  0.58287848328E-01  0.51100000000E-03 0. -1.
</event>
<event>
 8    1  0.1079508E+005  0.1043930E+01  0.7957747E-01            NaN
         13   -1    0    0    0    0  0.00000000000E+00  0.00000000000E+00  0.74505805969E-08  0.10566000000E+00  0.10566000000E+00 0. -1.
     999900   -1    0    0    0    0 -0.00000000000E+00 -0.00000000000E+00 -0.74505805969E-08  0.93827000000E+00  0.93827000000E+00 0. -1.
     999902    2    1    2    0    0 -0.16259266870E-01  0.17239639233E-01 -0.43781334194E-02  0.10198315151E+01  0.10195467534E+01 0.  0.
     999903    2    3    3    0    0  0.66667083205E-01 -0.10128390807E+00 -0.33648377912E-01  0.12754156338E+00  0.20777560913E-01 0.  0.
         14    1    1    2    0    0  0.16259266870E-01 -0.17239639233E-01  0.43781334194E-02  0.24098484854E-01  0.00000000000E+00 0.  1.
     999901    1    3    3    0    0 -0.82926350075E-01  0.11852354730E+00  0.29270244493E-01  0.89228995176E+00  0.88000000000E+00 0. -1.
        -11    1    4    4    0    0  0.52556696216E-01 -0.87490203942E-01 -0.21313414300E-01  0.10426535788E+00  0.51100000000E-03 0.  1.
         11    1    4    4    0    0  0.14110386989E-01 -0.13793704127E-01 -0.12334963612E-01  0.23276205507E-01  0.51100000000E-03 0. -1.
</event>
<event>
 8    1  0.1079508E+005  0.1043930E+01  0.7957747E-01            NaN
         13   -1    0    0    0    0  0.00000000000E+00  0.00000000000E+00  0.74505805969E-08  0.10566000000E+00  0.10566000000E+00 0. -1.
     999900   -1    0    0    0    0 -0.00000000000E+00 -0.00000000000E+00 -0.74505805969E-08  0.93827000000E+00  0.93827000000E+00 0. -1.
     999902    2    1    2    0    0 -0.21424000403E-01 -0.69798203390E-02  0.60715939857E-02  0.10205939777E+01  0.10203271521E+01 0.  0.
     999903    2    3    3    0    0  0.31452214695E-01 -0.11734605789E+00  0.45121591541E-01  0.13126754556E+00  0.20877532997E-01 0.  0.
         14    1    1    2    0    0  0.21424000403E-01  0.69798203390E-02 -0.60715939857E-02  0.23336022342E-01  0.00000000000E+00 0.  1.
     999901    1    3    3    0    0 -0.52876215098E-01  0.11036623755E+00 -0.39049997555E-01  0.88932643209E+00  0.88000000000E+00 0. -1.
        -11    1    4    4    0    0  0.14451452393E-01 -0.34983045977E-01  0.53270171702E-02  0.38226904335E-01  0.51100000000E-03 0.  1.
         11    1    4    4    0    0  0.17000762302E-01 -0.82363011910E-01  0.39794574371E-01  0.93040641228E-01  0.51100000000E-03 0. -1.
</event>
<event>
 8    1  0.1079508E+005  0.1043930E+01  0.7957747E-01            NaN
         13   -1    0    0    0    0  0.00000000000E+00  0.00000000000E+00  0.74505805969E-08  0.10566000000E+00  0.10566000000E+00 0. -1.
     999900   -1    0    0    0    0 -0.00000000000E+00 -0.00000000000E+00 -0.74505805969E-08  0.93827000000E+00  0.93827000000E+00 0.  1.
     999902    2    1    2    0    0 -0.49401407739E-02  0.23020905216E-01  0.19129106124E-02  0.10203074198E+01  0.10200339233E+01 0.  0.
     999903    2    3    3    0    0  0.10020721576E+00  0.53099656192E-01  0.63320633336E-01  0.13141394686E+00  0.19976567363E-01 0.  0.
         14    1    1    2    0    0  0.49401407739E-02 -0.23020905216E-01 -0.19129106124E-02  0.23622580190E-01  0.00000000000E+00 0.  1.
     999901    1    3    3    0    0 -0.10514735654E+00 -0.30078750976E-01 -0.61407722724E-01  0.88889347295E+00  0.88000000000E+00 0.  1.
        -11    1    4    4    0    0  0.82334125063E-01  0.47521660018E-01  0.59930224929E-01  0.11237930994E+00  0.51100000000E-03 0. -1.
         11    1    4    4    0    0  0.17873090702E-01  0.55779961740E-02  0.33904084070E-02  0.19034636922E-01  0.51100000000E-03 0.  1.
</event>
<event>
 8    1  0.1079508E+005  0.1043930E+01  0.7957747E-01            NaN
         13   -1    0    0    0    0  0.00000000000E+00  0.00000000000E+00  0.74505805969E-08  0.10566000000E+00  0.10566000000E+00 0. -1.
     999900   -1    0    0    0    0 -0.00000000000E+00 -0.00000000000E+00 -0.74505805969E-08  0.93827000000E+00  0.93827000000E+00 0.  1.
     999902    2    1    2    0    0 -0.15632060523E-01 -0.15564729613E-01 -0.58380432799E-02  0.10211110414E+01  0.10208560398E+01 0.  0.
     999903    2    3    3    0    0 -0.39068272762E-01  0.32685946444E-01 -0.12026756465E+00  0.13208263959E+00  0.19668135233E-01 0.  0.
         14    1    1    2    0    0  0.15632060523E-01  0.15564729613E-01  0.58380432799E-02  0.22818958641E-01  0.00000000000E+00 0. -1.
     999901    1    3    3    0    0  0.23436212239E-01 -0.48250676057E-01  0.11442952137E+00  0.88902840177E+00  0.88000000000E+00 0. -1.
        -11    1    4    4    0    0  0.13576381106E-03  0.24320357579E-02 -0.21007186323E-01  0.21154106645E-01  0.51100000000E-03 0.  1.
         11    1    4    4    0    0 -0.39204036573E-01  0.30253910686E-01 -0.99260378328E-01  0.11092853295E+00  0.51100000000E-03 0. -1.
</event>
<event>
 7    1  0.1079508E+005  0.1043930E+01  0.7957747E-01            NaN
         13   -1    0    0    0    0  0.00000000000E+00  0.00000000000E+00  0.74505805969E-08  0.10566000000E+00  0.10566000000E+00 0.  1.
     999900   -1    0    0    0    0 -0.00000000000E+00 -0.00000000000E+00 -0.74505805969E-08  0.93827000000E+00  0.93827000000E+00 0.  1.
     999903    2    1    2    0    0  0.39144691650E-01 -0.45021951761E-01  0.97056438864E-01  0.11586356767E+00  0.21098126990E-01 0.  0.
         14    1    1    2    0    0  0.12313533147E-01 -0.35507737732E-01 -0.79958069712E-02  0.38423371358E-01  0.00000000000E+00 0. -1.
     999901    1    1    2    0    0 -0.51458224796E-01  0.80529689494E-01 -0.89060631893E-01  0.88964306098E+00  0.88000000000E+00 0.  1.
        -11    1    3    3    0    0  0.39049577988E-01 -0.43886213555E-01  0.82638222500E-01  0.10139135180E+00  0.51100000000E-03 0.  1.
         11    1    3    3    0    0  0.95113661331E-04 -0.11357382062E-02  0.14418216364E-01  0.14472215864E-01  0.51100000000E-03 0. -1.
</event>
<event>
 8    1  0.1079508E+005  0.1043930E+01  0.7957747E-01            NaN
         13   -1    0    0    0    0  0.00000000000E+00  0.00000000000E+00  0.74505805969E-08  0.10566000000E+00  0.10566000000E+00 0.  1.
     999900   -1    0    0    0    0 -0.00000000000E+00 -0.00000000000E+00 -0.74505805969E-08  0.93827000000E+00  0.93827000000E+00 0. -1.
     999902    2    1    2    0    0  0.22868570072E-02 -0.21626233702E-01 -0.10133105174E-01  0.10199382614E+01  0.10196560467E+01 0.  0.
     999903    2    3    3    0    0  0.13354031520E-01  0.74405567533E-01  0.10097523619E+00  0.12769969876E+00  0.19917231271E-01 0.  0.
         14    1    1    2    0    0 -0.22868570072E-02  0.21626233702E-01  0.10133105174E-01  0.23991738569E-01  0.00000000000E+00 0.  1.
     999901    1    3    3    0    0 -0.11067174513E-01 -0.96031801235E-01 -0.11110834136E+00  0.89223856267E+00  0.88000000000E+00 0.  1.
        -11    1    4    4    0    0  0.65898408752E-02  0.53786444902E-01  0.56941778132E-01  0.78606837335E-01  0.51100000000E-03 0.  1.
         11    1    4    4    0    0  0.67641906447E-02  0.20619122630E-01  0.44033458058E-01  0.49092861423E-01  0.51100000000E-03 0. -1.
</event>
<event>
 8    1  0.1079508E+005  0.1043930E+01  0.7957747E-01            NaN
         13   -1    0    0    0    0  0.00000000000E+00  0.00000000000E+00  0.74505805969E-08  0.10566000000E+00  0.10566000000E+00 0. -1.
     999900   -1    0    0    0    0 -0.00000000000E+00 -0.00000000000E+00 -0.74505805969E-08  0.93827000000E+00  0.93827000000E+00 0.  1.
     999902    2    1    2    0    0 -0.84336326382E-02  0.17257033659E-01 -0.13254703054E-01  0.10205929367E+01  0.10203260871E+01 0.  0.
     999903    2    3    3    0    0  0.73894013225E-01  0.58066456813E-01 -0.91070754066E-01  0.13239330369E+00  0.20051583948E-01 0.  0.
         14    1    1    2    0    0  0.84336326382E-02 -0.17257033659E-01  0.13254703054E-01  0.23337063295E-01  0.00000000000E+00 0. -1.
     999901    1    3    3    0    0 -0.82327645863E-01 -0.40809423154E-01  0.77816051011E-01  0.88819963301E+00  0.88000000000E+00 0. -1.
        -11    1    4    4    0    0  0.10003019481E-01  0.12109489099E-02 -0.14051990855E-01  0.17298738797E-01  0.51100000000E-03 0.  1.
         11    1    4    4    0    0  0.63890993745E-01  0.56855507903E-01 -0.77018763211E-01  0.11509456489E+00  0.51100000000E-03 0. -1.
</event>
<event>
 8    1  0.1079508E+005  0.1043930E+01  0.7957747E-01            NaN
         13   -1    0    0    0    0  0.00000000000E+00  0.00000000000E+00  0.74505805969E-08  0.10566000000E+00  0.10566000000E+00 0.  1.
     999900   -1    0    0    0    0 -0.00000000000E+00 -0.00000000000E+00 -0.74505805969E-08  0.93827000000E+00  0.93827000000E+00 0. -1.
     999902    2    1    2    0    0  0.16525358564E-01  0.73301120532E-02 -0.10612786150E-01  0.10229669552E+01  0.10227521411E+01 0.  0.
     999903    2    3    3    0    0 -0.69530833184E-01  0.10904489316E+00 -0.24187797339E-01  0.13283446742E+00  0.18292640819E-01 0.  0.
         14    1    1    2    0    0 -0.16525358564E-01 -0.73301120532E-02  0.10612786150E-01  0.20963044823E-01  0.00000000000E+00 0.  1.
     999901    1    3    3    0    0  0.86056191747E-01 -0.10171478110E+00  0.13575011189E-01  0.89013248776E+00  0.88000000000E+00 0. -1.
        -11    1    4    4    0    0 -0.32921065688E-01  0.46250626511E-01 -0.18973541287E-02  0.56804736531E-01  0.51100000000E-03 0. -1.
         11    1    4    4    0    0 -0.36609767496E-01  0.62794266644E-01 -0.22290443210E-01  0.76029730889E-01  0.51100000000E-03 0.  1.
</event>
<event>
 8    1  0.1079508E+005  0.1043930E+01  0.7957747E-01            NaN
         13   -1    0    0    0    0  0.00000000000E+00  0.00000000000E+00  0.74505805969E-08  0.10566000000E+00  0.10566000000E+00 0.  1.
     999900   -1    0    0    0    0 -0.00000000000E+00 -0.00000000000E+00 -0.74505805969E-08  0.93827000000E+00  0.93827000000E+00 0.  1.
     999902    2    1    2    0    0  0.75701520356E-02 -0.22758131347E-01 -0.51757368487E-03  0.10199402600E+01  0.10196580928E+01 0.  0.
     999903    2    3    3    0    0 -0.11426097818E+00  0.46307454366E-01  0.29367556736E-01  0.12836524886E+00  0.20377248597E-01 0.  0.
         14    1    1    2    0    0 -0.75701520356E-02  0.22758131347E-01  0.51757368487E-03  0.23989740032E-01  0.00000000000E+00 0.  1.
     999901    1    3    3    0    0  0.12183113022E+00 -0.69065585713E-01 -0.29885130421E-01  0.89157501111E+00  0.88000000000E+00 0.  1.
        -11    1    4    4    0    0 -0.15535116086E-01  0.50692175600E-02 -0.29157267187E-02  0.16607208730E-01  0.51100000000E-03 0. -1.
         11    1    4    4    0    0 -0.98725862095E-01  0.41238236806E-01  0.32283283455E-01  0.11175804013E+00  0.51100000000E-03 0.  1.
</event>
<event>
 8    1  0.1079508E+005  0.1043930E+01  0.7957747E-01            NaN
         13   -1    0    0    0    0  0.00000000000E+00  0.00000000000E+00  0.74505805969E-08  0.10566000000E+00  0.10566000000E+00 0. -1.
     999900   -1    0    0    0    0 -0.00000000000E+00 -0.00000000000E+00 -0.74505805969E-08  0.93827000000E+00  0.93827000000E+00 0. -1.
     999902    2    1    2    0    0 -0.27456196737E-02  0.39714945509E-03 -0.24099993799E-01  0.10196708604E+01  0.10193822431E+01 0.  0.
     999903    2    3    3    0    0 -0.87784802921E-01 -0.83145384393E-01  0.41261451002E-01  0.12923100494E+00  0.19463266151E-01 0.  0.
         14    1    1    2    0    0  0.27456196737E-02 -0.39714945509E-03  0.24099993799E-01  0.24259139643E-01  0.00000000000E+00 0. -1.
     999901    1    3    3    0    0  0.85039183247E-01  0.83542533848E-01 -0.65361444801E-01  0.89043985542E+00  0.88000000000E+00 0. -1.
        -11    1    4    4    0    0 -0.55343614944E-01 -0.39151823727E-01  0.23623615882E-01  0.71792181779E-01  0.51100000000E-03 0. -1.
         11    1    4    4    0    0 -0.32441187977E-01 -0.43993560666E-01  0.17637835119E-01  0.57438823161E-01  0.51100000000E-03 0.  1.
</event>
<event>
 8    1  0.1079508E+005  0.1043930E+01  0.7957747E-01            NaN
         13   -1    0    0    0    0  0.00000000000E+00  0.00000000000E+00  0.74505805969E-08  0.10566000000E+00  0.10566000000E+00 0. -1.
     999900   -1    0    0    0    0 -0.00000000000E+00 -0.00000000000E+00 -0.74505805969E-08  0.93827000000E+00  0.93827000000E+00 0. -1.
     999902    2    1    2    0    0  0.70177803197E-02 -0.12499814411E-02  0.21972192498E-01  0.10208304559E+01  0.10205690720E+01 0.  0.
     999903    2    3    3    0    0 -0.61554992819E-01 -0.68811412241E-01  0.93394144503E-01  0.13270441340E+00  0.19077932618E-01 0.  0.
         14    1    1    2    0    0 -0.70177803197E-02  0.12499814411E-02 -0.21972192498E-01  0.23099544095E-01  0.00000000000E+00 0.  1.
     999901    1    3    3    0    0  0.68572773138E-01  0.67561430800E-01 -0.71421952005E-01  0.88812604251E+00  0.88000000000E+00 0.  1.
        -11    1    4    4    0    0 -0.48259804817E-01 -0.42211260162E-01  0.69450222455E-01  0.94521922142E-01  0.51100000000E-03 0. -1.
         11    1    4    4    0    0 -0.13295188002E-01 -0.26600152079E-01  0.23943922048E-01  0.38182491258E-01  0.51100000000E-03 0.  1.
</event>
<event>
 8    1  0.1079508E+005  0.1043930E+01  0.7957747E-01            NaN
         13   -1    0    0    0    0  0.00000000000E+00  0.00000000000E+00  0.74505805969E-08  0.10566000000E+00  0.10566000000E+00 0.  1.
     999900   -1    0    0    0    0 -0.00000000000E+00 -0.00000000000E+00 -0.74505805969E-08  0.93827000000E+00  0.93827000000E+00 0.  1.
     999902    2    1    2    0    0 -0.12490761315E-01  0.89723888419E-02 -0.16867417588E-01  0.10211038603E+01  0.10208486963E+01 0.  0.
     999903    2    3    3    0    0  0.10043597925E+00 -0.64988845597E-01  0.43260043293E-01  0.12878215566E+00  0.20061811738E-01 0.  0.
         14    1    1    2    0    0  0.12490761315E-01 -0.89723888419E-02  0.16867417588E-01  0.22826139749E-01  0.00000000000E+00 0.  1.
     999901    1    3    3    0    0 -0.11292674057E+00  0.73961234438E-01 -0.60127460881E-01  0.89232170459E+00  0.88000000000E+00 0.  1.
        -11    1    4    4    0    0  0.73639971845E-01 -0.41330446064E-01  0.38168201061E-01  0.92672131293E-01  0.51100000000E-03 0. -1.
         11    1    4    4    0    0  0.26796007407E-01 -0.23658399533E-01  0.50918422321E-02  0.36110024366E-01  0.51100000000E-03 0.  1.
</event>
<event>
 8    1  0.1079508E+005  0.1043930E+01  0.7957747E-01            NaN
         13   -1    0    0    0    0  0.00000000000E+00  0.00000000000E+00  0.74505805969E-08  0.10566000000E+00  0.10566000000E+00 0. -1.
     999900   -1    0    0    0    0 -0.00000000000E+00 -0.00000000000E+00 -0.74505805969E-08  0.93827000000E+00  0.93827000000E+00 0. -1.
     999902    2    1    2    0    0 -0.82748782719E-02  0.14716762766E-01  0.16966014350E-01  0.10199946212E+01  0.10197137465E+01 0.  0.
     999903    2    3    3    0    0  0.79481370800E-03 -0.12069276854E+00 -0.37884627754E-01  0.12790348602E+00  0.18885989773E-01 0.  0.
         14    1    1    2    0    0  0.82748782719E-02 -0.14716762766E-01 -0.16966014350E-01  0.23935378828E-01  0.00000000000E+00 0. -1.
     999901    1    3    3    0    0 -0.90696919799E-02  0.13540953130E+00  0.54850642105E-01  0.89209113515E+00  0.88000000000E+00 0.  1.
        -11    1    4    4    0    0  0.95534160697E-02 -0.70041931126E-01 -0.24017555520E-01  0.74660859683E-01  0.51100000000E-03 0. -1.
         11    1    4    4    0    0 -0.87586023617E-02 -0.50650837411E-01 -0.13867072234E-01  0.53242626336E-01  0.51100000000E-03 0.  1.
</event>
<event>
 8    1  0.1079508E+005  0.1043930E+01  0.7957747E-01            NaN
         13   -1    0    0    0    0  0.00000000000E+00  0.00000000000E+00  0.74505805969E-08  0.10566000000E+00  0.10566000000E+00 0.  1.
     999900   -1    0    0    0    0 -0.00000000000E+00 -0.00000000000E+00 -0.74505805969E-08  0.93827000000E+00  0.93827000000E+00 0. -1.
     999902    2    1    2    0    0 -0.96302695806E-02  0.12414647202E-01  0.17495504434E-01  0.10204149360E+01  0.10201439523E+01 0.  0.
     999903    2    3    3    0    0  0.26169505525E-01 -0.89635358323E-01  0.88494427573E-01  0.13095629473E+00  0.24473392427E-01 0.  0.
         14    1    1    2    0    0  0.96302695806E-02 -0.12414647202E-01 -0.17495504434E-01  0.23515063953E-01  0.00000000000E+00 0. -1.
     999901    1    3    3    0    0 -0.35799775106E-01  0.10205000552E+00 -0.70998923139E-01  0.88945864132E+00  0.88000000000E+00 0. -1.
        -11    1    4    4    0    0  0.27967710188E-01 -0.74458532312E-01  0.64046203794E-01  0.10211974926E+00  0.51100000000E-03 0.  1.
         11    1    4    4    0    0 -0.17982046633E-02 -0.15176826011E-01  0.24448223779E-01  0.28836545472E-01  0.51100000000E-03 0. -1.
</event>
<event>
 8    1  0.1079508E+005  0.1043930E+01  0.7957747E-01            NaN
         13   -1    0    0    0    0  0.00000000000E+00  0.00000000000E+00  0.74505805969E-08  0.10566000000E+00  0.10566000000E+00 0.  1.
     999900   -1    0    0    0    0 -0.00000000000E+00 -0.00000000000E+00 -0.74505805969E-08  0.93827000000E+00  0.93827000000E+00 0.  1.
     999902    2    1    2    0    0  0.92706804500E-02 -0.10903717126E-01  0.18932625555E-01  0.10201964610E+01  0.10199203587E+01 0.  0.
     999903    2    3    3    0    0  0.41681425758E-01  0.84669132224E-01 -0.84651460983E-01  0.12839250893E+00  0.20311654223E-01 0.  0.
         14    1    1    2    0    0 -0.92706804500E-02  0.10903717126E-01 -0.18932625555E-01  0.23733539002E-01  0.00000000000E+00 0. -1.
     999901    1    3    3    0    0 -0.32410745308E-01 -0.95572849350E-01  0.10358408654E+00  0.89180395207E+00  0.88000000000E+00 0. -1.
        -11    1    4    4    0    0  0.27125670846E-01  0.58483294401E-01 -0.44687992029E-01  0.78443454127E-01  0.51100000000E-03 0.  1.
         11    1    4    4    0    0  0.14555754913E-01  0.26185837823E-01 -0.39963468955E-01  0.49949054800E-01  0.51100000000E-03 0. -1.
</event>
<event>
 8    1  0.1079508E+005  0.1043930E+01  0.7957747E-01            NaN
         13   -1    0    0    0    0  0.00000000000E+00  0.00000000000E+00  0.74505805969E-08  0.10566000000E+00  0.10566000000E+00 0. -1.
     999900   -1    0    0    0    0 -0.00000000000E+00 -0.00000000000E+00 -0.74505805969E-08  0.93827000000E+00  0.93827000000E+00 0.  1.
     999902    2    1    2    0    0 -0.17492857353E-01  0.97805682113E-02 -0.13076000943E-01  0.10200000737E+01  0.10197193285E+01 0.  0.
     999903    2    3    3    0    0  0.67039416110E-01 -0.25692479952E-01  0.10384762178E+00  0.12754549447E+00  0.18142154586E-01 0.  0.
         14    1    1    2    0    0  0.17492857353E-01 -0.97805682113E-02  0.13076000943E-01  0.23929926318E-01  0.00000000000E+00 0. -1.
     999901    1    3    3    0    0 -0.84532273463E-01  0.35473048163E-01 -0.11692362272E+00  0.89245457921E+00  0.88000000000E+00 0.  1.
        -11    1    4    4    0    0  0.12782798278E-01 -0.79537180320E-02  0.11391497842E-01  0.18886209425E-01  0.51100000000E-03 0. -1.
         11    1    4    4    0    0  0.54256617832E-01 -0.17738761920E-01  0.92456123935E-01  0.10865928505E+00  0.51100000000E-03 0.  1.
</event>
<event>
 8    1  0.1079508E+005  0.1043930E+01  0.7957747E-01            NaN
         13   -1    0    0    0    0  0.00000000000E+00  0.00000000000E+00  0.74505805969E-08  0.10566000000E+00  0.10566000000E+00 0.  1.
     999900   -1    0    0    0    0 -0.00000000000E+00 -0.00000000000E+00 -0.74505805969E-08  0.93827000000E+00  0.93827000000E+00 0.  1.
     999902    2    1    2    0    0 -0.15209054896E-01 -0.17969387694E-01  0.24893520769E-02  0.10202569960E+01  0.10199823169E+01 0.  0.
     999903    2    3    3    0    0 -0.97788546464E-01  0.80764767310E-01  0.24435517182E-01  0.13062255424E+00  0.19483575596E-01 0.  0.
         14    1    1    2    0    0  0.15209054896E-01  0.17969387694E-01 -0.24893520769E-02  0.23673004006E-01  0.00000000000E+00 0. -1.
     999901    1    3    3    0    0  0.82579491569E-01 -0.98734155004E-01 -0.21946165105E-01  0.88963444175E+00  0.88000000000E+00 0.  1.
        -11    1    4    4    0    0 -0.54481475448E-01  0.33291024505E-01  0.84830530594E-02  0.64410766101E-01  0.51100000000E-03 0. -1.
         11    1    4    4    0    0 -0.43307071017E-01  0.47473742805E-01  0.15952464122E-01  0.66211788139E-01  0.51100000000E-03 0.  1.
</event>
<event>
 7    1  0.1079508E+005  0.1043930E+01  0.7957747E-01            NaN
         13   -1    0    0    0    0  0.00000000000E+00  0.00000000000E+00  0.74505805969E-08  0.10566000000E+00  0.10566000000E+00 0.  1.
     999900   -1    0    0    0    0 -0.00000000000E+00 -0.00000000000E+00 -0.74505805969E-08  0.93827000000E+00  0.93827000000E+00 0. -1.
     999903    2    1    2    0    0  0.72312943239E-01 -0.77080054410E-01 -0.42092257309E-01  0.11569420437E+00  0.21045052904E-01 0.  0.
         14    1    1    2    0    0  0.19986075791E-01  0.20238530583E-01  0.30226707818E-01  0.41505363644E-01  0.00000000000E+00 0.  1.
     999901    1    1    2    0    0 -0.92299019030E-01  0.56841523827E-01  0.11865549491E-01  0.88673043199E+00  0.88000000000E+00 0.  1.
        -11    1    3    3    0    0  0.41731871801E-01 -0.37274469211E-01 -0.32099269250E-01  0.64510149484E-01  0.51100000000E-03 0.  1.
         11    1    3    3    0    0  0.30581071438E-01 -0.39805585199E-01 -0.99929880594E-02  0.51184054887E-01  0.51100000000E-03 0. -1.
</event>
<event>
 8    1  0.1079508E+005  0.1043930E+01  0.7957747E-01            NaN
         13   -1    0    0    0    0  0.00000000000E+00  0.00000000000E+00  0.74505805969E-08  0.10566000000E+00  0.10566000000E+00 0.  1.
     999900   -1    0    0    0    0 -0.00000000000E+00 -0.00000000000E+00 -0.74505805969E-08  0.93827000000E+00  0.93827000000E+00 0.  1.
     999902    2    1    2    0    0  0.13227552412E-01 -0.18875775228E-01  0.56360217966E-03  0.10208739665E+01  0.10206135776E+01 0.  0.
     999903    2    3    3    0    0 -0.41399109814E-01  0.72461616100E-01 -0.96512828849E-01  0.12916189148E+00  0.20087209272E-01 0.  0.
         14    1    1    2    0    0 -0.13227552412E-01  0.18875775228E-01 -0.56360217966E-03  0.23056033499E-01  0.00000000000E+00 0. -1.
     999901    1    3    3    0    0  0.54626662226E-01 -0.91337391329E-01  0.97076431029E-01  0.89171207502E+00  0.88000000000E+00 0.  1.
        -11    1    4    4    0    0 -0.20132452990E-01  0.22318520340E-01 -0.45507587569E-01  0.54540202245E-01  0.51100000000E-03 0.  1.
         11    1    4    4    0    0 -0.21266656824E-01  0.50143095761E-01 -0.51005241280E-01  0.74621689233E-01  0.51100000000E-03 0. -1.
</event>
<event>
 8    1  0.1079508E+005  0.1043930E+01  0.7957747E-01            NaN
         13   -1    0    0    0    0  0.00000000000E+00  0.00000000000E+00  0.74505805969E-08  0.10566000000E+00  0.10566000000E+00 0.  1.
     999900   -1    0    0    0    0 -0.00000000000E+00 -0.00000000000E+00 -0.74505805969E-08  0.93827000000E+00  0.93827000000E+00 0.  1.
     999902    2    1    2    0    0 -0.21504306017E-01  0.38369876117E-02 -0.83927471764E-02  0.10205292339E+01  0.10202609084E+01 0.  0.
     999903    2    3    3    0    0 -0.30472610891E-01  0.11570154040E+00  0.50966727348E-01  0.13141863562E+00  0.18916237123E-01 0.  0.
         14    1    1    2    0    0  0.21504306017E-01 -0.38369876117E-02  0.83927471764E-02  0.23400766150E-01  0.00000000000E+00 0.  1.
     999901    1    3    3    0    0  0.89683048738E-02 -0.11186455279E+00 -0.59359474525E-01  0.88911059823E+00  0.88000000000E+00 0.  1.
        -11    1    4    4    0    0 -0.31691122322E-01  0.10425382154E+00  0.41853397603E-01  0.11672683733E+00  0.51100000000E-03 0. -1.
         11    1    4    4    0    0  0.12185114306E-02  0.11447718858E-01  0.91133297453E-02  0.14691798297E-01  0.51100000000E-03 0.  1.
</event>
<event>
 8    1  0.1079508E+005  0.1043930E+01  0.7957747E-01            NaN
         13   -1    0    0    0    0  0.00000000000E+00  0.00000000000E+00  0.74505805969E-08  0.10566000000E+00  0.10566000000E+00 0. -1.
     999900   -1    0    0    0    0 -0.00000000000E+00 -0.00000000000E+00 -0.74505805969E-08  0.93827000000E+00  0.93827000000E+00 0.  1.
     999902    2    1    2    0    0 -0.38443237258E-02 -0.85277251745E-02  0.20963494278E-01  0.10209741943E+01  0.10207160900E+01 0.  0.
     999903    2    3    3    0    0  0.38788278415E-01  0.70029690817E-01 -0.98806971014E-01  0.12837474848E+00  0.17566171715E-01 0.  0.
         14    1    1    2    0    0  0.38443237258E-02  0.85277251745E-02 -0.20963494278E-01  0.22955805669E-01  0.00000000000E+00 0.  1.
     999901    1    3    3    0    0 -0.42632602141E-01 -0.78557415992E-01  0.11977046529E+00  0.89259944585E+00  0.88000000000E+00 0. -1.
        -11    1    4    4    0    0  0.21738671639E-01  0.55292099937E-01 -0.71174675461E-01  0.92713977954E-01  0.51100000000E-03 0. -1.
         11    1    4    4    0    0  0.17049606777E-01  0.14737590880E-01 -0.27632295553E-01  0.35660770529E-01  0.51100000000E-03 0.  1.
</event>
<event>
 8    1  0.1079508E+005  0.1043930E+01  0.7957747E-01            NaN
         13   -1    0    0    0    0  0.00000000000E+00  0.00000000000E+00  0.74505805969E-08  0.10566000000E+00  0.10566000000E+00 0. -1.
     999900   -1    0    0    0    0 -0.00000000000E+00 -0.00000000000E+00 -0.74505805969E-08  0.93827000000E+00  0.93827000000E+00 0.  1.
     999902    2    1    2    0    0  0.34682089911E-02  0.11846489764E-01 -0.20561797874E-01  0.10199476038E+01  0.10196656115E+01 0.  0.
     999903    2    3    3    0    0 -0.30814661253E-01 -0.82575867928E-01 -0.95050442651E-01  0.13110596721E+00  0.19643591258E-01 0.  0.
         14    1    1    2    0    0 -0.34682089911E-02 -0.11846489764E-01  0.20561797874E-01  0.23982396150E-01  0.00000000000E+00 0. -1.
     999901    1    3    3    0    0  0.34282870244E-01  0.94422357692E-01  0.74488644777E-01  0.88884163664E+00  0.88000000000E+00 0.  1.
        -11    1    4    4    0    0 -0.19369499591E-01 -0.72173812381E-01 -0.80966337371E-01  0.11018187517E+00  0.51100000000E-03 0.  1.
         11    1    4    4    0    0 -0.11445161662E-01 -0.10402055547E-01 -0.14084105280E-01  0.20924092038E-01  0.51100000000E-03 0. -1.
</event>
<event>
 8    1  0.1079508E+005  0.1043930E+01  0.7957747E-01            NaN
         13   -1    0    0    0    0  0.00000000000E+00  0.00000000000E+00  0.74505805969E-08  0.10566000000E+00  0.10566000000E+00 0. -1.
     999900   -1    0    0    0    0 -0.00000000000E+00 -0.00000000000E+00 -0.74505805969E-08  0.93827000000E+00  0.93827000000E+00 0. -1.
     999902    2    1    2    0    0 -0.16066490916E-01  0.17400305040E-01 -0.30176641387E-02  0.10200551379E+01  0.10197756985E+01 0.  0.
     999903    2    3    3    0    0  0.34822926589E-01  0.10225080549E+00  0.71933665854E-01  0.13134425004E+00  0.20223656851E-01 0.  0.
         14    1    1    2    0    0  0.16066490916E-01 -0.17400305040E-01  0.30176641387E-02  0.23874862150E-01  0.00000000000E+00 0.  1.
     999901    1    3    3    0    0 -0.50889417504E-01 -0.84850500450E-01 -0.74951329993E-01  0.88871088781E+00  0.88000000000E+00 0. -1.
        -11    1    4    4    0    0  0.19562979946E-01  0.58073303473E-01  0.28683467529E-01  0.67662553832E-01  0.51100000000E-03 0. -1.
         11    1    4    4    0    0  0.15259946643E-01  0.44177502017E-01  0.43250198326E-01  0.63681696210E-01  0.51100000000E-03 0.  1.
</event>
<event>
 8    1  0.1079508E+005  0.1043930E+01  0.7957747E-01            NaN
         13   -1    0    0    0    0  0.00000000000E+00  0.00000000000E+00  0.74505805969E-08  0.10566000000E+00  0.10566000000E+00 0.  1.
     999900   -1    0    0    0    0 -0.00000000000E+00 -0.00000000000E+00 -0.74505805969E-08  0.93827000000E+00  0.93827000000E+00 0. -1.
     999902    2    1    2    0    0 -0.34216528563E-02 -0.23536653204E-01  0.49545016367E-02  0.10196353743E+01  0.10193459019E+01 0.  0.
     999903    2    3    3    0    0 -0.10667888122E+00  0.67518738471E-01 -0.15197312390E-01  0.12870370733E+00  0.19862583768E-01 0.  0.
         14    1    1    2    0    0  0.34216528563E-02  0.23536653204E-01 -0.49545016367E-02  0.24294625718E-01  0.00000000000E+00 0.  1.
     999901    1    3    3    0    0  0.10325722837E+00 -0.91055391675E-01  0.20151814027E-01  0.89093166695E+00  0.88000000000E+00 0.  1.
        -11    1    4    4    0    0 -0.41569453407E-01  0.16530440847E-01 -0.70933099473E-03  0.44744152720E-01  0.51100000000E-03 0. -1.
         11    1    4    4    0    0 -0.65109427815E-01  0.50988297624E-01 -0.14487981395E-01  0.83959554614E-01  0.51100000000E-03 0.  1.
</event>
<event>
 8    1  0.1079508E+005  0.1043930E+01  0.7957747E-01            NaN
         13   -1    0    0    0    0  0.00000000000E+00  0.00000000000E+00  0.74505805969E-08  0.10566000000E+00  0.10566000000E+00 0. -1.
     999900   -1    0    0    0    0 -0.00000000000E+00 -0.00000000000E+00 -0.74505805969E-08  0.93827000000E+00  0.93827000000E+00 0.  1.
     999902    2    1    2    0    0  0.10072642612E-01 -0.17444492282E-01 -0.12882919568E-01  0.10200189553E+01  0.10197386583E+01 0.  0.
     999903    2    3    3    0    0 -0.93630536511E-01  0.98490059565E-02  0.84693157202E-01  0.12815552680E+00  0.19678106796E-01 0.  0.
         14    1    1    2    0    0 -0.10072642612E-01  0.17444492282E-01  0.12882919568E-01  0.23911044661E-01  0.00000000000E+00 0. -1.
     999901    1    3    3    0    0  0.10370317912E+00 -0.27293498239E-01 -0.97576076770E-01  0.89186342854E+00  0.88000000000E+00 0.  1.
        -11    1    4    4    0    0 -0.22737729103E-01  0.48701352117E-02  0.32564712790E-01  0.40018048201E-01  0.51100000000E-03 0.  1.
         11    1    4    4    0    0 -0.70892807407E-01  0.49788707448E-02  0.52128444412E-01  0.88137478599E-01  0.51100000000E-03 0. -1.
</event>
<event>
 8    1  0.1079508E+005  0.1043930E+01  0.7957747E-01            NaN
         13   -1    0    0    0    0  0.00000000000E+00  0.00000000000E+00  0.74505805969E-08  0.10566000000E+00  0.10566000000E+00 0. -1.
     999900   -1    0    0    0    0 -0.00000000000E+00 -0.00000000000E+00 -0.74505805969E-08  0.93827000000E+00  0.93827000000E+00 0.  1.
     999902    2    1    2    0    0  0.12625265371E-01 -0.18542214763E-01 -0.77123807212E-02  0.10202088729E+01  0.10199330628E+01 0.  0.
     999903    2    3    3    0    0 -0.71832494753E-01 -0.99332245195E-01  0.42071527970E-01  0.13108650798E+00  0.19668677373E-01 0.  0.
         14    1    1    2    0    0 -0.12625265371E-01  0.18542214763E-01  0.77123807212E-02  0.23721127089E-01  0.00000000000E+00 0.  1.
     999901    1    3    3    0    0  0.84457760124E-01  0.80790030432E-01 -0.49783908691E-01  0.88912236493E+00  0.88000000000E+00 0.  1.
        -11    1    4    4    0    0 -0.24033647293E-01 -0.49072050562E-01  0.15389220582E-01  0.56769459920E-01  0.51100000000E-03 0.  1.
         11    1    4    4    0    0 -0.47798847460E-01 -0.50260194634E-01  0.26682307388E-01  0.74317048056E-01  0.51100000000E-03 0. -1.
</event>
<event>
 8    1  0.1079508E+005  0.1043930E+01  0.7957747E-01            NaN
         13   -1    0    0    0    0  0.00000000000E+00  0.00000000000E+00  0.74505805969E-08  0.10566000000E+00  0.10566000000E+00 0. -1.
     999900   -1    0    0    0    0 -0.00000000000E+00 -0.00000000000E+00 -0.74505805969E-08  0.93827000000E+00  0.93827000000E+00 0.  1.
     999902    2    1    2    0    0  0.14363508237E-01 -0.14106776686E-01  0.13582771603E-01  0.10196441358E+01  0.10193548746E+01 0.  0.
     999903    2    3    3    0    0 -0.52863471519E-01  0.80517272530E-02  0.11726564972E+00  0.13073435107E+00  0.21928543364E-01 0.  0.
         14    1    1    2    0    0 -0.14363508237E-01  0.14106776686E-01 -0.13582771603E-01  0.24285864238E-01  0.00000000000E+00 0.  1.
     999901    1    3    3    0    0  0.67226979756E-01 -0.22158503939E-01 -0.10368287811E+00  0.88890978469E+00  0.88000000000E+00 0.  1.
        -11    1    4    4    0    0 -0.39982772717E-01  0.14297490372E-01  0.76082700562E-01  0.87131388092E-01  0.51100000000E-03 0. -1.
         11    1    4    4    0    0 -0.12880698802E-01 -0.62457631195E-02  0.41182949155E-01  0.43602962980E-01  0.51100000000E-03 0.  1.
</event>
<event>
 8    1  0.1079508E+005  0.1043930E+01  0.7957747E-01            NaN
         13   -1    0    0    0    0  0.00000000000E+00  0.00000000000E+00  0.74505805969E-08  0.10566000000E+00  0.10566000000E+00 0. -1.
     999900   -1    0    0    0    0 -0.00000000000E+00 -0.00000000000E+00 -0.74505805969E-08  0.93827000000E+00  0.93827000000E+00 0.  1.
     999902    2    1    2    0    0  0.17689048262E-02  0.31323066335E-02  0.23483592604E-01  0.10201724856E+01  0.10198958186E+01 0.  0.
     999903    2    3    3    0    0 -0.10022935525E+00  0.64133680786E-01 -0.48361542704E-01  0.12928161900E+00  0.14691682470E-01 0.  0.
         14    1    1    2    0    0 -0.17689048262E-02 -0.31323066335E-02 -0.23483592604E-01  0.23757514405E-01  0.00000000000E+00 0.  1.
     999901    1    3    3    0    0  0.10199826008E+00 -0.61001374153E-01  0.71845135308E-01  0.89089086659E+00  0.88000000000E+00 0.  1.
        -11    1    4    4    0    0 -0.82466559142E-01  0.56084614084E-01 -0.45287526002E-01  0.10953281904E+00  0.51100000000E-03 0.  1.
         11    1    4    4    0    0 -0.17762796111E-01  0.80490667026E-02 -0.30740167024E-02  0.19748799967E-01  0.51100000000E-03 0. -1.
</event>
<event>
 8    1  0.1079508E+005  0.1043930E+01  0.7957747E-01            NaN
         13   -1    0    0    0    0  0.00000000000E+00  0.00000000000E+00  0.74505805969E-08  0.10566000000E+00  0.10566000000E+00 0.  1.
     999900   -1    0    0    0    0 -0.00000000000E+00 -0.00000000000E+00 -0.74505805969E-08  0.93827000000E+00  0.93827000000E+00 0. -1.
     999902    2    1    2    0    0  0.22239933905E-01 -0.29983783915E-02 -0.58662472033E-02  0.10207347895E+01  0.10204712111E+01 0.  0.
     999903    2    3    3    0    0  0.12929348058E+00  0.81014722492E-02  0.26695295648E-01  0.13357982977E+00  0.18667997716E-01 0.  0.
         14    1    1    2    0    0 -0.22239933905E-01  0.29983783915E-02  0.58662472033E-02  0.23195210482E-01  0.00000000000E+00 0.  1.
     999901    1    3    3    0    0 -0.10705354667E+00 -0.11099850641E-01 -0.32561542851E-01  0.88715495975E+00  0.88000000000E+00 0. -1.
        -11    1    4    4    0    0  0.60945693670E-01  0.64098327816E-02  0.35079227945E-02  0.61384282813E-01  0.51100000000E-03 0. -1.
         11    1    4    4    0    0  0.68347786906E-01  0.16916394676E-02  0.23187372853E-01  0.72195546953E-01  0.51100000000E-03 0.  1.
</event>
<event>
 8    1  0.1079508E+005  0.1043930E+01  0.7957747E-01            NaN
         13   -1    0    0    0    0  0.00000000000E+00  0.00000000000E+00  0.74505805969E-08  0.10566000000E+00  0.10566000000E+00 0.  1.
     999900   -1    0    0    0    0 -0.00000000000E+00 -0.00000000000E+00 -0.74505805969E-08  0.93827000000E+00  0.93827000000E+00 0. -1.
     999902    2    1    2    0    0 -0.16513343823E-01 -0.14282990617E-01  0.94416606868E-02  0.10201426231E+01  0.10198652519E+01 0.  0.
     999903    2    3    3    0    0 -0.52835671377E-01  0.80864169585E-01 -0.83608826108E-01  0.12939535999E+00  0.20545103822E-01 0.  0.
         14    1    1    2    0    0  0.16513343823E-01  0.14282990617E-01 -0.94416606868E-02  0.23787376941E-01  0.00000000000E+00 0. -1.
     999901    1    3    3    0    0  0.36322327554E-01 -0.95147160203E-01  0.93050486795E-01  0.89074726307E+00  0.88000000000E+00 0.  1.
        -11    1    4    4    0    0 -0.23890535349E-01  0.21780029292E-01 -0.20874855359E-01  0.38485686463E-01  0.51100000000E-03 0. -1.
         11    1    4    4    0    0 -0.28945136028E-01  0.59084140293E-01 -0.62733970749E-01  0.90909673527E-01  0.51100000000E-03 0.  1.
</event>
<event>
 8    1  0.1079508E+005  0.1043930E+01  0.7957747E-01            NaN
         13   -1    0    0    0    0  0.00000000000E+00  0.00000000000E+00  0.74505805969E-08  0.10566000000E+00  0.10566000000E+00 0.  1.
     999900   -1    0    0    0    0 -0.00000000000E+00 -0.00000000000E+00 -0.74505805969E-08  0.93827000000E+00  0.93827000000E+00 0.  1.
     999902    2    1    2    0    0 -0.44192833220E-02  0.61761901210E-02 -0.25104707267E-01  0.10177017382E+01  0.10173637040E+01 0.  0.
     999903    2    3    3    0    0 -0.54334644513E-02  0.43942636819E-01 -0.12127766696E+00  0.13165627028E+00  0.25780285808E-01 0.  0.
         14    1    1    2    0    0  0.44192833220E-02 -0.61761901210E-02  0.25104707267E-01  0.26228261788E-01  0.00000000000E+00 0.  1.
     999901    1    3    3    0    0  0.10141811293E-02 -0.37766446698E-01  0.96172959689E-01  0.88604546793E+00  0.88000000000E+00 0. -1.
        -11    1    4    4    0    0 -0.14938093463E-01  0.19440515613E-01 -0.67049662225E-01  0.71393267253E-01  0.51100000000E-03 0.  1.
         11    1    4    4    0    0  0.95046290116E-02  0.24502121206E-01 -0.54228004731E-01  0.60263003031E-01  0.51100000000E-03 0. -1.
</event>
<event>
 8    1  0.1277731E+005  0.1043930E+01  0.7957747E-01            NaN
         13   -1    0    0    0    0  0.00000000000E+00  0.00000000000E+00  0.74505805969E-08  0.10566000000E+00  0.10566000000E+00 0.  1.
     999900   -1    0    0    0    0 -0.00000000000E+00 -0.00000000000E+00 -0.74505805969E-08  0.93827000000E+00  0.93827000000E+00 0.  1.
     999902    2    1    2    0    0 -0.23742584004E-01  0.40791747051E-02 -0.71209206741E-02  0.10188091427E+01  0.10184993921E+01 0.  0.
     999903    2    3    3    0    0  0.22958196347E-01  0.81182824293E-01  0.94722903830E-01  0.12836088463E+00  0.19656002991E-01 0.  0.
         14    1    1    2    0    0  0.23742584004E-01 -0.40791747051E-02  0.71209206741E-02  0.25120857324E-01  0.00000000000E+00 0.  1.
     999901    1    3    3    0    0 -0.46700780351E-01 -0.77103649588E-01 -0.10184382450E+00  0.89044825804E+00  0.88000000000E+00 0.  1.
        -11    1    4    4    0    0  0.13805743524E-01  0.46762935187E-01  0.68710507078E-01  0.84254172392E-01  0.51100000000E-03 0. -1.
         11    1    4    4    0    0  0.91524528229E-02  0.34419889106E-01  0.26012396752E-01  0.44106712239E-01  0.51100000000E-03 0.  1.
</event>
<event>
 7    1  0.1079508E+005  0.1043930E+01  0.7957747E-01            NaN
         13   -1    0    0    0    0  0.00000000000E+00  0.00000000000E+00  0.74505805969E-08  0.10566000000E+00  0.10566000000E+00 0. -1.
     999900   -1    0    0    0    0 -0.00000000000E+00 -0.00000000000E+00 -0.74505805969E-08  0.93827000000E+00  0.93827000000E+00 0. -1.
     999902    2    1    2    0    0 -0.97548999415E-02  0.20512209219E-01 -0.75014554824E-02  0.10200097025E+01  0.10197291859E+01 0.  0.
         14    1    1    2    0    0  0.97548999415E-02 -0.20512209219E-01  0.75014554824E-02  0.23920297537E-01  0.00000000000E+00 0. -1.
     999901    1    3    3    0    0 -0.85018549611E-01 -0.39332696319E-01  0.69775295659E-01  0.88771831493E+00  0.88000000000E+00 0. -1.
        -11    1    3    3    0    0  0.43763240207E-01  0.92503120236E-02 -0.17962047698E-01  0.48204623684E-01  0.51100000000E-03 0.  1.
         11    1    3    3    0    0  0.31500409462E-01  0.50594593514E-01 -0.59314703442E-01  0.84086763849E-01  0.51100000000E-03 0. -1.
</event>
<event>
 8    1  0.1079508E+005  0.1043930E+01  0.7957747E-01            NaN
         13   -1    0    0    0    0  0.00000000000E+00  0.00000000000E+00  0.74505805969E-08  0.10566000000E+00  0.10566000000E+00 0.  1.
     999900   -1    0    0    0    0 -0.00000000000E+00 -0.00000000000E+00 -0.74505805969E-08  0.93827000000E+00  0.93827000000E+00 0. -1.
     999902    2    1    2    0    0 -0.32990286296E-02 -0.22427910438E-01 -0.67079939659E-02  0.10202891045E+01  0.10200151787E+01 0.  0.
     999903    2    3    3    0    0 -0.11108750740E-01  0.94655726484E-01  0.83085360122E-01  0.12797054243E+00  0.19752765981E-01 0.  0.
         14    1    1    2    0    0  0.32990286296E-02  0.22427910438E-01  0.67079939659E-02  0.23640895490E-01  0.00000000000E+00 0.  1.
     999901    1    3    3    0    0  0.78097221107E-02 -0.11708363692E+00 -0.89793354088E-01  0.89231856208E+00  0.88000000000E+00 0. -1.
        -11    1    4    4    0    0 -0.83536842014E-02  0.47591003761E-01  0.54486874804E-01  0.72826975261E-01  0.51100000000E-03 0. -1.
         11    1    4    4    0    0 -0.27550665389E-02  0.47064722723E-01  0.28598485318E-01  0.55143567169E-01  0.51100000000E-03 0.  1.
</event>
<event>
 8    1  0.1079508E+005  0.1043930E+01  0.7957747E-01            NaN
         13   -1    0    0    0    0  0.00000000000E+00  0.00000000000E+00  0.74505805969E-08  0.10566000000E+00  0.10566000000E+00 0.  1.
     999900   -1    0    0    0    0 -0.00000000000E+00 -0.00000000000E+00 -0.74505805969E-08  0.93827000000E+00  0.93827000000E+00 0. -1.
     999902    2    1    2    0    0  0.10101784791E-01  0.19504735190E-01 -0.65961652545E-02  0.10209955249E+01  0.10207379055E+01 0.  0.
     999903    2    3    3    0    0  0.23844512962E-01 -0.12313868125E+00 -0.23896281381E-01  0.12923585952E+00  0.19979477070E-01 0.  0.
         14    1    1    2    0    0 -0.10101784791E-01 -0.19504735190E-01  0.65961652545E-02  0.22934475072E-01  0.00000000000E+00 0.  1.
     999901    1    3    3    0    0 -0.13742728171E-01  0.14264341644E+00  0.17300116126E-01  0.89175966541E+00  0.88000000000E+00 0.  1.
        -11    1    4    4    0    0  0.15724255043E-01 -0.46413005532E-01 -0.20631219087E-02  0.49050350378E-01  0.51100000000E-03 0.  1.
         11    1    4    4    0    0  0.81202579188E-02 -0.76725675716E-01 -0.21833159472E-01  0.80185509142E-01  0.51100000000E-03 0. -1.
</event>
<event>
 8    1  0.1079508E+005  0.1043930E+01  0.7957747E-01            NaN
         13   -1    0    0    0    0  0.00000000000E+00  0.00000000000E+00  0.74505805969E-08  0.10566000000E+00  0.10566000000E+00 0. -1.
     999900   -1    0    0    0    0 -0.00000000000E+00 -0.00000000000E+00 -0.74505805969E-08  0.93827000000E+00  0.93827000000E+00 0.  1.
     999902    2    1    2    0    0  0.45021001753E-02 -0.12990825765E-01  0.19928807424E-01  0.10197186839E+01  0.10194312172E+01 0.  0.
     999903    2    3    3    0    0 -0.92907950941E-01 -0.24134058069E-01 -0.82770206743E-01  0.12833774562E+00  0.20132802093E-01 0.  0.
         14    1    1    2    0    0 -0.45021001753E-02  0.12990825765E-01 -0.19928807424E-01  0.24211316060E-01  0.00000000000E+00 0.  1.
     999901    1    3    3    0    0  0.97410051116E-01  0.11143232304E-01  0.10269901417E+00  0.89138093832E+00  0.88000000000E+00 0. -1.
        -11    1    4    4    0    0 -0.33443898091E-01 -0.18814182310E-01 -0.32436485716E-01  0.50247930327E-01  0.51100000000E-03 0.  1.
         11    1    4    4    0    0 -0.59464052850E-01 -0.53198757593E-02 -0.50333721027E-01  0.78089815295E-01  0.51100000000E-03 0. -1.
</event>
<event>
 8    1  0.1079508E+005  0.1043930E+01  0.7957747E-01            NaN
         13   -1    0    0    0    0  0.00000000000E+00  0.00000000000E+00  0.74505805969E-08  0.10566000000E+00  0.10566000000E+00 0.  1.
     999900   -1    0    0    0    0 -0.00000000000E+00 -0.00000000000E+00 -0.74505805969E-08  0.93827000000E+00  0.93827000000E+00 0.  1.
     999902    2    1    2    0    0  0.20637667883E-01  0.11978336417E-02 -0.13103959808E-01  0.10194542589E+01  0.10191604015E+01 0.  0.
     999903    2    3    3    0    0 -0.32683391829E-01 -0.10565168872E+00 -0.65146831550E-01  0.12986535588E+00  0.19758986930E-01 0.  0.
         14    1    1    2    0    0 -0.20637667883E-01 -0.11978336417E-02  0.13103959808E-01  0.24475741127E-01  0.00000000000E+00 0.  1.
     999901    1    3    3    0    0  0.53321059712E-01  0.10684952236E+00  0.52042871743E-01  0.88958890300E+00  0.88000000000E+00 0.  1.
        -11    1    4    4    0    0 -0.18807589354E-01 -0.66617201681E-01 -0.29641726624E-01  0.75302523566E-01  0.51100000000E-03 0.  1.
         11    1    4    4    0    0 -0.13875802475E-01 -0.39034487040E-01 -0.35505104927E-01  0.54562832309E-01  0.51100000000E-03 0. -1.
</event>
<event>
 8    1  0.1079508E+005  0.1043930E+01  0.7957747E-01            NaN
         13   -1    0    0    0    0  0.00000000000E+00  0.00000000000E+00  0.74505805969E-08  0.10566000000E+00  0.10566000000E+00 0. -1.
     999900   -1    0    0    0    0 -0.00000000000E+00 -0.00000000000E+00 -0.74505805969E-08  0.93827000000E+00  0.93827000000E+00 0. -1.
     999902    2    1    2    0    0  0.22874189370E-01  0.10802901561E-01  0.10190977389E-01  0.10166575369E+01  0.10162916708E+01 0.  0.
     999903    2    3    3    0    0  0.10810637270E+00 -0.66406388690E-01 -0.11957386102E-01  0.12889836375E+00  0.19365247689E-01 0.  0.
         14    1    1    2    0    0 -0.22874189370E-01 -0.10802901561E-01 -0.10190977389E-01  0.27272463065E-01  0.00000000000E+00 0.  1.
     999901    1    3    3    0    0 -0.85232183325E-01  0.77209290251E-01  0.22148363491E-01  0.88775917319E+00  0.88000000000E+00 0. -1.
        -11    1    4    4    0    0  0.54523862783E-01 -0.30939889766E-01 -0.15367939415E-01  0.64548920009E-01  0.51100000000E-03 0. -1.
         11    1    4    4    0    0  0.53582509912E-01 -0.35466498924E-01  0.34105533129E-02  0.64349443737E-01  0.51100000000E-03 0.  1.
</event>
<event>
 8    1  0.1079508E+005  0.1043930E+01  0.7957747E-01            NaN
         13   -1    0    0    0    0  0.00000000000E+00  0.00000000000E+00  0.74505805969E-08  0.10566000000E+00  0.10566000000E+00 0. -1.
     999900   -1    0    0    0    0 -0.00000000000E+00 -0.00000000000E+00 -0.74505805969E-08  0.93827000000E+00  0.93827000000E+00 0.  1.
     999902    2    1    2    0    0  0.58304249887E-02 -0.16077459518E-01 -0.36234755413E-02  0.10264483486E+01  0.10262994710E+01 0.  0.
     999903    2    3    3    0    0 -0.17115770607E-01  0.93093719234E-01 -0.94006450766E-01  0.13481279730E+00  0.19439325239E-01 0.  0.
         14    1    1    2    0    0 -0.58304249887E-02  0.16077459518E-01  0.36234755413E-02  0.17481651384E-01  0.00000000000E+00 0. -1.
     999901    1    3    3    0    0  0.22946195596E-01 -0.10917117875E+00  0.90382975225E-01  0.89163555132E+00  0.88000000000E+00 0. -1.
        -11    1    4    4    0    0 -0.69826517422E-03  0.51012688100E-01 -0.43446723110E-01  0.67012392820E-01  0.51100000000E-03 0. -1.
         11    1    4    4    0    0 -0.16417505433E-01  0.42081031134E-01 -0.50559727656E-01  0.67800404479E-01  0.51100000000E-03 0.  1.
</event>
<event>
 8    1  0.1079508E+005  0.1043930E+01  0.7957747E-01            NaN
         13   -1    0    0    0    0  0.00000000000E+00  0.00000000000E+00  0.74505805969E-08  0.10566000000E+00  0.10566000000E+00 0. -1.
     999900   -1    0    0    0    0 -0.00000000000E+00 -0.00000000000E+00 -0.74505805969E-08  0.93827000000E+00  0.93827000000E+00 0.  1.
     999902    2    1    2    0    0 -0.16684736165E-02 -0.22131014054E-01 -0.12386114962E-01  0.10185138352E+01  0.10181966662E+01 0.  0.
     999903    2    3    3    0    0 -0.23025480507E-01  0.35634156896E-01 -0.12099815844E+00  0.12970029309E+00  0.19535756779E-01 0.  0.
         14    1    1    2    0    0  0.16684736165E-02  0.22131014054E-01  0.12386114962E-01  0.25416164760E-01  0.00000000000E+00 0. -1.
     999901    1    3    3    0    0  0.21357006891E-01 -0.57765170950E-01  0.10861204347E+00  0.88881354215E+00  0.88000000000E+00 0. -1.
        -11    1    4    4    0    0 -0.10290877271E-01  0.17947718967E-01 -0.86104104648E-01  0.88556200965E-01  0.51100000000E-03 0. -1.
         11    1    4    4    0    0 -0.12734603236E-01  0.17686437929E-01 -0.34894053789E-01  0.41144092127E-01  0.51100000000E-03 0.  1.
</event>
<event>
 8    1  0.1079508E+005  0.1043930E+01  0.7957747E-01            NaN
         13   -1    0    0    0    0  0.00000000000E+00  0.00000000000E+00  0.74505805969E-08  0.10566000000E+00  0.10566000000E+00 0. -1.
     999900   -1    0    0    0    0 -0.00000000000E+00 -0.00000000000E+00 -0.74505805969E-08  0.93827000000E+00  0.93827000000E+00 0.  1.
     999902    2    1    2    0    0  0.12486052041E-01  0.17274233256E-01  0.10762470668E-01  0.10200525754E+01  0.10197730753E+01 0.  0.
     999903    2    3    3    0    0  0.70256108899E-01 -0.92575263929E-02  0.10984614783E+00  0.13221312550E+00  0.19811908742E-01 0.  0.
         14    1    1    2    0    0 -0.12486052041E-01 -0.17274233256E-01 -0.10762470668E-01  0.23877424590E-01  0.00000000000E+00 0.  1.
     999901    1    3    3    0    0 -0.57770056858E-01  0.26531759649E-01 -0.99083677164E-01  0.88783944991E+00  0.88000000000E+00 0.  1.
        -11    1    4    4    0    0  0.40480366228E-01 -0.10765981963E-01  0.78320262178E-01  0.88819429216E-01  0.51100000000E-03 0.  1.
         11    1    4    4    0    0  0.29775742670E-01  0.15084555701E-02  0.31525885654E-01  0.43393696283E-01  0.51100000000E-03 0. -1.
</event>
<event>
 8    1  0.1079508E+005  0.1043930E+01  0.7957747E-01            NaN
         13   -1    0    0    0    0  0.00000000000E+00  0.00000000000E+00  0.74505805969E-08  0.10566000000E+00  0.10566000000E+00 0. -1.
     999900   -1    0    0    0    0 -0.00000000000E+00 -0.00000000000E+00 -0.74505805969E-08  0.93827000000E+00  0.93827000000E+00 0. -1.
     999902    2    1    2    0    0  0.13599488981E-01  0.10736855183E-01  0.94687862592E-02  0.10241845177E+01  0.10239941612E+01 0.  0.
     999903    2    3    3    0    0 -0.26504826274E-01 -0.11355745000E+00  0.60427652138E-01  0.13308730836E+00  0.21515813659E-01 0.  0.
         14    1    1    2    0    0 -0.13599488981E-01 -0.10736855183E-01 -0.94687862592E-02  0.19745482344E-01  0.00000000000E+00 0. -1.
     999901    1    3    3    0    0  0.40104315255E-01  0.12429430518E+00 -0.50958865879E-01  0.89109720930E+00  0.88000000000E+00 0. -1.
        -11    1    4    4    0    0 -0.40750065583E-02 -0.63776774831E-01  0.30367145675E-01  0.70756677026E-01  0.51100000000E-03 0.  1.
         11    1    4    4    0    0 -0.22429819716E-01 -0.49780675169E-01  0.30060506463E-01  0.62330631335E-01  0.51100000000E-03 0. -1.
</event>
<event>
 8    1  0.1079508E+005  0.1043930E+01  0.7957747E-01            NaN
         13   -1    0    0    0    0  0.00000000000E+00  0.00000000000E+00  0.74505805969E-08  0.10566000000E+00  0.10566000000E+00 0.  1.
     999900   -1    0    0    0    0 -0.00000000000E+00 -0.00000000000E+00 -0.74505805969E-08  0.93827000000E+00  0.93827000000E+00 0. -1.
     999902    2    1    2    0    0  0.20151223451E-01  0.81977676190E-02  0.88609946933E-02  0.10204397376E+01  0.10201693319E+01 0.  0.
     999903    2    3    3    0    0  0.65561035399E-01  0.11383357653E+00  0.33342888276E-02  0.13294240261E+00  0.20155208271E-01 0.  0.
         14    1    1    2    0    0 -0.20151223451E-01 -0.81977676190E-02 -0.88609946933E-02  0.23490262397E-01  0.00000000000E+00 0.  1.
     999901    1    3    3    0    0 -0.45409811947E-01 -0.10563580891E+00  0.55267058657E-02  0.88749733500E+00  0.88000000000E+00 0. -1.
        -11    1    4    4    0    0  0.23936022876E-01  0.28801272495E-01 -0.55062445873E-02  0.37855334353E-01  0.51100000000E-03 0. -1.
         11    1    4    4    0    0  0.41625012522E-01  0.85032304037E-01  0.88405334148E-02  0.95087068255E-01  0.51100000000E-03 0.  1.
</event>
<event>
 8    1  0.1079508E+005  0.1043930E+01  0.7957747E-01            NaN
         13   -1    0    0    0    0  0.00000000000E+00  0.00000000000E+00  0.74505805969E-08  0.10566000000E+00  0.10566000000E+00 0. -1.
     999900   -1    0    0    0    0 -0.00000000000E+00 -0.00000000000E+00 -0.74505805969E-08  0.93827000000E+00  0.93827000000E+00 0. -1.
     999902    2    1    2    0    0 -0.15636056178E-01  0.68162090424E-02  0.16935075307E-01  0.10198936997E+01  0.10196104231E+01 0.  0.
     999903    2    3    3    0    0 -0.93443298587E-01 -0.82786621855E-01 -0.30585417861E-01  0.13065760528E+00  0.23466299716E-01 0.  0.
         14    1    1    2    0    0  0.15636056178E-01 -0.68162090424E-02 -0.16935075307E-01  0.24036300342E-01  0.00000000000E+00 0.  1.
     999901    1    3    3    0    0  0.77807242409E-01  0.89602830898E-01  0.47520493168E-01  0.88923609438E+00  0.88000000000E+00 0.  1.
        -11    1    4    4    0    0 -0.75280555844E-01 -0.71805257122E-01 -0.16902551395E-01  0.10539978370E+00  0.51100000000E-03 0. -1.
         11    1    4    4    0    0 -0.18162742742E-01 -0.10981364733E-01 -0.13682866466E-01  0.25257821582E-01  0.51100000000E-03 0.  1.
</event>
<event>
 8    1  0.1079508E+005  0.1043930E+01  0.7957747E-01            NaN
         13   -1    0    0    0    0  0.00000000000E+00  0.00000000000E+00  0.74505805969E-08  0.10566000000E+00  0.10566000000E+00 0. -1.
     999900   -1    0    0    0    0 -0.00000000000E+00 -0.00000000000E+00 -0.74505805969E-08  0.93827000000E+00  0.93827000000E+00 0.  1.
     999902    2    1    2    0    0 -0.17107269716E-01  0.12419641195E-02 -0.68056047220E-02  0.10254768862E+01  0.10253108440E+01 0.  0.
     999903    2    3    3    0    0 -0.11891954266E+00 -0.64003006477E-01  0.11637718753E-01  0.13701596909E+00  0.19992419151E-01 0.  0.
         14    1    1    2    0    0  0.17107269716E-01 -0.12419641195E-02  0.68056047220E-02  0.18453113766E-01  0.00000000000E+00 0. -1.
     999901    1    3    3    0    0  0.10181227294E+00  0.65244970597E-01 -0.18443323475E-01  0.88846091714E+00  0.88000000000E+00 0.  1.
        -11    1    4    4    0    0 -0.64742665935E-01 -0.28933644479E-01  0.14625278106E-01  0.72408068997E-01  0.51100000000E-03 0. -1.
         11    1    4    4    0    0 -0.54176876725E-01 -0.35069361998E-01 -0.29875593528E-02  0.64607900094E-01  0.51100000000E-03 0.  1.
</event>
<event>
 8    1  0.1079508E+005  0.1043930E+01  0.7957747E-01            NaN
         13   -1    0    0    0    0  0.00000000000E+00  0.00000000000E+00  0.74505805969E-08  0.10566000000E+00  0.10566000000E+00 0.  1.
     999900   -1    0    0    0    0 -0.00000000000E+00 -0.00000000000E+00 -0.74505805969E-08  0.93827000000E+00  0.93827000000E+00 0. -1.
     999902    2    1    2    0    0  0.64979993680E-03  0.22769777869E-01 -0.31120596342E-02  0.10209393510E+01  0.10206804537E+01 0.  0.
     999903    2    3    3    0    0  0.66691749513E-01 -0.33298509760E-01 -0.10552089572E+00  0.13077489338E+00  0.20269018244E-01 0.  0.
         14    1    1    2    0    0 -0.64979993680E-03 -0.22769777869E-01  0.31120596342E-02  0.22990648954E-01  0.00000000000E+00 0. -1.
     999901    1    3    3    0    0 -0.66041949576E-01  0.56068287629E-01  0.10240883608E+00  0.89016445766E+00  0.88000000000E+00 0.  1.
        -11    1    4    4    0    0  0.30255737410E-01 -0.22622493637E-01 -0.65439937292E-01  0.75563439429E-01  0.51100000000E-03 0. -1.
         11    1    4    4    0    0  0.36436012103E-01 -0.10676016123E-01 -0.40080958426E-01  0.55211453952E-01  0.51100000000E-03 0.  1.
</event>
<event>
 8    1  0.1079508E+005  0.1043930E+01  0.7957747E-01            NaN
         13   -1    0    0    0    0  0.00000000000E+00  0.00000000000E+00  0.74505805969E-08  0.10566000000E+00  0.10566000000E+00 0.  1.
     999900   -1    0    0    0    0 -0.00000000000E+00 -0.00000000000E+00 -0.74505805969E-08  0.93827000000E+00  0.93827000000E+00 0.  1.
     999902    2    1    2    0    0  0.20288582419E-02 -0.17516965973E-01  0.15372596068E-01  0.10205360462E+01  0.10202678788E+01 0.  0.
     999903    2    3    3    0    0  0.11945010908E+00 -0.42789071611E-01 -0.27659227979E-01  0.13133518740E+00  0.19612887324E-01 0.  0.
         14    1    1    2    0    0 -0.20288582419E-02  0.17516965973E-01 -0.15372596068E-01  0.23393953761E-01  0.00000000000E+00 0. -1.
     999901    1    3    3    0    0 -0.11742125084E+00  0.25272105637E-01  0.43031824047E-01  0.88920085884E+00  0.88000000000E+00 0. -1.
        -11    1    4    4    0    0  0.56757753547E-01 -0.30094500128E-01 -0.17317939531E-01  0.66537911571E-01  0.51100000000E-03 0. -1.
         11    1    4    4    0    0  0.62692355535E-01 -0.12694571483E-01 -0.10341288448E-01  0.64797275833E-01  0.51100000000E-03 0.  1.
</event>
<event>
 8    1  0.1079508E+005  0.1043930E+01  0.7957747E-01            NaN
         13   -1    0    0    0    0  0.00000000000E+00  0.00000000000E+00  0.74505805969E-08  0.10566000000E+00  0.10566000000E+00 0. -1.
     999900   -1    0    0    0    0 -0.00000000000E+00 -0.00000000000E+00 -0.74505805969E-08  0.93827000000E+00  0.93827000000E+00 0. -1.
     999902    2    1    2    0    0  0.99916686107E-02 -0.98817955199E-02 -0.18831699674E-01  0.10204328462E+01  0.10201622799E+01 0.  0.
     999903    2    3    3    0    0 -0.11077503316E+00 -0.65577602714E-01 -0.35860272737E-02  0.13030979306E+00  0.19906095188E-01 0.  0.
         14    1    1    2    0    0 -0.99916686107E-02  0.98817955199E-02  0.18831699674E-01  0.23497153805E-01  0.00000000000E+00 0.  1.
     999901    1    3    3    0    0  0.12076670177E+00  0.55695807194E-01 -0.15245672401E-01  0.89012305314E+00  0.88000000000E+00 0. -1.
        -11    1    4    4    0    0 -0.79968441046E-01 -0.41872888909E-01  0.53280948510E-02  0.90426434767E-01  0.51100000000E-03 0. -1.
         11    1    4    4    0    0 -0.30806592117E-01 -0.23704713805E-01 -0.89141221248E-02  0.39883358292E-01  0.51100000000E-03 0.  1.
</event>
<event>
 8    1  0.1079508E+005  0.1043930E+01  0.7957747E-01            NaN
         13   -1    0    0    0    0  0.00000000000E+00  0.00000000000E+00  0.74505805969E-08  0.10566000000E+00  0.10566000000E+00 0.  1.
     999900   -1    0    0    0    0 -0.00000000000E+00 -0.00000000000E+00 -0.74505805969E-08  0.93827000000E+00  0.93827000000E+00 0. -1.
     999902    2    1    2    0    0  0.14074462021E-01 -0.76483008834E-02  0.19377822136E-01  0.10187886600E+01  0.10184783978E+01 0.  0.
     999903    2    3    3    0    0 -0.35794889164E-01 -0.11171916069E+00 -0.48565849956E-01  0.12865718731E+00  0.20774626562E-01 0.  0.
         14    1    1    2    0    0 -0.14074462021E-01  0.76483008834E-02 -0.19377822136E-01  0.25141340026E-01  0.00000000000E+00 0. -1.
     999901    1    3    3    0    0  0.49869351185E-01  0.10407085981E+00  0.67943672092E-01  0.89013147266E+00  0.88000000000E+00 0.  1.
        -11    1    4    4    0    0 -0.22439430256E-01 -0.95498718764E-01 -0.39085219682E-01  0.10560042062E+00  0.51100000000E-03 0.  1.
         11    1    4    4    0    0 -0.13355458909E-01 -0.16220441927E-01 -0.94806302735E-02  0.23056766693E-01  0.51100000000E-03 0. -1.
</event>
<event>
 8    1  0.1079508E+005  0.1043930E+01  0.7957747E-01            NaN
         13   -1    0    0    0    0  0.00000000000E+00  0.00000000000E+00  0.74505805969E-08  0.10566000000E+00  0.10566000000E+00 0.  1.
     999900   -1    0    0    0    0 -0.00000000000E+00 -0.00000000000E+00 -0.74505805969E-08  0.93827000000E+00  0.93827000000E+00 0. -1.
     999902    2    1    2    0    0 -0.24818354185E-02  0.96414374365E-02  0.18471414506E-01  0.10229464356E+01  0.10227311964E+01 0.  0.
     999903    2    3    3    0    0  0.59219984410E-01  0.12353463748E-01 -0.11426582016E+00  0.13085134919E+00  0.20144063830E-01 0.  0.
         14    1    1    2    0    0  0.24818354185E-02 -0.96414374365E-02 -0.18471414506E-01  0.20983564443E-01  0.00000000000E+00 0.  1.
     999901    1    3    3    0    0 -0.61701819829E-01 -0.27120263112E-02  0.13273723467E+00  0.89209508637E+00  0.88000000000E+00 0.  1.
        -11    1    4    4    0    0  0.21858995095E-01  0.11147974055E-01 -0.61215942468E-01  0.65952602112E-01  0.51100000000E-03 0.  1.
         11    1    4    4    0    0  0.37360989315E-01  0.12054896927E-02 -0.53049877691E-01  0.64898747076E-01  0.51100000000E-03 0. -1.
</event>
<event>
 8    1  0.1079508E+005  0.1043930E+01  0.7957747E-01            NaN
         13   -1    0    0    0    0  0.00000000000E+00  0.00000000000E+00  0.74505805969E-08  0.10566000000E+00  0.10566000000E+00 0.  1.
     999900   -1    0    0    0    0 -0.00000000000E+00 -0.00000000000E+00 -0.74505805969E-08  0.93827000000E+00  0.93827000000E+00 0.  1.
     999902    2    1    2    0    0 -0.19351553979E-01 -0.60216808413E-02 -0.12999824941E-01  0.10198522358E+01  0.10195679693E+01 0.  0.
     999903    2    3    3    0    0  0.76040406452E-01 -0.84772838053E-01 -0.59399616898E-01  0.12999027369E+00  0.20014476778E-01 0.  0.
         14    1    1    2    0    0  0.19351553979E-01  0.60216808413E-02  0.12999824941E-01  0.24077764225E-01  0.00000000000E+00 0.  1.
     999901    1    3    3    0    0 -0.95391960431E-01  0.78751157212E-01  0.46399791957E-01  0.88986196209E+00  0.88000000000E+00 0. -1.
        -11    1    4    4    0    0  0.11152775592E-01 -0.18107905394E-01 -0.37980960485E-02  0.21609426086E-01  0.51100000000E-03 0. -1.
         11    1    4    4    0    0  0.64887630860E-01 -0.66664932659E-01 -0.55601520849E-01  0.10838084760E+00  0.51100000000E-03 0.  1.
</event>
<event>
 8    1  0.1079508E+005  0.1043930E+01  0.7957747E-01            NaN
         13   -1    0    0    0    0  0.00000000000E+00  0.00000000000E+00  0.74505805969E-08  0.10566000000E+00  0.10566000000E+00 0.  1.
     999900   -1    0    0    0    0 -0.00000000000E+00 -0.00000000000E+00 -0.74505805969E-08  0.93827000000E+00  0.93827000000E+00 0. -1.
     999902    2    1    2    0    0  0.35308678340E-02 -0.93991937884E-02 -0.21591468365E-01  0.10201181673E+01  0.10198402188E+01 0.  0.
     999903    2    3    3    0    0  0.24525812900E-01 -0.60760312232E-02 -0.12947834636E+00  0.13327465821E+00  0.18948844046E-01 0.  0.
         14    1    1    2    0    0 -0.35308678340E-02  0.93991937884E-02  0.21591468365E-01  0.23811832725E-01  0.00000000000E+00 0.  1.
     999901    1    3    3    0    0 -0.20994945066E-01 -0.33231625651E-02  0.10788687800E+00  0.88684350907E+00  0.88000000000E+00 0.  1.
        -11    1    4    4    0    0  0.23586320247E-01  0.52077724594E-03 -0.11397574277E+00  0.11639294125E+00  0.51100000000E-03 0. -1.
         11    1    4    4    0    0  0.93949265283E-03 -0.65968084692E-02 -0.15502603593E-01  0.16881716962E-01  0.51100000000E-03 0.  1.
</event>
<event>
 8    1  0.1079508E+005  0.1043930E+01  0.7957747E-01            NaN
         13   -1    0    0    0    0  0.00000000000E+00  0.00000000000E+00  0.74505805969E-08  0.10566000000E+00  0.10566000000E+00 0.  1.
     999900   -1    0    0    0    0 -0.00000000000E+00 -0.00000000000E+00 -0.74505805969E-08  0.93827000000E+00  0.93827000000E+00 0. -1.
     999902    2    1    2    0    0  0.18634962662E-01  0.76894020579E-02  0.12769154359E-01  0.10200670572E+01  0.10197879000E+01 0.  0.
     999903    2    3    3    0    0  0.34351211734E-01 -0.76202837805E-01  0.99886982725E-01  0.13165587736E+00  0.19208916892E-01 0.  0.
         14    1    1    2    0    0 -0.18634962662E-01 -0.76894020579E-02 -0.12769154359E-01  0.23862942829E-01  0.00000000000E+00 0.  1.
     999901    1    3    3    0    0 -0.15716249071E-01  0.83892239863E-01 -0.87117828366E-01  0.88841117981E+00  0.88000000000E+00 0. -1.
        -11    1    4    4    0    0  0.31903951479E-01 -0.55638893048E-01  0.66704770247E-01  0.92538294961E-01  0.51100000000E-03 0.  1.
         11    1    4    4    0    0  0.24472602542E-02 -0.20563944757E-01  0.33182212478E-01  0.39117582398E-01  0.51100000000E-03 0. -1.
</event>
<event>
 8    1  0.1079508E+005  0.1043930E+01  0.7957747E-01            NaN
         13   -1    0    0    0    0  0.00000000000E+00  0.00000000000E+00  0.74505805969E-08  0.10566000000E+00  0.10566000000E+00 0.  1.
     999900   -1    0    0    0    0 -0.00000000000E+00 -0.00000000000E+00 -0.74505805969E-08  0.93827000000E+00  0.93827000000E+00 0. -1.
     999902    2    1    2    0    0  0.23624122037E-01  0.47311816933E-02 -0.65435971101E-02  0.10189639854E+01  0.10186580887E+01 0.  0.
     999903    2    3    3    0    0 -0.19132154909E-01 -0.12358314178E+00  0.22357342525E-01  0.12816213922E+00  0.16936672663E-01 0.  0.
         14    1    1    2    0    0 -0.23624122037E-01 -0.47311816933E-02  0.65435971101E-02  0.24966014607E-01  0.00000000000E+00 0.  1.
     999901    1    3    3    0    0  0.42756276946E-01  0.12831432348E+00 -0.28900939635E-01  0.89080184617E+00  0.88000000000E+00 0.  1.
        -11    1    4    4    0    0 -0.74345208338E-02 -0.77622014284E-01  0.20809475203E-01  0.80707772741E-01  0.51100000000E-03 0.  1.
         11    1    4    4    0    0 -0.11697634075E-01 -0.45961127500E-01  0.15478673215E-02  0.47454366483E-01  0.51100000000E-03 0. -1.
</event>
<event>
 8    1  0.1079508E+005  0.1043930E+01  0.7957747E-01            NaN
         13   -1    0    0    0    0  0.00000000000E+00  0.00000000000E+00  0.74505805969E-08  0.10566000000E+00  0.10566000000E+00 0. -1.
     999900   -1    0    0    0    0 -0.00000000000E+00 -0.00000000000E+00 -0.74505805969E-08  0.93827000000E+00  0.93827000000E+00 0. -1.
     999902    2    1    2    0    0  0.13783119378E-01 -0.18755549058E-01  0.41220239847E-02  0.10202924011E+01  0.10200185526E+01 0.  0.
     999903    2    3    3    0    0  0.10062648909E+00 -0.84520147048E-01  0.12338104818E-01  0.13353749855E+00  0.20265466278E-01 0.  0.
         14    1    1    2    0    0 -0.13783119378E-01  0.18755549058E-01 -0.41220239847E-02  0.23637598905E-01  0.00000000000E+00 0.  1.
     999901    1    3    3    0    0 -0.86843369712E-01  0.65764597991E-01 -0.82160808329E-02  0.88675490255E+00  0.88000000000E+00 0. -1.
        -11    1    4    4    0    0  0.79405300981E-01 -0.76525540287E-01  0.98605238938E-02  0.11071969650E+00  0.51100000000E-03 0. -1.
         11    1    4    4    0    0  0.21221188109E-01 -0.79946067615E-02  0.24775809238E-02  0.22817802047E-01  0.51100000000E-03 0.  1.
</event>
<event>
 8    1  0.1079508E+005  0.1043930E+01  0.7957747E-01            NaN
         13   -1    0    0    0    0  0.00000000000E+00  0.00000000000E+00  0.74505805969E-08  0.10566000000E+00  0.10566000000E+00 0. -1.
     999900   -1    0    0    0    0 -0.00000000000E+00 -0.00000000000E+00 -0.74505805969E-08  0.93827000000E+00  0.93827000000E+00 0. -1.
     999902    2    1    2    0    0  0.58203283102E-02 -0.20860828804E-01  0.11030219387E-01  0.10196253474E+01  0.10193356331E+01 0.  0.
     999903    2    3    3    0    0 -0.43745224314E-01 -0.12160667694E+00 -0.22485054209E-01  0.13185863055E+00  0.13390005945E-01 0.  0.
         14    1    1    2    0    0 -0.58203283102E-02  0.20860828804E-01 -0.11030219387E-01  0.24304652636E-01  0.00000000000E+00 0.  1.
     999901    1    3    3    0    0  0.49565552624E-01  0.10074584814E+00  0.33515273596E-01  0.88776671682E+00  0.88000000000E+00 0.  1.
        -11    1    4    4    0    0 -0.16141257873E-01 -0.63845387508E-01 -0.13245284548E-01  0.67174938746E-01  0.51100000000E-03 0. -1.
         11    1    4    4    0    0 -0.27603966440E-01 -0.57761289436E-01 -0.92397696606E-02  0.64683691800E-01  0.51100000000E-03 0.  1.
</event>
<event>
 8    1  0.1079508E+005  0.1043930E+01  0.7957747E-01            NaN
         13   -1    0    0    0    0  0.00000000000E+00  0.00000000000E+00  0.74505805969E-08  0.10566000000E+00  0.10566000000E+00 0. -1.
     999900   -1    0    0    0    0 -0.00000000000E+00 -0.00000000000E+00 -0.74505805969E-08  0.93827000000E+00  0.93827000000E+00 0. -1.
     999902    2    1    2    0    0  0.13151928913E-01  0.16196902168E-01  0.93649218763E-02  0.10210604868E+01  0.10208043412E+01 0.  0.
     999903    2    3    3    0    0 -0.83136072927E-01 -0.79614767611E-01  0.55778285450E-01  0.12942970237E+00  0.19766458545E-01 0.  0.
         14    1    1    2    0    0 -0.13151928913E-01 -0.16196902168E-01 -0.93649218763E-02  0.22869513238E-01  0.00000000000E+00 0.  1.
     999901    1    3    3    0    0  0.96288001840E-01  0.95811669779E-01 -0.46413363574E-01  0.89163078440E+00  0.88000000000E+00 0.  1.
        -11    1    4    4    0    0 -0.18720588464E-01 -0.24866342336E-01  0.23224496545E-01  0.38838560406E-01  0.51100000000E-03 0. -1.
         11    1    4    4    0    0 -0.64415484463E-01 -0.54748425275E-01  0.32553788905E-01  0.90591141961E-01  0.51100000000E-03 0.  1.
</event>
<event>
 8    1  0.1079508E+005  0.1043930E+01  0.7957747E-01            NaN
         13   -1    0    0    0    0  0.00000000000E+00  0.00000000000E+00  0.74505805969E-08  0.10566000000E+00  0.10566000000E+00 0.  1.
     999900   -1    0    0    0    0 -0.00000000000E+00 -0.00000000000E+00 -0.74505805969E-08  0.93827000000E+00  0.93827000000E+00 0.  1.
     999902    2    1    2    0    0  0.73180156513E-02 -0.19151444443E-01 -0.11212955189E-01  0.10205620403E+01  0.10202944754E+01 0.  0.
     999903    2    3    3    0    0 -0.55749841899E-01 -0.11234783577E+00 -0.39616673896E-01  0.13294168605E+00  0.19337268827E-01 0.  0.
         14    1    1    2    0    0 -0.73180156513E-02  0.19151444443E-01  0.11212955189E-01  0.23367959719E-01  0.00000000000E+00 0. -1.
     999901    1    3    3    0    0  0.63067857550E-01  0.93196391324E-01  0.28403718707E-01  0.88762035423E+00  0.88000000000E+00 0. -1.
        -11    1    4    4    0    0 -0.35629487456E-01 -0.50890234231E-01 -0.16682509388E-01  0.64326072140E-01  0.51100000000E-03 0.  1.
         11    1    4    4    0    0 -0.20120354444E-01 -0.61457601535E-01 -0.22934164509E-01  0.68615613909E-01  0.51100000000E-03 0. -1.
</event>
<event>
 8    1  0.1079508E+005  0.1043930E+01  0.7957747E-01            NaN
         13   -1    0    0    0    0  0.00000000000E+00  0.00000000000E+00  0.74505805969E-08  0.10566000000E+00  0.10566000000E+00 0. -1.
     999900   -1    0    0    0    0 -0.00000000000E+00 -0.00000000000E+00 -0.74505805969E-08  0.93827000000E+00  0.93827000000E+00 0.  1.
     999902    2    1    2    0    0  0.11124779827E-01 -0.16503920123E-01 -0.13265146810E-01  0.10200112997E+01  0.10197308210E+01 0.  0.
     999903    2    3    3    0    0 -0.12152312369E+00  0.17647179480E-01  0.31678334924E-01  0.12828169914E+00  0.19323169889E-01 0.  0.
         14    1    1    2    0    0 -0.11124779827E-01  0.16503920123E-01  0.13265146810E-01  0.23918700330E-01  0.00000000000E+00 0. -1.
     999901    1    3    3    0    0  0.13264790352E+00 -0.34151099603E-01 -0.44943481734E-01  0.89172960053E+00  0.88000000000E+00 0.  1.
        -11    1    4    4    0    0 -0.74463960819E-01  0.79331575466E-02  0.28485301533E-01  0.80121719739E-01  0.51100000000E-03 0.  1.
         11    1    4    4    0    0 -0.47059162874E-01  0.97140219338E-02  0.31930333917E-02  0.48159979400E-01  0.51100000000E-03 0. -1.
</event>
<event>
 8    1  0.1311486E+005  0.1043930E+01  0.7957747E-01            NaN
         13   -1    0    0    0    0  0.00000000000E+00  0.00000000000E+00  0.74505805969E-08  0.10566000000E+00  0.10566000000E+00 0.  1.
     999900   -1    0    0    0    0 -0.00000000000E+00 -0.00000000000E+00 -0.74505805969E-08  0.93827000000E+00  0.93827000000E+00 0.  1.
     999902    2    1    2    0    0  0.38013862185E-02  0.21719774028E-01  0.90176867225E-02  0.10201073680E+01  0.10198291644E+01 0.  0.
     999903    2    3    3    0    0  0.48870219187E-01 -0.63859960404E-01  0.10047274700E+00  0.13009662723E+00  0.19077910312E-01 0.  0.
         14    1    1    2    0    0 -0.38013862185E-02 -0.21719774028E-01 -0.90176867225E-02  0.23822631988E-01  0.00000000000E+00 0.  1.
     999901    1    3    3    0    0 -0.45068832969E-01  0.85579734432E-01 -0.91455060276E-01  0.89001074078E+00  0.88000000000E+00 0.  1.
        -11    1    4    4    0    0  0.38018522361E-01 -0.37596529282E-01  0.56974245511E-01  0.78135989334E-01  0.51100000000E-03 0.  1.
         11    1    4    4    0    0  0.10851696826E-01 -0.26263431122E-01  0.43498501487E-01  0.51960637899E-01  0.51100000000E-03 0. -1.
</event>
<event>
 8    1  0.1079508E+005  0.1043930E+01  0.7957747E-01            NaN
         13   -1    0    0    0    0  0.00000000000E+00  0.00000000000E+00  0.74505805969E-08  0.10566000000E+00  0.10566000000E+00 0.  1.
     999900   -1    0    0    0    0 -0.00000000000E+00 -0.00000000000E+00 -0.74505805969E-08  0.93827000000E+00  0.93827000000E+00 0.  1.
     999902    2    1    2    0    0  0.89080282452E-02 -0.83215467528E-02  0.21371382137E-01  0.10193264010E+01  0.10190294278E+01 0.  0.
     999903    2    3    3    0    0  0.35291504907E-03  0.10066592152E+00 -0.74851696778E-01  0.12735648051E+00  0.21980543965E-01 0.  0.
         14    1    1    2    0    0 -0.89080282452E-02  0.83215467528E-02 -0.21371382137E-01  0.24603598965E-01  0.00000000000E+00 0. -1.
     999901    1    3    3    0    0  0.85551131962E-02 -0.10898746827E+00  0.96223078915E-01  0.89196992052E+00  0.88000000000E+00 0. -1.
        -11    1    4    4    0    0  0.92334435869E-02  0.65169203522E-01 -0.41278718574E-01  0.77694757199E-01  0.51100000000E-03 0.  1.
         11    1    4    4    0    0 -0.88805285379E-02  0.35496717999E-01 -0.33572978205E-01  0.49661723312E-01  0.51100000000E-03 0. -1.
</event>
<event>
 8    1  0.1079508E+005  0.1043930E+01  0.7957747E-01            NaN
         13   -1    0    0    0    0  0.00000000000E+00  0.00000000000E+00  0.74505805969E-08  0.10566000000E+00  0.10566000000E+00 0.  1.
     999900   -1    0    0    0    0 -0.00000000000E+00 -0.00000000000E+00 -0.74505805969E-08  0.93827000000E+00  0.93827000000E+00 0. -1.
     999902    2    1    2    0    0 -0.51344060275E-02 -0.87035304381E-02  0.13224350931E-01  0.10272867724E+01  0.10271519438E+01 0.  0.
     999903    2    3    3    0    0  0.33001400644E-01 -0.37169308356E-01 -0.12417924105E+00  0.13535382237E+00  0.20724946168E-01 0.  0.
         14    1    1    2    0    0  0.51344060275E-02  0.87035304381E-02 -0.13224350931E-01  0.16643227599E-01  0.00000000000E+00 0. -1.
     999901    1    3    3    0    0 -0.38135806672E-01  0.28465777918E-01  0.13740359198E+00  0.89193295003E+00  0.88000000000E+00 0.  1.
        -11    1    4    4    0    0  0.28487964041E-01 -0.17000021248E-01 -0.76646698091E-01  0.83519711846E-01  0.51100000000E-03 0.  1.
         11    1    4    4    0    0  0.45134366038E-02 -0.20169287108E-01 -0.47532542961E-01  0.51834110523E-01  0.51100000000E-03 0. -1.
</event>
<event>
 8    1  0.1079508E+005  0.1043930E+01  0.7957747E-01            NaN
         13   -1    0    0    0    0  0.00000000000E+00  0.00000000000E+00  0.74505805969E-08  0.10566000000E+00  0.10566000000E+00 0.  1.
     999900   -1    0    0    0    0 -0.00000000000E+00 -0.00000000000E+00 -0.74505805969E-08  0.93827000000E+00  0.93827000000E+00 0.  1.
     999902    2    1    2    0    0  0.25543866725E-01 -0.77180460384E-03 -0.19976758479E-02  0.10182965157E+01  0.10179738299E+01 0.  0.
     999903    2    3    3    0    0 -0.11331560131E+00  0.18060465226E-01  0.46990874052E-01  0.12586361385E+00  0.21607895347E-01 0.  0.
         14    1    1    2    0    0 -0.25543866725E-01  0.77180460384E-03  0.19976758479E-02  0.25633484320E-01  0.00000000000E+00 0.  1.
     999901    1    3    3    0    0  0.13885946804E+00 -0.18832269830E-01 -0.48988549899E-01  0.89243290183E+00  0.88000000000E+00 0. -1.
        -11    1    4    4    0    0 -0.10385800871E+00  0.22368620308E-01  0.44367312489E-01  0.11513279587E+00  0.51100000000E-03 0. -1.
         11    1    4    4    0    0 -0.94575926058E-02 -0.43081550818E-02  0.26235615625E-02  0.10730817973E-01  0.51100000000E-03 0.  1.
</event>
<event>
 8    1  0.1079508E+005  0.1043930E+01  0.7957747E-01            NaN
         13   -1    0    0    0    0  0.00000000000E+00  0.00000000000E+00  0.74505805969E-08  0.10566000000E+00  0.10566000000E+00 0.  1.
     999900   -1    0    0    0    0 -0.00000000000E+00 -0.00000000000E+00 -0.74505805969E-08  0.93827000000E+00  0.93827000000E+00 0. -1.
     999902    2    1    2    0    0  0.50944270063E-02 -0.24535484524E-01 -0.21927221486E-01  0.10106321588E+01  0.10100834689E+01 0.  0.
     999903    2    3    3    0    0 -0.42862248285E-02  0.71621237531E-01  0.91738665310E-01  0.11807737299E+00  0.19450190516E-01 0.  0.
         14    1    1    2    0    0 -0.50944270063E-02  0.24535484524E-01  0.21927221486E-01  0.33297841213E-01  0.00000000000E+00 0.  1.
     999901    1    3    3    0    0  0.93806518348E-02 -0.96156722054E-01 -0.11366588680E+00  0.89255478580E+00  0.88000000000E+00 0. -1.
        -11    1    4    4    0    0  0.28236633969E-02  0.49058279960E-01  0.50055253568E-01  0.70146114920E-01  0.51100000000E-03 0.  1.
         11    1    4    4    0    0 -0.71098882254E-02  0.22562957571E-01  0.41683411741E-01  0.47931258071E-01  0.51100000000E-03 0. -1.
</event>
<event>
 8    1  0.1079508E+005  0.1043930E+01  0.7957747E-01            NaN
         13   -1    0    0    0    0  0.00000000000E+00  0.00000000000E+00  0.74505805969E-08  0.10566000000E+00  0.10566000000E+00 0. -1.
     999900   -1    0    0    0    0 -0.00000000000E+00 -0.00000000000E+00 -0.74505805969E-08  0.93827000000E+00  0.93827000000E+00 0. -1.
     999902    2    1    2    0    0 -0.17914702251E-01  0.11811709681E-01  0.90917523808E-02  0.10206252150E+01  0.10203591115E+01 0.  0.
     999903    2    3    3    0    0  0.60616709360E-01 -0.95145791534E-01  0.59860763682E-01  0.12923047518E+00  0.19750888256E-01 0.  0.
         14    1    1    2    0    0  0.17914702251E-01 -0.11811709681E-01 -0.90917523808E-02  0.23304784995E-01  0.00000000000E+00 0. -1.
     999901    1    3    3    0    0 -0.78531411611E-01  0.10695750121E+00 -0.50769011301E-01  0.89139473982E+00  0.88000000000E+00 0.  1.
        -11    1    4    4    0    0  0.48178637561E-01 -0.76911133176E-01  0.38749086580E-01  0.98682604118E-01  0.51100000000E-03 0.  1.
         11    1    4    4    0    0  0.12438071799E-01 -0.18234658358E-01  0.21111677102E-01  0.30547871064E-01  0.51100000000E-03 0. -1.
</event>
<event>
 8    1  0.1079508E+005  0.1043930E+01  0.7957747E-01            NaN
         13   -1    0    0    0    0  0.00000000000E+00  0.00000000000E+00  0.74505805969E-08  0.10566000000E+00  0.10566000000E+00 0. -1.
     999900   -1    0    0    0    0 -0.00000000000E+00 -0.00000000000E+00 -0.74505805969E-08  0.93827000000E+00  0.93827000000E+00 0.  1.
     999902    2    1    2    0    0 -0.23711605905E-01  0.46276770611E-02  0.29274964150E-02  0.10195943084E+01  0.10193038447E+01 0.  0.
     999903    2    3    3    0    0  0.46347345915E-01 -0.68602033046E-01 -0.95570202504E-01  0.12831845669E+00  0.21855143791E-01 0.  0.
         14    1    1    2    0    0  0.23711605905E-01 -0.46276770611E-02 -0.29274964150E-02  0.24335691583E-01  0.00000000000E+00 0.  1.
     999901    1    3    3    0    0 -0.70058951820E-01  0.73229710107E-01  0.98497698919E-01  0.89127585172E+00  0.88000000000E+00 0. -1.
        -11    1    4    4    0    0  0.22321116029E-01 -0.33760695267E-01 -0.30444033343E-01  0.50646984638E-01  0.51100000000E-03 0.  1.
         11    1    4    4    0    0  0.24026229886E-01 -0.34841337779E-01 -0.65126169161E-01  0.77671472056E-01  0.51100000000E-03 0. -1.
</event>
<event>
 8    1  0.1079508E+005  0.1043930E+01  0.7957747E-01            NaN
         13   -1    0    0    0    0  0.00000000000E+00  0.00000000000E+00  0.74505805969E-08  0.10566000000E+00  0.10566000000E+00 0.  1.
     999900   -1    0    0    0    0 -0.00000000000E+00 -0.00000000000E+00 -0.74505805969E-08  0.93827000000E+00  0.93827000000E+00 0.  1.
     999902    2    1    2    0    0  0.16294356516E-01  0.32402060692E-02  0.16057223278E-01  0.10208250350E+01  0.10205635270E+01 0.  0.
     999903    2    3    3    0    0 -0.46620668012E-01  0.11718623411E+00 -0.25217484310E-01  0.13029395797E+00  0.20844515319E-01 0.  0.
         14    1    1    2    0    0 -0.16294356516E-01 -0.32402060692E-02 -0.16057223278E-01  0.23104965030E-01  0.00000000000E+00 0. -1.
     999901    1    3    3    0    0  0.62915024528E-01 -0.11394602804E+00  0.41274707588E-01  0.89053107700E+00  0.88000000000E+00 0. -1.
        -11    1    4    4    0    0 -0.64218700019E-02  0.41644336321E-01 -0.57032137023E-02  0.42523863059E-01  0.51100000000E-03 0.  1.
         11    1    4    4    0    0 -0.40198798010E-01  0.75541897785E-01 -0.19514270608E-01  0.87770094911E-01  0.51100000000E-03 0. -1.
</event>
<event>
 8    1  0.1079508E+005  0.1043930E+01  0.7957747E-01            NaN
         13   -1    0    0    0    0  0.00000000000E+00  0.00000000000E+00  0.74505805969E-08  0.10566000000E+00  0.10566000000E+00 0.  1.
     999900   -1    0    0    0    0 -0.00000000000E+00 -0.00000000000E+00 -0.74505805969E-08  0.93827000000E+00  0.93827000000E+00 0.  1.
     999902    2    1    2    0    0 -0.21333202418E-01  0.10525177216E-01  0.56299206298E-03  0.10201350039E+01  0.10198574529E+01 0.  0.
     999903    2    3    3    0    0  0.97792689382E-01  0.81961816036E-01  0.98740426727E-03  0.12923975100E+00  0.20513139355E-01 0.  0.
         14    1    1    2    0    0  0.21333202418E-01 -0.10525177216E-01 -0.56299206298E-03  0.23794996131E-01  0.00000000000E+00 0. -1.
     999901    1    3    3    0    0 -0.11912589180E+00 -0.71436638820E-01 -0.42441220429E-03  0.89089525287E+00  0.88000000000E+00 0. -1.
        -11    1    4    4    0    0  0.25897784144E-01  0.11028127813E-01 -0.17154892763E-02  0.28204943734E-01  0.51100000000E-03 0.  1.
         11    1    4    4    0    0  0.71894905238E-01  0.70933688223E-01  0.27028935436E-02  0.10103480726E+00  0.51100000000E-03 0. -1.
</event>
<event>
 8    1  0.1079508E+005  0.1043930E+01  0.7957747E-01            NaN
         13   -1    0    0    0    0  0.00000000000E+00  0.00000000000E+00  0.74505805969E-08  0.10566000000E+00  0.10566000000E+00 0.  1.
     999900   -1    0    0    0    0 -0.00000000000E+00 -0.00000000000E+00 -0.74505805969E-08  0.93827000000E+00  0.93827000000E+00 0.  1.
     999902    2    1    2    0    0  0.11499437373E-01  0.13285601565E-01  0.14883543377E-01  0.10209025353E+01  0.10206427986E+01 0.  0.
     999903    2    3    3    0    0 -0.85192864106E-01 -0.47281812946E-01  0.84912933861E-01  0.13077786512E+00  0.19981234648E-01 0.  0.
         14    1    1    2    0    0 -0.11499437373E-01 -0.13285601565E-01 -0.14883543377E-01  0.23027464739E-01  0.00000000000E+00 0. -1.
     999901    1    3    3    0    0  0.96692301478E-01  0.60567414512E-01 -0.70029390484E-01  0.89012467014E+00  0.88000000000E+00 0.  1.
        -11    1    4    4    0    0 -0.25663335880E-01 -0.46377070780E-02  0.25505324320E-01  0.36481472354E-01  0.51100000000E-03 0. -1.
         11    1    4    4    0    0 -0.59529528225E-01 -0.42644105868E-01  0.59407609541E-01  0.94296392765E-01  0.51100000000E-03 0.  1.
</event>
<event>
 8    1  0.1079508E+005  0.1043930E+01  0.7957747E-01            NaN
         13   -1    0    0    0    0  0.00000000000E+00  0.00000000000E+00  0.74505805969E-08  0.10566000000E+00  0.10566000000E+00 0.  1.
     999900   -1    0    0    0    0 -0.00000000000E+00 -0.00000000000E+00 -0.74505805969E-08  0.93827000000E+00  0.93827000000E+00 0. -1.
     999902    2    1    2    0    0 -0.34798960726E-02 -0.22963169489E-01 -0.43544477951E-02  0.10202999758E+01  0.10200263048E+01 0.  0.
     999903    2    3    3    0    0 -0.11364056820E-01  0.98109786267E-01  0.78897585798E-01  0.12808266944E+00  0.20631752665E-01 0.  0.
         14    1    1    2    0    0  0.34798960726E-02  0.22963169489E-01  0.43544477951E-02  0.23630024233E-01  0.00000000000E+00 0.  1.
     999901    1    3    3    0    0  0.78841607476E-02 -0.12107295576E+00 -0.83252033594E-01  0.89221730632E+00  0.88000000000E+00 0. -1.
        -11    1    4    4    0    0 -0.15867471299E-01  0.62472132830E-01  0.56747287422E-01  0.85878168218E-01  0.51100000000E-03 0. -1.
         11    1    4    4    0    0  0.45034144787E-02  0.35637653437E-01  0.22150298377E-01  0.42204501225E-01  0.51100000000E-03 0.  1.
</event>
<event>
 8    1  0.1079508E+005  0.1043930E+01  0.7957747E-01            NaN
         13   -1    0    0    0    0  0.00000000000E+00  0.00000000000E+00  0.74505805969E-08  0.10566000000E+00  0.10566000000E+00 0. -1.
     999900   -1    0    0    0    0 -0.00000000000E+00 -0.00000000000E+00 -0.74505805969E-08  0.93827000000E+00  0.93827000000E+00 0.  1.
     999902    2    1    2    0    0  0.15595333201E-01 -0.11324331929E-01 -0.13358149254E-01  0.10204801586E+01  0.10202106934E+01 0.  0.
     999903    2    3    3    0    0  0.70105827203E-01  0.10793500764E+00  0.74923520994E-02  0.13052008788E+00  0.20360872216E-01 0.  0.
         14    1    1    2    0    0 -0.15595333201E-01  0.11324331929E-01  0.13358149254E-01  0.23449841423E-01  0.00000000000E+00 0. -1.
     999901    1    3    3    0    0 -0.54510494002E-01 -0.11925933957E+00 -0.20850501353E-01  0.88996007070E+00  0.88000000000E+00 0. -1.
        -11    1    4    4    0    0  0.39219835489E-01  0.77768398486E-01  0.62892548486E-02  0.87326600452E-01  0.51100000000E-03 0.  1.
         11    1    4    4    0    0  0.30885991714E-01  0.30166609155E-01  0.12030972508E-02  0.43193487426E-01  0.51100000000E-03 0. -1.
</event>
<event>
 8    1  0.1079508E+005  0.1043930E+01  0.7957747E-01            NaN
         13   -1    0    0    0    0  0.00000000000E+00  0.00000000000E+00  0.74505805969E-08  0.10566000000E+00  0.10566000000E+00 0. -1.
     999900   -1    0    0    0    0 -0.00000000000E+00 -0.00000000000E+00 -0.74505805969E-08  0.93827000000E+00  0.93827000000E+00 0. -1.
     999902    2    1    2    0    0 -0.20529186427E-02  0.12884374134E-02 -0.23617332566E-01  0.10201886238E+01  0.10199123370E+01 0.  0.
     999903    2    3    3    0    0  0.95540884399E-01 -0.81449394314E-01  0.25308236333E-01  0.12959117800E+00  0.19781358977E-01 0.  0.
         14    1    1    2    0    0  0.20529186427E-02 -0.12884374134E-02  0.23617332566E-01  0.23741376191E-01  0.00000000000E+00 0. -1.
     999901    1    3    3    0    0 -0.97593803041E-01  0.82737831728E-01 -0.48925568899E-01  0.89059744581E+00  0.88000000000E+00 0. -1.
        -11    1    4    4    0    0  0.84346864024E-01 -0.70859208925E-01  0.28624915367E-01  0.11382033149E+00  0.51100000000E-03 0. -1.
         11    1    4    4    0    0  0.11194020375E-01 -0.10590185389E-01 -0.33166790340E-02  0.15770846507E-01  0.51100000000E-03 0.  1.
</event>
<event>
 8    1  0.1079508E+005  0.1043930E+01  0.7957747E-01            NaN
         13   -1    0    0    0    0  0.00000000000E+00  0.00000000000E+00  0.74505805969E-08  0.10566000000E+00  0.10566000000E+00 0. -1.
     999900   -1    0    0    0    0 -0.00000000000E+00 -0.00000000000E+00 -0.74505805969E-08  0.93827000000E+00  0.93827000000E+00 0.  1.
     999902    2    1    2    0    0  0.69693070111E-02  0.18345875245E-01  0.14917930185E-01  0.10192786913E+01  0.10189805511E+01 0.  0.
     999903    2    3    3    0    0  0.12179962297E+00  0.37000241671E-01  0.26636058768E-01  0.13154489035E+00  0.19758859004E-01 0.  0.
         14    1    1    2    0    0 -0.69693070111E-02 -0.18345875245E-01 -0.14917930185E-01  0.24651308681E-01  0.00000000000E+00 0.  1.
     999901    1    3    3    0    0 -0.11483031596E+00 -0.18654366427E-01 -0.11718128584E-01  0.88773380097E+00  0.88000000000E+00 0. -1.
        -11    1    4    4    0    0  0.87119982281E-01  0.35560205640E-01  0.18833965439E-01  0.95965613180E-01  0.51100000000E-03 0.  1.
         11    1    4    4    0    0  0.34679640693E-01  0.14400360312E-02  0.78020933300E-02  0.35579277167E-01  0.51100000000E-03 0. -1.
</event>
<event>
 8    1  0.1079508E+005  0.1043930E+01  0.7957747E-01            NaN
         13   -1    0    0    0    0  0.00000000000E+00  0.00000000000E+00  0.74505805969E-08  0.10566000000E+00  0.10566000000E+00 0.  1.
     999900   -1    0    0    0    0 -0.00000000000E+00 -0.00000000000E+00 -0.74505805969E-08  0.93827000000E+00  0.93827000000E+00 0.  1.
     999902    2    1    2    0    0  0.33696890926E-02  0.82615628677E-02 -0.22145897697E-01  0.10200543008E+01  0.10197748416E+01 0.  0.
     999903    2    3    3    0    0  0.10278265114E+00  0.48589267182E-01 -0.65268758457E-01  0.13249087106E+00  0.19199735013E-01 0.  0.
         14    1    1    2    0    0 -0.33696890926E-02 -0.82615628677E-02  0.22145897697E-01  0.23875699160E-01  0.00000000000E+00 0.  1.
     999901    1    3    3    0    0 -0.99412962043E-01 -0.40327704315E-01  0.43122860760E-01  0.88756342978E+00  0.88000000000E+00 0. -1.
        -11    1    4    4    0    0  0.96646515161E-01  0.42799426152E-01 -0.54880241594E-01  0.11909845427E+00  0.51100000000E-03 0.  1.
         11    1    4    4    0    0  0.61361359746E-02  0.57898410300E-02 -0.10388516863E-01  0.13392416790E-01  0.51100000000E-03 0. -1.
</event>
<event>
 8    1  0.1079508E+005  0.1043930E+01  0.7957747E-01            NaN
         13   -1    0    0    0    0  0.00000000000E+00  0.00000000000E+00  0.74505805969E-08  0.10566000000E+00  0.10566000000E+00 0.  1.
     999900   -1    0    0    0    0 -0.00000000000E+00 -0.00000000000E+00 -0.74505805969E-08  0.93827000000E+00  0.93827000000E+00 0.  1.
     999902    2    1    2    0    0 -0.23096362176E-02 -0.14877150540E-01 -0.19112536859E-01  0.10195999138E+01  0.10193095856E+01 0.  0.
     999903    2    3    3    0    0  0.72431215441E-01 -0.79717384122E-01  0.69071229999E-01  0.12967473297E+00  0.21060846519E-01 0.  0.
         14    1    1    2    0    0  0.23096362176E-02  0.14877150540E-01  0.19112536859E-01  0.24330086166E-01  0.00000000000E+00 0.  1.
     999901    1    3    3    0    0 -0.74740851658E-01  0.64840233582E-01 -0.88183766858E-01  0.88992518086E+00  0.88000000000E+00 0.  1.
        -11    1    4    4    0    0  0.62135992008E-02 -0.18313484262E-01  0.14282823090E-01  0.24046884981E-01  0.51100000000E-03 0. -1.
         11    1    4    4    0    0  0.66217616240E-01 -0.61403899859E-01  0.54788406909E-01  0.10562784799E+00  0.51100000000E-03 0.  1.
</event>
<event>
 8    1  0.1079508E+005  0.1043930E+01  0.7957747E-01            NaN
         13   -1    0    0    0    0  0.00000000000E+00  0.00000000000E+00  0.74505805969E-08  0.10566000000E+00  0.10566000000E+00 0. -1.
     999900   -1    0    0    0    0 -0.00000000000E+00 -0.00000000000E+00 -0.74505805969E-08  0.93827000000E+00  0.93827000000E+00 0. -1.
     999902    2    1    2    0    0 -0.15231823121E-01 -0.16179577901E-03  0.20048467532E-01  0.10187511266E+01  0.10184399257E+01 0.  0.
     999903    2    3    3    0    0 -0.69823144680E-02  0.12773931923E+00  0.71647344698E-02  0.12937340025E+00  0.17890133589E-01 0.  0.
         14    1    1    2    0    0  0.15231823121E-01  0.16179577901E-03 -0.20048467532E-01  0.25178873363E-01  0.00000000000E+00 0.  1.
     999901    1    3    3    0    0 -0.82495086529E-02 -0.12790111501E+00  0.12883733063E-01  0.88937772639E+00  0.88000000000E+00 0.  1.
        -11    1    4    4    0    0  0.53824068655E-02  0.22939743141E-01 -0.43615732676E-03  0.23572303096E-01  0.51100000000E-03 0. -1.
         11    1    4    4    0    0 -0.12364721333E-01  0.10479957609E+00  0.76008917965E-02  0.10580109716E+00  0.51100000000E-03 0.  1.
</event>
<event>
 8    1  0.1079508E+005  0.1043930E+01  0.7957747E-01            NaN
         13   -1    0    0    0    0  0.00000000000E+00  0.00000000000E+00  0.74505805969E-08  0.10566000000E+00  0.10566000000E+00 0.  1.
     999900   -1    0    0    0    0 -0.00000000000E+00 -0.00000000000E+00 -0.74505805969E-08  0.93827000000E+00  0.93827000000E+00 0.  1.
     999902    2    1    2    0    0 -0.20040426060E-01  0.10377199623E-01  0.70202068425E-02  0.10202955283E+01  0.10200217531E+01 0.  0.
     999903    2    3    3    0    0 -0.11235926495E+00  0.63347682530E-01 -0.26848788645E-01  0.13323535619E+00  0.19831020833E-01 0.  0.
         14    1    1    2    0    0  0.20040426060E-01 -0.10377199623E-01 -0.70202068425E-02  0.23634471705E-01  0.00000000000E+00 0.  1.
     999901    1    3    3    0    0  0.92318838886E-01 -0.52970482907E-01  0.33868995487E-01  0.88706017210E+00  0.88000000000E+00 0.  1.
        -11    1    4    4    0    0 -0.71393485838E-01  0.31016735461E-01 -0.21597512178E-01  0.80782308410E-01  0.51100000000E-03 0.  1.
         11    1    4    4    0    0 -0.40965779109E-01  0.32330947068E-01 -0.52512764669E-02  0.52453047784E-01  0.51100000000E-03 0. -1.
</event>
<event>
 8    1  0.1079508E+005  0.1043930E+01  0.7957747E-01            NaN
         13   -1    0    0    0    0  0.00000000000E+00  0.00000000000E+00  0.74505805969E-08  0.10566000000E+00  0.10566000000E+00 0. -1.
     999900   -1    0    0    0    0 -0.00000000000E+00 -0.00000000000E+00 -0.74505805969E-08  0.93827000000E+00  0.93827000000E+00 0. -1.
     999902    2    1    2    0    0 -0.66952848540E-03  0.69657445380E-02  0.20167834975E-01  0.10225826013E+01  0.10223597532E+01 0.  0.
     999903    2    3    3    0    0  0.89190119050E-01 -0.92244733844E-01  0.24746626804E-01  0.13244865594E+00  0.21593579237E-01 0.  0.
         14    1    1    2    0    0  0.66952848540E-03 -0.69657445380E-02 -0.20167834975E-01  0.21347398740E-01  0.00000000000E+00 0.  1.
     999901    1    3    3    0    0 -0.89859647535E-01  0.99210478382E-01 -0.45787918284E-02  0.89013394532E+00  0.88000000000E+00 0. -1.
        -11    1    4    4    0    0  0.54796428369E-01 -0.70220546785E-01  0.20361271987E-01  0.91369668221E-01  0.51100000000E-03 0. -1.
         11    1    4    4    0    0  0.34393690681E-01 -0.22024187059E-01  0.43853548164E-02  0.41078987720E-01  0.51100000000E-03 0.  1.
</event>
<event>
 8    1  0.1079508E+005  0.1043930E+01  0.7957747E-01            NaN
         13   -1    0    0    0    0  0.00000000000E+00  0.00000000000E+00  0.74505805969E-08  0.10566000000E+00  0.10566000000E+00 0.  1.
     999900   -1    0    0    0    0 -0.00000000000E+00 -0.00000000000E+00 -0.74505805969E-08  0.93827000000E+00  0.93827000000E+00 0.  1.
     999902    2    1    2    0    0  0.66461250378E-02 -0.13690705287E-01 -0.17995098052E-01  0.10203624388E+01  0.10200902296E+01 0.  0.
     999903    2    3    3    0    0  0.60438894560E-01  0.11289067580E+00 -0.56319349762E-02  0.12959346989E+00  0.19120253356E-01 0.  0.
         14    1    1    2    0    0 -0.66461250378E-02  0.13690705287E-01  0.17995098052E-01  0.23567561248E-01  0.00000000000E+00 0.  1.
     999901    1    3    3    0    0 -0.53792769523E-01 -0.12658138108E+00 -0.12363163076E-01  0.89076896886E+00  0.88000000000E+00 0. -1.
        -11    1    4    4    0    0  0.30745675028E-01  0.59871534041E-01  0.65165919055E-02  0.67621181685E-01  0.51100000000E-03 0. -1.
         11    1    4    4    0    0  0.29693219532E-01  0.53019141756E-01 -0.12148526882E-01  0.61972288203E-01  0.51100000000E-03 0.  1.
</event>
<event>
 8    1  0.1079508E+005  0.1043930E+01  0.7957747E-01            NaN
         13   -1    0    0    0    0  0.00000000000E+00  0.00000000000E+00  0.74505805969E-08  0.10566000000E+00  0.10566000000E+00 0. -1.
     999900   -1    0    0    0    0 -0.00000000000E+00 -0.00000000000E+00 -0.74505805969E-08  0.93827000000E+00  0.93827000000E+00 0.  1.
     999902    2    1    2    0    0  0.19608020939E-01 -0.12099653483E-01 -0.67306446413E-02  0.10199262987E+01  0.10196437991E+01 0.  0.
     999903    2    3    3    0    0  0.43231204996E-01 -0.57487606775E-01  0.10772394839E+00  0.13104049331E+00  0.19834308991E-01 0.  0.
         14    1    1    2    0    0 -0.19608020939E-01  0.12099653483E-01  0.67306446413E-02  0.24003701315E-01  0.00000000000E+00 0.  1.
     999901    1    3    3    0    0 -0.23623184057E-01  0.45387953293E-01 -0.11445459303E+00  0.88888580537E+00  0.88000000000E+00 0.  1.
        -11    1    4    4    0    0  0.23016176128E-01 -0.25875670688E-01  0.68491165626E-01  0.76750215550E-01  0.51100000000E-03 0. -1.
         11    1    4    4    0    0  0.20215028868E-01 -0.31611936087E-01  0.39232782761E-01  0.54290277762E-01  0.51100000000E-03 0.  1.
</event>
<event>
 8    1  0.1079508E+005  0.1043930E+01  0.7957747E-01            NaN
         13   -1    0    0    0    0  0.00000000000E+00  0.00000000000E+00  0.74505805969E-08  0.10566000000E+00  0.10566000000E+00 0.  1.
     999900   -1    0    0    0    0 -0.00000000000E+00 -0.00000000000E+00 -0.74505805969E-08  0.93827000000E+00  0.93827000000E+00 0.  1.
     999902    2    1    2    0    0  0.21421526499E-01 -0.22222905131E-02 -0.85052003368E-02  0.10207748968E+01  0.10205122396E+01 0.  0.
     999903    2    3    3    0    0 -0.86353600548E-01 -0.87922497926E-01  0.33096720311E-01  0.12909629808E+00  0.19574251307E-01 0.  0.
         14    1    1    2    0    0 -0.21421526499E-01  0.22222905131E-02  0.85052003368E-02  0.23155103227E-01  0.00000000000E+00 0.  1.
     999901    1    3    3    0    0  0.10777512705E+00  0.85700207412E-01 -0.41601920648E-01  0.89167859869E+00  0.88000000000E+00 0.  1.
        -11    1    4    4    0    0 -0.70150320688E-01 -0.67910889378E-01  0.18123839775E-01  0.99306047539E-01  0.51100000000E-03 0.  1.
         11    1    4    4    0    0 -0.16203279860E-01 -0.20011608548E-01  0.14972880536E-01  0.29790250544E-01  0.51100000000E-03 0. -1.
</event>
<event>
 8    1  0.1079508E+005  0.1043930E+01  0.7957747E-01            NaN
         13   -1    0    0    0    0  0.00000000000E+00  0.00000000000E+00  0.74505805969E-08  0.10566000000E+00  0.10566000000E+00 0.  1.
     999900   -1    0    0    0    0 -0.00000000000E+00 -0.00000000000E+00 -0.74505805969E-08  0.93827000000E+00  0.93827000000E+00 0.  1.
     999902    2    1    2    0    0 -0.18658941683E-01  0.11983564704E-01 -0.26676302843E-02  0.10215944190E+01  0.10213502233E+01 0.  0.
     999903    2    3    3    0    0  0.52532931339E-01 -0.58010015565E-01  0.10173821019E+00  0.12981644012E+00  0.19410665467E-01 0.  0.
         14    1    1    2    0    0  0.18658941683E-01 -0.11983564704E-01  0.26676302843E-02  0.22335581011E-01  0.00000000000E+00 0. -1.
     999901    1    3    3    0    0 -0.71191873022E-01  0.69993580268E-01 -0.10440584047E+00  0.89177797886E+00  0.88000000000E+00 0.  1.
        -11    1    4    4    0    0  0.14607204606E-02 -0.65429534859E-02  0.17053620426E-01  0.18331149316E-01  0.51100000000E-03 0. -1.
         11    1    4    4    0    0  0.51072210878E-01 -0.51467062079E-01  0.84684589760E-01  0.11148529081E+00  0.51100000000E-03 0.  1.
</event>
<event>
 8    1  0.1079508E+005  0.1043930E+01  0.7957747E-01            NaN
         13   -1    0    0    0    0  0.00000000000E+00  0.00000000000E+00  0.74505805969E-08  0.10566000000E+00  0.10566000000E+00 0. -1.
     999900   -1    0    0    0    0 -0.00000000000E+00 -0.00000000000E+00 -0.74505805969E-08  0.93827000000E+00  0.93827000000E+00 0.  1.
     999902    2    1    2    0    0 -0.13222353388E-02  0.13186628175E-01 -0.19256277341E-01  0.10205539506E+01  0.10202861983E+01 0.  0.
     999903    2    3    3    0    0  0.83892160627E-02 -0.63107700352E-01 -0.11395085629E+00  0.13213839459E+00  0.20562025336E-01 0.  0.
         14    1    1    2    0    0  0.13222353388E-02 -0.13186628175E-01  0.19256277341E-01  0.23376049409E-01  0.00000000000E+00 0. -1.
     999901    1    3    3    0    0 -0.97114514015E-02  0.76294328528E-01  0.94694578953E-01  0.88841555600E+00  0.88000000000E+00 0.  1.
        -11    1    4    4    0    0  0.10972793448E-01 -0.33389358281E-01 -0.45721439739E-01  0.57671159303E-01  0.51100000000E-03 0. -1.
         11    1    4    4    0    0 -0.25835773857E-02 -0.29718342071E-01 -0.68229416555E-01  0.74467235292E-01  0.51100000000E-03 0.  1.
</event>
<event>
 8    1  0.1079508E+005  0.1043930E+01  0.7957747E-01            NaN
         13   -1    0    0    0    0  0.00000000000E+00  0.00000000000E+00  0.74505805969E-08  0.10566000000E+00  0.10566000000E+00 0. -1.
     999900   -1    0    0    0    0 -0.00000000000E+00 -0.00000000000E+00 -0.74505805969E-08  0.93827000000E+00  0.93827000000E+00 0.  1.
     999902    2    1    2    0    0  0.43629189394E-02 -0.12222138984E-01  0.19378998059E-01  0.10206070219E+01  0.10203404980E+01 0.  0.
     999903    2    3    3    0    0 -0.11802604177E+00  0.50304811986E-01  0.13645092834E-03  0.12973163613E+00  0.19223895292E-01 0.  0.
         14    1    1    2    0    0 -0.43629189394E-02  0.12222138984E-01 -0.19378998059E-01  0.23322978128E-01  0.00000000000E+00 0.  1.
     999901    1    3    3    0    0  0.12238896071E+00 -0.62526950970E-01  0.19242547130E-01  0.89087538574E+00  0.88000000000E+00 0. -1.
        -11    1    4    4    0    0 -0.18258361212E-01  0.69459107426E-03  0.99213618978E-03  0.18305618431E-01  0.51100000000E-03 0.  1.
         11    1    4    4    0    0 -0.99767680554E-01  0.49610220912E-01 -0.85568526144E-03  0.11142601770E+00  0.51100000000E-03 0. -1.
</event>
<event>
 8    1  0.1079508E+005  0.1043930E+01  0.7957747E-01            NaN
         13   -1    0    0    0    0  0.00000000000E+00  0.00000000000E+00  0.74505805969E-08  0.10566000000E+00  0.10566000000E+00 0.  1.
     999900   -1    0    0    0    0 -0.00000000000E+00 -0.00000000000E+00 -0.74505805969E-08  0.93827000000E+00  0.93827000000E+00 0.  1.
     999902    2    1    2    0    0 -0.32312329989E-02  0.16063357589E-01  0.17264556333E-01  0.10201279575E+01  0.10198502402E+01 0.  0.
     999903    2    3    3    0    0 -0.12299368864E+00 -0.11704235053E-01 -0.35213449187E-01  0.13003356581E+00  0.20107328742E-01 0.  0.
         14    1    1    2    0    0  0.32312329989E-02 -0.16063357589E-01 -0.17264556333E-01  0.23802042540E-01  0.00000000000E+00 0.  1.
     999901    1    3    3    0    0  0.11976245564E+00  0.27767592643E-01  0.52478005520E-01  0.89009439165E+00  0.88000000000E+00 0.  1.
        -11    1    4    4    0    0 -0.71976880562E-01 -0.14801960007E-01 -0.14605891793E-01  0.74922376841E-01  0.51100000000E-03 0. -1.
         11    1    4    4    0    0 -0.51016808082E-01  0.30977249539E-02 -0.20607557395E-01  0.55111188969E-01  0.51100000000E-03 0.  1.
</event>
<event>
 8    1  0.1079508E+005  0.1043930E+01  0.7957747E-01            NaN
         13   -1    0    0    0    0  0.00000000000E+00  0.00000000000E+00  0.74505805969E-08  0.10566000000E+00  0.10566000000E+00 0. -1.
     999900   -1    0    0    0    0 -0.00000000000E+00 -0.00000000000E+00 -0.74505805969E-08  0.93827000000E+00  0.93827000000E+00 0. -1.
     999902    2    1    2    0    0 -0.29478314530E-02  0.19625995985E-01  0.12550040601E-01  0.10204486681E+01  0.10201784703E+01 0.  0.
     999903    2    3    3    0    0 -0.10756992465E+00 -0.11720518401E-01  0.71672289866E-01  0.13172833712E+00  0.22511739706E-01 0.  0.
         14    1    1    2    0    0  0.29478314530E-02 -0.19625995985E-01 -0.12550040601E-01  0.23481331899E-01  0.00000000000E+00 0. -1.
     999901    1    3    3    0    0  0.10462209319E+00  0.31346514386E-01 -0.59122249265E-01  0.88872033099E+00  0.88000000000E+00 0. -1.
        -11    1    4    4    0    0 -0.93601318362E-01 -0.93027750858E-02  0.52016326639E-01  0.10748817508E+00  0.51100000000E-03 0.  1.
         11    1    4    4    0    0 -0.13968606285E-01 -0.24177433149E-02  0.19655963227E-01  0.24240162039E-01  0.51100000000E-03 0. -1.
</event>
<event>
 8    1  0.1079508E+005  0.1043930E+01  0.7957747E-01            NaN
         13   -1    0    0    0    0  0.00000000000E+00  0.00000000000E+00  0.74505805969E-08  0.10566000000E+00  0.10566000000E+00 0. -1.
     999900   -1    0    0    0    0 -0.00000000000E+00 -0.00000000000E+00 -0.74505805969E-08  0.93827000000E+00  0.93827000000E+00 0. -1.
     999902    2    1    2    0    0  0.20692897247E-01 -0.10895792004E-01 -0.61765338110E-02  0.10197419069E+01  0.10194549979E+01 0.  0.
     999903    2    3    3    0    0  0.49863070885E-01 -0.12090674723E+00  0.39156572696E-02  0.13235520332E+00  0.19944926943E-01 0.  0.
         14    1    1    2    0    0 -0.20692897247E-01  0.10895792004E-01  0.61765338110E-02  0.24188093140E-01  0.00000000000E+00 0. -1.
     999901    1    3    3    0    0 -0.29170173638E-01  0.11001095522E+00 -0.10092191081E-01  0.88738670354E+00  0.88000000000E+00 0.  1.
        -11    1    4    4    0    0  0.30984641559E-01 -0.95983118562E-01  0.57977592286E-02  0.10102812576E+00  0.51100000000E-03 0. -1.
         11    1    4    4    0    0  0.18878429326E-01 -0.24923628665E-01 -0.18821019590E-02  0.31327077560E-01  0.51100000000E-03 0.  1.
</event>
<event>
 8    1  0.1079508E+005  0.1043930E+01  0.7957747E-01            NaN
         13   -1    0    0    0    0  0.00000000000E+00  0.00000000000E+00  0.74505805969E-08  0.10566000000E+00  0.10566000000E+00 0.  1.
     999900   -1    0    0    0    0 -0.00000000000E+00 -0.00000000000E+00 -0.74505805969E-08  0.93827000000E+00  0.93827000000E+00 0. -1.
     999902    2    1    2    0    0  0.18747791006E-01 -0.95362014372E-02 -0.10944896903E-01  0.10202190411E+01  0.10199434701E+01 0.  0.
     999903    2    3    3    0    0  0.12730036282E+00 -0.22807284990E-01  0.22695292792E-01  0.13281189388E+00  0.19959163754E-01 0.  0.
         14    1    1    2    0    0 -0.18747791006E-01  0.95362014372E-02  0.10944896903E-01  0.23710958936E-01  0.00000000000E+00 0. -1.
     999901    1    3    3    0    0 -0.10855257182E+00  0.13271083553E-01 -0.33640189694E-01  0.88740714718E+00  0.88000000000E+00 0.  1.
        -11    1    4    4    0    0  0.10106462570E+00 -0.25724387040E-01  0.20793597981E-01  0.10634113736E+00  0.51100000000E-03 0.  1.
         11    1    4    4    0    0  0.26235737126E-01  0.29171020497E-02  0.19016948110E-02  0.26470756526E-01  0.51100000000E-03 0. -1.
</event>
<event>
 8    1  0.1079508E+005  0.1043930E+01  0.7957747E-01            NaN
         13   -1    0    0    0    0  0.00000000000E+00  0.00000000000E+00  0.74505805969E-08  0.10566000000E+00  0.10566000000E+00 0.  1.
     999900   -1    0    0    0    0 -0.00000000000E+00 -0.00000000000E+00 -0.74505805969E-08  0.93827000000E+00  0.93827000000E+00 0.  1.
     999902    2    1    2    0    0  0.20524769840E-01  0.31458130765E-02  0.11812232940E-01  0.10200408568E+01  0.10197610790E+01 0.  0.
     999903    2    3    3    0    0  0.11900970991E+00 -0.13719371899E-01 -0.51937719369E-01  0.13209503956E+00  0.20001014117E-01 0.  0.
         14    1    1    2    0    0 -0.20524769840E-01 -0.31458130765E-02 -0.11812232940E-01  0.23889143223E-01  0.00000000000E+00 0. -1.
     999901    1    3    3    0    0 -0.98484940072E-01  0.16865184975E-01  0.63749952310E-01  0.88794581721E+00  0.88000000000E+00 0. -1.
        -11    1    4    4    0    0  0.46202571550E-01 -0.10939874896E-01 -0.11874905516E-01  0.48945203877E-01  0.51100000000E-03 0. -1.
         11    1    4    4    0    0  0.72807138362E-01 -0.27794970029E-02 -0.40062813853E-01  0.83149835688E-01  0.51100000000E-03 0.  1.
</event>
<event>
 8    1  0.1079508E+005  0.1043930E+01  0.7957747E-01            NaN
         13   -1    0    0    0    0  0.00000000000E+00  0.00000000000E+00  0.74505805969E-08  0.10566000000E+00  0.10566000000E+00 0. -1.
     999900   -1    0    0    0    0 -0.00000000000E+00 -0.00000000000E+00 -0.74505805969E-08  0.93827000000E+00  0.93827000000E+00 0.  1.
     999902    2    1    2    0    0 -0.19709520832E-02  0.13287662908E-01  0.19445729006E-01  0.10202956391E+01  0.10200218665E+01 0.  0.
     999903    2    3    3    0    0 -0.51578881720E-01  0.22090543324E-01 -0.11400900428E+00  0.12880890157E+00  0.21102296608E-01 0.  0.
         14    1    1    2    0    0  0.19709520832E-02 -0.13287662908E-01 -0.19445729006E-01  0.23634360881E-01  0.00000000000E+00 0.  1.
     999901    1    3    3    0    0  0.49607929637E-01 -0.88028804163E-02  0.13345473329E+00  0.89148673755E+00  0.88000000000E+00 0. -1.
        -11    1    4    4    0    0 -0.12216643393E-01  0.70016872223E-02 -0.51641832605E-01  0.53529524522E-01  0.51100000000E-03 0. -1.
         11    1    4    4    0    0 -0.39362238328E-01  0.15088856102E-01 -0.62367171680E-01  0.75279377050E-01  0.51100000000E-03 0.  1.
</event>
<event>
 7    1  0.1079508E+005  0.1043930E+01  0.7957747E-01            NaN
         13   -1    0    0    0    0  0.00000000000E+00  0.00000000000E+00  0.74505805969E-08  0.10566000000E+00  0.10566000000E+00 0. -1.
     999900   -1    0    0    0    0 -0.00000000000E+00 -0.00000000000E+00 -0.74505805969E-08  0.93827000000E+00  0.93827000000E+00 0.  1.
     999902    2    1    2    0    0  0.21800765984E-01 -0.25320224958E-02 -0.19384650138E-01  0.10146477665E+01  0.10142251431E+01 0.  0.
         14    1    1    2    0    0 -0.21800765984E-01  0.25320224958E-02  0.19384650138E-01  0.29282233460E-01  0.00000000000E+00 0.  1.
     999901    1    3    3    0    0  0.26356168706E-01  0.45242834841E-01  0.92309078761E-01  0.88637606452E+00  0.88000000000E+00 0. -1.
        -11    1    3    3    0    0 -0.18270075018E-01 -0.39375697825E-01 -0.59492134906E-01  0.73646564462E-01  0.51100000000E-03 0.  1.
         11    1    3    3    0    0  0.13714672296E-01 -0.83991595118E-02 -0.52201593994E-01  0.54625137557E-01  0.51100000000E-03 0. -1.
</event>
<event>
 8    1  0.1079508E+005  0.1043930E+01  0.7957747E-01            NaN
         13   -1    0    0    0    0  0.00000000000E+00  0.00000000000E+00  0.74505805969E-08  0.10566000000E+00  0.10566000000E+00 0.  1.
     999900   -1    0    0    0    0 -0.00000000000E+00 -0.00000000000E+00 -0.74505805969E-08  0.93827000000E+00  0.93827000000E+00 0.  1.
     999902    2    1    2    0    0 -0.22205384785E-01  0.40731533736E-03  0.72413640417E-02  0.10205701547E+01  0.10203027778E+01 0.  0.
     999903    2    3    3    0    0 -0.45504921076E-01 -0.61827575340E-01 -0.10332669480E+00  0.13116510319E+00  0.25189909167E-01 0.  0.
         14    1    1    2    0    0  0.22205384785E-01 -0.40731533736E-03 -0.72413640417E-02  0.23359845299E-01  0.00000000000E+00 0. -1.
     999901    1    3    3    0    0  0.23299536291E-01  0.62234890677E-01  0.11056805884E+00  0.88940505151E+00  0.88000000000E+00 0. -1.
        -11    1    4    4    0    0 -0.22256113731E-01 -0.17606445237E-01 -0.22837949545E-01  0.36430132757E-01  0.51100000000E-03 0.  1.
         11    1    4    4    0    0 -0.23248807344E-01 -0.44221130103E-01 -0.80488745252E-01  0.94734970437E-01  0.51100000000E-03 0. -1.
</event>
<event>
 8    1  0.1079508E+005  0.1043930E+01  0.7957747E-01            NaN
         13   -1    0    0    0    0  0.00000000000E+00  0.00000000000E+00  0.74505805969E-08  0.10566000000E+00  0.10566000000E+00 0. -1.
     999900   -1    0    0    0    0 -0.00000000000E+00 -0.00000000000E+00 -0.74505805969E-08  0.93827000000E+00  0.93827000000E+00 0. -1.
     999902    2    1    2    0    0  0.14548000493E-01  0.16925065883E-01 -0.48217571453E-02  0.10210968768E+01  0.10208415549E+01 0.  0.
     999903    2    3    3    0    0  0.22138658389E-01 -0.87415740074E-01 -0.92302789813E-01  0.13059277632E+00  0.20075766796E-01 0.  0.
         14    1    1    2    0    0 -0.14548000493E-01 -0.16925065883E-01  0.48217571453E-02  0.22833123209E-01  0.00000000000E+00 0. -1.
     999901    1    3    3    0    0 -0.75906578953E-02  0.10434080596E+00  0.87481032667E-01  0.89050410047E+00  0.88000000000E+00 0.  1.
        -11    1    4    4    0    0  0.16613374111E-01 -0.84269201822E-01 -0.87459263201E-01  0.12258338556E+00  0.51100000000E-03 0. -1.
         11    1    4    4    0    0  0.55252842778E-02 -0.31465382520E-02 -0.48435266116E-02  0.80093907608E-02  0.51100000000E-03 0.  1.
</event>
<event>
 8    1  0.1079508E+005  0.1043930E+01  0.7957747E-01            NaN
         13   -1    0    0    0    0  0.00000000000E+00  0.00000000000E+00  0.74505805969E-08  0.10566000000E+00  0.10566000000E+00 0.  1.
     999900   -1    0    0    0    0 -0.00000000000E+00 -0.00000000000E+00 -0.74505805969E-08  0.93827000000E+00  0.93827000000E+00 0.  1.
     999902    2    1    2    0    0 -0.84032610203E-02  0.11999881633E-01  0.17446181580E-01  0.10211488410E+01  0.10208946930E+01 0.  0.
     999903    2    3    3    0    0 -0.20517387954E-02 -0.32386237550E-02 -0.12752846290E+00  0.12913415420E+00  0.19935461263E-01 0.  0.
         14    1    1    2    0    0  0.84032610203E-02 -0.11999881633E-01 -0.17446181580E-01  0.22781159029E-01  0.00000000000E+00 0.  1.
     999901    1    3    3    0    0 -0.63515222249E-02  0.15238505388E-01  0.14497464448E+00  0.89201468677E+00  0.88000000000E+00 0. -1.
        -11    1    4    4    0    0  0.72050967920E-02 -0.71581563992E-02 -0.69294501872E-01  0.70036717038E-01  0.51100000000E-03 0.  1.
         11    1    4    4    0    0 -0.92568355874E-02  0.39195326442E-02 -0.58233961023E-01  0.59097437158E-01  0.51100000000E-03 0. -1.
</event>
<event>
 8    1  0.1079508E+005  0.1043930E+01  0.7957747E-01            NaN
         13   -1    0    0    0    0  0.00000000000E+00  0.00000000000E+00  0.74505805969E-08  0.10566000000E+00  0.10566000000E+00 0.  1.
     999900   -1    0    0    0    0 -0.00000000000E+00 -0.00000000000E+00 -0.74505805969E-08  0.93827000000E+00  0.93827000000E+00 0. -1.
     999902    2    1    2    0    0 -0.70893330175E-03  0.20895544101E-01  0.13630058289E-01  0.10189719384E+01  0.10186662390E+01 0.  0.
     999903    2    3    3    0    0 -0.40609659477E-01  0.12288717753E+00  0.17472967733E-01  0.13217482001E+00  0.20358673834E-01 0.  0.
         14    1    1    2    0    0  0.70893330175E-03 -0.20895544101E-01 -0.13630058289E-01  0.24958061596E-01  0.00000000000E+00 0.  1.
     999901    1    3    3    0    0  0.39900726175E-01 -0.10199163342E+00 -0.38429094444E-02  0.88679711839E+00  0.88000000000E+00 0.  1.
        -11    1    4    4    0    0 -0.33631415105E-01  0.10619858521E+00  0.21934873696E-01  0.11353682833E+00  0.51100000000E-03 0. -1.
         11    1    4    4    0    0 -0.69782443714E-02  0.16688592320E-01 -0.44619059631E-02  0.18637991683E-01  0.51100000000E-03 0.  1.
</event>
<event>
 7    1  0.1079508E+005  0.1043930E+01  0.7957747E-01            NaN
         13   -1    0    0    0    0  0.00000000000E+00  0.00000000000E+00  0.74505805969E-08  0.10566000000E+00  0.10566000000E+00 0. -1.
     999900   -1    0    0    0    0 -0.00000000000E+00 -0.00000000000E+00 -0.74505805969E-08  0.93827000000E+00  0.93827000000E+00 0.  1.
     999902    2    1    2    0    0 -0.18653395963E-01 -0.74059966616E-02 -0.96333071458E-02  0.10216679567E+01  0.10214253840E+01 0.  0.
         14    1    1    2    0    0  0.18653395963E-01  0.74059966616E-02  0.96333071458E-02  0.22262043349E-01  0.00000000000E+00 0. -1.
     999901    1    3    3    0    0  0.14848853676E-01  0.49461672787E-01  0.97990049420E-01  0.88694362578E+00  0.88000000000E+00 0. -1.
        -11    1    3    3    0    0 -0.23633322851E-01 -0.61505988106E-01 -0.72620886254E-01  0.98059037132E-01  0.51100000000E-03 0. -1.
         11    1    3    3    0    0 -0.98689267882E-02  0.46383186566E-02 -0.35002470312E-01  0.36665293737E-01  0.51100000000E-03 0.  1.
</event>
<event>
 8    1  0.1079508E+005  0.1043930E+01  0.7957747E-01            NaN
         13   -1    0    0    0    0  0.00000000000E+00  0.00000000000E+00  0.74505805969E-08  0.10566000000E+00  0.10566000000E+00 0.  1.
     999900   -1    0    0    0    0 -0.00000000000E+00 -0.00000000000E+00 -0.74505805969E-08  0.93827000000E+00  0.93827000000E+00 0.  1.
     999902    2    1    2    0    0  0.20602378043E-01  0.15318967718E-02 -0.92204545916E-02  0.10213065283E+01  0.10210559256E+01 0.  0.
     999903    2    3    3    0    0 -0.10943560768E+00  0.55052175638E-01 -0.40151100554E-01  0.12960534358E+00  0.13361883797E-01 0.  0.
         14    1    1    2    0    0 -0.20602378043E-01 -0.15318967718E-02  0.92204545916E-02  0.22623471697E-01  0.00000000000E+00 0.  1.
     999901    1    3    3    0    0  0.13003798572E+00 -0.53520278866E-01  0.30930645963E-01  0.89170118472E+00  0.88000000000E+00 0. -1.
        -11    1    4    4    0    0 -0.77294901678E-01  0.32831192329E-01 -0.30563654426E-01  0.89368826265E-01  0.51100000000E-03 0.  1.
         11    1    4    4    0    0 -0.32140705997E-01  0.22220983309E-01 -0.95874461287E-02  0.40236517313E-01  0.51100000000E-03 0. -1.
</event>
<event>
 8    1  0.1079508E+005  0.1043930E+01  0.7957747E-01            NaN
         13   -1    0    0    0    0  0.00000000000E+00  0.00000000000E+00  0.74505805969E-08  0.10566000000E+00  0.10566000000E+00 0. -1.
     999900   -1    0    0    0    0 -0.00000000000E+00 -0.00000000000E+00 -0.74505805969E-08  0.93827000000E+00  0.93827000000E+00 0.  1.
     999902    2    1    2    0    0 -0.68809956758E-02 -0.19337494418E-01 -0.98267279862E-02  0.10211736520E+01  0.10209200635E+01 0.  0.
     999903    2    3    3    0    0  0.10403102457E+00  0.71013275899E-01 -0.22702553909E-01  0.12952880968E+00  0.19924034628E-01 0.  0.
         14    1    1    2    0    0  0.68809956758E-02  0.19337494418E-01  0.98267279862E-02  0.22756348010E-01  0.00000000000E+00 0. -1.
     999901    1    3    3    0    0 -0.11091202024E+00 -0.90350770317E-01  0.12875825923E-01  0.89164484231E+00  0.88000000000E+00 0. -1.
        -11    1    4    4    0    0  0.22304396109E-02  0.65685737012E-02 -0.19079458771E-03  0.69583435457E-02  0.51100000000E-03 0.  1.
         11    1    4    4    0    0  0.10180058496E+00  0.64444702198E-01 -0.22511759321E-01  0.12257046613E+00  0.51100000000E-03 0. -1.
</event>
<event>
 8    1  0.1079508E+005  0.1043930E+01  0.7957747E-01            NaN
         13   -1    0    0    0    0  0.00000000000E+00  0.00000000000E+00  0.74505805969E-08  0.10566000000E+00  0.10566000000E+00 0. -1.
     999900   -1    0    0    0    0 -0.00000000000E+00 -0.00000000000E+00 -0.74505805969E-08  0.93827000000E+00  0.93827000000E+00 0. -1.
     999902    2    1    2    0    0  0.88125612154E-02 -0.18566424703E-01  0.11776587711E-01  0.10202432657E+01  0.10199682642E+01 0.  0.
     999903    2    3    3    0    0  0.72758334584E-01  0.10385325266E+00 -0.13399505979E-01  0.12911506227E+00  0.20294807356E-01 0.  0.
         14    1    1    2    0    0 -0.88125612154E-02  0.18566424703E-01 -0.11776587711E-01  0.23686734253E-01  0.00000000000E+00 0.  1.
     999901    1    3    3    0    0 -0.63945773368E-01 -0.12241967736E+00  0.25176093690E-01  0.89112820348E+00  0.88000000000E+00 0. -1.
        -11    1    4    4    0    0  0.59872845775E-01  0.78208634845E-01 -0.17748506755E-01  0.10008305970E+00  0.51100000000E-03 0.  1.
         11    1    4    4    0    0  0.12885488809E-01  0.25644617814E-01  0.43490007760E-02  0.29032002573E-01  0.51100000000E-03 0. -1.
</event>
<event>
 8    1  0.1079508E+005  0.1043930E+01  0.7957747E-01            NaN
         13   -1    0    0    0    0  0.00000000000E+00  0.00000000000E+00  0.74505805969E-08  0.10566000000E+00  0.10566000000E+00 0. -1.
     999900   -1    0    0    0    0 -0.00000000000E+00 -0.00000000000E+00 -0.74505805969E-08  0.93827000000E+00  0.93827000000E+00 0. -1.
     999902    2    1    2    0    0  0.14631266041E-01 -0.53156835197E-02 -0.13064054769E-01  0.10236075994E+01  0.10234058421E+01 0.  0.
     999903    2    3    3    0    0 -0.14277767995E-01 -0.13163516386E+00 -0.40925013659E-03  0.13402764945E+00  0.20774318458E-01 0.  0.
         14    1    1    2    0    0 -0.14631266041E-01  0.53156835197E-02  0.13064054769E-01  0.20322400554E-01  0.00000000000E+00 0. -1.
     999901    1    3    3    0    0  0.28909034036E-01  0.12631948034E+00 -0.12654804632E-01  0.88957995000E+00  0.88000000000E+00 0. -1.
        -11    1    4    4    0    0 -0.10462695351E-01 -0.66289581509E-01 -0.10057549213E-01  0.67861565173E-01  0.51100000000E-03 0. -1.
         11    1    4    4    0    0 -0.38150726435E-02 -0.65345582350E-01  0.96482990761E-02  0.66166084273E-01  0.51100000000E-03 0.  1.
</event>
<event>
 8    1  0.1079508E+005  0.1043930E+01  0.7957747E-01            NaN
         13   -1    0    0    0    0  0.00000000000E+00  0.00000000000E+00  0.74505805969E-08  0.10566000000E+00  0.10566000000E+00 0. -1.
     999900   -1    0    0    0    0 -0.00000000000E+00 -0.00000000000E+00 -0.74505805969E-08  0.93827000000E+00  0.93827000000E+00 0.  1.
     999902    2    1    2    0    0 -0.28264122971E-02 -0.14122369837E-01  0.18072654617E-01  0.10208204613E+01  0.10205588485E+01 0.  0.
     999903    2    3    3    0    0  0.57763863258E-01 -0.88595452285E-01 -0.74260269974E-01  0.13079642199E+00  0.20181631360E-01 0.  0.
         14    1    1    2    0    0  0.28264122971E-02  0.14122369837E-01 -0.18072654617E-01  0.23109538749E-01  0.00000000000E+00 0.  1.
     999901    1    3    3    0    0 -0.60590275555E-01  0.74473082448E-01  0.92332924591E-01  0.89002403926E+00  0.88000000000E+00 0.  1.
        -11    1    4    4    0    0  0.17516138520E-01 -0.44868006166E-01 -0.30900671776E-01  0.57228189935E-01  0.51100000000E-03 0. -1.
         11    1    4    4    0    0  0.40247724738E-01 -0.43727446118E-01 -0.43359598198E-01  0.73568232054E-01  0.51100000000E-03 0.  1.
</event>
<event>
 8    1  0.1079508E+005  0.1043930E+01  0.7957747E-01            NaN
         13   -1    0    0    0    0  0.00000000000E+00  0.00000000000E+00  0.74505805969E-08  0.10566000000E+00  0.10566000000E+00 0. -1.
     999900   -1    0    0    0    0 -0.00000000000E+00 -0.00000000000E+00 -0.74505805969E-08  0.93827000000E+00  0.93827000000E+00 0. -1.
     999902    2    1    2    0    0  0.75250125686E-02  0.12837821229E-01  0.18388968572E-01  0.10202743530E+01  0.10200000813E+01 0.  0.
     999903    2    3    3    0    0  0.30267152449E-02  0.10863360417E-02 -0.12662381451E+00  0.12831749346E+00  0.20529188886E-01 0.  0.
         14    1    1    2    0    0 -0.75250125686E-02 -0.12837821229E-01 -0.18388968572E-01  0.23655646962E-01  0.00000000000E+00 0.  1.
     999901    1    3    3    0    0  0.44982973237E-02  0.11751485187E-01  0.14501278308E+00  0.89195685957E+00  0.88000000000E+00 0.  1.
        -11    1    4    4    0    0 -0.46038518776E-02 -0.60762678310E-02 -0.86891796083E-01  0.87227070513E-01  0.51100000000E-03 0. -1.
         11    1    4    4    0    0  0.76305671225E-02  0.71626038728E-02 -0.39732018429E-01  0.41090422951E-01  0.51100000000E-03 0.  1.
</event>
<event>
 8    1  0.1079508E+005  0.1043930E+01  0.7957747E-01            NaN
         13   -1    0    0    0    0  0.00000000000E+00  0.00000000000E+00  0.74505805969E-08  0.10566000000E+00  0.10566000000E+00 0.  1.
     999900   -1    0    0    0    0 -0.00000000000E+00 -0.00000000000E+00 -0.74505805969E-08  0.93827000000E+00  0.93827000000E+00 0. -1.
     999902    2    1    2    0    0  0.12941968238E-01 -0.68382702197E-02 -0.11235318714E-02  0.10292494412E+01  0.10291447388E+01 0.  0.
     999903    2    3    3    0    0  0.10367237190E+00 -0.70973606099E-01 -0.59775914904E-01  0.14032568215E+00  0.18246194389E-01 0.  0.
         14    1    1    2    0    0 -0.12941968238E-01  0.68382702197E-02  0.11235318714E-02  0.14680558754E-01  0.00000000000E+00 0.  1.
     999901    1    3    3    0    0 -0.90730403660E-01  0.64135335879E-01  0.58652383032E-01  0.88892375910E+00  0.88000000000E+00 0. -1.
        -11    1    4    4    0    0  0.66101782099E-01 -0.42733669487E-01 -0.46752972728E-01  0.91551699517E-01  0.51100000000E-03 0. -1.
         11    1    4    4    0    0  0.37570589799E-01 -0.28239936611E-01 -0.13022942176E-01  0.48773982629E-01  0.51100000000E-03 0.  1.
</event>
<event>
 8    1  0.1119821E+005  0.1043930E+01  0.7957747E-01            NaN
         13   -1    0    0    0    0  0.00000000000E+00  0.00000000000E+00  0.74505805969E-08  0.10566000000E+00  0.10566000000E+00 0.  1.
     999900   -1    0    0    0    0 -0.00000000000E+00 -0.00000000000E+00 -0.74505805969E-08  0.93827000000E+00  0.93827000000E+00 0.  1.
     999902    2    1    2    0    0 -0.22814242973E-01  0.23108375891E-02  0.57851623639E-02  0.10202805231E+01  0.10200063961E+01 0.  0.
     999903    2    3    3    0    0 -0.38416954963E-01  0.53689315766E-01  0.11275227563E+00  0.13217852675E+00  0.19992053879E-01 0.  0.
         14    1    1    2    0    0  0.22814242973E-01 -0.23108375891E-02 -0.57851623639E-02  0.23649476873E-01  0.00000000000E+00 0. -1.
     999901    1    3    3    0    0  0.15602711990E-01 -0.51378478177E-01 -0.10696711327E+00  0.88810199637E+00  0.88000000000E+00 0.  1.
        -11    1    4    4    0    0 -0.31431731865E-01  0.27619856950E-01  0.64392308044E-01  0.76794796192E-01  0.51100000000E-03 0. -1.
         11    1    4    4    0    0 -0.69852230978E-02  0.26069458816E-01  0.48359967589E-01  0.55383730561E-01  0.51100000000E-03 0.  1.
</event>
<event>
 8    1  0.1079508E+005  0.1043930E+01  0.7957747E-01            NaN
         13   -1    0    0    0    0  0.00000000000E+00  0.00000000000E+00  0.74505805969E-08  0.10566000000E+00  0.10566000000E+00 0. -1.
     999900   -1    0    0    0    0 -0.00000000000E+00 -0.00000000000E+00 -0.74505805969E-08  0.93827000000E+00  0.93827000000E+00 0.  1.
     999902    2    1    2    0    0  0.83847593051E-03  0.20635207109E-01  0.12620524952E-01  0.10197268501E+01  0.10194395796E+01 0.  0.
     999903    2    3    3    0    0  0.58129675997E-01 -0.10656354901E+00 -0.33699446602E-01  0.12753441295E+00  0.19862642736E-01 0.  0.
         14    1    1    2    0    0 -0.83847593051E-03 -0.20635207109E-01 -0.12620524952E-01  0.24203149885E-01  0.00000000000E+00 0. -1.
     999901    1    3    3    0    0 -0.57291200066E-01  0.12719875612E+00  0.46319971554E-01  0.89219243716E+00  0.88000000000E+00 0.  1.
        -11    1    4    4    0    0  0.34109262722E-02 -0.22035805492E-01 -0.64622032887E-02  0.23221376662E-01  0.51100000000E-03 0.  1.
         11    1    4    4    0    0  0.54718749724E-01 -0.84527743520E-01 -0.27237243313E-01  0.10431303629E+00  0.51100000000E-03 0. -1.
</event>
<event>
 8    1  0.1079508E+005  0.1043930E+01  0.7957747E-01            NaN
         13   -1    0    0    0    0  0.00000000000E+00  0.00000000000E+00  0.74505805969E-08  0.10566000000E+00  0.10566000000E+00 0. -1.
     999900   -1    0    0    0    0 -0.00000000000E+00 -0.00000000000E+00 -0.74505805969E-08  0.93827000000E+00  0.93827000000E+00 0. -1.
     999902    2    1    2    0    0 -0.81546990770E-02  0.12909430634E-01 -0.17840046458E-01  0.10204476710E+01  0.10201774500E+01 0.  0.
     999903    2    3    3    0    0 -0.12618500321E+00  0.17555043219E-01 -0.30810142706E-01  0.13246064533E+00  0.19123887924E-01 0.  0.
         14    1    1    2    0    0  0.81546990770E-02 -0.12909430634E-01  0.17840046458E-01  0.23482328972E-01  0.00000000000E+00 0. -1.
     999901    1    3    3    0    0  0.11803030414E+00 -0.46456125848E-02  0.12970096248E-01  0.88798702570E+00  0.88000000000E+00 0.  1.
        -11    1    4    4    0    0 -0.17923126235E-01 -0.17961970029E-02 -0.97315512954E-02  0.20479965560E-01  0.51100000000E-03 0.  1.
         11    1    4    4    0    0 -0.10826187698E+00  0.19351240222E-01 -0.21078591411E-01  0.11198067977E+00  0.51100000000E-03 0. -1.
</event>
<event>
 8    1  0.1079508E+005  0.1043930E+01  0.7957747E-01            NaN
         13   -1    0    0    0    0  0.00000000000E+00  0.00000000000E+00  0.74505805969E-08  0.10566000000E+00  0.10566000000E+00 0. -1.
     999900   -1    0    0    0    0 -0.00000000000E+00 -0.00000000000E+00 -0.74505805969E-08  0.93827000000E+00  0.93827000000E+00 0. -1.
     999902    2    1    2    0    0  0.22580639326E-01 -0.63534003831E-02 -0.33859896840E-02  0.10202294537E+01  0.10199541275E+01 0.  0.
     999903    2    3    3    0    0 -0.11413485414E+00  0.51655332951E-01 -0.13130093335E-01  0.12773234622E+00  0.21168716737E-01 0.  0.
         14    1    1    2    0    0 -0.22580639326E-01  0.63534003831E-02  0.33859896840E-02  0.23700546301E-01  0.00000000000E+00 0. -1.
     999901    1    3    3    0    0  0.13671549347E+00 -0.58008733335E-01  0.97441036510E-02  0.89249710748E+00  0.88000000000E+00 0.  1.
        -11    1    4    4    0    0 -0.44504489408E-01  0.31082952730E-01 -0.24369272055E-02  0.54341505897E-01  0.51100000000E-03 0. -1.
         11    1    4    4    0    0 -0.69630364734E-01  0.20572380222E-01 -0.10693166130E-01  0.73390840326E-01  0.51100000000E-03 0.  1.
</event>
<event>
 8    1  0.1079508E+005  0.1043930E+01  0.7957747E-01            NaN
         13   -1    0    0    0    0  0.00000000000E+00  0.00000000000E+00  0.74505805969E-08  0.10566000000E+00  0.10566000000E+00 0.  1.
     999900   -1    0    0    0    0 -0.00000000000E+00 -0.00000000000E+00 -0.74505805969E-08  0.93827000000E+00  0.93827000000E+00 0.  1.
     999902    2    1    2    0    0 -0.14648697235E-01 -0.11399695020E-01 -0.14764690233E-01  0.10202122123E+01  0.10199364807E+01 0.  0.
     999903    2    3    3    0    0  0.11028921882E+00  0.62117904717E-01 -0.64306367411E-02  0.12831323997E+00  0.20014709288E-01 0.  0.
         14    1    1    2    0    0  0.14648697235E-01  0.11399695020E-01  0.14764690233E-01  0.23717787733E-01  0.00000000000E+00 0. -1.
     999901    1    3    3    0    0 -0.12493791606E+00 -0.73517599738E-01 -0.83340534922E-02  0.89189897230E+00  0.88000000000E+00 0. -1.
        -11    1    4    4    0    0  0.86772769185E-01  0.56257022054E-01 -0.96282809991E-02  0.10386207642E+00  0.51100000000E-03 0. -1.
         11    1    4    4    0    0  0.23516449635E-01  0.58608826631E-02  0.31976442580E-02  0.24451163548E-01  0.51100000000E-03 0.  1.
</event>
<event>
 8    1  0.1079508E+005  0.1043930E+01  0.7957747E-01            NaN
         13   -1    0    0    0    0  0.00000000000E+00  0.00000000000E+00  0.74505805969E-08  0.10566000000E+00  0.10566000000E+00 0.  1.
     999900   -1    0    0    0    0 -0.00000000000E+00 -0.00000000000E+00 -0.74505805969E-08  0.93827000000E+00  0.93827000000E+00 0.  1.
     999902    2    1    2    0    0 -0.21712201301E-01  0.63598623975E-02  0.78306310920E-02  0.10199886901E+01  0.10197076746E+01 0.  0.
     999903    2    3    3    0    0  0.12417936912E+00  0.71263337803E-03  0.22898677150E-01  0.12783215256E+00  0.19891863944E-01 0.  0.
         14    1    1    2    0    0  0.21712201301E-01 -0.63598623975E-02 -0.78306310920E-02  0.23941309871E-01  0.00000000000E+00 0. -1.
     999901    1    3    3    0    0 -0.14589157042E+00  0.56472290195E-02 -0.15068046058E-01  0.89215653757E+00  0.88000000000E+00 0.  1.
        -11    1    4    4    0    0  0.10206251590E+00  0.59177833642E-02  0.24226772512E-01  0.10506652626E+00  0.51100000000E-03 0. -1.
         11    1    4    4    0    0  0.22116853218E-01 -0.52051499861E-02 -0.13280953622E-02  0.22765626302E-01  0.51100000000E-03 0.  1.
</event>
<event>
 8    1  0.1079508E+005  0.1043930E+01  0.7957747E-01            NaN
         13   -1    0    0    0    0  0.00000000000E+00  0.00000000000E+00  0.74505805969E-08  0.10566000000E+00  0.10566000000E+00 0.  1.
     999900   -1    0    0    0    0 -0.00000000000E+00 -0.00000000000E+00 -0.74505805969E-08  0.93827000000E+00  0.93827000000E+00 0. -1.
     999902    2    1    2    0    0 -0.25487131240E-02  0.13715301088E-01 -0.19840967540E-01  0.10196757341E+01  0.10193872342E+01 0.  0.
     999903    2    3    3    0    0  0.16599244840E-01  0.10003144791E+00  0.78944721178E-01  0.12974554929E+00  0.17883317891E-01 0.  0.
         14    1    1    2    0    0  0.25487131240E-02 -0.13715301088E-01  0.19840967540E-01  0.24254265923E-01  0.00000000000E+00 0.  1.
     999901    1    3    3    0    0 -0.19147957964E-01 -0.86316146823E-01 -0.98785688718E-01  0.88993018479E+00  0.88000000000E+00 0. -1.
        -11    1    4    4    0    0  0.17888337957E-01  0.54228565964E-01  0.45484046120E-01  0.73005407840E-01  0.51100000000E-03 0. -1.
         11    1    4    4    0    0 -0.12890931168E-02  0.45802881947E-01  0.33460675058E-01  0.56740141452E-01  0.51100000000E-03 0.  1.
</event>
<event>
 8    1  0.1079508E+005  0.1043930E+01  0.7957747E-01            NaN
         13   -1    0    0    0    0  0.00000000000E+00  0.00000000000E+00  0.74505805969E-08  0.10566000000E+00  0.10566000000E+00 0. -1.
     999900   -1    0    0    0    0 -0.00000000000E+00 -0.00000000000E+00 -0.74505805969E-08  0.93827000000E+00  0.93827000000E+00 0.  1.
     999902    2    1    2    0    0 -0.14198535708E-02  0.28241734360E-01  0.14102845228E-01  0.10123309211E+01  0.10118376313E+01 0.  0.
     999903    2    3    3    0    0 -0.21315742789E-01  0.32765327503E-01 -0.11462863353E+00  0.12273095318E+00  0.19880534828E-01 0.  0.
         14    1    1    2    0    0  0.14198535708E-02 -0.28241734360E-01 -0.14102845228E-01  0.31599078900E-01  0.00000000000E+00 0.  1.
     999901    1    3    3    0    0  0.19895889218E-01 -0.45235931436E-02  0.12873147876E+00  0.88959996792E+00  0.88000000000E+00 0. -1.
        -11    1    4    4    0    0  0.23218773026E-03  0.11420805167E-01 -0.50659803910E-01  0.51934242605E-01  0.51100000000E-03 0.  1.
         11    1    4    4    0    0 -0.21547930519E-01  0.21344522336E-01 -0.63968829624E-01  0.70796710572E-01  0.51100000000E-03 0. -1.
</event>
<event>
 8    1  0.1079508E+005  0.1043930E+01  0.7957747E-01            NaN
         13   -1    0    0    0    0  0.00000000000E+00  0.00000000000E+00  0.74505805969E-08  0.10566000000E+00  0.10566000000E+00 0. -1.
     999900   -1    0    0    0    0 -0.00000000000E+00 -0.00000000000E+00 -0.74505805969E-08  0.93827000000E+00  0.93827000000E+00 0.  1.
     999902    2    1    2    0    0 -0.36333906478E-02  0.27783569426E-01 -0.52299485477E-02  0.10154259543E+01  0.10150258066E+01 0.  0.
     999903    2    3    3    0    0  0.11615035680E+00  0.42929711731E-01  0.99509457609E-02  0.12705215275E+00  0.26633863109E-01 0.  0.
         14    1    1    2    0    0  0.36333906478E-02 -0.27783569426E-01  0.52299485477E-02  0.28504045668E-01  0.00000000000E+00 0.  1.
     999901    1    3    3    0    0 -0.11978374745E+00 -0.15146142305E-01 -0.15180894309E-01  0.88837380158E+00  0.88000000000E+00 0. -1.
        -11    1    4    4    0    0  0.52761194725E-01  0.68345540097E-02 -0.14228528017E-02  0.53223495079E-01  0.51100000000E-03 0.  1.
         11    1    4    4    0    0  0.63389162072E-01  0.36095157722E-01  0.11373798563E-01  0.73828657674E-01  0.51100000000E-03 0. -1.
</event>
<event>
 8    1  0.1079508E+005  0.1043930E+01  0.7957747E-01            NaN
         13   -1    0    0    0    0  0.00000000000E+00  0.00000000000E+00  0.74505805969E-08  0.10566000000E+00  0.10566000000E+00 0. -1.
     999900   -1    0    0    0    0 -0.00000000000E+00 -0.00000000000E+00 -0.74505805969E-08  0.93827000000E+00  0.93827000000E+00 0.  1.
     999902    2    1    2    0    0  0.60221968007E-02 -0.19092313343E-01 -0.13056259221E-01  0.10200291802E+01  0.10197491256E+01 0.  0.
     999903    2    3    3    0    0  0.10823590219E+00  0.62453591595E-01  0.27090685453E-01  0.12946242056E+00  0.20276870372E-01 0.  0.
         14    1    1    2    0    0 -0.60221968007E-02  0.19092313343E-01  0.13056259221E-01  0.23900819817E-01  0.00000000000E+00 0. -1.
     999901    1    3    3    0    0 -0.10221370539E+00 -0.81545904938E-01 -0.40146944673E-01  0.89056675962E+00  0.88000000000E+00 0. -1.
        -11    1    4    4    0    0  0.68332214130E-01  0.37376677111E-01  0.69175453655E-02  0.78194763474E-01  0.51100000000E-03 0. -1.
         11    1    4    4    0    0  0.39903688061E-01  0.25076914484E-01  0.20173140087E-01  0.51267657084E-01  0.51100000000E-03 0.  1.
</event>
<event>
 8    1  0.1079508E+005  0.1043930E+01  0.7957747E-01            NaN
         13   -1    0    0    0    0  0.00000000000E+00  0.00000000000E+00  0.74505805969E-08  0.10566000000E+00  0.10566000000E+00 0. -1.
     999900   -1    0    0    0    0 -0.00000000000E+00 -0.00000000000E+00 -0.74505805969E-08  0.93827000000E+00  0.93827000000E+00 0.  1.
     999902    2    1    2    0    0  0.12655025186E-01 -0.15665546187E-01 -0.11081633705E-01  0.10209438823E+01  0.10206850882E+01 0.  0.
     999903    2    3    3    0    0 -0.91138744601E-01  0.61565093069E-01 -0.65952303768E-01  0.12979377785E+00  0.20004673066E-01 0.  0.
         14    1    1    2    0    0 -0.12655025186E-01  0.15665546187E-01  0.11081633705E-01  0.22986117667E-01  0.00000000000E+00 0.  1.
     999901    1    3    3    0    0  0.10379376979E+00 -0.77230639256E-01  0.54870670063E-01  0.89115010448E+00  0.88000000000E+00 0. -1.
        -11    1    4    4    0    0 -0.85433231817E-01  0.62539241553E-01 -0.63689641366E-01  0.12355818618E+00  0.51100000000E-03 0. -1.
         11    1    4    4    0    0 -0.57055127836E-02 -0.97414848360E-03 -0.22626624014E-02  0.62355916748E-02  0.51100000000E-03 0.  1.
</event>
<event>
 8    1  0.1079508E+005  0.1043930E+01  0.7957747E-01            NaN
         13   -1    0    0    0    0  0.00000000000E+00  0.00000000000E+00  0.74505805969E-08  0.10566000000E+00  0.10566000000E+00 0.  1.
     999900   -1    0    0    0    0 -0.00000000000E+00 -0.00000000000E+00 -0.74505805969E-08  0.93827000000E+00  0.93827000000E+00 0.  1.
     999902    2    1    2    0    0 -0.92751907503E-02 -0.18659418166E-01 -0.12077523102E-01  0.10198453656E+01  0.10195609350E+01 0.  0.
     999903    2    3    3    0    0  0.91128031410E-01 -0.39933794456E-01 -0.82938973534E-01  0.13105137864E+00  0.19913926382E-01 0.  0.
         14    1    1    2    0    0  0.92751907503E-02  0.18659418166E-01  0.12077523102E-01  0.24084634397E-01  0.00000000000E+00 0.  1.
     999901    1    3    3    0    0 -0.10040322216E+00  0.21274376289E-01  0.70861450432E-01  0.88879398696E+00  0.88000000000E+00 0. -1.
        -11    1    4    4    0    0  0.43296329127E-01 -0.17693133700E-01 -0.26342300286E-01  0.53682371421E-01  0.51100000000E-03 0. -1.
         11    1    4    4    0    0  0.47831702283E-01 -0.22240660756E-01 -0.56596673248E-01  0.77369007218E-01  0.51100000000E-03 0.  1.
</event>
<event>
 8    1  0.1079508E+005  0.1043930E+01  0.7957747E-01            NaN
         13   -1    0    0    0    0  0.00000000000E+00  0.00000000000E+00  0.74505805969E-08  0.10566000000E+00  0.10566000000E+00 0.  1.
     999900   -1    0    0    0    0 -0.00000000000E+00 -0.00000000000E+00 -0.74505805969E-08  0.93827000000E+00  0.93827000000E+00 0. -1.
     999902    2    1    2    0    0 -0.10974768577E-01  0.94305091194E-02  0.19189204620E-01  0.10198965728E+01  0.10196133648E+01 0.  0.
     999903    2    3    3    0    0  0.44571830607E-01  0.79983294750E-01 -0.88434343955E-01  0.12880401397E+00  0.19643454441E-01 0.  0.
         14    1    1    2    0    0  0.10974768577E-01 -0.94305091194E-02 -0.19189204620E-01  0.24033427169E-01  0.00000000000E+00 0. -1.
     999901    1    3    3    0    0 -0.55546599184E-01 -0.70552785630E-01  0.10762354858E+00  0.89109255886E+00  0.88000000000E+00 0.  1.
        -11    1    4    4    0    0  0.22973630520E-01  0.59686367666E-01 -0.62315315757E-01  0.89295631938E-01  0.51100000000E-03 0.  1.
         11    1    4    4    0    0  0.21598200087E-01  0.20296927084E-01 -0.26119028199E-01  0.39508382036E-01  0.51100000000E-03 0. -1.
</event>
<event>
 8    1  0.1079508E+005  0.1043930E+01  0.7957747E-01            NaN
         13   -1    0    0    0    0  0.00000000000E+00  0.00000000000E+00  0.74505805969E-08  0.10566000000E+00  0.10566000000E+00 0.  1.
     999900   -1    0    0    0    0 -0.00000000000E+00 -0.00000000000E+00 -0.74505805969E-08  0.93827000000E+00  0.93827000000E+00 0. -1.
     999902    2    1    2    0    0 -0.94305515359E-02 -0.17857154920E-01  0.12150428970E-01  0.10203620937E+01  0.10200898764E+01 0.  0.
     999903    2    3    3    0    0  0.87758813607E-01  0.91150887675E-01  0.85032225237E-02  0.12831846910E+00  0.19576287401E-01 0.  0.
         14    1    1    2    0    0  0.94305515359E-02  0.17857154920E-01 -0.12150428970E-01  0.23567906319E-01  0.00000000000E+00 0.  1.
     999901    1    3    3    0    0 -0.97189365143E-01 -0.10900804259E+00  0.36472064461E-02  0.89204362458E+00  0.88000000000E+00 0. -1.
        -11    1    4    4    0    0  0.61845211859E-01  0.55755941648E-01  0.12763614546E-01  0.84242069278E-01  0.51100000000E-03 0. -1.
         11    1    4    4    0    0  0.25913601747E-01  0.35394946027E-01 -0.42603920219E-02  0.44076399819E-01  0.51100000000E-03 0.  1.
</event>
<event>
 8    1  0.1079508E+005  0.1043930E+01  0.7957747E-01            NaN
         13   -1    0    0    0    0  0.00000000000E+00  0.00000000000E+00  0.74505805969E-08  0.10566000000E+00  0.10566000000E+00 0.  1.
     999900   -1    0    0    0    0 -0.00000000000E+00 -0.00000000000E+00 -0.74505805969E-08  0.93827000000E+00  0.93827000000E+00 0.  1.
     999902    2    1    2    0    0 -0.31214223456E-03 -0.75803147196E-02  0.22414067713E-01  0.10202667577E+01  0.10199923077E+01 0.  0.
     999903    2    3    3    0    0  0.12008154136E+00 -0.47814370419E-01 -0.11278317739E-02  0.13084692472E+00  0.20343429166E-01 0.  0.
         14    1    1    2    0    0  0.31214223456E-03  0.75803147196E-02 -0.22414067713E-01  0.23663242286E-01  0.00000000000E+00 0. -1.
     999901    1    3    3    0    0 -0.12039368360E+00  0.40234055699E-01  0.23541899487E-01  0.88941983299E+00  0.88000000000E+00 0.  1.
        -11    1    4    4    0    0  0.32286018505E-01 -0.21200592699E-01  0.47387755303E-02  0.38917466981E-01  0.51100000000E-03 0. -1.
         11    1    4    4    0    0  0.87795522858E-01 -0.26613777720E-01 -0.58666073042E-02  0.91929457741E-01  0.51100000000E-03 0.  1.
</event>
<event>
 8    1  0.1079508E+005  0.1043930E+01  0.7957747E-01            NaN
         13   -1    0    0    0    0  0.00000000000E+00  0.00000000000E+00  0.74505805969E-08  0.10566000000E+00  0.10566000000E+00 0. -1.
     999900   -1    0    0    0    0 -0.00000000000E+00 -0.00000000000E+00 -0.74505805969E-08  0.93827000000E+00  0.93827000000E+00 0.  1.
     999902    2    1    2    0    0 -0.21560111507E-01  0.32689235213E-03  0.94297702976E-02  0.10203956457E+01  0.10201242120E+01 0.  0.
     999903    2    3    3    0    0  0.41514502992E-01  0.87984698313E-01 -0.82442141321E-01  0.12904681041E+00  0.19789176724E-01 0.  0.
         14    1    1    2    0    0  0.21560111507E-01 -0.32689235213E-03 -0.94297702976E-02  0.23534354350E-01  0.00000000000E+00 0.  1.
     999901    1    3    3    0    0 -0.63074614498E-01 -0.87657805961E-01  0.91871911618E-01  0.89134883524E+00  0.88000000000E+00 0. -1.
        -11    1    4    4    0    0  0.35037032670E-02  0.43007764427E-02  0.93239853464E-05  0.55708008877E-02  0.51100000000E-03 0. -1.
         11    1    4    4    0    0  0.38010799725E-01  0.83683921871E-01 -0.82451465306E-01  0.12347600952E+00  0.51100000000E-03 0.  1.
</event>
<event>
 8    1  0.1079508E+005  0.1043930E+01  0.7957747E-01            NaN
         13   -1    0    0    0    0  0.00000000000E+00  0.00000000000E+00  0.74505805969E-08  0.10566000000E+00  0.10566000000E+00 0.  1.
     999900   -1    0    0    0    0 -0.00000000000E+00 -0.00000000000E+00 -0.74505805969E-08  0.93827000000E+00  0.93827000000E+00 0.  1.
     999902    2    1    2    0    0  0.18010363616E-01  0.91772310751E-02  0.12787005697E-01  0.10200113403E+01  0.10197308625E+01 0.  0.
     999903    2    3    3    0    0 -0.78068500714E-01  0.81927756852E-01  0.59975038960E-01  0.13054492852E+00  0.25261134543E-01 0.  0.
         14    1    1    2    0    0 -0.18010363616E-01 -0.91772310751E-02 -0.12787005697E-01  0.23918659713E-01  0.00000000000E+00 0.  1.
     999901    1    3    3    0    0  0.96078864330E-01 -0.72750525777E-01 -0.47188033263E-01  0.88946641176E+00  0.88000000000E+00 0.  1.
        -11    1    4    4    0    0 -0.38211308278E-01  0.27926854562E-01  0.35254664359E-01  0.59018351096E-01  0.51100000000E-03 0.  1.
         11    1    4    4    0    0 -0.39857192436E-01  0.54000902291E-01  0.24720374601E-01  0.71526577427E-01  0.51100000000E-03 0. -1.
</event>
<event>
 8    1  0.1079508E+005  0.1043930E+01  0.7957747E-01            NaN
         13   -1    0    0    0    0  0.00000000000E+00  0.00000000000E+00  0.74505805969E-08  0.10566000000E+00  0.10566000000E+00 0.  1.
     999900   -1    0    0    0    0 -0.00000000000E+00 -0.00000000000E+00 -0.74505805969E-08  0.93827000000E+00  0.93827000000E+00 0.  1.
     999902    2    1    2    0    0 -0.20287149488E-01  0.10008614051E-01 -0.77442022223E-02  0.10200194697E+01  0.10197391849E+01 0.  0.
     999903    2    3    3    0    0  0.10469462528E+00  0.53217941736E-01 -0.49588245186E-01  0.12915561147E+00  0.20713860791E-01 0.  0.
         14    1    1    2    0    0  0.20287149488E-01 -0.10008614051E-01  0.77442022223E-02  0.23910530266E-01  0.00000000000E+00 0.  1.
     999901    1    3    3    0    0 -0.12498177477E+00 -0.43209327685E-01  0.41844042964E-01  0.89086385826E+00  0.88000000000E+00 0. -1.
        -11    1    4    4    0    0  0.45438111151E-01  0.31628356605E-01 -0.30761877367E-01  0.63336633213E-01  0.51100000000E-03 0.  1.
         11    1    4    4    0    0  0.59256514131E-01  0.21589585130E-01 -0.18826367819E-01  0.65818978260E-01  0.51100000000E-03 0. -1.
</event>
<event>
 8    1  0.1079508E+005  0.1043930E+01  0.7957747E-01            NaN
         13   -1    0    0    0    0  0.00000000000E+00  0.00000000000E+00  0.74505805969E-08  0.10566000000E+00  0.10566000000E+00 0.  1.
     999900   -1    0    0    0    0 -0.00000000000E+00 -0.00000000000E+00 -0.74505805969E-08  0.93827000000E+00  0.93827000000E+00 0. -1.
     999902    2    1    2    0    0  0.27373020712E-02 -0.98084508278E-02 -0.21369953452E-01  0.10202577918E+01  0.10199831314E+01 0.  0.
     999903    2    3    3    0    0 -0.10629779148E+00  0.36655607584E-01  0.59318801968E-01  0.12865348742E+00  0.19752101619E-01 0.  0.
         14    1    1    2    0    0 -0.27373020712E-02  0.98084508278E-02  0.21369953452E-01  0.23672208194E-01  0.00000000000E+00 0.  1.
     999901    1    3    3    0    0  0.10903509355E+00 -0.46464058412E-01 -0.80688755420E-01  0.89160430439E+00  0.88000000000E+00 0.  1.
        -11    1    4    4    0    0 -0.46848354008E-01  0.14512646228E-01  0.36860664520E-01  0.61354338752E-01  0.51100000000E-03 0. -1.
         11    1    4    4    0    0 -0.59449437467E-01  0.22142961356E-01  0.22458137449E-01  0.67299148668E-01  0.51100000000E-03 0.  1.
</event>
<event>
 8    1  0.1079508E+005  0.1043930E+01  0.7957747E-01            NaN
         13   -1    0    0    0    0  0.00000000000E+00  0.00000000000E+00  0.74505805969E-08  0.10566000000E+00  0.10566000000E+00 0.  1.
     999900   -1    0    0    0    0 -0.00000000000E+00 -0.00000000000E+00 -0.74505805969E-08  0.93827000000E+00  0.93827000000E+00 0.  1.
     999902    2    1    2    0    0 -0.78371804931E-02 -0.21976518692E-01  0.56693127127E-02  0.10199189634E+01  0.10196362891E+01 0.  0.
     999903    2    3    3    0    0  0.79178652346E-01  0.90101085775E-01  0.39811623740E-01  0.12789943335E+00  0.19642683667E-01 0.  0.
         14    1    1    2    0    0  0.78371804931E-02  0.21976518692E-01 -0.56693127127E-02  0.24011036599E-01  0.00000000000E+00 0. -1.
     999901    1    3    3    0    0 -0.87015832839E-01 -0.11207760447E+00 -0.34142311027E-01  0.89201953005E+00  0.88000000000E+00 0.  1.
        -11    1    4    4    0    0  0.53280336127E-01  0.46101214118E-01  0.24451759964E-01  0.74580599671E-01  0.51100000000E-03 0.  1.
         11    1    4    4    0    0  0.25898316219E-01  0.43999871658E-01  0.15359863776E-01  0.53318833681E-01  0.51100000000E-03 0. -1.
</event>
<event>
 8    1  0.1079508E+005  0.1043930E+01  0.7957747E-01            NaN
         13   -1    0    0    0    0  0.00000000000E+00  0.00000000000E+00  0.74505805969E-08  0.10566000000E+00  0.10566000000E+00 0. -1.
     999900   -1    0    0    0    0 -0.00000000000E+00 -0.00000000000E+00 -0.74505805969E-08  0.93827000000E+00  0.93827000000E+00 0.  1.
     999902    2    1    2    0    0 -0.18236289046E-01 -0.14787084188E-01  0.86364911904E-02  0.10189138237E+01  0.10186066812E+01 0.  0.
     999903    2    3    3    0    0  0.79488956256E-01  0.65389484908E-01  0.72730591572E-01  0.12757406832E+00  0.19776881819E-01 0.  0.
         14    1    1    2    0    0  0.18236289046E-01  0.14787084188E-01 -0.86364911904E-02  0.25016176308E-01  0.00000000000E+00 0. -1.
     999901    1    3    3    0    0 -0.97725245302E-01 -0.80176569096E-01 -0.64094100382E-01  0.89133975537E+00  0.88000000000E+00 0.  1.
        -11    1    4    4    0    0  0.34562958904E-01  0.40473810902E-01  0.32967205161E-01  0.62608507682E-01  0.51100000000E-03 0.  1.
         11    1    4    4    0    0  0.44925997352E-01  0.24915674006E-01  0.39763386411E-01  0.64965560639E-01  0.51100000000E-03 0. -1.
</event>
<event>
 8    1  0.1079508E+005  0.1043930E+01  0.7957747E-01            NaN
         13   -1    0    0    0    0  0.00000000000E+00  0.00000000000E+00  0.74505805969E-08  0.10566000000E+00  0.10566000000E+00 0.  1.
     999900   -1    0    0    0    0 -0.00000000000E+00 -0.00000000000E+00 -0.74505805969E-08  0.93827000000E+00  0.93827000000E+00 0. -1.
     999902    2    1    2    0    0  0.14709846654E-01 -0.38141468154E-03 -0.24732599742E-01  0.10151510745E+01  0.10147430598E+01 0.  0.
     999903    2    3    3    0    0  0.88123342019E-01  0.61121056859E-01 -0.68579652352E-01  0.12886970867E+00  0.20068036673E-01 0.  0.
         14    1    1    2    0    0 -0.14709846654E-01  0.38141468154E-03  0.24732599742E-01  0.28778925549E-01  0.00000000000E+00 0. -1.
     999901    1    3    3    0    0 -0.73413495365E-01 -0.61502471540E-01  0.43847052610E-01  0.88628136578E+00  0.88000000000E+00 0.  1.
        -11    1    4    4    0    0  0.25215951833E-01  0.18461969500E-01 -0.31212301118E-01  0.44171907438E-01  0.51100000000E-03 0. -1.
         11    1    4    4    0    0  0.62907390186E-01  0.42659087359E-01 -0.37367351234E-01  0.84697801232E-01  0.51100000000E-03 0.  1.
</event>
<event>
 8    1  0.1079508E+005  0.1043930E+01  0.7957747E-01            NaN
         13   -1    0    0    0    0  0.00000000000E+00  0.00000000000E+00  0.74505805969E-08  0.10566000000E+00  0.10566000000E+00 0.  1.
     999900   -1    0    0    0    0 -0.00000000000E+00 -0.00000000000E+00 -0.74505805969E-08  0.93827000000E+00  0.93827000000E+00 0.  1.
     999902    2    1    2    0    0 -0.31278915632E-02 -0.24017476283E-02  0.22415806100E-01  0.10211699372E+01  0.10209162650E+01 0.  0.
     999903    2    3    3    0    0 -0.14717110082E-01 -0.12795069752E+00  0.22253727477E-01  0.13218350584E+00  0.19730091336E-01 0.  0.
         14    1    1    2    0    0  0.31278915632E-02  0.24017476283E-02 -0.22415806100E-01  0.22760062839E-01  0.00000000000E+00 0. -1.
     999901    1    3    3    0    0  0.11589218519E-01  0.12554894989E+00  0.16207862305E-03  0.88898643132E+00  0.88000000000E+00 0.  1.
        -11    1    4    4    0    0 -0.37405915663E-02 -0.67394656761E-01  0.20759392107E-01  0.70620430945E-01  0.51100000000E-03 0. -1.
         11    1    4    4    0    0 -0.10976518516E-01 -0.60556040760E-01  0.14943353696E-02  0.61563074894E-01  0.51100000000E-03 0.  1.
</event>
<event>
 8    1  0.1079508E+005  0.1043930E+01  0.7957747E-01            NaN
         13   -1    0    0    0    0  0.00000000000E+00  0.00000000000E+00  0.74505805969E-08  0.10566000000E+00  0.10566000000E+00 0. -1.
     999900   -1    0    0    0    0 -0.00000000000E+00 -0.00000000000E+00 -0.74505805969E-08  0.93827000000E+00  0.93827000000E+00 0.  1.
     999902    2    1    2    0    0 -0.82142746360E-02 -0.16815345756E-01 -0.15456506960E-01  0.10196579220E+01  0.10193689932E+01 0.  0.
     999903    2    3    3    0    0  0.12260157319E+00  0.15598187207E-02  0.33196313844E-01  0.12846909263E+00  0.19202440572E-01 0.  0.
         14    1    1    2    0    0  0.82142746360E-02  0.16815345756E-01  0.15456506960E-01  0.24272077951E-01  0.00000000000E+00 0. -1.
     999901    1    3    3    0    0 -0.13081584783E+00 -0.18375164477E-01 -0.48652820803E-01  0.89118882942E+00  0.88000000000E+00 0.  1.
        -11    1    4    4    0    0  0.11581849522E+00 -0.27323484209E-02  0.32846638682E-01  0.12041823930E+00  0.51100000000E-03 0. -1.
         11    1    4    4    0    0  0.67830779768E-02  0.42921671416E-02  0.34967516221E-03  0.80508533293E-02  0.51100000000E-03 0.  1.
</event>
<event>
 8    1  0.1079508E+005  0.1043930E+01  0.7957747E-01            NaN
         13   -1    0    0    0    0  0.00000000000E+00  0.00000000000E+00  0.74505805969E-08  0.10566000000E+00  0.10566000000E+00 0. -1.
     999900   -1    0    0    0    0 -0.00000000000E+00 -0.00000000000E+00 -0.74505805969E-08  0.93827000000E+00  0.93827000000E+00 0. -1.
     999902    2    1    2    0    0  0.11802264454E-01  0.17926096551E-01  0.93653607244E-02  0.10205131606E+01  0.10202444622E+01 0.  0.
     999903    2    3    3    0    0 -0.10690544454E-01  0.12302576501E-01 -0.12688858148E+00  0.12972548269E+00  0.21502270138E-01 0.  0.
         14    1    1    2    0    0 -0.11802264454E-01 -0.17926096551E-01 -0.93653607244E-02  0.23416839354E-01  0.00000000000E+00 0.  1.
     999901    1    3    3    0    0  0.22492808909E-01  0.56235200505E-02  0.13625394220E+00  0.89078767795E+00  0.88000000000E+00 0.  1.
        -11    1    4    4    0    0  0.23179879447E-02  0.13322250159E-01 -0.53544267232E-01  0.55227756534E-01  0.51100000000E-03 0.  1.
         11    1    4    4    0    0 -0.13008532399E-01 -0.10196736586E-02 -0.73344314245E-01  0.74497726157E-01  0.51100000000E-03 0. -1.
</event>
<event>
 8    1  0.1079508E+005  0.1043930E+01  0.7957747E-01            NaN
         13   -1    0    0    0    0  0.00000000000E+00  0.00000000000E+00  0.74505805969E-08  0.10566000000E+00  0.10566000000E+00 0.  1.
     999900   -1    0    0    0    0 -0.00000000000E+00 -0.00000000000E+00 -0.74505805969E-08  0.93827000000E+00  0.93827000000E+00 0. -1.
     999902    2    1    2    0    0  0.21615013045E-01 -0.22519471877E-02 -0.47610634555E-02  0.10216825781E+01  0.10214403275E+01 0.  0.
     999903    2    3    3    0    0  0.12574756788E+00 -0.22896921450E-01 -0.37842231915E-01  0.13468530211E+00  0.19271124736E-01 0.  0.
         14    1    1    2    0    0 -0.21615013045E-01  0.22519471877E-02  0.47610634555E-02  0.22247421879E-01  0.00000000000E+00 0. -1.
     999901    1    3    3    0    0 -0.10413255484E+00  0.20644974263E-01  0.33081168459E-01  0.88699727601E+00  0.88000000000E+00 0.  1.
        -11    1    4    4    0    0  0.90376304081E-01 -0.10595032336E-01 -0.19857911665E-01  0.93138224303E-01  0.51100000000E-03 0. -1.
         11    1    4    4    0    0  0.35371263801E-01 -0.12301889115E-01 -0.17984320250E-01  0.41547077809E-01  0.51100000000E-03 0.  1.
</event>
<event>
 8    1  0.1079508E+005  0.1043930E+01  0.7957747E-01            NaN
         13   -1    0    0    0    0  0.00000000000E+00  0.00000000000E+00  0.74505805969E-08  0.10566000000E+00  0.10566000000E+00 0. -1.
     999900   -1    0    0    0    0 -0.00000000000E+00 -0.00000000000E+00 -0.74505805969E-08  0.93827000000E+00  0.93827000000E+00 0. -1.
     999902    2    1    2    0    0 -0.82965797754E-02 -0.20688278510E-01  0.46295676147E-02  0.10211644339E+01  0.10209106376E+01 0.  0.
     999903    2    3    3    0    0 -0.57393315718E-01  0.90489916825E-01  0.71590687695E-01  0.13029133844E+00  0.19188240486E-01 0.  0.
         14    1    1    2    0    0  0.82965797754E-02  0.20688278510E-01 -0.46295676147E-02  0.22765566103E-01  0.00000000000E+00 0. -1.
     999901    1    3    3    0    0  0.49096735943E-01 -0.11117819534E+00 -0.66961120080E-01  0.89087309545E+00  0.88000000000E+00 0. -1.
        -11    1    4    4    0    0 -0.25352692682E-01  0.34048588698E-01  0.39071454167E-01  0.57696664291E-01  0.51100000000E-03 0.  1.
         11    1    4    4    0    0 -0.32040623037E-01  0.56441328126E-01  0.32519233528E-01  0.72594674154E-01  0.51100000000E-03 0. -1.
</event>
<event>
 8    1  0.1079508E+005  0.1043930E+01  0.7957747E-01            NaN
         13   -1    0    0    0    0  0.00000000000E+00  0.00000000000E+00  0.74505805969E-08  0.10566000000E+00  0.10566000000E+00 0.  1.
     999900   -1    0    0    0    0 -0.00000000000E+00 -0.00000000000E+00 -0.74505805969E-08  0.93827000000E+00  0.93827000000E+00 0.  1.
     999902    2    1    2    0    0 -0.84458622202E-02 -0.21047900252E-01 -0.64693037382E-02  0.10203461372E+01  0.10200735469E+01 0.  0.
     999903    2    3    3    0    0 -0.54435328399E-01 -0.56280608061E-01  0.10380317602E+00  0.13157372849E+00  0.20145343268E-01 0.  0.
         14    1    1    2    0    0  0.84458622202E-02  0.21047900252E-01  0.64693037382E-02  0.23583862799E-01  0.00000000000E+00 0.  1.
     999901    1    3    3    0    0  0.45989466179E-01  0.35232707808E-01 -0.11027247975E+00  0.88877240871E+00  0.88000000000E+00 0.  1.
        -11    1    4    4    0    0 -0.38015913991E-01 -0.32043343296E-01  0.78253593142E-01  0.92713923047E-01  0.51100000000E-03 0.  1.
         11    1    4    4    0    0 -0.16419414408E-01 -0.24237264765E-01  0.25549582874E-01  0.38859805440E-01  0.51100000000E-03 0. -1.
</event>
<event>
 8    1  0.1079508E+005  0.1043930E+01  0.7957747E-01            NaN
         13   -1    0    0    0    0  0.00000000000E+00  0.00000000000E+00  0.74505805969E-08  0.10566000000E+00  0.10566000000E+00 0.  1.
     999900   -1    0    0    0    0 -0.00000000000E+00 -0.00000000000E+00 -0.74505805969E-08  0.93827000000E+00  0.93827000000E+00 0. -1.
     999902    2    1    2    0    0  0.57140174904E-02  0.12095922972E-01 -0.20951013799E-01  0.10190722783E+01  0.10187690622E+01 0.  0.
     999903    2    3    3    0    0 -0.95420979779E-01  0.29790674671E-01  0.76838562148E-01  0.12772263138E+00  0.20402408079E-01 0.  0.
         14    1    1    2    0    0 -0.57140174904E-02 -0.12095922972E-01  0.20951013799E-01  0.24857721690E-01  0.00000000000E+00 0.  1.
     999901    1    3    3    0    0  0.10113499727E+00 -0.17694751699E-01 -0.97789575946E-01  0.89134964693E+00  0.88000000000E+00 0.  1.
        -11    1    4    4    0    0 -0.68737107243E-01  0.12100026667E-01  0.48823413410E-01  0.85177387700E-01  0.51100000000E-03 0. -1.
         11    1    4    4    0    0 -0.26683872536E-01  0.17690648004E-01  0.28015148738E-01  0.42545243684E-01  0.51100000000E-03 0.  1.
</event>
<event>
 8    1  0.1079508E+005  0.1043930E+01  0.7957747E-01            NaN
         13   -1    0    0    0    0  0.00000000000E+00  0.00000000000E+00  0.74505805969E-08  0.10566000000E+00  0.10566000000E+00 0. -1.
     999900   -1    0    0    0    0 -0.00000000000E+00 -0.00000000000E+00 -0.74505805969E-08  0.93827000000E+00  0.93827000000E+00 0.  1.
     999902    2    1    2    0    0  0.62031479092E-02  0.22378878971E-01  0.70681438373E-03  0.10206965574E+01  0.10204320994E+01 0.  0.
     999903    2    3    3    0    0 -0.12333212125E+00 -0.22589918072E-01 -0.26201601744E-01  0.12967150640E+00  0.20175705909E-01 0.  0.
         14    1    1    2    0    0 -0.62031479092E-02 -0.22378878971E-01 -0.70681438373E-03  0.23233442590E-01  0.00000000000E+00 0.  1.
     999901    1    3    3    0    0  0.12953526916E+00  0.44968797044E-01  0.26908416128E-01  0.89102505101E+00  0.88000000000E+00 0. -1.
        -11    1    4    4    0    0 -0.38766639805E-01 -0.16369501002E-01 -0.11320665121E-01  0.43580173297E-01  0.51100000000E-03 0.  1.
         11    1    4    4    0    0 -0.84565481443E-01 -0.62204170703E-02 -0.14880936623E-01  0.86091333106E-01  0.51100000000E-03 0. -1.
</event>
<event>
 8    1  0.1079508E+005  0.1043930E+01  0.7957747E-01            NaN
         13   -1    0    0    0    0  0.00000000000E+00  0.00000000000E+00  0.74505805969E-08  0.10566000000E+00  0.10566000000E+00 0.  1.
     999900   -1    0    0    0    0 -0.00000000000E+00 -0.00000000000E+00 -0.74505805969E-08  0.93827000000E+00  0.93827000000E+00 0.  1.
     999902    2    1    2    0    0  0.68080067497E-03 -0.70187835534E-02 -0.22723848425E-01  0.10201371418E+01  0.10198596414E+01 0.  0.
     999903    2    3    3    0    0 -0.10041383222E+00 -0.81614502930E-01  0.46585136492E-03  0.13091140654E+00  0.19842241681E-01 0.  0.
         14    1    1    2    0    0 -0.68080067497E-03  0.70187835534E-02  0.22723848425E-01  0.23792858159E-01  0.00000000000E+00 0.  1.
     999901    1    3    3    0    0  0.10109463289E+00  0.74595719376E-01 -0.23189699790E-01  0.88922573530E+00  0.88000000000E+00 0.  1.
        -11    1    4    4    0    0 -0.40020294288E-01 -0.30766396590E-01 -0.93902046293E-02  0.51348146782E-01  0.51100000000E-03 0. -1.
         11    1    4    4    0    0 -0.60393537931E-01 -0.50848106340E-01  0.98560559942E-02  0.79563259756E-01  0.51100000000E-03 0.  1.
</event>
<event>
 7    1  0.1079508E+005  0.1043930E+01  0.7957747E-01            NaN
         13   -1    0    0    0    0  0.00000000000E+00  0.00000000000E+00  0.74505805969E-08  0.10566000000E+00  0.10566000000E+00 0. -1.
     999900   -1    0    0    0    0 -0.00000000000E+00 -0.00000000000E+00 -0.74505805969E-08  0.93827000000E+00  0.93827000000E+00 0. -1.
     999903    2    1    2    0    0  0.53179517921E-01 -0.67619181220E-01  0.65944307214E-01  0.11067888022E+00  0.22377401065E-01 0.  0.
         14    1    1    2    0    0  0.10279846508E-01  0.30347634816E-01 -0.38042773790E-01  0.49738383777E-01  0.00000000000E+00 0.  1.
     999901    1    1    2    0    0 -0.63459364429E-01  0.37271546404E-01 -0.27901533424E-01  0.88351273600E+00  0.88000000000E+00 0. -1.
        -11    1    3    3    0    0  0.35172383750E-01 -0.52403822226E-01  0.36333147119E-01  0.72825928509E-01  0.51100000000E-03 0. -1.
         11    1    3    3    0    0  0.18007134171E-01 -0.15215358994E-01  0.29611160095E-01  0.37852951715E-01  0.51100000000E-03 0.  1.
</event>
<event>
 8    1  0.1079508E+005  0.1043930E+01  0.7957747E-01            NaN
         13   -1    0    0    0    0  0.00000000000E+00  0.00000000000E+00  0.74505805969E-08  0.10566000000E+00  0.10566000000E+00 0. -1.
     999900   -1    0    0    0    0 -0.00000000000E+00 -0.00000000000E+00 -0.74505805969E-08  0.93827000000E+00  0.93827000000E+00 0. -1.
     999902    2    1    2    0    0 -0.12388904872E-01  0.11968656249E-01  0.16151004706E-01  0.10203166849E+01  0.10200434054E+01 0.  0.
     999903    2    3    3    0    0 -0.96294915073E-01  0.58650628563E-01 -0.64483932597E-01  0.13142894273E+00  0.20069442562E-01 0.  0.
         14    1    1    2    0    0  0.12388904872E-01 -0.11968656249E-01 -0.16151004706E-01  0.23613315086E-01  0.00000000000E+00 0.  1.
     999901    1    3    3    0    0  0.83906010201E-01 -0.46681972314E-01  0.80634937304E-01  0.88888774218E+00  0.88000000000E+00 0.  1.
        -11    1    4    4    0    0 -0.45096325658E-01  0.34252338812E-01 -0.22834896609E-01  0.61062221759E-01  0.51100000000E-03 0. -1.
         11    1    4    4    0    0 -0.51198589415E-01  0.24398289751E-01 -0.41649035988E-01  0.70366720974E-01  0.51100000000E-03 0.  1.
</event>
<event>
 8    1  0.1079508E+005  0.1043930E+01  0.7957747E-01            NaN
         13   -1    0    0    0    0  0.00000000000E+00  0.00000000000E+00  0.74505805969E-08  0.10566000000E+00  0.10566000000E+00 0. -1.
     999900   -1    0    0    0    0 -0.00000000000E+00 -0.00000000000E+00 -0.74505805969E-08  0.93827000000E+00  0.93827000000E+00 0. -1.
     999902    2    1    2    0    0 -0.22512143865E-01 -0.41557433177E-02  0.69707181959E-02  0.10199997318E+01  0.10197189785E+01 0.  0.
     999903    2    3    3    0    0 -0.84153698535E-01 -0.45436617567E-01  0.89631339722E-01  0.13301801260E+00  0.22664585219E-01 0.  0.
         14    1    1    2    0    0  0.22512143865E-01  0.41557433177E-02 -0.69707181959E-02  0.23930268200E-01  0.00000000000E+00 0. -1.
     999901    1    3    3    0    0  0.61641554670E-01  0.41280874249E-01 -0.82660621526E-01  0.88698171920E+00  0.88000000000E+00 0. -1.
        -11    1    4    4    0    0 -0.61330458258E-01 -0.21067162962E-01  0.57281726360E-01  0.86525763569E-01  0.51100000000E-03 0. -1.
         11    1    4    4    0    0 -0.22823240277E-01 -0.24369454605E-01  0.32349613362E-01  0.46492249033E-01  0.51100000000E-03 0.  1.
</event>
<event>
 8    1  0.1079508E+005  0.1043930E+01  0.7957747E-01            NaN
         13   -1    0    0    0    0  0.00000000000E+00  0.00000000000E+00  0.74505805969E-08  0.10566000000E+00  0.10566000000E+00 0.  1.
     999900   -1    0    0    0    0 -0.00000000000E+00 -0.00000000000E+00 -0.74505805969E-08  0.93827000000E+00  0.93827000000E+00 0.  1.
     999902    2    1    2    0    0 -0.21874044775E-01  0.77177672614E-02 -0.34988278020E-02  0.10204719617E+01  0.10202023059E+01 0.  0.
     999903    2    3    3    0    0  0.10578617038E+00  0.60223397694E-02  0.69424643964E-01  0.12827364417E+00  0.20183264856E-01 0.  0.
         14    1    1    2    0    0  0.21874044775E-01 -0.77177672614E-02  0.34988278020E-02  0.23458038331E-01  0.00000000000E+00 0. -1.
     999901    1    3    3    0    0 -0.12766021515E+00  0.16954274920E-02 -0.72923471766E-01  0.89219831750E+00  0.88000000000E+00 0.  1.
        -11    1    4    4    0    0  0.51396908228E-01 -0.57292024481E-02  0.27300621061E-01  0.58481201830E-01  0.51100000000E-03 0.  1.
         11    1    4    4    0    0  0.54389262151E-01  0.11751542217E-01  0.42124022902E-01  0.69792442344E-01  0.51100000000E-03 0. -1.
</event>
<event>
 8    1  0.1079508E+005  0.1043930E+01  0.7957747E-01            NaN
         13   -1    0    0    0    0  0.00000000000E+00  0.00000000000E+00  0.74505805969E-08  0.10566000000E+00  0.10566000000E+00 0. -1.
     999900   -1    0    0    0    0 -0.00000000000E+00 -0.00000000000E+00 -0.74505805969E-08  0.93827000000E+00  0.93827000000E+00 0. -1.
     999902    2    1    2    0    0 -0.15380124215E-02  0.91041264550E-02  0.22229282542E-01  0.10198594453E+01  0.10195753511E+01 0.  0.
     999903    2    3    3    0    0 -0.70071190746E-01  0.47458348406E-01  0.10035319611E+00  0.13291458302E+00  0.20814797706E-01 0.  0.
         14    1    1    2    0    0  0.15380124215E-02 -0.91041264550E-02 -0.22229282542E-01  0.24070554689E-01  0.00000000000E+00 0.  1.
     999901    1    3    3    0    0  0.68533178325E-01 -0.38354221951E-01 -0.78123913569E-01  0.88694486229E+00  0.88000000000E+00 0. -1.
        -11    1    4    4    0    0 -0.27790080294E-01  0.77548197022E-02  0.28319410559E-01  0.40431125717E-01  0.51100000000E-03 0.  1.
         11    1    4    4    0    0 -0.42281110452E-01  0.39703528704E-01  0.72033785552E-01  0.92483457303E-01  0.51100000000E-03 0. -1.
</event>
<event>
 8    1  0.1079508E+005  0.1043930E+01  0.7957747E-01            NaN
         13   -1    0    0    0    0  0.00000000000E+00  0.00000000000E+00  0.74505805969E-08  0.10566000000E+00  0.10566000000E+00 0. -1.
     999900   -1    0    0    0    0 -0.00000000000E+00 -0.00000000000E+00 -0.74505805969E-08  0.93827000000E+00  0.93827000000E+00 0. -1.
     999902    2    1    2    0    0 -0.85751471814E-02  0.83804269483E-02 -0.20637660018E-01  0.10200620777E+01  0.10197828027E+01 0.  0.
     999903    2    3    3    0    0  0.45441910226E-01  0.11497264628E+00 -0.40926997820E-01  0.13175390990E+00  0.20009923203E-01 0.  0.
         14    1    1    2    0    0  0.85751471814E-02 -0.83804269483E-02  0.20637660018E-01  0.23867922323E-01  0.00000000000E+00 0. -1.
     999901    1    3    3    0    0 -0.54017057408E-01 -0.10659221933E+00  0.20289337802E-01  0.88830816778E+00  0.88000000000E+00 0.  1.
        -11    1    4    4    0    0  0.12604693368E-01  0.54903469092E-01 -0.12988891722E-01  0.57812123663E-01  0.51100000000E-03 0.  1.
         11    1    4    4    0    0  0.32837216858E-01  0.60069177183E-01 -0.27938106098E-01  0.73941786236E-01  0.51100000000E-03 0. -1.
</event>
<event>
 8    1  0.1079508E+005  0.1043930E+01  0.7957747E-01            NaN
         13   -1    0    0    0    0  0.00000000000E+00  0.00000000000E+00  0.74505805969E-08  0.10566000000E+00  0.10566000000E+00 0. -1.
     999900   -1    0    0    0    0 -0.00000000000E+00 -0.00000000000E+00 -0.74505805969E-08  0.93827000000E+00  0.93827000000E+00 0. -1.
     999902    2    1    2    0    0 -0.22852925561E-01 -0.46976548596E-02  0.35382833786E-02  0.10203324659E+01  0.10200595558E+01 0.  0.
     999903    2    3    3    0    0  0.10712768979E+00 -0.14470500664E-01 -0.67108687863E-01  0.12793039089E+00  0.13299308871E-01 0.  0.
         14    1    1    2    0    0  0.22852925561E-01  0.46976548596E-02 -0.35382833786E-02  0.23597534133E-01  0.00000000000E+00 0.  1.
     999901    1    3    3    0    0 -0.12998061535E+00  0.97728458041E-02  0.70646971242E-01  0.89240207498E+00  0.88000000000E+00 0.  1.
        -11    1    4    4    0    0  0.77087631620E-01 -0.49226725722E-02 -0.50608244418E-01  0.92348206144E-01  0.51100000000E-03 0.  1.
         11    1    4    4    0    0  0.30040058172E-01 -0.95478280914E-02 -0.16500443445E-01  0.35582184743E-01  0.51100000000E-03 0. -1.
</event>
<event>
 8    1  0.1079508E+005  0.1043930E+01  0.7957747E-01            NaN
         13   -1    0    0    0    0  0.00000000000E+00  0.00000000000E+00  0.74505805969E-08  0.10566000000E+00  0.10566000000E+00 0.  1.
     999900   -1    0    0    0    0 -0.00000000000E+00 -0.00000000000E+00 -0.74505805969E-08  0.93827000000E+00  0.93827000000E+00 0. -1.
     999902    2    1    2    0    0  0.20442457027E-01  0.12275322394E-01  0.14979495702E-02  0.10200381302E+01  0.10197582878E+01 0.  0.
     999903    2    3    3    0    0 -0.88638498795E-01 -0.88394447817E-01  0.14596652485E-01  0.12751102498E+00  0.19381366135E-01 0.  0.
         14    1    1    2    0    0 -0.20442457027E-01 -0.12275322394E-01 -0.14979495702E-02  0.23891869791E-01  0.00000000000E+00 0.  1.
     999901    1    3    3    0    0  0.10908095582E+00  0.10066977021E+00 -0.13098702915E-01  0.89252710523E+00  0.88000000000E+00 0. -1.
        -11    1    4    4    0    0 -0.64884295230E-01 -0.52358319614E-01  0.12376741148E-01  0.84290036438E-01  0.51100000000E-03 0. -1.
         11    1    4    4    0    0 -0.23754203565E-01 -0.36036128203E-01  0.22199113372E-02  0.43220988538E-01  0.51100000000E-03 0.  1.
</event>
<event>
 8    1  0.1079508E+005  0.1043930E+01  0.7957747E-01            NaN
         13   -1    0    0    0    0  0.00000000000E+00  0.00000000000E+00  0.74505805969E-08  0.10566000000E+00  0.10566000000E+00 0.  1.
     999900   -1    0    0    0    0 -0.00000000000E+00 -0.00000000000E+00 -0.74505805969E-08  0.93827000000E+00  0.93827000000E+00 0.  1.
     999902    2    1    2    0    0 -0.15272211491E-01 -0.27601950641E-04 -0.21837587662E-01  0.10172818961E+01  0.10169328074E+01 0.  0.
     999903    2    3    3    0    0 -0.10412614600E+00 -0.69607645680E-01  0.23242910253E-01  0.12893024533E+00  0.19882068968E-01 0.  0.
         14    1    1    2    0    0  0.15272211491E-01  0.27601950641E-04  0.21837587662E-01  0.26648103884E-01  0.00000000000E+00 0.  1.
     999901    1    3    3    0    0  0.88853934506E-01  0.69580043729E-01 -0.45080497915E-01  0.88835165079E+00  0.88000000000E+00 0.  1.
        -11    1    4    4    0    0 -0.31105767393E-01 -0.30462052310E-01  0.13041589222E-01  0.45451617864E-01  0.51100000000E-03 0. -1.
         11    1    4    4    0    0 -0.73020378604E-01 -0.39145593370E-01  0.10201321032E-01  0.83478627466E-01  0.51100000000E-03 0.  1.
</event>
<event>
 8    1  0.1079508E+005  0.1043930E+01  0.7957747E-01            NaN
         13   -1    0    0    0    0  0.00000000000E+00  0.00000000000E+00  0.74505805969E-08  0.10566000000E+00  0.10566000000E+00 0.  1.
     999900   -1    0    0    0    0 -0.00000000000E+00 -0.00000000000E+00 -0.74505805969E-08  0.93827000000E+00  0.93827000000E+00 0. -1.
     999902    2    1    2    0    0  0.25908257950E-01  0.49408409297E-05  0.39784749470E-03  0.10180186871E+01  0.10176888774E+01 0.  0.
     999903    2    3    3    0    0  0.31142061717E-02  0.89182202224E-01 -0.90504919727E-01  0.12856072527E+00  0.19327599794E-01 0.  0.
         14    1    1    2    0    0 -0.25908257950E-01 -0.49408409297E-05 -0.39784749470E-03  0.25911312916E-01  0.00000000000E+00 0.  1.
     999901    1    3    3    0    0  0.22794051778E-01 -0.89177261383E-01  0.90902767221E-01  0.88945796181E+00  0.88000000000E+00 0. -1.
        -11    1    4    4    0    0 -0.34706186630E-02  0.33041694576E-01 -0.22495055341E-01  0.40125894508E-01  0.51100000000E-03 0.  1.
         11    1    4    4    0    0  0.65848248348E-02  0.56140507648E-01 -0.68009864386E-01  0.88434830762E-01  0.51100000000E-03 0. -1.
</event>
<event>
 8    1  0.1079508E+005  0.1043930E+01  0.7957747E-01            NaN
         13   -1    0    0    0    0  0.00000000000E+00  0.00000000000E+00  0.74505805969E-08  0.10566000000E+00  0.10566000000E+00 0. -1.
     999900   -1    0    0    0    0 -0.00000000000E+00 -0.00000000000E+00 -0.74505805969E-08  0.93827000000E+00  0.93827000000E+00 0. -1.
     999902    2    1    2    0    0 -0.72600898255E-02 -0.90642623147E-02 -0.22881893810E-01  0.10182697034E+01  0.10179463336E+01 0.  0.
     999903    2    3    3    0    0 -0.49554995678E-01 -0.74951214725E-01 -0.95397642373E-01  0.13182259088E+00  0.14251424888E-01 0.  0.
         14    1    1    2    0    0  0.72600898255E-02  0.90642623147E-02  0.22881893810E-01  0.25660296567E-01  0.00000000000E+00 0. -1.
     999901    1    3    3    0    0  0.42294905853E-01  0.65886952411E-01  0.72515748563E-01  0.88644711255E+00  0.88000000000E+00 0.  1.
        -11    1    4    4    0    0 -0.11991429581E-01 -0.15531433509E-01 -0.29720022927E-01  0.35616859688E-01  0.51100000000E-03 0. -1.
         11    1    4    4    0    0 -0.37563566097E-01 -0.59419781216E-01 -0.65677619446E-01  0.96205731195E-01  0.51100000000E-03 0.  1.
</event>
<event>
 8    1  0.1079508E+005  0.1043930E+01  0.7957747E-01            NaN
         13   -1    0    0    0    0  0.00000000000E+00  0.00000000000E+00  0.74505805969E-08  0.10566000000E+00  0.10566000000E+00 0. -1.
     999900   -1    0    0    0    0 -0.00000000000E+00 -0.00000000000E+00 -0.74505805969E-08  0.93827000000E+00  0.93827000000E+00 0.  1.
     999902    2    1    2    0    0  0.66605626245E-02  0.59277421631E-02 -0.22691315118E-01  0.10195497415E+01  0.10192582001E+01 0.  0.
     999903    2    3    3    0    0  0.72210185140E-01  0.40029169474E-01 -0.10213346889E+00  0.13288705698E+00  0.20275088167E-01 0.  0.
         14    1    1    2    0    0 -0.66605626245E-02 -0.59277421631E-02  0.22691315118E-01  0.24380258478E-01  0.00000000000E+00 0. -1.
     999901    1    3    3    0    0 -0.65549622516E-01 -0.34101427310E-01  0.79442153769E-01  0.88666268454E+00  0.88000000000E+00 0. -1.
        -11    1    4    4    0    0  0.12121235092E-01  0.16079273483E-01 -0.28102336461E-01  0.34575566683E-01  0.51100000000E-03 0. -1.
         11    1    4    4    0    0  0.60088950048E-01  0.23949895991E-01 -0.74031132427E-01  0.98311490302E-01  0.51100000000E-03 0.  1.
</event>
<event>
 8    1  0.1079508E+005  0.1043930E+01  0.7957747E-01            NaN
         13   -1    0    0    0    0  0.00000000000E+00  0.00000000000E+00  0.74505805969E-08  0.10566000000E+00  0.10566000000E+00 0. -1.
     999900   -1    0    0    0    0 -0.00000000000E+00 -0.00000000000E+00 -0.74505805969E-08  0.93827000000E+00  0.93827000000E+00 0. -1.
     999902    2    1    2    0    0 -0.15242965166E-01 -0.17859577311E-01  0.16809888967E-02  0.10203898595E+01  0.10201182908E+01 0.  0.
     999903    2    3    3    0    0  0.67380437514E-01  0.95596656485E-01  0.47976566806E-01  0.12806580171E+00  0.20500110133E-01 0.  0.
         14    1    1    2    0    0  0.15242965166E-01  0.17859577311E-01 -0.16809888967E-02  0.23540140451E-01  0.00000000000E+00 0.  1.
     999901    1    3    3    0    0 -0.82623402680E-01 -0.11345623380E+00 -0.46295577909E-01  0.89232405784E+00  0.88000000000E+00 0. -1.
        -11    1    4    4    0    0  0.25635810879E-01  0.31072056959E-01  0.26672696322E-01  0.48315229205E-01  0.51100000000E-03 0. -1.
         11    1    4    4    0    0  0.41744626635E-01  0.64524599526E-01  0.21303870485E-01  0.79750572509E-01  0.51100000000E-03 0.  1.
</event>
<event>
 8    1  0.1079508E+005  0.1043930E+01  0.7957747E-01            NaN
         13   -1    0    0    0    0  0.00000000000E+00  0.00000000000E+00  0.74505805969E-08  0.10566000000E+00  0.10566000000E+00 0. -1.
     999900   -1    0    0    0    0 -0.00000000000E+00 -0.00000000000E+00 -0.74505805969E-08  0.93827000000E+00  0.93827000000E+00 0. -1.
     999902    2    1    2    0    0  0.17333867380E-01  0.13187989461E-01 -0.99031117936E-02  0.10200039128E+01  0.10197232588E+01 0.  0.
     999903    2    3    3    0    0  0.11585863572E+00 -0.57723256796E-01  0.81378864749E-02  0.13148772702E+00  0.21624044783E-01 0.  0.
         14    1    1    2    0    0 -0.17333867380E-01 -0.13187989461E-01  0.99031117936E-02  0.23926087176E-01  0.00000000000E+00 0. -1.
     999901    1    3    3    0    0 -0.98524768344E-01  0.70911246257E-01 -0.18040998268E-01  0.88851618581E+00  0.88000000000E+00 0.  1.
        -11    1    4    4    0    0  0.32241998663E-01 -0.10754830577E-01 -0.60844872722E-02  0.34532520396E-01  0.51100000000E-03 0. -1.
         11    1    4    4    0    0  0.83616637061E-01 -0.46968426219E-01  0.14222373747E-01  0.96955206621E-01  0.51100000000E-03 0.  1.
</event>
<event>
 8    1  0.1079508E+005  0.1043930E+01  0.7957747E-01            NaN
         13   -1    0    0    0    0  0.00000000000E+00  0.00000000000E+00  0.74505805969E-08  0.10566000000E+00  0.10566000000E+00 0.  1.
     999900   -1    0    0    0    0 -0.00000000000E+00 -0.00000000000E+00 -0.74505805969E-08  0.93827000000E+00  0.93827000000E+00 0. -1.
     999902    2    1    2    0    0  0.17097864757E-01 -0.28889097074E-02  0.18399617893E-01  0.10186470271E+01  0.10183332152E+01 0.  0.
     999903    2    3    3    0    0 -0.36861065368E-01  0.10587204719E+00  0.61144513322E-01  0.12928341309E+00  0.20197051187E-01 0.  0.
         14    1    1    2    0    0 -0.17097864757E-01  0.28889097074E-02 -0.18399617893E-01  0.25282972870E-01  0.00000000000E+00 0.  1.
     999901    1    3    3    0    0  0.53958930125E-01 -0.10876095689E+00 -0.42744895429E-01  0.88936361404E+00  0.88000000000E+00 0. -1.
        -11    1    4    4    0    0 -0.35348939425E-01  0.75700799175E-01  0.41958357750E-01  0.93492905721E-01  0.51100000000E-03 0. -1.
         11    1    4    4    0    0 -0.15121259436E-02  0.30171248011E-01  0.19186155572E-01  0.35790507374E-01  0.51100000000E-03 0.  1.
</event>
<event>
 8    1  0.1079508E+005  0.1043930E+01  0.7957747E-01            NaN
         13   -1    0    0    0    0  0.00000000000E+00  0.00000000000E+00  0.74505805969E-08  0.10566000000E+00  0.10566000000E+00 0.  1.
     999900   -1    0    0    0    0 -0.00000000000E+00 -0.00000000000E+00 -0.74505805969E-08  0.93827000000E+00  0.93827000000E+00 0. -1.
     999902    2    1    2    0    0  0.50783841075E-02  0.71279392878E-02  0.22098941008E-01  0.10201610981E+01  0.10198841627E+01 0.  0.
     999903    2    3    3    0    0  0.47990863660E-02  0.83281390703E-01 -0.96257545127E-01  0.12897779262E+00  0.20271525036E-01 0.  0.
         14    1    1    2    0    0 -0.50783841075E-02 -0.71279392878E-02 -0.22098941008E-01  0.23768901895E-01  0.00000000000E+00 0. -1.
     999901    1    3    3    0    0  0.27929774153E-03 -0.76153451415E-01  0.11835648613E+00  0.89118330549E+00  0.88000000000E+00 0.  1.
        -11    1    4    4    0    0  0.11424267215E-01  0.45980929190E-01 -0.60840047651E-01  0.77113761740E-01  0.51100000000E-03 0. -1.
         11    1    4    4    0    0 -0.66251808494E-02  0.37300461513E-01 -0.35417497476E-01  0.51864030877E-01  0.51100000000E-03 0.  1.
</event>
<event>
 8    1  0.1079508E+005  0.1043930E+01  0.7957747E-01            NaN
         13   -1    0    0    0    0  0.00000000000E+00  0.00000000000E+00  0.74505805969E-08  0.10566000000E+00  0.10566000000E+00 0. -1.
     999900   -1    0    0    0    0 -0.00000000000E+00 -0.00000000000E+00 -0.74505805969E-08  0.93827000000E+00  0.93827000000E+00 0. -1.
     999902    2    1    2    0    0  0.90270877343E-03 -0.23745883572E-01  0.18449287418E-03  0.10201662480E+01  0.10198894341E+01 0.  0.
     999903    2    3    3    0    0  0.86201968734E-01 -0.50319455484E-01 -0.83414245413E-01  0.13170079147E+00  0.20599396145E-01 0.  0.
         14    1    1    2    0    0 -0.90270877343E-03  0.23745883572E-01 -0.18449287418E-03  0.23763751963E-01  0.00000000000E+00 0. -1.
     999901    1    3    3    0    0 -0.85299259960E-01  0.26573571912E-01  0.83598738288E-01  0.88846545657E+00  0.88000000000E+00 0. -1.
        -11    1    4    4    0    0  0.55525990473E-01 -0.42230888076E-01 -0.62787176749E-01  0.93856668441E-01  0.51100000000E-03 0. -1.
         11    1    4    4    0    0  0.30675978261E-01 -0.80885674072E-02 -0.20627068664E-01  0.37844123027E-01  0.51100000000E-03 0.  1.
</event>
<event>
 8    1  0.1170123E+005  0.1043930E+01  0.7957747E-01            NaN
         13   -1    0    0    0    0  0.00000000000E+00  0.00000000000E+00  0.74505805969E-08  0.10566000000E+00  0.10566000000E+00 0.  1.
     999900   -1    0    0    0    0 -0.00000000000E+00 -0.00000000000E+00 -0.74505805969E-08  0.93827000000E+00  0.93827000000E+00 0.  1.
     999902    2    1    2    0    0  0.17898371564E-01  0.14319174150E-01 -0.64740893396E-02  0.10201118497E+01  0.10198337519E+01 0.  0.
     999903    2    3    3    0    0 -0.74910673973E-01  0.42154539193E-02  0.10252828548E+00  0.12848573866E+00  0.19161330538E-01 0.  0.
         14    1    1    2    0    0 -0.17898371564E-01 -0.14319174150E-01  0.64740893396E-02  0.23818150343E-01  0.00000000000E+00 0.  1.
     999901    1    3    3    0    0  0.92809045537E-01  0.10103720231E-01 -0.10900237482E+00  0.89162611100E+00  0.88000000000E+00 0.  1.
        -11    1    4    4    0    0 -0.34202843943E-01  0.83718255691E-02  0.59232938478E-01  0.68910986924E-01  0.51100000000E-03 0. -1.
         11    1    4    4    0    0 -0.40707830030E-01 -0.41563716498E-02  0.43295347005E-01  0.59574751735E-01  0.51100000000E-03 0.  1.
</event>
<event>
 8    1  0.1079508E+005  0.1043930E+01  0.7957747E-01            NaN
         13   -1    0    0    0    0  0.00000000000E+00  0.00000000000E+00  0.74505805969E-08  0.10566000000E+00  0.10566000000E+00 0. -1.
     999900   -1    0    0    0    0 -0.00000000000E+00 -0.00000000000E+00 -0.74505805969E-08  0.93827000000E+00  0.93827000000E+00 0.  1.
     999902    2    1    2    0    0  0.18211427090E-01  0.61799135182E-02  0.76908083778E-02  0.10232177828E+01  0.10230081305E+01 0.  0.
     999903    2    3    3    0    0 -0.46629563656E-01  0.58832847912E-01 -0.10655859929E+00  0.13190997248E+00  0.20245630578E-01 0.  0.
         14    1    1    2    0    0 -0.18211427090E-01 -0.61799135182E-02 -0.76908083778E-02  0.20712217198E-01  0.00000000000E+00 0.  1.
     999901    1    3    3    0    0  0.64840990745E-01 -0.52652934394E-01  0.11424940767E+00  0.89130781032E+00  0.88000000000E+00 0.  1.
        -11    1    4    4    0    0 -0.44645264260E-01  0.50244112035E-01 -0.83330806024E-01  0.10706051919E+00  0.51100000000E-03 0. -1.
         11    1    4    4    0    0 -0.19842993959E-02  0.85887358777E-02 -0.23227793268E-01  0.24849453297E-01  0.51100000000E-03 0.  1.
</event>
<event>
 8    1  0.1079508E+005  0.1043930E+01  0.7957747E-01            NaN
         13   -1    0    0    0    0  0.00000000000E+00  0.00000000000E+00  0.74505805969E-08  0.10566000000E+00  0.10566000000E+00 0. -1.
     999900   -1    0    0    0    0 -0.00000000000E+00 -0.00000000000E+00 -0.74505805969E-08  0.93827000000E+00  0.93827000000E+00 0. -1.
     999902    2    1    2    0    0  0.19875397969E-01 -0.11299274806E-01 -0.19440965233E-02  0.10209847485E+01  0.10207268842E+01 0.  0.
     999903    2    3    3    0    0  0.11829801415E+00  0.98352057645E-03 -0.58793616798E-01  0.13358982716E+00  0.19853591136E-01 0.  0.
         14    1    1    2    0    0 -0.19875397969E-01  0.11299274806E-01  0.19440965233E-02  0.22945251510E-01  0.00000000000E+00 0. -1.
     999901    1    3    3    0    0 -0.98422616181E-01 -0.12282795383E-01  0.56849520274E-01  0.88739492133E+00  0.88000000000E+00 0.  1.
        -11    1    4    4    0    0  0.62061012042E-01  0.92068727968E-02 -0.25555696198E-01  0.67747254199E-01  0.51100000000E-03 0.  1.
         11    1    4    4    0    0  0.56237002108E-01 -0.82233522203E-02 -0.33237920600E-01  0.65842572965E-01  0.51100000000E-03 0. -1.
</event>
<event>
 8    1  0.1079508E+005  0.1043930E+01  0.7957747E-01            NaN
         13   -1    0    0    0    0  0.00000000000E+00  0.00000000000E+00  0.74505805969E-08  0.10566000000E+00  0.10566000000E+00 0.  1.
     999900   -1    0    0    0    0 -0.00000000000E+00 -0.00000000000E+00 -0.74505805969E-08  0.93827000000E+00  0.93827000000E+00 0.  1.
     999902    2    1    2    0    0  0.16824244426E-01  0.12846521664E-02 -0.16111638677E-01  0.10205999672E+01  0.10203332801E+01 0.  0.
     999903    2    3    3    0    0 -0.22343657209E-01 -0.25194374817E-01  0.12224803565E+00  0.12853569656E+00  0.21043942876E-01 0.  0.
         14    1    1    2    0    0 -0.16824244426E-01 -0.12846521664E-02  0.16111638677E-01  0.23330032845E-01  0.00000000000E+00 0.  1.
     999901    1    3    3    0    0  0.39167901635E-01  0.26479026983E-01 -0.13835967432E+00  0.89206427059E+00  0.88000000000E+00 0.  1.
        -11    1    4    4    0    0 -0.20648089840E-01 -0.28028222328E-01  0.96834148686E-01  0.10290305308E+00  0.51100000000E-03 0.  1.
         11    1    4    4    0    0 -0.16955673693E-02  0.28338475105E-02  0.25413886959E-01  0.25632643481E-01  0.51100000000E-03 0. -1.
</event>
<event>
 8    1  0.1079508E+005  0.1043930E+01  0.7957747E-01            NaN
         13   -1    0    0    0    0  0.00000000000E+00  0.00000000000E+00  0.74505805969E-08  0.10566000000E+00  0.10566000000E+00 0. -1.
     999900   -1    0    0    0    0 -0.00000000000E+00 -0.00000000000E+00 -0.74505805969E-08  0.93827000000E+00  0.93827000000E+00 0. -1.
     999902    2    1    2    0    0 -0.18847778424E-02 -0.65736358999E-02  0.22898592661E-01  0.10200320791E+01  0.10197520933E+01 0.  0.
     999903    2    3    3    0    0  0.59045728055E-01 -0.69523018007E-01 -0.88548294042E-01  0.12868727501E+00  0.19994157593E-01 0.  0.
         14    1    1    2    0    0  0.18847778424E-02  0.65736358999E-02 -0.22898592661E-01  0.23897920878E-01  0.00000000000E+00 0.  1.
     999901    1    3    3    0    0 -0.60930505898E-01  0.62949382107E-01  0.11144688670E+00  0.89134480411E+00  0.88000000000E+00 0.  1.
        -11    1    4    4    0    0  0.19755110534E-01 -0.25694933962E-01 -0.45029587429E-01  0.55483501048E-01  0.51100000000E-03 0.  1.
         11    1    4    4    0    0  0.39290617522E-01 -0.43828084046E-01 -0.43518706613E-01  0.73203773964E-01  0.51100000000E-03 0. -1.
</event>
<event>
 8    1  0.1079508E+005  0.1043930E+01  0.7957747E-01            NaN
         13   -1    0    0    0    0  0.00000000000E+00  0.00000000000E+00  0.74505805969E-08  0.10566000000E+00  0.10566000000E+00 0.  1.
     999900   -1    0    0    0    0 -0.00000000000E+00 -0.00000000000E+00 -0.74505805969E-08  0.93827000000E+00  0.93827000000E+00 0.  1.
     999902    2    1    2    0    0 -0.72438082642E-02  0.17602803708E-01 -0.14542439034E-01  0.10199755852E+01  0.10196942583E+01 0.  0.
     999903    2    3    3    0    0 -0.93397475932E-01  0.61343965640E-01  0.65392580650E-01  0.13108563075E+00  0.20520291300E-01 0.  0.
         14    1    1    2    0    0  0.72438082642E-02 -0.17602803708E-01  0.14542439034E-01  0.23954414825E-01  0.00000000000E+00 0.  1.
     999901    1    3    3    0    0  0.86153667668E-01 -0.43741161932E-01 -0.79935019685E-01  0.88888995442E+00  0.88000000000E+00 0.  1.
        -11    1    4    4    0    0 -0.90618094749E-01  0.60222721725E-01  0.58461110391E-01  0.12351671084E+00  0.51100000000E-03 0.  1.
         11    1    4    4    0    0 -0.27793811832E-02  0.11212439141E-02  0.69314702596E-02  0.75689199121E-02  0.51100000000E-03 0. -1.
</event>
<event>
 8    1  0.1079508E+005  0.1043930E+01  0.7957747E-01            NaN
         13   -1    0    0    0    0  0.00000000000E+00  0.00000000000E+00  0.74505805969E-08  0.10566000000E+00  0.10566000000E+00 0. -1.
     999900   -1    0    0    0    0 -0.00000000000E+00 -0.00000000000E+00 -0.74505805969E-08  0.93827000000E+00  0.93827000000E+00 0. -1.
     999902    2    1    2    0    0  0.12388211984E-01  0.16202992093E-01  0.12162804710E-01  0.10201826093E+01  0.10199061808E+01 0.  0.
     999903    2    3    3    0    0 -0.85073828472E-02 -0.10809498269E-01  0.12945458170E+00  0.13174371914E+00  0.20216280375E-01 0.  0.
         14    1    1    2    0    0 -0.12388211984E-01 -0.16202992093E-01 -0.12162804710E-01  0.23747390748E-01  0.00000000000E+00 0. -1.
     999901    1    3    3    0    0  0.20895594831E-01  0.27012490363E-01 -0.11729177699E+00  0.88843889012E+00  0.88000000000E+00 0. -1.
        -11    1    4    4    0    0 -0.92741589247E-02 -0.21064111908E-02  0.22513914030E-01  0.24445540244E-01  0.51100000000E-03 0.  1.
         11    1    4    4    0    0  0.76677607750E-03 -0.87030870785E-02  0.10694066767E+00  0.10729817889E+00  0.51100000000E-03 0. -1.
</event>
<event>
 8    1  0.1079508E+005  0.1043930E+01  0.7957747E-01            NaN
         13   -1    0    0    0    0  0.00000000000E+00  0.00000000000E+00  0.74505805969E-08  0.10566000000E+00  0.10566000000E+00 0. -1.
     999900   -1    0    0    0    0 -0.00000000000E+00 -0.00000000000E+00 -0.74505805969E-08  0.93827000000E+00  0.93827000000E+00 0.  1.
     999902    2    1    2    0    0 -0.57197666900E-02 -0.23876894056E-01  0.13659312780E-01  0.10158337613E+01  0.10154451399E+01 0.  0.
     999903    2    3    3    0    0 -0.67691723997E-01 -0.10107185450E+00 -0.37365739265E-01  0.12881451615E+00  0.19982287908E-01 0.  0.
         14    1    1    2    0    0  0.57197666900E-02  0.23876894056E-01 -0.13659312780E-01  0.28096238652E-01  0.00000000000E+00 0.  1.
     999901    1    3    3    0    0  0.61971957307E-01  0.77194960449E-01  0.51025052045E-01  0.88701924520E+00  0.88000000000E+00 0. -1.
        -11    1    4    4    0    0 -0.15885678932E-01 -0.13200900652E-01 -0.16151309387E-02  0.20724100514E-01  0.51100000000E-03 0.  1.
         11    1    4    4    0    0 -0.51806045065E-01 -0.87870953853E-01 -0.35750608326E-01  0.10809041564E+00  0.51100000000E-03 0. -1.
</event>
<event>
 8    1  0.1079508E+005  0.1043930E+01  0.7957747E-01            NaN
         13   -1    0    0    0    0  0.00000000000E+00  0.00000000000E+00  0.74505805969E-08  0.10566000000E+00  0.10566000000E+00 0. -1.
     999900   -1    0    0    0    0 -0.00000000000E+00 -0.00000000000E+00 -0.74505805969E-08  0.93827000000E+00  0.93827000000E+00 0. -1.
     999902    2    1    2    0    0  0.11422604103E-01 -0.37246552729E-02 -0.20055556628E-01  0.10205510716E+01  0.10202832526E+01 0.  0.
     999903    2    3    3    0    0 -0.63115001937E-01  0.72853064255E-03  0.10945428642E+00  0.12794338341E+00  0.20130432577E-01 0.  0.
         14    1    1    2    0    0 -0.11422604103E-01  0.37246552729E-02  0.20055556628E-01  0.23378928399E-01  0.00000000000E+00 0. -1.
     999901    1    3    3    0    0  0.74537606041E-01 -0.44531859154E-02 -0.12950984305E+00  0.89260768820E+00  0.88000000000E+00 0. -1.
        -11    1    4    4    0    0 -0.41277249217E-01  0.62094577095E-02  0.85007688383E-01  0.94704471242E-01  0.51100000000E-03 0. -1.
         11    1    4    4    0    0 -0.21837752720E-01 -0.54809270670E-02  0.24446598034E-01  0.33238912164E-01  0.51100000000E-03 0.  1.
</event>
<event>
 8    1  0.1079508E+005  0.1043930E+01  0.7957747E-01            NaN
         13   -1    0    0    0    0  0.00000000000E+00  0.00000000000E+00  0.74505805969E-08  0.10566000000E+00  0.10566000000E+00 0.  1.
     999900   -1    0    0    0    0 -0.00000000000E+00 -0.00000000000E+00 -0.74505805969E-08  0.93827000000E+00  0.93827000000E+00 0. -1.
     999902    2    1    2    0    0  0.20971498391E-01  0.15207357110E-03  0.10753455421E-01  0.10203617231E+01  0.10200894972E+01 0.  0.
     999903    2    3    3    0    0  0.11115850773E-02 -0.83730170113E-01  0.99447431706E-01  0.13171259755E+00  0.21129119063E-01 0.  0.
         14    1    1    2    0    0 -0.20971498391E-01 -0.15207357110E-03 -0.10753455421E-01  0.23568276870E-01  0.00000000000E+00 0.  1.
     999901    1    3    3    0    0  0.19859913314E-01  0.83882243684E-01 -0.88693976285E-01  0.88864912558E+00  0.88000000000E+00 0. -1.
        -11    1    4    4    0    0  0.92806291266E-02 -0.53896399466E-01  0.71522135596E-01  0.90036819988E-01  0.51100000000E-03 0.  1.
         11    1    4    4    0    0 -0.81690440493E-02 -0.29833770646E-01  0.27925296110E-01  0.41675777563E-01  0.51100000000E-03 0. -1.
</event>
<event>
 8    1  0.1079508E+005  0.1043930E+01  0.7957747E-01            NaN
         13   -1    0    0    0    0  0.00000000000E+00  0.00000000000E+00  0.74505805969E-08  0.10566000000E+00  0.10566000000E+00 0. -1.
     999900   -1    0    0    0    0 -0.00000000000E+00 -0.00000000000E+00 -0.74505805969E-08  0.93827000000E+00  0.93827000000E+00 0.  1.
     999902    2    1    2    0    0 -0.22818283579E-01  0.82287159250E-03  0.59679479449E-02  0.10203298393E+01  0.10200568677E+01 0.  0.
     999903    2    3    3    0    0  0.52655156161E-01  0.10237188291E+00 -0.55018581115E-01  0.12919135480E+00  0.20268053838E-01 0.  0.
         14    1    1    2    0    0  0.22818283579E-01 -0.82287159250E-03 -0.59679479449E-02  0.23600160716E-01  0.00000000000E+00 0.  1.
     999901    1    3    3    0    0 -0.75473439740E-01 -0.10154901131E+00  0.60986529060E-01  0.89113848449E+00  0.88000000000E+00 0. -1.
        -11    1    4    4    0    0  0.31942902625E-01  0.63312706324E-01 -0.44571285363E-01  0.83759825753E-01  0.51100000000E-03 0. -1.
         11    1    4    4    0    0  0.20712253536E-01  0.39059176583E-01 -0.10447295752E-01  0.45431529046E-01  0.51100000000E-03 0.  1.
</event>
<event>
 8    1  0.1079508E+005  0.1043930E+01  0.7957747E-01            NaN
         13   -1    0    0    0    0  0.00000000000E+00  0.00000000000E+00  0.74505805969E-08  0.10566000000E+00  0.10566000000E+00 0.  1.
     999900   -1    0    0    0    0 -0.00000000000E+00 -0.00000000000E+00 -0.74505805969E-08  0.93827000000E+00  0.93827000000E+00 0.  1.
     999902    2    1    2    0    0  0.47852775634E-02  0.21046284565E-01 -0.74665469304E-02  0.10210915609E+01  0.10208361188E+01 0.  0.
     999903    2    3    3    0    0  0.33829279490E-01  0.64686185654E-02 -0.12746024070E+00  0.13235394560E+00  0.92298850780E-02 0.  0.
         14    1    1    2    0    0 -0.47852775634E-02 -0.21046284565E-01  0.74665469304E-02  0.22838439054E-01  0.00000000000E+00 0. -1.
     999901    1    3    3    0    0 -0.29044001927E-01  0.14577666000E-01  0.11999369377E+00  0.88873761535E+00  0.88000000000E+00 0. -1.
        -11    1    4    4    0    0  0.17452252159E-01  0.30915224011E-02 -0.48466629663E-01  0.51608273833E-01  0.51100000000E-03 0.  1.
         11    1    4    4    0    0  0.16377027331E-01  0.33770961643E-02 -0.78993611037E-01  0.80745671762E-01  0.51100000000E-03 0. -1.
</event>
<event>
 8    1  0.1079508E+005  0.1043930E+01  0.7957747E-01            NaN
         13   -1    0    0    0    0  0.00000000000E+00  0.00000000000E+00  0.74505805969E-08  0.10566000000E+00  0.10566000000E+00 0. -1.
     999900   -1    0    0    0    0 -0.00000000000E+00 -0.00000000000E+00 -0.74505805969E-08  0.93827000000E+00  0.93827000000E+00 0. -1.
     999902    2    1    2    0    0  0.10515432637E-01 -0.19145457279E-01  0.11057091770E-01  0.10194477179E+01  0.10191537016E+01 0.  0.
     999903    2    3    3    0    0 -0.17983797357E-01  0.12187270430E+00  0.19385806609E-01  0.12772595890E+00  0.27599602491E-01 0.  0.
         14    1    1    2    0    0 -0.10515432637E-01  0.19145457279E-01 -0.11057091770E-01  0.24482282091E-01  0.00000000000E+00 0.  1.
     999901    1    3    3    0    0  0.28499229995E-01 -0.14101816158E+00 -0.83287148395E-02  0.89172175901E+00  0.88000000000E+00 0.  1.
        -11    1    4    4    0    0  0.46242367775E-02  0.53761219613E-01  0.14045748028E-01  0.55760169106E-01  0.51100000000E-03 0. -1.
         11    1    4    4    0    0 -0.22608034135E-01  0.68111484686E-01  0.53400585814E-02  0.71965789791E-01  0.51100000000E-03 0.  1.
</event>
<event>
 8    1  0.1079508E+005  0.1043930E+01  0.7957747E-01            NaN
         13   -1    0    0    0    0  0.00000000000E+00  0.00000000000E+00  0.74505805969E-08  0.10566000000E+00  0.10566000000E+00 0.  1.
     999900   -1    0    0    0    0 -0.00000000000E+00 -0.00000000000E+00 -0.74505805969E-08  0.93827000000E+00  0.93827000000E+00 0.  1.
     999902    2    1    2    0    0  0.15418353802E-01  0.16290410340E-01  0.98379780736E-02  0.10194373702E+01  0.10191431022E+01 0.  0.
     999903    2    3    3    0    0 -0.68566235856E-02  0.11683991821E-01  0.12901147600E+00  0.13111326473E+00  0.19057762121E-01 0.  0.
         14    1    1    2    0    0 -0.15418353802E-01 -0.16290410340E-01 -0.98379780736E-02  0.24492629822E-01  0.00000000000E+00 0. -1.
     999901    1    3    3    0    0  0.22274977388E-01  0.46064185196E-02 -0.11917349793E+00  0.88832410545E+00  0.88000000000E+00 0.  1.
        -11    1    4    4    0    0 -0.98685541508E-02  0.25772847811E-02  0.10070394893E+00  0.10122043869E+00  0.51100000000E-03 0. -1.
         11    1    4    4    0    0  0.30119305652E-02  0.91067070398E-02  0.28307527070E-01  0.29892826040E-01  0.51100000000E-03 0.  1.
</event>
<event>
 8    1  0.1079508E+005  0.1043930E+01  0.7957747E-01            NaN
         13   -1    0    0    0    0  0.00000000000E+00  0.00000000000E+00  0.74505805969E-08  0.10566000000E+00  0.10566000000E+00 0.  1.
     999900   -1    0    0    0    0 -0.00000000000E+00 -0.00000000000E+00 -0.74505805969E-08  0.93827000000E+00  0.93827000000E+00 0.  1.
     999902    2    1    2    0    0 -0.53742052412E-02 -0.16173561130E-01  0.16852005070E-01  0.10199621833E+01  0.10196805378E+01 0.  0.
     999903    2    3    3    0    0 -0.67125836790E-01  0.91572111033E-01  0.60257051005E-01  0.13018333895E+00  0.20626683230E-01 0.  0.
         14    1    1    2    0    0  0.53742052412E-02  0.16173561130E-01 -0.16852005070E-01  0.23967816682E-01  0.00000000000E+00 0. -1.
     999901    1    3    3    0    0  0.61751631549E-01 -0.10774567216E+00 -0.43405045935E-01  0.88977884437E+00  0.88000000000E+00 0.  1.
        -11    1    4    4    0    0 -0.59695939101E-01  0.67282565833E-01  0.48460221423E-01  0.10217241796E+00  0.51100000000E-03 0. -1.
         11    1    4    4    0    0 -0.74298976894E-02  0.24289545201E-01  0.11796829582E-01  0.28010920994E-01  0.51100000000E-03 0.  1.
</event>
<event>
 8    1  0.1079508E+005  0.1043930E+01  0.7957747E-01            NaN
         13   -1    0    0    0    0  0.00000000000E+00  0.00000000000E+00  0.74505805969E-08  0.10566000000E+00  0.10566000000E+00 0.  1.
     999900   -1    0    0    0    0 -0.00000000000E+00 -0.00000000000E+00 -0.74505805969E-08  0.93827000000E+00  0.93827000000E+00 0. -1.
     999902    2    1    2    0    0 -0.49104104854E-02 -0.22325796102E-01  0.51052882840E-02  0.10205074196E+01  0.10202385879E+01 0.  0.
     999903    2    3    3    0    0  0.11776440698E+00  0.25240619686E-01 -0.42742437231E-01  0.12944003745E+00  0.20549037002E-01 0.  0.
         14    1    1    2    0    0  0.49104104854E-02  0.22325796102E-01 -0.51052882840E-02  0.23422580370E-01  0.00000000000E+00 0. -1.
     999901    1    3    3    0    0 -0.12267481746E+00 -0.47566415788E-01  0.47847725515E-01  0.89106738218E+00  0.88000000000E+00 0. -1.
        -11    1    4    4    0    0  0.86663437850E-01  0.13510925892E-01 -0.38984007203E-01  0.95984949430E-01  0.51100000000E-03 0. -1.
         11    1    4    4    0    0  0.31100969126E-01  0.11729693794E-01 -0.37584300282E-02  0.33455088019E-01  0.51100000000E-03 0.  1.
</event>
<event>
 8    1  0.1079508E+005  0.1043930E+01  0.7957747E-01            NaN
         13   -1    0    0    0    0  0.00000000000E+00  0.00000000000E+00  0.74505805969E-08  0.10566000000E+00  0.10566000000E+00 0.  1.
     999900   -1    0    0    0    0 -0.00000000000E+00 -0.00000000000E+00 -0.74505805969E-08  0.93827000000E+00  0.93827000000E+00 0. -1.
     999902    2    1    2    0    0 -0.86921034491E-02  0.48418432708E-02  0.21178857707E-01  0.10205304247E+01  0.10202621270E+01 0.  0.
     999903    2    3    3    0    0 -0.96553443770E-01 -0.79526019812E-01  0.38865489080E-01  0.13196395656E+00  0.16031352357E-01 0.  0.
         14    1    1    2    0    0  0.86921034491E-02 -0.48418432708E-02 -0.21178857707E-01  0.23399575261E-01  0.00000000000E+00 0. -1.
     999901    1    3    3    0    0  0.87861340321E-01  0.84367863083E-01 -0.17686631373E-01  0.88856646818E+00  0.88000000000E+00 0.  1.
        -11    1    4    4    0    0 -0.29296731954E-01 -0.33808306576E-01  0.12080696419E-01  0.46341174388E-01  0.51100000000E-03 0. -1.
         11    1    4    4    0    0 -0.67256711816E-01 -0.45717713237E-01  0.26784792661E-01  0.85622782171E-01  0.51100000000E-03 0.  1.
</event>
<event>
 8    1  0.1079508E+005  0.1043930E+01  0.7957747E-01            NaN
         13   -1    0    0    0    0  0.00000000000E+00  0.00000000000E+00  0.74505805969E-08  0.10566000000E+00  0.10566000000E+00 0.  1.
     999900   -1    0    0    0    0 -0.00000000000E+00 -0.00000000000E+00 -0.74505805969E-08  0.93827000000E+00  0.93827000000E+00 0.  1.
     999902    2    1    2    0    0  0.51567246429E-03 -0.14192180477E-01  0.14835632287E-01  0.10233927195E+01  0.10231866293E+01 0.  0.
     999903    2    3    3    0    0  0.84973117264E-01  0.78302494150E-01 -0.59353169228E-01  0.13143290926E+00  0.20002492150E-01 0.  0.
         14    1    1    2    0    0 -0.51567246429E-03  0.14192180477E-01 -0.14835632287E-01  0.20537280495E-01  0.00000000000E+00 0.  1.
     999901    1    3    3    0    0 -0.84457444800E-01 -0.92494674627E-01  0.74188801515E-01  0.89195981024E+00  0.88000000000E+00 0. -1.
        -11    1    4    4    0    0  0.22668296976E-01  0.10454066383E-01 -0.97010428301E-02  0.26786387302E-01  0.51100000000E-03 0. -1.
         11    1    4    4    0    0  0.62304820288E-01  0.67848427767E-01 -0.49652126398E-01  0.10464652196E+00  0.51100000000E-03 0.  1.
</event>
<event>
 8    1  0.1079508E+005  0.1043930E+01  0.7957747E-01            NaN
         13   -1    0    0    0    0  0.00000000000E+00  0.00000000000E+00  0.74505805969E-08  0.10566000000E+00  0.10566000000E+00 0.  1.
     999900   -1    0    0    0    0 -0.00000000000E+00 -0.00000000000E+00 -0.74505805969E-08  0.93827000000E+00  0.93827000000E+00 0.  1.
     999902    2    1    2    0    0 -0.17892262082E-01  0.14087993871E-01  0.57389312393E-02  0.10204451124E+01  0.10201748318E+01 0.  0.
     999903    2    3    3    0    0 -0.10511829427E+00 -0.76475967745E-01 -0.18287900660E-02  0.13147521289E+00  0.19594838577E-01 0.  0.
         14    1    1    2    0    0  0.17892262082E-01 -0.14087993871E-01 -0.57389312393E-02  0.23484887598E-01  0.00000000000E+00 0. -1.
     999901    1    3    3    0    0  0.87226032186E-01  0.90563961616E-01  0.75677213053E-02  0.88896989951E+00  0.88000000000E+00 0.  1.
        -11    1    4    4    0    0 -0.74214086224E-01 -0.43688573786E-01 -0.52946701086E-02  0.86282771896E-01  0.51100000000E-03 0.  1.
         11    1    4    4    0    0 -0.30904208043E-01 -0.32787393959E-01  0.34658800427E-02  0.45192440993E-01  0.51100000000E-03 0. -1.
</event>
<event>
 8    1  0.1079508E+005  0.1043930E+01  0.7957747E-01            NaN
         13   -1    0    0    0    0  0.00000000000E+00  0.00000000000E+00  0.74505805969E-08  0.10566000000E+00  0.10566000000E+00 0.  1.
     999900   -1    0    0    0    0 -0.00000000000E+00 -0.00000000000E+00 -0.74505805969E-08  0.93827000000E+00  0.93827000000E+00 0. -1.
     999902    2    1    2    0    0 -0.18883117812E-01 -0.15147666236E-02 -0.14463541761E-01  0.10200959761E+01  0.10198175031E+01 0.  0.
     999903    2    3    3    0    0  0.69025942884E-01 -0.96540747542E-01  0.45219202120E-01  0.12862529797E+00  0.20371409144E-01 0.  0.
         14    1    1    2    0    0  0.18883117812E-01  0.15147666236E-02  0.14463541761E-01  0.23834023926E-01  0.00000000000E+00 0.  1.
     999901    1    3    3    0    0 -0.87909060697E-01  0.95025980918E-01 -0.59682743881E-01  0.89147067810E+00  0.88000000000E+00 0. -1.
        -11    1    4    4    0    0  0.19726816447E-01 -0.37749510431E-01  0.79747986746E-02  0.43336259181E-01  0.51100000000E-03 0. -1.
         11    1    4    4    0    0  0.49299126438E-01 -0.58791237110E-01  0.37244403445E-01  0.85289038789E-01  0.51100000000E-03 0.  1.
</event>
<event>
 8    1  0.1079508E+005  0.1043930E+01  0.7957747E-01            NaN
         13   -1    0    0    0    0  0.00000000000E+00  0.00000000000E+00  0.74505805969E-08  0.10566000000E+00  0.10566000000E+00 0.  1.
     999900   -1    0    0    0    0 -0.00000000000E+00 -0.00000000000E+00 -0.74505805969E-08  0.93827000000E+00  0.93827000000E+00 0.  1.
     999902    2    1    2    0    0 -0.45783159498E-03  0.21229053275E-01 -0.10232228244E-01  0.10203592383E+01  0.10200869543E+01 0.  0.
     999903    2    3    3    0    0 -0.12204119467E+00 -0.15474117797E-01  0.36930335969E-01  0.12999192959E+00  0.20013758401E-01 0.  0.
         14    1    1    2    0    0  0.45783159498E-03 -0.21229053275E-01  0.10232228244E-01  0.23570761710E-01  0.00000000000E+00 0.  1.
     999901    1    3    3    0    0  0.12158336307E+00  0.36703171072E-01 -0.47162564213E-01  0.89036730870E+00  0.88000000000E+00 0.  1.
        -11    1    4    4    0    0 -0.10656134388E+00 -0.12567117613E-01  0.24863957354E-01  0.11014413262E+00  0.51100000000E-03 0. -1.
         11    1    4    4    0    0 -0.15479850786E-01 -0.29070001834E-02  0.12066378615E-01  0.19847796963E-01  0.51100000000E-03 0.  1.
</event>
<event>
 8    1  0.1079508E+005  0.1043930E+01  0.7957747E-01            NaN
         13   -1    0    0    0    0  0.00000000000E+00  0.00000000000E+00  0.74505805969E-08  0.10566000000E+00  0.10566000000E+00 0.  1.
     999900   -1    0    0    0    0 -0.00000000000E+00 -0.00000000000E+00 -0.74505805969E-08  0.93827000000E+00  0.93827000000E+00 0. -1.
     999902    2    1    2    0    0  0.38489512222E-02  0.11460520631E-01  0.22273152428E-01  0.10185873230E+01  0.10182720085E+01 0.  0.
     999903    2    3    3    0    0  0.93405594998E-01 -0.49424792902E-01  0.74048088441E-01  0.13043865422E+00  0.19071124323E-01 0.  0.
         14    1    1    2    0    0 -0.38489512222E-02 -0.11460520631E-01 -0.22273152428E-01  0.25342677004E-01  0.00000000000E+00 0. -1.
     999901    1    3    3    0    0 -0.89556643775E-01  0.60885313533E-01 -0.51774936013E-01  0.88814866878E+00  0.88000000000E+00 0. -1.
        -11    1    4    4    0    0  0.41256770224E-01 -0.29814976639E-01  0.43124017342E-01  0.66715784595E-01  0.51100000000E-03 0. -1.
         11    1    4    4    0    0  0.52148824773E-01 -0.19609816263E-01  0.30924071098E-01  0.63722869626E-01  0.51100000000E-03 0.  1.
</event>
<event>
 8    1  0.1079508E+005  0.1043930E+01  0.7957747E-01            NaN
         13   -1    0    0    0    0  0.00000000000E+00  0.00000000000E+00  0.74505805969E-08  0.10566000000E+00  0.10566000000E+00 0.  1.
     999900   -1    0    0    0    0 -0.00000000000E+00 -0.00000000000E+00 -0.74505805969E-08  0.93827000000E+00  0.93827000000E+00 0. -1.
     999902    2    1    2    0    0 -0.21074231719E-01  0.41663940204E-03 -0.15787013127E-02  0.10227926130E+01  0.10225741734E+01 0.  0.
     999903    2    3    3    0    0  0.98895872705E-01 -0.82857385842E-01 -0.49907891303E-02  0.13075055594E+00  0.20616980284E-01 0.  0.
         14    1    1    2    0    0  0.21074231719E-01 -0.41663940204E-03  0.15787013127E-02  0.21137386990E-01  0.00000000000E+00 0.  1.
     999901    1    3    3    0    0 -0.11997010442E+00  0.83274025244E-01  0.34120878176E-02  0.89204205707E+00  0.88000000000E+00 0. -1.
        -11    1    4    4    0    0  0.80517547066E-01 -0.60322517785E-01 -0.10481569375E-01  0.10115337837E+00  0.51100000000E-03 0.  1.
         11    1    4    4    0    0  0.18378325639E-01 -0.22534868058E-01  0.54907802450E-02  0.29597177574E-01  0.51100000000E-03 0. -1.
</event>
<event>
 8    1  0.1079508E+005  0.1043930E+01  0.7957747E-01            NaN
         13   -1    0    0    0    0  0.00000000000E+00  0.00000000000E+00  0.74505805969E-08  0.10566000000E+00  0.10566000000E+00 0. -1.
     999900   -1    0    0    0    0 -0.00000000000E+00 -0.00000000000E+00 -0.74505805969E-08  0.93827000000E+00  0.93827000000E+00 0. -1.
     999902    2    1    2    0    0 -0.20559699426E-01 -0.11557293366E-01  0.32691325868E-02  0.10201190887E+01  0.10198411619E+01 0.  0.
     999903    2    3    3    0    0  0.48331170854E-01 -0.64417920900E-01 -0.10010079573E+00  0.12982389042E+00  0.18668224592E-01 0.  0.
         14    1    1    2    0    0  0.20559699426E-01  0.11557293366E-01 -0.32691325868E-02  0.23810911329E-01  0.00000000000E+00 0.  1.
     999901    1    3    3    0    0 -0.68890870279E-01  0.52860627534E-01  0.10336992831E+00  0.89029519825E+00  0.88000000000E+00 0.  1.
        -11    1    4    4    0    0  0.10188195377E-01 -0.23877436580E-01 -0.22727228623E-01  0.34506801425E-01  0.51100000000E-03 0. -1.
         11    1    4    4    0    0  0.38142975477E-01 -0.40540484320E-01 -0.77373567103E-01  0.95317088995E-01  0.51100000000E-03 0.  1.
</event>
<event>
 8    1  0.1079508E+005  0.1043930E+01  0.7957747E-01            NaN
         13   -1    0    0    0    0  0.00000000000E+00  0.00000000000E+00  0.74505805969E-08  0.10566000000E+00  0.10566000000E+00 0.  1.
     999900   -1    0    0    0    0 -0.00000000000E+00 -0.00000000000E+00 -0.74505805969E-08  0.93827000000E+00  0.93827000000E+00 0. -1.
     999902    2    1    2    0    0  0.20018886358E-01  0.34546383324E-02  0.12014906264E-01  0.10203281291E+01  0.10200551175E+01 0.  0.
     999903    2    3    3    0    0 -0.11285666157E+00  0.57615235373E-01 -0.79534848328E-02  0.12848284087E+00  0.19708908361E-01 0.  0.
         14    1    1    2    0    0 -0.20018886358E-01 -0.34546383324E-02 -0.12014906264E-01  0.23601870891E-01  0.00000000000E+00 0. -1.
     999901    1    3    3    0    0  0.13287554793E+00 -0.54160597041E-01  0.19968391096E-01  0.89184528824E+00  0.88000000000E+00 0. -1.
        -11    1    4    4    0    0 -0.76355219496E-01  0.43036470277E-01  0.29185552303E-02  0.87698554172E-01  0.51100000000E-03 0. -1.
         11    1    4    4    0    0 -0.36501442077E-01  0.14578765096E-01 -0.10872040063E-01  0.40784286699E-01  0.51100000000E-03 0.  1.
</event>
<event>
 8    1  0.1079508E+005  0.1043930E+01  0.7957747E-01            NaN
         13   -1    0    0    0    0  0.00000000000E+00  0.00000000000E+00  0.74505805969E-08  0.10566000000E+00  0.10566000000E+00 0.  1.
     999900   -1    0    0    0    0 -0.00000000000E+00 -0.00000000000E+00 -0.74505805969E-08  0.93827000000E+00  0.93827000000E+00 0.  1.
     999902    2    1    2    0    0  0.11879664547E-01 -0.12270442486E-02 -0.19922501006E-01  0.10207020403E+01  0.10204377085E+01 0.  0.
     999903    2    3    3    0    0 -0.21801324581E-02 -0.67334341604E-01  0.10803703753E+00  0.12888283428E+00  0.20002923723E-01 0.  0.
         14    1    1    2    0    0 -0.11879664547E-01  0.12270442486E-02  0.19922501006E-01  0.23227959740E-01  0.00000000000E+00 0.  1.
     999901    1    3    3    0    0  0.14059797005E-01  0.66107297355E-01 -0.12795953853E+00  0.89181920598E+00  0.88000000000E+00 0.  1.
        -11    1    4    4    0    0 -0.75842594666E-02 -0.15971956624E-01  0.19069775441E-01  0.26010418036E-01  0.51100000000E-03 0. -1.
         11    1    4    4    0    0  0.54041270086E-02 -0.51362384979E-01  0.88967262086E-01  0.10287241624E+00  0.51100000000E-03 0.  1.
</event>
<event>
 8    1  0.1079508E+005  0.1043930E+01  0.7957747E-01            NaN
         13   -1    0    0    0    0  0.00000000000E+00  0.00000000000E+00  0.74505805969E-08  0.10566000000E+00  0.10566000000E+00 0. -1.
     999900   -1    0    0    0    0 -0.00000000000E+00 -0.00000000000E+00 -0.74505805969E-08  0.93827000000E+00  0.93827000000E+00 0.  1.
     999902    2    1    2    0    0 -0.19679646369E-01 -0.82688108619E-02  0.87190188692E-02  0.10208717476E+01  0.10206113080E+01 0.  0.
     999903    2    3    3    0    0 -0.83406352721E-01  0.47660721871E-01  0.90159103776E-01  0.13305324521E+00  0.18610158077E-01 0.  0.
         14    1    1    2    0    0  0.19679646369E-01  0.82688108619E-02 -0.87190188692E-02  0.23058252413E-01  0.00000000000E+00 0.  1.
     999901    1    3    3    0    0  0.63726706351E-01 -0.55929532733E-01 -0.81440084907E-01  0.88781850238E+00  0.88000000000E+00 0.  1.
        -11    1    4    4    0    0 -0.47329817023E-01  0.31154842748E-01  0.64241106417E-01  0.85661640661E-01  0.51100000000E-03 0. -1.
         11    1    4    4    0    0 -0.36076535697E-01  0.16505879123E-01  0.25917997359E-01  0.47391604548E-01  0.51100000000E-03 0.  1.
</event>
<event>
 8    1  0.1079508E+005  0.1043930E+01  0.7957747E-01            NaN
         13   -1    0    0    0    0  0.00000000000E+00  0.00000000000E+00  0.74505805969E-08  0.10566000000E+00  0.10566000000E+00 0. -1.
     999900   -1    0    0    0    0 -0.00000000000E+00 -0.00000000000E+00 -0.74505805969E-08  0.93827000000E+00  0.93827000000E+00 0.  1.
     999902    2    1    2    0    0 -0.55322551710E-02  0.23017231632E-01 -0.19670027314E-02  0.10201756762E+01  0.10198990844E+01 0.  0.
     999903    2    3    3    0    0  0.58670837585E-01 -0.64055186263E-02  0.11398815360E+00  0.12976378633E+00  0.19027433598E-01 0.  0.
         14    1    1    2    0    0  0.55322551710E-02 -0.23017231632E-01  0.19670027314E-02  0.23754323796E-01  0.00000000000E+00 0. -1.
     999901    1    3    3    0    0 -0.64203092756E-01  0.29422750258E-01 -0.11595515633E+00  0.89041188988E+00  0.88000000000E+00 0.  1.
        -11    1    4    4    0    0  0.48883208978E-01 -0.15468767143E-03  0.79074366499E-01  0.92965631319E-01  0.51100000000E-03 0.  1.
         11    1    4    4    0    0  0.97876286069E-02 -0.62508309548E-02  0.34913787101E-01  0.36798155009E-01  0.51100000000E-03 0. -1.
</event>
<event>
 8    1  0.1079508E+005  0.1043930E+01  0.7957747E-01            NaN
         13   -1    0    0    0    0  0.00000000000E+00  0.00000000000E+00  0.74505805969E-08  0.10566000000E+00  0.10566000000E+00 0.  1.
     999900   -1    0    0    0    0 -0.00000000000E+00 -0.00000000000E+00 -0.74505805969E-08  0.93827000000E+00  0.93827000000E+00 0.  1.
     999902    2    1    2    0    0  0.26939098099E-02  0.33164033307E-02  0.21927555086E-01  0.10215900503E+01  0.10213457581E+01 0.  0.
     999903    2    3    3    0    0 -0.12527559004E+00 -0.19010434935E-01 -0.25777629080E-01  0.13077555490E+00  0.19554782035E-01 0.  0.
         14    1    1    2    0    0 -0.26939098099E-02 -0.33164033307E-02 -0.21927555086E-01  0.22339949713E-01  0.00000000000E+00 0. -1.
     999901    1    3    3    0    0  0.12796949985E+00  0.22326838265E-01  0.47705184166E-01  0.89081449539E+00  0.88000000000E+00 0.  1.
        -11    1    4    4    0    0 -0.11231385246E-01  0.29263707681E-02 -0.56110580548E-02  0.12901657022E-01  0.51100000000E-03 0.  1.
         11    1    4    4    0    0 -0.11404420480E+00 -0.21936805703E-01 -0.20166571025E-01  0.11787389788E+00  0.51100000000E-03 0. -1.
</event>
<event>
 8    1  0.1079508E+005  0.1043930E+01  0.7957747E-01            NaN
         13   -1    0    0    0    0  0.00000000000E+00  0.00000000000E+00  0.74505805969E-08  0.10566000000E+00  0.10566000000E+00 0. -1.
     999900   -1    0    0    0    0 -0.00000000000E+00 -0.00000000000E+00 -0.74505805969E-08  0.93827000000E+00  0.93827000000E+00 0.  1.
     999902    2    1    2    0    0  0.13784907270E-01  0.11601590643E-01 -0.14624197510E-01  0.10207246617E+01  0.10204608504E+01 0.  0.
     999903    2    3    3    0    0  0.64469281232E-01 -0.58127038152E-01 -0.98819097966E-01  0.13251310540E+00  0.16108016437E-01 0.  0.
         14    1    1    2    0    0 -0.13784907270E-01 -0.11601590643E-01  0.14624197510E-01  0.23205338323E-01  0.00000000000E+00 0. -1.
     999901    1    3    3    0    0 -0.50684373963E-01  0.69728628795E-01  0.84194900456E-01  0.88821155627E+00  0.88000000000E+00 0. -1.
        -11    1    4    4    0    0  0.39434284103E-01 -0.29157721616E-01 -0.64981109674E-01  0.81412782952E-01  0.51100000000E-03 0.  1.
         11    1    4    4    0    0  0.25034997130E-01 -0.28969316536E-01 -0.33837988292E-01  0.51100322450E-01  0.51100000000E-03 0. -1.
</event>
<event>
 8    1  0.1079508E+005  0.1043930E+01  0.7957747E-01            NaN
         13   -1    0    0    0    0  0.00000000000E+00  0.00000000000E+00  0.74505805969E-08  0.10566000000E+00  0.10566000000E+00 0. -1.
     999900   -1    0    0    0    0 -0.00000000000E+00 -0.00000000000E+00 -0.74505805969E-08  0.93827000000E+00  0.93827000000E+00 0.  1.
     999902    2    1    2    0    0  0.32446120502E-02 -0.17364537506E-01 -0.14989115664E-01  0.10207626035E+01  0.10204996642E+01 0.  0.
     999903    2    3    3    0    0 -0.16926629447E-01 -0.10629719812E+00  0.73098459058E-01  0.13167581480E+00  0.20236856766E-01 0.  0.
         14    1    1    2    0    0 -0.32446120502E-02  0.17364537506E-01  0.14989115664E-01  0.23167396456E-01  0.00000000000E+00 0. -1.
     999901    1    3    3    0    0  0.20171241497E-01  0.88932660619E-01 -0.88087574722E-01  0.88908678875E+00  0.88000000000E+00 0.  1.
        -11    1    4    4    0    0 -0.10328578617E-01 -0.75946809164E-01  0.62351762769E-01  0.98805874319E-01  0.51100000000E-03 0.  1.
         11    1    4    4    0    0 -0.65980508298E-02 -0.30350388960E-01  0.10746696289E-01  0.32869940476E-01  0.51100000000E-03 0. -1.
</event>
<event>
 8    1  0.1079508E+005  0.1043930E+01  0.7957747E-01            NaN
         13   -1    0    0    0    0  0.00000000000E+00  0.00000000000E+00  0.74505805969E-08  0.10566000000E+00  0.10566000000E+00 0.  1.
     999900   -1    0    0    0    0 -0.00000000000E+00 -0.00000000000E+00 -0.74505805969E-08  0.93827000000E+00  0.93827000000E+00 0. -1.
     999902    2    1    2    0    0 -0.69050444466E-03 -0.20417501144E-01  0.11572243021E-01  0.10204509038E+01  0.10201807581E+01 0.  0.
     999903    2    3    3    0    0  0.32756399961E-01 -0.85536693707E-01 -0.92452336310E-01  0.13130506776E+00  0.17437850280E-01 0.  0.
         14    1    1    2    0    0  0.69050444466E-03  0.20417501144E-01 -0.11572243021E-01  0.23479096190E-01  0.00000000000E+00 0. -1.
     999901    1    3    3    0    0 -0.33446904406E-01  0.65119192562E-01  0.10402457933E+00  0.88914583605E+00  0.88000000000E+00 0.  1.
        -11    1    4    4    0    0  0.12917581671E-01 -0.28337158899E-01 -0.20586629460E-01  0.37335357561E-01  0.51100000000E-03 0.  1.
         11    1    4    4    0    0  0.19838818290E-01 -0.57199534808E-01 -0.71865706851E-01  0.93969710202E-01  0.51100000000E-03 0. -1.
</event>
<event>
 8    1  0.1079508E+005  0.1043930E+01  0.7957747E-01            NaN
         13   -1    0    0    0    0  0.00000000000E+00  0.00000000000E+00  0.74505805969E-08  0.10566000000E+00  0.10566000000E+00 0. -1.
     999900   -1    0    0    0    0 -0.00000000000E+00 -0.00000000000E+00 -0.74505805969E-08  0.93827000000E+00  0.93827000000E+00 0. -1.
     999902    2    1    2    0    0  0.11282808670E-01  0.14444974755E-01 -0.15897416402E-01  0.10196671289E+01  0.10193784218E+01 0.  0.
     999903    2    3    3    0    0  0.78267252048E-01  0.94470519397E-01 -0.45899629871E-01  0.13299292926E+00  0.23019587996E-01 0.  0.
         14    1    1    2    0    0 -0.11282808670E-01 -0.14444974755E-01  0.15897416402E-01  0.24262871129E-01  0.00000000000E+00 0. -1.
     999901    1    3    3    0    0 -0.66984443379E-01 -0.80025544642E-01  0.30002213469E-01  0.88667419962E+00  0.88000000000E+00 0.  1.
        -11    1    4    4    0    0  0.29073799694E-01  0.20201563293E-01 -0.87484048130E-02  0.36471697190E-01  0.51100000000E-03 0.  1.
         11    1    4    4    0    0  0.49193452354E-01  0.74268956104E-01 -0.37151225058E-01  0.96521232067E-01  0.51100000000E-03 0. -1.
</event>
<event>
 8    1  0.1079508E+005  0.1043930E+01  0.7957747E-01            NaN
         13   -1    0    0    0    0  0.00000000000E+00  0.00000000000E+00  0.74505805969E-08  0.10566000000E+00  0.10566000000E+00 0. -1.
     999900   -1    0    0    0    0 -0.00000000000E+00 -0.00000000000E+00 -0.74505805969E-08  0.93827000000E+00  0.93827000000E+00 0. -1.
     999902    2    1    2    0    0  0.22103946573E-01  0.20448881855E-02  0.98158345249E-02  0.10196582751E+01  0.10193693547E+01 0.  0.
     999903    2    3    3    0    0 -0.29305721588E-01 -0.98298890657E-01 -0.74709357404E-01  0.12844767373E+00  0.19895215041E-01 0.  0.
         14    1    1    2    0    0 -0.22103946573E-01 -0.20448881855E-02 -0.98158345249E-02  0.24271724892E-01  0.00000000000E+00 0.  1.
     999901    1    3    3    0    0  0.51409668161E-01  0.10034377884E+00  0.84525191929E-01  0.89121060138E+00  0.88000000000E+00 0. -1.
        -11    1    4    4    0    0 -0.24830680946E-01 -0.53341701857E-01 -0.48207124611E-01  0.76066338531E-01  0.51100000000E-03 0. -1.
         11    1    4    4    0    0 -0.44750406421E-02 -0.44957188800E-01 -0.26502232793E-01  0.52381335202E-01  0.51100000000E-03 0.  1.
</event>
<event>
 8    1  0.1079508E+005  0.1043930E+01  0.7957747E-01            NaN
         13   -1    0    0    0    0  0.00000000000E+00  0.00000000000E+00  0.74505805969E-08  0.10566000000E+00  0.10566000000E+00 0.  1.
     999900   -1    0    0    0    0 -0.00000000000E+00 -0.00000000000E+00 -0.74505805969E-08  0.93827000000E+00  0.93827000000E+00 0.  1.
     999902    2    1    2    0    0  0.17791376481E-01  0.10281710536E-01 -0.11305112140E-01  0.10204768081E+01  0.10202072651E+01 0.  0.
     999903    2    3    3    0    0  0.12926826721E+00  0.46586957539E-02  0.23146336871E-01  0.13275747309E+00  0.18889293129E-01 0.  0.
         14    1    1    2    0    0 -0.17791376481E-01 -0.10281710536E-01  0.11305112140E-01  0.23453191875E-01  0.00000000000E+00 0.  1.
     999901    1    3    3    0    0 -0.11147689073E+00  0.56230147820E-02 -0.34451449010E-01  0.88771933504E+00  0.88000000000E+00 0. -1.
        -11    1    4    4    0    0  0.95780594230E-01  0.43799382145E-02  0.25398930864E-01  0.99189076515E-01  0.51100000000E-03 0.  1.
         11    1    4    4    0    0  0.33487672984E-01  0.27875753938E-03 -0.22525939930E-02  0.33568396571E-01  0.51100000000E-03 0. -1.
</event>
<event>
 8    1  0.1079508E+005  0.1043930E+01  0.7957747E-01            NaN
         13   -1    0    0    0    0  0.00000000000E+00  0.00000000000E+00  0.74505805969E-08  0.10566000000E+00  0.10566000000E+00 0.  1.
     999900   -1    0    0    0    0 -0.00000000000E+00 -0.00000000000E+00 -0.74505805969E-08  0.93827000000E+00  0.93827000000E+00 0. -1.
     999902    2    1    2    0    0 -0.20034378065E-01 -0.11898189203E-01  0.33338638028E-02  0.10203915664E+01  0.10201200375E+01 0.  0.
     999903    2    3    3    0    0  0.17977931430E-01  0.12369994416E+00  0.25341751828E-01  0.12892303826E+00  0.18816567296E-01 0.  0.
         14    1    1    2    0    0  0.20034378065E-01  0.11898189203E-01 -0.33338638028E-02  0.23538433649E-01  0.00000000000E+00 0.  1.
     999901    1    3    3    0    0 -0.38012309495E-01 -0.13559813336E+00 -0.22007888025E-01  0.89146852809E+00  0.88000000000E+00 0. -1.
        -11    1    4    4    0    0  0.63123945006E-03  0.61794068266E-01  0.78666661683E-02  0.62298080979E-01  0.51100000000E-03 0.  1.
         11    1    4    4    0    0  0.17346691980E-01  0.61905875893E-01  0.17475085659E-01  0.66624957280E-01  0.51100000000E-03 0. -1.
</event>
<event>
 8    1  0.1079508E+005  0.1043930E+01  0.7957747E-01            NaN
         13   -1    0    0    0    0  0.00000000000E+00  0.00000000000E+00  0.74505805969E-08  0.10566000000E+00  0.10566000000E+00 0. -1.
     999900   -1    0    0    0    0 -0.00000000000E+00 -0.00000000000E+00 -0.74505805969E-08  0.93827000000E+00  0.93827000000E+00 0. -1.
     999902    2    1    2    0    0  0.20443310806E-01 -0.13234654595E-01  0.26296539767E-02  0.10194351001E+01  0.10191407770E+01 0.  0.
     999903    2    3    3    0    0  0.12052875539E+00 -0.46178753859E-01  0.21533982142E-01  0.13294777168E+00  0.23489134200E-01 0.  0.
         14    1    1    2    0    0 -0.20443310806E-01  0.13234654595E-01 -0.26296539767E-02  0.24494899857E-01  0.00000000000E+00 0.  1.
     999901    1    3    3    0    0 -0.10008544458E+00  0.32944099264E-01 -0.18904328165E-01  0.88648732846E+00  0.88000000000E+00 0. -1.
        -11    1    4    4    0    0  0.88305958929E-01 -0.42583434508E-01  0.10070665204E-01  0.98554404750E-01  0.51100000000E-03 0. -1.
         11    1    4    4    0    0  0.32222796460E-01 -0.35953193514E-02  0.11463316938E-01  0.34393366935E-01  0.51100000000E-03 0.  1.
</event>
<event>
 8    1  0.1079508E+005  0.1043930E+01  0.7957747E-01            NaN
         13   -1    0    0    0    0  0.00000000000E+00  0.00000000000E+00  0.74505805969E-08  0.10566000000E+00  0.10566000000E+00 0. -1.
     999900   -1    0    0    0    0 -0.00000000000E+00 -0.00000000000E+00 -0.74505805969E-08  0.93827000000E+00  0.93827000000E+00 0.  1.
     999902    2    1    2    0    0  0.19685902661E-01 -0.80433508252E-02 -0.11164407279E-01  0.10199117934E+01  0.10196289483E+01 0.  0.
     999903    2    3    3    0    0 -0.78267988240E-01  0.49251462327E-01 -0.88131293151E-01  0.12929315347E+00  0.19950192402E-01 0.  0.
         14    1    1    2    0    0 -0.19685902661E-01  0.80433508252E-02  0.11164407279E-01  0.24018206552E-01  0.00000000000E+00 0. -1.
     999901    1    3    3    0    0  0.97953890902E-01 -0.57294813152E-01  0.76966885872E-01  0.89061863998E+00  0.88000000000E+00 0. -1.
        -11    1    4    4    0    0 -0.26026355516E-01  0.15798666925E-01 -0.16867868232E-01  0.34810273738E-01  0.51100000000E-03 0.  1.
         11    1    4    4    0    0 -0.52241632724E-01  0.33452795402E-01 -0.71263424920E-01  0.94482879731E-01  0.51100000000E-03 0. -1.
</event>
<event>
 8    1  0.1079508E+005  0.1043930E+01  0.7957747E-01            NaN
         13   -1    0    0    0    0  0.00000000000E+00  0.00000000000E+00  0.74505805969E-08  0.10566000000E+00  0.10566000000E+00 0. -1.
     999900   -1    0    0    0    0 -0.00000000000E+00 -0.00000000000E+00 -0.74505805969E-08  0.93827000000E+00  0.93827000000E+00 0.  1.
     999902    2    1    2    0    0 -0.60977457002E-02 -0.40098976448E-02 -0.22615232214E-01  0.10201663616E+01  0.10198895503E+01 0.  0.
     999903    2    3    3    0    0 -0.90083904902E-01 -0.21260797970E-01 -0.93611309626E-01  0.13315355927E+00  0.19991538290E-01 0.  0.
         14    1    1    2    0    0  0.60977457002E-02  0.40098976448E-02  0.22615232214E-01  0.23763638396E-01  0.00000000000E+00 0. -1.
     999901    1    3    3    0    0  0.83986159202E-01  0.17250900325E-01  0.70996077412E-01  0.88701280234E+00  0.88000000000E+00 0. -1.
        -11    1    4    4    0    0 -0.76855311307E-01 -0.13008921690E-01 -0.85015442843E-01  0.11534234939E+00  0.51100000000E-03 0. -1.
         11    1    4    4    0    0 -0.13228593595E-01 -0.82518762793E-02 -0.85958667830E-02  0.17811209880E-01  0.51100000000E-03 0.  1.
</event>
<event>
 8    1  0.1079508E+005  0.1043930E+01  0.7957747E-01            NaN
         13   -1    0    0    0    0  0.00000000000E+00  0.00000000000E+00  0.74505805969E-08  0.10566000000E+00  0.10566000000E+00 0. -1.
     999900   -1    0    0    0    0 -0.00000000000E+00 -0.00000000000E+00 -0.74505805969E-08  0.93827000000E+00  0.93827000000E+00 0. -1.
     999902    2    1    2    0    0  0.10666902315E-01  0.16465946328E-01 -0.13791485429E-01  0.10199484391E+01  0.10196664666E+01 0.  0.
     999903    2    3    3    0    0  0.14371414536E-01  0.70061705838E-01 -0.11039221003E+00  0.13303360166E+00  0.19907761222E-01 0.  0.
         14    1    1    2    0    0 -0.10666902315E-01 -0.16465946328E-01  0.13791485429E-01  0.23981560913E-01  0.00000000000E+00 0.  1.
     999901    1    3    3    0    0 -0.37045122219E-02 -0.53595759510E-01  0.96600724597E-01  0.88691483742E+00  0.88000000000E+00 0.  1.
        -11    1    4    4    0    0 -0.80651498851E-03  0.30773046637E-01 -0.59308031918E-01  0.66823159434E-01  0.51100000000E-03 0. -1.
         11    1    4    4    0    0  0.15177929525E-01  0.39288659201E-01 -0.51084178107E-01  0.66210442231E-01  0.51100000000E-03 0.  1.
</event>
<event>
 8    1  0.1079508E+005  0.1043930E+01  0.7957747E-01            NaN
         13   -1    0    0    0    0  0.00000000000E+00  0.00000000000E+00  0.74505805969E-08  0.10566000000E+00  0.10566000000E+00 0.  1.
     999900   -1    0    0    0    0 -0.00000000000E+00 -0.00000000000E+00 -0.74505805969E-08  0.93827000000E+00  0.93827000000E+00 0. -1.
     999902    2    1    2    0    0  0.14712891147E-01  0.83364101285E-02 -0.16508961024E-01  0.10202971692E+01  0.10200234324E+01 0.  0.
     999903    2    3    3    0    0  0.25122675764E-01  0.61041859472E-01  0.11065139013E+00  0.12953570674E+00  0.13360828507E-01 0.  0.
         14    1    1    2    0    0 -0.14712891147E-01 -0.83364101285E-02  0.16508961024E-01  0.23632830847E-01  0.00000000000E+00 0.  1.
     999901    1    3    3    0    0 -0.10409784617E-01 -0.52705449344E-01 -0.12716035116E+00  0.89076146241E+00  0.88000000000E+00 0. -1.
        -11    1    4    4    0    0  0.55169402618E-02  0.19553020960E-01  0.23724342948E-01  0.31238803239E-01  0.51100000000E-03 0. -1.
         11    1    4    4    0    0  0.19605735503E-01  0.41488838513E-01  0.86927047184E-01  0.98296903506E-01  0.51100000000E-03 0.  1.
</event>
<event>
 8    1  0.1079508E+005  0.1043930E+01  0.7957747E-01            NaN
         13   -1    0    0    0    0  0.00000000000E+00  0.00000000000E+00  0.74505805969E-08  0.10566000000E+00  0.10566000000E+00 0. -1.
     999900   -1    0    0    0    0 -0.00000000000E+00 -0.00000000000E+00 -0.74505805969E-08  0.93827000000E+00  0.93827000000E+00 0.  1.
     999902    2    1    2    0    0 -0.44232997106E-02 -0.21793979880E-01  0.79038054851E-02  0.10203288712E+01  0.10200558770E+01 0.  0.
     999903    2    3    3    0    0  0.21994061360E-01 -0.21645639380E-01  0.12672045646E+00  0.13195096990E+00  0.20017790423E-01 0.  0.
         14    1    1    2    0    0  0.44232997106E-02  0.21793979880E-01 -0.79038054851E-02  0.23601128797E-01  0.00000000000E+00 0.  1.
     999901    1    3    3    0    0 -0.26417361070E-01 -0.14834050018E-03 -0.11881665097E+00  0.88837790130E+00  0.88000000000E+00 0.  1.
        -11    1    4    4    0    0 -0.15788737095E-02 -0.29449820698E-02  0.40281585431E-01  0.40423174138E-01  0.51100000000E-03 0.  1.
         11    1    4    4    0    0  0.23572935069E-01 -0.18700657310E-01  0.86438871029E-01  0.91527795764E-01  0.51100000000E-03 0. -1.
</event>
<event>
 8    1  0.1079508E+005  0.1043930E+01  0.7957747E-01            NaN
         13   -1    0    0    0    0  0.00000000000E+00  0.00000000000E+00  0.74505805969E-08  0.10566000000E+00  0.10566000000E+00 0.  1.
     999900   -1    0    0    0    0 -0.00000000000E+00 -0.00000000000E+00 -0.74505805969E-08  0.93827000000E+00  0.93827000000E+00 0.  1.
     999902    2    1    2    0    0 -0.47204310578E-02 -0.25406170389E-01 -0.87930999903E-03  0.10180740694E+01  0.10177456861E+01 0.  0.
     999903    2    3    3    0    0 -0.12755677660E+00  0.91401541697E-03  0.26363528449E-02  0.12914556838E+00  0.20001519839E-01 0.  0.
         14    1    1    2    0    0  0.47204310578E-02  0.25406170389E-01  0.87930999903E-03  0.25855930641E-01  0.00000000000E+00 0. -1.
     999901    1    3    3    0    0  0.12283634554E+00 -0.26320185806E-01 -0.35156628439E-02  0.88892850098E+00  0.88000000000E+00 0.  1.
        -11    1    4    4    0    0 -0.53586113110E-01 -0.71866438154E-02 -0.52083161108E-02  0.54318569985E-01  0.51100000000E-03 0.  1.
         11    1    4    4    0    0 -0.73970663488E-01  0.81006592324E-02  0.78446689557E-02  0.74826998396E-01  0.51100000000E-03 0. -1.
</event>
<event>
 8    1  0.1079508E+005  0.1043930E+01  0.7957747E-01            NaN
         13   -1    0    0    0    0  0.00000000000E+00  0.00000000000E+00  0.74505805969E-08  0.10566000000E+00  0.10566000000E+00 0. -1.
     999900   -1    0    0    0    0 -0.00000000000E+00 -0.00000000000E+00 -0.74505805969E-08  0.93827000000E+00  0.93827000000E+00 0. -1.
     999902    2    1    2    0    0 -0.67863545211E-02  0.21432535143E-01  0.72131534163E-02  0.10203198803E+01  0.10200466756E+01 0.  0.
     999903    2    3    3    0    0 -0.52147807227E-01  0.10880273057E+00  0.53755696167E-01  0.13360830333E+00  0.20101638460E-01 0.  0.
         14    1    1    2    0    0  0.67863545211E-02 -0.21432535143E-01 -0.72131534163E-02  0.23610119706E-01  0.00000000000E+00 0. -1.
     999901    1    3    3    0    0  0.45361452706E-01 -0.87370195430E-01 -0.46542542751E-01  0.88671157697E+00  0.88000000000E+00 0. -1.
        -11    1    4    4    0    0 -0.31127302416E-01  0.67265545889E-01  0.22228350978E-01  0.77381673074E-01  0.51100000000E-03 0. -1.
         11    1    4    4    0    0 -0.21020504811E-01  0.41537184684E-01  0.31527345189E-01  0.56226630253E-01  0.51100000000E-03 0.  1.
</event>
<event>
 8    1  0.1079508E+005  0.1043930E+01  0.7957747E-01            NaN
         13   -1    0    0    0    0  0.00000000000E+00  0.00000000000E+00  0.74505805969E-08  0.10566000000E+00  0.10566000000E+00 0. -1.
     999900   -1    0    0    0    0 -0.00000000000E+00 -0.00000000000E+00 -0.74505805969E-08  0.93827000000E+00  0.93827000000E+00 0.  1.
     999902    2    1    2    0    0 -0.16808589439E-01 -0.76203469776E-02  0.14500723052E-01  0.10204593942E+01  0.10201894461E+01 0.  0.
     999903    2    3    3    0    0  0.52784370109E-01  0.11048562532E+00  0.37409148725E-01  0.12955143226E+00  0.19770332824E-01 0.  0.
         14    1    1    2    0    0  0.16808589439E-01  0.76203469776E-02 -0.14500723052E-01  0.23470605787E-01  0.00000000000E+00 0.  1.
     999901    1    3    3    0    0 -0.69592959548E-01 -0.11810597230E+00 -0.22908425673E-01  0.89090796196E+00  0.88000000000E+00 0.  1.
        -11    1    4    4    0    0  0.10615747620E-01  0.44148379928E-01  0.14701156836E-01  0.47730060561E-01  0.51100000000E-03 0.  1.
         11    1    4    4    0    0  0.42168622489E-01  0.66337245396E-01  0.22707991889E-01  0.81821371695E-01  0.51100000000E-03 0. -1.
</event>
<event>
 8    1  0.1079508E+005  0.1043930E+01  0.7957747E-01            NaN
         13   -1    0    0    0    0  0.00000000000E+00  0.00000000000E+00  0.74505805969E-08  0.10566000000E+00  0.10566000000E+00 0.  1.
     999900   -1    0    0    0    0 -0.00000000000E+00 -0.00000000000E+00 -0.74505805969E-08  0.93827000000E+00  0.93827000000E+00 0.  1.
     999902    2    1    2    0    0  0.15401651556E-01 -0.13921274381E-01  0.22319584706E-02  0.10230495213E+01  0.10228364135E+01 0.  0.
     999903    2    3    3    0    0  0.30587667701E-01  0.12531316990E+00 -0.17696128036E-01  0.13175048386E+00  0.20150461089E-01 0.  0.
         14    1    1    2    0    0 -0.15401651556E-01  0.13921274381E-01 -0.22319584706E-02  0.20880478674E-01  0.00000000000E+00 0.  1.
     999901    1    3    3    0    0 -0.15186016145E-01 -0.13923444429E+00  0.19928086507E-01  0.89129903747E+00  0.88000000000E+00 0. -1.
        -11    1    4    4    0    0  0.21236271666E-01  0.54387041020E-01 -0.14374386609E-01  0.60131635406E-01  0.51100000000E-03 0.  1.
         11    1    4    4    0    0  0.93513960350E-02  0.70926128885E-01 -0.33217414275E-02  0.71618848451E-01  0.51100000000E-03 0. -1.
</event>
<event>
 8    1  0.1079508E+005  0.1043930E+01  0.7957747E-01            NaN
         13   -1    0    0    0    0  0.00000000000E+00  0.00000000000E+00  0.74505805969E-08  0.10566000000E+00  0.10566000000E+00 0. -1.
     999900   -1    0    0    0    0 -0.00000000000E+00 -0.00000000000E+00 -0.74505805969E-08  0.93827000000E+00  0.93827000000E+00 0. -1.
     999902    2    1    2    0    0 -0.75082529141E-02 -0.22192053335E-01 -0.55145012245E-02  0.10198619544E+01  0.10195779202E+01 0.  0.
     999903    2    3    3    0    0  0.22648762231E-01 -0.62465608264E-01 -0.11224793751E+00  0.13198615727E+00  0.20145162956E-01 0.  0.
         14    1    1    2    0    0  0.75082529141E-02  0.22192053335E-01  0.55145012245E-02  0.24068045554E-01  0.00000000000E+00 0. -1.
     999901    1    3    3    0    0 -0.30157015145E-01  0.40273554929E-01  0.10673343628E+00  0.88787579718E+00  0.88000000000E+00 0.  1.
        -11    1    4    4    0    0  0.84139590717E-02 -0.10114286590E-01 -0.11163392723E-01  0.17261980146E-01  0.51100000000E-03 0.  1.
         11    1    4    4    0    0  0.14234803159E-01 -0.52351321674E-01 -0.10108454478E+00  0.11472417712E+00  0.51100000000E-03 0. -1.
</event>
<event>
 8    1  0.1079508E+005  0.1043930E+01  0.7957747E-01            NaN
         13   -1    0    0    0    0  0.00000000000E+00  0.00000000000E+00  0.74505805969E-08  0.10566000000E+00  0.10566000000E+00 0.  1.
     999900   -1    0    0    0    0 -0.00000000000E+00 -0.00000000000E+00 -0.74505805969E-08  0.93827000000E+00  0.93827000000E+00 0. -1.
     999902    2    1    2    0    0  0.11264274999E-01 -0.21183275372E-01 -0.25452650146E-02  0.10198033877E+01  0.10195179528E+01 0.  0.
     999903    2    3    3    0    0 -0.12319456481E+00 -0.37639579187E-02  0.31406063366E-01  0.12877291409E+00  0.20125963514E-01 0.  0.
         14    1    1    2    0    0 -0.11264274999E-01  0.21183275372E-01  0.25452650146E-02  0.24126612293E-01  0.00000000000E+00 0. -1.
     999901    1    3    3    0    0  0.13445883981E+00 -0.17419317453E-01 -0.33951328380E-01  0.89103047362E+00  0.88000000000E+00 0. -1.
        -11    1    4    4    0    0 -0.39290590313E-01  0.21449873058E-03  0.59002876560E-03  0.39298928125E-01  0.51100000000E-03 0.  1.
         11    1    4    4    0    0 -0.83903974499E-01 -0.39784566493E-02  0.30816034600E-01  0.89473985960E-01  0.51100000000E-03 0. -1.
</event>
<event>
 8    1  0.1271487E+005  0.1043930E+01  0.7957747E-01            NaN
         13   -1    0    0    0    0  0.00000000000E+00  0.00000000000E+00  0.74505805969E-08  0.10566000000E+00  0.10566000000E+00 0. -1.
     999900   -1    0    0    0    0 -0.00000000000E+00 -0.00000000000E+00 -0.74505805969E-08  0.93827000000E+00  0.93827000000E+00 0. -1.
     999902    2    1    2    0    0 -0.43106319480E-02 -0.23799822615E-01 -0.47693958095E-03  0.10197382540E+01  0.10194512573E+01 0.  0.
     999903    2    3    3    0    0 -0.67128564304E-01 -0.10876833399E+00 -0.29984119854E-01  0.13292575167E+00  0.20818582788E-01 0.  0.
         14    1    1    2    0    0  0.43106319480E-02  0.23799822615E-01  0.47693958095E-03  0.24191746024E-01  0.00000000000E+00 0. -1.
     999901    1    3    3    0    0  0.62817932356E-01  0.84968511380E-01  0.29507180273E-01  0.88681250230E+00  0.88000000000E+00 0.  1.
        -11    1    4    4    0    0 -0.39058196641E-01 -0.57841986974E-01 -0.61087550655E-02  0.70062944496E-01  0.51100000000E-03 0. -1.
         11    1    4    4    0    0 -0.28070367662E-01 -0.50926347021E-01 -0.23875364789E-01  0.62862807179E-01  0.51100000000E-03 0.  1.
</event>
<event>
 8    1  0.1079508E+005  0.1043930E+01  0.7957747E-01            NaN
         13   -1    0    0    0    0  0.00000000000E+00  0.00000000000E+00  0.74505805969E-08  0.10566000000E+00  0.10566000000E+00 0. -1.
     999900   -1    0    0    0    0 -0.00000000000E+00 -0.00000000000E+00 -0.74505805969E-08  0.93827000000E+00  0.93827000000E+00 0. -1.
     999902    2    1    2    0    0 -0.82943029444E-03  0.14254602356E-01 -0.18808017950E-01  0.10203159537E+01  0.10200426571E+01 0.  0.
     999903    2    3    3    0    0 -0.77586025510E-01 -0.27129185950E-01  0.96693623179E-01  0.12849488312E+00  0.20141850464E-01 0.  0.
         14    1    1    2    0    0  0.82943029444E-03 -0.14254602356E-01  0.18808017950E-01  0.23614046289E-01  0.00000000000E+00 0. -1.
     999901    1    3    3    0    0  0.76756595216E-01  0.41383788306E-01 -0.11550164113E+00  0.89182107059E+00  0.88000000000E+00 0. -1.
        -11    1    4    4    0    0 -0.58416095847E-01 -0.17063303124E-01  0.57558820551E-01  0.83766792416E-01  0.51100000000E-03 0. -1.
         11    1    4    4    0    0 -0.19169929663E-01 -0.10065882826E-01  0.39134802629E-01  0.44728090705E-01  0.51100000000E-03 0.  1.
</event>
<event>
 8    1  0.1079508E+005  0.1043930E+01  0.7957747E-01            NaN
         13   -1    0    0    0    0  0.00000000000E+00  0.00000000000E+00  0.74505805969E-08  0.10566000000E+00  0.10566000000E+00 0.  1.
     999900   -1    0    0    0    0 -0.00000000000E+00 -0.00000000000E+00 -0.74505805969E-08  0.93827000000E+00  0.93827000000E+00 0.  1.
     999902    2    1    2    0    0 -0.56628723575E-02 -0.15579542673E-01 -0.16894466028E-01  0.10202611754E+01  0.10199865945E+01 0.  0.
     999903    2    3    3    0    0 -0.39150847340E-01 -0.67836851212E-01  0.10187457690E+00  0.13011604328E+00  0.20423713468E-01 0.  0.
         14    1    1    2    0    0  0.56628723575E-02  0.15579542673E-01  0.16894466028E-01  0.23668824551E-01  0.00000000000E+00 0. -1.
     999901    1    3    3    0    0  0.33487974982E-01  0.52257308539E-01 -0.11876904292E+00  0.89014513217E+00  0.88000000000E+00 0.  1.
        -11    1    4    4    0    0 -0.25982192920E-01 -0.34652568574E-01  0.69646964435E-01  0.82017288627E-01  0.51100000000E-03 0. -1.
         11    1    4    4    0    0 -0.13168654419E-01 -0.33184282638E-01  0.32227612461E-01  0.48098754655E-01  0.51100000000E-03 0.  1.
</event>
<event>
 8    1  0.1079508E+005  0.1043930E+01  0.7957747E-01            NaN
         13   -1    0    0    0    0  0.00000000000E+00  0.00000000000E+00  0.74505805969E-08  0.10566000000E+00  0.10566000000E+00 0. -1.
     999900   -1    0    0    0    0 -0.00000000000E+00 -0.00000000000E+00 -0.74505805969E-08  0.93827000000E+00  0.93827000000E+00 0.  1.
     999902    2    1    2    0    0  0.75053295502E-02  0.18221288508E-01 -0.12242181090E-01  0.10207305103E+01  0.10204668335E+01 0.  0.
     999903    2    3    3    0    0 -0.36800381856E-02  0.10302266830E+00 -0.82851544215E-01  0.13376824013E+00  0.20058684500E-01 0.  0.
         14    1    1    2    0    0 -0.75053295502E-02 -0.18221288508E-01  0.12242181090E-01  0.23199489745E-01  0.00000000000E+00 0. -1.
     999901    1    3    3    0    0  0.11185367736E-01 -0.84801379792E-01  0.70609363125E-01  0.88696227013E+00  0.88000000000E+00 0. -1.
        -11    1    4    4    0    0  0.52953171159E-03  0.19138769827E-01 -0.26212934733E-01  0.32464626636E-01  0.51100000000E-03 0. -1.
         11    1    4    4    0    0 -0.42095698972E-02  0.83883898473E-01 -0.56638609482E-01  0.10130361349E+00  0.51100000000E-03 0.  1.
</event>
<event>
 8    1  0.1079508E+005  0.1043930E+01  0.7957747E-01            NaN
         13   -1    0    0    0    0  0.00000000000E+00  0.00000000000E+00  0.74505805969E-08  0.10566000000E+00  0.10566000000E+00 0.  1.
     999900   -1    0    0    0    0 -0.00000000000E+00 -0.00000000000E+00 -0.74505805969E-08  0.93827000000E+00  0.93827000000E+00 0. -1.
     999902    2    1    2    0    0  0.20484331610E-01  0.10567447012E-01  0.53450829427E-02  0.10202688781E+01  0.10199944779E+01 0.  0.
     999903    2    3    3    0    0  0.30912277573E-01 -0.11203024239E+00  0.55349030600E-01  0.13030296286E+00  0.20223818310E-01 0.  0.
         14    1    1    2    0    0 -0.20484331610E-01 -0.10567447012E-01 -0.53450829427E-02  0.23661121899E-01  0.00000000000E+00 0.  1.
     999901    1    3    3    0    0 -0.10427945964E-01  0.12259768941E+00 -0.50003947657E-01  0.88996591524E+00  0.88000000000E+00 0.  1.
        -11    1    4    4    0    0  0.16220300413E-01 -0.62371755975E-01  0.19560434542E-01  0.67351360857E-01  0.51100000000E-03 0. -1.
         11    1    4    4    0    0  0.14691977160E-01 -0.49658486418E-01  0.35788596058E-01  0.62951602005E-01  0.51100000000E-03 0.  1.
</event>
<event>
 8    1  0.1079508E+005  0.1043930E+01  0.7957747E-01            NaN
         13   -1    0    0    0    0  0.00000000000E+00  0.00000000000E+00  0.74505805969E-08  0.10566000000E+00  0.10566000000E+00 0. -1.
     999900   -1    0    0    0    0 -0.00000000000E+00 -0.00000000000E+00 -0.74505805969E-08  0.93827000000E+00  0.93827000000E+00 0. -1.
     999902    2    1    2    0    0  0.15059112189E-01  0.49573228069E-02 -0.18567689728E-01  0.10195146153E+01  0.10192222229E+01 0.  0.
     999903    2    3    3    0    0  0.55829365336E-01 -0.11469215020E+00 -0.18202253565E-01  0.13048236419E+00  0.20569831743E-01 0.  0.
         14    1    1    2    0    0 -0.15059112189E-01 -0.49573228069E-02  0.18567689728E-01  0.24415384723E-01  0.00000000000E+00 0. -1.
     999901    1    3    3    0    0 -0.40770253147E-01  0.11964947301E+00 -0.36543616296E-03  0.88903225109E+00  0.88000000000E+00 0. -1.
        -11    1    4    4    0    0  0.20810107237E-01 -0.25945488736E-01 -0.99424951428E-02  0.34718054088E-01  0.51100000000E-03 0. -1.
         11    1    4    4    0    0  0.35019258099E-01 -0.88746661464E-01 -0.82597584223E-02  0.95764310100E-01  0.51100000000E-03 0.  1.
</event>
<event>
 8    1  0.1079508E+005  0.1043930E+01  0.7957747E-01            NaN
         13   -1    0    0    0    0  0.00000000000E+00  0.00000000000E+00  0.74505805969E-08  0.10566000000E+00  0.10566000000E+00 0.  1.
     999900   -1    0    0    0    0 -0.00000000000E+00 -0.00000000000E+00 -0.74505805969E-08  0.93827000000E+00  0.93827000000E+00 0.  1.
     999902    2    1    2    0    0 -0.53338747447E-02 -0.16029691946E-01 -0.16589359215E-01  0.10202528363E+01  0.10199780595E+01 0.  0.
     999903    2    3    3    0    0 -0.51942273734E-01 -0.10538090382E+00  0.53670988392E-01  0.13171893237E+00  0.25810220030E-01 0.  0.
         14    1    1    2    0    0  0.53338747447E-02  0.16029691946E-01  0.16589359215E-01  0.23677163742E-01  0.00000000000E+00 0. -1.
     999901    1    3    3    0    0  0.46608398989E-01  0.89351211875E-01 -0.70260347608E-01  0.88853390389E+00  0.88000000000E+00 0.  1.
        -11    1    4    4    0    0 -0.30554057588E-01 -0.59052898558E-01  0.44136159844E-01  0.79806371863E-01  0.51100000000E-03 0.  1.
         11    1    4    4    0    0 -0.21388216146E-01 -0.46328005263E-01  0.95348285478E-02  0.51912560503E-01  0.51100000000E-03 0. -1.
</event>
<event>
 8    1  0.1079508E+005  0.1043930E+01  0.7957747E-01            NaN
         13   -1    0    0    0    0  0.00000000000E+00  0.00000000000E+00  0.74505805969E-08  0.10566000000E+00  0.10566000000E+00 0.  1.
     999900   -1    0    0    0    0 -0.00000000000E+00 -0.00000000000E+00 -0.74505805969E-08  0.93827000000E+00  0.93827000000E+00 0. -1.
     999902    2    1    2    0    0  0.55893187323E-03  0.22643648727E-01  0.78424207147E-02  0.10199602108E+01  0.10196785183E+01 0.  0.
     999903    2    3    3    0    0  0.51988102964E-01 -0.11159259330E+00 -0.27520821901E-01  0.12759543826E+00  0.19171084903E-01 0.  0.
         14    1    1    2    0    0 -0.55893187323E-03 -0.22643648727E-01 -0.78424207147E-02  0.23969789219E-01  0.00000000000E+00 0. -1.
     999901    1    3    3    0    0 -0.51429171091E-01  0.13423624203E+00  0.35363242616E-01  0.89236477252E+00  0.88000000000E+00 0.  1.
        -11    1    4    4    0    0  0.45870777392E-01 -0.88174495357E-01 -0.15600911581E-01  0.10061073210E+00  0.51100000000E-03 0. -1.
         11    1    4    4    0    0  0.61173255715E-02 -0.23418097945E-01 -0.11919910320E-01  0.26984706160E-01  0.51100000000E-03 0.  1.
</event>
<event>
 8    1  0.1079508E+005  0.1043930E+01  0.7957747E-01            NaN
         13   -1    0    0    0    0  0.00000000000E+00  0.00000000000E+00  0.74505805969E-08  0.10566000000E+00  0.10566000000E+00 0.  1.
     999900   -1    0    0    0    0 -0.00000000000E+00 -0.00000000000E+00 -0.74505805969E-08  0.93827000000E+00  0.93827000000E+00 0. -1.
     999902    2    1    2    0    0 -0.10574823659E-01 -0.13359658984E-01 -0.16029981392E-01  0.10205362468E+01  0.10202680841E+01 0.  0.
     999903    2    3    3    0    0  0.33902921478E-01  0.10253125962E+00  0.66011833883E-01  0.12804544337E+00  0.19390875959E-01 0.  0.
         14    1    1    2    0    0  0.10574823659E-01  0.13359658984E-01  0.16029981392E-01  0.23393753162E-01  0.00000000000E+00 0.  1.
     999901    1    3    3    0    0 -0.44477745138E-01 -0.11589091860E+00 -0.82041815275E-01  0.89249080347E+00  0.88000000000E+00 0.  1.
        -11    1    4    4    0    0  0.23052423430E-01  0.81735647394E-01  0.43037073210E-01  0.95208093523E-01  0.51100000000E-03 0.  1.
         11    1    4    4    0    0  0.10850498048E-01  0.20795612226E-01  0.22974760674E-01  0.32837349843E-01  0.51100000000E-03 0. -1.
</event>
<event>
 8    1  0.1079508E+005  0.1043930E+01  0.7957747E-01            NaN
         13   -1    0    0    0    0  0.00000000000E+00  0.00000000000E+00  0.74505805969E-08  0.10566000000E+00  0.10566000000E+00 0. -1.
     999900   -1    0    0    0    0 -0.00000000000E+00 -0.00000000000E+00 -0.74505805969E-08  0.93827000000E+00  0.93827000000E+00 0.  1.
     999902    2    1    2    0    0 -0.59394635475E-02 -0.22550576107E-01 -0.68384550640E-02  0.10196283503E+01  0.10193387085E+01 0.  0.
     999903    2    3    3    0    0 -0.13526227782E-01 -0.11661529102E+00  0.57334541917E-01  0.13225925961E+00  0.20571269273E-01 0.  0.
         14    1    1    2    0    0  0.59394635475E-02  0.22550576107E-01  0.68384550640E-02  0.24301649690E-01  0.00000000000E+00 0. -1.
     999901    1    3    3    0    0  0.75867642348E-02  0.94064714910E-01 -0.64172996981E-01  0.88736909070E+00  0.88000000000E+00 0.  1.
        -11    1    4    4    0    0  0.46989903064E-02 -0.36075987913E-01  0.13839521903E-01  0.38927508285E-01  0.51100000000E-03 0. -1.
         11    1    4    4    0    0 -0.18225218089E-01 -0.80539303105E-01  0.43495020014E-01  0.93331751328E-01  0.51100000000E-03 0.  1.
</event>
<event>
 8    1  0.1079508E+005  0.1043930E+01  0.7957747E-01            NaN
         13   -1    0    0    0    0  0.00000000000E+00  0.00000000000E+00  0.74505805969E-08  0.10566000000E+00  0.10566000000E+00 0. -1.
     999900   -1    0    0    0    0 -0.00000000000E+00 -0.00000000000E+00 -0.74505805969E-08  0.93827000000E+00  0.93827000000E+00 0. -1.
     999902    2    1    2    0    0 -0.21451631027E-01 -0.12760577076E-02 -0.71926333597E-02  0.10212686944E+01  0.10210172434E+01 0.  0.
     999903    2    3    3    0    0 -0.12227992815E+00 -0.17138416803E-01  0.45552448105E-01  0.13380038310E+00  0.24112462123E-01 0.  0.
         14    1    1    2    0    0  0.21451631027E-01  0.12760577076E-02  0.71926333597E-02  0.22661305604E-01  0.00000000000E+00 0.  1.
     999901    1    3    3    0    0  0.10082829713E+00  0.15862359096E-01 -0.52745081464E-01  0.88746831130E+00  0.88000000000E+00 0. -1.
        -11    1    4    4    0    0 -0.38653160575E-01 -0.39526016242E-02  0.26463744036E-01  0.47013623041E-01  0.51100000000E-03 0. -1.
         11    1    4    4    0    0 -0.83626767578E-01 -0.13185815179E-01  0.19088704069E-01  0.86786760059E-01  0.51100000000E-03 0.  1.
</event>
<event>
 8    1  0.1079508E+005  0.1043930E+01  0.7957747E-01            NaN
         13   -1    0    0    0    0  0.00000000000E+00  0.00000000000E+00  0.74505805969E-08  0.10566000000E+00  0.10566000000E+00 0.  1.
     999900   -1    0    0    0    0 -0.00000000000E+00 -0.00000000000E+00 -0.74505805969E-08  0.93827000000E+00  0.93827000000E+00 0.  1.
     999902    2    1    2    0    0 -0.86779434006E-02 -0.20961912252E-01  0.59081698183E-02  0.10204861322E+01  0.10202168059E+01 0.  0.
     999903    2    3    3    0    0  0.11422027351E+00  0.12545820839E-01  0.56835433636E-01  0.12985695791E+00  0.20709768198E-01 0.  0.
         14    1    1    2    0    0  0.86779434006E-02  0.20961912252E-01 -0.59081698183E-02  0.23443867802E-01  0.00000000000E+00 0. -1.
     999901    1    3    3    0    0 -0.12289821691E+00 -0.33507733091E-01 -0.50927263818E-01  0.89062917429E+00  0.88000000000E+00 0.  1.
        -11    1    4    4    0    0  0.34263828648E-01  0.97759077716E-02  0.26011762022E-01  0.44118603909E-01  0.51100000000E-03 0. -1.
         11    1    4    4    0    0  0.79956444864E-01  0.27699130673E-02  0.30823671614E-01  0.85738353999E-01  0.51100000000E-03 0.  1.
</event>
<event>
 8    1  0.1079508E+005  0.1043930E+01  0.7957747E-01            NaN
         13   -1    0    0    0    0  0.00000000000E+00  0.00000000000E+00  0.74505805969E-08  0.10566000000E+00  0.10566000000E+00 0. -1.
     999900   -1    0    0    0    0 -0.00000000000E+00 -0.00000000000E+00 -0.74505805969E-08  0.93827000000E+00  0.93827000000E+00 0. -1.
     999902    2    1    2    0    0  0.87236508175E-02 -0.10454160927E-01  0.19278521377E-01  0.10203280308E+01  0.10200550169E+01 0.  0.
     999903    2    3    3    0    0  0.96274344605E-01  0.11439007007E-01 -0.83760999475E-01  0.12973183854E+00  0.20367733984E-01 0.  0.
         14    1    1    2    0    0 -0.87236508175E-02  0.10454160927E-01 -0.19278521377E-01  0.23601969214E-01  0.00000000000E+00 0.  1.
     999901    1    3    3    0    0 -0.87550693788E-01 -0.21893167934E-01  0.10303952085E+00  0.89059619225E+00  0.88000000000E+00 0.  1.
        -11    1    4    4    0    0  0.56935215322E-01 -0.18196254450E-02 -0.41421832888E-01  0.70434076564E-01  0.51100000000E-03 0. -1.
         11    1    4    4    0    0  0.39339129283E-01  0.13258632452E-01 -0.42339166587E-01  0.59297761977E-01  0.51100000000E-03 0.  1.
</event>
<event>
 8    1  0.1079508E+005  0.1043930E+01  0.7957747E-01            NaN
         13   -1    0    0    0    0  0.00000000000E+00  0.00000000000E+00  0.74505805969E-08  0.10566000000E+00  0.10566000000E+00 0. -1.
     999900   -1    0    0    0    0 -0.00000000000E+00 -0.00000000000E+00 -0.74505805969E-08  0.93827000000E+00  0.93827000000E+00 0. -1.
     999902    2    1    2    0    0  0.21887461514E-01  0.12843788654E-01  0.64327289225E-02  0.10177497808E+01  0.10174129999E+01 0.  0.
     999903    2    3    3    0    0  0.11455493012E+00  0.61499306292E-01  0.18929819840E-02  0.13153579506E+00  0.19826379203E-01 0.  0.
         14    1    1    2    0    0 -0.21887461514E-01 -0.12843788654E-01 -0.64327289225E-02  0.26180219248E-01  0.00000000000E+00 0.  1.
     999901    1    3    3    0    0 -0.92667468605E-01 -0.48655517638E-01  0.45397469384E-02  0.88621398569E+00  0.88000000000E+00 0. -1.
        -11    1    4    4    0    0  0.10943026642E+00  0.55151741266E-01 -0.18217880900E-02  0.12255724298E+00  0.51100000000E-03 0.  1.
         11    1    4    4    0    0  0.51246636974E-02  0.63475650254E-02  0.37147700740E-02  0.89785520807E-02  0.51100000000E-03 0. -1.
</event>
<event>
 8    1  0.1079508E+005  0.1043930E+01  0.7957747E-01            NaN
         13   -1    0    0    0    0  0.00000000000E+00  0.00000000000E+00  0.74505805969E-08  0.10566000000E+00  0.10566000000E+00 0. -1.
     999900   -1    0    0    0    0 -0.00000000000E+00 -0.00000000000E+00 -0.74505805969E-08  0.93827000000E+00  0.93827000000E+00 0.  1.
     999902    2    1    2    0    0  0.22703754713E-01  0.40302577173E-02 -0.61785349105E-02  0.10200578876E+01  0.10197785134E+01 0.  0.
     999903    2    3    3    0    0  0.92268483032E-01  0.63471155896E-01 -0.69272767329E-01  0.13306670731E+00  0.19130387059E-01 0.  0.
         14    1    1    2    0    0 -0.22703754713E-01 -0.40302577173E-02  0.61785349105E-02  0.23872112370E-01  0.00000000000E+00 0.  1.
     999901    1    3    3    0    0 -0.69564728319E-01 -0.59440898178E-01  0.63094232418E-01  0.88699118032E+00  0.88000000000E+00 0.  1.
        -11    1    4    4    0    0  0.49279107100E-01  0.22961115716E-01 -0.36883101742E-01  0.65698307030E-01  0.51100000000E-03 0. -1.
         11    1    4    4    0    0  0.42989375932E-01  0.40510040180E-01 -0.32389665587E-01  0.67368400279E-01  0.51100000000E-03 0.  1.
</event>
<event>
 8    1  0.1079508E+005  0.1043930E+01  0.7957747E-01            NaN
         13   -1    0    0    0    0  0.00000000000E+00  0.00000000000E+00  0.74505805969E-08  0.10566000000E+00  0.10566000000E+00 0.  1.
     999900   -1    0    0    0    0 -0.00000000000E+00 -0.00000000000E+00 -0.74505805969E-08  0.93827000000E+00  0.93827000000E+00 0.  1.
     999902    2    1    2    0    0  0.10767024055E-01 -0.20099516455E-01 -0.75659031394E-02  0.10199057985E+01  0.10196228104E+01 0.  0.
     999903    2    3    3    0    0  0.61570593337E-01  0.61854630658E-01 -0.94847970004E-01  0.13034655701E+00  0.19420458590E-01 0.  0.
         14    1    1    2    0    0 -0.10767024055E-01  0.20099516455E-01  0.75659031394E-02  0.24024201528E-01  0.00000000000E+00 0. -1.
     999901    1    3    3    0    0 -0.50803569282E-01 -0.81954147113E-01  0.87282066865E-01  0.88955924147E+00  0.88000000000E+00 0.  1.
        -11    1    4    4    0    0  0.53631953733E-01  0.48746266925E-01 -0.67751405857E-01  0.99212393969E-01  0.51100000000E-03 0.  1.
         11    1    4    4    0    0  0.79386396044E-02  0.13108363733E-01 -0.27096564147E-01  0.31134163038E-01  0.51100000000E-03 0. -1.
</event>
<event>
 8    1  0.1079508E+005  0.1043930E+01  0.7957747E-01            NaN
         13   -1    0    0    0    0  0.00000000000E+00  0.00000000000E+00  0.74505805969E-08  0.10566000000E+00  0.10566000000E+00 0. -1.
     999900   -1    0    0    0    0 -0.00000000000E+00 -0.00000000000E+00 -0.74505805969E-08  0.93827000000E+00  0.93827000000E+00 0. -1.
     999902    2    1    2    0    0  0.64737112484E-02 -0.25649353878E-01  0.29573743643E-02  0.10173115035E+01  0.10169632003E+01 0.  0.
     999903    2    3    3    0    0 -0.61568509284E-01  0.35873365740E-01 -0.10232542514E+00  0.12630125853E+00  0.20098148481E-01 0.  0.
         14    1    1    2    0    0 -0.64737112484E-02  0.25649353878E-01 -0.29573743643E-02  0.26618496480E-01  0.00000000000E+00 0. -1.
     999901    1    3    3    0    0  0.68042220533E-01 -0.61522719618E-01  0.10528279950E+00  0.89101024499E+00  0.88000000000E+00 0.  1.
        -11    1    4    4    0    0 -0.58493742990E-01  0.27172525694E-01 -0.92948953776E-01  0.11313546416E+00  0.51100000000E-03 0. -1.
         11    1    4    4    0    0 -0.30747662940E-02  0.87008400463E-02 -0.93764713604E-02  0.13165794372E-01  0.51100000000E-03 0.  1.
</event>
<event>
 8    1  0.1079508E+005  0.1043930E+01  0.7957747E-01            NaN
         13   -1    0    0    0    0  0.00000000000E+00  0.00000000000E+00  0.74505805969E-08  0.10566000000E+00  0.10566000000E+00 0.  1.
     999900   -1    0    0    0    0 -0.00000000000E+00 -0.00000000000E+00 -0.74505805969E-08  0.93827000000E+00  0.93827000000E+00 0.  1.
     999902    2    1    2    0    0  0.17699549550E-01  0.96156224974E-02 -0.12133320459E-01  0.10204150746E+01  0.10201440941E+01 0.  0.
     999903    2    3    3    0    0 -0.56581316480E-01  0.60525623368E-01 -0.10016386595E+00  0.13145002908E+00  0.19532374255E-01 0.  0.
         14    1    1    2    0    0 -0.17699549550E-01 -0.96156224974E-02  0.12133320459E-01  0.23514925380E-01  0.00000000000E+00 0. -1.
     999901    1    3    3    0    0  0.74280866030E-01 -0.50910000871E-01  0.88030545496E-01  0.88896504554E+00  0.88000000000E+00 0. -1.
        -11    1    4    4    0    0 -0.13494591295E-02 -0.95493192571E-03 -0.55910107916E-02  0.58526453503E-02  0.51100000000E-03 0. -1.
         11    1    4    4    0    0 -0.55231857351E-01  0.61480555294E-01 -0.94572855163E-01  0.12559738373E+00  0.51100000000E-03 0.  1.
</event>
<event>
 8    1  0.1079508E+005  0.1043930E+01  0.7957747E-01            NaN
         13   -1    0    0    0    0  0.00000000000E+00  0.00000000000E+00  0.74505805969E-08  0.10566000000E+00  0.10566000000E+00 0. -1.
     999900   -1    0    0    0    0 -0.00000000000E+00 -0.00000000000E+00 -0.74505805969E-08  0.93827000000E+00  0.93827000000E+00 0. -1.
     999902    2    1    2    0    0 -0.27692526643E-02  0.21681675028E-01  0.11197822049E-01  0.10193707856E+01  0.10190748960E+01 0.  0.
     999903    2    3    3    0    0 -0.92069945896E-01 -0.32931180564E-01 -0.78979915177E-01  0.12859067690E+00  0.27136646671E-01 0.  0.
         14    1    1    2    0    0  0.27692526643E-02 -0.21681675028E-01 -0.11197822049E-01  0.24559214380E-01  0.00000000000E+00 0.  1.
     999901    1    3    3    0    0  0.89300693232E-01  0.54612855592E-01  0.90177737226E-01  0.89078010872E+00  0.88000000000E+00 0.  1.
        -11    1    4    4    0    0 -0.30242349394E-01 -0.12172779207E-02 -0.35351902721E-01  0.46541375242E-01  0.51100000000E-03 0.  1.
         11    1    4    4    0    0 -0.61827596502E-01 -0.31713902643E-01 -0.43628012456E-01  0.82049301654E-01  0.51100000000E-03 0. -1.
</event>
<event>
 8    1  0.1079508E+005  0.1043930E+01  0.7957747E-01            NaN
         13   -1    0    0    0    0  0.00000000000E+00  0.00000000000E+00  0.74505805969E-08  0.10566000000E+00  0.10566000000E+00 0.  1.
     999900   -1    0    0    0    0 -0.00000000000E+00 -0.00000000000E+00 -0.74505805969E-08  0.93827000000E+00  0.93827000000E+00 0. -1.
     999902    2    1    2    0    0  0.92610158529E-02 -0.19290131117E-01 -0.10305802685E-01  0.10201795233E+01  0.10199030222E+01 0.  0.
     999903    2    3    3    0    0 -0.11626084525E+00 -0.41664151017E-01  0.34627631642E-01  0.12985635284E+00  0.20275943454E-01 0.  0.
         14    1    1    2    0    0 -0.92610158529E-02  0.19290131117E-01  0.10305802685E-01  0.23750476671E-01  0.00000000000E+00 0. -1.
     999901    1    3    3    0    0  0.12552186110E+00  0.22374019900E-01 -0.44933434327E-01  0.89032317048E+00  0.88000000000E+00 0.  1.
        -11    1    4    4    0    0 -0.96083421820E-01 -0.41678793192E-01  0.26053454955E-01  0.10792677789E+00  0.51100000000E-03 0.  1.
         11    1    4    4    0    0 -0.20177423429E-01  0.14642174884E-04  0.85741766877E-02  0.21929574950E-01  0.51100000000E-03 0. -1.
</event>
<event>
 8    1  0.1079508E+005  0.1043930E+01  0.7957747E-01            NaN
         13   -1    0    0    0    0  0.00000000000E+00  0.00000000000E+00  0.74505805969E-08  0.10566000000E+00  0.10566000000E+00 0.  1.
     999900   -1    0    0    0    0 -0.00000000000E+00 -0.00000000000E+00 -0.74505805969E-08  0.93827000000E+00  0.93827000000E+00 0.  1.
     999902    2    1    2    0    0 -0.14571637902E-02 -0.23926885609E-01  0.13849894377E-02  0.10199188073E+01  0.10196361292E+01 0.  0.
     999903    2    3    3    0    0  0.11921904822E-01 -0.12570406733E+00  0.38350738910E-01  0.13318093120E+00  0.17964879664E-01 0.  0.
         14    1    1    2    0    0  0.14571637902E-02  0.23926885609E-01 -0.13849894377E-02  0.24011192744E-01  0.00000000000E+00 0.  1.
     999901    1    3    3    0    0 -0.13379068612E-01  0.10177718173E+00 -0.36965749473E-01  0.88673787606E+00  0.88000000000E+00 0. -1.
        -11    1    4    4    0    0  0.27687492286E-02 -0.76309591713E-01  0.15174343449E-01  0.77854618230E-01  0.51100000000E-03 0.  1.
         11    1    4    4    0    0  0.91531555935E-02 -0.49394475622E-01  0.23176395462E-01  0.55326312970E-01  0.51100000000E-03 0. -1.
</event>
<event>
 8    1  0.1079508E+005  0.1043930E+01  0.7957747E-01            NaN
         13   -1    0    0    0    0  0.00000000000E+00  0.00000000000E+00  0.74505805969E-08  0.10566000000E+00  0.10566000000E+00 0. -1.
     999900   -1    0    0    0    0 -0.00000000000E+00 -0.00000000000E+00 -0.74505805969E-08  0.93827000000E+00  0.93827000000E+00 0. -1.
     999902    2    1    2    0    0 -0.51194603690E-02 -0.23057515027E-01 -0.17685518046E-02  0.10202448644E+01  0.10199699004E+01 0.  0.
     999903    2    3    3    0    0  0.11461427947E+00 -0.44515843368E-01 -0.41387324353E-01  0.13099446351E+00  0.18125823724E-01 0.  0.
         14    1    1    2    0    0  0.51194603690E-02  0.23057515027E-01  0.17685518046E-02  0.23685135616E-01  0.00000000000E+00 0. -1.
     999901    1    3    3    0    0 -0.11973373984E+00  0.21458328341E-01  0.39618772548E-01  0.88925040087E+00  0.88000000000E+00 0. -1.
        -11    1    4    4    0    0  0.15298365538E-01 -0.24442459941E-02 -0.98364383484E-04  0.15501132963E-01  0.51100000000E-03 0.  1.
         11    1    4    4    0    0  0.99315913929E-01 -0.42071597374E-01 -0.41288959969E-01  0.11549333055E+00  0.51100000000E-03 0. -1.
</event>
<event>
 8    1  0.1079508E+005  0.1043930E+01  0.7957747E-01            NaN
         13   -1    0    0    0    0  0.00000000000E+00  0.00000000000E+00  0.74505805969E-08  0.10566000000E+00  0.10566000000E+00 0. -1.
     999900   -1    0    0    0    0 -0.00000000000E+00 -0.00000000000E+00 -0.74505805969E-08  0.93827000000E+00  0.93827000000E+00 0.  1.
     999902    2    1    2    0    0 -0.16117778699E-01  0.12817706755E-01  0.10605357863E-01  0.10207664508E+01  0.10205035997E+01 0.  0.
     999903    2    3    3    0    0 -0.12679386907E+00  0.35959398121E-01  0.54052498341E-02  0.13351689402E+00  0.20682860465E-01 0.  0.
         14    1    1    2    0    0  0.16117778699E-01 -0.12817706755E-01 -0.10605357863E-01  0.23163549211E-01  0.00000000000E+00 0.  1.
     999901    1    3    3    0    0  0.11067609037E+00 -0.23141691366E-01  0.52001080286E-02  0.88724955677E+00  0.88000000000E+00 0.  1.
        -11    1    4    4    0    0 -0.44682524138E-01  0.39424377850E-02  0.68016252854E-02  0.45371731360E-01  0.51100000000E-03 0. -1.
         11    1    4    4    0    0 -0.82111344931E-01  0.32016960336E-01 -0.13963754513E-02  0.88145162663E-01  0.51100000000E-03 0.  1.
</event>
<event>
 8    1  0.1079508E+005  0.1043930E+01  0.7957747E-01            NaN
         13   -1    0    0    0    0  0.00000000000E+00  0.00000000000E+00  0.74505805969E-08  0.10566000000E+00  0.10566000000E+00 0. -1.
     999900   -1    0    0    0    0 -0.00000000000E+00 -0.00000000000E+00 -0.74505805969E-08  0.93827000000E+00  0.93827000000E+00 0. -1.
     999902    2    1    2    0    0  0.63586661265E-02 -0.15089279596E-01 -0.17726675210E-01  0.10197979879E+01  0.10195124237E+01 0.  0.
     999903    2    3    3    0    0 -0.13570299321E-01 -0.10123214866E+00 -0.82504437419E-01  0.13299817057E+00  0.21199769702E-01 0.  0.
         14    1    1    2    0    0 -0.63586661265E-02  0.15089279596E-01  0.17726675210E-01  0.24132012093E-01  0.00000000000E+00 0. -1.
     999901    1    3    3    0    0  0.19928965448E-01  0.86142869062E-01  0.64777762209E-01  0.88679981734E+00  0.88000000000E+00 0.  1.
        -11    1    4    4    0    0 -0.60228565617E-02 -0.43670345083E-01 -0.22467358193E-01  0.49481482860E-01  0.51100000000E-03 0.  1.
         11    1    4    4    0    0 -0.75474427596E-02 -0.57561803575E-01 -0.60037079226E-01  0.83516687710E-01  0.51100000000E-03 0. -1.
</event>
<event>
 8    1  0.1079508E+005  0.1043930E+01  0.7957747E-01            NaN
         13   -1    0    0    0    0  0.00000000000E+00  0.00000000000E+00  0.74505805969E-08  0.10566000000E+00  0.10566000000E+00 0.  1.
     999900   -1    0    0    0    0 -0.00000000000E+00 -0.00000000000E+00 -0.74505805969E-08  0.93827000000E+00  0.93827000000E+00 0. -1.
     999902    2    1    2    0    0 -0.15383423335E-01  0.18898027476E-01 -0.14661210361E-02  0.10195182269E+01  0.10192259221E+01 0.  0.
     999903    2    3    3    0    0  0.45229017529E-02  0.10504710995E+00  0.77658129105E-01  0.13155506709E+00  0.14852565810E-01 0.  0.
         14    1    1    2    0    0  0.15383423335E-01 -0.18898027476E-01  0.14661210361E-02  0.24411773120E-01  0.00000000000E+00 0.  1.
     999901    1    3    3    0    0 -0.19906325088E-01 -0.86149082473E-01 -0.79124250141E-01  0.88796315979E+00  0.88000000000E+00 0. -1.
        -11    1    4    4    0    0  0.61382556390E-02  0.87535011401E-01  0.70488625052E-01  0.11255649153E+00  0.51100000000E-03 0. -1.
         11    1    4    4    0    0 -0.16153538862E-02  0.17512098549E-01  0.71695040530E-02  0.18998575555E-01  0.51100000000E-03 0.  1.
</event>
<event>
 8    1  0.1079508E+005  0.1043930E+01  0.7957747E-01            NaN
         13   -1    0    0    0    0  0.00000000000E+00  0.00000000000E+00  0.74505805969E-08  0.10566000000E+00  0.10566000000E+00 0.  1.
     999900   -1    0    0    0    0 -0.00000000000E+00 -0.00000000000E+00 -0.74505805969E-08  0.93827000000E+00  0.93827000000E+00 0.  1.
     999902    2    1    2    0    0 -0.87461904697E-02  0.24868145673E-01 -0.42465214225E-02  0.10172288116E+01  0.10168783121E+01 0.  0.
     999903    2    3    3    0    0  0.76022076399E-01 -0.26269827259E-01 -0.95968440146E-01  0.12694028439E+00  0.20843089299E-01 0.  0.
         14    1    1    2    0    0  0.87461904697E-02 -0.24868145673E-01  0.42465214225E-02  0.26701188385E-01  0.00000000000E+00 0. -1.
     999901    1    3    3    0    0 -0.84768266868E-01  0.51137972932E-01  0.91721918724E-01  0.89028852723E+00  0.88000000000E+00 0. -1.
        -11    1    4    4    0    0  0.47466962529E-01 -0.68137768549E-02 -0.48303589665E-01  0.68066423310E-01  0.51100000000E-03 0. -1.
         11    1    4    4    0    0  0.28555113869E-01 -0.19456050404E-01 -0.47664850482E-01  0.58873861075E-01  0.51100000000E-03 0.  1.
</event>
<event>
 8    1  0.1079508E+005  0.1043930E+01  0.7957747E-01            NaN
         13   -1    0    0    0    0  0.00000000000E+00  0.00000000000E+00  0.74505805969E-08  0.10566000000E+00  0.10566000000E+00 0.  1.
     999900   -1    0    0    0    0 -0.00000000000E+00 -0.00000000000E+00 -0.74505805969E-08  0.93827000000E+00  0.93827000000E+00 0.  1.
     999902    2    1    2    0    0 -0.12816802594E-01 -0.76902695776E-02 -0.19732948829E-01  0.10191752036E+01  0.10188745240E+01 0.  0.
     999903    2    3    3    0    0  0.83380094249E-01 -0.20206620494E-01  0.91475376765E-01  0.12688724914E+00  0.19289422285E-01 0.  0.
         14    1    1    2    0    0  0.12816802594E-01  0.76902695776E-02  0.19732948829E-01  0.24754796392E-01  0.00000000000E+00 0.  1.
     999901    1    3    3    0    0 -0.96196896843E-01  0.12516350916E-01 -0.11120832559E+00  0.89228795447E+00  0.88000000000E+00 0.  1.
        -11    1    4    4    0    0  0.38955509759E-01 -0.93266442526E-04  0.44982015982E-01  0.59507842525E-01  0.51100000000E-03 0. -1.
         11    1    4    4    0    0  0.44424584489E-01 -0.20113354051E-01  0.46493360783E-01  0.67379406618E-01  0.51100000000E-03 0.  1.
</event>
<event>
 8    1  0.1079508E+005  0.1043930E+01  0.7957747E-01            NaN
         13   -1    0    0    0    0  0.00000000000E+00  0.00000000000E+00  0.74505805969E-08  0.10566000000E+00  0.10566000000E+00 0.  1.
     999900   -1    0    0    0    0 -0.00000000000E+00 -0.00000000000E+00 -0.74505805969E-08  0.93827000000E+00  0.93827000000E+00 0. -1.
     999902    2    1    2    0    0 -0.12740170266E-01 -0.17367291983E-01  0.13990663424E-01  0.10182458914E+01  0.10179219135E+01 0.  0.
     999903    2    3    3    0    0  0.33014434759E-01  0.33990559182E-01  0.11879944833E+00  0.12936120030E+00  0.19382987496E-01 0.  0.
         14    1    1    2    0    0  0.12740170266E-01  0.17367291983E-01 -0.13990663424E-01  0.25684108555E-01  0.00000000000E+00 0. -1.
     999901    1    3    3    0    0 -0.45754605025E-01 -0.51357851165E-01 -0.10480878490E+00  0.88888469114E+00  0.88000000000E+00 0. -1.
        -11    1    4    4    0    0  0.19182378603E-01  0.19393486904E-01  0.42893009491E-01  0.50834460431E-01  0.51100000000E-03 0.  1.
         11    1    4    4    0    0  0.13832056156E-01  0.14597072278E-01  0.75906438837E-01  0.78526739869E-01  0.51100000000E-03 0. -1.
</event>
<event>
 8    1  0.1079508E+005  0.1043930E+01  0.7957747E-01            NaN
         13   -1    0    0    0    0  0.00000000000E+00  0.00000000000E+00  0.74505805969E-08  0.10566000000E+00  0.10566000000E+00 0. -1.
     999900   -1    0    0    0    0 -0.00000000000E+00 -0.00000000000E+00 -0.74505805969E-08  0.93827000000E+00  0.93827000000E+00 0.  1.
     999902    2    1    2    0    0 -0.10929572093E-01  0.20289831130E-01 -0.61804899440E-02  0.10200693368E+01  0.10197902336E+01 0.  0.
     999903    2    3    3    0    0  0.11313173791E+00  0.41406923419E-01  0.43691474213E-01  0.12971864574E+00  0.20116130448E-01 0.  0.
         14    1    1    2    0    0  0.10929572093E-01 -0.20289831130E-01  0.61804899440E-02  0.23860663222E-01  0.00000000000E+00 0.  1.
     999901    1    3    3    0    0 -0.12406131000E+00 -0.21117092289E-01 -0.49871964157E-01  0.89035069104E+00  0.88000000000E+00 0.  1.
        -11    1    4    4    0    0  0.98243511089E-01  0.28181985042E-01  0.35894257939E-01  0.10832668474E+00  0.51100000000E-03 0.  1.
         11    1    4    4    0    0  0.14888226820E-01  0.13224938377E-01  0.77972162738E-02  0.21391961002E-01  0.51100000000E-03 0. -1.
</event>
<event>
 8    1  0.1079508E+005  0.1043930E+01  0.7957747E-01            NaN
         13   -1    0    0    0    0  0.00000000000E+00  0.00000000000E+00  0.74505805969E-08  0.10566000000E+00  0.10566000000E+00 0. -1.
     999900   -1    0    0    0    0 -0.00000000000E+00 -0.00000000000E+00 -0.74505805969E-08  0.93827000000E+00  0.93827000000E+00 0. -1.
     999902    2    1    2    0    0  0.15893473116E-01  0.15184843995E-01  0.92365848809E-02  0.10200868359E+01  0.10198081468E+01 0.  0.
     999903    2    3    3    0    0 -0.34054213714E-01  0.12558715855E+00 -0.49750732166E-02  0.13166947129E+00  0.19500626968E-01 0.  0.
         14    1    1    2    0    0 -0.15893473116E-01 -0.15184843995E-01 -0.92365848809E-02  0.23843164117E-01  0.00000000000E+00 0.  1.
     999901    1    3    3    0    0  0.49947686831E-01 -0.11040231456E+00  0.14211658097E-01  0.88841736459E+00  0.88000000000E+00 0. -1.
        -11    1    4    4    0    0  0.13423823202E-03  0.18222166935E-01 -0.53221808292E-02  0.18990842991E-01  0.51100000000E-03 0. -1.
         11    1    4    4    0    0 -0.34188451946E-01  0.10736499162E+00  0.34710761262E-03  0.11267862830E+00  0.51100000000E-03 0.  1.
</event>
<event>
 8    1  0.1079508E+005  0.1043930E+01  0.7957747E-01            NaN
         13   -1    0    0    0    0  0.00000000000E+00  0.00000000000E+00  0.74505805969E-08  0.10566000000E+00  0.10566000000E+00 0.  1.
     999900   -1    0    0    0    0 -0.00000000000E+00 -0.00000000000E+00 -0.74505805969E-08  0.93827000000E+00  0.93827000000E+00 0. -1.
     999902    2    1    2    0    0 -0.53888733849E-02 -0.20148168050E-01 -0.11401358420E-01  0.10201607003E+01  0.10198837556E+01 0.  0.
     999903    2    3    3    0    0  0.57789723467E-01 -0.91837919515E-01 -0.75281859432E-01  0.13268581396E+00  0.12818395627E-01 0.  0.
         14    1    1    2    0    0  0.53888733849E-02  0.20148168050E-01  0.11401358420E-01  0.23769299653E-01  0.00000000000E+00 0.  1.
     999901    1    3    3    0    0 -0.63178596852E-01  0.71689751464E-01  0.63880501012E-01  0.88747488639E+00  0.88000000000E+00 0.  1.
        -11    1    4    4    0    0  0.27709218696E-01 -0.33369003696E-01 -0.33108968301E-01  0.54568819956E-01  0.51100000000E-03 0.  1.
         11    1    4    4    0    0  0.30080504771E-01 -0.58468915819E-01 -0.42172891131E-01  0.78116994000E-01  0.51100000000E-03 0. -1.
</event>
<event>
 8    1  0.1079508E+005  0.1043930E+01  0.7957747E-01            NaN
         13   -1    0    0    0    0  0.00000000000E+00  0.00000000000E+00  0.74505805969E-08  0.10566000000E+00  0.10566000000E+00 0. -1.
     999900   -1    0    0    0    0 -0.00000000000E+00 -0.00000000000E+00 -0.74505805969E-08  0.93827000000E+00  0.93827000000E+00 0.  1.
     999902    2    1    2    0    0  0.85677728139E-02  0.18212476597E-01  0.12529878244E-01  0.10202213753E+01  0.10199458593E+01 0.  0.
     999903    2    3    3    0    0  0.11603443302E+00  0.27783311763E-02 -0.57011831827E-01  0.13082644318E+00  0.19836846961E-01 0.  0.
         14    1    1    2    0    0 -0.85677728139E-02 -0.18212476597E-01 -0.12529878244E-01  0.23708624667E-01  0.00000000000E+00 0. -1.
     999901    1    3    3    0    0 -0.10746666020E+00  0.15434145421E-01  0.69541710071E-01  0.88939493215E+00  0.88000000000E+00 0. -1.
        -11    1    4    4    0    0  0.83426640755E-01 -0.44664675628E-02 -0.33691514890E-01  0.90085143152E-01  0.51100000000E-03 0. -1.
         11    1    4    4    0    0  0.32607792261E-01  0.72447987391E-02 -0.23320316937E-01  0.40741300028E-01  0.51100000000E-03 0.  1.
</event>
<event>
 8    1  0.1079508E+005  0.1043930E+01  0.7957747E-01            NaN
         13   -1    0    0    0    0  0.00000000000E+00  0.00000000000E+00  0.74505805969E-08  0.10566000000E+00  0.10566000000E+00 0. -1.
     999900   -1    0    0    0    0 -0.00000000000E+00 -0.00000000000E+00 -0.74505805969E-08  0.93827000000E+00  0.93827000000E+00 0.  1.
     999902    2    1    2    0    0  0.10777526993E-01  0.17509332014E-01 -0.12274793549E-01  0.10199841788E+01  0.10197030561E+01 0.  0.
     999903    2    3    3    0    0  0.23100250849E-01  0.10165881981E+00  0.74730618884E-01  0.13161323849E+00  0.29482908808E-01 0.  0.
         14    1    1    2    0    0 -0.10777526993E-01 -0.17509332014E-01  0.12274793549E-01  0.23945821188E-01  0.00000000000E+00 0. -1.
     999901    1    3    3    0    0 -0.12322723856E-01 -0.84149487797E-01 -0.87005412433E-01  0.88837094032E+00  0.88000000000E+00 0. -1.
        -11    1    4    4    0    0  0.10993201272E-01  0.83299714562E-01  0.47198700953E-01  0.96372565666E-01  0.51100000000E-03 0. -1.
         11    1    4    4    0    0  0.12107049578E-01  0.18359105250E-01  0.27531917931E-01  0.35240672823E-01  0.51100000000E-03 0.  1.
</event>
<event>
 8    1  0.1079508E+005  0.1043930E+01  0.7957747E-01            NaN
         13   -1    0    0    0    0  0.00000000000E+00  0.00000000000E+00  0.74505805969E-08  0.10566000000E+00  0.10566000000E+00 0.  1.
     999900   -1    0    0    0    0 -0.00000000000E+00 -0.00000000000E+00 -0.74505805969E-08  0.93827000000E+00  0.93827000000E+00 0. -1.
     999902    2    1    2    0    0  0.43747554606E-02  0.32211216562E-03  0.23677732736E-01  0.10198493590E+01  0.10195650239E+01 0.  0.
     999903    2    3    3    0    0 -0.10079983897E+00  0.68967858425E-01 -0.36083899041E-01  0.12892546418E+00  0.20063761197E-01 0.  0.
         14    1    1    2    0    0 -0.43747554606E-02 -0.32211216562E-03 -0.23677732736E-01  0.24080640962E-01  0.00000000000E+00 0. -1.
     999901    1    3    3    0    0  0.10517459443E+00 -0.68645746260E-01  0.59761631778E-01  0.89092389486E+00  0.88000000000E+00 0.  1.
        -11    1    4    4    0    0 -0.65424407811E-01  0.43670948896E-01 -0.33061785219E-01  0.85327883354E-01  0.51100000000E-03 0. -1.
         11    1    4    4    0    0 -0.35375431155E-01  0.25296909530E-01 -0.30221138228E-02  0.43597580829E-01  0.51100000000E-03 0.  1.
</event>
<event>
 8    1  0.1079508E+005  0.1043930E+01  0.7957747E-01            NaN
         13   -1    0    0    0    0  0.00000000000E+00  0.00000000000E+00  0.74505805969E-08  0.10566000000E+00  0.10566000000E+00 0.  1.
     999900   -1    0    0    0    0 -0.00000000000E+00 -0.00000000000E+00 -0.74505805969E-08  0.93827000000E+00  0.93827000000E+00 0. -1.
     999902    2    1    2    0    0 -0.18108947721E-01 -0.13864778539E-01 -0.70834895206E-02  0.10200481681E+01  0.10197685636E+01 0.  0.
     999903    2    3    3    0    0 -0.27050836983E-01 -0.55532417957E-01  0.11347338316E+00  0.13080685714E+00  0.20460399880E-01 0.  0.
         14    1    1    2    0    0  0.18108947721E-01  0.13864778539E-01  0.70834895206E-02  0.23881831908E-01  0.00000000000E+00 0. -1.
     999901    1    3    3    0    0  0.89418892616E-02  0.41667639418E-01 -0.12055687268E+00  0.88924131095E+00  0.88000000000E+00 0. -1.
        -11    1    4    4    0    0 -0.17901449536E-01 -0.25905534346E-01  0.75325230024E-01  0.81643799546E-01  0.51100000000E-03 0. -1.
         11    1    4    4    0    0 -0.91493874473E-02 -0.29626883611E-01  0.38148153134E-01  0.49163057591E-01  0.51100000000E-03 0.  1.
</event>
<event>
 8    1  0.1079508E+005  0.1043930E+01  0.7957747E-01            NaN
         13   -1    0    0    0    0  0.00000000000E+00  0.00000000000E+00  0.74505805969E-08  0.10566000000E+00  0.10566000000E+00 0.  1.
     999900   -1    0    0    0    0 -0.00000000000E+00 -0.00000000000E+00 -0.74505805969E-08  0.93827000000E+00  0.93827000000E+00 0.  1.
     999902    2    1    2    0    0 -0.80525312446E-03 -0.16925262783E-01  0.16008656880E-01  0.10206192718E+01  0.10203530311E+01 0.  0.
     999903    2    3    3    0    0  0.60788104419E-01 -0.86517198645E-01 -0.75945925604E-01  0.13096067187E+00  0.14230061890E-01 0.  0.
         14    1    1    2    0    0  0.80525312446E-03  0.16925262783E-01 -0.16008656880E-01  0.23310728173E-01  0.00000000000E+00 0. -1.
     999901    1    3    3    0    0 -0.61593357544E-01  0.69591935863E-01  0.91954582485E-01  0.88965859995E+00  0.88000000000E+00 0. -1.
        -11    1    4    4    0    0  0.34254846394E-01 -0.56942538356E-01 -0.53574667059E-01  0.85360138515E-01  0.51100000000E-03 0. -1.
         11    1    4    4    0    0  0.26533258025E-01 -0.29574660289E-01 -0.22371258546E-01  0.45600533358E-01  0.51100000000E-03 0.  1.
</event>
<event>
 8    1  0.1079508E+005  0.1043930E+01  0.7957747E-01            NaN
         13   -1    0    0    0    0  0.00000000000E+00  0.00000000000E+00  0.74505805969E-08  0.10566000000E+00  0.10566000000E+00 0.  1.
     999900   -1    0    0    0    0 -0.00000000000E+00 -0.00000000000E+00 -0.74505805969E-08  0.93827000000E+00  0.93827000000E+00 0.  1.
     999902    2    1    2    0    0  0.23003741195E-01  0.60766875373E-02  0.41528983151E-02  0.10197774679E+01  0.10194914121E+01 0.  0.
     999903    2    3    3    0    0 -0.86170919726E-02 -0.63817886940E-01  0.11114315166E+00  0.12998420940E+00  0.19902702474E-01 0.  0.
         14    1    1    2    0    0 -0.23003741195E-01 -0.60766875373E-02 -0.41528983151E-02  0.24152532058E-01  0.00000000000E+00 0. -1.
     999901    1    3    3    0    0  0.31620833168E-01  0.69894574477E-01 -0.10699025334E+00  0.88979325854E+00  0.88000000000E+00 0.  1.
        -11    1    4    4    0    0 -0.82226658448E-02 -0.21615903220E-01  0.55630528031E-01  0.60248454550E-01  0.51100000000E-03 0.  1.
         11    1    4    4    0    0 -0.39442612780E-03 -0.42201983719E-01  0.55512623628E-01  0.69735754852E-01  0.51100000000E-03 0. -1.
</event>
<event>
 8    1  0.1079508E+005  0.1043930E+01  0.7957747E-01            NaN
         13   -1    0    0    0    0  0.00000000000E+00  0.00000000000E+00  0.74505805969E-08  0.10566000000E+00  0.10566000000E+00 0.  1.
     999900   -1    0    0    0    0 -0.00000000000E+00 -0.00000000000E+00 -0.74505805969E-08  0.93827000000E+00  0.93827000000E+00 0.  1.
     999902    2    1    2    0    0 -0.20347062166E-01  0.12310963208E-01 -0.11162596352E-02  0.10201222536E+01  0.10198444016E+01 0.  0.
     999903    2    3    3    0    0  0.12500132618E+00  0.14730859463E-01 -0.14226919814E-01  0.12809988878E+00  0.19100955255E-01 0.  0.
         14    1    1    2    0    0  0.20347062166E-01 -0.12310963208E-01  0.11162596352E-02  0.23807746418E-01  0.00000000000E+00 0.  1.
     999901    1    3    3    0    0 -0.14534838835E+00 -0.24198962552E-02  0.13110660179E-01  0.89202236480E+00  0.88000000000E+00 0. -1.
        -11    1    4    4    0    0  0.77299192758E-01 -0.21650956089E-03 -0.95814210350E-02  0.77892726409E-01  0.51100000000E-03 0. -1.
         11    1    4    4    0    0  0.47702133422E-01  0.14947369024E-01 -0.46454987794E-02  0.50207162374E-01  0.51100000000E-03 0.  1.
</event>
<event>
 8    1  0.1079508E+005  0.1043930E+01  0.7957747E-01            NaN
         13   -1    0    0    0    0  0.00000000000E+00  0.00000000000E+00  0.74505805969E-08  0.10566000000E+00  0.10566000000E+00 0. -1.
     999900   -1    0    0    0    0 -0.00000000000E+00 -0.00000000000E+00 -0.74505805969E-08  0.93827000000E+00  0.93827000000E+00 0. -1.
     999902    2    1    2    0    0 -0.63275499166E-03 -0.56577250979E-02  0.32726124189E-01  0.10107123927E+01  0.10101663879E+01 0.  0.
     999903    2    3    3    0    0 -0.83500794813E-01  0.48762623784E-01  0.75339883291E-01  0.12412081880E+00  0.19485980417E-01 0.  0.
         14    1    1    2    0    0  0.63275499166E-03  0.56577250979E-02 -0.32726124189E-01  0.33217607328E-01  0.00000000000E+00 0.  1.
     999901    1    3    3    0    0  0.82868039821E-01 -0.54420348882E-01 -0.42613759102E-01  0.88659157387E+00  0.88000000000E+00 0. -1.
        -11    1    4    4    0    0 -0.32201669688E-01  0.86439922724E-02  0.28989799716E-01  0.44185243483E-01  0.51100000000E-03 0. -1.
         11    1    4    4    0    0 -0.51299125125E-01  0.40118631512E-01  0.46350083574E-01  0.79935575317E-01  0.51100000000E-03 0.  1.
</event>
<event>
 8    1  0.1079508E+005  0.1043930E+01  0.7957747E-01            NaN
         13   -1    0    0    0    0  0.00000000000E+00  0.00000000000E+00  0.74505805969E-08  0.10566000000E+00  0.10566000000E+00 0. -1.
     999900   -1    0    0    0    0 -0.00000000000E+00 -0.00000000000E+00 -0.74505805969E-08  0.93827000000E+00  0.93827000000E+00 0.  1.
     999902    2    1    2    0    0  0.13337859994E-01 -0.45269582928E-02 -0.19256514212E-01  0.10200719783E+01  0.10197929376E+01 0.  0.
     999903    2    3    3    0    0  0.92147158934E-01 -0.17806107526E-01  0.87647188398E-01  0.13000701266E+00  0.20288847707E-01 0.  0.
         14    1    1    2    0    0 -0.13337859994E-01  0.45269582928E-02  0.19256514212E-01  0.23858021716E-01  0.00000000000E+00 0. -1.
     999901    1    3    3    0    0 -0.78809298939E-01  0.13279149233E-01 -0.10690370261E+00  0.89006496563E+00  0.88000000000E+00 0.  1.
        -11    1    4    4    0    0  0.55376565060E-01 -0.14155505715E-01  0.40265051143E-01  0.69917649878E-01  0.51100000000E-03 0.  1.
         11    1    4    4    0    0  0.36770593873E-01 -0.36506018111E-02  0.47382137255E-01  0.60089362780E-01  0.51100000000E-03 0. -1.
</event>
<event>
 8    1  0.1079508E+005  0.1043930E+01  0.7957747E-01            NaN
         13   -1    0    0    0    0  0.00000000000E+00  0.00000000000E+00  0.74505805969E-08  0.10566000000E+00  0.10566000000E+00 0. -1.
     999900   -1    0    0    0    0 -0.00000000000E+00 -0.00000000000E+00 -0.74505805969E-08  0.93827000000E+00  0.93827000000E+00 0. -1.
     999902    2    1    2    0    0 -0.15471653934E-01 -0.36896064020E-02  0.17162153519E-01  0.10205307525E+01  0.10202624623E+01 0.  0.
     999903    2    3    3    0    0  0.24344655023E-01 -0.10783477224E+00 -0.66036245847E-01  0.12960228864E+00  0.14661757187E-01 0.  0.
         14    1    1    2    0    0  0.15471653934E-01  0.36896064020E-02 -0.17162153519E-01  0.23399247515E-01  0.00000000000E+00 0.  1.
     999901    1    3    3    0    0 -0.39816308957E-01  0.10414516584E+00  0.83198399366E-01  0.89092846384E+00  0.88000000000E+00 0.  1.
        -11    1    4    4    0    0  0.12843832675E-01 -0.81462289663E-01 -0.52833481787E-01  0.97942363631E-01  0.51100000000E-03 0. -1.
         11    1    4    4    0    0  0.11500822348E-01 -0.26372482577E-01 -0.13202764060E-01  0.31659925012E-01  0.51100000000E-03 0.  1.
</event>
<event>
 8    1  0.1079508E+005  0.1043930E+01  0.7957747E-01            NaN
         13   -1    0    0    0    0  0.00000000000E+00  0.00000000000E+00  0.74505805969E-08  0.10566000000E+00  0.10566000000E+00 0. -1.
     999900   -1    0    0    0    0 -0.00000000000E+00 -0.00000000000E+00 -0.74505805969E-08  0.93827000000E+00  0.93827000000E+00 0. -1.
     999902    2    1    2    0    0  0.65876367571E-02 -0.94145238656E-02 -0.68920963795E-02  0.10305310743E+01  0.10304439644E+01 0.  0.
     999903    2    3    3    0    0  0.15770564079E-01  0.14333971348E-01 -0.13748061636E+00  0.14053013119E+00  0.19839971557E-01 0.  0.
         14    1    1    2    0    0 -0.65876367571E-02  0.94145238656E-02  0.68920963795E-02  0.13398925709E-01  0.00000000000E+00 0.  1.
     999901    1    3    3    0    0 -0.91829273218E-02 -0.23748495214E-01  0.13058851998E+00  0.89000094311E+00  0.88000000000E+00 0.  1.
        -11    1    4    4    0    0 -0.23177622356E-03  0.93122109536E-02 -0.22899243498E-01  0.24726654987E-01  0.51100000000E-03 0. -1.
         11    1    4    4    0    0  0.16002340302E-01  0.50217603946E-02 -0.11458137286E+00  0.11580347620E+00  0.51100000000E-03 0.  1.
</event>
<event>
 8    1  0.1079508E+005  0.1043930E+01  0.7957747E-01            NaN
         13   -1    0    0    0    0  0.00000000000E+00  0.00000000000E+00  0.74505805969E-08  0.10566000000E+00  0.10566000000E+00 0.  1.
     999900   -1    0    0    0    0 -0.00000000000E+00 -0.00000000000E+00 -0.74505805969E-08  0.93827000000E+00  0.93827000000E+00 0. -1.
     999902    2    1    2    0    0 -0.24440388414E-01  0.18775385309E-02 -0.25583566720E-02  0.10192844542E+01  0.10189864551E+01 0.  0.
     999903    2    3    3    0    0  0.32332939469E-01  0.17658177727E-02 -0.12362625505E+00  0.12918296607E+00  0.18874604573E-01 0.  0.
         14    1    1    2    0    0  0.24440388414E-01 -0.18775385309E-02  0.25583566720E-02  0.24645545757E-01  0.00000000000E+00 0.  1.
     999901    1    3    3    0    0 -0.56773327883E-01  0.11172075818E-03  0.12106789837E+00  0.89010148818E+00  0.88000000000E+00 0.  1.
        -11    1    4    4    0    0  0.17648927786E-01  0.90038974541E-02 -0.50615605087E-01  0.54357662024E-01  0.51100000000E-03 0. -1.
         11    1    4    4    0    0  0.14684011683E-01 -0.72380796814E-02 -0.73010649958E-01  0.74825304042E-01  0.51100000000E-03 0.  1.
</event>
<event>
 8    1  0.1079508E+005  0.1043930E+01  0.7957747E-01            NaN
         13   -1    0    0    0    0  0.00000000000E+00  0.00000000000E+00  0.74505805969E-08  0.10566000000E+00  0.10566000000E+00 0.  1.
     999900   -1    0    0    0    0 -0.00000000000E+00 -0.00000000000E+00 -0.74505805969E-08  0.93827000000E+00  0.93827000000E+00 0. -1.
     999902    2    1    2    0    0 -0.18564485532E-01  0.71674562001E-02 -0.16409859498E-01  0.10181366667E+01  0.10178098919E+01 0.  0.
     999903    2    3    3    0    0 -0.73397395639E-01  0.66028705649E-01  0.80939617054E-01  0.12912136019E+00  0.19342605598E-01 0.  0.
         14    1    1    2    0    0  0.18564485532E-01 -0.71674562001E-02  0.16409859498E-01  0.25793333251E-01  0.00000000000E+00 0.  1.
     999901    1    3    3    0    0  0.54832910107E-01 -0.58861249449E-01 -0.97349476552E-01  0.88901530656E+00  0.88000000000E+00 0. -1.
        -11    1    4    4    0    0 -0.15248660810E-01  0.15754414773E-01  0.85746195611E-02  0.23548003375E-01  0.51100000000E-03 0.  1.
         11    1    4    4    0    0 -0.58148734830E-01  0.50274290876E-01  0.72364997493E-01  0.10557335681E+00  0.51100000000E-03 0. -1.
</event>
<event>
 8    1  0.1079508E+005  0.1043930E+01  0.7957747E-01            NaN
         13   -1    0    0    0    0  0.00000000000E+00  0.00000000000E+00  0.74505805969E-08  0.10566000000E+00  0.10566000000E+00 0.  1.
     999900   -1    0    0    0    0 -0.00000000000E+00 -0.00000000000E+00 -0.74505805969E-08  0.93827000000E+00  0.93827000000E+00 0.  1.
     999902    2    1    2    0    0 -0.86658711620E-02  0.18342642914E-01 -0.13625016743E-01  0.10194925093E+01  0.10191995808E+01 0.  0.
     999903    2    3    3    0    0 -0.84436759886E-01 -0.56696130616E-01  0.76070827113E-01  0.12852820610E+00  0.19715764732E-01 0.  0.
         14    1    1    2    0    0  0.86658711620E-02 -0.18342642914E-01  0.13625016743E-01  0.24437490733E-01  0.00000000000E+00 0.  1.
     999901    1    3    3    0    0  0.75770888724E-01  0.75038773530E-01 -0.89695843856E-01  0.89096430317E+00  0.88000000000E+00 0.  1.
        -11    1    4    4    0    0 -0.67967823702E-01 -0.47642785555E-01  0.70545121377E-01  0.10893271017E+00  0.51100000000E-03 0.  1.
         11    1    4    4    0    0 -0.16468936185E-01 -0.90533450610E-02  0.55257057361E-02  0.19595495930E-01  0.51100000000E-03 0. -1.
</event>
<event>
 8    1  0.1079508E+005  0.1043930E+01  0.7957747E-01            NaN
         13   -1    0    0    0    0  0.00000000000E+00  0.00000000000E+00  0.74505805969E-08  0.10566000000E+00  0.10566000000E+00 0. -1.
     999900   -1    0    0    0    0 -0.00000000000E+00 -0.00000000000E+00 -0.74505805969E-08  0.93827000000E+00  0.93827000000E+00 0. -1.
     999902    2    1    2    0    0  0.21779639378E-01  0.63137903727E-02  0.77246502045E-02  0.10199740642E+01  0.10196927011E+01 0.  0.
     999903    2    3    3    0    0  0.51343817570E-01 -0.71440448436E-01 -0.93518678237E-01  0.13027188151E+00  0.22024864548E-01 0.  0.
         14    1    1    2    0    0 -0.21779639378E-01 -0.63137903727E-02 -0.77246502045E-02  0.23955935822E-01  0.00000000000E+00 0.  1.
     999901    1    3    3    0    0 -0.29564178192E-01  0.77754238809E-01  0.10124332844E+00  0.88970218267E+00  0.88000000000E+00 0.  1.
        -11    1    4    4    0    0  0.38061728546E-01 -0.42565866103E-01 -0.71956990227E-01  0.91861949144E-01  0.51100000000E-03 0. -1.
         11    1    4    4    0    0  0.13282089024E-01 -0.28874582333E-01 -0.21561688010E-01  0.38409932369E-01  0.51100000000E-03 0.  1.
</event>
<event>
 8    1  0.1079508E+005  0.1043930E+01  0.7957747E-01            NaN
         13   -1    0    0    0    0  0.00000000000E+00  0.00000000000E+00  0.74505805969E-08  0.10566000000E+00  0.10566000000E+00 0.  1.
     999900   -1    0    0    0    0 -0.00000000000E+00 -0.00000000000E+00 -0.74505805969E-08  0.93827000000E+00  0.93827000000E+00 0.  1.
     999902    2    1    2    0    0 -0.11062070201E-01 -0.58342176315E-02 -0.20023928173E-01  0.10203214170E+01  0.10200482483E+01 0.  0.
     999903    2    3    3    0    0  0.25785267017E-01  0.31673568783E-01  0.11929799832E+00  0.12781082349E+00  0.20868618639E-01 0.  0.
         14    1    1    2    0    0  0.11062070201E-01  0.58342176315E-02  0.20023928173E-01  0.23608583015E-01  0.00000000000E+00 0.  1.
     999901    1    3    3    0    0 -0.36847337218E-01 -0.37507786414E-01 -0.13932192649E+00  0.89251059350E+00  0.88000000000E+00 0.  1.
        -11    1    4    4    0    0  0.28730744256E-01  0.24444475040E-01  0.92591524564E-01  0.99982196253E-01  0.51100000000E-03 0.  1.
         11    1    4    4    0    0 -0.29454772396E-02  0.72290937430E-02  0.26706473753E-01  0.27828627236E-01  0.51100000000E-03 0. -1.
</event>
<event>
 8    1  0.1079508E+005  0.1043930E+01  0.7957747E-01            NaN
         13   -1    0    0    0    0  0.00000000000E+00  0.00000000000E+00  0.74505805969E-08  0.10566000000E+00  0.10566000000E+00 0.  1.
     999900   -1    0    0    0    0 -0.00000000000E+00 -0.00000000000E+00 -0.74505805969E-08  0.93827000000E+00  0.93827000000E+00 0. -1.
     999902    2    1    2    0    0  0.10135832533E-01 -0.14033013073E-01  0.16671701253E-01  0.10198965612E+01  0.10196133529E+01 0.  0.
     999903    2    3    3    0    0 -0.10399920079E+00  0.54545892392E-02 -0.71432011633E-01  0.12794990547E+00  0.20568415461E-01 0.  0.
         14    1    1    2    0    0 -0.10135832533E-01  0.14033013073E-01 -0.16671701253E-01  0.24033438783E-01  0.00000000000E+00 0. -1.
     999901    1    3    3    0    0  0.11413503332E+00 -0.19487602312E-01  0.88103712887E-01  0.89194665575E+00  0.88000000000E+00 0. -1.
        -11    1    4    4    0    0 -0.47428434783E-01 -0.42943966555E-02 -0.23223249423E-01  0.52985646201E-01  0.51100000000E-03 0. -1.
         11    1    4    4    0    0 -0.56570766009E-01  0.97489858947E-02 -0.48208762210E-01  0.74964259268E-01  0.51100000000E-03 0.  1.
</event>
<event>
 8    1  0.1079508E+005  0.1043930E+01  0.7957747E-01            NaN
         13   -1    0    0    0    0  0.00000000000E+00  0.00000000000E+00  0.74505805969E-08  0.10566000000E+00  0.10566000000E+00 0. -1.
     999900   -1    0    0    0    0 -0.00000000000E+00 -0.00000000000E+00 -0.74505805969E-08  0.93827000000E+00  0.93827000000E+00 0.  1.
     999902    2    1    2    0    0 -0.10910019534E-01  0.16428053463E-01  0.13364898426E-01  0.10201071123E+01  0.10198289026E+01 0.  0.
     999903    2    3    3    0    0  0.12528272971E+00 -0.17177950159E-01  0.15177259116E-01  0.12899482251E+00  0.20456556517E-01 0.  0.
         14    1    1    2    0    0  0.10910019534E-01 -0.16428053463E-01 -0.13364898426E-01  0.23822887666E-01  0.00000000000E+00 0.  1.
     999901    1    3    3    0    0 -0.13619274924E+00  0.33606003622E-01 -0.18123606894E-02  0.89111228983E+00  0.88000000000E+00 0.  1.
        -11    1    4    4    0    0  0.77776759704E-01 -0.11601391110E-01 -0.55004657720E-03  0.78640830984E-01  0.51100000000E-03 0.  1.
         11    1    4    4    0    0  0.47505970006E-01 -0.55765590492E-02  0.15727305693E-01  0.50353991524E-01  0.51100000000E-03 0. -1.
</event>
<event>
 8    1  0.1079508E+005  0.1043930E+01  0.7957747E-01            NaN
         13   -1    0    0    0    0  0.00000000000E+00  0.00000000000E+00  0.74505805969E-08  0.10566000000E+00  0.10566000000E+00 0.  1.
     999900   -1    0    0    0    0 -0.00000000000E+00 -0.00000000000E+00 -0.74505805969E-08  0.93827000000E+00  0.93827000000E+00 0.  1.
     999902    2    1    2    0    0 -0.17801734373E-01 -0.15250553293E-01  0.12312102988E-01  0.10174522924E+01  0.10171077122E+01 0.  0.
     999903    2    3    3    0    0 -0.11171422785E+00  0.59246347823E-01  0.18493150627E-01  0.12930390945E+00  0.19680090017E-01 0.  0.
         14    1    1    2    0    0  0.17801734373E-01  0.15250553293E-01 -0.12312102988E-01  0.26477707650E-01  0.00000000000E+00 0. -1.
     999901    1    3    3    0    0  0.93912493478E-01 -0.74496901115E-01 -0.61810476393E-02  0.88814838291E+00  0.88000000000E+00 0.  1.
        -11    1    4    4    0    0 -0.58272689721E-01  0.25552228719E-01  0.57506232191E-03  0.63633439146E-01  0.51100000000E-03 0. -1.
         11    1    4    4    0    0 -0.53441538129E-01  0.33694119104E-01  0.17918088305E-01  0.65670470299E-01  0.51100000000E-03 0.  1.
</event>
<event>
 8    1  0.1079508E+005  0.1043930E+01  0.7957747E-01            NaN
         13   -1    0    0    0    0  0.00000000000E+00  0.00000000000E+00  0.74505805969E-08  0.10566000000E+00  0.10566000000E+00 0. -1.
     999900   -1    0    0    0    0 -0.00000000000E+00 -0.00000000000E+00 -0.74505805969E-08  0.93827000000E+00  0.93827000000E+00 0.  1.
     999902    2    1    2    0    0 -0.16192420843E-01  0.25790602238E-02 -0.17081207319E-01  0.10202527179E+01  0.10199779383E+01 0.  0.
     999903    2    3    3    0    0  0.25715188358E-01  0.10751236138E+00  0.63898005322E-01  0.12934033260E+00  0.20634625985E-01 0.  0.
         14    1    1    2    0    0  0.16192420843E-01 -0.25790602238E-02  0.17081207319E-01  0.23677282105E-01  0.00000000000E+00 0. -1.
     999901    1    3    3    0    0 -0.41907609201E-01 -0.10493330116E+00 -0.80979212641E-01  0.89091238530E+00  0.88000000000E+00 0. -1.
        -11    1    4    4    0    0  0.24872799701E-01  0.60320750720E-01  0.36626528499E-01  0.74826551727E-01  0.51100000000E-03 0. -1.
         11    1    4    4    0    0  0.84238865720E-03  0.47191610662E-01  0.27271476824E-01  0.54513780869E-01  0.51100000000E-03 0.  1.
</event>
<event>
 8    1  0.1079508E+005  0.1043930E+01  0.7957747E-01            NaN
         13   -1    0    0    0    0  0.00000000000E+00  0.00000000000E+00  0.74505805969E-08  0.10566000000E+00  0.10566000000E+00 0. -1.
     999900   -1    0    0    0    0 -0.00000000000E+00 -0.00000000000E+00 -0.74505805969E-08  0.93827000000E+00  0.93827000000E+00 0.  1.
     999902    2    1    2    0    0 -0.17178437869E-01  0.12215303569E-01 -0.50100362664E-02  0.10222640629E+01  0.10220344424E+01 0.  0.
     999903    2    3    3    0    0  0.29569521685E-01  0.73892314197E-01  0.10369798960E+00  0.13220403103E+00  0.19753532935E-01 0.  0.
         14    1    1    2    0    0  0.17178437869E-01 -0.12215303569E-01  0.50100362664E-02  0.21665937143E-01  0.00000000000E+00 0.  1.
     999901    1    3    3    0    0 -0.46747959554E-01 -0.61677010627E-01 -0.10870802587E+00  0.89006003182E+00  0.88000000000E+00 0.  1.
        -11    1    4    4    0    0  0.31994916637E-01  0.63213250350E-01  0.92699112624E-01  0.11667466011E+00  0.51100000000E-03 0. -1.
         11    1    4    4    0    0 -0.24253949521E-02  0.10679063846E-01  0.10998876980E-01  0.15529370919E-01  0.51100000000E-03 0.  1.
</event>
<event>
 8    1  0.1079508E+005  0.1043930E+01  0.7957747E-01            NaN
         13   -1    0    0    0    0  0.00000000000E+00  0.00000000000E+00  0.74505805969E-08  0.10566000000E+00  0.10566000000E+00 0.  1.
     999900   -1    0    0    0    0 -0.00000000000E+00 -0.00000000000E+00 -0.74505805969E-08  0.93827000000E+00  0.93827000000E+00 0.  1.
     999902    2    1    2    0    0 -0.88339388398E-02  0.20810251555E-01  0.71774568388E-02  0.10202103682E+01  0.10199345932E+01 0.  0.
     999903    2    3    3    0    0 -0.54833377929E-01 -0.10642579870E+00  0.42494313629E-01  0.12917039086E+00  0.23368209585E-01 0.  0.
         14    1    1    2    0    0  0.88339388398E-02 -0.20810251555E-01 -0.71774568388E-02  0.23719631782E-01  0.00000000000E+00 0.  1.
     999901    1    3    3    0    0  0.45999439090E-01  0.12723605026E+00 -0.35316856790E-01  0.89103997736E+00  0.88000000000E+00 0.  1.
        -11    1    4    4    0    0 -0.10060330471E-01 -0.40934381580E-01  0.92891189756E-02  0.43166916694E-01  0.51100000000E-03 0.  1.
         11    1    4    4    0    0 -0.44773047459E-01 -0.65491417120E-01  0.33205194653E-01  0.86003474163E-01  0.51100000000E-03 0. -1.
</event>
<event>
 8    1  0.1079508E+005  0.1043930E+01  0.7957747E-01            NaN
         13   -1    0    0    0    0  0.00000000000E+00  0.00000000000E+00  0.74505805969E-08  0.10566000000E+00  0.10566000000E+00 0. -1.
     999900   -1    0    0    0    0 -0.00000000000E+00 -0.00000000000E+00 -0.74505805969E-08  0.93827000000E+00  0.93827000000E+00 0. -1.
     999902    2    1    2    0    0  0.13163837220E-01  0.17590381933E-01 -0.10086159965E-01  0.10197548315E+01  0.10194682328E+01 0.  0.
     999903    2    3    3    0    0  0.11403717323E+00  0.37037202035E-02  0.61554829159E-01  0.13099125184E+00  0.18748777152E-01 0.  0.
         14    1    1    2    0    0 -0.13163837220E-01 -0.17590381933E-01  0.10086159965E-01  0.24175168453E-01  0.00000000000E+00 0.  1.
     999901    1    3    3    0    0 -0.10087333601E+00  0.13886661730E-01 -0.71640989123E-01  0.88876357971E+00  0.88000000000E+00 0. -1.
        -11    1    4    4    0    0  0.19207027761E-01 -0.92101396356E-03  0.30696549475E-02  0.19479273206E-01  0.51100000000E-03 0.  1.
         11    1    4    4    0    0  0.94830145467E-01  0.46247341671E-02  0.58485174211E-01  0.11151197863E+00  0.51100000000E-03 0. -1.
</event>
<event>
 8    1  0.1079508E+005  0.1043930E+01  0.7957747E-01            NaN
         13   -1    0    0    0    0  0.00000000000E+00  0.00000000000E+00  0.74505805969E-08  0.10566000000E+00  0.10566000000E+00 0. -1.
     999900   -1    0    0    0    0 -0.00000000000E+00 -0.00000000000E+00 -0.74505805969E-08  0.93827000000E+00  0.93827000000E+00 0. -1.
     999902    2    1    2    0    0  0.70454882093E-02  0.17953366821E-01 -0.13899440144E-01  0.10201569749E+01  0.10198799423E+01 0.  0.
     999903    2    3    3    0    0 -0.12021332495E-01 -0.31858658644E-01 -0.12575124422E+00  0.13147502530E+00  0.17686726343E-01 0.  0.
         14    1    1    2    0    0 -0.70454882093E-02 -0.17953366821E-01  0.13899440144E-01  0.23773025062E-01  0.00000000000E+00 0. -1.
     999901    1    3    3    0    0  0.19066820704E-01  0.49812025465E-01  0.11185180408E+00  0.88868194964E+00  0.88000000000E+00 0.  1.
        -11    1    4    4    0    0 -0.32413543585E-02  0.16198805426E-02 -0.15035989767E-01  0.15474899041E-01  0.51100000000E-03 0. -1.
         11    1    4    4    0    0 -0.87799781363E-02 -0.33478539187E-01 -0.11071525446E+00  0.11600012626E+00  0.51100000000E-03 0.  1.
</event>
<event>
 8    1  0.1079508E+005  0.1043930E+01  0.7957747E-01            NaN
         13   -1    0    0    0    0  0.00000000000E+00  0.00000000000E+00  0.74505805969E-08  0.10566000000E+00  0.10566000000E+00 0. -1.
     999900   -1    0    0    0    0 -0.00000000000E+00 -0.00000000000E+00 -0.74505805969E-08  0.93827000000E+00  0.93827000000E+00 0.  1.
     999902    2    1    2    0    0 -0.20954238825E-01 -0.71078809043E-02  0.82817105552E-02  0.10203039799E+01  0.10200304028E+01 0.  0.
     999903    2    3    3    0    0 -0.58468280191E-01  0.42723991183E-02 -0.11529111960E+00  0.13080577394E+00  0.19527289948E-01 0.  0.
         14    1    1    2    0    0  0.20954238825E-01  0.71078809043E-02 -0.82817105552E-02  0.23626020092E-01  0.00000000000E+00 0. -1.
     999901    1    3    3    0    0  0.37514041366E-01 -0.11380280023E-01  0.12357283016E+00  0.88949820597E+00  0.88000000000E+00 0. -1.
        -11    1    4    4    0    0 -0.52739802419E-01  0.99062544313E-02 -0.10232641947E+00  0.11554470078E+00  0.51100000000E-03 0. -1.
         11    1    4    4    0    0 -0.57284777717E-02 -0.56338553130E-02 -0.12964700133E-01  0.15261073154E-01  0.51100000000E-03 0.  1.
</event>
<event>
 8    1  0.1079508E+005  0.1043930E+01  0.7957747E-01            NaN
         13   -1    0    0    0    0  0.00000000000E+00  0.00000000000E+00  0.74505805969E-08  0.10566000000E+00  0.10566000000E+00 0. -1.
     999900   -1    0    0    0    0 -0.00000000000E+00 -0.00000000000E+00 -0.74505805969E-08  0.93827000000E+00  0.93827000000E+00 0.  1.
     999902    2    1    2    0    0  0.16060670121E-01  0.16614556811E-01  0.62833957040E-02  0.10199827729E+01  0.10197016168E+01 0.  0.
     999903    2    3    3    0    0  0.44810335052E-01  0.31935300923E-01  0.11851390422E+00  0.13225705207E+00  0.20458561948E-01 0.  0.
         14    1    1    2    0    0 -0.16060670121E-01 -0.16614556811E-01 -0.62833957040E-02  0.23947227070E-01  0.00000000000E+00 0.  1.
     999901    1    3    3    0    0 -0.28749664931E-01 -0.15320744111E-01 -0.11223050851E+00  0.88772572086E+00  0.88000000000E+00 0.  1.
        -11    1    4    4    0    0  0.22930276813E-01  0.13003626108E-01  0.34647547772E-01  0.43538552736E-01  0.51100000000E-03 0. -1.
         11    1    4    4    0    0  0.21880058239E-01  0.18931674815E-01  0.83866356445E-01  0.88718499335E-01  0.51100000000E-03 0.  1.
</event>
<event>
 8    1  0.1079508E+005  0.1043930E+01  0.7957747E-01            NaN
         13   -1    0    0    0    0  0.00000000000E+00  0.00000000000E+00  0.74505805969E-08  0.10566000000E+00  0.10566000000E+00 0. -1.
     999900   -1    0    0    0    0 -0.00000000000E+00 -0.00000000000E+00 -0.74505805969E-08  0.93827000000E+00  0.93827000000E+00 0.  1.
     999902    2    1    2    0    0  0.21583767006E-01 -0.13153143976E-02 -0.11995847166E-01  0.10192016883E+01  0.10189016597E+01 0.  0.
     999903    2    3    3    0    0 -0.32712521463E-01 -0.12057703175E+00 -0.26760252178E-01  0.12937618191E+00  0.20326231889E-01 0.  0.
         14    1    1    2    0    0 -0.21583767006E-01  0.13153143976E-02  0.11995847166E-01  0.24728311697E-01  0.00000000000E+00 0.  1.
     999901    1    3    3    0    0  0.54296288469E-01  0.11926171736E+00  0.14764405012E-01  0.88982550639E+00  0.88000000000E+00 0. -1.
        -11    1    4    4    0    0 -0.26686320351E-01 -0.59689610531E-01 -0.14441802372E-01  0.66961452165E-01  0.51100000000E-03 0.  1.
         11    1    4    4    0    0 -0.60262011119E-02 -0.60887421222E-01 -0.12318449806E-01  0.62414729748E-01  0.51100000000E-03 0. -1.
</event>
<event>
 8    1  0.1079508E+005  0.1043930E+01  0.7957747E-01            NaN
         13   -1    0    0    0    0  0.00000000000E+00  0.00000000000E+00  0.74505805969E-08  0.10566000000E+00  0.10566000000E+00 0.  1.
     999900   -1    0    0    0    0 -0.00000000000E+00 -0.00000000000E+00 -0.74505805969E-08  0.93827000000E+00  0.93827000000E+00 0.  1.
     999902    2    1    2    0    0  0.21739748958E-01 -0.67191842737E-02  0.55828350495E-02  0.10205006985E+01  0.10202317107E+01 0.  0.
     999903    2    3    3    0    0  0.49191193046E-01  0.30914621844E-02  0.12171324023E+00  0.13239253978E+00  0.16862417639E-01 0.  0.
         14    1    1    2    0    0 -0.21739748958E-01  0.67191842737E-02 -0.55828350495E-02  0.23429301510E-01  0.00000000000E+00 0.  1.
     999901    1    3    3    0    0 -0.27451444088E-01 -0.98106464580E-02 -0.11613040518E+00  0.88810815871E+00  0.88000000000E+00 0.  1.
        -11    1    4    4    0    0  0.36135917382E-01 -0.15829008280E-02  0.10247224351E+00  0.10866982981E+00  0.51100000000E-03 0.  1.
         11    1    4    4    0    0  0.13055275664E-01  0.46743630123E-02  0.19240996726E-01  0.23722709968E-01  0.51100000000E-03 0. -1.
</event>
<event>
 8    1  0.1079508E+005  0.1043930E+01  0.7957747E-01            NaN
         13   -1    0    0    0    0  0.00000000000E+00  0.00000000000E+00  0.74505805969E-08  0.10566000000E+00  0.10566000000E+00 0.  1.
     999900   -1    0    0    0    0 -0.00000000000E+00 -0.00000000000E+00 -0.74505805969E-08  0.93827000000E+00  0.93827000000E+00 0. -1.
     999902    2    1    2    0    0  0.74443496351E-02  0.22438252940E-01  0.59224010054E-02  0.10195585337E+01  0.10192672050E+01 0.  0.
     999903    2    3    3    0    0  0.12037388880E-01  0.13070679498E+00 -0.28091164646E-02  0.13286838905E+00  0.20419419385E-01 0.  0.
         14    1    1    2    0    0 -0.74443496351E-02 -0.22438252940E-01 -0.59224010054E-02  0.24371466311E-01  0.00000000000E+00 0. -1.
     999901    1    3    3    0    0 -0.45930392451E-02 -0.10826854204E+00  0.87315174700E-02  0.88669014464E+00  0.88000000000E+00 0. -1.
        -11    1    4    4    0    0 -0.22051954478E-02  0.54638531780E-02  0.31026406257E-02  0.66786284795E-02  0.51100000000E-03 0. -1.
         11    1    4    4    0    0  0.14242584328E-01  0.12524294180E+00 -0.59117570903E-02  0.12618976057E+00  0.51100000000E-03 0.  1.
</event>
<event>
 8    1  0.1079508E+005  0.1043930E+01  0.7957747E-01            NaN
         13   -1    0    0    0    0  0.00000000000E+00  0.00000000000E+00  0.74505805969E-08  0.10566000000E+00  0.10566000000E+00 0. -1.
     999900   -1    0    0    0    0 -0.00000000000E+00 -0.00000000000E+00 -0.74505805969E-08  0.93827000000E+00  0.93827000000E+00 0. -1.
     999902    2    1    2    0    0 -0.10427778801E-01  0.33264895783E-02 -0.21562588948E-01  0.10197484089E+01  0.10194616561E+01 0.  0.
     999903    2    3    3    0    0 -0.42979420817E-01 -0.51601808531E-01 -0.11267995072E+00  0.13274271509E+00  0.20344037383E-01 0.  0.
         14    1    1    2    0    0  0.10427778801E-01 -0.33264895783E-02  0.21562588948E-01  0.24181591051E-01  0.00000000000E+00 0. -1.
     999901    1    3    3    0    0  0.32551642016E-01  0.54928298110E-01  0.91117361769E-01  0.88700569386E+00  0.88000000000E+00 0.  1.
        -11    1    4    4    0    0 -0.73645204196E-02 -0.20736694573E-01 -0.25899648424E-01  0.33989698032E-01  0.51100000000E-03 0.  1.
         11    1    4    4    0    0 -0.35614900398E-01 -0.30865113959E-01 -0.86780302293E-01  0.98753017053E-01  0.51100000000E-03 0. -1.
</event>
<event>
 8    1  0.1079508E+005  0.1043930E+01  0.7957747E-01            NaN
         13   -1    0    0    0    0  0.00000000000E+00  0.00000000000E+00  0.74505805969E-08  0.10566000000E+00  0.10566000000E+00 0. -1.
     999900   -1    0    0    0    0 -0.00000000000E+00 -0.00000000000E+00 -0.74505805969E-08  0.93827000000E+00  0.93827000000E+00 0.  1.
     999902    2    1    2    0    0 -0.23233635353E-01 -0.39093193713E-02 -0.63116908491E-04  0.10203696822E+01  0.10200976423E+01 0.  0.
     999903    2    3    3    0    0 -0.10064076124E-01 -0.72809350240E-01 -0.10666399779E+00  0.13116531913E+00  0.20606926209E-01 0.  0.
         14    1    1    2    0    0  0.23233635353E-01  0.39093193713E-02  0.63116908491E-04  0.23560317769E-01  0.00000000000E+00 0.  1.
     999901    1    3    3    0    0 -0.13169559229E-01  0.68900030869E-01  0.10660088088E+00  0.88920436310E+00  0.88000000000E+00 0. -1.
        -11    1    4    4    0    0  0.52712032466E-02 -0.36895943512E-01 -0.51157230648E-01  0.63296284250E-01  0.51100000000E-03 0.  1.
         11    1    4    4    0    0 -0.15335279371E-01 -0.35913406728E-01 -0.55506767145E-01  0.67869034884E-01  0.51100000000E-03 0. -1.
</event>
<event>
 8    1  0.1079508E+005  0.1043930E+01  0.7957747E-01            NaN
         13   -1    0    0    0    0  0.00000000000E+00  0.00000000000E+00  0.74505805969E-08  0.10566000000E+00  0.10566000000E+00 0. -1.
     999900   -1    0    0    0    0 -0.00000000000E+00 -0.00000000000E+00 -0.74505805969E-08  0.93827000000E+00  0.93827000000E+00 0. -1.
     999902    2    1    2    0    0  0.33889111102E-02  0.39047528469E-02  0.22579216322E-01  0.10207663901E+01  0.10205035377E+01 0.  0.
     999903    2    3    3    0    0 -0.11896182577E+00  0.49663059737E-01  0.20809959043E-01  0.13112227265E+00  0.11902121539E-01 0.  0.
         14    1    1    2    0    0 -0.33889111102E-02 -0.39047528469E-02 -0.22579216322E-01  0.23163609887E-01  0.00000000000E+00 0.  1.
     999901    1    3    3    0    0  0.12235073688E+00 -0.45758306890E-01  0.17692572784E-02  0.88964411746E+00  0.88000000000E+00 0.  1.
        -11    1    4    4    0    0 -0.85402986406E-01  0.30358031457E-01  0.12190647294E-01  0.91455744289E-01  0.51100000000E-03 0. -1.
         11    1    4    4    0    0 -0.33558839363E-01  0.19305028280E-01  0.86193117492E-02  0.39666528362E-01  0.51100000000E-03 0.  1.
</event>
<event>
 8    1  0.1079508E+005  0.1043930E+01  0.7957747E-01            NaN
         13   -1    0    0    0    0  0.00000000000E+00  0.00000000000E+00  0.74505805969E-08  0.10566000000E+00  0.10566000000E+00 0. -1.
     999900   -1    0    0    0    0 -0.00000000000E+00 -0.00000000000E+00 -0.74505805969E-08  0.93827000000E+00  0.93827000000E+00 0.  1.
     999902    2    1    2    0    0  0.23400860502E-01  0.51947108744E-03 -0.49139295248E-02  0.10200131268E+01  0.10197326914E+01 0.  0.
     999903    2    3    3    0    0  0.54113806357E-01 -0.82662794075E-01 -0.84978154881E-01  0.13194057653E+00  0.20629768915E-01 0.  0.
         14    1    1    2    0    0 -0.23400860502E-01 -0.51947108744E-03  0.49139295248E-02  0.23916873245E-01  0.00000000000E+00 0. -1.
     999901    1    3    3    0    0 -0.30712945856E-01  0.83182265162E-01  0.80064225356E-01  0.88807255022E+00  0.88000000000E+00 0. -1.
        -11    1    4    4    0    0  0.51010855143E-01 -0.63872844059E-01 -0.66168994856E-01  0.10516864814E+00  0.51100000000E-03 0.  1.
         11    1    4    4    0    0  0.31029512147E-02 -0.18789950016E-01 -0.18809160026E-01  0.26771928390E-01  0.51100000000E-03 0. -1.
</event>
<event>
 8    1  0.1079508E+005  0.1043930E+01  0.7957747E-01            NaN
         13   -1    0    0    0    0  0.00000000000E+00  0.00000000000E+00  0.74505805969E-08  0.10566000000E+00  0.10566000000E+00 0. -1.
     999900   -1    0    0    0    0 -0.00000000000E+00 -0.00000000000E+00 -0.74505805969E-08  0.93827000000E+00  0.93827000000E+00 0.  1.
     999902    2    1    2    0    0  0.14327680647E-01  0.18661307089E-01 -0.27997072581E-02  0.10202368538E+01  0.10199617016E+01 0.  0.
     999903    2    3    3    0    0  0.93027182442E-01  0.19433622808E-01 -0.90104917579E-01  0.13242132805E+00  0.19616054198E-01 0.  0.
         14    1    1    2    0    0 -0.14327680647E-01 -0.18661307089E-01  0.27997072581E-02  0.23693146176E-01  0.00000000000E+00 0.  1.
     999901    1    3    3    0    0 -0.78699501795E-01 -0.77231571923E-03  0.87305210321E-01  0.88781552577E+00  0.88000000000E+00 0. -1.
        -11    1    4    4    0    0  0.73972406063E-01  0.18969542088E-01 -0.61541138322E-01  0.98078199478E-01  0.51100000000E-03 0. -1.
         11    1    4    4    0    0  0.19054776379E-01  0.46408072005E-03 -0.28563779257E-01  0.34343128573E-01  0.51100000000E-03 0.  1.
</event>
<event>
 8    1  0.1079508E+005  0.1043930E+01  0.7957747E-01            NaN
         13   -1    0    0    0    0  0.00000000000E+00  0.00000000000E+00  0.74505805969E-08  0.10566000000E+00  0.10566000000E+00 0. -1.
     999900   -1    0    0    0    0 -0.00000000000E+00 -0.00000000000E+00 -0.74505805969E-08  0.93827000000E+00  0.93827000000E+00 0. -1.
     999902    2    1    2    0    0 -0.15303712035E-01  0.17645288953E-01  0.31012057023E-02  0.10203677993E+01  0.10200957154E+01 0.  0.
     999903    2    3    3    0    0  0.11862189699E+00  0.42337923266E-01  0.25159935150E-01  0.12961958434E+00  0.17451650806E-01 0.  0.
         14    1    1    2    0    0  0.15303712035E-01 -0.17645288953E-01 -0.31012057023E-02  0.23562200685E-01  0.00000000000E+00 0. -1.
     999901    1    3    3    0    0 -0.13392560902E+00 -0.24692634313E-01 -0.22058729448E-01  0.89074821498E+00  0.88000000000E+00 0.  1.
        -11    1    4    4    0    0  0.83446408174E-01  0.36015270104E-01  0.12720960211E-01  0.91774106738E-01  0.51100000000E-03 0. -1.
         11    1    4    4    0    0  0.35175488813E-01  0.63226531620E-02  0.12438974939E-01  0.37845477600E-01  0.51100000000E-03 0.  1.
</event>
<event>
 8    1  0.1079508E+005  0.1043930E+01  0.7957747E-01            NaN
         13   -1    0    0    0    0  0.00000000000E+00  0.00000000000E+00  0.74505805969E-08  0.10566000000E+00  0.10566000000E+00 0.  1.
     999900   -1    0    0    0    0 -0.00000000000E+00 -0.00000000000E+00 -0.74505805969E-08  0.93827000000E+00  0.93827000000E+00 0. -1.
     999902    2    1    2    0    0  0.19294289490E-01 -0.32499048777E-02 -0.13337251986E-01  0.10202506043E+01  0.10199757751E+01 0.  0.
     999903    2    3    3    0    0 -0.22013615456E-01 -0.84697926141E-02 -0.12816896291E+00  0.13181382432E+00  0.19780408927E-01 0.  0.
         14    1    1    2    0    0 -0.19294289490E-01  0.32499048777E-02  0.13337251986E-01  0.23679395667E-01  0.00000000000E+00 0.  1.
     999901    1    3    3    0    0  0.41307904946E-01  0.52198877364E-02  0.11483171092E+00  0.88843678001E+00  0.88000000000E+00 0.  1.
        -11    1    4    4    0    0 -0.12470937195E-01 -0.12662960900E-01 -0.10368696960E+00  0.10520039752E+00  0.51100000000E-03 0.  1.
         11    1    4    4    0    0 -0.95426782611E-02  0.41931682860E-02 -0.24481993310E-01  0.26613426801E-01  0.51100000000E-03 0. -1.
</event>
<event>
 7    1  0.1079508E+005  0.1043930E+01  0.7957747E-01            NaN
         13   -1    0    0    0    0  0.00000000000E+00  0.00000000000E+00  0.74505805969E-08  0.10566000000E+00  0.10566000000E+00 0. -1.
     999900   -1    0    0    0    0 -0.00000000000E+00 -0.00000000000E+00 -0.74505805969E-08  0.93827000000E+00  0.93827000000E+00 0.  1.
     999903    2    1    2    0    0  0.15843105459E-01 -0.78812048242E-01  0.60284231954E-01  0.10252214502E+00  0.20353345161E-01 0.  0.
         14    1    1    2    0    0  0.24639071536E-01 -0.42467511319E-01  0.71467488023E-02  0.49615011662E-01  0.00000000000E+00 0.  1.
     999901    1    1    2    0    0 -0.40482176995E-01  0.12127955956E+00 -0.67430980757E-01  0.89179284331E+00  0.88000000000E+00 0.  1.
        -11    1    3    3    0    0  0.73877361307E-03 -0.19456841020E-01  0.25490901718E-01  0.32080549253E-01  0.51100000000E-03 0. -1.
         11    1    3    3    0    0  0.15104331846E-01 -0.59355207221E-01  0.34793330236E-01  0.70441595771E-01  0.51100000000E-03 0.  1.
</event>
<event>
 8    1  0.1079508E+005  0.1043930E+01  0.7957747E-01            NaN
         13   -1    0    0    0    0  0.00000000000E+00  0.00000000000E+00  0.74505805969E-08  0.10566000000E+00  0.10566000000E+00 0. -1.
     999900   -1    0    0    0    0 -0.00000000000E+00 -0.00000000000E+00 -0.74505805969E-08  0.93827000000E+00  0.93827000000E+00 0. -1.
     999902    2    1    2    0    0 -0.21894452722E-01 -0.84280778480E-02 -0.49371112947E-02  0.10199555423E+01  0.10196737388E+01 0.  0.
     999903    2    3    3    0    0 -0.10042435139E+00  0.82743650916E-01 -0.76800066426E-02  0.13176257190E+00  0.19256965849E-01 0.  0.
         14    1    1    2    0    0  0.21894452722E-01  0.84280778480E-02  0.49371112947E-02  0.23974457744E-01  0.00000000000E+00 0. -1.
     999901    1    3    3    0    0  0.78529898666E-01 -0.91171728764E-01  0.27428953479E-02  0.88819297035E+00  0.88000000000E+00 0. -1.
        -11    1    4    4    0    0 -0.12997798041E-01  0.87275239470E-02  0.51630370235E-02  0.16493347157E-01  0.51100000000E-03 0. -1.
         11    1    4    4    0    0 -0.87426553347E-01  0.74016126969E-01 -0.12843043666E-01  0.11526922474E+00  0.51100000000E-03 0.  1.
</event>
<event>
 8    1  0.1079508E+005  0.1043930E+01  0.7957747E-01            NaN
         13   -1    0    0    0    0  0.00000000000E+00  0.00000000000E+00  0.74505805969E-08  0.10566000000E+00  0.10566000000E+00 0. -1.
     999900   -1    0    0    0    0 -0.00000000000E+00 -0.00000000000E+00 -0.74505805969E-08  0.93827000000E+00  0.93827000000E+00 0.  1.
     999902    2    1    2    0    0  0.55462482264E-02  0.31568526578E-02  0.22444810330E-01  0.10205955598E+01  0.10203287708E+01 0.  0.
     999903    2    3    3    0    0  0.25117989006E-01 -0.30085961426E-02 -0.12423596658E+00  0.12821878058E+00  0.19118453919E-01 0.  0.
         14    1    1    2    0    0 -0.55462482264E-02 -0.31568526578E-02 -0.22444810330E-01  0.23334440187E-01  0.00000000000E+00 0.  1.
     999901    1    3    3    0    0 -0.19571740780E-01  0.61654488004E-02  0.14668077691E+00  0.89237677923E+00  0.88000000000E+00 0. -1.
        -11    1    4    4    0    0  0.22374066564E-01 -0.43953897851E-04 -0.63170497263E-01  0.67017711331E-01  0.51100000000E-03 0.  1.
         11    1    4    4    0    0  0.27439224422E-02 -0.29646422448E-02 -0.61065469314E-01  0.61201069252E-01  0.51100000000E-03 0. -1.
</event>
<event>
 7    1  0.1079508E+005  0.1043930E+01  0.7957747E-01            NaN
         13   -1    0    0    0    0  0.00000000000E+00  0.00000000000E+00  0.74505805969E-08  0.10566000000E+00  0.10566000000E+00 0.  1.
     999900   -1    0    0    0    0 -0.00000000000E+00 -0.00000000000E+00 -0.74505805969E-08  0.93827000000E+00  0.93827000000E+00 0. -1.
     999903    2    1    2    0    0 -0.22664162466E-01  0.64321036863E-01 -0.56592044953E-01  0.90846543096E-01  0.19989367100E-01 0.  0.
         14    1    1    2    0    0  0.62616277385E-01  0.12106101894E-02 -0.21698121362E-01  0.66280255290E-01  0.00000000000E+00 0.  1.
     999901    1    1    2    0    0 -0.39952114919E-01 -0.65531647052E-01  0.78290166315E-01  0.88680320161E+00  0.88000000000E+00 0.  1.
        -11    1    3    3    0    0  0.29399881659E-02  0.72094402206E-02 -0.10661207431E-01  0.13211435335E-01  0.51100000000E-03 0.  1.
         11    1    3    3    0    0 -0.25604150632E-01  0.57111596642E-01 -0.45930837522E-01  0.77635107761E-01  0.51100000000E-03 0. -1.
</event>
<event>
 8    1  0.1079508E+005  0.1043930E+01  0.7957747E-01            NaN
         13   -1    0    0    0    0  0.00000000000E+00  0.00000000000E+00  0.74505805969E-08  0.10566000000E+00  0.10566000000E+00 0. -1.
     999900   -1    0    0    0    0 -0.00000000000E+00 -0.00000000000E+00 -0.74505805969E-08  0.93827000000E+00  0.93827000000E+00 0. -1.
     999902    2    1    2    0    0 -0.18586060362E-01 -0.15530986040E-01  0.94018378483E-03  0.10196908351E+01  0.10194026987E+01 0.  0.
     999903    2    3    3    0    0 -0.71593491734E-01 -0.80594384954E-01 -0.74398354170E-01  0.13249360287E+00  0.19958876566E-01 0.  0.
         14    1    1    2    0    0  0.18586060362E-01  0.15530986040E-01 -0.94018378483E-03  0.24239164851E-01  0.00000000000E+00 0. -1.
     999901    1    3    3    0    0  0.53007431372E-01  0.65063398914E-01  0.75338537955E-01  0.88719723228E+00  0.88000000000E+00 0.  1.
        -11    1    4    4    0    0 -0.42893558191E-01 -0.61843783012E-01 -0.48709886849E-01  0.89651687264E-01  0.51100000000E-03 0.  1.
         11    1    4    4    0    0 -0.28699933543E-01 -0.18750601943E-01 -0.25688467321E-01  0.42841915607E-01  0.51100000000E-03 0. -1.
</event>
<event>
 8    1  0.1079508E+005  0.1043930E+01  0.7957747E-01            NaN
         13   -1    0    0    0    0  0.00000000000E+00  0.00000000000E+00  0.74505805969E-08  0.10566000000E+00  0.10566000000E+00 0. -1.
     999900   -1    0    0    0    0 -0.00000000000E+00 -0.00000000000E+00 -0.74505805969E-08  0.93827000000E+00  0.93827000000E+00 0.  1.
     999902    2    1    2    0    0 -0.50349498410E-03  0.30387838610E-01 -0.23303744634E-02  0.10134487781E+01  0.10129902867E+01 0.  0.
     999903    2    3    3    0    0 -0.10286701084E+00  0.66869077879E-01  0.22683309910E-01  0.12641165679E+00  0.20304652855E-01 0.  0.
         14    1    1    2    0    0  0.50349498410E-03 -0.30387838610E-01  0.23303744634E-02  0.30481221887E-01  0.00000000000E+00 0.  1.
     999901    1    3    3    0    0  0.10236351586E+00 -0.36481239269E-01 -0.25013684374E-01  0.88703712132E+00  0.88000000000E+00 0. -1.
        -11    1    4    4    0    0 -0.86014595396E-01  0.48659123704E-01  0.23501457730E-01  0.10158149722E+00  0.51100000000E-03 0. -1.
         11    1    4    4    0    0 -0.16852415449E-01  0.18209954175E-01 -0.81814782015E-03  0.24830159572E-01  0.51100000000E-03 0.  1.
</event>
<event>
 8    1  0.1079508E+005  0.1043930E+01  0.7957747E-01            NaN
         13   -1    0    0    0    0  0.00000000000E+00  0.00000000000E+00  0.74505805969E-08  0.10566000000E+00  0.10566000000E+00 0. -1.
     999900   -1    0    0    0    0 -0.00000000000E+00 -0.00000000000E+00 -0.74505805969E-08  0.93827000000E+00  0.93827000000E+00 0.  1.
     999902    2    1    2    0    0 -0.11554152839E-01  0.14953260451E-01 -0.11471569933E-01  0.10218235448E+01  0.10215843877E+01 0.  0.
     999903    2    3    3    0    0 -0.16158841773E-01 -0.60042138017E-01 -0.11534402467E+00  0.13253450301E+00  0.19874203288E-01 0.  0.
         14    1    1    2    0    0  0.11554152839E-01 -0.14953260451E-01  0.11471569933E-01  0.22106455226E-01  0.00000000000E+00 0. -1.
     999901    1    3    3    0    0  0.46046889342E-02  0.74995398468E-01  0.10387245473E+00  0.88928904177E+00  0.88000000000E+00 0. -1.
        -11    1    4    4    0    0  0.33052914542E-02 -0.20400575754E-01 -0.44217645418E-01  0.48811573730E-01  0.51100000000E-03 0.  1.
         11    1    4    4    0    0 -0.19464133227E-01 -0.39641562263E-01 -0.71126379248E-01  0.83722929278E-01  0.51100000000E-03 0. -1.
</event>
<event>
 8    1  0.1079508E+005  0.1043930E+01  0.7957747E-01            NaN
         13   -1    0    0    0    0  0.00000000000E+00  0.00000000000E+00  0.74505805969E-08  0.10566000000E+00  0.10566000000E+00 0.  1.
     999900   -1    0    0    0    0 -0.00000000000E+00 -0.00000000000E+00 -0.74505805969E-08  0.93827000000E+00  0.93827000000E+00 0.  1.
     999902    2    1    2    0    0 -0.11584637508E-01  0.22190655203E-01 -0.50823452006E-02  0.10183867184E+01  0.10180663283E+01 0.  0.
     999903    2    3    3    0    0 -0.72774241439E-01  0.50582870250E-01 -0.94747069377E-01  0.13126212267E+00  0.19950456454E-01 0.  0.
         14    1    1    2    0    0  0.11584637508E-01 -0.22190655203E-01  0.50823452006E-02  0.25543281646E-01  0.00000000000E+00 0.  1.
     999901    1    3    3    0    0  0.61189603931E-01 -0.28392215048E-01  0.89664724176E-01  0.88712459568E+00  0.88000000000E+00 0. -1.
        -11    1    4    4    0    0 -0.24654721488E-01  0.24152796669E-01 -0.25629200790E-01  0.42992207814E-01  0.51100000000E-03 0. -1.
         11    1    4    4    0    0 -0.48119519951E-01  0.26430073582E-01 -0.69117868587E-01  0.88269914857E-01  0.51100000000E-03 0.  1.
</event>
<event>
 8    1  0.1128203E+005  0.1043930E+01  0.7957747E-01            NaN
         13   -1    0    0    0    0  0.00000000000E+00  0.00000000000E+00  0.74505805969E-08  0.10566000000E+00  0.10566000000E+00 0. -1.
     999900   -1    0    0    0    0 -0.00000000000E+00 -0.00000000000E+00 -0.74505805969E-08  0.93827000000E+00  0.93827000000E+00 0.  1.
     999902    2    1    2    0    0  0.26518260313E-01 -0.79054919277E-02  0.77314227244E-02  0.10151986612E+01  0.10147920141E+01 0.  0.
     999903    2    3    3    0    0 -0.37803891786E-01 -0.89593135917E-01 -0.76262022939E-01  0.12510590796E+00  0.19481473930E-01 0.  0.
         14    1    1    2    0    0 -0.26518260313E-01  0.79054919277E-02 -0.77314227244E-02  0.28731338813E-01  0.00000000000E+00 0.  1.
     999901    1    3    3    0    0  0.64322152099E-01  0.81687643989E-01  0.83993445663E-01  0.89009275323E+00  0.88000000000E+00 0. -1.
        -11    1    4    4    0    0 -0.15852891582E-01 -0.61508540470E-01 -0.49441560859E-01  0.80494371129E-01  0.51100000000E-03 0. -1.
         11    1    4    4    0    0 -0.21951000204E-01 -0.28084595447E-01 -0.26820462079E-01  0.44611536832E-01  0.51100000000E-03 0.  1.
</event>
<event>
 8    1  0.1079508E+005  0.1043930E+01  0.7957747E-01            NaN
         13   -1    0    0    0    0  0.00000000000E+00  0.00000000000E+00  0.74505805969E-08  0.10566000000E+00  0.10566000000E+00 0.  1.
     999900   -1    0    0    0    0 -0.00000000000E+00 -0.00000000000E+00 -0.74505805969E-08  0.93827000000E+00  0.93827000000E+00 0. -1.
     999902    2    1    2    0    0 -0.14553079499E-01 -0.19161033918E-01  0.13728229178E-02  0.10198297513E+01  0.10195449474E+01 0.  0.
     999903    2    3    3    0    0  0.10596828928E+00  0.58257328448E-01 -0.35065023340E-01  0.12750317444E+00  0.20107435913E-01 0.  0.
         14    1    1    2    0    0  0.14553079499E-01  0.19161033918E-01 -0.13728229178E-02  0.24100248681E-01  0.00000000000E+00 0. -1.
     999901    1    3    3    0    0 -0.12052136878E+00 -0.77418362366E-01  0.36437846258E-01  0.89232657688E+00  0.88000000000E+00 0.  1.
        -11    1    4    4    0    0  0.33598122941E-01  0.11623875599E-01 -0.17522460287E-01  0.39638946563E-01  0.51100000000E-03 0.  1.
         11    1    4    4    0    0  0.72370166343E-01  0.46633452849E-01 -0.17542563053E-01  0.87864227878E-01  0.51100000000E-03 0. -1.
</event>
<event>
 8    1  0.1079508E+005  0.1043930E+01  0.7957747E-01            NaN
         13   -1    0    0    0    0  0.00000000000E+00  0.00000000000E+00  0.74505805969E-08  0.10566000000E+00  0.10566000000E+00 0. -1.
     999900   -1    0    0    0    0 -0.00000000000E+00 -0.00000000000E+00 -0.74505805969E-08  0.93827000000E+00  0.93827000000E+00 0. -1.
     999902    2    1    2    0    0  0.18306591638E-03  0.14600614884E-01  0.18396687942E-01  0.10204427780E+01  0.10201724431E+01 0.  0.
     999903    2    3    3    0    0 -0.28514455875E-01  0.12695447200E+00 -0.14090144097E-01  0.13224103788E+00  0.18937998409E-01 0.  0.
         14    1    1    2    0    0 -0.18306591638E-03 -0.14600614884E-01 -0.18396687942E-01  0.23487221959E-01  0.00000000000E+00 0.  1.
     999901    1    3    3    0    0  0.28697521791E-01 -0.11235385712E+00  0.32486832038E-01  0.88820174016E+00  0.88000000000E+00 0. -1.
        -11    1    4    4    0    0 -0.97928212626E-02  0.42583715951E-01 -0.13768505307E-01  0.45815991442E-01  0.51100000000E-03 0.  1.
         11    1    4    4    0    0 -0.18721634612E-01  0.84370756053E-01 -0.32163878976E-03  0.86425046439E-01  0.51100000000E-03 0. -1.
</event>
<event>
 8    1  0.1079508E+005  0.1043930E+01  0.7957747E-01            NaN
         13   -1    0    0    0    0  0.00000000000E+00  0.00000000000E+00  0.74505805969E-08  0.10566000000E+00  0.10566000000E+00 0.  1.
     999900   -1    0    0    0    0 -0.00000000000E+00 -0.00000000000E+00 -0.74505805969E-08  0.93827000000E+00  0.93827000000E+00 0.  1.
     999902    2    1    2    0    0 -0.50508344460E-02 -0.12597561405E-02 -0.22633124935E-01  0.10207059552E+01  0.10204417135E+01 0.  0.
     999903    2    3    3    0    0  0.10688722099E+00 -0.71907334098E-01 -0.23753393119E-02  0.13057585995E+00  0.21186558399E-01 0.  0.
         14    1    1    2    0    0  0.50508344460E-02  0.12597561405E-02  0.22633124935E-01  0.23224044834E-01  0.00000000000E+00 0.  1.
     999901    1    3    3    0    0 -0.11193805544E+00  0.70647577957E-01 -0.20257785623E-01  0.89013009521E+00  0.88000000000E+00 0.  1.
        -11    1    4    4    0    0  0.59313237611E-01 -0.41067665258E-01  0.91372255894E-02  0.72721133779E-01  0.51100000000E-03 0. -1.
         11    1    4    4    0    0  0.47573983382E-01 -0.30839668840E-01 -0.11512564901E-01  0.57854726173E-01  0.51100000000E-03 0.  1.
</event>
<event>
 8    1  0.1079508E+005  0.1043930E+01  0.7957747E-01            NaN
         13   -1    0    0    0    0  0.00000000000E+00  0.00000000000E+00  0.74505805969E-08  0.10566000000E+00  0.10566000000E+00 0.  1.
     999900   -1    0    0    0    0 -0.00000000000E+00 -0.00000000000E+00 -0.74505805969E-08  0.93827000000E+00  0.93827000000E+00 0. -1.
     999902    2    1    2    0    0  0.17058261331E-01 -0.77761052230E-02 -0.16884461945E-01  0.10187003122E+01  0.10183878382E+01 0.  0.
     999903    2    3    3    0    0 -0.34881165967E-01  0.93290109287E-02  0.11967836638E+00  0.12648974557E+00  0.19313678322E-01 0.  0.
         14    1    1    2    0    0 -0.17058261331E-01  0.77761052230E-02  0.16884461945E-01  0.25229687815E-01  0.00000000000E+00 0.  1.
     999901    1    3    3    0    0  0.51939427299E-01 -0.17105116152E-01 -0.13656282832E+00  0.89221056662E+00  0.88000000000E+00 0. -1.
        -11    1    4    4    0    0 -0.26407502635E-01  0.19059425244E-02  0.57602756790E-01  0.63398166559E-01  0.51100000000E-03 0.  1.
         11    1    4    4    0    0 -0.84736633323E-02  0.74230684042E-02  0.62075609588E-01  0.63091579007E-01  0.51100000000E-03 0. -1.
</event>
<event>
 8    1  0.1079508E+005  0.1043930E+01  0.7957747E-01            NaN
         13   -1    0    0    0    0  0.00000000000E+00  0.00000000000E+00  0.74505805969E-08  0.10566000000E+00  0.10566000000E+00 0. -1.
     999900   -1    0    0    0    0 -0.00000000000E+00 -0.00000000000E+00 -0.74505805969E-08  0.93827000000E+00  0.93827000000E+00 0.  1.
     999902    2    1    2    0    0  0.19032406676E-01  0.13263274240E-01  0.73247910364E-02  0.10196030702E+01  0.10193128182E+01 0.  0.
     999903    2    3    3    0    0 -0.12145315273E-01  0.12923473715E+00 -0.29015439671E-02  0.13138800143E+00  0.20131120002E-01 0.  0.
         14    1    1    2    0    0 -0.19032406676E-01 -0.13263274240E-01 -0.73247910364E-02  0.24326929752E-01  0.00000000000E+00 0. -1.
     999901    1    3    3    0    0  0.31177721949E-01 -0.11597146291E+00  0.10226335004E-01  0.88821506882E+00  0.88000000000E+00 0.  1.
        -11    1    4    4    0    0 -0.95357347963E-02  0.37202794696E-01 -0.77785043594E-02  0.39188575151E-01  0.51100000000E-03 0. -1.
         11    1    4    4    0    0 -0.26095804765E-02  0.92031942452E-01  0.48769603923E-02  0.92199426275E-01  0.51100000000E-03 0.  1.
</event>
<event>
 8    1  0.1079508E+005  0.1043930E+01  0.7957747E-01            NaN
         13   -1    0    0    0    0  0.00000000000E+00  0.00000000000E+00  0.74505805969E-08  0.10566000000E+00  0.10566000000E+00 0. -1.
     999900   -1    0    0    0    0 -0.00000000000E+00 -0.00000000000E+00 -0.74505805969E-08  0.93827000000E+00  0.93827000000E+00 0. -1.
     999902    2    1    2    0    0  0.45556948687E-02 -0.17733852388E-01  0.14243168693E-01  0.10207327646E+01  0.10204691396E+01 0.  0.
     999903    2    3    3    0    0 -0.89876046941E-01  0.88072854536E-01 -0.16194709979E-01  0.12885896323E+00  0.22535133770E-01 0.  0.
         14    1    1    2    0    0 -0.45556948687E-02  0.17733852388E-01 -0.14243168693E-01  0.23197235410E-01  0.00000000000E+00 0.  1.
     999901    1    3    3    0    0  0.94431741809E-01 -0.10580670692E+00  0.30437878672E-01  0.89187380136E+00  0.88000000000E+00 0.  1.
        -11    1    4    4    0    0 -0.54199332559E-01  0.67603052579E-01 -0.92395487047E-02  0.87139949214E-01  0.51100000000E-03 0. -1.
         11    1    4    4    0    0 -0.35676714381E-01  0.20469801957E-01 -0.69551612746E-02  0.41719014017E-01  0.51100000000E-03 0.  1.
</event>
<event>
 8    1  0.1079508E+005  0.1043930E+01  0.7957747E-01            NaN
         13   -1    0    0    0    0  0.00000000000E+00  0.00000000000E+00  0.74505805969E-08  0.10566000000E+00  0.10566000000E+00 0. -1.
     999900   -1    0    0    0    0 -0.00000000000E+00 -0.00000000000E+00 -0.74505805969E-08  0.93827000000E+00  0.93827000000E+00 0.  1.
     999902    2    1    2    0    0  0.16267784598E-01 -0.66954995134E-02 -0.15779861274E-01  0.10202979338E+01  0.10200242150E+01 0.  0.
     999903    2    3    3    0    0 -0.23107231545E-01  0.11229368140E+00 -0.60236315620E-01  0.13030625218E+00  0.14404534224E-01 0.  0.
         14    1    1    2    0    0 -0.16267784598E-01  0.66954995134E-02  0.15779861274E-01  0.23632066166E-01  0.00000000000E+00 0. -1.
     999901    1    3    3    0    0  0.39375016143E-01 -0.11898918092E+00  0.44456454346E-01  0.88999168165E+00  0.88000000000E+00 0. -1.
        -11    1    4    4    0    0 -0.14982571264E-01  0.78402036219E-01 -0.49100996997E-01  0.93715130860E-01  0.51100000000E-03 0. -1.
         11    1    4    4    0    0 -0.81246602809E-02  0.33891645185E-01 -0.11135318622E-01  0.36591121325E-01  0.51100000000E-03 0.  1.
</event>
<event>
 8    1  0.1079508E+005  0.1043930E+01  0.7957747E-01            NaN
         13   -1    0    0    0    0  0.00000000000E+00  0.00000000000E+00  0.74505805969E-08  0.10566000000E+00  0.10566000000E+00 0. -1.
     999900   -1    0    0    0    0 -0.00000000000E+00 -0.00000000000E+00 -0.74505805969E-08  0.93827000000E+00  0.93827000000E+00 0.  1.
     999902    2    1    2    0    0 -0.60183202920E-02 -0.16758482036E-01  0.14654420530E-01  0.10208688001E+01  0.10206082932E+01 0.  0.
     999903    2    3    3    0    0 -0.91318607213E-01  0.90418179522E-01  0.10227123306E-02  0.13016750383E+00  0.20688110131E-01 0.  0.
         14    1    1    2    0    0  0.60183202920E-02  0.16758482036E-01 -0.14654420530E-01  0.23061199890E-01  0.00000000000E+00 0.  1.
     999901    1    3    3    0    0  0.85300286921E-01 -0.10717666156E+00  0.13631708199E-01  0.89070129628E+00  0.88000000000E+00 0. -1.
        -11    1    4    4    0    0 -0.62201327690E-01  0.61395853832E-01  0.10344616986E-01  0.88009819087E-01  0.51100000000E-03 0.  1.
         11    1    4    4    0    0 -0.29117279523E-01  0.29022325690E-01 -0.93219046552E-02  0.42157684740E-01  0.51100000000E-03 0. -1.
</event>
<event>
 8    1  0.1079508E+005  0.1043930E+01  0.7957747E-01            NaN
         13   -1    0    0    0    0  0.00000000000E+00  0.00000000000E+00  0.74505805969E-08  0.10566000000E+00  0.10566000000E+00 0.  1.
     999900   -1    0    0    0    0 -0.00000000000E+00 -0.00000000000E+00 -0.74505805969E-08  0.93827000000E+00  0.93827000000E+00 0.  1.
     999902    2    1    2    0    0  0.67214472567E-02 -0.22825517451E-01  0.19135025037E-02  0.10200586031E+01  0.10197792458E+01 0.  0.
     999903    2    3    3    0    0 -0.10068324002E+00  0.45299805779E-01  0.63020028474E-01  0.12881742693E+00  0.20813896028E-01 0.  0.
         14    1    1    2    0    0 -0.67214472567E-02  0.22825517451E-01 -0.19135025037E-02  0.23871396942E-01  0.00000000000E+00 0. -1.
     999901    1    3    3    0    0  0.10740468727E+00 -0.68125323229E-01 -0.61106525971E-01  0.89124117613E+00  0.88000000000E+00 0. -1.
        -11    1    4    4    0    0 -0.34626932398E-01  0.22426036238E-01  0.14537528024E-01  0.43744169791E-01  0.51100000000E-03 0.  1.
         11    1    4    4    0    0 -0.66056307618E-01  0.22873769541E-01  0.48482500450E-01  0.85073257138E-01  0.51100000000E-03 0. -1.
</event>
<event>
 8    1  0.1079508E+005  0.1043930E+01  0.7957747E-01            NaN
         13   -1    0    0    0    0  0.00000000000E+00  0.00000000000E+00  0.74505805969E-08  0.10566000000E+00  0.10566000000E+00 0. -1.
     999900   -1    0    0    0    0 -0.00000000000E+00 -0.00000000000E+00 -0.74505805969E-08  0.93827000000E+00  0.93827000000E+00 0. -1.
     999902    2    1    2    0    0 -0.22753439932E-01  0.37321495829E-02 -0.46131808885E-02  0.10204155490E+01  0.10201445795E+01 0.  0.
     999903    2    3    3    0    0 -0.32791458503E-01 -0.11230438276E+00 -0.56059091051E-01  0.13125194180E+00  0.19922258873E-01 0.  0.
         14    1    1    2    0    0  0.22753439932E-01 -0.37321495829E-02  0.46131808885E-02  0.23514451028E-01  0.00000000000E+00 0.  1.
     999901    1    3    3    0    0  0.10038018571E-01  0.11603653234E+00  0.51445910162E-01  0.88916360718E+00  0.88000000000E+00 0. -1.
        -11    1    4    4    0    0 -0.10301568906E-01 -0.68507746813E-01 -0.36134711945E-01  0.78137137288E-01  0.51100000000E-03 0.  1.
         11    1    4    4    0    0 -0.22489889597E-01 -0.43796635944E-01 -0.19924379105E-01  0.53114804507E-01  0.51100000000E-03 0. -1.
</event>
<event>
 8    1  0.1135100E+005  0.1043930E+01  0.7957747E-01            NaN
         13   -1    0    0    0    0  0.00000000000E+00  0.00000000000E+00  0.74505805969E-08  0.10566000000E+00  0.10566000000E+00 0.  1.
     999900   -1    0    0    0    0 -0.00000000000E+00 -0.00000000000E+00 -0.74505805969E-08  0.93827000000E+00  0.93827000000E+00 0. -1.
     999902    2    1    2    0    0 -0.96946362668E-03  0.23139196932E-02 -0.24069910171E-01  0.10197296971E+01  0.10194424950E+01 0.  0.
     999903    2    3    3    0    0  0.76174591446E-01 -0.95188188740E-01 -0.43578044815E-01  0.13077613607E+00  0.18438875167E-01 0.  0.
         14    1    1    2    0    0  0.96946362668E-03 -0.23139196932E-02  0.24069910171E-01  0.24200302885E-01  0.00000000000E+00 0.  1.
     999901    1    3    3    0    0 -0.77144055072E-01  0.97502108433E-01  0.19508134644E-01  0.88895356105E+00  0.88000000000E+00 0.  1.
        -11    1    4    4    0    0  0.22557657862E-01 -0.16460791958E-01 -0.12316947265E-01  0.30524971925E-01  0.51100000000E-03 0.  1.
         11    1    4    4    0    0  0.53616933584E-01 -0.78727396781E-01 -0.31261097550E-01  0.10025116414E+00  0.51100000000E-03 0. -1.
</event>
<event>
 8    1  0.1079508E+005  0.1043930E+01  0.7957747E-01            NaN
         13   -1    0    0    0    0  0.00000000000E+00  0.00000000000E+00  0.74505805969E-08  0.10566000000E+00  0.10566000000E+00 0. -1.
     999900   -1    0    0    0    0 -0.00000000000E+00 -0.00000000000E+00 -0.74505805969E-08  0.93827000000E+00  0.93827000000E+00 0.  1.
     999902    2    1    2    0    0 -0.12160568852E-01  0.15767871370E-01 -0.10019398346E-01  0.10216388909E+01  0.10213956774E+01 0.  0.
     999903    2    3    3    0    0 -0.67795618586E-01 -0.83731471511E-01  0.71345678471E-01  0.13056333084E+00  0.18691503460E-01 0.  0.
         14    1    1    2    0    0  0.12160568852E-01 -0.15767871370E-01  0.10019398346E-01  0.22291109115E-01  0.00000000000E+00 0. -1.
     999901    1    3    3    0    0  0.55635049735E-01  0.99499342881E-01 -0.81365076817E-01  0.89107556005E+00  0.88000000000E+00 0. -1.
        -11    1    4    4    0    0 -0.58058112064E-01 -0.65467653628E-01  0.64675841777E-01  0.10881168907E+00  0.51100000000E-03 0.  1.
         11    1    4    4    0    0 -0.97375065227E-02 -0.18263817883E-01  0.66698366939E-02  0.21751641765E-01  0.51100000000E-03 0. -1.
</event>
<event>
 8    1  0.1079508E+005  0.1043930E+01  0.7957747E-01            NaN
         13   -1    0    0    0    0  0.00000000000E+00  0.00000000000E+00  0.74505805969E-08  0.10566000000E+00  0.10566000000E+00 0.  1.
     999900   -1    0    0    0    0 -0.00000000000E+00 -0.00000000000E+00 -0.74505805969E-08  0.93827000000E+00  0.93827000000E+00 0.  1.
     999902    2    1    2    0    0 -0.34793100457E-02 -0.98182495389E-02 -0.20734622017E-01  0.10207259449E+01  0.10204621632E+01 0.  0.
     999903    2    3    3    0    0 -0.26245862942E-01  0.15692998429E-01 -0.12848460376E+00  0.13349474716E+00  0.19427778886E-01 0.  0.
         14    1    1    2    0    0  0.34793100457E-02  0.98182495389E-02  0.20734622017E-01  0.23204055089E-01  0.00000000000E+00 0.  1.
     999901    1    3    3    0    0  0.22766552897E-01 -0.25511247968E-01  0.10774998175E+00  0.88723119776E+00  0.88000000000E+00 0. -1.
        -11    1    4    4    0    0 -0.17802405394E-01  0.18181790918E-01 -0.72899710163E-01  0.77214843272E-01  0.51100000000E-03 0.  1.
         11    1    4    4    0    0 -0.84434575489E-02 -0.24887924887E-02 -0.55584893601E-01  0.56279903883E-01  0.51100000000E-03 0. -1.
</event>
<event>
 8    1  0.1079508E+005  0.1043930E+01  0.7957747E-01            NaN
         13   -1    0    0    0    0  0.00000000000E+00  0.00000000000E+00  0.74505805969E-08  0.10566000000E+00  0.10566000000E+00 0. -1.
     999900   -1    0    0    0    0 -0.00000000000E+00 -0.00000000000E+00 -0.74505805969E-08  0.93827000000E+00  0.93827000000E+00 0. -1.
     999902    2    1    2    0    0 -0.13873707842E-01  0.86722827490E-02 -0.16360601908E-01  0.10207922051E+01  0.10205299449E+01 0.  0.
     999903    2    3    3    0    0  0.35152573948E-01 -0.70215711809E-01  0.99770428541E-01  0.12831626246E+00  0.18573506926E-01 0.  0.
         14    1    1    2    0    0  0.13873707842E-01 -0.86722827490E-02  0.16360601908E-01  0.23137794885E-01  0.00000000000E+00 0. -1.
     999901    1    3    3    0    0 -0.49026281790E-01  0.78887994558E-01 -0.11613103045E+00  0.89247594266E+00  0.88000000000E+00 0. -1.
        -11    1    4    4    0    0  0.26386254975E-01 -0.58017746194E-01  0.68182741707E-01  0.93335099039E-01  0.51100000000E-03 0. -1.
         11    1    4    4    0    0  0.87663189731E-02 -0.12197965615E-01  0.31587686834E-01  0.34981163417E-01  0.51100000000E-03 0.  1.
</event>
<event>
 8    1  0.1079508E+005  0.1043930E+01  0.7957747E-01            NaN
         13   -1    0    0    0    0  0.00000000000E+00  0.00000000000E+00  0.74505805969E-08  0.10566000000E+00  0.10566000000E+00 0.  1.
     999900   -1    0    0    0    0 -0.00000000000E+00 -0.00000000000E+00 -0.74505805969E-08  0.93827000000E+00  0.93827000000E+00 0. -1.
     999902    2    1    2    0    0  0.12482741745E-01 -0.85813518528E-02 -0.19032951358E-01  0.10196048756E+01  0.10193146671E+01 0.  0.
     999903    2    3    3    0    0 -0.55913120597E-01 -0.10798286803E+00  0.39754088835E-01  0.12942816755E+00  0.19613417203E-01 0.  0.
         14    1    1    2    0    0 -0.12482741745E-01  0.85813518528E-02  0.19032951358E-01  0.24325124430E-01  0.00000000000E+00 0.  1.
     999901    1    3    3    0    0  0.68395862343E-01  0.99401516175E-01 -0.58787040194E-01  0.89017670802E+00  0.88000000000E+00 0. -1.
        -11    1    4    4    0    0 -0.25921279403E-01 -0.38282742598E-01  0.23338473313E-01  0.51792147708E-01  0.51100000000E-03 0.  1.
         11    1    4    4    0    0 -0.29991841194E-01 -0.69700125430E-01  0.16415615522E-01  0.77636019844E-01  0.51100000000E-03 0. -1.
</event>
<event>
 8    1  0.1079508E+005  0.1043930E+01  0.7957747E-01            NaN
         13   -1    0    0    0    0  0.00000000000E+00  0.00000000000E+00  0.74505805969E-08  0.10566000000E+00  0.10566000000E+00 0. -1.
     999900   -1    0    0    0    0 -0.00000000000E+00 -0.00000000000E+00 -0.74505805969E-08  0.93827000000E+00  0.93827000000E+00 0. -1.
     999902    2    1    2    0    0 -0.86432501694E-02  0.21920355473E-01 -0.88602122607E-03  0.10203505006E+01  0.10200780124E+01 0.  0.
     999903    2    3    3    0    0  0.26398748837E-01  0.96264763309E-01 -0.84619652204E-01  0.13256316481E+00  0.21182741303E-01 0.  0.
         14    1    1    2    0    0  0.86432501694E-02 -0.21920355473E-01  0.88602122607E-03  0.23579499383E-01  0.00000000000E+00 0. -1.
     999901    1    3    3    0    0 -0.35041999007E-01 -0.74344407836E-01  0.83733630978E-01  0.88778733581E+00  0.88000000000E+00 0.  1.
        -11    1    4    4    0    0  0.19202604683E-01  0.71004818624E-01 -0.73660942670E-01  0.10409908689E+00  0.51100000000E-03 0. -1.
         11    1    4    4    0    0  0.71961441540E-02  0.25259944685E-01 -0.10958709533E-01  0.28464077919E-01  0.51100000000E-03 0.  1.
</event>
<event>
 8    1  0.1079508E+005  0.1043930E+01  0.7957747E-01            NaN
         13   -1    0    0    0    0  0.00000000000E+00  0.00000000000E+00  0.74505805969E-08  0.10566000000E+00  0.10566000000E+00 0. -1.
     999900   -1    0    0    0    0 -0.00000000000E+00 -0.00000000000E+00 -0.74505805969E-08  0.93827000000E+00  0.93827000000E+00 0. -1.
     999902    2    1    2    0    0  0.85470743023E-02  0.57529200308E-02  0.21423225865E-01  0.10201581012E+01  0.10198810951E+01 0.  0.
     999903    2    3    3    0    0 -0.86729326293E-01 -0.63820513516E-01  0.71928309962E-01  0.13085004504E+00  0.18788787280E-01 0.  0.
         14    1    1    2    0    0 -0.85470743023E-02 -0.57529200308E-02 -0.21423225865E-01  0.23771898840E-01  0.00000000000E+00 0. -1.
     999901    1    3    3    0    0  0.95276400595E-01  0.69573433547E-01 -0.50505084097E-01  0.88930805612E+00  0.88000000000E+00 0. -1.
        -11    1    4    4    0    0 -0.20346348169E-01 -0.14319838798E-01  0.76913550463E-02  0.26047067598E-01  0.51100000000E-03 0.  1.
         11    1    4    4    0    0 -0.66382978124E-01 -0.49500674717E-01  0.64236954916E-01  0.10480297744E+00  0.51100000000E-03 0. -1.
</event>
<event>
 8    1  0.1079508E+005  0.1043930E+01  0.7957747E-01            NaN
         13   -1    0    0    0    0  0.00000000000E+00  0.00000000000E+00  0.74505805969E-08  0.10566000000E+00  0.10566000000E+00 0.  1.
     999900   -1    0    0    0    0 -0.00000000000E+00 -0.00000000000E+00 -0.74505805969E-08  0.93827000000E+00  0.93827000000E+00 0.  1.
     999902    2    1    2    0    0 -0.52633011573E-02 -0.17790524408E-01  0.15956669251E-01  0.10194591931E+01  0.10191654556E+01 0.  0.
     999903    2    3    3    0    0 -0.32626875567E-01 -0.15264860605E-01 -0.12136547787E+00  0.12838539351E+00  0.21347156003E-01 0.  0.
         14    1    1    2    0    0  0.52633011573E-02  0.17790524408E-01 -0.15956669251E-01  0.24470806921E-01  0.00000000000E+00 0.  1.
     999901    1    3    3    0    0  0.27363574410E-01 -0.25256638030E-02  0.13732214712E+00  0.89107379957E+00  0.88000000000E+00 0.  1.
        -11    1    4    4    0    0 -0.26662193423E-01 -0.35292047891E-02 -0.62141236517E-01  0.67713530711E-01  0.51100000000E-03 0.  1.
         11    1    4    4    0    0 -0.59646821443E-02 -0.11735655816E-01 -0.59224241357E-01  0.60671862801E-01  0.51100000000E-03 0. -1.
</event>
<event>
 8    1  0.1079508E+005  0.1043930E+01  0.7957747E-01            NaN
         13   -1    0    0    0    0  0.00000000000E+00  0.00000000000E+00  0.74505805969E-08  0.10566000000E+00  0.10566000000E+00 0. -1.
     999900   -1    0    0    0    0 -0.00000000000E+00 -0.00000000000E+00 -0.74505805969E-08  0.93827000000E+00  0.93827000000E+00 0. -1.
     999902    2    1    2    0    0 -0.16850221138E-01  0.16357944686E-01  0.38230450180E-02  0.10201365559E+01  0.10198590416E+01 0.  0.
     999903    2    3    3    0    0  0.53645111206E-01 -0.10478033614E+00  0.46123775114E-01  0.12804159086E+00  0.20261529127E-01 0.  0.
         14    1    1    2    0    0  0.16850221138E-01 -0.16357944686E-01 -0.38230450180E-02  0.23793444054E-01  0.00000000000E+00 0.  1.
     999901    1    3    3    0    0 -0.70495332344E-01  0.12113828082E+00 -0.42300730096E-01  0.89209496508E+00  0.88000000000E+00 0.  1.
        -11    1    4    4    0    0  0.40039363919E-01 -0.90610985080E-01  0.43581692749E-01  0.10822719780E+00  0.51100000000E-03 0.  1.
         11    1    4    4    0    0  0.13605747287E-01 -0.14169351056E-01  0.25420823659E-02  0.19814393060E-01  0.51100000000E-03 0. -1.
</event>
<event>
 8    1  0.1079508E+005  0.1043930E+01  0.7957747E-01            NaN
         13   -1    0    0    0    0  0.00000000000E+00  0.00000000000E+00  0.74505805969E-08  0.10566000000E+00  0.10566000000E+00 0.  1.
     999900   -1    0    0    0    0 -0.00000000000E+00 -0.00000000000E+00 -0.74505805969E-08  0.93827000000E+00  0.93827000000E+00 0.  1.
     999902    2    1    2    0    0  0.21018342928E-01 -0.47516037326E-02  0.92207695558E-02  0.10204913339E+01  0.10202221285E+01 0.  0.
     999903    2    3    3    0    0 -0.22638244149E-01  0.12613504386E+00  0.41790752309E-03  0.12969691177E+00  0.19964340428E-01 0.  0.
         14    1    1    2    0    0 -0.21018342928E-01  0.47516037326E-02 -0.92207695558E-02  0.23438666103E-01  0.00000000000E+00 0. -1.
     999901    1    3    3    0    0  0.43656587077E-01 -0.13088664759E+00  0.88028620327E-02  0.89079442213E+00  0.88000000000E+00 0.  1.
        -11    1    4    4    0    0 -0.10380938089E-02  0.50788913309E-01 -0.54564092168E-02  0.51094274399E-01  0.51100000000E-03 0.  1.
         11    1    4    4    0    0 -0.21600150340E-01  0.75346130550E-01  0.58743167399E-02  0.78602637371E-01  0.51100000000E-03 0. -1.
</event>
<event>
 8    1  0.1079508E+005  0.1043930E+01  0.7957747E-01            NaN
         13   -1    0    0    0    0  0.00000000000E+00  0.00000000000E+00  0.74505805969E-08  0.10566000000E+00  0.10566000000E+00 0. -1.
     999900   -1    0    0    0    0 -0.00000000000E+00 -0.00000000000E+00 -0.74505805969E-08  0.93827000000E+00  0.93827000000E+00 0.  1.
     999902    2    1    2    0    0  0.63752655885E-02  0.21208725460E-01  0.81982107149E-02  0.10203150745E+01  0.10200417573E+01 0.  0.
     999903    2    3    3    0    0 -0.10197946648E-01 -0.12550943588E+00  0.13291465633E-02  0.12798773868E+00  0.22857777899E-01 0.  0.
         14    1    1    2    0    0 -0.63752655885E-02 -0.21208725460E-01 -0.81982107149E-02  0.23614925489E-01  0.00000000000E+00 0.  1.
     999901    1    3    3    0    0  0.16573212236E-01  0.14671816134E+00  0.68690641516E-02  0.89232733583E+00  0.88000000000E+00 0. -1.
        -11    1    4    4    0    0  0.55225721647E-02 -0.70608203140E-01 -0.95587763841E-03  0.70832139435E-01  0.51100000000E-03 0.  1.
         11    1    4    4    0    0 -0.15720518812E-01 -0.54901232741E-01  0.22850242017E-02  0.57155599243E-01  0.51100000000E-03 0. -1.
</event>
<event>
 8    1  0.1079508E+005  0.1043930E+01  0.7957747E-01            NaN
         13   -1    0    0    0    0  0.00000000000E+00  0.00000000000E+00  0.74505805969E-08  0.10566000000E+00  0.10566000000E+00 0. -1.
     999900   -1    0    0    0    0 -0.00000000000E+00 -0.00000000000E+00 -0.74505805969E-08  0.93827000000E+00  0.93827000000E+00 0. -1.
     999902    2    1    2    0    0  0.13938533755E-01 -0.91867254136E-02 -0.17238136116E-01  0.10199335006E+01  0.10196511725E+01 0.  0.
     999903    2    3    3    0    0 -0.84561265469E-01  0.66079770656E-01 -0.70039405652E-01  0.12967779017E+00  0.19841048641E-01 0.  0.
         14    1    1    2    0    0 -0.13938533755E-01  0.91867254136E-02  0.17238136116E-01  0.23996499407E-01  0.00000000000E+00 0. -1.
     999901    1    3    3    0    0  0.98499799224E-01 -0.75266496070E-01  0.52801269537E-01  0.89025571042E+00  0.88000000000E+00 0.  1.
        -11    1    4    4    0    0 -0.50718185107E-01  0.45259156061E-01 -0.33890280503E-01  0.75957473243E-01  0.51100000000E-03 0.  1.
         11    1    4    4    0    0 -0.33843080362E-01  0.20820614596E-01 -0.36149125150E-01  0.53720316926E-01  0.51100000000E-03 0. -1.
</event>
<event>
 8    1  0.1079508E+005  0.1043930E+01  0.7957747E-01            NaN
         13   -1    0    0    0    0  0.00000000000E+00  0.00000000000E+00  0.74505805969E-08  0.10566000000E+00  0.10566000000E+00 0.  1.
     999900   -1    0    0    0    0 -0.00000000000E+00 -0.00000000000E+00 -0.74505805969E-08  0.93827000000E+00  0.93827000000E+00 0. -1.
     999902    2    1    2    0    0 -0.26325381926E-01  0.55080649700E-02 -0.10565470760E-02  0.10170138189E+01  0.10166575761E+01 0.  0.
     999903    2    3    3    0    0  0.11200120668E+00  0.48843772940E-01 -0.16510070710E-01  0.12502108345E+00  0.20681015911E-01 0.  0.
         14    1    1    2    0    0  0.26325381926E-01 -0.55080649700E-02  0.10565470760E-02  0.26916181100E-01  0.00000000000E+00 0.  1.
     999901    1    3    3    0    0 -0.13832658861E+00 -0.43335707970E-01  0.15453523634E-01  0.89199273545E+00  0.88000000000E+00 0. -1.
        -11    1    4    4    0    0  0.84272560186E-01  0.37137197889E-01 -0.33158890248E-02  0.92153633181E-01  0.51100000000E-03 0.  1.
         11    1    4    4    0    0  0.27728646496E-01  0.11706575052E-01 -0.13194181685E-01  0.32867450271E-01  0.51100000000E-03 0. -1.
</event>
<event>
 8    1  0.1079508E+005  0.1043930E+01  0.7957747E-01            NaN
         13   -1    0    0    0    0  0.00000000000E+00  0.00000000000E+00  0.74505805969E-08  0.10566000000E+00  0.10566000000E+00 0.  1.
     999900   -1    0    0    0    0 -0.00000000000E+00 -0.00000000000E+00 -0.74505805969E-08  0.93827000000E+00  0.93827000000E+00 0.  1.
     999902    2    1    2    0    0  0.10177904863E-01 -0.19964633280E-01 -0.10390525671E-01  0.10192290010E+01  0.10189296428E+01 0.  0.
     999903    2    3    3    0    0  0.81401888862E-01  0.23669748239E-01 -0.97817935834E-01  0.13096081669E+00  0.19896292281E-01 0.  0.
         14    1    1    2    0    0 -0.10177904863E-01  0.19964633280E-01  0.10390525671E-01  0.24700999031E-01  0.00000000000E+00 0.  1.
     999901    1    3    3    0    0 -0.71223983999E-01 -0.43634381519E-01  0.87427410163E-01  0.88826818427E+00  0.88000000000E+00 0. -1.
        -11    1    4    4    0    0  0.56399355947E-01  0.15670183736E-01 -0.52731955701E-01  0.78786815411E-01  0.51100000000E-03 0. -1.
         11    1    4    4    0    0  0.25002532915E-01  0.79995645026E-02 -0.45085980133E-01  0.52174001283E-01  0.51100000000E-03 0.  1.
</event>
<event>
 8    1  0.1079508E+005  0.1043930E+01  0.7957747E-01            NaN
         13   -1    0    0    0    0  0.00000000000E+00  0.00000000000E+00  0.74505805969E-08  0.10566000000E+00  0.10566000000E+00 0.  1.
     999900   -1    0    0    0    0 -0.00000000000E+00 -0.00000000000E+00 -0.74505805969E-08  0.93827000000E+00  0.93827000000E+00 0.  1.
     999902    2    1    2    0    0 -0.19718073940E-01  0.94994005575E-02 -0.78240819099E-02  0.10206865642E+01  0.10204218760E+01 0.  0.
     999903    2    3    3    0    0  0.83694092629E-01 -0.98776440760E-02 -0.96775330744E-01  0.12996670321E+00  0.20581795603E-01 0.  0.
         14    1    1    2    0    0  0.19718073940E-01 -0.94994005575E-02  0.78240819099E-02  0.23243435818E-01  0.00000000000E+00 0. -1.
     999901    1    3    3    0    0 -0.10341216657E+00  0.19377044633E-01  0.88951248835E-01  0.89071986097E+00  0.88000000000E+00 0. -1.
        -11    1    4    4    0    0  0.55512253939E-02 -0.12909359603E-02 -0.17117270220E-01  0.18048398262E-01  0.51100000000E-03 0.  1.
         11    1    4    4    0    0  0.78142867235E-01 -0.85867081157E-02 -0.79658060525E-01  0.11191830495E+00  0.51100000000E-03 0. -1.
</event>
<event>
 8    1  0.1079508E+005  0.1043930E+01  0.7957747E-01            NaN
         13   -1    0    0    0    0  0.00000000000E+00  0.00000000000E+00  0.74505805969E-08  0.10566000000E+00  0.10566000000E+00 0. -1.
     999900   -1    0    0    0    0 -0.00000000000E+00 -0.00000000000E+00 -0.74505805969E-08  0.93827000000E+00  0.93827000000E+00 0. -1.
     999902    2    1    2    0    0 -0.11247015839E-01  0.45495777249E-02  0.21266776149E-01  0.10194459278E+01  0.10191518680E+01 0.  0.
     999903    2    3    3    0    0  0.95511458149E-01  0.49670300830E-01 -0.65456661645E-01  0.12761959602E+00  0.20312786944E-01 0.  0.
         14    1    1    2    0    0  0.11247015839E-01 -0.45495777249E-02 -0.21266776149E-01  0.24484072180E-01  0.00000000000E+00 0.  1.
     999901    1    3    3    0    0 -0.10675847399E+00 -0.45120723105E-01  0.86723437794E-01  0.89182633180E+00  0.88000000000E+00 0.  1.
        -11    1    4    4    0    0  0.29480119576E-01  0.70448485212E-02 -0.12187879125E-01  0.32672815297E-01  0.51100000000E-03 0. -1.
         11    1    4    4    0    0  0.66031338573E-01  0.42625452309E-01 -0.53268782519E-01  0.94946780727E-01  0.51100000000E-03 0.  1.
</event>
<event>
 8    1  0.1079508E+005  0.1043930E+01  0.7957747E-01            NaN
         13   -1    0    0    0    0  0.00000000000E+00  0.00000000000E+00  0.74505805969E-08  0.10566000000E+00  0.10566000000E+00 0.  1.
     999900   -1    0    0    0    0 -0.00000000000E+00 -0.00000000000E+00 -0.74505805969E-08  0.93827000000E+00  0.93827000000E+00 0.  1.
     999902    2    1    2    0    0  0.98153833470E-02  0.21585445032E-01  0.37677800472E-02  0.10199202238E+01  0.10196375795E+01 0.  0.
     999903    2    3    3    0    0  0.11072857928E+00 -0.57189578898E-01 -0.25816911619E-01  0.13016507123E+00  0.27294077018E-01 0.  0.
         14    1    1    2    0    0 -0.98153833470E-02 -0.21585445032E-01 -0.37677800472E-02  0.24009776217E-01  0.00000000000E+00 0.  1.
     999901    1    3    3    0    0 -0.10091319593E+00  0.78775023930E-01  0.29584691666E-01  0.88975515255E+00  0.88000000000E+00 0. -1.
        -11    1    4    4    0    0  0.45884560121E-01 -0.28580001451E-01  0.18204089372E-02  0.54090519966E-01  0.51100000000E-03 0.  1.
         11    1    4    4    0    0  0.64844019156E-01 -0.28609577447E-01 -0.27637320556E-01  0.76074551268E-01  0.51100000000E-03 0. -1.
</event>
<event>
 8    1  0.1079508E+005  0.1043930E+01  0.7957747E-01            NaN
         13   -1    0    0    0    0  0.00000000000E+00  0.00000000000E+00  0.74505805969E-08  0.10566000000E+00  0.10566000000E+00 0.  1.
     999900   -1    0    0    0    0 -0.00000000000E+00 -0.00000000000E+00 -0.74505805969E-08  0.93827000000E+00  0.93827000000E+00 0.  1.
     999902    2    1    2    0    0 -0.11000206059E-01 -0.10642256303E-01  0.18481049261E-01  0.10199339309E+01  0.10196516130E+01 0.  0.
     999903    2    3    3    0    0 -0.11376462014E+00  0.31137333773E-01 -0.51581092830E-01  0.13020657784E+00  0.19524892445E-01 0.  0.
         14    1    1    2    0    0  0.11000206059E-01  0.10642256303E-01 -0.18481049261E-01  0.23996069143E-01  0.00000000000E+00 0.  1.
     999901    1    3    3    0    0  0.10276441408E+00 -0.41779590076E-01  0.70062142091E-01  0.88972735302E+00  0.88000000000E+00 0.  1.
        -11    1    4    4    0    0 -0.98746039389E-01  0.32998028737E-01 -0.41873017760E-01  0.11221969940E+00  0.51100000000E-03 0.  1.
         11    1    4    4    0    0 -0.15018580754E-01 -0.18606949638E-02 -0.97080750695E-02  0.17986878444E-01  0.51100000000E-03 0. -1.
</event>
<event>
 8    1  0.1079508E+005  0.1043930E+01  0.7957747E-01            NaN
         13   -1    0    0    0    0  0.00000000000E+00  0.00000000000E+00  0.74505805969E-08  0.10566000000E+00  0.10566000000E+00 0. -1.
     999900   -1    0    0    0    0 -0.00000000000E+00 -0.00000000000E+00 -0.74505805969E-08  0.93827000000E+00  0.93827000000E+00 0. -1.
     999902    2    1    2    0    0 -0.16504979234E-01 -0.88170596875E-02 -0.15324512398E-01  0.10197433185E+01  0.10194564435E+01 0.  0.
     999903    2    3    3    0    0 -0.11322584793E+00 -0.43850503786E-01 -0.43943526881E-01  0.13328896739E+00  0.33044756783E-01 0.  0.
         14    1    1    2    0    0  0.16504979234E-01  0.88170596875E-02  0.15324512398E-01  0.24186681486E-01  0.00000000000E+00 0. -1.
     999901    1    3    3    0    0  0.96720868692E-01  0.35033444099E-01  0.28619014483E-01  0.88645435113E+00  0.88000000000E+00 0.  1.
        -11    1    4    4    0    0 -0.44064442871E-01 -0.22941107933E-01 -0.34350159039E-01  0.60400033988E-01  0.51100000000E-03 0. -1.
         11    1    4    4    0    0 -0.69161405056E-01 -0.20909395853E-01 -0.95933678418E-02  0.72888933398E-01  0.51100000000E-03 0.  1.
</event>
<event>
 8    1  0.1079508E+005  0.1043930E+01  0.7957747E-01            NaN
         13   -1    0    0    0    0  0.00000000000E+00  0.00000000000E+00  0.74505805969E-08  0.10566000000E+00  0.10566000000E+00 0.  1.
     999900   -1    0    0    0    0 -0.00000000000E+00 -0.00000000000E+00 -0.74505805969E-08  0.93827000000E+00  0.93827000000E+00 0. -1.
     999902    2    1    2    0    0 -0.10944522358E-01  0.18400105051E-01 -0.11205514312E-01  0.10197657705E+01  0.10194794342E+01 0.  0.
     999903    2    3    3    0    0  0.11862524730E+00  0.37845389451E-01  0.26833472950E-01  0.12925276733E+00  0.21954949144E-01 0.  0.
         14    1    1    2    0    0  0.10944522358E-01 -0.18400105051E-01  0.11205514312E-01  0.24164229484E-01  0.00000000000E+00 0. -1.
     999901    1    3    3    0    0 -0.12956976966E+00 -0.19445284400E-01 -0.38038987263E-01  0.89051300319E+00  0.88000000000E+00 0.  1.
        -11    1    4    4    0    0  0.71619481905E-02 -0.90170237593E-03  0.60437739831E-02  0.94284088805E-02  0.51100000000E-03 0. -1.
         11    1    4    4    0    0  0.11146329911E+00  0.38747091827E-01  0.20789698967E-01  0.11982435845E+00  0.51100000000E-03 0.  1.
</event>
<event>
 8    1  0.1079508E+005  0.1043930E+01  0.7957747E-01            NaN
         13   -1    0    0    0    0  0.00000000000E+00  0.00000000000E+00  0.74505805969E-08  0.10566000000E+00  0.10566000000E+00 0.  1.
     999900   -1    0    0    0    0 -0.00000000000E+00 -0.00000000000E+00 -0.74505805969E-08  0.93827000000E+00  0.93827000000E+00 0. -1.
     999902    2    1    2    0    0  0.21081418860E-01 -0.10138906722E-01  0.44432319283E-02  0.10201189530E+01  0.10198410230E+01 0.  0.
     999903    2    3    3    0    0 -0.36605488427E-01 -0.11364627670E+00 -0.48396558593E-01  0.13060582863E+00  0.21452682769E-01 0.  0.
         14    1    1    2    0    0 -0.21081418860E-01  0.10138906722E-01 -0.44432319283E-02  0.23811047029E-01  0.00000000000E+00 0. -1.
     999901    1    3    3    0    0  0.57686907287E-01  0.10350736998E+00  0.52839790521E-01  0.88951312434E+00  0.88000000000E+00 0.  1.
        -11    1    4    4    0    0 -0.22890738616E-01 -0.39210093905E-01 -0.14434554033E-01  0.47644882721E-01  0.51100000000E-03 0. -1.
         11    1    4    4    0    0 -0.13714749812E-01 -0.74436182795E-01 -0.33962004559E-01  0.82960945909E-01  0.51100000000E-03 0.  1.
</event>
<event>
 8    1  0.1079508E+005  0.1043930E+01  0.7957747E-01            NaN
         13   -1    0    0    0    0  0.00000000000E+00  0.00000000000E+00  0.74505805969E-08  0.10566000000E+00  0.10566000000E+00 0.  1.
     999900   -1    0    0    0    0 -0.00000000000E+00 -0.00000000000E+00 -0.74505805969E-08  0.93827000000E+00  0.93827000000E+00 0. -1.
     999902    2    1    2    0    0 -0.74630786431E-02 -0.43731705380E-02 -0.24131925433E-01  0.10182946340E+01  0.10179719003E+01 0.  0.
     999903    2    3    3    0    0 -0.63553937620E-01 -0.95047206414E-01 -0.60891092444E-01  0.13109724810E+00  0.20141720023E-01 0.  0.
         14    1    1    2    0    0  0.74630786431E-02  0.43731705380E-02  0.24131925433E-01  0.25635365972E-01  0.00000000000E+00 0.  1.
     999901    1    3    3    0    0  0.56090858977E-01  0.90674035876E-01  0.36759167010E-01  0.88719738593E+00  0.88000000000E+00 0.  1.
        -11    1    4    4    0    0 -0.61805636165E-01 -0.92233919519E-01 -0.62465941222E-01  0.12739422085E+00  0.51100000000E-03 0.  1.
         11    1    4    4    0    0 -0.17483014555E-02 -0.28132868957E-02  0.15748487789E-02  0.37030272498E-02  0.51100000000E-03 0. -1.
</event>
<event>
 8    1  0.1079508E+005  0.1043930E+01  0.7957747E-01            NaN
         13   -1    0    0    0    0  0.00000000000E+00  0.00000000000E+00  0.74505805969E-08  0.10566000000E+00  0.10566000000E+00 0. -1.
     999900   -1    0    0    0    0 -0.00000000000E+00 -0.00000000000E+00 -0.74505805969E-08  0.93827000000E+00  0.93827000000E+00 0.  1.
     999902    2    1    2    0    0 -0.19027650433E-01 -0.10446241276E-01  0.89831194671E-02  0.10204380466E+01  0.10201676015E+01 0.  0.
     999903    2    3    3    0    0  0.12379999982E+00 -0.27848476973E-01  0.11611049455E-01  0.12874892956E+00  0.18425329566E-01 0.  0.
         14    1    1    2    0    0  0.19027650433E-01  0.10446241276E-01 -0.89831194671E-02  0.23491953370E-01  0.00000000000E+00 0.  1.
     999901    1    3    3    0    0 -0.14282765025E+00  0.17402235697E-01 -0.26279299874E-02  0.89168911707E+00  0.88000000000E+00 0.  1.
        -11    1    4    4    0    0  0.97096159304E-01 -0.29445357050E-01  0.87841395680E-02  0.10184358317E+00  0.51100000000E-03 0.  1.
         11    1    4    4    0    0  0.26703840511E-01  0.15968800777E-02  0.28269098866E-02  0.26905346393E-01  0.51100000000E-03 0. -1.
</event>
<event>
 8    1  0.1079508E+005  0.1043930E+01  0.7957747E-01            NaN
         13   -1    0    0    0    0  0.00000000000E+00  0.00000000000E+00  0.74505805969E-08  0.10566000000E+00  0.10566000000E+00 0. -1.
     999900   -1    0    0    0    0 -0.00000000000E+00 -0.00000000000E+00 -0.74505805969E-08  0.93827000000E+00  0.93827000000E+00 0. -1.
     999902    2    1    2    0    0  0.18172479373E-01  0.11037029997E-01 -0.90535559720E-02  0.10208210858E+01  0.10205594874E+01 0.  0.
     999903    2    3    3    0    0 -0.26402391980E-03 -0.10571449943E+00  0.71803148620E-01  0.12924459953E+00  0.19309304920E-01 0.  0.
         14    1    1    2    0    0 -0.18172479373E-01 -0.11037029997E-01  0.90535559720E-02  0.23108914156E-01  0.00000000000E+00 0. -1.
     999901    1    3    3    0    0  0.18436503293E-01  0.11675152943E+00 -0.80856704592E-01  0.89157648632E+00  0.88000000000E+00 0. -1.
        -11    1    4    4    0    0 -0.60886280380E-02 -0.76634796568E-01  0.59136677368E-01  0.96991603593E-01  0.51100000000E-03 0.  1.
         11    1    4    4    0    0  0.58246041182E-02 -0.29079702863E-01  0.12666471252E-01  0.32252995934E-01  0.51100000000E-03 0. -1.
</event>
<event>
 8    1  0.1079508E+005  0.1043930E+01  0.7957747E-01            NaN
         13   -1    0    0    0    0  0.00000000000E+00  0.00000000000E+00  0.74505805969E-08  0.10566000000E+00  0.10566000000E+00 0. -1.
     999900   -1    0    0    0    0 -0.00000000000E+00 -0.00000000000E+00 -0.74505805969E-08  0.93827000000E+00  0.93827000000E+00 0.  1.
     999902    2    1    2    0    0  0.29238297310E-02  0.12464491294E-01 -0.19266898018E-01  0.10207972163E+01  0.10205350710E+01 0.  0.
     999903    2    3    3    0    0  0.94351768339E-02  0.62208619815E-01  0.11161591709E+00  0.12970396232E+00  0.20151177425E-01 0.  0.
         14    1    1    2    0    0 -0.29238297310E-02 -0.12464491294E-01  0.19266898018E-01  0.23132783723E-01  0.00000000000E+00 0. -1.
     999901    1    3    3    0    0 -0.65113471028E-02 -0.49744128521E-01 -0.13088281511E+00  0.89109325396E+00  0.88000000000E+00 0.  1.
        -11    1    4    4    0    0 -0.58765686315E-02  0.24844695446E-01  0.47550549247E-01  0.53973223041E-01  0.51100000000E-03 0. -1.
         11    1    4    4    0    0  0.15311745465E-01  0.37363924369E-01  0.64065367843E-01  0.75730739276E-01  0.51100000000E-03 0.  1.
</event>
<event>
 8    1  0.1079508E+005  0.1043930E+01  0.7957747E-01            NaN
         13   -1    0    0    0    0  0.00000000000E+00  0.00000000000E+00  0.74505805969E-08  0.10566000000E+00  0.10566000000E+00 0.  1.
     999900   -1    0    0    0    0 -0.00000000000E+00 -0.00000000000E+00 -0.74505805969E-08  0.93827000000E+00  0.93827000000E+00 0. -1.
     999902    2    1    2    0    0 -0.11979656188E-02 -0.18908200396E-01  0.12646301441E-01  0.10211509723E+01  0.10208968724E+01 0.  0.
     999903    2    3    3    0    0  0.32169477885E-02 -0.21905622520E-01  0.13006113672E+00  0.13333639730E+00  0.19300013221E-01 0.  0.
         14    1    1    2    0    0  0.11979656188E-02  0.18908200396E-01 -0.12646301441E-01  0.22779027722E-01  0.00000000000E+00 0. -1.
     999901    1    3    3    0    0 -0.44149134073E-02  0.29974221243E-02 -0.11741483527E+00  0.88781457498E+00  0.88000000000E+00 0. -1.
        -11    1    4    4    0    0  0.40446879741E-03 -0.16203640660E-03  0.58187503209E-01  0.58191378240E-01  0.51100000000E-03 0. -1.
         11    1    4    4    0    0  0.28124789910E-02 -0.21743586114E-01  0.71873633506E-01  0.75145019060E-01  0.51100000000E-03 0.  1.
</event>
<event>
 8    1  0.1079508E+005  0.1043930E+01  0.7957747E-01            NaN
         13   -1    0    0    0    0  0.00000000000E+00  0.00000000000E+00  0.74505805969E-08  0.10566000000E+00  0.10566000000E+00 0.  1.
     999900   -1    0    0    0    0 -0.00000000000E+00 -0.00000000000E+00 -0.74505805969E-08  0.93827000000E+00  0.93827000000E+00 0. -1.
     999902    2    1    2    0    0 -0.20113291356E-01  0.11015855458E-01 -0.41927806806E-02  0.10206174933E+01  0.10203512114E+01 0.  0.
     999903    2    3    3    0    0  0.10666000352E+00 -0.42484019768E-01 -0.51126904977E-01  0.12868895522E+00  0.27670173426E-01 0.  0.
         14    1    1    2    0    0  0.20113291356E-01 -0.11015855458E-01  0.41927806806E-02  0.23312506739E-01  0.00000000000E+00 0. -1.
     999901    1    3    3    0    0 -0.12677329487E+00  0.53499875226E-01  0.46934124297E-01  0.89192853804E+00  0.88000000000E+00 0.  1.
        -11    1    4    4    0    0  0.68773466999E-01 -0.28796421312E-01 -0.18432580501E-01  0.76805239329E-01  0.51100000000E-03 0.  1.
         11    1    4    4    0    0  0.37886536520E-01 -0.13687598455E-01 -0.32694324477E-01  0.51883715894E-01  0.51100000000E-03 0. -1.
</event>
<event>
 8    1  0.1079508E+005  0.1043930E+01  0.7957747E-01            NaN
         13   -1    0    0    0    0  0.00000000000E+00  0.00000000000E+00  0.74505805969E-08  0.10566000000E+00  0.10566000000E+00 0. -1.
     999900   -1    0    0    0    0 -0.00000000000E+00 -0.00000000000E+00 -0.74505805969E-08  0.93827000000E+00  0.93827000000E+00 0.  1.
     999902    2    1    2    0    0  0.19001123609E-01  0.79070766258E-02 -0.99138545246E-02  0.10210859839E+01  0.10208304156E+01 0.  0.
     999903    2    3    3    0    0  0.68194299317E-01 -0.55584888293E-01 -0.97895256128E-01  0.13305899943E+00  0.19521114007E-01 0.  0.
         14    1    1    2    0    0 -0.19001123609E-01 -0.79070766258E-02  0.99138545246E-02  0.22844016081E-01  0.00000000000E+00 0. -1.
     999901    1    3    3    0    0 -0.49193175707E-01  0.63491964919E-01  0.87981401603E-01  0.88802698449E+00  0.88000000000E+00 0. -1.
        -11    1    4    4    0    0  0.32171349098E-01 -0.18070667344E-01 -0.51532948361E-01  0.63383362240E-01  0.51100000000E-03 0. -1.
         11    1    4    4    0    0  0.36022950219E-01 -0.37514220950E-01 -0.46362307767E-01  0.69675637194E-01  0.51100000000E-03 0.  1.
</event>
<event>
 8    1  0.1079508E+005  0.1043930E+01  0.7957747E-01            NaN
         13   -1    0    0    0    0  0.00000000000E+00  0.00000000000E+00  0.74505805969E-08  0.10566000000E+00  0.10566000000E+00 0. -1.
     999900   -1    0    0    0    0 -0.00000000000E+00 -0.00000000000E+00 -0.74505805969E-08  0.93827000000E+00  0.93827000000E+00 0. -1.
     999902    2    1    2    0    0 -0.14908350940E-01 -0.10604674461E-01 -0.14473321048E-01  0.10206020110E+01  0.10203353712E+01 0.  0.
     999903    2    3    3    0    0 -0.19038018204E-01  0.70834054628E-01 -0.10779548005E+00  0.13191852061E+00  0.20067912903E-01 0.  0.
         14    1    1    2    0    0  0.14908350940E-01  0.10604674461E-01  0.14473321048E-01  0.23327988990E-01  0.00000000000E+00 0. -1.
     999901    1    3    3    0    0  0.41296672639E-02 -0.81438729089E-01  0.93322159003E-01  0.88868349040E+00  0.88000000000E+00 0.  1.
        -11    1    4    4    0    0  0.26692205204E-02  0.10634839775E-01 -0.24758988867E-01  0.27083079698E-01  0.51100000000E-03 0. -1.
         11    1    4    4    0    0 -0.21707238724E-01  0.60199214853E-01 -0.83036491184E-01  0.10483544091E+00  0.51100000000E-03 0.  1.
</event>
<event>
 8    1  0.1079508E+005  0.1043930E+01  0.7957747E-01            NaN
         13   -1    0    0    0    0  0.00000000000E+00  0.00000000000E+00  0.74505805969E-08  0.10566000000E+00  0.10566000000E+00 0.  1.
     999900   -1    0    0    0    0 -0.00000000000E+00 -0.00000000000E+00 -0.74505805969E-08  0.93827000000E+00  0.93827000000E+00 0. -1.
     999902    2    1    2    0    0  0.16442865602E-01 -0.15716186500E-01 -0.96877226463E-02  0.10192071701E+01  0.10189072761E+01 0.  0.
     999903    2    3    3    0    0 -0.21123701314E-01  0.10877053539E+00 -0.61222481571E-01  0.12816058197E+00  0.19992558493E-01 0.  0.
         14    1    1    2    0    0 -0.16442865602E-01  0.15716186500E-01  0.96877226463E-02  0.24722829882E-01  0.00000000000E+00 0. -1.
     999901    1    3    3    0    0  0.37566566915E-01 -0.12448672189E+00  0.51534758924E-01  0.89104658815E+00  0.88000000000E+00 0.  1.
        -11    1    4    4    0    0 -0.15986941791E-01  0.34921008574E-01 -0.24100923396E-01  0.45345063426E-01  0.51100000000E-03 0. -1.
         11    1    4    4    0    0 -0.51367595230E-02  0.73849526813E-01 -0.37121558175E-01  0.82815518542E-01  0.51100000000E-03 0.  1.
</event>
<event>
 8    1  0.1079508E+005  0.1043930E+01  0.7957747E-01            NaN
         13   -1    0    0    0    0  0.00000000000E+00  0.00000000000E+00  0.74505805969E-08  0.10566000000E+00  0.10566000000E+00 0. -1.
     999900   -1    0    0    0    0 -0.00000000000E+00 -0.00000000000E+00 -0.74505805969E-08  0.93827000000E+00  0.93827000000E+00 0. -1.
     999902    2    1    2    0    0  0.17577602533E-02  0.17126799734E-01 -0.14793917358E-01  0.10212302868E+01  0.10209779731E+01 0.  0.
     999903    2    3    3    0    0 -0.97061825080E-01  0.87633253465E-01  0.78779281182E-02  0.13260748543E+00  0.20545034462E-01 0.  0.
         14    1    1    2    0    0 -0.17577602533E-02 -0.17126799734E-01  0.14793917358E-01  0.22699713237E-01  0.00000000000E+00 0.  1.
     999901    1    3    3    0    0  0.98819585334E-01 -0.70506453731E-01 -0.22671845476E-01  0.88862280133E+00  0.88000000000E+00 0. -1.
        -11    1    4    4    0    0 -0.64426250102E-01  0.57757508345E-01 -0.45515703142E-02  0.86646692873E-01  0.51100000000E-03 0. -1.
         11    1    4    4    0    0 -0.32635574978E-01  0.29875745120E-01  0.12429498432E-01  0.45960792562E-01  0.51100000000E-03 0.  1.
</event>
<event>
 8    1  0.1079508E+005  0.1043930E+01  0.7957747E-01            NaN
         13   -1    0    0    0    0  0.00000000000E+00  0.00000000000E+00  0.74505805969E-08  0.10566000000E+00  0.10566000000E+00 0. -1.
     999900   -1    0    0    0    0 -0.00000000000E+00 -0.00000000000E+00 -0.74505805969E-08  0.93827000000E+00  0.93827000000E+00 0.  1.
     999902    2    1    2    0    0  0.17260105425E-01 -0.11273538064E-01  0.18513740092E-01  0.10162214729E+01  0.10158436492E+01 0.  0.
     999903    2    3    3    0    0  0.97851945782E-01  0.74886010479E-01  0.33783122370E-01  0.12821715619E+00  0.10743459602E-01 0.  0.
         14    1    1    2    0    0 -0.17260105425E-01  0.11273538064E-01 -0.18513740092E-01  0.27708527062E-01  0.00000000000E+00 0.  1.
     999901    1    3    3    0    0 -0.80591840358E-01 -0.86159548543E-01 -0.15269382279E-01  0.88800431675E+00  0.88000000000E+00 0. -1.
        -11    1    4    4    0    0  0.54979484573E-01  0.47429579781E-01  0.23067240949E-01  0.76188368457E-01  0.51100000000E-03 0. -1.
         11    1    4    4    0    0  0.42872461209E-01  0.27456430698E-01  0.10715881421E-01  0.52028787728E-01  0.51100000000E-03 0.  1.
</event>
<event>
 8    1  0.1079508E+005  0.1043930E+01  0.7957747E-01            NaN
         13   -1    0    0    0    0  0.00000000000E+00  0.00000000000E+00  0.74505805969E-08  0.10566000000E+00  0.10566000000E+00 0.  1.
     999900   -1    0    0    0    0 -0.00000000000E+00 -0.00000000000E+00 -0.74505805969E-08  0.93827000000E+00  0.93827000000E+00 0.  1.
     999902    2    1    2    0    0  0.21696079657E-01  0.55941473389E-02 -0.28218201645E-02  0.10213473291E+01  0.10210976396E+01 0.  0.
     999903    2    3    3    0    0  0.28097573711E-01 -0.68319422304E-01 -0.10775747983E+00  0.13201292202E+00  0.18939905227E-01 0.  0.
         14    1    1    2    0    0 -0.21696079657E-01 -0.55941473389E-02  0.28218201645E-02  0.22582670922E-01  0.00000000000E+00 0.  1.
     999901    1    3    3    0    0 -0.64014940535E-02  0.73913569643E-01  0.10493565966E+00  0.88933440706E+00  0.88000000000E+00 0. -1.
        -11    1    4    4    0    0  0.65711119727E-02 -0.10398741482E-01 -0.31765253467E-01  0.34067664812E-01  0.51100000000E-03 0.  1.
         11    1    4    4    0    0  0.21526461738E-01 -0.57920680822E-01 -0.75992226359E-01  0.97945257210E-01  0.51100000000E-03 0. -1.
</event>
<event>
 8    1  0.1079508E+005  0.1043930E+01  0.7957747E-01            NaN
         13   -1    0    0    0    0  0.00000000000E+00  0.00000000000E+00  0.74505805969E-08  0.10566000000E+00  0.10566000000E+00 0.  1.
     999900   -1    0    0    0    0 -0.00000000000E+00 -0.00000000000E+00 -0.74505805969E-08  0.93827000000E+00  0.93827000000E+00 0.  1.
     999902    2    1    2    0    0 -0.17576856722E-01 -0.14934011119E-01 -0.67663850262E-02  0.10198934747E+01  0.10196101928E+01 0.  0.
     999903    2    3    3    0    0  0.84567089910E-01 -0.41674050705E-01 -0.87114781272E-01  0.12994725146E+00  0.20223349067E-01 0.  0.
         14    1    1    2    0    0  0.17576856722E-01  0.14934011119E-01  0.67663850262E-02  0.24036525262E-01  0.00000000000E+00 0.  1.
     999901    1    3    3    0    0 -0.10214394663E+00  0.26740039586E-01  0.80348396246E-01  0.88994622328E+00  0.88000000000E+00 0. -1.
        -11    1    4    4    0    0  0.67964924298E-01 -0.41828210715E-01 -0.71594267754E-01  0.10721394705E+00  0.51100000000E-03 0. -1.
         11    1    4    4    0    0  0.16602165612E-01  0.15416001011E-03 -0.15520513518E-01  0.22733304405E-01  0.51100000000E-03 0.  1.
</event>
<event>
 8    1  0.1079508E+005  0.1043930E+01  0.7957747E-01            NaN
         13   -1    0    0    0    0  0.00000000000E+00  0.00000000000E+00  0.74505805969E-08  0.10566000000E+00  0.10566000000E+00 0. -1.
     999900   -1    0    0    0    0 -0.00000000000E+00 -0.00000000000E+00 -0.74505805969E-08  0.93827000000E+00  0.93827000000E+00 0.  1.
     999902    2    1    2    0    0  0.81570539263E-02  0.17146890895E-01 -0.13767449363E-01  0.10204758733E+01  0.10202063085E+01 0.  0.
     999903    2    3    3    0    0  0.61400400747E-02  0.87965458361E-01  0.94773129282E-01  0.13098141294E+00  0.19964031289E-01 0.  0.
         14    1    1    2    0    0 -0.81570539263E-02 -0.17146890895E-01  0.13767449363E-01  0.23454126674E-01  0.00000000000E+00 0. -1.
     999901    1    3    3    0    0  0.20170138516E-02 -0.70818567466E-01 -0.10854057864E+00  0.88949446038E+00  0.88000000000E+00 0. -1.
        -11    1    4    4    0    0 -0.16988790186E-02  0.17332686432E-01  0.90613666087E-02  0.19638678537E-01  0.51100000000E-03 0. -1.
         11    1    4    4    0    0  0.78389190932E-02  0.70632771929E-01  0.85711762673E-01  0.11134273440E+00  0.51100000000E-03 0.  1.
</event>
<event>
 8    1  0.1079508E+005  0.1043930E+01  0.7957747E-01            NaN
         13   -1    0    0    0    0  0.00000000000E+00  0.00000000000E+00  0.74505805969E-08  0.10566000000E+00  0.10566000000E+00 0.  1.
     999900   -1    0    0    0    0 -0.00000000000E+00 -0.00000000000E+00 -0.74505805969E-08  0.93827000000E+00  0.93827000000E+00 0. -1.
     999902    2    1    2    0    0 -0.13863293657E-01 -0.27850341083E-02 -0.28707016499E-01  0.10119293731E+01  0.10114232625E+01 0.  0.
     999903    2    3    3    0    0 -0.91254093751E-03 -0.94685196424E-01  0.72958335212E-01  0.12122784870E+00  0.20178044246E-01 0.  0.
         14    1    1    2    0    0  0.13863293657E-01  0.27850341083E-02  0.28707016499E-01  0.32000626904E-01  0.00000000000E+00 0.  1.
     999901    1    3    3    0    0 -0.12950752720E-01  0.91900162316E-01 -0.10166535171E+00  0.89070152440E+00  0.88000000000E+00 0. -1.
        -11    1    4    4    0    0  0.74520613475E-02 -0.59664262662E-01  0.38579025138E-01  0.71442002764E-01  0.51100000000E-03 0.  1.
         11    1    4    4    0    0 -0.83646022851E-02 -0.35020933762E-01  0.34379310074E-01  0.49785845932E-01  0.51100000000E-03 0. -1.
</event>
<event>
 8    1  0.1079508E+005  0.1043930E+01  0.7957747E-01            NaN
         13   -1    0    0    0    0  0.00000000000E+00  0.00000000000E+00  0.74505805969E-08  0.10566000000E+00  0.10566000000E+00 0. -1.
     999900   -1    0    0    0    0 -0.00000000000E+00 -0.00000000000E+00 -0.74505805969E-08  0.93827000000E+00  0.93827000000E+00 0.  1.
     999902    2    1    2    0    0 -0.19531809962E-01  0.30395853069E-02 -0.12608833792E-01  0.10204840330E+01  0.10202146579E+01 0.  0.
     999903    2    3    3    0    0 -0.83177853734E-01 -0.43289794341E-02 -0.10229823433E+00  0.13360788426E+00  0.21185905074E-01 0.  0.
         14    1    1    2    0    0  0.19531809962E-01 -0.30395853069E-02  0.12608833792E-01  0.23445967006E-01  0.00000000000E+00 0. -1.
     999901    1    3    3    0    0  0.63646043772E-01  0.73685647410E-02  0.89689400536E-01  0.88687614874E+00  0.88000000000E+00 0. -1.
        -11    1    4    4    0    0 -0.14539483403E-01 -0.85803498916E-02 -0.24672581168E-01  0.29900106427E-01  0.51100000000E-03 0.  1.
         11    1    4    4    0    0 -0.68638370330E-01  0.42513704575E-02 -0.77625653160E-01  0.10370777783E+00  0.51100000000E-03 0. -1.
</event>
<event>
 8    1  0.1079508E+005  0.1043930E+01  0.7957747E-01            NaN
         13   -1    0    0    0    0  0.00000000000E+00  0.00000000000E+00  0.74505805969E-08  0.10566000000E+00  0.10566000000E+00 0.  1.
     999900   -1    0    0    0    0 -0.00000000000E+00 -0.00000000000E+00 -0.74505805969E-08  0.93827000000E+00  0.93827000000E+00 0.  1.
     999902    2    1    2    0    0  0.70132509732E-02  0.33051369596E-02  0.22351262194E-01  0.10202722626E+01  0.10199979418E+01 0.  0.
     999903    2    3    3    0    0  0.61445205363E-01 -0.11045877765E+00 -0.23593150766E-01  0.13009477743E+00  0.19782808939E-01 0.  0.
         14    1    1    2    0    0 -0.70132509732E-02 -0.33051369596E-02 -0.22351262194E-01  0.23657737449E-01  0.00000000000E+00 0. -1.
     999901    1    3    3    0    0 -0.54431954390E-01  0.11376391461E+00  0.45944412960E-01  0.89017748512E+00  0.88000000000E+00 0.  1.
        -11    1    4    4    0    0  0.40201687658E-01 -0.72589331292E-01 -0.24950025194E-01  0.86649590802E-01  0.51100000000E-03 0. -1.
         11    1    4    4    0    0  0.21243517706E-01 -0.37869446363E-01  0.13568744277E-02  0.43445186633E-01  0.51100000000E-03 0.  1.
</event>
<event>
 8    1  0.1079508E+005  0.1043930E+01  0.7957747E-01            NaN
         13   -1    0    0    0    0  0.00000000000E+00  0.00000000000E+00  0.74505805969E-08  0.10566000000E+00  0.10566000000E+00 0.  1.
     999900   -1    0    0    0    0 -0.00000000000E+00 -0.00000000000E+00 -0.74505805969E-08  0.93827000000E+00  0.93827000000E+00 0.  1.
     999902    2    1    2    0    0 -0.36465405918E-02  0.89746938367E-02 -0.23218573560E-01  0.10187716108E+01  0.10184609224E+01 0.  0.
     999903    2    3    3    0    0  0.30044660560E-01 -0.12217463998E+00 -0.16242860340E-01  0.12838747722E+00  0.19753215236E-01 0.  0.
         14    1    1    2    0    0  0.36465405918E-02 -0.89746938367E-02  0.23218573560E-01  0.25158389176E-01  0.00000000000E+00 0.  1.
     999901    1    3    3    0    0 -0.33691201152E-01  0.13114933382E+00 -0.69757132205E-02  0.89038413360E+00  0.88000000000E+00 0.  1.
        -11    1    4    4    0    0  0.25907405586E-01 -0.65616710752E-01 -0.65181869814E-02  0.70848389372E-01  0.51100000000E-03 0. -1.
         11    1    4    4    0    0  0.41372549743E-02 -0.56557929231E-01 -0.97246733585E-02  0.57539087850E-01  0.51100000000E-03 0.  1.
</event>
<event>
 8    1  0.1079508E+005  0.1043930E+01  0.7957747E-01            NaN
         13   -1    0    0    0    0  0.00000000000E+00  0.00000000000E+00  0.74505805969E-08  0.10566000000E+00  0.10566000000E+00 0. -1.
     999900   -1    0    0    0    0 -0.00000000000E+00 -0.00000000000E+00 -0.74505805969E-08  0.93827000000E+00  0.93827000000E+00 0.  1.
     999902    2    1    2    0    0  0.17116398361E-01 -0.13930009086E-01  0.87947223196E-02  0.10201736664E+01  0.10198970273E+01 0.  0.
     999903    2    3    3    0    0  0.81128018700E-01 -0.79590302796E-01  0.65642905374E-01  0.13358442800E+00  0.24888484505E-01 0.  0.
         14    1    1    2    0    0 -0.17116398361E-01  0.13930009086E-01 -0.87947223196E-02  0.23756333612E-01  0.00000000000E+00 0.  1.
     999901    1    3    3    0    0 -0.64011620339E-01  0.65660293710E-01 -0.56848183054E-01  0.88658923839E+00  0.88000000000E+00 0.  1.
        -11    1    4    4    0    0  0.78789819806E-01 -0.69083202059E-01  0.63711058776E-01  0.12263639200E+00  0.51100000000E-03 0.  1.
         11    1    4    4    0    0  0.23381988945E-02 -0.10507100737E-01  0.19318465982E-02  0.10948035999E-01  0.51100000000E-03 0. -1.
</event>
<event>
 8    1  0.1079508E+005  0.1043930E+01  0.7957747E-01            NaN
         13   -1    0    0    0    0  0.00000000000E+00  0.00000000000E+00  0.74505805969E-08  0.10566000000E+00  0.10566000000E+00 0. -1.
     999900   -1    0    0    0    0 -0.00000000000E+00 -0.00000000000E+00 -0.74505805969E-08  0.93827000000E+00  0.93827000000E+00 0. -1.
     999902    2    1    2    0    0  0.15884321454E-01  0.72855762448E-02  0.16516850592E-01  0.10198842594E+01  0.10196007576E+01 0.  0.
     999903    2    3    3    0    0  0.93581614604E-01 -0.54003024604E-01  0.74017751687E-01  0.13247256484E+00  0.19912498871E-01 0.  0.
         14    1    1    2    0    0 -0.15884321454E-01 -0.72855762448E-02 -0.16516850592E-01  0.24045740637E-01  0.00000000000E+00 0. -1.
     999901    1    3    3    0    0 -0.77697293150E-01  0.61288600849E-01 -0.57500901094E-01  0.88741169453E+00  0.88000000000E+00 0.  1.
        -11    1    4    4    0    0  0.49098007065E-01 -0.34455247067E-01  0.30736779693E-01  0.67400215838E-01  0.51100000000E-03 0.  1.
         11    1    4    4    0    0  0.44483607539E-01 -0.19547777537E-01  0.43280971994E-01  0.65072348998E-01  0.51100000000E-03 0. -1.
</event>
<event>
 8    1  0.1079508E+005  0.1043930E+01  0.7957747E-01            NaN
         13   -1    0    0    0    0  0.00000000000E+00  0.00000000000E+00  0.74505805969E-08  0.10566000000E+00  0.10566000000E+00 0. -1.
     999900   -1    0    0    0    0 -0.00000000000E+00 -0.00000000000E+00 -0.74505805969E-08  0.93827000000E+00  0.93827000000E+00 0. -1.
     999902    2    1    2    0    0 -0.12930089319E-01 -0.18606427671E-01  0.79801910552E-02  0.10199077226E+01  0.10196247804E+01 0.  0.
     999903    2    3    3    0    0  0.16010435436E-01  0.90491412606E-01  0.88297697865E-01  0.12907059127E+00  0.20437815034E-01 0.  0.
         14    1    1    2    0    0  0.12930089319E-01  0.18606427671E-01 -0.79801910552E-02  0.24022277364E-01  0.00000000000E+00 0.  1.
     999901    1    3    3    0    0 -0.28940524755E-01 -0.10909784028E+00 -0.80317506810E-01  0.89083713137E+00  0.88000000000E+00 0. -1.
        -11    1    4    4    0    0  0.14733676906E-01  0.44045453167E-01  0.54531961054E-01  0.71631550851E-01  0.51100000000E-03 0.  1.
         11    1    4    4    0    0  0.12767585299E-02  0.46445959438E-01  0.33765736812E-01  0.57439040416E-01  0.51100000000E-03 0. -1.
</event>
<event>
 8    1  0.1079508E+005  0.1043930E+01  0.7957747E-01            NaN
         13   -1    0    0    0    0  0.00000000000E+00  0.00000000000E+00  0.74505805969E-08  0.10566000000E+00  0.10566000000E+00 0. -1.
     999900   -1    0    0    0    0 -0.00000000000E+00 -0.00000000000E+00 -0.74505805969E-08  0.93827000000E+00  0.93827000000E+00 0. -1.
     999902    2    1    2    0    0 -0.24040413772E-01 -0.59090728150E-03 -0.20793526058E-03  0.10198814262E+01  0.10195978568E+01 0.  0.
     999903    2    3    3    0    0  0.73008137495E-01  0.10122928464E+00 -0.24875922676E-01  0.12836906934E+00  0.16800304346E-01 0.  0.
         14    1    1    2    0    0  0.24040413772E-01  0.59090728150E-03  0.20793526058E-03  0.24048573821E-01  0.00000000000E+00 0. -1.
     999901    1    3    3    0    0 -0.97048551267E-01 -0.10182019192E+00  0.24667987416E-01  0.89151235683E+00  0.88000000000E+00 0.  1.
        -11    1    4    4    0    0  0.32063721664E-01  0.57691240869E-01 -0.16309207986E-01  0.67989800015E-01  0.51100000000E-03 0. -1.
         11    1    4    4    0    0  0.40944415831E-01  0.43538043771E-01 -0.85667146904E-02  0.60379269330E-01  0.51100000000E-03 0.  1.
</event>
<event>
 8    1  0.1079508E+005  0.1043930E+01  0.7957747E-01            NaN
         13   -1    0    0    0    0  0.00000000000E+00  0.00000000000E+00  0.74505805969E-08  0.10566000000E+00  0.10566000000E+00 0.  1.
     999900   -1    0    0    0    0 -0.00000000000E+00 -0.00000000000E+00 -0.74505805969E-08  0.93827000000E+00  0.93827000000E+00 0. -1.
     999902    2    1    2    0    0 -0.65344595672E-02  0.22507172454E-01 -0.41893536437E-02  0.10201219623E+01  0.10198441035E+01 0.  0.
     999903    2    3    3    0    0 -0.71011269267E-01  0.10699749551E+00  0.28812610271E-01  0.13311294135E+00  0.19945531708E-01 0.  0.
         14    1    1    2    0    0  0.65344595672E-02 -0.22507172454E-01  0.41893536437E-02  0.23808037669E-01  0.00000000000E+00 0.  1.
     999901    1    3    3    0    0  0.64476809699E-01 -0.84490323060E-01 -0.33001963915E-01  0.88700902098E+00  0.88000000000E+00 0. -1.
        -11    1    4    4    0    0 -0.63218453222E-01  0.88314055527E-01  0.30446639797E-01  0.11279718182E+00  0.51100000000E-03 0.  1.
         11    1    4    4    0    0 -0.77928160447E-02  0.18683439986E-01 -0.16340295258E-02  0.20315759526E-01  0.51100000000E-03 0. -1.
</event>
<event>
 8    1  0.1079508E+005  0.1043930E+01  0.7957747E-01            NaN
         13   -1    0    0    0    0  0.00000000000E+00  0.00000000000E+00  0.74505805969E-08  0.10566000000E+00  0.10566000000E+00 0. -1.
     999900   -1    0    0    0    0 -0.00000000000E+00 -0.00000000000E+00 -0.74505805969E-08  0.93827000000E+00  0.93827000000E+00 0.  1.
     999902    2    1    2    0    0 -0.16294950578E-01 -0.17463051255E-02 -0.18018057694E-01  0.10195737811E+01  0.10192828213E+01 0.  0.
     999903    2    3    3    0    0 -0.84505641889E-01 -0.93144599066E-02 -0.10046080068E+00  0.13305994520E+00  0.19611574846E-01 0.  0.
         14    1    1    2    0    0  0.16294950578E-01  0.17463051255E-02  0.18018057694E-01  0.24356218898E-01  0.00000000000E+00 0.  1.
     999901    1    3    3    0    0  0.68210691312E-01  0.75681547810E-02  0.82442742989E-01  0.88651383590E+00  0.88000000000E+00 0. -1.
        -11    1    4    4    0    0 -0.33619776128E-01  0.57750452733E-02 -0.37002707851E-01  0.50329931493E-01  0.51100000000E-03 0.  1.
         11    1    4    4    0    0 -0.50885865762E-01 -0.15089505180E-01 -0.63458092832E-01  0.82730013706E-01  0.51100000000E-03 0. -1.
</event>
<event>
 8    1  0.1079508E+005  0.1043930E+01  0.7957747E-01            NaN
         13   -1    0    0    0    0  0.00000000000E+00  0.00000000000E+00  0.74505805969E-08  0.10566000000E+00  0.10566000000E+00 0. -1.
     999900   -1    0    0    0    0 -0.00000000000E+00 -0.00000000000E+00 -0.74505805969E-08  0.93827000000E+00  0.93827000000E+00 0.  1.
     999902    2    1    2    0    0  0.15344475175E-01  0.12381849107E-01  0.13226944513E-01  0.10201873134E+01  0.10199109958E+01 0.  0.
     999903    2    3    3    0    0  0.64413307193E-01  0.11378327950E+00 -0.10640942428E-01  0.13268538305E+00  0.19911614211E-01 0.  0.
         14    1    1    2    0    0 -0.15344475175E-01 -0.12381849107E-01 -0.13226944513E-01  0.23742686597E-01  0.00000000000E+00 0.  1.
     999901    1    3    3    0    0 -0.49068832018E-01 -0.10140143039E+00  0.23867886941E-01  0.88750193036E+00  0.88000000000E+00 0.  1.
        -11    1    4    4    0    0  0.48179990917E-01  0.86994801777E-01 -0.16524368132E-01  0.10081033144E+00  0.51100000000E-03 0. -1.
         11    1    4    4    0    0  0.16233316276E-01  0.26788477725E-01  0.58834257042E-02  0.31875051610E-01  0.51100000000E-03 0.  1.
</event>
<event>
 8    1  0.1079508E+005  0.1043930E+01  0.7957747E-01            NaN
         13   -1    0    0    0    0  0.00000000000E+00  0.00000000000E+00  0.74505805969E-08  0.10566000000E+00  0.10566000000E+00 0. -1.
     999900   -1    0    0    0    0 -0.00000000000E+00 -0.00000000000E+00 -0.74505805969E-08  0.93827000000E+00  0.93827000000E+00 0. -1.
     999902    2    1    2    0    0  0.16162227671E-01  0.43485654935E-02 -0.16657210884E-01  0.10203166500E+01  0.10200433696E+01 0.  0.
     999903    2    3    3    0    0 -0.36532938087E-01  0.12365945075E+00  0.14238771273E-02  0.13051959807E+00  0.20174804293E-01 0.  0.
         14    1    1    2    0    0 -0.16162227671E-01 -0.43485654935E-02  0.16657210884E-01  0.23613350029E-01  0.00000000000E+00 0. -1.
     999901    1    3    3    0    0  0.52695165758E-01 -0.11931088526E+00 -0.18081088012E-01  0.88979705190E+00  0.88000000000E+00 0. -1.
        -11    1    4    4    0    0 -0.12763358456E-01  0.18869681004E-01  0.34570421334E-02  0.23047352160E-01  0.51100000000E-03 0.  1.
         11    1    4    4    0    0 -0.23769579631E-01  0.10478976975E+00 -0.20331650060E-02  0.10747224591E+00  0.51100000000E-03 0. -1.
</event>
<event>
 8    1  0.1079508E+005  0.1043930E+01  0.7957747E-01            NaN
         13   -1    0    0    0    0  0.00000000000E+00  0.00000000000E+00  0.74505805969E-08  0.10566000000E+00  0.10566000000E+00 0.  1.
     999900   -1    0    0    0    0 -0.00000000000E+00 -0.00000000000E+00 -0.74505805969E-08  0.93827000000E+00  0.93827000000E+00 0. -1.
     999902    2    1    2    0    0  0.76901580645E-02  0.11893238135E-01  0.18651102097E-01  0.10205109639E+01  0.10202422144E+01 0.  0.
     999903    2    3    3    0    0 -0.27630494719E-01  0.10896076801E+00  0.68135729048E-01  0.13308863927E+00  0.20837829204E-01 0.  0.
         14    1    1    2    0    0 -0.76901580645E-02 -0.11893238135E-01 -0.18651102097E-01  0.23419036142E-01  0.00000000000E+00 0. -1.
     999901    1    3    3    0    0  0.35320652784E-01 -0.97067529877E-01 -0.49484626951E-01  0.88742232459E+00  0.88000000000E+00 0. -1.
        -11    1    4    4    0    0 -0.84552889817E-02  0.62926257808E-01  0.29550590784E-01  0.70033594582E-01  0.51100000000E-03 0. -1.
         11    1    4    4    0    0 -0.19175205738E-01  0.46034510205E-01  0.38585138265E-01  0.63055044689E-01  0.51100000000E-03 0.  1.
</event>
<event>
 8    1  0.1079508E+005  0.1043930E+01  0.7957747E-01            NaN
         13   -1    0    0    0    0  0.00000000000E+00  0.00000000000E+00  0.74505805969E-08  0.10566000000E+00  0.10566000000E+00 0. -1.
     999900   -1    0    0    0    0 -0.00000000000E+00 -0.00000000000E+00 -0.74505805969E-08  0.93827000000E+00  0.93827000000E+00 0.  1.
     999902    2    1    2    0    0  0.11876144236E-01 -0.21345550553E-01 -0.45868431261E-02  0.10190761379E+01  0.10187730171E+01 0.  0.
     999903    2    3    3    0    0  0.37122734648E-01  0.11842708388E+00 -0.21742207180E-01  0.12752238958E+00  0.19651072435E-01 0.  0.
         14    1    1    2    0    0 -0.11876144236E-01  0.21345550553E-01  0.45868431261E-02  0.24853862078E-01  0.00000000000E+00 0.  1.
     999901    1    3    3    0    0 -0.25246590413E-01 -0.13977263443E+00  0.17155364054E-01  0.89155374834E+00  0.88000000000E+00 0.  1.
        -11    1    4    4    0    0  0.91588592304E-02  0.60784836188E-01 -0.13348185824E-01  0.62905613411E-01  0.51100000000E-03 0.  1.
         11    1    4    4    0    0  0.27963875418E-01  0.57642247691E-01 -0.83940213562E-02  0.64616776172E-01  0.51100000000E-03 0. -1.
</event>
<event>
 8    1  0.1079508E+005  0.1043930E+01  0.7957747E-01            NaN
         13   -1    0    0    0    0  0.00000000000E+00  0.00000000000E+00  0.74505805969E-08  0.10566000000E+00  0.10566000000E+00 0. -1.
     999900   -1    0    0    0    0 -0.00000000000E+00 -0.00000000000E+00 -0.74505805969E-08  0.93827000000E+00  0.93827000000E+00 0.  1.
     999902    2    1    2    0    0  0.91044003708E-02 -0.69217950232E-02  0.20718503981E-01  0.10202644605E+01  0.10199899566E+01 0.  0.
     999903    2    3    3    0    0 -0.12309574947E+00  0.33931305896E-01 -0.24350433464E-02  0.12915170545E+00  0.19244129674E-01 0.  0.
         14    1    1    2    0    0 -0.91044003708E-02  0.69217950232E-02 -0.20718503981E-01  0.23665539496E-01  0.00000000000E+00 0.  1.
     999901    1    3    3    0    0  0.13220014984E+00 -0.40853100919E-01  0.23153547327E-01  0.89111275506E+00  0.88000000000E+00 0.  1.
        -11    1    4    4    0    0 -0.70338896055E-01  0.14757363101E-01  0.70633203768E-02  0.72218361098E-01  0.51100000000E-03 0. -1.
         11    1    4    4    0    0 -0.52756853412E-01  0.19173942796E-01 -0.94983637233E-02  0.56933344349E-01  0.51100000000E-03 0.  1.
</event>
<event>
 8    1  0.1079508E+005  0.1043930E+01  0.7957747E-01            NaN
         13   -1    0    0    0    0  0.00000000000E+00  0.00000000000E+00  0.74505805969E-08  0.10566000000E+00  0.10566000000E+00 0. -1.
     999900   -1    0    0    0    0 -0.00000000000E+00 -0.00000000000E+00 -0.74505805969E-08  0.93827000000E+00  0.93827000000E+00 0. -1.
     999902    2    1    2    0    0 -0.10064760391E-01  0.22478637200E-01  0.14200756184E-03  0.10193005725E+01  0.10190029678E+01 0.  0.
     999903    2    3    3    0    0 -0.10355926651E+00  0.19848607631E-01 -0.75437677090E-01  0.13112242121E+00  0.19589724676E-01 0.  0.
         14    1    1    2    0    0  0.10064760391E-01 -0.22478637200E-01 -0.14200756184E-03  0.24629427485E-01  0.00000000000E+00 0. -1.
     999901    1    3    3    0    0  0.93494506121E-01  0.26300295683E-02  0.75579684652E-01  0.88817815131E+00  0.88000000000E+00 0.  1.
        -11    1    4    4    0    0 -0.87395960088E-01  0.16430077082E-01 -0.71559577141E-01  0.11414480047E+00  0.51100000000E-03 0. -1.
         11    1    4    4    0    0 -0.16163306424E-01  0.34185305492E-02 -0.38780999495E-02  0.16977620737E-01  0.51100000000E-03 0.  1.
</event>
<event>
 8    1  0.1079508E+005  0.1043930E+01  0.7957747E-01            NaN
         13   -1    0    0    0    0  0.00000000000E+00  0.00000000000E+00  0.74505805969E-08  0.10566000000E+00  0.10566000000E+00 0.  1.
     999900   -1    0    0    0    0 -0.00000000000E+00 -0.00000000000E+00 -0.74505805969E-08  0.93827000000E+00  0.93827000000E+00 0. -1.
     999902    2    1    2    0    0 -0.37804861728E-02 -0.17012968688E-01  0.18076730286E-01  0.10188202139E+01  0.10185107397E+01 0.  0.
     999903    2    3    3    0    0  0.63907338697E-01 -0.11229585248E+00  0.68196399369E-02  0.13102114224E+00  0.20628276761E-01 0.  0.
         14    1    1    2    0    0  0.37804861728E-02  0.17012968688E-01 -0.18076730286E-01  0.25109786082E-01  0.00000000000E+00 0. -1.
     999901    1    3    3    0    0 -0.67687824870E-01  0.95282883794E-01  0.11257090349E-01  0.88779907167E+00  0.88000000000E+00 0. -1.
        -11    1    4    4    0    0  0.43362873514E-01 -0.88197188782E-01  0.11699779313E-01  0.98975900428E-01  0.51100000000E-03 0. -1.
         11    1    4    4    0    0  0.20544465183E-01 -0.24098663701E-01 -0.48801393762E-02  0.32045241817E-01  0.51100000000E-03 0.  1.
</event>
<event>
 8    1  0.1079508E+005  0.1043930E+01  0.7957747E-01            NaN
         13   -1    0    0    0    0  0.00000000000E+00  0.00000000000E+00  0.74505805969E-08  0.10566000000E+00  0.10566000000E+00 0.  1.
     999900   -1    0    0    0    0 -0.00000000000E+00 -0.00000000000E+00 -0.74505805969E-08  0.93827000000E+00  0.93827000000E+00 0. -1.
     999902    2    1    2    0    0  0.11144388120E-01  0.91172852460E-03  0.20583629370E-01  0.10205053456E+01  0.10202364657E+01 0.  0.
     999903    2    3    3    0    0 -0.40534625732E-01  0.41316564121E-01  0.11771043175E+00  0.13273460552E+00  0.20312936914E-01 0.  0.
         14    1    1    2    0    0 -0.11144388120E-01 -0.91172852460E-03 -0.20583629370E-01  0.23424654395E-01  0.00000000000E+00 0. -1.
     999901    1    3    3    0    0  0.51679013852E-01 -0.40404835596E-01 -0.97126802378E-01  0.88777074009E+00  0.88000000000E+00 0. -1.
        -11    1    4    4    0    0 -0.92260698805E-02  0.23626562068E-01  0.47654377341E-01  0.53986439050E-01  0.51100000000E-03 0. -1.
         11    1    4    4    0    0 -0.31308555852E-01  0.17690002053E-01  0.70056054407E-01  0.78748166469E-01  0.51100000000E-03 0.  1.
</event>
<event>
 8    1  0.1079508E+005  0.1043930E+01  0.7957747E-01            NaN
         13   -1    0    0    0    0  0.00000000000E+00  0.00000000000E+00  0.74505805969E-08  0.10566000000E+00  0.10566000000E+00 0. -1.
     999900   -1    0    0    0    0 -0.00000000000E+00 -0.00000000000E+00 -0.74505805969E-08  0.93827000000E+00  0.93827000000E+00 0.  1.
     999902    2    1    2    0    0 -0.24976103181E-01 -0.54824201105E-02 -0.10770050133E-01  0.10161837094E+01  0.10158048408E+01 0.  0.
     999903    2    3    3    0    0 -0.27813256074E-01  0.39529821701E-01 -0.11744479906E+00  0.12859503589E+00  0.20179653395E-01 0.  0.
         14    1    1    2    0    0  0.24976103181E-01  0.54824201105E-02  0.10770050133E-01  0.27746290567E-01  0.00000000000E+00 0. -1.
     999901    1    3    3    0    0  0.28371528930E-02 -0.45012241811E-01  0.10667474893E+00  0.88758867355E+00  0.88000000000E+00 0. -1.
        -11    1    4    4    0    0 -0.27946466633E-01  0.31022925907E-01 -0.80570676875E-01  0.90748675044E-01  0.51100000000E-03 0. -1.
         11    1    4    4    0    0  0.13321055846E-03  0.85068957941E-02 -0.36874122185E-01  0.37846360842E-01  0.51100000000E-03 0.  1.
</event>
<event>
 8    1  0.1079508E+005  0.1043930E+01  0.7957747E-01            NaN
         13   -1    0    0    0    0  0.00000000000E+00  0.00000000000E+00  0.74505805969E-08  0.10566000000E+00  0.10566000000E+00 0.  1.
     999900   -1    0    0    0    0 -0.00000000000E+00 -0.00000000000E+00 -0.74505805969E-08  0.93827000000E+00  0.93827000000E+00 0.  1.
     999902    2    1    2    0    0 -0.12977466577E-01  0.93619105585E-02  0.16974023358E-01  0.10206023881E+01  0.10203357571E+01 0.  0.
     999903    2    3    3    0    0  0.78015433849E-01  0.76113994742E-01 -0.66852449278E-01  0.12944447494E+00  0.20171118059E-01 0.  0.
         14    1    1    2    0    0  0.12977466577E-01 -0.93619105585E-02 -0.16974023358E-01  0.23327611901E-01  0.00000000000E+00 0. -1.
     999901    1    3    3    0    0 -0.90992900426E-01 -0.66752084183E-01  0.83826472636E-01  0.89115791316E+00  0.88000000000E+00 0. -1.
        -11    1    4    4    0    0  0.43967468543E-01  0.37360335160E-01 -0.24448200126E-01  0.62665050417E-01  0.51100000000E-03 0. -1.
         11    1    4    4    0    0  0.34047965306E-01  0.38753659582E-01 -0.42404249152E-01  0.66779424523E-01  0.51100000000E-03 0.  1.
</event>
<event>
 8    1  0.1079508E+005  0.1043930E+01  0.7957747E-01            NaN
         13   -1    0    0    0    0  0.00000000000E+00  0.00000000000E+00  0.74505805969E-08  0.10566000000E+00  0.10566000000E+00 0. -1.
     999900   -1    0    0    0    0 -0.00000000000E+00 -0.00000000000E+00 -0.74505805969E-08  0.93827000000E+00  0.93827000000E+00 0. -1.
     999902    2    1    2    0    0  0.10409896322E-01  0.16617335348E-01  0.10966764800E-01  0.10214628750E+01  0.10212157624E+01 0.  0.
     999903    2    3    3    0    0  0.95309802920E-01 -0.83327897553E-01 -0.26675121536E-01  0.13094956498E+00  0.20217057554E-01 0.  0.
         14    1    1    2    0    0 -0.10409896322E-01 -0.16617335348E-01 -0.10966764800E-01  0.22467124998E-01  0.00000000000E+00 0. -1.
     999901    1    3    3    0    0 -0.84899906598E-01  0.99945232901E-01  0.37641886337E-01  0.89051331002E+00  0.88000000000E+00 0. -1.
        -11    1    4    4    0    0  0.18075628197E-01 -0.24863606387E-01 -0.11873234408E-01  0.32956973064E-01  0.51100000000E-03 0.  1.
         11    1    4    4    0    0  0.77234174722E-01 -0.58464291166E-01 -0.14801887129E-01  0.97992591915E-01  0.51100000000E-03 0. -1.
</event>
<event>
 8    1  0.1079508E+005  0.1043930E+01  0.7957747E-01            NaN
         13   -1    0    0    0    0  0.00000000000E+00  0.00000000000E+00  0.74505805969E-08  0.10566000000E+00  0.10566000000E+00 0.  1.
     999900   -1    0    0    0    0 -0.00000000000E+00 -0.00000000000E+00 -0.74505805969E-08  0.93827000000E+00  0.93827000000E+00 0.  1.
     999902    2    1    2    0    0 -0.17406754852E-01 -0.16228174143E-01  0.11878890905E-02  0.10201022886E+01  0.10198239649E+01 0.  0.
     999903    2    3    3    0    0 -0.38740674937E-01 -0.59295829378E-02 -0.12329116463E+00  0.13102623338E+00  0.20764457841E-01 0.  0.
         14    1    1    2    0    0  0.17406754852E-01  0.16228174143E-01 -0.11878890905E-02  0.23827711409E-01  0.00000000000E+00 0. -1.
     999901    1    3    3    0    0  0.21333920085E-01 -0.10298591206E-01  0.12447905372E+00  0.88907605521E+00  0.88000000000E+00 0. -1.
        -11    1    4    4    0    0 -0.14950582137E-01  0.78016971491E-02 -0.45705625907E-01  0.48720136958E-01  0.51100000000E-03 0. -1.
         11    1    4    4    0    0 -0.23790092800E-01 -0.13731280087E-01 -0.77585538727E-01  0.82306096426E-01  0.51100000000E-03 0.  1.
</event>
<event>
 8    1  0.1079508E+005  0.1043930E+01  0.7957747E-01            NaN
         13   -1    0    0    0    0  0.00000000000E+00  0.00000000000E+00  0.74505805969E-08  0.10566000000E+00  0.10566000000E+00 0.  1.
     999900   -1    0    0    0    0 -0.00000000000E+00 -0.00000000000E+00 -0.74505805969E-08  0.93827000000E+00  0.93827000000E+00 0.  1.
     999902    2    1    2    0    0 -0.14496297112E-02 -0.18410973145E-02 -0.23829181694E-01  0.10199858783E+01  0.10197047960E+01 0.  0.
     999903    2    3    3    0    0  0.77939060379E-01 -0.29037691027E-01  0.95196051172E-01  0.12801658233E+00  0.20205755622E-01 0.  0.
         14    1    1    2    0    0  0.14496297112E-02  0.18410973145E-02  0.23829181694E-01  0.23944121738E-01  0.00000000000E+00 0.  1.
     999901    1    3    3    0    0 -0.79388690090E-01  0.27196593712E-01 -0.11902523287E+00  0.89196929593E+00  0.88000000000E+00 0.  1.
        -11    1    4    4    0    0  0.71242813355E-01 -0.19478488699E-01  0.83657717331E-01  0.11159670590E+00  0.51100000000E-03 0.  1.
         11    1    4    4    0    0  0.66962470237E-02 -0.95592023279E-02  0.11538333841E-01  0.16419876436E-01  0.51100000000E-03 0. -1.
</event>
<event>
 8    1  0.1079508E+005  0.1043930E+01  0.7957747E-01            NaN
         13   -1    0    0    0    0  0.00000000000E+00  0.00000000000E+00  0.74505805969E-08  0.10566000000E+00  0.10566000000E+00 0. -1.
     999900   -1    0    0    0    0 -0.00000000000E+00 -0.00000000000E+00 -0.74505805969E-08  0.93827000000E+00  0.93827000000E+00 0.  1.
     999902    2    1    2    0    0  0.10259248495E-01  0.20331771511E-01  0.15574724945E-02  0.10211032869E+01  0.10208481100E+01 0.  0.
     999903    2    3    3    0    0  0.52113124722E-01 -0.42225278512E-01 -0.11058117618E+00  0.13079985095E+00  0.19535930210E-01 0.  0.
         14    1    1    2    0    0 -0.10259248495E-01 -0.20331771511E-01 -0.15574724945E-02  0.22826713146E-01  0.00000000000E+00 0. -1.
     999901    1    3    3    0    0 -0.41853876227E-01  0.62557050023E-01  0.11213864867E+00  0.89030343591E+00  0.88000000000E+00 0. -1.
        -11    1    4    4    0    0  0.37160711886E-01 -0.39534549782E-01 -0.91811429022E-01  0.10664660686E+00  0.51100000000E-03 0. -1.
         11    1    4    4    0    0  0.14952412835E-01 -0.26907287300E-02 -0.18769747155E-01  0.24153244088E-01  0.51100000000E-03 0.  1.
</event>
<event>
 8    1  0.1079508E+005  0.1043930E+01  0.7957747E-01            NaN
         13   -1    0    0    0    0  0.00000000000E+00  0.00000000000E+00  0.74505805969E-08  0.10566000000E+00  0.10566000000E+00 0.  1.
     999900   -1    0    0    0    0 -0.00000000000E+00 -0.00000000000E+00 -0.74505805969E-08  0.93827000000E+00  0.93827000000E+00 0.  1.
     999902    2    1    2    0    0  0.14192395499E-01  0.90602080669E-02  0.17384680801E-01  0.10197279632E+01  0.10194407194E+01 0.  0.
     999903    2    3    3    0    0  0.71010425944E-01 -0.10163844272E+00 -0.31963184481E-01  0.12960567288E+00  0.20078138552E-01 0.  0.
         14    1    1    2    0    0 -0.14192395499E-01 -0.90602080669E-02 -0.17384680801E-01  0.24202036831E-01  0.00000000000E+00 0.  1.
     999901    1    3    3    0    0 -0.56818030445E-01  0.11069865079E+00  0.49347865282E-01  0.89012229029E+00  0.88000000000E+00 0. -1.
        -11    1    4    4    0    0  0.28723730772E-01 -0.31918824023E-01 -0.29105984122E-02  0.43041802246E-01  0.51100000000E-03 0. -1.
         11    1    4    4    0    0  0.42286695172E-01 -0.69719618699E-01 -0.29052586068E-01  0.86563870629E-01  0.51100000000E-03 0.  1.
</event>
<event>
 8    1  0.1079508E+005  0.1043930E+01  0.7957747E-01            NaN
         13   -1    0    0    0    0  0.00000000000E+00  0.00000000000E+00  0.74505805969E-08  0.10566000000E+00  0.10566000000E+00 0. -1.
     999900   -1    0    0    0    0 -0.00000000000E+00 -0.00000000000E+00 -0.74505805969E-08  0.93827000000E+00  0.93827000000E+00 0. -1.
     999902    2    1    2    0    0  0.11794848635E-01 -0.18894024199E-01  0.82539637421E-02  0.10201764630E+01  0.10198998897E+01 0.  0.
     999903    2    3    3    0    0  0.24499341392E-01 -0.12546240670E+00  0.32326243586E-01  0.13332940796E+00  0.19766430620E-01 0.  0.
         14    1    1    2    0    0 -0.11794848635E-01  0.18894024199E-01 -0.82539637421E-02  0.23753537046E-01  0.00000000000E+00 0.  1.
     999901    1    3    3    0    0 -0.12704492757E-01  0.10656838250E+00 -0.24072279844E-01  0.88684705499E+00  0.88000000000E+00 0.  1.
        -11    1    4    4    0    0  0.39143450115E-02 -0.44096378895E-01  0.19684550377E-01  0.48451577612E-01  0.51100000000E-03 0.  1.
         11    1    4    4    0    0  0.20584996380E-01 -0.81366027808E-01  0.12641693209E-01  0.84877830353E-01  0.51100000000E-03 0. -1.
</event>
<event>
 8    1  0.1079508E+005  0.1043930E+01  0.7957747E-01            NaN
         13   -1    0    0    0    0  0.00000000000E+00  0.00000000000E+00  0.74505805969E-08  0.10566000000E+00  0.10566000000E+00 0.  1.
     999900   -1    0    0    0    0 -0.00000000000E+00 -0.00000000000E+00 -0.74505805969E-08  0.93827000000E+00  0.93827000000E+00 0.  1.
     999902    2    1    2    0    0  0.15157138972E-01  0.13999059257E-01  0.12299560841E-01  0.10199093481E+01  0.10196264446E+01 0.  0.
     999903    2    3    3    0    0  0.11012330253E+00 -0.75722630374E-02 -0.67737475954E-01  0.13092688401E+00  0.19209434637E-01 0.  0.
         14    1    1    2    0    0 -0.15157138972E-01 -0.13999059257E-01 -0.12299560841E-01  0.24020651922E-01  0.00000000000E+00 0. -1.
     999901    1    3    3    0    0 -0.94966163559E-01  0.21571322294E-01  0.80037036796E-01  0.88898246407E+00  0.88000000000E+00 0. -1.
        -11    1    4    4    0    0  0.17837114717E-01  0.53234784316E-02 -0.14550340639E-01  0.23632088731E-01  0.51100000000E-03 0. -1.
         11    1    4    4    0    0  0.92286187814E-01 -0.12895741469E-01 -0.53187135315E-01  0.10729479528E+00  0.51100000000E-03 0.  1.
</event>
<event>
 8    1  0.1079508E+005  0.1043930E+01  0.7957747E-01            NaN
         13   -1    0    0    0    0  0.00000000000E+00  0.00000000000E+00  0.74505805969E-08  0.10566000000E+00  0.10566000000E+00 0.  1.
     999900   -1    0    0    0    0 -0.00000000000E+00 -0.00000000000E+00 -0.74505805969E-08  0.93827000000E+00  0.93827000000E+00 0. -1.
     999902    2    1    2    0    0  0.64801208857E-02  0.18027210979E-01 -0.14172318618E-01  0.10201008809E+01  0.10198225239E+01 0.  0.
     999903    2    3    3    0    0 -0.10917037339E+00 -0.49506619395E-01 -0.44359425041E-01  0.12945666659E+00  0.20547363499E-01 0.  0.
         14    1    1    2    0    0 -0.64801208857E-02 -0.18027210979E-01  0.14172318618E-01  0.23829119106E-01  0.00000000000E+00 0. -1.
     999901    1    3    3    0    0  0.11565049427E+00  0.67533830374E-01  0.30187106423E-01  0.89064421430E+00  0.88000000000E+00 0.  1.
        -11    1    4    4    0    0 -0.62749689333E-01 -0.24616534655E-01 -0.35014910840E-01  0.75959215319E-01  0.51100000000E-03 0. -1.
         11    1    4    4    0    0 -0.46420684053E-01 -0.24890084740E-01 -0.93445142004E-02  0.53497451276E-01  0.51100000000E-03 0.  1.
</event>
<event>
 8    1  0.1079508E+005  0.1043930E+01  0.7957747E-01            NaN
         13   -1    0    0    0    0  0.00000000000E+00  0.00000000000E+00  0.74505805969E-08  0.10566000000E+00  0.10566000000E+00 0.  1.
     999900   -1    0    0    0    0 -0.00000000000E+00 -0.00000000000E+00 -0.74505805969E-08  0.93827000000E+00  0.93827000000E+00 0.  1.
     999902    2    1    2    0    0 -0.13116352440E-01 -0.19148567457E-01  0.37990195793E-02  0.10204110951E+01  0.10201400218E+01 0.  0.
     999903    2    3    3    0    0 -0.71258278077E-01 -0.86426807564E-01  0.69800475253E-01  0.13347082810E+00  0.19875118822E-01 0.  0.
         14    1    1    2    0    0  0.13116352440E-01  0.19148567457E-01 -0.37990195793E-02  0.23518904880E-01  0.00000000000E+00 0. -1.
     999901    1    3    3    0    0  0.58141925638E-01  0.67278240107E-01 -0.66001455674E-01  0.88694026702E+00  0.88000000000E+00 0. -1.
        -11    1    4    4    0    0 -0.57588760536E-01 -0.58962236351E-01  0.44284547718E-01  0.93564912992E-01  0.51100000000E-03 0. -1.
         11    1    4    4    0    0 -0.13669517541E-01 -0.27464571213E-01  0.25515927535E-01  0.39905915109E-01  0.51100000000E-03 0.  1.
</event>
<event>
 8    1  0.1079508E+005  0.1043930E+01  0.7957747E-01            NaN
         13   -1    0    0    0    0  0.00000000000E+00  0.00000000000E+00  0.74505805969E-08  0.10566000000E+00  0.10566000000E+00 0. -1.
     999900   -1    0    0    0    0 -0.00000000000E+00 -0.00000000000E+00 -0.74505805969E-08  0.93827000000E+00  0.93827000000E+00 0.  1.
     999902    2    1    2    0    0  0.31042183857E-03  0.79467148869E-02  0.22089925335E-01  0.10204521074E+01  0.10201819897E+01 0.  0.
     999903    2    3    3    0    0 -0.10101261988E+00 -0.77879680263E-01  0.18559532143E-01  0.13048301100E+00  0.20311719594E-01 0.  0.
         14    1    1    2    0    0 -0.31042183857E-03 -0.79467148869E-02 -0.22089925335E-01  0.23477892591E-01  0.00000000000E+00 0.  1.
     999901    1    3    3    0    0  0.10132304172E+00  0.85826395150E-01  0.35303931916E-02  0.88996909641E+00  0.88000000000E+00 0. -1.
        -11    1    4    4    0    0 -0.20227703609E-01 -0.12236953084E-01  0.11101133393E-01  0.26122773545E-01  0.51100000000E-03 0. -1.
         11    1    4    4    0    0 -0.80784916273E-01 -0.65642727178E-01  0.74583987508E-02  0.10436023745E+00  0.51100000000E-03 0.  1.
</event>
<event>
 8    1  0.1205366E+005  0.1043930E+01  0.7957747E-01            NaN
         13   -1    0    0    0    0  0.00000000000E+00  0.00000000000E+00  0.74505805969E-08  0.10566000000E+00  0.10566000000E+00 0. -1.
     999900   -1    0    0    0    0 -0.00000000000E+00 -0.00000000000E+00 -0.74505805969E-08  0.93827000000E+00  0.93827000000E+00 0. -1.
     999902    2    1    2    0    0  0.20687432661E-01  0.10015372064E-01 -0.59177841239E-02  0.10201961062E+01  0.10199199955E+01 0.  0.
     999903    2    3    3    0    0 -0.10780383056E+00 -0.26853421735E-01 -0.60860959025E-01  0.12840685687E+00  0.21011720960E-01 0.  0.
         14    1    1    2    0    0 -0.20687432661E-01 -0.10015372064E-01  0.59177841239E-02  0.23733893836E-01  0.00000000000E+00 0. -1.
     999901    1    3    3    0    0  0.12849126322E+00  0.36868793799E-01  0.54943174902E-01  0.89178924929E+00  0.88000000000E+00 0. -1.
        -11    1    4    4    0    0 -0.54366032700E-01 -0.14232237581E-01 -0.18879685115E-01  0.59286809065E-01  0.51100000000E-03 0. -1.
         11    1    4    4    0    0 -0.53437797856E-01 -0.12621184154E-01 -0.41981273910E-01  0.69120047810E-01  0.51100000000E-03 0.  1.
</event>
<event>
 8    1  0.1079508E+005  0.1043930E+01  0.7957747E-01            NaN
         13   -1    0    0    0    0  0.00000000000E+00  0.00000000000E+00  0.74505805969E-08  0.10566000000E+00  0.10566000000E+00 0.  1.
     999900   -1    0    0    0    0 -0.00000000000E+00 -0.00000000000E+00 -0.74505805969E-08  0.93827000000E+00  0.93827000000E+00 0. -1.
     999902    2    1    2    0    0 -0.87415353015E-02 -0.74219451526E-02 -0.20249375652E-01  0.10206590541E+01  0.10203937317E+01 0.  0.
     999903    2    3    3    0    0  0.10735808843E+00 -0.68023352620E-01  0.19839364205E-01  0.13006444357E+00  0.19241191668E-01 0.  0.
         14    1    1    2    0    0  0.87415353015E-02  0.74219451526E-02  0.20249375652E-01  0.23270945910E-01  0.00000000000E+00 0.  1.
     999901    1    3    3    0    0 -0.11609962373E+00  0.60601407467E-01 -0.40088739856E-01  0.89059461052E+00  0.88000000000E+00 0.  1.
        -11    1    4    4    0    0  0.76651742090E-01 -0.55837446246E-01  0.20469910733E-01  0.97018494809E-01  0.51100000000E-03 0.  1.
         11    1    4    4    0    0  0.30706346341E-01 -0.12185906374E-01 -0.63054652857E-03  0.33045948764E-01  0.51100000000E-03 0. -1.
</event>
<event>
 8    1  0.1079508E+005  0.1043930E+01  0.7957747E-01            NaN
         13   -1    0    0    0    0  0.00000000000E+00  0.00000000000E+00  0.74505805969E-08  0.10566000000E+00  0.10566000000E+00 0. -1.
     999900   -1    0    0    0    0 -0.00000000000E+00 -0.00000000000E+00 -0.74505805969E-08  0.93827000000E+00  0.93827000000E+00 0. -1.
     999902    2    1    2    0    0  0.18764894228E-01  0.59374344861E-02  0.11880403199E-01  0.10209404727E+01  0.10206816009E+01 0.  0.
     999903    2    3    3    0    0 -0.93405966328E-01  0.69429948802E-01 -0.52326156317E-01  0.12923643909E+00  0.20465537327E-01 0.  0.
         14    1    1    2    0    0 -0.18764894228E-01 -0.59374344861E-02 -0.11880403199E-01  0.22989527264E-01  0.00000000000E+00 0.  1.
     999901    1    3    3    0    0  0.11217086056E+00 -0.63492514316E-01  0.64206559516E-01  0.89170403364E+00  0.88000000000E+00 0.  1.
        -11    1    4    4    0    0 -0.64010362344E-01  0.58721795671E-01 -0.37610745689E-01  0.94659416259E-01  0.51100000000E-03 0.  1.
         11    1    4    4    0    0 -0.29395603984E-01  0.10708153130E-01 -0.14715410628E-01  0.34577022833E-01  0.51100000000E-03 0. -1.
</event>
<event>
 8    1  0.1079508E+005  0.1043930E+01  0.7957747E-01            NaN
         13   -1    0    0    0    0  0.00000000000E+00  0.00000000000E+00  0.74505805969E-08  0.10566000000E+00  0.10566000000E+00 0. -1.
     999900   -1    0    0    0    0 -0.00000000000E+00 -0.00000000000E+00 -0.74505805969E-08  0.93827000000E+00  0.93827000000E+00 0.  1.
     999902    2    1    2    0    0 -0.96767949228E-02  0.22136003202E-01  0.22074737582E-02  0.10196706526E+01  0.10193820303E+01 0.  0.
     999903    2    3    3    0    0  0.10104134687E+00  0.63140544169E-01  0.49299712462E-01  0.13053761513E+00  0.20335319500E-01 0.  0.
         14    1    1    2    0    0  0.96767949228E-02 -0.22136003202E-01 -0.22074737582E-02  0.24259347438E-01  0.00000000000E+00 0. -1.
     999901    1    3    3    0    0 -0.11071814180E+00 -0.41004540967E-01 -0.47092238704E-01  0.88913303743E+00  0.88000000000E+00 0. -1.
        -11    1    4    4    0    0  0.39791543276E-01  0.32407027234E-01  0.29542332296E-01  0.59216491360E-01  0.51100000000E-03 0. -1.
         11    1    4    4    0    0  0.61249803599E-01  0.30733516935E-01  0.19757380166E-01  0.71321123772E-01  0.51100000000E-03 0.  1.
</event>
<event>
 8    1  0.1079508E+005  0.1043930E+01  0.7957747E-01            NaN
         13   -1    0    0    0    0  0.00000000000E+00  0.00000000000E+00  0.74505805969E-08  0.10566000000E+00  0.10566000000E+00 0.  1.
     999900   -1    0    0    0    0 -0.00000000000E+00 -0.00000000000E+00 -0.74505805969E-08  0.93827000000E+00  0.93827000000E+00 0.  1.
     999902    2    1    2    0    0 -0.81265747121E-02  0.51252842971E-02 -0.22069192481E-01  0.10198601223E+01  0.10195760443E+01 0.  0.
     999903    2    3    3    0    0 -0.12825628567E+00 -0.24926014248E-02  0.15778821492E-01  0.13085975571E+00  0.20479662610E-01 0.  0.
         14    1    1    2    0    0  0.81265747121E-02 -0.51252842971E-02  0.22069192481E-01  0.24069877699E-01  0.00000000000E+00 0.  1.
     999901    1    3    3    0    0  0.12012971096E+00  0.76178857219E-02 -0.37848013974E-01  0.88900036659E+00  0.88000000000E+00 0.  1.
        -11    1    4    4    0    0 -0.35756589978E-01  0.16814925523E-02 -0.44659084087E-02  0.36077231088E-01  0.51100000000E-03 0.  1.
         11    1    4    4    0    0 -0.92499695693E-01 -0.41740939771E-02  0.20244729901E-01  0.94782524622E-01  0.51100000000E-03 0. -1.
</event>
<event>
 8    1  0.1079508E+005  0.1043930E+01  0.7957747E-01            NaN
         13   -1    0    0    0    0  0.00000000000E+00  0.00000000000E+00  0.74505805969E-08  0.10566000000E+00  0.10566000000E+00 0. -1.
     999900   -1    0    0    0    0 -0.00000000000E+00 -0.00000000000E+00 -0.74505805969E-08  0.93827000000E+00  0.93827000000E+00 0. -1.
     999902    2    1    2    0    0 -0.18088805562E-01  0.88046452816E-02  0.11175260191E-01  0.10209166755E+01  0.10206572614E+01 0.  0.
     999903    2    3    3    0    0  0.11022472706E+00  0.40086119444E-01 -0.50202080234E-01  0.12894690514E+00  0.18726132988E-01 0.  0.
         14    1    1    2    0    0  0.18088805562E-01 -0.88046452816E-02 -0.11175260191E-01  0.23013324522E-01  0.00000000000E+00 0.  1.
     999901    1    3    3    0    0 -0.12831353263E+00 -0.31281474162E-01  0.61377340425E-01  0.89196977034E+00  0.88000000000E+00 0.  1.
        -11    1    4    4    0    0  0.57909999342E-01  0.29663903023E-01 -0.32565235753E-01  0.72761740407E-01  0.51100000000E-03 0.  1.
         11    1    4    4    0    0  0.52314727722E-01  0.10422216420E-01 -0.17636844482E-01  0.56185164733E-01  0.51100000000E-03 0. -1.
</event>
<event>
 8    1  0.1079508E+005  0.1043930E+01  0.7957747E-01            NaN
         13   -1    0    0    0    0  0.00000000000E+00  0.00000000000E+00  0.74505805969E-08  0.10566000000E+00  0.10566000000E+00 0. -1.
     999900   -1    0    0    0    0 -0.00000000000E+00 -0.00000000000E+00 -0.74505805969E-08  0.93827000000E+00  0.93827000000E+00 0.  1.
     999902    2    1    2    0    0 -0.25683515431E-01  0.46296608166E-02 -0.10427876939E-01  0.10158263109E+01  0.10154374804E+01 0.  0.
     999903    2    3    3    0    0 -0.82491064157E-01 -0.45378667792E-01  0.84604473936E-01  0.12748005056E+00  0.15140909004E-01 0.  0.
         14    1    1    2    0    0  0.25683515431E-01 -0.46296608166E-02  0.10427876939E-01  0.28103689110E-01  0.00000000000E+00 0. -1.
     999901    1    3    3    0    0  0.56807548726E-01  0.50008328609E-01 -0.95032350875E-01  0.88834626033E+00  0.88000000000E+00 0. -1.
        -11    1    4    4    0    0 -0.55242009599E-01 -0.32957735665E-01  0.48460570719E-01  0.80539307174E-01  0.51100000000E-03 0. -1.
         11    1    4    4    0    0 -0.27249054557E-01 -0.12420932127E-01  0.36143903217E-01  0.46940743390E-01  0.51100000000E-03 0.  1.
</event>
<event>
 8    1  0.1079508E+005  0.1043930E+01  0.7957747E-01            NaN
         13   -1    0    0    0    0  0.00000000000E+00  0.00000000000E+00  0.74505805969E-08  0.10566000000E+00  0.10566000000E+00 0. -1.
     999900   -1    0    0    0    0 -0.00000000000E+00 -0.00000000000E+00 -0.74505805969E-08  0.93827000000E+00  0.93827000000E+00 0. -1.
     999902    2    1    2    0    0  0.39391938413E-02 -0.23483811843E-01  0.15608968655E-02  0.10200669938E+01  0.10197878352E+01 0.  0.
     999903    2    3    3    0    0  0.16259121787E-01 -0.10387848450E-01 -0.12754980776E+00  0.13046435275E+00  0.19486596498E-01 0.  0.
         14    1    1    2    0    0 -0.39391938413E-02  0.23483811843E-01 -0.15608968655E-02  0.23863006219E-01  0.00000000000E+00 0.  1.
     999901    1    3    3    0    0 -0.12319927946E-01 -0.13095963393E-01  0.12911070462E+00  0.88960264103E+00  0.88000000000E+00 0.  1.
        -11    1    4    4    0    0  0.14997010932E-01 -0.10843829155E-01 -0.57650806399E-01  0.60550603358E-01  0.51100000000E-03 0.  1.
         11    1    4    4    0    0  0.12621108552E-02  0.45598070496E-03 -0.69899001357E-01  0.69913749392E-01  0.51100000000E-03 0. -1.
</event>
<event>
 8    1  0.1079508E+005  0.1043930E+01  0.7957747E-01            NaN
         13   -1    0    0    0    0  0.00000000000E+00  0.00000000000E+00  0.74505805969E-08  0.10566000000E+00  0.10566000000E+00 0.  1.
     999900   -1    0    0    0    0 -0.00000000000E+00 -0.00000000000E+00 -0.74505805969E-08  0.93827000000E+00  0.93827000000E+00 0.  1.
     999902    2    1    2    0    0  0.12955052635E-01  0.17455530469E-01  0.84278874552E-02  0.10206156649E+01  0.10203493408E+01 0.  0.
     999903    2    3    3    0    0  0.12577804382E+00  0.18520975949E-01 -0.31556997322E-01  0.13251153054E+00  0.20007968157E-01 0.  0.
         14    1    1    2    0    0 -0.12955052635E-01 -0.17455530469E-01 -0.84278874552E-02  0.23314335069E-01  0.00000000000E+00 0. -1.
     999901    1    3    3    0    0 -0.11282299118E+00 -0.10654454797E-02  0.39984884778E-01  0.88810413439E+00  0.88000000000E+00 0. -1.
        -11    1    4    4    0    0  0.84061992816E-01  0.21270292177E-01 -0.24528369818E-01  0.90115181919E-01  0.51100000000E-03 0.  1.
         11    1    4    4    0    0  0.41716051000E-01 -0.27493162275E-02 -0.70286275044E-02  0.42396348620E-01  0.51100000000E-03 0. -1.
</event>
<event>
 8    1  0.1079508E+005  0.1043930E+01  0.7957747E-01            NaN
         13   -1    0    0    0    0  0.00000000000E+00  0.00000000000E+00  0.74505805969E-08  0.10566000000E+00  0.10566000000E+00 0. -1.
     999900   -1    0    0    0    0 -0.00000000000E+00 -0.00000000000E+00 -0.74505805969E-08  0.93827000000E+00  0.93827000000E+00 0. -1.
     999902    2    1    2    0    0 -0.53011667076E-02  0.22288336709E-01 -0.67359971133E-02  0.10200501763E+01  0.10197706194E+01 0.  0.
     999903    2    3    3    0    0 -0.11109235599E+00  0.17752258762E-02 -0.66947293908E-01  0.13143441926E+00  0.21175538207E-01 0.  0.
         14    1    1    2    0    0  0.53011667076E-02 -0.22288336709E-01  0.67359971133E-02  0.23879823677E-01  0.00000000000E+00 0.  1.
     999901    1    3    3    0    0  0.10579118928E+00  0.20513110833E-01  0.60211296795E-01  0.88861575707E+00  0.88000000000E+00 0.  1.
        -11    1    4    4    0    0 -0.50440228106E-01  0.99189339772E-02 -0.36732966788E-01  0.63183651625E-01  0.51100000000E-03 0.  1.
         11    1    4    4    0    0 -0.60652127880E-01 -0.81437081010E-02 -0.30214327120E-01  0.68250767632E-01  0.51100000000E-03 0. -1.
</event>
<event>
 8    1  0.1079508E+005  0.1043930E+01  0.7957747E-01            NaN
         13   -1    0    0    0    0  0.00000000000E+00  0.00000000000E+00  0.74505805969E-08  0.10566000000E+00  0.10566000000E+00 0.  1.
     999900   -1    0    0    0    0 -0.00000000000E+00 -0.00000000000E+00 -0.74505805969E-08  0.93827000000E+00  0.93827000000E+00 0. -1.
     999902    2    1    2    0    0 -0.61684404616E-02  0.22400448281E-01 -0.15817307387E-02  0.10206419856E+01  0.10203762694E+01 0.  0.
     999903    2    3    3    0    0 -0.96245174519E-01  0.73207084863E-01  0.51686270688E-01  0.13298630221E+00  0.19785729856E-01 0.  0.
         14    1    1    2    0    0  0.61684404616E-02 -0.22400448281E-01  0.15817307387E-02  0.23288014364E-01  0.00000000000E+00 0.  1.
     999901    1    3    3    0    0  0.90076734057E-01 -0.50806636582E-01 -0.53268001427E-01  0.88765568342E+00  0.88000000000E+00 0. -1.
        -11    1    4    4    0    0 -0.34742422312E-01  0.15030357155E-01  0.16869262885E-01  0.41446117980E-01  0.51100000000E-03 0. -1.
         11    1    4    4    0    0 -0.61502752207E-01  0.58176727708E-01  0.34817007803E-01  0.91540184231E-01  0.51100000000E-03 0.  1.
</event>
<event>
 8    1  0.1079508E+005  0.1043930E+01  0.7957747E-01            NaN
         13   -1    0    0    0    0  0.00000000000E+00  0.00000000000E+00  0.74505805969E-08  0.10566000000E+00  0.10566000000E+00 0.  1.
     999900   -1    0    0    0    0 -0.00000000000E+00 -0.00000000000E+00 -0.74505805969E-08  0.93827000000E+00  0.93827000000E+00 0. -1.
     999902    2    1    2    0    0 -0.17664223723E-01  0.14330749577E-01 -0.61374312516E-02  0.10203702197E+01  0.10200981924E+01 0.  0.
     999903    2    3    3    0    0  0.22136678098E-01  0.89640163284E-01  0.90624776809E-01  0.13097798654E+00  0.20420367184E-01 0.  0.
         14    1    1    2    0    0  0.17664223723E-01 -0.14330749577E-01  0.61374312516E-02  0.23559780252E-01  0.00000000000E+00 0.  1.
     999901    1    3    3    0    0 -0.39800901821E-01 -0.75309413707E-01 -0.96762208061E-01  0.88939223321E+00  0.88000000000E+00 0. -1.
        -11    1    4    4    0    0  0.25572129924E-01  0.84194267637E-01  0.82725533804E-01  0.12077410151E+00  0.51100000000E-03 0.  1.
         11    1    4    4    0    0 -0.34354518261E-02  0.54458956477E-02  0.78992430051E-02  0.10203885030E-01  0.51100000000E-03 0. -1.
</event>
<event>
 8    1  0.1079508E+005  0.1043930E+01  0.7957747E-01            NaN
         13   -1    0    0    0    0  0.00000000000E+00  0.00000000000E+00  0.74505805969E-08  0.10566000000E+00  0.10566000000E+00 0. -1.
     999900   -1    0    0    0    0 -0.00000000000E+00 -0.00000000000E+00 -0.74505805969E-08  0.93827000000E+00  0.93827000000E+00 0.  1.
     999902    2    1    2    0    0  0.48419686544E-02  0.19284034644E-01 -0.12190238312E-01  0.10206078954E+01  0.10203413917E+01 0.  0.
     999903    2    3    3    0    0  0.43683455867E-01 -0.73102341576E-01 -0.97171888958E-01  0.13085187009E+00  0.20679440081E-01 0.  0.
         14    1    1    2    0    0 -0.48419686544E-02 -0.19284034644E-01  0.12190238312E-01  0.23322104594E-01  0.00000000000E+00 0. -1.
     999901    1    3    3    0    0 -0.38841487213E-01  0.92386376220E-01  0.84981650646E-01  0.88975602532E+00  0.88000000000E+00 0. -1.
        -11    1    4    4    0    0  0.29172275279E-01 -0.40779976250E-01 -0.70444653950E-01  0.86468135744E-01  0.51100000000E-03 0. -1.
         11    1    4    4    0    0  0.14511180588E-01 -0.32322365326E-01 -0.26727235008E-01  0.44383734346E-01  0.51100000000E-03 0.  1.
</event>
<event>
 8    1  0.1079508E+005  0.1043930E+01  0.7957747E-01            NaN
         13   -1    0    0    0    0  0.00000000000E+00  0.00000000000E+00  0.74505805969E-08  0.10566000000E+00  0.10566000000E+00 0.  1.
     999900   -1    0    0    0    0 -0.00000000000E+00 -0.00000000000E+00 -0.74505805969E-08  0.93827000000E+00  0.93827000000E+00 0. -1.
     999902    2    1    2    0    0 -0.43053141061E-02  0.17252046891E-01  0.15564173903E-01  0.10202992497E+01  0.10200255617E+01 0.  0.
     999903    2    3    3    0    0 -0.94039454895E-01  0.92436833637E-01 -0.76228588474E-02  0.13224372964E+00  0.65045186140E-02 0.  0.
         14    1    1    2    0    0  0.43053141061E-02 -0.17252046891E-01 -0.15564173903E-01  0.23630750322E-01  0.00000000000E+00 0. -1.
     999901    1    3    3    0    0  0.89734140789E-01 -0.75184786746E-01  0.23187032751E-01  0.88805552004E+00  0.88000000000E+00 0.  1.
        -11    1    4    4    0    0 -0.59612244554E-01  0.61497828762E-01 -0.26864306043E-02  0.85691777165E-01  0.51100000000E-03 0.  1.
         11    1    4    4    0    0 -0.34427210341E-01  0.30939004875E-01 -0.49364282432E-02  0.46551952476E-01  0.51100000000E-03 0. -1.
</event>
<event>
 8    1  0.1079508E+005  0.1043930E+01  0.7957747E-01            NaN
         13   -1    0    0    0    0  0.00000000000E+00  0.00000000000E+00  0.74505805969E-08  0.10566000000E+00  0.10566000000E+00 0.  1.
     999900   -1    0    0    0    0 -0.00000000000E+00 -0.00000000000E+00 -0.74505805969E-08  0.93827000000E+00  0.93827000000E+00 0. -1.
     999902    2    1    2    0    0 -0.82034070930E-02  0.17397360911E-01  0.15365144503E-01  0.10193118823E+01  0.10190145542E+01 0.  0.
     999903    2    3    3    0    0 -0.12907182179E+00  0.10902384151E-02  0.83710611158E-02  0.13087279426E+00  0.19922093627E-01 0.  0.
         14    1    1    2    0    0  0.82034070930E-02 -0.17397360911E-01 -0.15365144503E-01  0.24618117723E-01  0.00000000000E+00 0. -1.
     999901    1    3    3    0    0  0.12086841469E+00  0.16307122496E-01  0.69940833875E-02  0.88843908802E+00  0.88000000000E+00 0. -1.
        -11    1    4    4    0    0 -0.10935223311E+00  0.33065684045E-02  0.19231264986E-03  0.10940357575E+00  0.51100000000E-03 0. -1.
         11    1    4    4    0    0 -0.19719588672E-01 -0.22163299894E-02  0.81787484660E-02  0.21469218511E-01  0.51100000000E-03 0.  1.
</event>
<event>
 8    1  0.1079508E+005  0.1043930E+01  0.7957747E-01            NaN
         13   -1    0    0    0    0  0.00000000000E+00  0.00000000000E+00  0.74505805969E-08  0.10566000000E+00  0.10566000000E+00 0. -1.
     999900   -1    0    0    0    0 -0.00000000000E+00 -0.00000000000E+00 -0.74505805969E-08  0.93827000000E+00  0.93827000000E+00 0.  1.
     999902    2    1    2    0    0 -0.32275042217E-02 -0.16116539572E-01  0.17592583390E-01  0.10198538994E+01  0.10195696727E+01 0.  0.
     999903    2    3    3    0    0  0.33227522135E-02  0.11540416126E+00  0.54466694668E-01  0.12929211000E+00  0.20510186732E-01 0.  0.
         14    1    1    2    0    0  0.32275042217E-02  0.16116539572E-01 -0.17592583390E-01  0.24076100632E-01  0.00000000000E+00 0.  1.
     999901    1    3    3    0    0 -0.65502564353E-02 -0.13152070084E+00 -0.36874111278E-01  0.89056178937E+00  0.88000000000E+00 0.  1.
        -11    1    4    4    0    0  0.55291440226E-02  0.41862845542E-01  0.29822800863E-01  0.51698451068E-01  0.51100000000E-03 0.  1.
         11    1    4    4    0    0 -0.22063918091E-02  0.73541315722E-01  0.24643893805E-01  0.77593658928E-01  0.51100000000E-03 0. -1.
</event>
<event>
 8    1  0.1079508E+005  0.1043930E+01  0.7957747E-01            NaN
         13   -1    0    0    0    0  0.00000000000E+00  0.00000000000E+00  0.74505805969E-08  0.10566000000E+00  0.10566000000E+00 0. -1.
     999900   -1    0    0    0    0 -0.00000000000E+00 -0.00000000000E+00 -0.74505805969E-08  0.93827000000E+00  0.93827000000E+00 0. -1.
     999902    2    1    2    0    0  0.76060755081E-02  0.99917120484E-03  0.21935778102E-01  0.10206914740E+01  0.10204268989E+01 0.  0.
     999903    2    3    3    0    0 -0.71771792014E-01  0.87336052008E-01  0.65324351030E-01  0.13185095342E+00  0.18401819773E-01 0.  0.
         14    1    1    2    0    0 -0.76060755081E-02 -0.99917120484E-03 -0.21935778102E-01  0.23238525958E-01  0.00000000000E+00 0.  1.
     999901    1    3    3    0    0  0.79377867522E-01 -0.86336880803E-01 -0.43388572928E-01  0.88884052062E+00  0.88000000000E+00 0.  1.
        -11    1    4    4    0    0 -0.54516117682E-01  0.62918327893E-01  0.38681933089E-01  0.91800196843E-01  0.51100000000E-03 0.  1.
         11    1    4    4    0    0 -0.17255674332E-01  0.24417724115E-01  0.26642417941E-01  0.40050756577E-01  0.51100000000E-03 0. -1.
</event>
<event>
 8    1  0.1079508E+005  0.1043930E+01  0.7957747E-01            NaN
         13   -1    0    0    0    0  0.00000000000E+00  0.00000000000E+00  0.74505805969E-08  0.10566000000E+00  0.10566000000E+00 0.  1.
     999900   -1    0    0    0    0 -0.00000000000E+00 -0.00000000000E+00 -0.74505805969E-08  0.93827000000E+00  0.93827000000E+00 0. -1.
     999902    2    1    2    0    0  0.35080413504E-02  0.14570676090E-01 -0.17781021645E-01  0.10206754158E+01  0.10204104707E+01 0.  0.
     999903    2    3    3    0    0 -0.75760466206E-01  0.85168519108E-01 -0.66092658940E-01  0.13298089287E+00  0.17954203308E-01 0.  0.
         14    1    1    2    0    0 -0.35080413504E-02 -0.14570676090E-01  0.17781021645E-01  0.23254584206E-01  0.00000000000E+00 0. -1.
     999901    1    3    3    0    0  0.79268507556E-01 -0.70597843017E-01  0.48311637295E-01  0.88769452292E+00  0.88000000000E+00 0.  1.
        -11    1    4    4    0    0 -0.49868773921E-01  0.60932808113E-01 -0.36499134319E-01  0.86787957944E-01  0.51100000000E-03 0. -1.
         11    1    4    4    0    0 -0.25891692285E-01  0.24235710994E-01 -0.29593524621E-01  0.46192934928E-01  0.51100000000E-03 0.  1.
</event>
<event>
 8    1  0.1079508E+005  0.1043930E+01  0.7957747E-01            NaN
         13   -1    0    0    0    0  0.00000000000E+00  0.00000000000E+00  0.74505805969E-08  0.10566000000E+00  0.10566000000E+00 0.  1.
     999900   -1    0    0    0    0 -0.00000000000E+00 -0.00000000000E+00 -0.74505805969E-08  0.93827000000E+00  0.93827000000E+00 0.  1.
     999902    2    1    2    0    0  0.15620201496E-01  0.11578824050E-01 -0.11915468213E-01  0.10211256530E+01  0.10208709815E+01 0.  0.
     999903    2    3    3    0    0 -0.84441912053E-01 -0.74360363879E-01  0.58653165219E-01  0.12850148646E+00  0.20311031626E-01 0.  0.
         14    1    1    2    0    0 -0.15620201496E-01 -0.11578824050E-01  0.11915468213E-01  0.22804347039E-01  0.00000000000E+00 0.  1.
     999901    1    3    3    0    0  0.10006211355E+00  0.85939187929E-01 -0.70568633432E-01  0.89262416650E+00  0.88000000000E+00 0. -1.
        -11    1    4    4    0    0 -0.79948741160E-02 -0.94138521193E-02  0.12143913173E-03  0.12361815899E-01  0.51100000000E-03 0. -1.
         11    1    4    4    0    0 -0.76447037937E-01 -0.64946511760E-01  0.58531726087E-01  0.11613967056E+00  0.51100000000E-03 0.  1.
</event>
<event>
 8    1  0.1079508E+005  0.1043930E+01  0.7957747E-01            NaN
         13   -1    0    0    0    0  0.00000000000E+00  0.00000000000E+00  0.74505805969E-08  0.10566000000E+00  0.10566000000E+00 0. -1.
     999900   -1    0    0    0    0 -0.00000000000E+00 -0.00000000000E+00 -0.74505805969E-08  0.93827000000E+00  0.93827000000E+00 0.  1.
     999902    2    1    2    0    0 -0.10290745809E-01  0.19943812552E-01 -0.79059089054E-02  0.10201359145E+01  0.10198583851E+01 0.  0.
     999903    2    3    3    0    0  0.68553138269E-01  0.58898414048E-01  0.91424338316E-01  0.13019191794E+00  0.20566232409E-01 0.  0.
         14    1    1    2    0    0  0.10290745809E-01 -0.19943812552E-01  0.79059089054E-02  0.23794085485E-01  0.00000000000E+00 0.  1.
     999901    1    3    3    0    0 -0.78843884078E-01 -0.38954601496E-01 -0.99330247221E-01  0.88994399658E+00  0.88000000000E+00 0.  1.
        -11    1    4    4    0    0  0.45081674970E-01  0.40525001967E-01  0.47068433821E-01  0.76748496962E-01  0.51100000000E-03 0.  1.
         11    1    4    4    0    0  0.23471463299E-01  0.18373412081E-01  0.44355904495E-01  0.53443420974E-01  0.51100000000E-03 0. -1.
</event>
<event>
 8    1  0.1079508E+005  0.1043930E+01  0.7957747E-01            NaN
         13   -1    0    0    0    0  0.00000000000E+00  0.00000000000E+00  0.74505805969E-08  0.10566000000E+00  0.10566000000E+00 0. -1.
     999900   -1    0    0    0    0 -0.00000000000E+00 -0.00000000000E+00 -0.74505805969E-08  0.93827000000E+00  0.93827000000E+00 0. -1.
     999902    2    1    2    0    0  0.91526489085E-02  0.32887545139E-02  0.21909486959E-01  0.10199589235E+01  0.10196772005E+01 0.  0.
     999903    2    3    3    0    0 -0.85684032188E-01 -0.53389842655E-01  0.81542148850E-01  0.13104806533E+00  0.18227581229E-01 0.  0.
         14    1    1    2    0    0 -0.91526489085E-02 -0.32887545139E-02 -0.21909486959E-01  0.23971076470E-01  0.00000000000E+00 0.  1.
     999901    1    3    3    0    0  0.94836681096E-01  0.56678597169E-01 -0.59632661891E-01  0.88891085820E+00  0.88000000000E+00 0. -1.
        -11    1    4    4    0    0 -0.50112325166E-01 -0.34450638525E-01  0.37968535113E-01  0.71693531145E-01  0.51100000000E-03 0.  1.
         11    1    4    4    0    0 -0.35571707022E-01 -0.18939204130E-01  0.43573613737E-01  0.59354534187E-01  0.51100000000E-03 0. -1.
</event>
<event>
 8    1  0.1079508E+005  0.1043930E+01  0.7957747E-01            NaN
         13   -1    0    0    0    0  0.00000000000E+00  0.00000000000E+00  0.74505805969E-08  0.10566000000E+00  0.10566000000E+00 0.  1.
     999900   -1    0    0    0    0 -0.00000000000E+00 -0.00000000000E+00 -0.74505805969E-08  0.93827000000E+00  0.93827000000E+00 0.  1.
     999902    2    1    2    0    0  0.27050379365E-02 -0.22174910187E-01  0.66974759485E-02  0.10206083350E+01  0.10203418415E+01 0.  0.
     999903    2    3    3    0    0  0.11075180006E+00  0.56029121233E-01  0.33321602340E-01  0.13015967429E+00  0.20639476425E-01 0.  0.
         14    1    1    2    0    0 -0.27050379365E-02  0.22174910187E-01 -0.66974759485E-02  0.23321664951E-01  0.00000000000E+00 0. -1.
     999901    1    3    3    0    0 -0.10804676212E+00 -0.78204031420E-01 -0.26624126391E-01  0.89044866076E+00  0.88000000000E+00 0. -1.
        -11    1    4    4    0    0  0.10182093306E+00  0.44876613935E-01  0.26851462124E-01  0.11446691673E+00  0.51100000000E-03 0. -1.
         11    1    4    4    0    0  0.89308669993E-02  0.11152507298E-01  0.64701402157E-02  0.15692757559E-01  0.51100000000E-03 0.  1.
</event>
<event>
 8    1  0.1079508E+005  0.1043930E+01  0.7957747E-01            NaN
         13   -1    0    0    0    0  0.00000000000E+00  0.00000000000E+00  0.74505805969E-08  0.10566000000E+00  0.10566000000E+00 0.  1.
     999900   -1    0    0    0    0 -0.00000000000E+00 -0.00000000000E+00 -0.74505805969E-08  0.93827000000E+00  0.93827000000E+00 0. -1.
     999902    2    1    2    0    0  0.97168073592E-02 -0.19237695246E-01  0.10190489169E-01  0.10200898798E+01  0.10198112627E+01 0.  0.
     999903    2    3    3    0    0 -0.28743151233E-02  0.12617358674E+00  0.15318913594E-01  0.12805328968E+00  0.15327759393E-01 0.  0.
         14    1    1    2    0    0 -0.97168073592E-02  0.19237695246E-01 -0.10190489169E-01  0.23840120242E-01  0.00000000000E+00 0. -1.
     999901    1    3    3    0    0  0.12591122483E-01 -0.14541128198E+00 -0.51284244254E-02  0.89203659007E+00  0.88000000000E+00 0. -1.
        -11    1    4    4    0    0 -0.75326558937E-02  0.71169948763E-01  0.38579782669E-02  0.71673200215E-01  0.51100000000E-03 0.  1.
         11    1    4    4    0    0  0.46583407703E-02  0.55003637973E-01  0.11460935327E-01  0.56380089470E-01  0.51100000000E-03 0. -1.
</event>
<event>
 8    1  0.1079508E+005  0.1043930E+01  0.7957747E-01            NaN
         13   -1    0    0    0    0  0.00000000000E+00  0.00000000000E+00  0.74505805969E-08  0.10566000000E+00  0.10566000000E+00 0. -1.
     999900   -1    0    0    0    0 -0.00000000000E+00 -0.00000000000E+00 -0.74505805969E-08  0.93827000000E+00  0.93827000000E+00 0. -1.
     999902    2    1    2    0    0 -0.16428550611E-01 -0.10331984860E-01 -0.13618347815E-01  0.10202212129E+01  0.10199456930E+01 0.  0.
     999903    2    3    3    0    0 -0.13079914375E+00 -0.34638417703E-02  0.72889601754E-02  0.13254733167E+00  0.19880945339E-01 0.  0.
         14    1    1    2    0    0  0.16428550611E-01  0.10331984860E-01  0.13618347815E-01  0.23708787053E-01  0.00000000000E+00 0.  1.
     999901    1    3    3    0    0  0.11437059314E+00 -0.68681430900E-02 -0.20907307991E-01  0.88767388127E+00  0.88000000000E+00 0.  1.
        -11    1    4    4    0    0 -0.61921230331E-01 -0.11466325722E-01  0.21161400154E-02  0.63011543076E-01  0.51100000000E-03 0.  1.
         11    1    4    4    0    0 -0.68877913421E-01  0.80024839512E-02  0.51728201600E-02  0.69535788599E-01  0.51100000000E-03 0. -1.
</event>
<event>
 8    1  0.1079508E+005  0.1043930E+01  0.7957747E-01            NaN
         13   -1    0    0    0    0  0.00000000000E+00  0.00000000000E+00  0.74505805969E-08  0.10566000000E+00  0.10566000000E+00 0. -1.
     999900   -1    0    0    0    0 -0.00000000000E+00 -0.00000000000E+00 -0.74505805969E-08  0.93827000000E+00  0.93827000000E+00 0.  1.
     999902    2    1    2    0    0 -0.13166544723E-01  0.15670827668E-01  0.16480903585E-01  0.10176516263E+01  0.10173122823E+01 0.  0.
     999903    2    3    3    0    0  0.11599239428E+00  0.33297283200E-02 -0.44979872967E-01  0.12601730593E+00  0.19795196409E-01 0.  0.
         14    1    1    2    0    0  0.13166544723E-01 -0.15670827668E-01 -0.16480903585E-01  0.26278373670E-01  0.00000000000E+00 0.  1.
     999901    1    3    3    0    0 -0.12915893900E+00  0.12341099348E-01  0.61460776553E-01  0.89163432040E+00  0.88000000000E+00 0. -1.
        -11    1    4    4    0    0  0.55161985149E-01 -0.82804323408E-02 -0.21804996310E-01  0.59892646881E-01  0.51100000000E-03 0. -1.
         11    1    4    4    0    0  0.60830409130E-01  0.11610160661E-01 -0.23174876657E-01  0.66124659051E-01  0.51100000000E-03 0.  1.
</event>
<event>
 8    1  0.1079508E+005  0.1043930E+01  0.7957747E-01            NaN
         13   -1    0    0    0    0  0.00000000000E+00  0.00000000000E+00  0.74505805969E-08  0.10566000000E+00  0.10566000000E+00 0.  1.
     999900   -1    0    0    0    0 -0.00000000000E+00 -0.00000000000E+00 -0.74505805969E-08  0.93827000000E+00  0.93827000000E+00 0.  1.
     999902    2    1    2    0    0 -0.98277457176E-03 -0.10410838218E-01 -0.21255252843E-01  0.10202416659E+01  0.10199666268E+01 0.  0.
     999903    2    3    3    0    0 -0.74732408007E-01 -0.61477299482E-01 -0.89181552701E-01  0.13307720872E+00  0.19794013756E-01 0.  0.
         14    1    1    2    0    0  0.98277457176E-03  0.10410838218E-01  0.21255252843E-01  0.23688334084E-01  0.00000000000E+00 0.  1.
     999901    1    3    3    0    0  0.73749633436E-01  0.51066461264E-01  0.67926299858E-01  0.88716445720E+00  0.88000000000E+00 0. -1.
        -11    1    4    4    0    0 -0.57297514674E-01 -0.55162255559E-01 -0.78089817715E-01  0.11146371776E+00  0.51100000000E-03 0.  1.
         11    1    4    4    0    0 -0.17434893334E-01 -0.63150439225E-02 -0.11091734986E-01  0.21613490956E-01  0.51100000000E-03 0. -1.
</event>
<event>
 8    1  0.1079508E+005  0.1043930E+01  0.7957747E-01            NaN
         13   -1    0    0    0    0  0.00000000000E+00  0.00000000000E+00  0.74505805969E-08  0.10566000000E+00  0.10566000000E+00 0.  1.
     999900   -1    0    0    0    0 -0.00000000000E+00 -0.00000000000E+00 -0.74505805969E-08  0.93827000000E+00  0.93827000000E+00 0.  1.
     999902    2    1    2    0    0  0.21018334701E-01 -0.50761877469E-02 -0.93747793424E-02  0.10203625529E+01  0.10200903464E+01 0.  0.
     999903    2    3    3    0    0  0.12293220342E+00  0.32579337855E-01 -0.34912069285E-01  0.13331321468E+00  0.19488990070E-01 0.  0.
         14    1    1    2    0    0 -0.21018334701E-01  0.50761877469E-02  0.93747793424E-02  0.23567447111E-01  0.00000000000E+00 0.  1.
     999901    1    3    3    0    0 -0.10191386871E+00 -0.37655525602E-01  0.25537289943E-01  0.88704933821E+00  0.88000000000E+00 0. -1.
        -11    1    4    4    0    0  0.11322469723E+00  0.35166827040E-01 -0.31280961183E-01  0.12261850366E+00  0.51100000000E-03 0.  1.
         11    1    4    4    0    0  0.97075061849E-02 -0.25874891850E-02 -0.36311081021E-02  0.10694711013E-01  0.51100000000E-03 0. -1.
</event>
<event>
 8    1  0.1079508E+005  0.1043930E+01  0.7957747E-01            NaN
         13   -1    0    0    0    0  0.00000000000E+00  0.00000000000E+00  0.74505805969E-08  0.10566000000E+00  0.10566000000E+00 0.  1.
     999900   -1    0    0    0    0 -0.00000000000E+00 -0.00000000000E+00 -0.74505805969E-08  0.93827000000E+00  0.93827000000E+00 0.  1.
     999902    2    1    2    0    0 -0.22453437516E-01 -0.26632962182E-02  0.73955713833E-02  0.10201404124E+01  0.10198629891E+01 0.  0.
     999903    2    3    3    0    0 -0.99053835379E-02 -0.43404938648E-01 -0.12024422004E+00  0.12991052553E+00  0.20879819647E-01 0.  0.
         14    1    1    2    0    0  0.22453437516E-01  0.26632962182E-02 -0.73955713833E-02  0.23789587620E-01  0.00000000000E+00 0. -1.
     999901    1    3    3    0    0 -0.12548053979E-01  0.40741642430E-01  0.12763979142E+00  0.89022988685E+00  0.88000000000E+00 0. -1.
        -11    1    4    4    0    0  0.57892866721E-03 -0.52688866697E-02 -0.40986952732E-01  0.41331437677E-01  0.51100000000E-03 0.  1.
         11    1    4    4    0    0 -0.10484312205E-01 -0.38136051978E-01 -0.79257267307E-01  0.88579087853E-01  0.51100000000E-03 0. -1.
</event>
<event>
 8    1  0.1079508E+005  0.1043930E+01  0.7957747E-01            NaN
         13   -1    0    0    0    0  0.00000000000E+00  0.00000000000E+00  0.74505805969E-08  0.10566000000E+00  0.10566000000E+00 0. -1.
     999900   -1    0    0    0    0 -0.00000000000E+00 -0.00000000000E+00 -0.74505805969E-08  0.93827000000E+00  0.93827000000E+00 0.  1.
     999902    2    1    2    0    0 -0.76375848704E-02  0.12381744632E-01 -0.19805724434E-01  0.10193554802E+01  0.10190592171E+01 0.  0.
     999903    2    3    3    0    0  0.48004134197E-01 -0.10165086416E+00  0.55943386199E-01  0.12703414541E+00  0.19254001036E-01 0.  0.
         14    1    1    2    0    0  0.76375848704E-02 -0.12381744632E-01  0.19805724434E-01  0.24574519795E-01  0.00000000000E+00 0. -1.
     999901    1    3    3    0    0 -0.55641719067E-01  0.11403260879E+00 -0.75749110633E-01  0.89232133480E+00  0.88000000000E+00 0.  1.
        -11    1    4    4    0    0  0.34548937262E-01 -0.78017358657E-01  0.33126414890E-01  0.91531184862E-01  0.51100000000E-03 0.  1.
         11    1    4    4    0    0  0.13455196935E-01 -0.23633505504E-01  0.22816971308E-01  0.35502960548E-01  0.51100000000E-03 0. -1.
</event>
<event>
 8    1  0.1079508E+005  0.1043930E+01  0.7957747E-01            NaN
         13   -1    0    0    0    0  0.00000000000E+00  0.00000000000E+00  0.74505805969E-08  0.10566000000E+00  0.10566000000E+00 0. -1.
     999900   -1    0    0    0    0 -0.00000000000E+00 -0.00000000000E+00 -0.74505805969E-08  0.93827000000E+00  0.93827000000E+00 0. -1.
     999902    2    1    2    0    0  0.27409900081E-02  0.12423291855E-02 -0.22176808544E-01  0.10215499364E+01  0.10213047564E+01 0.  0.
     999903    2    3    3    0    0 -0.18824358931E-01 -0.31425395555E-01 -0.12801001489E+00  0.13434482369E+00  0.17890102455E-01 0.  0.
         14    1    1    2    0    0 -0.27409900081E-02 -0.12423291855E-02  0.22176808544E-01  0.22380063566E-01  0.00000000000E+00 0. -1.
     999901    1    3    3    0    0  0.21565348939E-01  0.32667724741E-01  0.10583320634E+00  0.88720511274E+00  0.88000000000E+00 0.  1.
        -11    1    4    4    0    0 -0.19865429871E-01 -0.32347208043E-01 -0.11185209916E+00  0.11811913638E+00  0.51100000000E-03 0. -1.
         11    1    4    4    0    0  0.10410709396E-02  0.92181248778E-03 -0.16157915726E-01  0.16225687307E-01  0.51100000000E-03 0.  1.
</event>
<event>
 8    1  0.1079508E+005  0.1043930E+01  0.7957747E-01            NaN
         13   -1    0    0    0    0  0.00000000000E+00  0.00000000000E+00  0.74505805969E-08  0.10566000000E+00  0.10566000000E+00 0. -1.
     999900   -1    0    0    0    0 -0.00000000000E+00 -0.00000000000E+00 -0.74505805969E-08  0.93827000000E+00  0.93827000000E+00 0. -1.
     999902    2    1    2    0    0 -0.48863878320E-02  0.10589312696E-01 -0.22701433682E-01  0.10184081384E+01  0.10180882923E+01 0.  0.
     999903    2    3    3    0    0 -0.79407432119E-01 -0.94866323511E-01 -0.30614856558E-01  0.12894937064E+00  0.19634437437E-01 0.  0.
         14    1    1    2    0    0  0.48863878320E-02 -0.10589312696E-01  0.22701433682E-01  0.25521861622E-01  0.00000000000E+00 0. -1.
     999901    1    3    3    0    0  0.74521044287E-01  0.10545563621E+00  0.79134228760E-02  0.88945876774E+00  0.88000000000E+00 0. -1.
        -11    1    4    4    0    0 -0.48939884297E-01 -0.44344281575E-01 -0.19967116795E-01  0.68996191616E-01  0.51100000000E-03 0.  1.
         11    1    4    4    0    0 -0.30467547821E-01 -0.50522041937E-01 -0.10647739763E-01  0.59953179021E-01  0.51100000000E-03 0. -1.
</event>
<event>
 8    1  0.1079508E+005  0.1043930E+01  0.7957747E-01            NaN
         13   -1    0    0    0    0  0.00000000000E+00  0.00000000000E+00  0.74505805969E-08  0.10566000000E+00  0.10566000000E+00 0.  1.
     999900   -1    0    0    0    0 -0.00000000000E+00 -0.00000000000E+00 -0.74505805969E-08  0.93827000000E+00  0.93827000000E+00 0. -1.
     999902    2    1    2    0    0  0.10509502057E-01  0.15131968535E-01 -0.15829870542E-01  0.10196398599E+01  0.10193504956E+01 0.  0.
     999903    2    3    3    0    0  0.76106345206E-01  0.70836060627E-01  0.76174794749E-01  0.13066812235E+00  0.21485706365E-01 0.  0.
         14    1    1    2    0    0 -0.10509502057E-01 -0.15131968535E-01  0.15829870542E-01  0.24290140111E-01  0.00000000000E+00 0.  1.
     999901    1    3    3    0    0 -0.65596843148E-01 -0.55704092092E-01 -0.92004665291E-01  0.88897173754E+00  0.88000000000E+00 0. -1.
        -11    1    4    4    0    0  0.30831777853E-01  0.31658788240E-01  0.45359626797E-01  0.63329568628E-01  0.51100000000E-03 0.  1.
         11    1    4    4    0    0  0.45274567353E-01  0.39177272387E-01  0.30815167952E-01  0.67338553723E-01  0.51100000000E-03 0. -1.
</event>
<event>
 8    1  0.1079508E+005  0.1043930E+01  0.7957747E-01            NaN
         13   -1    0    0    0    0  0.00000000000E+00  0.00000000000E+00  0.74505805969E-08  0.10566000000E+00  0.10566000000E+00 0.  1.
     999900   -1    0    0    0    0 -0.00000000000E+00 -0.00000000000E+00 -0.74505805969E-08  0.93827000000E+00  0.93827000000E+00 0.  1.
     999902    2    1    2    0    0  0.16038730917E-01  0.16257936879E-01 -0.69203490839E-02  0.10200667933E+01  0.10197876300E+01 0.  0.
     999903    2    3    3    0    0  0.58709290302E-01 -0.61141707388E-01  0.96260677030E-01  0.12964116156E+00  0.18857987113E-01 0.  0.
         14    1    1    2    0    0 -0.16038730917E-01 -0.16257936879E-01  0.69203490839E-02  0.23863206667E-01  0.00000000000E+00 0. -1.
     999901    1    3    3    0    0 -0.42670559385E-01  0.77399644267E-01 -0.10318102611E+00  0.89042563177E+00  0.88000000000E+00 0.  1.
        -11    1    4    4    0    0  0.44541530934E-01 -0.46234151684E-01  0.59591721664E-01  0.87595543105E-01  0.51100000000E-03 0.  1.
         11    1    4    4    0    0  0.14167759368E-01 -0.14907555704E-01  0.36668955366E-01  0.42045618454E-01  0.51100000000E-03 0. -1.
</event>
<event>
 8    1  0.1079508E+005  0.1043930E+01  0.7957747E-01            NaN
         13   -1    0    0    0    0  0.00000000000E+00  0.00000000000E+00  0.74505805969E-08  0.10566000000E+00  0.10566000000E+00 0.  1.
     999900   -1    0    0    0    0 -0.00000000000E+00 -0.00000000000E+00 -0.74505805969E-08  0.93827000000E+00  0.93827000000E+00 0. -1.
     999902    2    1    2    0    0 -0.21776447473E-01 -0.84206595136E-02  0.33929067135E-03  0.10205797047E+01  0.10203125489E+01 0.  0.
     999903    2    3    3    0    0 -0.12996425822E+00  0.18156487597E-01 -0.13982625814E-01  0.13344044597E+00  0.19760372959E-01 0.  0.
         14    1    1    2    0    0  0.21776447473E-01  0.84206595136E-02 -0.33929067135E-03  0.23350295273E-01  0.00000000000E+00 0. -1.
     999901    1    3    3    0    0  0.10818781074E+00 -0.26577147111E-01  0.14321916485E-01  0.88713925876E+00  0.88000000000E+00 0.  1.
        -11    1    4    4    0    0 -0.45653433026E-01  0.13639202898E-01  0.11394439785E-02  0.47663647115E-01  0.51100000000E-03 0.  1.
         11    1    4    4    0    0 -0.84310825191E-01  0.45172846989E-02 -0.15122069792E-01  0.85776798851E-01  0.51100000000E-03 0. -1.
</event>
<event>
 8    1  0.1079508E+005  0.1043930E+01  0.7957747E-01            NaN
         13   -1    0    0    0    0  0.00000000000E+00  0.00000000000E+00  0.74505805969E-08  0.10566000000E+00  0.10566000000E+00 0.  1.
     999900   -1    0    0    0    0 -0.00000000000E+00 -0.00000000000E+00 -0.74505805969E-08  0.93827000000E+00  0.93827000000E+00 0.  1.
     999902    2    1    2    0    0  0.19319767471E-01 -0.12307431745E-01  0.42825710992E-02  0.10206262083E+01  0.10203601278E+01 0.  0.
     999903    2    3    3    0    0 -0.90417738078E-01 -0.79589248131E-01 -0.43594222792E-01  0.12997400329E+00  0.21976566898E-01 0.  0.
         14    1    1    2    0    0 -0.19319767471E-01  0.12307431745E-01 -0.42825710992E-02  0.23303791677E-01  0.00000000000E+00 0. -1.
     999901    1    3    3    0    0  0.10973750555E+00  0.67281816386E-01  0.47876793891E-01  0.89065220504E+00  0.88000000000E+00 0.  1.
        -11    1    4    4    0    0 -0.39203817204E-01 -0.20905903085E-01 -0.18641079843E-01  0.48184510435E-01  0.51100000000E-03 0.  1.
         11    1    4    4    0    0 -0.51213920874E-01 -0.58683345046E-01 -0.24953142949E-01  0.81789492853E-01  0.51100000000E-03 0. -1.
</event>
<event>
 8    1  0.1079508E+005  0.1043930E+01  0.7957747E-01            NaN
         13   -1    0    0    0    0  0.00000000000E+00  0.00000000000E+00  0.74505805969E-08  0.10566000000E+00  0.10566000000E+00 0. -1.
     999900   -1    0    0    0    0 -0.00000000000E+00 -0.00000000000E+00 -0.74505805969E-08  0.93827000000E+00  0.93827000000E+00 0. -1.
     999902    2    1    2    0    0 -0.12835526504E-01  0.14575643892E-01 -0.14442741535E-01  0.10197268407E+01  0.10194395700E+01 0.  0.
     999903    2    3    3    0    0 -0.24107451774E-01 -0.21644130674E-01 -0.12581300513E+00  0.13189675339E+00  0.22764087367E-01 0.  0.
         14    1    1    2    0    0  0.12835526504E-01 -0.14575643892E-01  0.14442741535E-01  0.24203159268E-01  0.00000000000E+00 0. -1.
     999901    1    3    3    0    0  0.11271925270E-01  0.36219774566E-01  0.11137026359E+00  0.88783008734E+00  0.88000000000E+00 0.  1.
        -11    1    4    4    0    0 -0.39363684244E-03 -0.14685392680E-01 -0.41027066254E-01  0.43580924664E-01  0.51100000000E-03 0.  1.
         11    1    4    4    0    0 -0.23713814932E-01 -0.69587379934E-02 -0.84785938872E-01  0.88315828731E-01  0.51100000000E-03 0. -1.
</event>
<event>
 8    1  0.1079508E+005  0.1043930E+01  0.7957747E-01            NaN
         13   -1    0    0    0    0  0.00000000000E+00  0.00000000000E+00  0.74505805969E-08  0.10566000000E+00  0.10566000000E+00 0. -1.
     999900   -1    0    0    0    0 -0.00000000000E+00 -0.00000000000E+00 -0.74505805969E-08  0.93827000000E+00  0.93827000000E+00 0.  1.
     999902    2    1    2    0    0 -0.12818892671E-01  0.36576744580E-02  0.19053490856E-01  0.10206762238E+01  0.10204112974E+01 0.  0.
     999903    2    3    3    0    0 -0.74882245569E-01 -0.88283092616E-01 -0.56995454784E-01  0.13045804466E+00  0.19224058004E-01 0.  0.
         14    1    1    2    0    0  0.12818892671E-01 -0.36576744580E-02 -0.19053490856E-01  0.23253776156E-01  0.00000000000E+00 0.  1.
     999901    1    3    3    0    0  0.62063352898E-01  0.91940767074E-01  0.76048945640E-01  0.89021817919E+00  0.88000000000E+00 0. -1.
        -11    1    4    4    0    0 -0.35009958270E-01 -0.27930533038E-01 -0.17905360553E-01  0.48235618700E-01  0.51100000000E-03 0.  1.
         11    1    4    4    0    0 -0.39872287299E-01 -0.60352559578E-01 -0.39090094231E-01  0.82222425956E-01  0.51100000000E-03 0. -1.
</event>
<event>
 8    1  0.1079508E+005  0.1043930E+01  0.7957747E-01            NaN
         13   -1    0    0    0    0  0.00000000000E+00  0.00000000000E+00  0.74505805969E-08  0.10566000000E+00  0.10566000000E+00 0. -1.
     999900   -1    0    0    0    0 -0.00000000000E+00 -0.00000000000E+00 -0.74505805969E-08  0.93827000000E+00  0.93827000000E+00 0. -1.
     999902    2    1    2    0    0 -0.96494893321E-03  0.43205176098E-02 -0.23493944061E-01  0.10200226077E+01  0.10197423973E+01 0.  0.
     999903    2    3    3    0    0  0.49012089967E-01 -0.18593660875E-01 -0.12055937674E+00  0.13298007084E+00  0.20030644800E-01 0.  0.
         14    1    1    2    0    0  0.96494893321E-03 -0.43205176098E-02  0.23493944061E-01  0.23907392296E-01  0.00000000000E+00 0. -1.
     999901    1    3    3    0    0 -0.49977038900E-01  0.22914178485E-01  0.97065432682E-01  0.88704253687E+00  0.88000000000E+00 0.  1.
        -11    1    4    4    0    0  0.48595563545E-02 -0.38655429919E-02 -0.35267023704E-01  0.35813151111E-01  0.51100000000E-03 0. -1.
         11    1    4    4    0    0  0.44152533613E-01 -0.14728117883E-01 -0.85292353039E-01  0.97166919724E-01  0.51100000000E-03 0.  1.
</event>
<event>
 8    1  0.1079508E+005  0.1043930E+01  0.7957747E-01            NaN
         13   -1    0    0    0    0  0.00000000000E+00  0.00000000000E+00  0.74505805969E-08  0.10566000000E+00  0.10566000000E+00 0. -1.
     999900   -1    0    0    0    0 -0.00000000000E+00 -0.00000000000E+00 -0.74505805969E-08  0.93827000000E+00  0.93827000000E+00 0.  1.
     999902    2    1    2    0    0 -0.14113944729E-01  0.96063452995E-02 -0.16715024730E-01  0.10200369601E+01  0.10197570900E+01 0.  0.
     999903    2    3    3    0    0  0.45149541714E-01  0.11331608559E+00 -0.44875011391E-01  0.13152086234E+00  0.20123474170E-01 0.  0.
         14    1    1    2    0    0  0.14113944729E-01 -0.96063452995E-02  0.16715024730E-01  0.23893039940E-01  0.00000000000E+00 0. -1.
     999901    1    3    3    0    0 -0.59263486444E-01 -0.10370974029E+00  0.28159986660E-01  0.88851609772E+00  0.88000000000E+00 0. -1.
        -11    1    4    4    0    0  0.21097691788E-01  0.69716977452E-01 -0.34751728451E-01  0.80706339869E-01  0.51100000000E-03 0.  1.
         11    1    4    4    0    0  0.24051849927E-01  0.43599108141E-01 -0.10123282939E-01  0.50814522472E-01  0.51100000000E-03 0. -1.
</event>
<event>
 8    1  0.1079508E+005  0.1043930E+01  0.7957747E-01            NaN
         13   -1    0    0    0    0  0.00000000000E+00  0.00000000000E+00  0.74505805969E-08  0.10566000000E+00  0.10566000000E+00 0. -1.
     999900   -1    0    0    0    0 -0.00000000000E+00 -0.00000000000E+00 -0.74505805969E-08  0.93827000000E+00  0.93827000000E+00 0.  1.
     999902    2    1    2    0    0  0.15079592680E-02 -0.10190676190E-03 -0.23790841651E-01  0.10200911982E+01  0.10198126123E+01 0.  0.
     999903    2    3    3    0    0  0.58250513982E-01 -0.48410470850E-01 -0.10737648055E+00  0.13299481451E+00  0.20523548494E-01 0.  0.
         14    1    1    2    0    0 -0.15079592680E-02  0.10190676190E-03  0.23790841651E-01  0.23838801828E-01  0.00000000000E+00 0. -1.
     999901    1    3    3    0    0 -0.56742554714E-01  0.48308564088E-01  0.83585638902E-01  0.88709638366E+00  0.88000000000E+00 0. -1.
        -11    1    4    4    0    0  0.14758847056E-01 -0.97743040296E-02 -0.12408079841E-01  0.21623647981E-01  0.51100000000E-03 0.  1.
         11    1    4    4    0    0  0.43491666926E-01 -0.38636166820E-01 -0.94968400712E-01  0.11137116653E+00  0.51100000000E-03 0. -1.
</event>
<event>
 8    1  0.1079508E+005  0.1043930E+01  0.7957747E-01            NaN
         13   -1    0    0    0    0  0.00000000000E+00  0.00000000000E+00  0.74505805969E-08  0.10566000000E+00  0.10566000000E+00 0. -1.
     999900   -1    0    0    0    0 -0.00000000000E+00 -0.00000000000E+00 -0.74505805969E-08  0.93827000000E+00  0.93827000000E+00 0. -1.
     999902    2    1    2    0    0  0.20444565688E-01 -0.72401528545E-02  0.14138069319E-01  0.10180401355E+01  0.10177108786E+01 0.  0.
     999903    2    3    3    0    0 -0.83553838419E-01 -0.86186701750E-01  0.39172829834E-01  0.12805420029E+00  0.21306715900E-01 0.  0.
         14    1    1    2    0    0 -0.20444565688E-01  0.72401528545E-02 -0.14138069319E-01  0.25889864496E-01  0.00000000000E+00 0.  1.
     999901    1    3    3    0    0  0.10399840411E+00  0.78946548895E-01 -0.25034760516E-01  0.88998593521E+00  0.88000000000E+00 0.  1.
        -11    1    4    4    0    0 -0.57021477703E-01 -0.65491079896E-01  0.19249462224E-01  0.88945676580E-01  0.51100000000E-03 0. -1.
         11    1    4    4    0    0 -0.26532360716E-01 -0.20695621854E-01  0.19923367610E-01  0.39108523713E-01  0.51100000000E-03 0.  1.
</event>
<event>
 8    1  0.1079508E+005  0.1043930E+01  0.7957747E-01            NaN
         13   -1    0    0    0    0  0.00000000000E+00  0.00000000000E+00  0.74505805969E-08  0.10566000000E+00  0.10566000000E+00 0.  1.
     999900   -1    0    0    0    0 -0.00000000000E+00 -0.00000000000E+00 -0.74505805969E-08  0.93827000000E+00  0.93827000000E+00 0.  1.
     999902    2    1    2    0    0 -0.37410415337E-02 -0.23970727269E-01  0.35791382309E-02  0.10194065135E+01  0.10191114946E+01 0.  0.
     999903    2    3    3    0    0 -0.12844037797E+00  0.53885228684E-02  0.36503245053E-02  0.13013046240E+00  0.19865686585E-01 0.  0.
         14    1    1    2    0    0  0.37410415337E-02  0.23970727269E-01 -0.35791382309E-02  0.24523486457E-01  0.00000000000E+00 0. -1.
     999901    1    3    3    0    0  0.12469933643E+00 -0.29359250137E-01 -0.71186274482E-04  0.88927605115E+00  0.88000000000E+00 0.  1.
        -11    1    4    4    0    0 -0.26204818557E-01  0.91815881994E-02  0.61773816651E-03  0.27778351264E-01  0.51100000000E-03 0.  1.
         11    1    4    4    0    0 -0.10223555941E+00 -0.37930653310E-02  0.30325863388E-02  0.10235211113E+00  0.51100000000E-03 0. -1.
</event>
<event>
 8    1  0.1079508E+005  0.1043930E+01  0.7957747E-01            NaN
         13   -1    0    0    0    0  0.00000000000E+00  0.00000000000E+00  0.74505805969E-08  0.10566000000E+00  0.10566000000E+00 0. -1.
     999900   -1    0    0    0    0 -0.00000000000E+00 -0.00000000000E+00 -0.74505805969E-08  0.93827000000E+00  0.93827000000E+00 0. -1.
     999902    2    1    2    0    0 -0.81351238907E-02 -0.49401342747E-02  0.20535995972E-01  0.10212956832E+01  0.10210448375E+01 0.  0.
     999903    2    3    3    0    0 -0.39496268955E-01 -0.12196153545E+00 -0.23775383637E-01  0.13189081018E+00  0.19883298321E-01 0.  0.
         14    1    1    2    0    0  0.81351238907E-02  0.49401342747E-02 -0.20535995972E-01  0.22634316821E-01  0.00000000000E+00 0.  1.
     999901    1    3    3    0    0  0.31361145064E-01  0.11702140118E+00  0.44311379609E-01  0.88940487300E+00  0.88000000000E+00 0.  1.
        -11    1    4    4    0    0 -0.20210335342E-01 -0.86026520006E-01 -0.21991389926E-01  0.91065372952E-01  0.51100000000E-03 0. -1.
         11    1    4    4    0    0 -0.19285933613E-01 -0.35935015444E-01 -0.17839937105E-02  0.40825437228E-01  0.51100000000E-03 0.  1.
</event>
<event>
 8    1  0.1079508E+005  0.1043930E+01  0.7957747E-01            NaN
         13   -1    0    0    0    0  0.00000000000E+00  0.00000000000E+00  0.74505805969E-08  0.10566000000E+00  0.10566000000E+00 0.  1.
     999900   -1    0    0    0    0 -0.00000000000E+00 -0.00000000000E+00 -0.74505805969E-08  0.93827000000E+00  0.93827000000E+00 0.  1.
     999902    2    1    2    0    0  0.18458232442E-01 -0.14265314285E-02 -0.14845322138E-01  0.10201997466E+01  0.10199237217E+01 0.  0.
     999903    2    3    3    0    0 -0.73802572374E-01  0.10033820963E+00 -0.29222894528E-01  0.12942770325E+00  0.19569793156E-01 0.  0.
         14    1    1    2    0    0 -0.18458232442E-01  0.14265314285E-02  0.14845322138E-01  0.23730253395E-01  0.00000000000E+00 0.  1.
     999901    1    3    3    0    0  0.92260804816E-01 -0.10176474106E+00  0.14377572390E-01  0.89077204335E+00  0.88000000000E+00 0. -1.
        -11    1    4    4    0    0 -0.46848062849E-01  0.78378999690E-01 -0.21001298644E-01  0.93698048277E-01  0.51100000000E-03 0.  1.
         11    1    4    4    0    0 -0.26954509524E-01  0.21959209940E-01 -0.82215958846E-02  0.35729654977E-01  0.51100000000E-03 0. -1.
</event>
<event>
 8    1  0.1079508E+005  0.1043930E+01  0.7957747E-01            NaN
         13   -1    0    0    0    0  0.00000000000E+00  0.00000000000E+00  0.74505805969E-08  0.10566000000E+00  0.10566000000E+00 0. -1.
     999900   -1    0    0    0    0 -0.00000000000E+00 -0.00000000000E+00 -0.74505805969E-08  0.93827000000E+00  0.93827000000E+00 0.  1.
     999902    2    1    2    0    0 -0.26759193072E-01 -0.10350703439E-01 -0.12214659857E-01  0.10127468412E+01  0.10122666521E+01 0.  0.
     999903    2    3    3    0    0  0.24323477034E-02 -0.12254157155E+00 -0.15878808796E-01  0.12513636195E+00  0.19611716873E-01 0.  0.
         14    1    1    2    0    0  0.26759193072E-01  0.10350703439E-01  0.12214659857E-01  0.31183158772E-01  0.00000000000E+00 0. -1.
     999901    1    3    3    0    0 -0.29191540776E-01  0.11219086811E+00  0.36641489396E-02  0.88761047928E+00  0.88000000000E+00 0.  1.
        -11    1    4    4    0    0  0.10456098494E-01 -0.86596021417E-01 -0.13005394075E-01  0.88190715594E-01  0.51100000000E-03 0.  1.
         11    1    4    4    0    0 -0.80237507902E-02 -0.35945550136E-01 -0.28734147213E-02  0.36945646354E-01  0.51100000000E-03 0. -1.
</event>
<event>
 8    1  0.1079508E+005  0.1043930E+01  0.7957747E-01            NaN
         13   -1    0    0    0    0  0.00000000000E+00  0.00000000000E+00  0.74505805969E-08  0.10566000000E+00  0.10566000000E+00 0. -1.
     999900   -1    0    0    0    0 -0.00000000000E+00 -0.00000000000E+00 -0.74505805969E-08  0.93827000000E+00  0.93827000000E+00 0.  1.
     999902    2    1    2    0    0  0.15301919229E-01  0.65388500945E-02  0.13805060522E-01  0.10223085988E+01  0.10220799314E+01 0.  0.
     999903    2    3    3    0    0 -0.12499392192E+00 -0.24885198839E-02  0.31803934161E-01  0.13096782454E+00  0.22614322626E-01 0.  0.
         14    1    1    2    0    0 -0.15301919229E-01 -0.65388500945E-02 -0.13805060522E-01  0.21621401172E-01  0.00000000000E+00 0.  1.
     999901    1    3    3    0    0  0.14029584115E+00  0.90273699784E-02 -0.17998873640E-01  0.89134077429E+00  0.88000000000E+00 0.  1.
        -11    1    4    4    0    0 -0.74551858747E-01  0.85142533241E-02  0.23788826755E-01  0.78718749683E-01  0.51100000000E-03 0. -1.
         11    1    4    4    0    0 -0.50442063177E-01 -0.11002773208E-01  0.80151074066E-02  0.52249074858E-01  0.51100000000E-03 0.  1.
</event>
<event>
 8    1  0.1079508E+005  0.1043930E+01  0.7957747E-01            NaN
         13   -1    0    0    0    0  0.00000000000E+00  0.00000000000E+00  0.74505805969E-08  0.10566000000E+00  0.10566000000E+00 0. -1.
     999900   -1    0    0    0    0 -0.00000000000E+00 -0.00000000000E+00 -0.74505805969E-08  0.93827000000E+00  0.93827000000E+00 0.  1.
     999902    2    1    2    0    0 -0.18094833005E-01 -0.12953937820E-01  0.74366415444E-02  0.10204666003E+01  0.10201968199E+01 0.  0.
     999903    2    3    3    0    0 -0.21472979527E-01 -0.12305683506E+00  0.40661839724E-01  0.13297689693E+00  0.20625140073E-01 0.  0.
         14    1    1    2    0    0  0.18094833005E-01  0.12953937820E-01 -0.74366415444E-02  0.23463399668E-01  0.00000000000E+00 0.  1.
     999901    1    3    3    0    0  0.33781465224E-02  0.11010289724E+00 -0.33225198180E-01  0.88748970340E+00  0.88000000000E+00 0.  1.
        -11    1    4    4    0    0 -0.50249855775E-02 -0.74483606479E-01  0.17360966953E-01  0.76646737757E-01  0.51100000000E-03 0.  1.
         11    1    4    4    0    0 -0.16447993950E-01 -0.48573228577E-01  0.23300872772E-01  0.56330159171E-01  0.51100000000E-03 0. -1.
</event>
<event>
 8    1  0.1079508E+005  0.1043930E+01  0.7957747E-01            NaN
         13   -1    0    0    0    0  0.00000000000E+00  0.00000000000E+00  0.74505805969E-08  0.10566000000E+00  0.10566000000E+00 0.  1.
     999900   -1    0    0    0    0 -0.00000000000E+00 -0.00000000000E+00 -0.74505805969E-08  0.93827000000E+00  0.93827000000E+00 0.  1.
     999902    2    1    2    0    0 -0.14897948136E-01  0.29364122361E-02  0.18441397585E-01  0.10200415819E+01  0.10197618213E+01 0.  0.
     999903    2    3    3    0    0  0.11429101970E+00 -0.53676679070E-01 -0.11359744834E-01  0.12831127533E+00  0.19776665899E-01 0.  0.
         14    1    1    2    0    0  0.14897948136E-01 -0.29364122361E-02 -0.18441397585E-01  0.23888418122E-01  0.00000000000E+00 0. -1.
     999901    1    3    3    0    0 -0.12918896784E+00  0.56613091306E-01  0.29801142419E-01  0.89173030654E+00  0.88000000000E+00 0. -1.
        -11    1    4    4    0    0  0.81604217551E-01 -0.29298082295E-01 -0.11961182339E-01  0.87526892737E-01  0.51100000000E-03 0. -1.
         11    1    4    4    0    0  0.32686802153E-01 -0.24378596775E-01  0.60143750444E-03  0.40784382597E-01  0.51100000000E-03 0.  1.
</event>
<event>
 8    1  0.1079508E+005  0.1043930E+01  0.7957747E-01            NaN
         13   -1    0    0    0    0  0.00000000000E+00  0.00000000000E+00  0.74505805969E-08  0.10566000000E+00  0.10566000000E+00 0.  1.
     999900   -1    0    0    0    0 -0.00000000000E+00 -0.00000000000E+00 -0.74505805969E-08  0.93827000000E+00  0.93827000000E+00 0.  1.
     999902    2    1    2    0    0  0.15808759291E-01 -0.43790421026E-02 -0.17473205503E-01  0.10199632357E+01  0.10196816152E+01 0.  0.
     999903    2    3    3    0    0 -0.26216849224E-01 -0.29847378204E-01  0.12002851768E+00  0.12793099874E+00  0.19527063593E-01 0.  0.
         14    1    1    2    0    0 -0.15808759291E-01  0.43790421026E-02  0.17473205503E-01  0.23966764292E-01  0.00000000000E+00 0.  1.
     999901    1    3    3    0    0  0.42025608515E-01  0.25468336101E-01 -0.13750172318E+00  0.89203223697E+00  0.88000000000E+00 0.  1.
        -11    1    4    4    0    0 -0.58643053502E-02 -0.16482830317E-01  0.71799275979E-01  0.73901765369E-01  0.51100000000E-03 0. -1.
         11    1    4    4    0    0 -0.20352543873E-01 -0.13364547886E-01  0.48229241702E-01  0.54029233370E-01  0.51100000000E-03 0.  1.
</event>
<event>
 8    1  0.1134653E+005  0.1043930E+01  0.7957747E-01            NaN
         13   -1    0    0    0    0  0.00000000000E+00  0.00000000000E+00  0.74505805969E-08  0.10566000000E+00  0.10566000000E+00 0. -1.
     999900   -1    0    0    0    0 -0.00000000000E+00 -0.00000000000E+00 -0.74505805969E-08  0.93827000000E+00  0.93827000000E+00 0. -1.
     999902    2    1    2    0    0  0.13983193267E-01 -0.20400802832E-01 -0.55652035812E-02  0.10185785909E+01  0.10182630564E+01 0.  0.
     999903    2    3    3    0    0 -0.30201890359E-01 -0.87923630542E-01  0.87933173823E-01  0.12995403555E+00  0.22651474738E-01 0.  0.
         14    1    1    2    0    0 -0.13983193267E-01  0.20400802832E-01  0.55652035812E-02  0.25351409055E-01  0.00000000000E+00 0.  1.
     999901    1    3    3    0    0  0.44185083627E-01  0.67522827709E-01 -0.93498377405E-01  0.88862455540E+00  0.88000000000E+00 0. -1.
        -11    1    4    4    0    0 -0.16890740757E-01 -0.48861266120E-01  0.63896756251E-01  0.82193533995E-01  0.51100000000E-03 0.  1.
         11    1    4    4    0    0 -0.13311149603E-01 -0.39062364422E-01  0.24036417572E-01  0.47760501554E-01  0.51100000000E-03 0. -1.
</event>
<event>
 8    1  0.1079508E+005  0.1043930E+01  0.7957747E-01            NaN
         13   -1    0    0    0    0  0.00000000000E+00  0.00000000000E+00  0.74505805969E-08  0.10566000000E+00  0.10566000000E+00 0.  1.
     999900   -1    0    0    0    0 -0.00000000000E+00 -0.00000000000E+00 -0.74505805969E-08  0.93827000000E+00  0.93827000000E+00 0. -1.
     999902    2    1    2    0    0 -0.23530578701E-01  0.14386448129E-02 -0.54960235035E-02  0.10197233045E+01  0.10194359488E+01 0.  0.
     999903    2    3    3    0    0  0.41904848647E-01  0.78413706991E-01  0.90905421079E-01  0.12871253359E+00  0.19959833106E-01 0.  0.
         14    1    1    2    0    0  0.23530578701E-01 -0.14386448129E-02  0.54960235035E-02  0.24206695505E-01  0.00000000000E+00 0.  1.
     999901    1    3    3    0    0 -0.65435427348E-01 -0.76975062179E-01 -0.96401444583E-01  0.89101077090E+00  0.88000000000E+00 0.  1.
        -11    1    4    4    0    0  0.29773016910E-01  0.38262908433E-01  0.56575073751E-01  0.74508273290E-01  0.51100000000E-03 0.  1.
         11    1    4    4    0    0  0.12131831738E-01  0.40150798558E-01  0.34330347328E-01  0.54204260301E-01  0.51100000000E-03 0. -1.
</event>
<event>
 8    1  0.1079508E+005  0.1043930E+01  0.7957747E-01            NaN
         13   -1    0    0    0    0  0.00000000000E+00  0.00000000000E+00  0.74505805969E-08  0.10566000000E+00  0.10566000000E+00 0.  1.
     999900   -1    0    0    0    0 -0.00000000000E+00 -0.00000000000E+00 -0.74505805969E-08  0.93827000000E+00  0.93827000000E+00 0.  1.
     999902    2    1    2    0    0 -0.10264393136E-01 -0.10556580121E-01 -0.17068089330E-01  0.10213885088E+01  0.10211397393E+01 0.  0.
     999903    2    3    3    0    0  0.76021367688E-01  0.10001208222E+00 -0.27964123623E-01  0.13021546999E+00  0.19809378585E-01 0.  0.
         14    1    1    2    0    0  0.10264393136E-01  0.10556580121E-01  0.17068089330E-01  0.22541491159E-01  0.00000000000E+00 0.  1.
     999901    1    3    3    0    0 -0.86285760824E-01 -0.11056866234E+00  0.10896034293E-01  0.89117303885E+00  0.88000000000E+00 0.  1.
        -11    1    4    4    0    0  0.33424370927E-02  0.13917850257E-01 -0.54040894977E-02  0.15308290100E-01  0.51100000000E-03 0. -1.
         11    1    4    4    0    0  0.72678930595E-01  0.86094231961E-01 -0.22560034125E-01  0.11490717989E+00  0.51100000000E-03 0.  1.
</event>
<event>
 8    1  0.1079508E+005  0.1043930E+01  0.7957747E-01            NaN
         13   -1    0    0    0    0  0.00000000000E+00  0.00000000000E+00  0.74505805969E-08  0.10566000000E+00  0.10566000000E+00 0.  1.
     999900   -1    0    0    0    0 -0.00000000000E+00 -0.00000000000E+00 -0.74505805969E-08  0.93827000000E+00  0.93827000000E+00 0.  1.
     999902    2    1    2    0    0  0.22753500464E-01  0.45202203217E-02 -0.83875119330E-02  0.10192621154E+01  0.10189635692E+01 0.  0.
     999903    2    3    3    0    0  0.57736924683E-01  0.11437479573E+00  0.21015605324E-01  0.13125512723E+00  0.19264121753E-01 0.  0.
         14    1    1    2    0    0 -0.22753500464E-01 -0.45202203217E-02  0.83875119330E-02  0.24667884618E-01  0.00000000000E+00 0.  1.
     999901    1    3    3    0    0 -0.34983424219E-01 -0.10985457540E+00 -0.29403117257E-01  0.88800698815E+00  0.88000000000E+00 0.  1.
        -11    1    4    4    0    0  0.40314762429E-02  0.61708697347E-02  0.60147127297E-02  0.95273461258E-02  0.51100000000E-03 0.  1.
         11    1    4    4    0    0  0.53705448440E-01  0.10820392599E+00  0.15000892595E-01  0.12172778110E+00  0.51100000000E-03 0. -1.
</event>
<event>
 8    1  0.1079508E+005  0.1043930E+01  0.7957747E-01            NaN
         13   -1    0    0    0    0  0.00000000000E+00  0.00000000000E+00  0.74505805969E-08  0.10566000000E+00  0.10566000000E+00 0. -1.
     999900   -1    0    0    0    0 -0.00000000000E+00 -0.00000000000E+00 -0.74505805969E-08  0.93827000000E+00  0.93827000000E+00 0.  1.
     999902    2    1    2    0    0 -0.35619124315E-02  0.73358718500E-03 -0.18591046701E-01  0.10249866004E+01  0.10248115332E+01 0.  0.
     999903    2    3    3    0    0 -0.35907995523E-01 -0.56721601680E-01 -0.11767430911E+00  0.13697485460E+00  0.20202562420E-01 0.  0.
         14    1    1    2    0    0  0.35619124315E-02 -0.73358718500E-03  0.18591046701E-01  0.18943399583E-01  0.00000000000E+00 0. -1.
     999901    1    3    3    0    0  0.32346083091E-01  0.57455188865E-01  0.99083262411E-01  0.88801174582E+00  0.88000000000E+00 0. -1.
        -11    1    4    4    0    0 -0.25130195503E-03 -0.12100269668E-01 -0.29792214070E-01  0.32160796304E-01  0.51100000000E-03 0.  1.
         11    1    4    4    0    0 -0.35656693568E-01 -0.44621332012E-01 -0.87882095041E-01  0.10481405830E+00  0.51100000000E-03 0. -1.
</event>
<event>
 8    1  0.1079508E+005  0.1043930E+01  0.7957747E-01            NaN
         13   -1    0    0    0    0  0.00000000000E+00  0.00000000000E+00  0.74505805969E-08  0.10566000000E+00  0.10566000000E+00 0.  1.
     999900   -1    0    0    0    0 -0.00000000000E+00 -0.00000000000E+00 -0.74505805969E-08  0.93827000000E+00  0.93827000000E+00 0.  1.
     999902    2    1    2    0    0  0.13302310676E-01  0.10497295481E-01 -0.18085299190E-01  0.10191464827E+01  0.10188450964E+01 0.  0.
     999903    2    3    3    0    0 -0.95915321942E-01  0.84288232213E-01 -0.55258784549E-03  0.12915716280E+00  0.19416803947E-01 0.  0.
         14    1    1    2    0    0 -0.13302310676E-01 -0.10497295481E-01  0.18085299190E-01  0.24783517275E-01  0.00000000000E+00 0. -1.
     999901    1    3    3    0    0  0.10921763262E+00 -0.73790936732E-01 -0.17532711344E-01  0.88998931993E+00  0.88000000000E+00 0.  1.
        -11    1    4    4    0    0 -0.58638315546E-02  0.13880212124E-03 -0.47409117608E-03  0.59067478339E-02  0.51100000000E-03 0. -1.
         11    1    4    4    0    0 -0.90051490388E-01  0.84149430092E-01 -0.78496669409E-04  0.12325041496E+00  0.51100000000E-03 0.  1.
</event>
<event>
 8    1  0.1079508E+005  0.1043930E+01  0.7957747E-01            NaN
         13   -1    0    0    0    0  0.00000000000E+00  0.00000000000E+00  0.74505805969E-08  0.10566000000E+00  0.10566000000E+00 0. -1.
     999900   -1    0    0    0    0 -0.00000000000E+00 -0.00000000000E+00 -0.74505805969E-08  0.93827000000E+00  0.93827000000E+00 0. -1.
     999902    2    1    2    0    0  0.96022015799E-03  0.10417518572E-01  0.20343805195E-01  0.10210538743E+01  0.10207975789E+01 0.  0.
     999903    2    3    3    0    0  0.36722219699E-01  0.57693458771E-02 -0.12182297811E+00  0.12891491632E+00  0.19910069906E-01 0.  0.
         14    1    1    2    0    0 -0.96022015799E-03 -0.10417518572E-01 -0.20343805195E-01  0.22876125672E-01  0.00000000000E+00 0.  1.
     999901    1    3    3    0    0 -0.35761999541E-01  0.46481726952E-02  0.14216678330E+00  0.89213895801E+00  0.88000000000E+00 0.  1.
        -11    1    4    4    0    0 -0.21235000524E-02  0.16614067978E-02 -0.13157402955E-01  0.13440531929E-01  0.51100000000E-03 0. -1.
         11    1    4    4    0    0  0.38845719752E-01  0.41079390792E-02 -0.10866557515E+00  0.11547438439E+00  0.51100000000E-03 0.  1.
</event>
<event>
 8    1  0.1079508E+005  0.1043930E+01  0.7957747E-01            NaN
         13   -1    0    0    0    0  0.00000000000E+00  0.00000000000E+00  0.74505805969E-08  0.10566000000E+00  0.10566000000E+00 0. -1.
     999900   -1    0    0    0    0 -0.00000000000E+00 -0.00000000000E+00 -0.74505805969E-08  0.93827000000E+00  0.93827000000E+00 0.  1.
     999902    2    1    2    0    0  0.66082612551E-02  0.15950261011E-01  0.14802336205E-01  0.10211882081E+01  0.10209349476E+01 0.  0.
     999903    2    3    3    0    0  0.34971446476E-01  0.12192982988E+00 -0.38014983890E-01  0.13280438978E+00  0.10098587134E-01 0.  0.
         14    1    1    2    0    0 -0.66082612551E-02 -0.15950261011E-01 -0.14802336205E-01  0.22741791931E-01  0.00000000000E+00 0.  1.
     999901    1    3    3    0    0 -0.28363185221E-01 -0.10597956887E+00  0.52817320095E-01  0.88838381829E+00  0.88000000000E+00 0. -1.
        -11    1    4    4    0    0  0.22241335493E-01  0.67972571070E-01 -0.16993260950E-01  0.73511764100E-01  0.51100000000E-03 0.  1.
         11    1    4    4    0    0  0.12730110983E-01  0.53957258809E-01 -0.21021722941E-01  0.59292625681E-01  0.51100000000E-03 0. -1.
</event>
<event>
 8    1  0.1079508E+005  0.1043930E+01  0.7957747E-01            NaN
         13   -1    0    0    0    0  0.00000000000E+00  0.00000000000E+00  0.74505805969E-08  0.10566000000E+00  0.10566000000E+00 0. -1.
     999900   -1    0    0    0    0 -0.00000000000E+00 -0.00000000000E+00 -0.74505805969E-08  0.93827000000E+00  0.93827000000E+00 0.  1.
     999902    2    1    2    0    0  0.21162799061E-01 -0.88418847479E-02  0.68671624620E-02  0.10199883854E+01  0.10197073626E+01 0.  0.
     999903    2    3    3    0    0  0.64673424650E-02 -0.77575229059E-01  0.10455675229E+00  0.13179725448E+00  0.19459166357E-01 0.  0.
         14    1    1    2    0    0 -0.21162799061E-01  0.88418847479E-02 -0.68671624620E-02  0.23941614613E-01  0.00000000000E+00 0. -1.
     999901    1    3    3    0    0  0.14695456596E-01  0.68733344311E-01 -0.97689589832E-01  0.88819113091E+00  0.88000000000E+00 0.  1.
        -11    1    4    4    0    0  0.91283080058E-02 -0.66039438394E-01  0.77316982308E-01  0.10209167598E+00  0.51100000000E-03 0.  1.
         11    1    4    4    0    0 -0.26609655408E-02 -0.11535790665E-01  0.27239769987E-01  0.29705578496E-01  0.51100000000E-03 0. -1.
</event>
<event>
 8    1  0.1079508E+005  0.1043930E+01  0.7957747E-01            NaN
         13   -1    0    0    0    0  0.00000000000E+00  0.00000000000E+00  0.74505805969E-08  0.10566000000E+00  0.10566000000E+00 0. -1.
     999900   -1    0    0    0    0 -0.00000000000E+00 -0.00000000000E+00 -0.74505805969E-08  0.93827000000E+00  0.93827000000E+00 0.  1.
     999902    2    1    2    0    0 -0.18335484353E-01  0.35806099490E-02  0.17544217531E-03  0.10252473467E+01  0.10250771095E+01 0.  0.
     999903    2    3    3    0    0 -0.93193635407E-01  0.27695316531E-01  0.94036662378E-01  0.13676820204E+00  0.20262353761E-01 0.  0.
         14    1    1    2    0    0  0.18335484353E-01 -0.35806099490E-02 -0.17544217531E-03  0.18682653291E-01  0.00000000000E+00 0.  1.
     999901    1    3    3    0    0  0.74858151054E-01 -0.24114706582E-01 -0.93861220203E-01  0.88847914467E+00  0.88000000000E+00 0.  1.
        -11    1    4    4    0    0 -0.52035654072E-01  0.25819909409E-01  0.56198113103E-01  0.80826147093E-01  0.51100000000E-03 0. -1.
         11    1    4    4    0    0 -0.41157981335E-01  0.18754071218E-02  0.37838549275E-01  0.55942054947E-01  0.51100000000E-03 0.  1.
</event>
<event>
 8    1  0.1079508E+005  0.1043930E+01  0.7957747E-01            NaN
         13   -1    0    0    0    0  0.00000000000E+00  0.00000000000E+00  0.74505805969E-08  0.10566000000E+00  0.10566000000E+00 0. -1.
     999900   -1    0    0    0    0 -0.00000000000E+00 -0.00000000000E+00 -0.74505805969E-08  0.93827000000E+00  0.93827000000E+00 0.  1.
     999902    2    1    2    0    0 -0.16473422904E-01 -0.12201080274E-01 -0.16490416339E-01  0.10176208029E+01  0.10172806518E+01 0.  0.
     999903    2    3    3    0    0  0.15614181662E-01 -0.12470194813E+00 -0.25600673270E-01  0.12983194487E+00  0.20163355345E-01 0.  0.
         14    1    1    2    0    0  0.16473422904E-01  0.12201080274E-01  0.16490416339E-01  0.26309197119E-01  0.00000000000E+00 0.  1.
     999901    1    3    3    0    0 -0.32087604566E-01  0.11250086786E+00  0.91102569310E-02  0.88778885802E+00  0.88000000000E+00 0.  1.
        -11    1    4    4    0    0  0.17789313586E-01 -0.77427241996E-01 -0.21630767209E-01  0.82338257767E-01  0.51100000000E-03 0.  1.
         11    1    4    4    0    0 -0.21751319236E-02 -0.47274706135E-01 -0.39699060609E-02  0.47493687098E-01  0.51100000000E-03 0. -1.
</event>
<event>
 8    1  0.1079508E+005  0.1043930E+01  0.7957747E-01            NaN
         13   -1    0    0    0    0  0.00000000000E+00  0.00000000000E+00  0.74505805969E-08  0.10566000000E+00  0.10566000000E+00 0. -1.
     999900   -1    0    0    0    0 -0.00000000000E+00 -0.00000000000E+00 -0.74505805969E-08  0.93827000000E+00  0.93827000000E+00 0.  1.
     999902    2    1    2    0    0 -0.13448270567E-01  0.18767828586E-01  0.40547159325E-02  0.10204879845E+01  0.10202187012E+01 0.  0.
     999903    2    3    3    0    0 -0.34922412385E-01 -0.48634452587E-01 -0.11347803592E+00  0.12986002957E+00  0.20036910402E-01 0.  0.
         14    1    1    2    0    0  0.13448270567E-01 -0.18767828586E-01 -0.40547159325E-02  0.23442015536E-01  0.00000000000E+00 0. -1.
     999901    1    3    3    0    0  0.21474141817E-01  0.67402281172E-01  0.11753275186E+00  0.89062795489E+00  0.88000000000E+00 0. -1.
        -11    1    4    4    0    0 -0.32736040092E-01 -0.37300972933E-01 -0.77118682918E-01  0.91709123204E-01  0.51100000000E-03 0.  1.
         11    1    4    4    0    0 -0.21863722924E-02 -0.11333479653E-01 -0.36359353006E-01  0.38150906370E-01  0.51100000000E-03 0. -1.
</event>
<event>
 8    1  0.1079508E+005  0.1043930E+01  0.7957747E-01            NaN
         13   -1    0    0    0    0  0.00000000000E+00  0.00000000000E+00  0.74505805969E-08  0.10566000000E+00  0.10566000000E+00 0. -1.
     999900   -1    0    0    0    0 -0.00000000000E+00 -0.00000000000E+00 -0.74505805969E-08  0.93827000000E+00  0.93827000000E+00 0. -1.
     999902    2    1    2    0    0 -0.17983291341E-01  0.41318759914E-02 -0.69780490647E-02  0.10242027514E+01  0.10240127498E+01 0.  0.
     999903    2    3    3    0    0 -0.45223323059E-01 -0.89647691506E-01  0.86388223049E-01  0.13389163314E+00  0.19549598555E-01 0.  0.
         14    1    1    2    0    0  0.17983291341E-01 -0.41318759914E-02  0.69780490647E-02  0.19727248551E-01  0.00000000000E+00 0. -1.
     999901    1    3    3    0    0  0.27240031718E-01  0.93779567498E-01 -0.93366272113E-01  0.89031111830E+00  0.88000000000E+00 0. -1.
        -11    1    4    4    0    0 -0.54169170703E-02 -0.29770796256E-01  0.22588520135E-01  0.37764343806E-01  0.51100000000E-03 0.  1.
         11    1    4    4    0    0 -0.39806405988E-01 -0.59876895250E-01  0.63799702914E-01  0.96127289338E-01  0.51100000000E-03 0. -1.
</event>
<event>
 8    1  0.1079508E+005  0.1043930E+01  0.7957747E-01            NaN
         13   -1    0    0    0    0  0.00000000000E+00  0.00000000000E+00  0.74505805969E-08  0.10566000000E+00  0.10566000000E+00 0.  1.
     999900   -1    0    0    0    0 -0.00000000000E+00 -0.00000000000E+00 -0.74505805969E-08  0.93827000000E+00  0.93827000000E+00 0. -1.
     999902    2    1    2    0    0 -0.23244194501E-01  0.43562911145E-02  0.66405293864E-02  0.10193664807E+01  0.10190704860E+01 0.  0.
     999903    2    3    3    0    0 -0.47591091786E-01 -0.43897031234E-01  0.11272628443E+00  0.13134883337E+00  0.18799985600E-01 0.  0.
         14    1    1    2    0    0  0.23244194501E-01 -0.43562911145E-02 -0.66405293864E-02  0.24563519308E-01  0.00000000000E+00 0. -1.
     999901    1    3    3    0    0  0.24346897285E-01  0.48253322348E-01 -0.10608575504E+00  0.88801764732E+00  0.88000000000E+00 0. -1.
        -11    1    4    4    0    0 -0.18311915648E-01 -0.29318209909E-01  0.62081930057E-01  0.71058502993E-01  0.51100000000E-03 0.  1.
         11    1    4    4    0    0 -0.29279176137E-01 -0.14578821325E-01  0.50644354374E-01  0.60290330381E-01  0.51100000000E-03 0. -1.
</event>
<event>
 8    1  0.1079508E+005  0.1043930E+01  0.7957747E-01            NaN
         13   -1    0    0    0    0  0.00000000000E+00  0.00000000000E+00  0.74505805969E-08  0.10566000000E+00  0.10566000000E+00 0. -1.
     999900   -1    0    0    0    0 -0.00000000000E+00 -0.00000000000E+00 -0.74505805969E-08  0.93827000000E+00  0.93827000000E+00 0. -1.
     999902    2    1    2    0    0 -0.10695578000E-01  0.15774376856E-01 -0.14468528907E-01  0.10200016761E+01  0.10197209690E+01 0.  0.
     999903    2    3    3    0    0 -0.10363676219E+00  0.75749357956E-01  0.24499589596E-01  0.13222153650E+00  0.20093807899E-01 0.  0.
         14    1    1    2    0    0  0.10695578000E-01 -0.15774376856E-01  0.14468528907E-01  0.23928323859E-01  0.00000000000E+00 0. -1.
     999901    1    3    3    0    0  0.92941184193E-01 -0.59974981100E-01 -0.38968118503E-01  0.88778013964E+00  0.88000000000E+00 0.  1.
        -11    1    4    4    0    0 -0.49278120692E-01  0.40382989695E-01  0.21703302387E-01  0.67308346370E-01  0.51100000000E-03 0. -1.
         11    1    4    4    0    0 -0.54358641502E-01  0.35366368262E-01  0.27962872085E-02  0.64913190132E-01  0.51100000000E-03 0.  1.
</event>
<event>
 8    1  0.1079508E+005  0.1043930E+01  0.7957747E-01            NaN
         13   -1    0    0    0    0  0.00000000000E+00  0.00000000000E+00  0.74505805969E-08  0.10566000000E+00  0.10566000000E+00 0. -1.
     999900   -1    0    0    0    0 -0.00000000000E+00 -0.00000000000E+00 -0.74505805969E-08  0.93827000000E+00  0.93827000000E+00 0.  1.
     999902    2    1    2    0    0 -0.50368760801E-02 -0.60012291557E-02  0.23447081919E-01  0.10192085413E+01  0.10189086809E+01 0.  0.
     999903    2    3    3    0    0 -0.33099233660E-01 -0.45099284115E-01 -0.11272339518E+00  0.12743583891E+00  0.20095385569E-01 0.  0.
         14    1    1    2    0    0  0.50368760801E-02  0.60012291557E-02 -0.23447081919E-01  0.24721458746E-01  0.00000000000E+00 0.  1.
     999901    1    3    3    0    0  0.28062357580E-01  0.39098054959E-01  0.13617047710E+00  0.89177270234E+00  0.88000000000E+00 0. -1.
        -11    1    4    4    0    0 -0.31358710242E-01 -0.41497103946E-01 -0.86736426550E-01  0.10113776325E+00  0.51100000000E-03 0. -1.
         11    1    4    4    0    0 -0.17405234184E-02 -0.36021801691E-02 -0.25986968629E-01  0.26298075657E-01  0.51100000000E-03 0.  1.
</event>
<event>
 8    1  0.1079508E+005  0.1043930E+01  0.7957747E-01            NaN
         13   -1    0    0    0    0  0.00000000000E+00  0.00000000000E+00  0.74505805969E-08  0.10566000000E+00  0.10566000000E+00 0. -1.
     999900   -1    0    0    0    0 -0.00000000000E+00 -0.00000000000E+00 -0.74505805969E-08  0.93827000000E+00  0.93827000000E+00 0.  1.
     999902    2    1    2    0    0  0.10219683218E-01 -0.21887988027E-01  0.17379647960E-02  0.10197112786E+01  0.10194236338E+01 0.  0.
     999903    2    3    3    0    0 -0.70504226923E-02 -0.96002895264E-01 -0.88229629468E-01  0.13185687383E+00  0.18316749221E-01 0.  0.
         14    1    1    2    0    0 -0.10219683218E-01  0.21887988027E-01 -0.17379647960E-02  0.24218721407E-01  0.00000000000E+00 0. -1.
     999901    1    3    3    0    0  0.17270105911E-01  0.74114907237E-01  0.89967594264E-01  0.88785440476E+00  0.88000000000E+00 0. -1.
        -11    1    4    4    0    0  0.52209792028E-02 -0.48031825525E-01 -0.47254596605E-01  0.67583821351E-01  0.51100000000E-03 0. -1.
         11    1    4    4    0    0 -0.12271401895E-01 -0.47971069739E-01 -0.40975032863E-01  0.64273052483E-01  0.51100000000E-03 0.  1.
</event>
<event>
 8    1  0.1079508E+005  0.1043930E+01  0.7957747E-01            NaN
         13   -1    0    0    0    0  0.00000000000E+00  0.00000000000E+00  0.74505805969E-08  0.10566000000E+00  0.10566000000E+00 0. -1.
     999900   -1    0    0    0    0 -0.00000000000E+00 -0.00000000000E+00 -0.74505805969E-08  0.93827000000E+00  0.93827000000E+00 0.  1.
     999902    2    1    2    0    0 -0.99474925592E-02  0.20406605868E-01 -0.13956481778E-02  0.10211851104E+01  0.10209317801E+01 0.  0.
     999903    2    3    3    0    0 -0.26557670905E-01 -0.89157132188E-01  0.87522816243E-01  0.12978923643E+00  0.23036892747E-01 0.  0.
         14    1    1    2    0    0  0.99474925592E-02 -0.20406605868E-01  0.13956481778E-02  0.22744889648E-01  0.00000000000E+00 0. -1.
     999901    1    3    3    0    0  0.16610178345E-01  0.10956373806E+00 -0.88918464421E-01  0.89139587392E+00  0.88000000000E+00 0. -1.
        -11    1    4    4    0    0  0.25575698191E-03 -0.24724708984E-01  0.14009153307E-01  0.28423478734E-01  0.51100000000E-03 0.  1.
         11    1    4    4    0    0 -0.26813427886E-01 -0.64432423203E-01  0.73513662936E-01  0.10136575770E+00  0.51100000000E-03 0. -1.
</event>
<event>
 8    1  0.1079508E+005  0.1043930E+01  0.7957747E-01            NaN
         13   -1    0    0    0    0  0.00000000000E+00  0.00000000000E+00  0.74505805969E-08  0.10566000000E+00  0.10566000000E+00 0.  1.
     999900   -1    0    0    0    0 -0.00000000000E+00 -0.00000000000E+00 -0.74505805969E-08  0.93827000000E+00  0.93827000000E+00 0.  1.
     999902    2    1    2    0    0  0.12773598183E-01  0.20221532991E-01 -0.63789018562E-03  0.10200034016E+01  0.10197227354E+01 0.  0.
     999903    2    3    3    0    0 -0.78012253245E-01 -0.68879530615E-01 -0.71893001468E-01  0.12800656235E+00  0.19666594764E-01 0.  0.
         14    1    1    2    0    0 -0.12773598183E-01 -0.20221532991E-01  0.63789018562E-03  0.23926598399E-01  0.00000000000E+00 0.  1.
     999901    1    3    3    0    0  0.90785851429E-01  0.89101063606E-01  0.71255111282E-01  0.89199683925E+00  0.88000000000E+00 0.  1.
        -11    1    4    4    0    0 -0.40047975839E-01 -0.44737843175E-01 -0.32904135031E-01  0.68470856602E-01  0.51100000000E-03 0.  1.
         11    1    4    4    0    0 -0.37964277406E-01 -0.24141687440E-01 -0.38988866437E-01  0.59535705744E-01  0.51100000000E-03 0. -1.
</event>
<event>
 8    1  0.1079508E+005  0.1043930E+01  0.7957747E-01            NaN
         13   -1    0    0    0    0  0.00000000000E+00  0.00000000000E+00  0.74505805969E-08  0.10566000000E+00  0.10566000000E+00 0.  1.
     999900   -1    0    0    0    0 -0.00000000000E+00 -0.00000000000E+00 -0.74505805969E-08  0.93827000000E+00  0.93827000000E+00 0. -1.
     999902    2    1    2    0    0  0.36745658784E-02 -0.20865437841E-01 -0.94104114052E-02  0.10207475762E+01  0.10204842917E+01 0.  0.
     999903    2    3    3    0    0 -0.10086612695E+00 -0.76263495359E-01 -0.34183541035E-01  0.13248443433E+00  0.19837201729E-01 0.  0.
         14    1    1    2    0    0 -0.36745658784E-02  0.20865437841E-01  0.94104114052E-02  0.23182423806E-01  0.00000000000E+00 0.  1.
     999901    1    3    3    0    0  0.10454069283E+00  0.55398057518E-01  0.24773129629E-01  0.88826314186E+00  0.88000000000E+00 0. -1.
        -11    1    4    4    0    0 -0.81261967899E-01 -0.51373856851E-01 -0.22733459684E-01  0.98791962754E-01  0.51100000000E-03 0. -1.
         11    1    4    4    0    0 -0.19604159054E-01 -0.24889638509E-01 -0.11450081350E-01  0.33692471581E-01  0.51100000000E-03 0.  1.
</event>
<event>
 8    1  0.1079508E+005  0.1043930E+01  0.7957747E-01            NaN
         13   -1    0    0    0    0  0.00000000000E+00  0.00000000000E+00  0.74505805969E-08  0.10566000000E+00  0.10566000000E+00 0. -1.
     999900   -1    0    0    0    0 -0.00000000000E+00 -0.00000000000E+00 -0.74505805969E-08  0.93827000000E+00  0.93827000000E+00 0.  1.
     999902    2    1    2    0    0  0.13395121893E-01  0.25197240456E-01 -0.10276788407E-01  0.10135994445E+01  0.10131455430E+01 0.  0.
     999903    2    3    3    0    0 -0.24321566818E-01 -0.11721558819E+00  0.58467650874E-03  0.12128675615E+00  0.19470558348E-01 0.  0.
         14    1    1    2    0    0 -0.13395121893E-01 -0.25197240456E-01  0.10276788407E-01  0.30330555503E-01  0.00000000000E+00 0. -1.
     999901    1    3    3    0    0  0.37716688711E-01  0.14241282865E+00 -0.10861464916E-01  0.89231268835E+00  0.88000000000E+00 0.  1.
        -11    1    4    4    0    0 -0.14548505796E-02 -0.89320262412E-02  0.53247441014E-02  0.10512454696E-01  0.51100000000E-03 0. -1.
         11    1    4    4    0    0 -0.22866716239E-01 -0.10828356195E+00 -0.47400675926E-02  0.11077430145E+00  0.51100000000E-03 0.  1.
</event>
<event>
 8    1  0.1079508E+005  0.1043930E+01  0.7957747E-01            NaN
         13   -1    0    0    0    0  0.00000000000E+00  0.00000000000E+00  0.74505805969E-08  0.10566000000E+00  0.10566000000E+00 0. -1.
     999900   -1    0    0    0    0 -0.00000000000E+00 -0.00000000000E+00 -0.74505805969E-08  0.93827000000E+00  0.93827000000E+00 0. -1.
     999902    2    1    2    0    0 -0.21784617154E-01 -0.41319780249E-03  0.11977676738E-01  0.10190662711E+01  0.10187629066E+01 0.  0.
     999903    2    3    3    0    0  0.35303931359E-01 -0.12179406747E+00 -0.89626967765E-02  0.12865573814E+00  0.19794104687E-01 0.  0.
         14    1    1    2    0    0  0.21784617154E-01  0.41319780249E-03 -0.11977676738E-01  0.24863728944E-01  0.00000000000E+00 0. -1.
     999901    1    3    3    0    0 -0.57088548513E-01  0.12138086967E+00  0.20940373514E-01  0.89041053292E+00  0.88000000000E+00 0.  1.
        -11    1    4    4    0    0  0.15055380676E-01 -0.85096196957E-01 -0.53897627181E-02  0.86587169298E-01  0.51100000000E-03 0.  1.
         11    1    4    4    0    0  0.20248550683E-01 -0.36697870517E-01 -0.35729340584E-02  0.42068568838E-01  0.51100000000E-03 0. -1.
</event>
<event>
 8    1  0.1079508E+005  0.1043930E+01  0.7957747E-01            NaN
         13   -1    0    0    0    0  0.00000000000E+00  0.00000000000E+00  0.74505805969E-08  0.10566000000E+00  0.10566000000E+00 0. -1.
     999900   -1    0    0    0    0 -0.00000000000E+00 -0.00000000000E+00 -0.74505805969E-08  0.93827000000E+00  0.93827000000E+00 0. -1.
     999902    2    1    2    0    0 -0.16544032810E-01 -0.16376047235E-01 -0.54992251135E-02  0.10200109402E+01  0.10197304530E+01 0.  0.
     999903    2    3    3    0    0 -0.10036754655E+00  0.16139135262E-01  0.80637672003E-01  0.13124596363E+00  0.19721884636E-01 0.  0.
         14    1    1    2    0    0  0.16544032810E-01  0.16376047235E-01  0.54992251135E-02  0.23919059795E-01  0.00000000000E+00 0. -1.
     999901    1    3    3    0    0  0.83823513744E-01 -0.32515182497E-01 -0.86136897116E-01  0.88876497658E+00  0.88000000000E+00 0. -1.
        -11    1    4    4    0    0 -0.78798868065E-01  0.47539289181E-02  0.57930318442E-01  0.97918559856E-01  0.51100000000E-03 0.  1.
         11    1    4    4    0    0 -0.21568678489E-01  0.11385206344E-01  0.22707353561E-01  0.33327403769E-01  0.51100000000E-03 0. -1.
</event>
<event>
 8    1  0.1079508E+005  0.1043930E+01  0.7957747E-01            NaN
         13   -1    0    0    0    0  0.00000000000E+00  0.00000000000E+00  0.74505805969E-08  0.10566000000E+00  0.10566000000E+00 0. -1.
     999900   -1    0    0    0    0 -0.00000000000E+00 -0.00000000000E+00 -0.74505805969E-08  0.93827000000E+00  0.93827000000E+00 0. -1.
     999902    2    1    2    0    0 -0.10756098576E-01  0.29739105332E-02  0.21936819089E-01  0.10193177707E+01  0.10190205865E+01 0.  0.
     999903    2    3    3    0    0 -0.26054565194E-01 -0.10544051950E+00  0.71259759599E-01  0.13116210629E+00  0.18138392165E-01 0.  0.
         14    1    1    2    0    0  0.10756098576E-01 -0.29739105332E-02 -0.21936819089E-01  0.24612229322E-01  0.00000000000E+00 0.  1.
     999901    1    3    3    0    0  0.15298466618E-01  0.10841443003E+00 -0.49322940510E-01  0.88815566439E+00  0.88000000000E+00 0. -1.
        -11    1    4    4    0    0 -0.21112981746E-01 -0.53051071892E-01  0.42592594467E-01  0.71235977227E-01  0.51100000000E-03 0.  1.
         11    1    4    4    0    0 -0.49415834487E-02 -0.52389447603E-01  0.28667165132E-01  0.59926129066E-01  0.51100000000E-03 0. -1.
</event>
<event>
 8    1  0.1079508E+005  0.1043930E+01  0.7957747E-01            NaN
         13   -1    0    0    0    0  0.00000000000E+00  0.00000000000E+00  0.74505805969E-08  0.10566000000E+00  0.10566000000E+00 0. -1.
     999900   -1    0    0    0    0 -0.00000000000E+00 -0.00000000000E+00 -0.74505805969E-08  0.93827000000E+00  0.93827000000E+00 0.  1.
     999902    2    1    2    0    0  0.11960673646E-01  0.52451451431E-02  0.19827408792E-01  0.10201877297E+01  0.10199114218E+01 0.  0.
     999903    2    3    3    0    0  0.66605666984E-01 -0.10737634208E+00  0.28410800075E-01  0.13128765131E+00  0.21523942750E-01 0.  0.
         14    1    1    2    0    0 -0.11960673646E-01 -0.52451451431E-02 -0.19827408792E-01  0.23742270343E-01  0.00000000000E+00 0.  1.
     999901    1    3    3    0    0 -0.54644993338E-01  0.11262148723E+00 -0.85833912834E-02  0.88890007835E+00  0.88000000000E+00 0. -1.
        -11    1    4    4    0    0  0.26849896009E-01 -0.52171953172E-01  0.33031668714E-02  0.58770755022E-01  0.51100000000E-03 0. -1.
         11    1    4    4    0    0  0.39755770975E-01 -0.55204388912E-01  0.25107633204E-01  0.72516896287E-01  0.51100000000E-03 0.  1.
</event>
<event>
 8    1  0.1079508E+005  0.1043930E+01  0.7957747E-01            NaN
         13   -1    0    0    0    0  0.00000000000E+00  0.00000000000E+00  0.74505805969E-08  0.10566000000E+00  0.10566000000E+00 0.  1.
     999900   -1    0    0    0    0 -0.00000000000E+00 -0.00000000000E+00 -0.74505805969E-08  0.93827000000E+00  0.93827000000E+00 0.  1.
     999902    2    1    2    0    0  0.10994098300E-01  0.21676808690E-01 -0.86450601107E-02  0.10181328820E+01  0.10178060101E+01 0.  0.
     999903    2    3    3    0    0  0.12438128039E+00  0.22937473819E-01 -0.26112396327E-01  0.13068522148E+00  0.19998481287E-01 0.  0.
         14    1    1    2    0    0 -0.10994098300E-01 -0.21676808690E-01  0.86450601107E-02  0.25797117992E-01  0.00000000000E+00 0.  1.
     999901    1    3    3    0    0 -0.11338718209E+00 -0.12606651291E-02  0.17467336217E-01  0.88744766053E+00  0.88000000000E+00 0. -1.
        -11    1    4    4    0    0  0.79020350670E-01  0.54018004328E-02 -0.12550107105E-01  0.80194523362E-01  0.51100000000E-03 0. -1.
         11    1    4    4    0    0  0.45360929724E-01  0.17535673386E-01 -0.13562289222E-01  0.50490698119E-01  0.51100000000E-03 0.  1.
</event>
<event>
 8    1  0.1079508E+005  0.1043930E+01  0.7957747E-01            NaN
         13   -1    0    0    0    0  0.00000000000E+00  0.00000000000E+00  0.74505805969E-08  0.10566000000E+00  0.10566000000E+00 0. -1.
     999900   -1    0    0    0    0 -0.00000000000E+00 -0.00000000000E+00 -0.74505805969E-08  0.93827000000E+00  0.93827000000E+00 0. -1.
     999902    2    1    2    0    0 -0.16131749430E-01  0.81420717164E-03  0.15433976889E-01  0.10215893663E+01  0.10213450589E+01 0.  0.
     999903    2    3    3    0    0  0.98359667991E-02 -0.10569165235E+00  0.76951606358E-01  0.13265616341E+00  0.20214755775E-01 0.  0.
         14    1    1    2    0    0  0.16131749430E-01 -0.81420717164E-03 -0.15433976889E-01  0.22340633733E-01  0.00000000000E+00 0.  1.
     999901    1    3    3    0    0 -0.25967716229E-01  0.10650585952E+00 -0.61517629469E-01  0.88893320285E+00  0.88000000000E+00 0.  1.
        -11    1    4    4    0    0  0.71655639528E-02 -0.91843045718E-01  0.57398594440E-01  0.10854192793E+00  0.51100000000E-03 0.  1.
         11    1    4    4    0    0  0.26704028463E-02 -0.13848606633E-01  0.19553011917E-01  0.24114235486E-01  0.51100000000E-03 0. -1.
</event>
<event>
 8    1  0.1079508E+005  0.1043930E+01  0.7957747E-01            NaN
         13   -1    0    0    0    0  0.00000000000E+00  0.00000000000E+00  0.74505805969E-08  0.10566000000E+00  0.10566000000E+00 0.  1.
     999900   -1    0    0    0    0 -0.00000000000E+00 -0.00000000000E+00 -0.74505805969E-08  0.93827000000E+00  0.93827000000E+00 0.  1.
     999902    2    1    2    0    0 -0.12290543416E-01  0.86791125691E-02  0.17814393262E-01  0.10206118298E+01  0.10203454171E+01 0.  0.
     999903    2    3    3    0    0  0.77060619542E-01 -0.25465960277E-01 -0.97023805275E-01  0.12801039125E+00  0.19651647799E-01 0.  0.
         14    1    1    2    0    0  0.12290543416E-01 -0.86791125691E-02 -0.17814393262E-01  0.23318170163E-01  0.00000000000E+00 0. -1.
     999901    1    3    3    0    0 -0.89351162959E-01  0.34145072847E-01  0.11483819854E+00  0.89260143859E+00  0.88000000000E+00 0. -1.
        -11    1    4    4    0    0  0.23423150073E-01 -0.14754529476E-01 -0.23151525850E-01  0.36091472256E-01  0.51100000000E-03 0. -1.
         11    1    4    4    0    0  0.53637469469E-01 -0.10711430801E-01 -0.73872279425E-01  0.91918918996E-01  0.51100000000E-03 0.  1.
</event>
<event>
 8    1  0.1079508E+005  0.1043930E+01  0.7957747E-01            NaN
         13   -1    0    0    0    0  0.00000000000E+00  0.00000000000E+00  0.74505805969E-08  0.10566000000E+00  0.10566000000E+00 0. -1.
     999900   -1    0    0    0    0 -0.00000000000E+00 -0.00000000000E+00 -0.74505805969E-08  0.93827000000E+00  0.93827000000E+00 0.  1.
     999902    2    1    2    0    0 -0.17737938731E-01  0.11623620395E-01  0.13373153210E-01  0.10188584175E+01  0.10185498960E+01 0.  0.
     999903    2    3    3    0    0  0.86004685463E-01  0.61849224236E-01  0.71003962092E-01  0.12947298167E+00  0.22350791719E-01 0.  0.
         14    1    1    2    0    0  0.17737938731E-01 -0.11623620395E-01 -0.13373153210E-01  0.25071582485E-01  0.00000000000E+00 0.  1.
     999901    1    3    3    0    0 -0.10374262419E+00 -0.50225603841E-01 -0.57630808882E-01  0.88938543584E+00  0.88000000000E+00 0.  1.
        -11    1    4    4    0    0  0.39949837686E-01  0.17258711363E-01  0.21896896971E-01  0.48719481391E-01  0.51100000000E-03 0.  1.
         11    1    4    4    0    0  0.46054847777E-01  0.44590512874E-01  0.49107065121E-01  0.80753500282E-01  0.51100000000E-03 0. -1.
</event>
<event>
 8    1  0.1079508E+005  0.1043930E+01  0.7957747E-01            NaN
         13   -1    0    0    0    0  0.00000000000E+00  0.00000000000E+00  0.74505805969E-08  0.10566000000E+00  0.10566000000E+00 0. -1.
     999900   -1    0    0    0    0 -0.00000000000E+00 -0.00000000000E+00 -0.74505805969E-08  0.93827000000E+00  0.93827000000E+00 0. -1.
     999902    2    1    2    0    0 -0.65133589018E-02  0.21095847581E-01  0.54644093871E-02  0.10211853655E+01  0.10209320410E+01 0.  0.
     999903    2    3    3    0    0  0.10486047139E+00  0.64849023717E-01  0.41773812675E-01  0.13234519804E+00  0.23855516802E-01 0.  0.
         14    1    1    2    0    0  0.65133589018E-02 -0.21095847581E-01 -0.54644093871E-02  0.22744634516E-01  0.00000000000E+00 0. -1.
     999901    1    3    3    0    0 -0.11137383029E+00 -0.43753176136E-01 -0.36309403288E-01  0.88884016744E+00  0.88000000000E+00 0. -1.
        -11    1    4    4    0    0  0.79890046157E-01  0.56768301914E-01  0.40556212026E-01  0.10606661601E+00  0.51100000000E-03 0.  1.
         11    1    4    4    0    0  0.24970425231E-01  0.80807218028E-02  0.12176006498E-02  0.26278582028E-01  0.51100000000E-03 0. -1.
</event>
<event>
 8    1  0.1079508E+005  0.1043930E+01  0.7957747E-01            NaN
         13   -1    0    0    0    0  0.00000000000E+00  0.00000000000E+00  0.74505805969E-08  0.10566000000E+00  0.10566000000E+00 0. -1.
     999900   -1    0    0    0    0 -0.00000000000E+00 -0.00000000000E+00 -0.74505805969E-08  0.93827000000E+00  0.93827000000E+00 0.  1.
     999902    2    1    2    0    0  0.78994643258E-02 -0.16225253025E-01  0.16529176915E-01  0.10194580965E+01  0.10191643324E+01 0.  0.
     999903    2    3    3    0    0  0.12136818727E+00  0.19840807243E-01  0.40813265810E-01  0.13110814924E+00  0.19993239327E-01 0.  0.
         14    1    1    2    0    0 -0.78994643258E-02  0.16225253025E-01 -0.16529176915E-01  0.24471903519E-01  0.00000000000E+00 0.  1.
     999901    1    3    3    0    0 -0.11346872294E+00 -0.36066060268E-01 -0.24284088895E-01  0.88834994724E+00  0.88000000000E+00 0.  1.
        -11    1    4    4    0    0  0.93880142744E-01  0.12255101018E-01  0.22829701964E-01  0.97391607007E-01  0.51100000000E-03 0. -1.
         11    1    4    4    0    0  0.27488044522E-01  0.75857062245E-02  0.17983563846E-01  0.33716542233E-01  0.51100000000E-03 0.  1.
</event>
<event>
 8    1  0.1079508E+005  0.1043930E+01  0.7957747E-01            NaN
         13   -1    0    0    0    0  0.00000000000E+00  0.00000000000E+00  0.74505805969E-08  0.10566000000E+00  0.10566000000E+00 0. -1.
     999900   -1    0    0    0    0 -0.00000000000E+00 -0.00000000000E+00 -0.74505805969E-08  0.93827000000E+00  0.93827000000E+00 0.  1.
     999902    2    1    2    0    0  0.19805266210E-01 -0.17806110193E-02  0.12335001823E-01  0.10205297561E+01  0.10202614428E+01 0.  0.
     999903    2    3    3    0    0 -0.10173107289E+00 -0.78367223764E-02  0.77748955611E-01  0.12975102736E+00  0.19488550304E-01 0.  0.
         14    1    1    2    0    0 -0.19805266210E-01  0.17806110193E-02 -0.12335001823E-01  0.23400243914E-01  0.00000000000E+00 0.  1.
     999901    1    3    3    0    0  0.12153633910E+00  0.60561113570E-02 -0.65413953788E-01  0.89077872873E+00  0.88000000000E+00 0.  1.
        -11    1    4    4    0    0 -0.78391951465E-02 -0.50078471122E-02  0.11518304462E-01  0.14814316451E-01  0.51100000000E-03 0. -1.
         11    1    4    4    0    0 -0.93891877742E-01 -0.28288752642E-02  0.66230651149E-01  0.11493671091E+00  0.51100000000E-03 0.  1.
</event>
<event>
 8    1  0.1079508E+005  0.1043930E+01  0.7957747E-01            NaN
         13   -1    0    0    0    0  0.00000000000E+00  0.00000000000E+00  0.74505805969E-08  0.10566000000E+00  0.10566000000E+00 0.  1.
     999900   -1    0    0    0    0 -0.00000000000E+00 -0.00000000000E+00 -0.74505805969E-08  0.93827000000E+00  0.93827000000E+00 0. -1.
     999902    2    1    2    0    0 -0.12360557147E-01 -0.17598477769E-01  0.74522984534E-02  0.10211698035E+01  0.10209161283E+01 0.  0.
     999903    2    3    3    0    0 -0.28130262995E-01  0.54358348482E-01 -0.11283378915E+00  0.12993739198E+00  0.20152422054E-01 0.  0.
         14    1    1    2    0    0  0.12360557147E-01  0.17598477769E-01 -0.74522984534E-02  0.22760196507E-01  0.00000000000E+00 0.  1.
     999901    1    3    3    0    0  0.15769705848E-01 -0.71956826251E-01  0.12028608760E+00  0.89123241152E+00  0.88000000000E+00 0.  1.
        -11    1    4    4    0    0 -0.69106569585E-02  0.17639956896E-01 -0.55323223659E-01  0.58479444730E-01  0.51100000000E-03 0.  1.
         11    1    4    4    0    0 -0.21219606036E-01  0.36718391586E-01 -0.57510565488E-01  0.71457947247E-01  0.51100000000E-03 0. -1.
</event>
<event>
 8    1  0.1079508E+005  0.1043930E+01  0.7957747E-01            NaN
         13   -1    0    0    0    0  0.00000000000E+00  0.00000000000E+00  0.74505805969E-08  0.10566000000E+00  0.10566000000E+00 0.  1.
     999900   -1    0    0    0    0 -0.00000000000E+00 -0.00000000000E+00 -0.74505805969E-08  0.93827000000E+00  0.93827000000E+00 0.  1.
     999902    2    1    2    0    0 -0.45355803062E-02 -0.23739718352E-01 -0.43562989042E-02  0.10193714362E+01  0.10190755624E+01 0.  0.
     999903    2    3    3    0    0 -0.95665305296E-01 -0.28524445829E-01  0.81715109190E-01  0.13047559995E+00  0.19519950456E-01 0.  0.
         14    1    1    2    0    0  0.45355803062E-02  0.23739718352E-01  0.43562989042E-02  0.24558563808E-01  0.00000000000E+00 0. -1.
     999901    1    3    3    0    0  0.91129724989E-01  0.47847274772E-02 -0.86071408094E-01  0.88889583624E+00  0.88000000000E+00 0. -1.
        -11    1    4    4    0    0 -0.28459264879E-01 -0.14458182499E-01  0.17228455201E-01  0.36277397760E-01  0.51100000000E-03 0. -1.
         11    1    4    4    0    0 -0.67206040417E-01 -0.14066263330E-01  0.64486653989E-01  0.94198202192E-01  0.51100000000E-03 0.  1.
</event>
<event>
 8    1  0.1079508E+005  0.1043930E+01  0.7957747E-01            NaN
         13   -1    0    0    0    0  0.00000000000E+00  0.00000000000E+00  0.74505805969E-08  0.10566000000E+00  0.10566000000E+00 0.  1.
     999900   -1    0    0    0    0 -0.00000000000E+00 -0.00000000000E+00 -0.74505805969E-08  0.93827000000E+00  0.93827000000E+00 0.  1.
     999902    2    1    2    0    0 -0.22915490224E-01 -0.23382764900E-02 -0.44085760259E-02  0.10204774357E+01  0.10202079073E+01 0.  0.
     999903    2    3    3    0    0 -0.11775518941E+00 -0.53781859297E-01 -0.24233232353E-01  0.13366627895E+00  0.22817790344E-01 0.  0.
         14    1    1    2    0    0  0.22915490224E-01  0.23382764900E-02  0.44085760259E-02  0.23452564289E-01  0.00000000000E+00 0.  1.
     999901    1    3    3    0    0  0.94839699185E-01  0.51443582807E-01  0.19824656327E-01  0.88681115676E+00  0.88000000000E+00 0.  1.
        -11    1    4    4    0    0 -0.45037209132E-01 -0.23966424994E-01 -0.20496541447E-01  0.54982807001E-01  0.51100000000E-03 0.  1.
         11    1    4    4    0    0 -0.72717980278E-01 -0.29815434303E-01 -0.37366909057E-02  0.78683471951E-01  0.51100000000E-03 0. -1.
</event>
<event>
 8    1  0.1079508E+005  0.1043930E+01  0.7957747E-01            NaN
         13   -1    0    0    0    0  0.00000000000E+00  0.00000000000E+00  0.74505805969E-08  0.10566000000E+00  0.10566000000E+00 0.  1.
     999900   -1    0    0    0    0 -0.00000000000E+00 -0.00000000000E+00 -0.74505805969E-08  0.93827000000E+00  0.93827000000E+00 0.  1.
     999902    2    1    2    0    0  0.79157662708E-02 -0.15055676095E-01 -0.17887690368E-01  0.10192459524E+01  0.10189470101E+01 0.  0.
     999903    2    3    3    0    0  0.34879389415E-01 -0.44412602330E-01 -0.11867962722E+00  0.13259614521E+00  0.17545163334E-01 0.  0.
         14    1    1    2    0    0 -0.79157662708E-02  0.15055676095E-01  0.17887690368E-01  0.24684047582E-01  0.00000000000E+00 0.  1.
     999901    1    3    3    0    0 -0.26963623144E-01  0.29356926235E-01  0.10079193685E+00  0.88664980721E+00  0.88000000000E+00 0. -1.
        -11    1    4    4    0    0  0.40822136309E-02  0.94115126728E-03 -0.10528574854E-01  0.11342938037E-01  0.51100000000E-03 0.  1.
         11    1    4    4    0    0  0.30797175784E-01 -0.45353753597E-01 -0.10815105236E+00  0.12125320717E+00  0.51100000000E-03 0. -1.
</event>
<event>
 8    1  0.1079508E+005  0.1043930E+01  0.7957747E-01            NaN
         13   -1    0    0    0    0  0.00000000000E+00  0.00000000000E+00  0.74505805969E-08  0.10566000000E+00  0.10566000000E+00 0.  1.
     999900   -1    0    0    0    0 -0.00000000000E+00 -0.00000000000E+00 -0.74505805969E-08  0.93827000000E+00  0.93827000000E+00 0.  1.
     999902    2    1    2    0    0 -0.13066133125E-01 -0.18048133299E-01  0.85627736344E-02  0.10200599342E+01  0.10197806084E+01 0.  0.
     999903    2    3    3    0    0 -0.50381332353E-01 -0.31910331181E-01  0.11651378771E+00  0.13257021250E+00  0.21044016539E-01 0.  0.
         14    1    1    2    0    0  0.13066133125E-01  0.18048133299E-01 -0.85627736344E-02  0.23870065830E-01  0.00000000000E+00 0.  1.
     999901    1    3    3    0    0  0.37315199228E-01  0.13862197882E-01 -0.10795101407E+00  0.88748972167E+00  0.88000000000E+00 0.  1.
        -11    1    4    4    0    0 -0.25861018453E-01 -0.26421779374E-01  0.56699193138E-01  0.67690193707E-01  0.51100000000E-03 0.  1.
         11    1    4    4    0    0 -0.24520313901E-01 -0.54885518073E-02  0.59814594568E-01  0.64880018797E-01  0.51100000000E-03 0. -1.
</event>
<event>
 8    1  0.1079508E+005  0.1043930E+01  0.7957747E-01            NaN
         13   -1    0    0    0    0  0.00000000000E+00  0.00000000000E+00  0.74505805969E-08  0.10566000000E+00  0.10566000000E+00 0. -1.
     999900   -1    0    0    0    0 -0.00000000000E+00 -0.00000000000E+00 -0.74505805969E-08  0.93827000000E+00  0.93827000000E+00 0. -1.
     999902    2    1    2    0    0  0.18725680021E-01 -0.14416648567E-02  0.13318728941E-01  0.10209057078E+01  0.10206460436E+01 0.  0.
     999903    2    3    3    0    0 -0.16797957380E-01 -0.12721682767E+00 -0.88719316038E-02  0.13097663997E+00  0.24695676395E-01 0.  0.
         14    1    1    2    0    0 -0.18725680021E-01  0.14416648567E-02 -0.13318728941E-01  0.23024292181E-01  0.00000000000E+00 0.  1.
     999901    1    3    3    0    0  0.35523637401E-01  0.12577516281E+00  0.22190660545E-01  0.88992906785E+00  0.88000000000E+00 0. -1.
        -11    1    4    4    0    0  0.18681005544E-02 -0.73254946019E-01 -0.93398528339E-02  0.73873343554E-01  0.51100000000E-03 0. -1.
         11    1    4    4    0    0 -0.18666057935E-01 -0.53961881648E-01  0.46792123013E-03  0.57103296412E-01  0.51100000000E-03 0.  1.
</event>
<event>
 8    1  0.1079508E+005  0.1043930E+01  0.7957747E-01            NaN
         13   -1    0    0    0    0  0.00000000000E+00  0.00000000000E+00  0.74505805969E-08  0.10566000000E+00  0.10566000000E+00 0. -1.
     999900   -1    0    0    0    0 -0.00000000000E+00 -0.00000000000E+00 -0.74505805969E-08  0.93827000000E+00  0.93827000000E+00 0. -1.
     999902    2    1    2    0    0  0.19108069373E-01 -0.68301017999E-02  0.61973974559E-02  0.10227126406E+01  0.10224925275E+01 0.  0.
     999903    2    3    3    0    0  0.21834634050E-01  0.11919440759E+00  0.45732399980E-01  0.13285162471E+00  0.29564230700E-01 0.  0.
         14    1    1    2    0    0 -0.19108069373E-01  0.68301017999E-02 -0.61973974559E-02  0.21217359426E-01  0.00000000000E+00 0.  1.
     999901    1    3    3    0    0 -0.27265646763E-02 -0.12602450939E+00 -0.39535002524E-01  0.88986101586E+00  0.88000000000E+00 0. -1.
        -11    1    4    4    0    0  0.24665646759E-01  0.54362869487E-01  0.18796560558E-01  0.62588237862E-01  0.51100000000E-03 0.  1.
         11    1    4    4    0    0 -0.28310127092E-02  0.64831538102E-01  0.26935839422E-01  0.70263386853E-01  0.51100000000E-03 0. -1.
</event>
<event>
 8    1  0.1079508E+005  0.1043930E+01  0.7957747E-01            NaN
         13   -1    0    0    0    0  0.00000000000E+00  0.00000000000E+00  0.74505805969E-08  0.10566000000E+00  0.10566000000E+00 0. -1.
     999900   -1    0    0    0    0 -0.00000000000E+00 -0.00000000000E+00 -0.74505805969E-08  0.93827000000E+00  0.93827000000E+00 0.  1.
     999902    2    1    2    0    0 -0.15970058104E-01 -0.17472940045E-01 -0.43214502116E-02  0.10198671381E+01  0.10195832277E+01 0.  0.
     999903    2    3    3    0    0  0.12377234961E+00 -0.27249356529E-01  0.70398532724E-02  0.12871473923E+00  0.21349533988E-01 0.  0.
         14    1    1    2    0    0  0.15970058104E-01  0.17472940045E-01  0.43214502116E-02  0.24062861874E-01  0.00000000000E+00 0.  1.
     999901    1    3    3    0    0 -0.13974240772E+00  0.97764164843E-02 -0.11361303484E-01  0.89115239889E+00  0.88000000000E+00 0.  1.
        -11    1    4    4    0    0  0.90344450173E-01 -0.12245105260E-01 -0.10937659980E-02  0.91178504731E-01  0.51100000000E-03 0.  1.
         11    1    4    4    0    0  0.33427899442E-01 -0.15004251269E-01  0.81336192704E-02  0.37536234503E-01  0.51100000000E-03 0. -1.
</event>
<event>
 8    1  0.1079508E+005  0.1043930E+01  0.7957747E-01            NaN
         13   -1    0    0    0    0  0.00000000000E+00  0.00000000000E+00  0.74505805969E-08  0.10566000000E+00  0.10566000000E+00 0.  1.
     999900   -1    0    0    0    0 -0.00000000000E+00 -0.00000000000E+00 -0.74505805969E-08  0.93827000000E+00  0.93827000000E+00 0.  1.
     999902    2    1    2    0    0  0.20186113516E-03 -0.19858554357E-01  0.13145851436E-01  0.10201136959E+01  0.10198356418E+01 0.  0.
     999903    2    3    3    0    0  0.91412479138E-01 -0.22770585607E-01 -0.87190096430E-01  0.12972324271E+00  0.18742088303E-01 0.  0.
         14    1    1    2    0    0 -0.20186113516E-03  0.19858554357E-01 -0.13145851436E-01  0.23816304059E-01  0.00000000000E+00 0.  1.
     999901    1    3    3    0    0 -0.91210618003E-01  0.29120312496E-02  0.10033594787E+00  0.89039045323E+00  0.88000000000E+00 0. -1.
        -11    1    4    4    0    0  0.52245795725E-01 -0.19747655399E-01 -0.42270596635E-01  0.70047537613E-01  0.51100000000E-03 0.  1.
         11    1    4    4    0    0  0.39166683413E-01 -0.30229302074E-02 -0.44919499795E-01  0.59675705102E-01  0.51100000000E-03 0. -1.
</event>
<event>
 8    1  0.1079508E+005  0.1043930E+01  0.7957747E-01            NaN
         13   -1    0    0    0    0  0.00000000000E+00  0.00000000000E+00  0.74505805969E-08  0.10566000000E+00  0.10566000000E+00 0. -1.
     999900   -1    0    0    0    0 -0.00000000000E+00 -0.00000000000E+00 -0.74505805969E-08  0.93827000000E+00  0.93827000000E+00 0.  1.
     999902    2    1    2    0    0  0.18828336273E-02 -0.16223453423E-02  0.24215461026E-01  0.10195873292E+01  0.10192966969E+01 0.  0.
     999903    2    3    3    0    0 -0.11208867612E+00  0.11608727329E-02 -0.59290193503E-01  0.12831271069E+00  0.19585855593E-01 0.  0.
         14    1    1    2    0    0 -0.18828336273E-02  0.16223453423E-02 -0.24215461026E-01  0.24342670757E-01  0.00000000000E+00 0.  1.
     999901    1    3    3    0    0  0.11397150975E+00 -0.27832180752E-02  0.83505654529E-01  0.89127461855E+00  0.88000000000E+00 0. -1.
        -11    1    4    4    0    0 -0.70859966438E-01 -0.86005103070E-02 -0.35566104669E-01  0.79751567655E-01  0.51100000000E-03 0.  1.
         11    1    4    4    0    0 -0.41228709682E-01  0.97613830399E-02 -0.23724088835E-01  0.48561143036E-01  0.51100000000E-03 0. -1.
</event>
<event>
 8    1  0.1079508E+005  0.1043930E+01  0.7957747E-01            NaN
         13   -1    0    0    0    0  0.00000000000E+00  0.00000000000E+00  0.74505805969E-08  0.10566000000E+00  0.10566000000E+00 0.  1.
     999900   -1    0    0    0    0 -0.00000000000E+00 -0.00000000000E+00 -0.74505805969E-08  0.93827000000E+00  0.93827000000E+00 0. -1.
     999902    2    1    2    0    0 -0.29842513875E-03  0.27419669645E-02  0.22760019004E-01  0.10210034672E+01  0.10207460282E+01 0.  0.
     999903    2    3    3    0    0  0.42593734039E-01  0.29964005498E-01 -0.11584808869E+00  0.12870700067E+00  0.20800109691E-01 0.  0.
         14    1    1    2    0    0  0.29842513875E-03 -0.27419669645E-02 -0.22760019004E-01  0.22926532783E-01  0.00000000000E+00 0. -1.
     999901    1    3    3    0    0 -0.42892159177E-01 -0.27222038534E-01  0.13860810769E+00  0.89229646655E+00  0.88000000000E+00 0.  1.
        -11    1    4    4    0    0  0.22586210081E-01  0.12693546654E-01 -0.80493907558E-01  0.84562363303E-01  0.51100000000E-03 0.  1.
         11    1    4    4    0    0  0.20007523957E-01  0.17270458844E-01 -0.35354181130E-01  0.44144637363E-01  0.51100000000E-03 0. -1.
</event>
<event>
 8    1  0.1079508E+005  0.1043930E+01  0.7957747E-01            NaN
         13   -1    0    0    0    0  0.00000000000E+00  0.00000000000E+00  0.74505805969E-08  0.10566000000E+00  0.10566000000E+00 0.  1.
     999900   -1    0    0    0    0 -0.00000000000E+00 -0.00000000000E+00 -0.74505805969E-08  0.93827000000E+00  0.93827000000E+00 0. -1.
     999902    2    1    2    0    0  0.11796090269E-01  0.12960343418E-01 -0.18571145520E-01  0.10183955979E+01  0.10180754334E+01 0.  0.
     999903    2    3    3    0    0  0.36891877114E-01  0.11765635229E+00 -0.41124958551E-01  0.13154739930E+00  0.20234332588E-01 0.  0.
         14    1    1    2    0    0 -0.11796090269E-01 -0.12960343418E-01  0.18571145520E-01  0.25534402149E-01  0.00000000000E+00 0.  1.
     999901    1    3    3    0    0 -0.25095786844E-01 -0.10469600887E+00  0.22553813032E-01  0.88684819855E+00  0.88000000000E+00 0. -1.
        -11    1    4    4    0    0  0.48685142131E-02  0.48305705976E-01 -0.16862300811E-01  0.51397879043E-01  0.51100000000E-03 0. -1.
         11    1    4    4    0    0  0.32023362900E-01  0.69350646315E-01 -0.24262657741E-01  0.80149520257E-01  0.51100000000E-03 0.  1.
</event>
<event>
 8    1  0.1079508E+005  0.1043930E+01  0.7957747E-01            NaN
         13   -1    0    0    0    0  0.00000000000E+00  0.00000000000E+00  0.74505805969E-08  0.10566000000E+00  0.10566000000E+00 0. -1.
     999900   -1    0    0    0    0 -0.00000000000E+00 -0.00000000000E+00 -0.74505805969E-08  0.93827000000E+00  0.93827000000E+00 0. -1.
     999902    2    1    2    0    0  0.16526009971E-01  0.17093826860E-03  0.18975942768E-01  0.10187660450E+01  0.10184552174E+01 0.  0.
     999903    2    3    3    0    0 -0.67178513333E-01 -0.20501317506E-02  0.10919390472E+00  0.13019941218E+00  0.22614650330E-01 0.  0.
         14    1    1    2    0    0 -0.16526009971E-01 -0.17093826860E-03 -0.18975942768E-01  0.25163954963E-01  0.00000000000E+00 0.  1.
     999901    1    3    3    0    0  0.83704523304E-01  0.22210700192E-02 -0.90217961951E-01  0.88856663286E+00  0.88000000000E+00 0. -1.
        -11    1    4    4    0    0 -0.43633289353E-01 -0.45967128936E-02  0.50462619097E-01  0.66871000862E-01  0.51100000000E-03 0.  1.
         11    1    4    4    0    0 -0.23545223980E-01  0.25465811430E-02  0.58731285622E-01  0.63328411314E-01  0.51100000000E-03 0. -1.
</event>
<event>
 8    1  0.1079508E+005  0.1043930E+01  0.7957747E-01            NaN
         13   -1    0    0    0    0  0.00000000000E+00  0.00000000000E+00  0.74505805969E-08  0.10566000000E+00  0.10566000000E+00 0. -1.
     999900   -1    0    0    0    0 -0.00000000000E+00 -0.00000000000E+00 -0.74505805969E-08  0.93827000000E+00  0.93827000000E+00 0. -1.
     999902    2    1    2    0    0  0.17301591972E-01 -0.27439209611E-02 -0.17157636374E-01  0.10194094235E+01  0.10191144754E+01 0.  0.
     999903    2    3    3    0    0 -0.17872336908E-01  0.12219975707E+00 -0.34383376863E-01  0.12972135787E+00  0.19829599802E-01 0.  0.
         14    1    1    2    0    0 -0.17301591972E-01  0.27439209611E-02  0.17157636374E-01  0.24520576521E-01  0.00000000000E+00 0.  1.
     999901    1    3    3    0    0  0.35173928880E-01 -0.12494367803E+00  0.17225740488E-01  0.88968806561E+00  0.88000000000E+00 0.  1.
        -11    1    4    4    0    0 -0.25085713977E-02  0.60375345217E-01 -0.87888622133E-02  0.61065378575E-01  0.51100000000E-03 0. -1.
         11    1    4    4    0    0 -0.15363765510E-01  0.61824411853E-01 -0.25594514649E-01  0.68655979294E-01  0.51100000000E-03 0.  1.
</event>
<event>
 8    1  0.1079508E+005  0.1043930E+01  0.7957747E-01            NaN
         13   -1    0    0    0    0  0.00000000000E+00  0.00000000000E+00  0.74505805969E-08  0.10566000000E+00  0.10566000000E+00 0. -1.
     999900   -1    0    0    0    0 -0.00000000000E+00 -0.00000000000E+00 -0.74505805969E-08  0.93827000000E+00  0.93827000000E+00 0. -1.
     999902    2    1    2    0    0 -0.20131548349E-01  0.11092547331E-01  0.45226312878E-02  0.10205039880E+01  0.10202350766E+01 0.  0.
     999903    2    3    3    0    0  0.10220938846E+00  0.38290964597E-01  0.66240713205E-01  0.12948424614E+00  0.21572687684E-01 0.  0.
         14    1    1    2    0    0  0.20131548349E-01 -0.11092547331E-01 -0.45226312878E-02  0.23426012016E-01  0.00000000000E+00 0. -1.
     999901    1    3    3    0    0 -0.12234093681E+00 -0.27198417266E-01 -0.61718081917E-01  0.89101974184E+00  0.88000000000E+00 0. -1.
        -11    1    4    4    0    0  0.57061480604E-01  0.22043353657E-01  0.24542813407E-01  0.65913070177E-01  0.51100000000E-03 0. -1.
         11    1    4    4    0    0  0.45147907853E-01  0.16247610941E-01  0.41697899798E-01  0.63571175963E-01  0.51100000000E-03 0.  1.
</event>
<event>
 8    1  0.1079508E+005  0.1043930E+01  0.7957747E-01            NaN
         13   -1    0    0    0    0  0.00000000000E+00  0.00000000000E+00  0.74505805969E-08  0.10566000000E+00  0.10566000000E+00 0.  1.
     999900   -1    0    0    0    0 -0.00000000000E+00 -0.00000000000E+00 -0.74505805969E-08  0.93827000000E+00  0.93827000000E+00 0.  1.
     999902    2    1    2    0    0  0.93037794807E-02 -0.12207273606E-01  0.20727025966E-01  0.10181387719E+01  0.10178120511E+01 0.  0.
     999903    2    3    3    0    0  0.10556820150E+00 -0.55967615242E-01 -0.45383859039E-01  0.12934607641E+00  0.19841716044E-01 0.  0.
         14    1    1    2    0    0 -0.93037794807E-02  0.12207273606E-01 -0.20727025966E-01  0.25791228100E-01  0.00000000000E+00 0. -1.
     999901    1    3    3    0    0 -0.96264422023E-01  0.43760341636E-01  0.66110885006E-01  0.88879269549E+00  0.88000000000E+00 0. -1.
        -11    1    4    4    0    0  0.41538005314E-01 -0.12426416370E-01 -0.11753213020E-01  0.44924612926E-01  0.51100000000E-03 0. -1.
         11    1    4    4    0    0  0.64030196190E-01 -0.43541198872E-01 -0.33630646019E-01  0.84421463479E-01  0.51100000000E-03 0.  1.
</event>
<event>
 8    1  0.1079508E+005  0.1043930E+01  0.7957747E-01            NaN
         13   -1    0    0    0    0  0.00000000000E+00  0.00000000000E+00  0.74505805969E-08  0.10566000000E+00  0.10566000000E+00 0.  1.
     999900   -1    0    0    0    0 -0.00000000000E+00 -0.00000000000E+00 -0.74505805969E-08  0.93827000000E+00  0.93827000000E+00 0. -1.
     999902    2    1    2    0    0 -0.78910391896E-02  0.14466894547E-01 -0.18056255080E-01  0.10194843893E+01  0.10191912637E+01 0.  0.
     999903    2    3    3    0    0 -0.14818475690E-01  0.12911273150E+00 -0.20474274838E-03  0.13184125499E+00  0.22189861248E-01 0.  0.
         14    1    1    2    0    0  0.78910391896E-02 -0.14466894547E-01  0.18056255080E-01  0.24445610748E-01  0.00000000000E+00 0.  1.
     999901    1    3    3    0    0  0.69274365005E-02 -0.11464583695E+00 -0.17851512332E-01  0.88764313426E+00  0.88000000000E+00 0. -1.
        -11    1    4    4    0    0 -0.10033758324E-01  0.82772447485E-01  0.10498128290E-01  0.84038242410E-01  0.51100000000E-03 0. -1.
         11    1    4    4    0    0 -0.47847173657E-02  0.46340284011E-01 -0.10702871038E-01  0.47803012583E-01  0.51100000000E-03 0.  1.
</event>
<event>
 8    1  0.1079508E+005  0.1043930E+01  0.7957747E-01            NaN
         13   -1    0    0    0    0  0.00000000000E+00  0.00000000000E+00  0.74505805969E-08  0.10566000000E+00  0.10566000000E+00 0. -1.
     999900   -1    0    0    0    0 -0.00000000000E+00 -0.00000000000E+00 -0.74505805969E-08  0.93827000000E+00  0.93827000000E+00 0. -1.
     999902    2    1    2    0    0  0.15386671754E-01  0.16116711429E-01 -0.83545616482E-02  0.10201330095E+01  0.10198554115E+01 0.  0.
     999903    2    3    3    0    0 -0.25610130214E-02  0.87723064828E-01 -0.96969223802E-01  0.13260715212E+00  0.21902774639E-01 0.  0.
         14    1    1    2    0    0 -0.15386671754E-01 -0.16116711429E-01  0.83545616482E-02  0.23796990467E-01  0.00000000000E+00 0. -1.
     999901    1    3    3    0    0  0.17947684775E-01 -0.71606353399E-01  0.88614662154E-01  0.88752585742E+00  0.88000000000E+00 0.  1.
        -11    1    4    4    0    0  0.22765599063E-02  0.22986627400E-02  0.13890450461E-04  0.32753456831E-02  0.51100000000E-03 0.  1.
         11    1    4    4    0    0 -0.48375729277E-02  0.85424402088E-01 -0.96983114253E-01  0.12933180643E+00  0.51100000000E-03 0. -1.
</event>
<event>
 8    1  0.1079508E+005  0.1043930E+01  0.7957747E-01            NaN
         13   -1    0    0    0    0  0.00000000000E+00  0.00000000000E+00  0.74505805969E-08  0.10566000000E+00  0.10566000000E+00 0.  1.
     999900   -1    0    0    0    0 -0.00000000000E+00 -0.00000000000E+00 -0.74505805969E-08  0.93827000000E+00  0.93827000000E+00 0.  1.
     999902    2    1    2    0    0 -0.85890177073E-03  0.12647034692E-01  0.19821085274E-01  0.10204021310E+01  0.10201308486E+01 0.  0.
     999903    2    3    3    0    0 -0.59955759955E-01 -0.10828031884E+00  0.34579342569E-01  0.13004620798E+00  0.19923972452E-01 0.  0.
         14    1    1    2    0    0  0.85890177073E-03 -0.12647034692E-01 -0.19821085274E-01  0.23527869011E-01  0.00000000000E+00 0. -1.
     999901    1    3    3    0    0  0.59096858185E-01  0.12092735353E+00 -0.14758257294E-01  0.89035592301E+00  0.88000000000E+00 0. -1.
        -11    1    4    4    0    0 -0.45326459290E-01 -0.70579766211E-01  0.31069697224E-01  0.89451542842E-01  0.51100000000E-03 0.  1.
         11    1    4    4    0    0 -0.14629300665E-01 -0.37700552625E-01  0.35096453449E-02  0.40594665138E-01  0.51100000000E-03 0. -1.
</event>
<event>
 8    1  0.1079508E+005  0.1043930E+01  0.7957747E-01            NaN
         13   -1    0    0    0    0  0.00000000000E+00  0.00000000000E+00  0.74505805969E-08  0.10566000000E+00  0.10566000000E+00 0.  1.
     999900   -1    0    0    0    0 -0.00000000000E+00 -0.00000000000E+00 -0.74505805969E-08  0.93827000000E+00  0.93827000000E+00 0. -1.
     999902    2    1    2    0    0 -0.20190346105E-01 -0.84189249386E-02  0.89063439819E-02  0.10203111233E+01  0.10200377135E+01 0.  0.
     999903    2    3    3    0    0 -0.71429916808E-01 -0.74713879837E-01  0.81449886520E-01  0.13335955743E+00  0.21593765043E-01 0.  0.
         14    1    1    2    0    0  0.20190346105E-01  0.84189249386E-02 -0.89063439819E-02  0.23618876690E-01  0.00000000000E+00 0.  1.
     999901    1    3    3    0    0  0.51239570703E-01  0.66294954898E-01 -0.72543542538E-01  0.88695156588E+00  0.88000000000E+00 0. -1.
        -11    1    4    4    0    0 -0.26482585477E-01 -0.19592990276E-01  0.15686518054E-01  0.36490280502E-01  0.51100000000E-03 0.  1.
         11    1    4    4    0    0 -0.44947331332E-01 -0.55120889560E-01  0.65763368466E-01  0.96869276929E-01  0.51100000000E-03 0. -1.
</event>
<event>
 8    1  0.1079508E+005  0.1043930E+01  0.7957747E-01            NaN
         13   -1    0    0    0    0  0.00000000000E+00  0.00000000000E+00  0.74505805969E-08  0.10566000000E+00  0.10566000000E+00 0. -1.
     999900   -1    0    0    0    0 -0.00000000000E+00 -0.00000000000E+00 -0.74505805969E-08  0.93827000000E+00  0.93827000000E+00 0. -1.
     999902    2    1    2    0    0 -0.16630992208E-01  0.12021337897E-01 -0.12607036896E-01  0.10198459836E+01  0.10195615677E+01 0.  0.
     999903    2    3    3    0    0 -0.82515242846E-01  0.11192731361E-01  0.98446589514E-01  0.13042238991E+00  0.19601690389E-01 0.  0.
         14    1    1    2    0    0  0.16630992208E-01 -0.12021337897E-01  0.12607036896E-01  0.24084016400E-01  0.00000000000E+00 0. -1.
     999901    1    3    3    0    0  0.65884250638E-01  0.82860653588E-03 -0.11105362641E+00  0.88942359369E+00  0.88000000000E+00 0. -1.
        -11    1    4    4    0    0 -0.23499984849E-01  0.33975977453E-02  0.42727060267E-01  0.48884105376E-01  0.51100000000E-03 0. -1.
         11    1    4    4    0    0 -0.59015257997E-01  0.77951336159E-02  0.55719529246E-01  0.81538284535E-01  0.51100000000E-03 0.  1.
</event>
<event>
 8    1  0.1079508E+005  0.1043930E+01  0.7957747E-01            NaN
         13   -1    0    0    0    0  0.00000000000E+00  0.00000000000E+00  0.74505805969E-08  0.10566000000E+00  0.10566000000E+00 0.  1.
     999900   -1    0    0    0    0 -0.00000000000E+00 -0.00000000000E+00 -0.74505805969E-08  0.93827000000E+00  0.93827000000E+00 0. -1.
     999902    2    1    2    0    0 -0.16001509595E-01  0.19121117939E-01  0.46613868824E-04  0.10189967364E+01  0.10186916517E+01 0.  0.
     999903    2    3    3    0    0 -0.99967523842E-01 -0.68032528624E-02 -0.81503105196E-01  0.13086796127E+00  0.21068389999E-01 0.  0.
         14    1    1    2    0    0  0.16001509595E-01 -0.19121117939E-01 -0.46613868824E-04  0.24933263594E-01  0.00000000000E+00 0.  1.
     999901    1    3    3    0    0  0.83966014246E-01  0.25924370802E-01  0.81549719065E-01  0.88812877514E+00  0.88000000000E+00 0.  1.
        -11    1    4    4    0    0 -0.53270626712E-01 -0.11763057206E-01 -0.52242236887E-01  0.75535697661E-01  0.51100000000E-03 0.  1.
         11    1    4    4    0    0 -0.46696897129E-01  0.49598043438E-02 -0.29260868309E-01  0.55332263607E-01  0.51100000000E-03 0. -1.
</event>
<event>
 8    1  0.1079508E+005  0.1043930E+01  0.7957747E-01            NaN
         13   -1    0    0    0    0  0.00000000000E+00  0.00000000000E+00  0.74505805969E-08  0.10566000000E+00  0.10566000000E+00 0. -1.
     999900   -1    0    0    0    0 -0.00000000000E+00 -0.00000000000E+00 -0.74505805969E-08  0.93827000000E+00  0.93827000000E+00 0.  1.
     999902    2    1    2    0    0  0.46249874316E-02  0.11034433940E-01  0.21279522974E-01  0.10195175577E+01  0.10192252367E+01 0.  0.
     999903    2    3    3    0    0 -0.23363150252E-01  0.12699768946E+00  0.14542465009E-01  0.13144312364E+00  0.19787914140E-01 0.  0.
         14    1    1    2    0    0 -0.46249874316E-02 -0.11034433940E-01 -0.21279522974E-01  0.24412442302E-01  0.00000000000E+00 0.  1.
     999901    1    3    3    0    0  0.27988137684E-01 -0.11596325552E+00  0.67370579652E-02  0.88807443406E+00  0.88000000000E+00 0.  1.
        -11    1    4    4    0    0 -0.11178123281E-01  0.10114572805E+00  0.14955353025E-01  0.10285588193E+00  0.51100000000E-03 0. -1.
         11    1    4    4    0    0 -0.12185026971E-01  0.25851961412E-01 -0.41288801575E-03  0.28587241711E-01  0.51100000000E-03 0.  1.
</event>
<event>
 8    1  0.1079508E+005  0.1043930E+01  0.7957747E-01            NaN
         13   -1    0    0    0    0  0.00000000000E+00  0.00000000000E+00  0.74505805969E-08  0.10566000000E+00  0.10566000000E+00 0. -1.
     999900   -1    0    0    0    0 -0.00000000000E+00 -0.00000000000E+00 -0.74505805969E-08  0.93827000000E+00  0.93827000000E+00 0. -1.
     999902    2    1    2    0    0  0.59498212680E-02  0.16632452971E-01 -0.19736202476E-01  0.10174430871E+01  0.10170982642E+01 0.  0.
     999903    2    3    3    0    0  0.45966440958E-01  0.56229605082E-01  0.10251491664E+00  0.12721019601E+00  0.19961053413E-01 0.  0.
         14    1    1    2    0    0 -0.59498212680E-02 -0.16632452971E-01  0.19736202476E-01  0.26486912866E-01  0.00000000000E+00 0. -1.
     999901    1    3    3    0    0 -0.40016619690E-01 -0.39597152111E-01 -0.12225111912E+00  0.89023289112E+00  0.88000000000E+00 0. -1.
        -11    1    4    4    0    0  0.18453613122E-01  0.10154601207E-01  0.36373355604E-01  0.42034912654E-01  0.51100000000E-03 0. -1.
         11    1    4    4    0    0  0.27512827835E-01  0.46075003876E-01  0.66141561040E-01  0.85175283360E-01  0.51100000000E-03 0.  1.
</event>
<event>
 8    1  0.1227281E+005  0.1043930E+01  0.7957747E-01            NaN
         13   -1    0    0    0    0  0.00000000000E+00  0.00000000000E+00  0.74505805969E-08  0.10566000000E+00  0.10566000000E+00 0.  1.
     999900   -1    0    0    0    0 -0.00000000000E+00 -0.00000000000E+00 -0.74505805969E-08  0.93827000000E+00  0.93827000000E+00 0. -1.
     999902    2    1    2    0    0 -0.16900371418E-01  0.76946692970E-02 -0.15493174719E-01  0.10197459360E+01  0.10194591237E+01 0.  0.
     999903    2    3    3    0    0  0.92045198598E-01  0.65021154984E-01 -0.61720207155E-01  0.12997495325E+00  0.19596819118E-01 0.  0.
         14    1    1    2    0    0  0.16900371418E-01 -0.76946692970E-02  0.15493174719E-01  0.24184064020E-01  0.00000000000E+00 0.  1.
     999901    1    3    3    0    0 -0.10894557002E+00 -0.57326485687E-01  0.46227032436E-01  0.88977098273E+00  0.88000000000E+00 0. -1.
        -11    1    4    4    0    0  0.63602978205E-01  0.34226915878E-01 -0.35015459692E-01  0.80269322568E-01  0.51100000000E-03 0. -1.
         11    1    4    4    0    0  0.28442220393E-01  0.30794239107E-01 -0.26704747463E-01  0.49705630678E-01  0.51100000000E-03 0.  1.
</event>
<event>
 8    1  0.1684242E+005  0.1043930E+01  0.7957747E-01            NaN
         13   -1    0    0    0    0  0.00000000000E+00  0.00000000000E+00  0.74505805969E-08  0.10566000000E+00  0.10566000000E+00 0. -1.
     999900   -1    0    0    0    0 -0.00000000000E+00 -0.00000000000E+00 -0.74505805969E-08  0.93827000000E+00  0.93827000000E+00 0. -1.
     999902    2    1    2    0    0  0.68919282464E-02 -0.98071549460E-02  0.21018157276E-01  0.10197340934E+01  0.10194469968E+01 0.  0.
     999903    2    3    3    0    0 -0.70752790008E-01  0.10529569460E+00  0.10334251433E-01  0.12878431133E+00  0.19633173378E-01 0.  0.
         14    1    1    2    0    0 -0.68919282464E-02  0.98071549460E-02 -0.21018157276E-01  0.24195906645E-01  0.00000000000E+00 0. -1.
     999901    1    3    3    0    0  0.77644718254E-01 -0.11510284955E+00  0.10683905844E-01  0.89094978202E+00  0.88000000000E+00 0.  1.
        -11    1    4    4    0    0 -0.37524353738E-01  0.44549823728E-01  0.12215658112E-01  0.59516782018E-01  0.51100000000E-03 0.  1.
         11    1    4    4    0    0 -0.33228436270E-01  0.60745870871E-01 -0.18814066794E-02  0.69267529312E-01  0.51100000000E-03 0. -1.
</event>
<event>
 8    1  0.1079508E+005  0.1043930E+01  0.7957747E-01            NaN
         13   -1    0    0    0    0  0.00000000000E+00  0.00000000000E+00  0.74505805969E-08  0.10566000000E+00  0.10566000000E+00 0. -1.
     999900   -1    0    0    0    0 -0.00000000000E+00 -0.00000000000E+00 -0.74505805969E-08  0.93827000000E+00  0.93827000000E+00 0. -1.
     999902    2    1    2    0    0  0.23587098089E-02 -0.22601543229E-01  0.69456209496E-02  0.10201679521E+01  0.10198911783E+01 0.  0.
     999903    2    3    3    0    0 -0.14385358303E-01  0.45563047438E-01 -0.11735565114E+00  0.12866496197E+00  0.22347119696E-01 0.  0.
         14    1    1    2    0    0 -0.23587098089E-02  0.22601543229E-01 -0.69456209496E-02  0.23762047864E-01  0.00000000000E+00 0.  1.
     999901    1    3    3    0    0  0.16744068112E-01 -0.68164590668E-01  0.12430127209E+00  0.89150299017E+00  0.88000000000E+00 0.  1.
        -11    1    4    4    0    0 -0.35846532696E-02  0.90101933278E-02 -0.52879323322E-01  0.53763531123E-01  0.51100000000E-03 0. -1.
         11    1    4    4    0    0 -0.10800705034E-01  0.36552854111E-01 -0.64476327816E-01  0.74901430844E-01  0.51100000000E-03 0.  1.
</event>
<event>
 8    1  0.1079508E+005  0.1043930E+01  0.7957747E-01            NaN
         13   -1    0    0    0    0  0.00000000000E+00  0.00000000000E+00  0.74505805969E-08  0.10566000000E+00  0.10566000000E+00 0.  1.
     999900   -1    0    0    0    0 -0.00000000000E+00 -0.00000000000E+00 -0.74505805969E-08  0.93827000000E+00  0.93827000000E+00 0. -1.
     999902    2    1    2    0    0 -0.67072443616E-02 -0.22153030996E-01 -0.67628843931E-02  0.10198160929E+01  0.10195309622E+01 0.  0.
     999903    2    3    3    0    0  0.99760489481E-01  0.66852622133E-01  0.39110992088E-01  0.12776127556E+00  0.19283295427E-01 0.  0.
         14    1    1    2    0    0  0.67072443616E-02  0.22153030996E-01  0.67628843931E-02  0.24113907078E-01  0.00000000000E+00 0. -1.
     999901    1    3    3    0    0 -0.10646773384E+00 -0.89005653130E-01 -0.45873876481E-01  0.89205481736E+00  0.88000000000E+00 0. -1.
        -11    1    4    4    0    0  0.42129074052E-01  0.33121697069E-01  0.26560513212E-01  0.59813273446E-01  0.51100000000E-03 0. -1.
         11    1    4    4    0    0  0.57631415429E-01  0.33730925064E-01  0.12550478876E-01  0.67948002112E-01  0.51100000000E-03 0.  1.
</event>
<event>
 8    1  0.1079508E+005  0.1043930E+01  0.7957747E-01            NaN
         13   -1    0    0    0    0  0.00000000000E+00  0.00000000000E+00  0.74505805969E-08  0.10566000000E+00  0.10566000000E+00 0.  1.
     999900   -1    0    0    0    0 -0.00000000000E+00 -0.00000000000E+00 -0.74505805969E-08  0.93827000000E+00  0.93827000000E+00 0.  1.
     999902    2    1    2    0    0 -0.56524975866E-02 -0.22984833002E-01  0.23867442229E-02  0.10201403000E+01  0.10198628741E+01 0.  0.
     999903    2    3    3    0    0 -0.42317628476E-01  0.52721868399E-01  0.10894796506E+00  0.12972964743E+00  0.19741966573E-01 0.  0.
         14    1    1    2    0    0  0.56524975866E-02  0.22984833002E-01 -0.23867442229E-02  0.23789699979E-01  0.00000000000E+00 0. -1.
     999901    1    3    3    0    0  0.36665130889E-01 -0.75706701401E-01 -0.10656122084E+00  0.89041065259E+00  0.88000000000E+00 0. -1.
        -11    1    4    4    0    0 -0.71507811551E-02  0.20635317653E-02  0.21228826691E-01  0.22501467467E-01  0.51100000000E-03 0. -1.
         11    1    4    4    0    0 -0.35166847321E-01  0.50658336633E-01  0.87719138370E-01  0.10722817996E+00  0.51100000000E-03 0.  1.
</event>
<event>
 8    1  0.1079508E+005  0.1043930E+01  0.7957747E-01            NaN
         13   -1    0    0    0    0  0.00000000000E+00  0.00000000000E+00  0.74505805969E-08  0.10566000000E+00  0.10566000000E+00 0. -1.
     999900   -1    0    0    0    0 -0.00000000000E+00 -0.00000000000E+00 -0.74505805969E-08  0.93827000000E+00  0.93827000000E+00 0.  1.
     999902    2    1    2    0    0  0.37542074037E-02  0.18835590010E-01 -0.10809610055E-01  0.10218909167E+01  0.10216532310E+01 0.  0.
     999903    2    3    3    0    0  0.20932389675E-01 -0.51781918385E-01  0.11557061100E+00  0.12989658782E+00  0.19925495973E-01 0.  0.
         14    1    1    2    0    0 -0.37542074037E-02 -0.18835590010E-01  0.10809610055E-01  0.22039083325E-01  0.00000000000E+00 0.  1.
     999901    1    3    3    0    0 -0.17178182271E-01  0.70617508395E-01 -0.12638022106E+00  0.89199432886E+00  0.88000000000E+00 0.  1.
        -11    1    4    4    0    0  0.85218994400E-02 -0.24570649161E-01  0.32643337772E-01  0.41739527934E-01  0.51100000000E-03 0.  1.
         11    1    4    4    0    0  0.12410490235E-01 -0.27211269224E-01  0.82927273232E-01  0.88157059884E-01  0.51100000000E-03 0. -1.
</event>
<event>
 8    1  0.1079508E+005  0.1043930E+01  0.7957747E-01            NaN
         13   -1    0    0    0    0  0.00000000000E+00  0.00000000000E+00  0.74505805969E-08  0.10566000000E+00  0.10566000000E+00 0.  1.
     999900   -1    0    0    0    0 -0.00000000000E+00 -0.00000000000E+00 -0.74505805969E-08  0.93827000000E+00  0.93827000000E+00 0.  1.
     999902    2    1    2    0    0 -0.48583874207E-02 -0.14710669278E-01  0.14230607657E-01  0.10228938903E+01  0.10226775605E+01 0.  0.
     999903    2    3    3    0    0 -0.10529523662E+00 -0.75799089105E-01  0.30760826560E-01  0.13492283000E+00  0.20624083964E-01 0.  0.
         14    1    1    2    0    0  0.48583874207E-02  0.14710669278E-01 -0.14230607657E-01  0.21036109745E-01  0.00000000000E+00 0.  1.
     999901    1    3    3    0    0  0.10043684920E+00  0.61088419827E-01 -0.16530218903E-01  0.88797106026E+00  0.88000000000E+00 0.  1.
        -11    1    4    4    0    0 -0.80504011503E-01 -0.50326763250E-01  0.29237031057E-01  0.99341552602E-01  0.51100000000E-03 0. -1.
         11    1    4    4    0    0 -0.24791225121E-01 -0.25472325855E-01  0.15237955027E-02  0.35581277397E-01  0.51100000000E-03 0.  1.
</event>
<event>
 8    1  0.1079508E+005  0.1043930E+01  0.7957747E-01            NaN
         13   -1    0    0    0    0  0.00000000000E+00  0.00000000000E+00  0.74505805969E-08  0.10566000000E+00  0.10566000000E+00 0.  1.
     999900   -1    0    0    0    0 -0.00000000000E+00 -0.00000000000E+00 -0.74505805969E-08  0.93827000000E+00  0.93827000000E+00 0. -1.
     999902    2    1    2    0    0  0.40202754375E-02  0.81411385470E-02 -0.21284641024E-01  0.10207896306E+01  0.10205273114E+01 0.  0.
     999903    2    3    3    0    0  0.10472312169E+00  0.22983228252E-01  0.71060205806E-01  0.13012194759E+00  0.19672503597E-01 0.  0.
         14    1    1    2    0    0 -0.40202754375E-02 -0.81411385470E-02  0.21284641024E-01  0.23140369379E-01  0.00000000000E+00 0.  1.
     999901    1    3    3    0    0 -0.10070284625E+00 -0.14842089705E-01 -0.92344846830E-01  0.89066768304E+00  0.88000000000E+00 0. -1.
        -11    1    4    4    0    0  0.61078613865E-01  0.76068938802E-02  0.31018432607E-01  0.68926527466E-01  0.51100000000E-03 0.  1.
         11    1    4    4    0    0  0.43644507820E-01  0.15376334372E-01  0.40041773199E-01  0.61195420119E-01  0.51100000000E-03 0. -1.
</event>
<event>
 8    1  0.1079508E+005  0.1043930E+01  0.7957747E-01            NaN
         13   -1    0    0    0    0  0.00000000000E+00  0.00000000000E+00  0.74505805969E-08  0.10566000000E+00  0.10566000000E+00 0. -1.
     999900   -1    0    0    0    0 -0.00000000000E+00 -0.00000000000E+00 -0.74505805969E-08  0.93827000000E+00  0.93827000000E+00 0. -1.
     999902    2    1    2    0    0 -0.46880369476E-02  0.17567970773E-01 -0.14986848088E-01  0.10203669590E+01  0.10200948554E+01 0.  0.
     999903    2    3    3    0    0 -0.88764442517E-01  0.79403582406E-01  0.52764526686E-01  0.13161348717E+00  0.18813813367E-01 0.  0.
         14    1    1    2    0    0  0.46880369476E-02 -0.17567970773E-01  0.14986848088E-01  0.23563041041E-01  0.00000000000E+00 0. -1.
     999901    1    3    3    0    0  0.84076405569E-01 -0.61835611633E-01 -0.67751374774E-01  0.88875347179E+00  0.88000000000E+00 0. -1.
        -11    1    4    4    0    0 -0.16487540475E-01  0.12054601199E-01  0.16890626788E-01  0.26508617377E-01  0.51100000000E-03 0.  1.
         11    1    4    4    0    0 -0.72276902042E-01  0.67348981207E-01  0.35873899898E-01  0.10510486979E+00  0.51100000000E-03 0. -1.
</event>
<event>
 8    1  0.1079508E+005  0.1043930E+01  0.7957747E-01            NaN
         13   -1    0    0    0    0  0.00000000000E+00  0.00000000000E+00  0.74505805969E-08  0.10566000000E+00  0.10566000000E+00 0.  1.
     999900   -1    0    0    0    0 -0.00000000000E+00 -0.00000000000E+00 -0.74505805969E-08  0.93827000000E+00  0.93827000000E+00 0.  1.
     999902    2    1    2    0    0  0.15808064621E-02 -0.16041584655E-01  0.19937456949E-01  0.10182914826E+01  0.10179686684E+01 0.  0.
     999903    2    3    3    0    0  0.12611940361E+00  0.11911610139E-01  0.15506306082E-01  0.12907223041E+00  0.19266673582E-01 0.  0.
         14    1    1    2    0    0 -0.15808064621E-02  0.16041584655E-01 -0.19937456949E-01  0.25638517448E-01  0.00000000000E+00 0.  1.
     999901    1    3    3    0    0 -0.12453859715E+00 -0.27953194794E-01  0.44311508674E-02  0.88921925214E+00  0.88000000000E+00 0. -1.
        -11    1    4    4    0    0  0.63897601703E-01 -0.11741967217E-02  0.13207627998E-02  0.63924078224E-01  0.51100000000E-03 0.  1.
         11    1    4    4    0    0  0.62221801911E-01  0.13085806861E-01  0.14185543282E-01  0.65148152188E-01  0.51100000000E-03 0. -1.
</event>
<event>
 8    1  0.1079508E+005  0.1043930E+01  0.7957747E-01            NaN
         13   -1    0    0    0    0  0.00000000000E+00  0.00000000000E+00  0.74505805969E-08  0.10566000000E+00  0.10566000000E+00 0.  1.
     999900   -1    0    0    0    0 -0.00000000000E+00 -0.00000000000E+00 -0.74505805969E-08  0.93827000000E+00  0.93827000000E+00 0. -1.
     999902    2    1    2    0    0  0.15048380012E-01 -0.18194358463E-01 -0.35040799996E-03  0.10203162073E+01  0.10200429166E+01 0.  0.
     999903    2    3    3    0    0 -0.62601858193E-01  0.10782597884E+00  0.17646897652E-01  0.12777232157E+00  0.21654533024E-01 0.  0.
         14    1    1    2    0    0 -0.15048380012E-01  0.18194358463E-01  0.35040799996E-03  0.23613792720E-01  0.00000000000E+00 0.  1.
     999901    1    3    3    0    0  0.77650238206E-01 -0.12602033730E+00 -0.17997305652E-01  0.89254388571E+00  0.88000000000E+00 0.  1.
        -11    1    4    4    0    0 -0.20701343784E-01  0.35192949428E-01 -0.43972618285E-02  0.41069287266E-01  0.51100000000E-03 0.  1.
         11    1    4    4    0    0 -0.41900514409E-01  0.72633029412E-01  0.22044159481E-01  0.86703034304E-01  0.51100000000E-03 0. -1.
</event>
<event>
 8    1  0.1079508E+005  0.1043930E+01  0.7957747E-01            NaN
         13   -1    0    0    0    0  0.00000000000E+00  0.00000000000E+00  0.74505805969E-08  0.10566000000E+00  0.10566000000E+00 0. -1.
     999900   -1    0    0    0    0 -0.00000000000E+00 -0.00000000000E+00 -0.74505805969E-08  0.93827000000E+00  0.93827000000E+00 0.  1.
     999902    2    1    2    0    0  0.91046686213E-02  0.82103424420E-02  0.20222097467E-01  0.10202817878E+01  0.10200076905E+01 0.  0.
     999903    2    3    3    0    0 -0.12098135767E+00 -0.29577564839E-01  0.30698303279E-01  0.12985489521E+00  0.20213528686E-01 0.  0.
         14    1    1    2    0    0 -0.91046686213E-02 -0.82103424420E-02 -0.20222097467E-01  0.23648212188E-01  0.00000000000E+00 0.  1.
     999901    1    3    3    0    0  0.13008602629E+00  0.37787907281E-01 -0.10476205812E-01  0.89042689260E+00  0.88000000000E+00 0. -1.
        -11    1    4    4    0    0 -0.81772453058E-01 -0.26006270383E-01  0.28500704132E-01  0.90419087782E-01  0.51100000000E-03 0. -1.
         11    1    4    4    0    0 -0.39208904610E-01 -0.35712944560E-02  0.21975991470E-02  0.39435807433E-01  0.51100000000E-03 0.  1.
</event>
<event>
 8    1  0.1079508E+005  0.1043930E+01  0.7957747E-01            NaN
         13   -1    0    0    0    0  0.00000000000E+00  0.00000000000E+00  0.74505805969E-08  0.10566000000E+00  0.10566000000E+00 0. -1.
     999900   -1    0    0    0    0 -0.00000000000E+00 -0.00000000000E+00 -0.74505805969E-08  0.93827000000E+00  0.93827000000E+00 0.  1.
     999902    2    1    2    0    0  0.89631366883E-02  0.14787154888E-01 -0.15245327703E-01  0.10208774994E+01  0.10206171912E+01 0.  0.
     999903    2    3    3    0    0  0.46466755283E-01 -0.60553451611E-02 -0.12284217977E+00  0.13328636951E+00  0.21891290866E-01 0.  0.
         14    1    1    2    0    0 -0.89631366883E-02 -0.14787154888E-01  0.15245327703E-01  0.23052500640E-01  0.00000000000E+00 0. -1.
     999901    1    3    3    0    0 -0.37503618594E-01  0.20842500049E-01  0.10759685206E+00  0.88759112985E+00  0.88000000000E+00 0.  1.
        -11    1    4    4    0    0  0.25837105193E-01 -0.13834528789E-01 -0.62263566546E-01  0.68818333543E-01  0.51100000000E-03 0. -1.
         11    1    4    4    0    0  0.20629650089E-01  0.77791836275E-02 -0.60578613220E-01  0.64468035967E-01  0.51100000000E-03 0.  1.
</event>
<event>
 8    1  0.1079508E+005  0.1043930E+01  0.7957747E-01            NaN
         13   -1    0    0    0    0  0.00000000000E+00  0.00000000000E+00  0.74505805969E-08  0.10566000000E+00  0.10566000000E+00 0.  1.
     999900   -1    0    0    0    0 -0.00000000000E+00 -0.00000000000E+00 -0.74505805969E-08  0.93827000000E+00  0.93827000000E+00 0. -1.
     999902    2    1    2    0    0  0.14710562221E-01 -0.19978861501E-01 -0.85919920138E-02  0.10176739936E+01  0.10173352345E+01 0.  0.
     999903    2    3    3    0    0 -0.10575764914E+00 -0.65202602193E-01 -0.24174402267E-01  0.12817942461E+00  0.20236192403E-01 0.  0.
         14    1    1    2    0    0 -0.14710562221E-01  0.19978861501E-01  0.85919920138E-02  0.26256006446E-01  0.00000000000E+00 0.  1.
     999901    1    3    3    0    0  0.12046821137E+00  0.45223740692E-01  0.15582410253E-01  0.88949456894E+00  0.88000000000E+00 0.  1.
        -11    1    4    4    0    0 -0.56081945326E-01 -0.22769036957E-01 -0.12618400281E-01  0.61831212038E-01  0.51100000000E-03 0. -1.
         11    1    4    4    0    0 -0.49675703819E-01 -0.42433565236E-01 -0.11556001986E-01  0.66348212571E-01  0.51100000000E-03 0.  1.
</event>
<event>
 7    1  0.1079508E+005  0.1043930E+01  0.7957747E-01            NaN
         13   -1    0    0    0    0  0.00000000000E+00  0.00000000000E+00  0.74505805969E-08  0.10566000000E+00  0.10566000000E+00 0.  1.
     999900   -1    0    0    0    0 -0.00000000000E+00 -0.00000000000E+00 -0.74505805969E-08  0.93827000000E+00  0.93827000000E+00 0.  1.
     999903    2    1    2    0    0 -0.34894582082E-01  0.17691273168E-01  0.50610662681E-01  0.67376223493E-01  0.21154274040E-01 0.  0.
         14    1    1    2    0    0  0.66679000090E-02 -0.71624053510E-01 -0.61112206994E-01  0.94388387926E-01  0.00000000000E+00 0.  1.
     999901    1    1    2    0    0  0.28226682073E-01  0.53932780342E-01  0.10501544312E-01  0.88216538858E+00  0.88000000000E+00 0.  1.
        -11    1    3    3    0    0 -0.29348882975E-01  0.13452824812E-01  0.25027511831E-01  0.40853064717E-01  0.51100000000E-03 0. -1.
         11    1    3    3    0    0 -0.55456991077E-02  0.42384483553E-02  0.25583150850E-01  0.26523158777E-01  0.51100000000E-03 0.  1.
</event>
<event>
 8    1  0.1079508E+005  0.1043930E+01  0.7957747E-01            NaN
         13   -1    0    0    0    0  0.00000000000E+00  0.00000000000E+00  0.74505805969E-08  0.10566000000E+00  0.10566000000E+00 0. -1.
     999900   -1    0    0    0    0 -0.00000000000E+00 -0.00000000000E+00 -0.74505805969E-08  0.93827000000E+00  0.93827000000E+00 0.  1.
     999902    2    1    2    0    0  0.16658085444E-01 -0.14514046957E-01 -0.89368621721E-02  0.10200968954E+01  0.10198184442E+01 0.  0.
     999903    2    3    3    0    0 -0.57350654160E-01  0.93782375284E-01 -0.64106193323E-01  0.12866598741E+00  0.19002653693E-01 0.  0.
         14    1    1    2    0    0 -0.16658085444E-01  0.14514046957E-01  0.89368621721E-02  0.23833104607E-01  0.00000000000E+00 0. -1.
     999901    1    3    3    0    0  0.74008739604E-01 -0.10829642224E+00  0.55169331151E-01  0.89143090798E+00  0.88000000000E+00 0.  1.
        -11    1    4    4    0    0 -0.27539246341E-01  0.56239180819E-01 -0.44728621774E-01  0.76955612369E-01  0.51100000000E-03 0. -1.
         11    1    4    4    0    0 -0.29811407819E-01  0.37543194465E-01 -0.19377571549E-01  0.51710375041E-01  0.51100000000E-03 0.  1.
</event>
<event>
 8    1  0.1079508E+005  0.1043930E+01  0.7957747E-01            NaN
         13   -1    0    0    0    0  0.00000000000E+00  0.00000000000E+00  0.74505805969E-08  0.10566000000E+00  0.10566000000E+00 0. -1.
     999900   -1    0    0    0    0 -0.00000000000E+00 -0.00000000000E+00 -0.74505805969E-08  0.93827000000E+00  0.93827000000E+00 0.  1.
     999902    2    1    2    0    0  0.63380996899E-02  0.23388409753E-01  0.63923079440E-03  0.10196895826E+01  0.10194014161E+01 0.  0.
     999903    2    3    3    0    0 -0.11196121942E-01 -0.12475015568E+00  0.93174809222E-02  0.12709348387E+00  0.19441802922E-01 0.  0.
         14    1    1    2    0    0 -0.63380996899E-02 -0.23388409753E-01 -0.63923079440E-03  0.24240417374E-01  0.00000000000E+00 0. -1.
     999901    1    3    3    0    0  0.17534221632E-01  0.14813856544E+00 -0.86782501278E-02  0.89259609876E+00  0.88000000000E+00 0.  1.
        -11    1    4    4    0    0 -0.13747229281E-01 -0.52800363972E-01  0.55922270495E-03  0.54565910599E-01  0.51100000000E-03 0.  1.
         11    1    4    4    0    0  0.25511073393E-02 -0.71949791711E-01  0.87582582172E-02  0.72527573266E-01  0.51100000000E-03 0. -1.
</event>
<event>
 8    1  0.1079508E+005  0.1043930E+01  0.7957747E-01            NaN
         13   -1    0    0    0    0  0.00000000000E+00  0.00000000000E+00  0.74505805969E-08  0.10566000000E+00  0.10566000000E+00 0.  1.
     999900   -1    0    0    0    0 -0.00000000000E+00 -0.00000000000E+00 -0.74505805969E-08  0.93827000000E+00  0.93827000000E+00 0.  1.
     999902    2    1    2    0    0 -0.86409496636E-02  0.10320313044E-03  0.22158429894E-01  0.10201461257E+01  0.10198688372E+01 0.  0.
     999903    2    3    3    0    0  0.46988666149E-01 -0.94475072098E-02 -0.11646181563E+00  0.12750877340E+00  0.19948500104E-01 0.  0.
         14    1    1    2    0    0  0.86409496636E-02 -0.10320313044E-03 -0.22158429894E-01  0.23783874313E-01  0.00000000000E+00 0. -1.
     999901    1    3    3    0    0 -0.55629615813E-01  0.95507103402E-02  0.13862024552E+00  0.89263735228E+00  0.88000000000E+00 0. -1.
        -11    1    4    4    0    0  0.25478794300E-02  0.30343235362E-02 -0.22124058721E-01  0.22481857223E-01  0.51100000000E-03 0.  1.
         11    1    4    4    0    0  0.44440786719E-01 -0.12481830746E-01 -0.94337756907E-01  0.10502691618E+00  0.51100000000E-03 0. -1.
</event>
<event>
 8    1  0.1079508E+005  0.1043930E+01  0.7957747E-01            NaN
         13   -1    0    0    0    0  0.00000000000E+00  0.00000000000E+00  0.74505805969E-08  0.10566000000E+00  0.10566000000E+00 0.  1.
     999900   -1    0    0    0    0 -0.00000000000E+00 -0.00000000000E+00 -0.74505805969E-08  0.93827000000E+00  0.93827000000E+00 0.  1.
     999902    2    1    2    0    0 -0.95060930117E-02  0.16505714174E-01 -0.13979803647E-01  0.10203029114E+01  0.10200293093E+01 0.  0.
     999903    2    3    3    0    0 -0.11446347108E+00  0.45986652769E-01  0.41577491748E-01  0.13183693569E+00  0.20871783577E-01 0.  0.
         14    1    1    2    0    0  0.95060930117E-02 -0.16505714174E-01  0.13979803647E-01  0.23627088579E-01  0.00000000000E+00 0.  1.
     999901    1    3    3    0    0  0.10495737806E+00 -0.29480938596E-01 -0.55557295395E-01  0.88846597573E+00  0.88000000000E+00 0.  1.
        -11    1    4    4    0    0 -0.51455905554E-01  0.15585617324E-01  0.27816028076E-01  0.60536057211E-01  0.51100000000E-03 0.  1.
         11    1    4    4    0    0 -0.63007565522E-01  0.30401035445E-01  0.13761463672E-01  0.71300878484E-01  0.51100000000E-03 0. -1.
</event>
<event>
 8    1  0.1079508E+005  0.1043930E+01  0.7957747E-01            NaN
         13   -1    0    0    0    0  0.00000000000E+00  0.00000000000E+00  0.74505805969E-08  0.10566000000E+00  0.10566000000E+00 0.  1.
     999900   -1    0    0    0    0 -0.00000000000E+00 -0.00000000000E+00 -0.74505805969E-08  0.93827000000E+00  0.93827000000E+00 0.  1.
     999902    2    1    2    0    0 -0.24335837007E-01  0.18161972810E-03 -0.17274885634E-03  0.10195928722E+01  0.10193023738E+01 0.  0.
     999903    2    3    3    0    0 -0.63053660513E-01  0.55797603311E-01 -0.99021337474E-01  0.13146942864E+00  0.19744587927E-01 0.  0.
         14    1    1    2    0    0  0.24335837007E-01 -0.18161972810E-03  0.17274885634E-03  0.24337127824E-01  0.00000000000E+00 0.  1.
     999901    1    3    3    0    0  0.38717823507E-01 -0.55615983582E-01  0.98848588618E-01  0.88812344354E+00  0.88000000000E+00 0. -1.
        -11    1    4    4    0    0 -0.12347038678E-01  0.51095598597E-02 -0.79343237305E-02  0.15549005761E-01  0.51100000000E-03 0.  1.
         11    1    4    4    0    0 -0.50706621835E-01  0.50688043451E-01 -0.91087013744E-01  0.11592042288E+00  0.51100000000E-03 0. -1.
</event>
<event>
 8    1  0.1079508E+005  0.1043930E+01  0.7957747E-01            NaN
         13   -1    0    0    0    0  0.00000000000E+00  0.00000000000E+00  0.74505805969E-08  0.10566000000E+00  0.10566000000E+00 0. -1.
     999900   -1    0    0    0    0 -0.00000000000E+00 -0.00000000000E+00 -0.74505805969E-08  0.93827000000E+00  0.93827000000E+00 0. -1.
     999902    2    1    2    0    0 -0.13639430218E-01 -0.13216745713E-01  0.14030672214E-01  0.10203169488E+01  0.10200436755E+01 0.  0.
     999903    2    3    3    0    0  0.89318408891E-01 -0.38071492775E-01  0.85785059360E-01  0.13106627146E+00  0.19800868067E-01 0.  0.
         14    1    1    2    0    0  0.13639430218E-01  0.13216745713E-01 -0.14030672214E-01  0.23613051194E-01  0.00000000000E+00 0.  1.
     999901    1    3    3    0    0 -0.10295783911E+00  0.24854747061E-01 -0.71754387146E-01  0.88925067735E+00  0.88000000000E+00 0. -1.
        -11    1    4    4    0    0  0.68117272264E-01 -0.37052358044E-01  0.71495293309E-01  0.10547358960E+00  0.51100000000E-03 0. -1.
         11    1    4    4    0    0  0.21201136627E-01 -0.10191347308E-02  0.14289766051E-01  0.25592681858E-01  0.51100000000E-03 0.  1.
</event>
<event>
 8    1  0.1079508E+005  0.1043930E+01  0.7957747E-01            NaN
         13   -1    0    0    0    0  0.00000000000E+00  0.00000000000E+00  0.74505805969E-08  0.10566000000E+00  0.10566000000E+00 0.  1.
     999900   -1    0    0    0    0 -0.00000000000E+00 -0.00000000000E+00 -0.74505805969E-08  0.93827000000E+00  0.93827000000E+00 0. -1.
     999902    2    1    2    0    0  0.21257263399E-01  0.11866565143E-01 -0.22400393977E-02  0.10194820064E+01  0.10191888230E+01 0.  0.
     999903    2    3    3    0    0 -0.51417780461E-01 -0.54981079161E-01 -0.10199406742E+00  0.12835848203E+00  0.20159437128E-01 0.  0.
         14    1    1    2    0    0 -0.21257263399E-01 -0.11866565143E-01  0.22400393977E-02  0.24447993619E-01  0.00000000000E+00 0. -1.
     999901    1    3    3    0    0  0.72675043860E-01  0.66847644304E-01  0.99754028026E-01  0.89112352435E+00  0.88000000000E+00 0.  1.
        -11    1    4    4    0    0 -0.48716490634E-01 -0.44129199237E-01 -0.78902330060E-01  0.10269625843E+00  0.51100000000E-03 0. -1.
         11    1    4    4    0    0 -0.27012898275E-02 -0.10851879925E-01 -0.23091737364E-01  0.25662223600E-01  0.51100000000E-03 0.  1.
</event>
<event>
 8    1  0.1079508E+005  0.1043930E+01  0.7957747E-01            NaN
         13   -1    0    0    0    0  0.00000000000E+00  0.00000000000E+00  0.74505805969E-08  0.10566000000E+00  0.10566000000E+00 0. -1.
     999900   -1    0    0    0    0 -0.00000000000E+00 -0.00000000000E+00 -0.74505805969E-08  0.93827000000E+00  0.93827000000E+00 0.  1.
     999902    2    1    2    0    0  0.15290787528E-01 -0.20574673434E-01 -0.36574994346E-02  0.10180359336E+01  0.10177065685E+01 0.  0.
     999903    2    3    3    0    0 -0.51200581859E-01  0.96395202436E-01  0.58841142559E-01  0.12561835520E+00  0.20103643233E-01 0.  0.
         14    1    1    2    0    0 -0.15290787528E-01  0.20574673434E-01  0.36574994346E-02  0.25894066352E-01  0.00000000000E+00 0. -1.
     999901    1    3    3    0    0  0.66491369387E-01 -0.11696987587E+00 -0.62498641993E-01  0.89241757844E+00  0.88000000000E+00 0. -1.
        -11    1    4    4    0    0 -0.35441909679E-01  0.47765263205E-01  0.36825050006E-01  0.69957092276E-01  0.51100000000E-03 0.  1.
         11    1    4    4    0    0 -0.15758672179E-01  0.48629939231E-01  0.22016092553E-01  0.55661262928E-01  0.51100000000E-03 0. -1.
</event>
<event>
 8    1  0.1079508E+005  0.1043930E+01  0.7957747E-01            NaN
         13   -1    0    0    0    0  0.00000000000E+00  0.00000000000E+00  0.74505805969E-08  0.10566000000E+00  0.10566000000E+00 0.  1.
     999900   -1    0    0    0    0 -0.00000000000E+00 -0.00000000000E+00 -0.74505805969E-08  0.93827000000E+00  0.93827000000E+00 0. -1.
     999902    2    1    2    0    0 -0.15507671968E-01  0.58572611698E-02  0.21856470917E-02  0.10272095798E+01  0.10270734873E+01 0.  0.
     999903    2    3    3    0    0 -0.28538044247E-02 -0.14431947783E-01 -0.13402444507E+00  0.13640939931E+00  0.20701377394E-01 0.  0.
         14    1    1    2    0    0  0.15507671968E-01 -0.58572611698E-02 -0.21856470917E-02  0.16720420195E-01  0.00000000000E+00 0.  1.
     999901    1    3    3    0    0 -0.12653867544E-01  0.20289208953E-01  0.13621009217E+00  0.89080018050E+00  0.88000000000E+00 0.  1.
        -11    1    4    4    0    0 -0.11377012848E-01 -0.53661332917E-02 -0.78700320065E-01  0.79700899036E-01  0.51100000000E-03 0.  1.
         11    1    4    4    0    0  0.85232084230E-02 -0.90658144916E-02 -0.55324125008E-01  0.56708500273E-01  0.51100000000E-03 0. -1.
</event>
<event>
 8    1  0.1079508E+005  0.1043930E+01  0.7957747E-01            NaN
         13   -1    0    0    0    0  0.00000000000E+00  0.00000000000E+00  0.74505805969E-08  0.10566000000E+00  0.10566000000E+00 0.  1.
     999900   -1    0    0    0    0 -0.00000000000E+00 -0.00000000000E+00 -0.74505805969E-08  0.93827000000E+00  0.93827000000E+00 0.  1.
     999902    2    1    2    0    0 -0.13114321429E-01  0.10516475212E-01 -0.16089981010E-01  0.10206605100E+01  0.10203952212E+01 0.  0.
     999903    2    3    3    0    0 -0.10553003686E+00 -0.72864985501E-01  0.18712659408E-01  0.13122003628E+00  0.20558198096E-01 0.  0.
         14    1    1    2    0    0  0.13114321429E-01 -0.10516475212E-01  0.16089981010E-01  0.23269490032E-01  0.00000000000E+00 0.  1.
     999901    1    3    3    0    0  0.92415715428E-01  0.83381460713E-01 -0.34802640418E-01  0.88944047368E+00  0.88000000000E+00 0.  1.
        -11    1    4    4    0    0 -0.43115390092E-01 -0.40749542220E-01  0.13421813047E-01  0.60826542236E-01  0.51100000000E-03 0. -1.
         11    1    4    4    0    0 -0.62414646765E-01 -0.32115443281E-01  0.52908463608E-02  0.70393494047E-01  0.51100000000E-03 0.  1.
</event>
<event>
 8    1  0.1079508E+005  0.1043930E+01  0.7957747E-01            NaN
         13   -1    0    0    0    0  0.00000000000E+00  0.00000000000E+00  0.74505805969E-08  0.10566000000E+00  0.10566000000E+00 0. -1.
     999900   -1    0    0    0    0 -0.00000000000E+00 -0.00000000000E+00 -0.74505805969E-08  0.93827000000E+00  0.93827000000E+00 0.  1.
     999902    2    1    2    0    0 -0.13716632815E-01  0.10466857998E-01 -0.17184474076E-01  0.10195782592E+01  0.10192874076E+01 0.  0.
     999903    2    3    3    0    0  0.37457992742E-01  0.53282392945E-02  0.11998836680E+00  0.12746748355E+00  0.20475835553E-01 0.  0.
         14    1    1    2    0    0  0.13716632815E-01 -0.10466857998E-01  0.17184474076E-01  0.24351740829E-01  0.00000000000E+00 0. -1.
     999901    1    3    3    0    0 -0.51174625557E-01  0.51386187039E-02 -0.13717284087E+00  0.89211077562E+00  0.88000000000E+00 0.  1.
        -11    1    4    4    0    0  0.29092050717E-01  0.74842146416E-02  0.62668187627E-01  0.69497652803E-01  0.51100000000E-03 0. -1.
         11    1    4    4    0    0  0.83659420252E-02 -0.21559753471E-02  0.57320179171E-01  0.57969830748E-01  0.51100000000E-03 0.  1.
</event>
<event>
 8    1  0.1079508E+005  0.1043930E+01  0.7957747E-01            NaN
         13   -1    0    0    0    0  0.00000000000E+00  0.00000000000E+00  0.74505805969E-08  0.10566000000E+00  0.10566000000E+00 0. -1.
     999900   -1    0    0    0    0 -0.00000000000E+00 -0.00000000000E+00 -0.74505805969E-08  0.93827000000E+00  0.93827000000E+00 0. -1.
     999902    2    1    2    0    0  0.19748795589E-01  0.83061300676E-03 -0.15765854286E-01  0.10186462699E+01  0.10183324390E+01 0.  0.
     999903    2    3    3    0    0 -0.11069047060E+00 -0.19096891359E-01 -0.57782514020E-01  0.12781693313E+00  0.19526339339E-01 0.  0.
         14    1    1    2    0    0 -0.19748795589E-01 -0.83061300676E-03  0.15765854286E-01  0.25283730076E-01  0.00000000000E+00 0. -1.
     999901    1    3    3    0    0  0.13043926619E+00  0.19927504366E-01  0.42016659734E-01  0.89082933679E+00  0.88000000000E+00 0.  1.
        -11    1    4    4    0    0 -0.80087193985E-01 -0.22556329281E-01 -0.41740482432E-01  0.93087462236E-01  0.51100000000E-03 0. -1.
         11    1    4    4    0    0 -0.30603276613E-01  0.34594379218E-02 -0.16042031588E-01  0.34729470895E-01  0.51100000000E-03 0.  1.
</event>
<event>
 8    1  0.1079508E+005  0.1043930E+01  0.7957747E-01            NaN
         13   -1    0    0    0    0  0.00000000000E+00  0.00000000000E+00  0.74505805969E-08  0.10566000000E+00  0.10566000000E+00 0.  1.
     999900   -1    0    0    0    0 -0.00000000000E+00 -0.00000000000E+00 -0.74505805969E-08  0.93827000000E+00  0.93827000000E+00 0. -1.
     999902    2    1    2    0    0 -0.19926457805E-01 -0.36642820623E-02 -0.12296882099E-01  0.10202297048E+01  0.10199543845E+01 0.  0.
     999903    2    3    3    0    0 -0.10735969870E+00 -0.63892667173E-02  0.73516925066E-01  0.13173884572E+00  0.19582072557E-01 0.  0.
         14    1    1    2    0    0  0.19926457805E-01  0.36642820623E-02  0.12296882099E-01  0.23700295210E-01  0.00000000000E+00 0. -1.
     999901    1    3    3    0    0  0.87433240895E-01  0.27249846549E-02 -0.85813807165E-01  0.88849085907E+00  0.88000000000E+00 0. -1.
        -11    1    4    4    0    0 -0.70470210869E-01  0.24829807412E-02  0.55483294214E-01  0.89726656414E-01  0.51100000000E-03 0. -1.
         11    1    4    4    0    0 -0.36889487831E-01 -0.88722474585E-02  0.18033630852E-01  0.42012189304E-01  0.51100000000E-03 0.  1.
</event>
<event>
 8    1  0.1079508E+005  0.1043930E+01  0.7957747E-01            NaN
         13   -1    0    0    0    0  0.00000000000E+00  0.00000000000E+00  0.74505805969E-08  0.10566000000E+00  0.10566000000E+00 0.  1.
     999900   -1    0    0    0    0 -0.00000000000E+00 -0.00000000000E+00 -0.74505805969E-08  0.93827000000E+00  0.93827000000E+00 0. -1.
     999902    2    1    2    0    0 -0.87708401917E-02 -0.16199513342E-02  0.27217084329E-01  0.10152887438E+01  0.10148846790E+01 0.  0.
     999903    2    3    3    0    0  0.12066955157E+00  0.24707141392E-01 -0.54341678087E-02  0.12483153810E+00  0.19539683030E-01 0.  0.
         14    1    1    2    0    0  0.87708401917E-02  0.16199513342E-02 -0.27217084329E-01  0.28641256246E-01  0.00000000000E+00 0. -1.
     999901    1    3    3    0    0 -0.12944039176E+00 -0.26327092726E-01  0.32651252138E-01  0.89045720565E+00  0.88000000000E+00 0. -1.
        -11    1    4    4    0    0  0.43668213160E-01 -0.51935740286E-03 -0.26194281049E-02  0.43752772453E-01  0.51100000000E-03 0. -1.
         11    1    4    4    0    0  0.77001338411E-01  0.25226498795E-01 -0.28147397038E-02  0.81078765649E-01  0.51100000000E-03 0.  1.
</event>
<event>
 8    1  0.1079508E+005  0.1043930E+01  0.7957747E-01            NaN
         13   -1    0    0    0    0  0.00000000000E+00  0.00000000000E+00  0.74505805969E-08  0.10566000000E+00  0.10566000000E+00 0. -1.
     999900   -1    0    0    0    0 -0.00000000000E+00 -0.00000000000E+00 -0.74505805969E-08  0.93827000000E+00  0.93827000000E+00 0.  1.
     999902    2    1    2    0    0 -0.17600848291E-01 -0.15944309310E-01 -0.88359351981E-02  0.10185906115E+01  0.10182753798E+01 0.  0.
     999903    2    3    3    0    0 -0.17243246225E-01  0.10889051744E+00 -0.61922000362E-01  0.12819632120E+00  0.21106594014E-01 0.  0.
         14    1    1    2    0    0  0.17600848291E-01  0.15944309310E-01  0.88359351981E-02  0.25339388524E-01  0.00000000000E+00 0.  1.
     999901    1    3    3    0    0 -0.35760206606E-03 -0.12483482675E+00  0.53086065164E-01  0.89039429028E+00  0.88000000000E+00 0. -1.
        -11    1    4    4    0    0 -0.21256249347E-01  0.76385173857E-01 -0.47289422562E-01  0.92320493546E-01  0.51100000000E-03 0.  1.
         11    1    4    4    0    0  0.40130031228E-02  0.32505343583E-01 -0.14632577800E-01  0.35875827650E-01  0.51100000000E-03 0. -1.
</event>
<event>
 8    1  0.1079508E+005  0.1043930E+01  0.7957747E-01            NaN
         13   -1    0    0    0    0  0.00000000000E+00  0.00000000000E+00  0.74505805969E-08  0.10566000000E+00  0.10566000000E+00 0. -1.
     999900   -1    0    0    0    0 -0.00000000000E+00 -0.00000000000E+00 -0.74505805969E-08  0.93827000000E+00  0.93827000000E+00 0. -1.
     999902    2    1    2    0    0  0.18809786586E-02  0.15139601873E-01  0.18535624912E-01  0.10199234381E+01  0.10196408703E+01 0.  0.
     999903    2    3    3    0    0 -0.13498268232E-01 -0.69899714960E-01 -0.10334591223E+00  0.12732984871E+00  0.21548535956E-01 0.  0.
         14    1    1    2    0    0 -0.18809786586E-02 -0.15139601873E-01 -0.18535624912E-01  0.24006561946E-01  0.00000000000E+00 0. -1.
     999901    1    3    3    0    0  0.15379246890E-01  0.85039316833E-01  0.12188153714E+00  0.89259358934E+00  0.88000000000E+00 0.  1.
        -11    1    4    4    0    0 -0.11221464869E-01 -0.31139196066E-01 -0.31677980752E-01  0.45818406683E-01  0.51100000000E-03 0.  1.
         11    1    4    4    0    0 -0.22768033623E-02 -0.38760518894E-01 -0.71667931475E-01  0.81511442027E-01  0.51100000000E-03 0. -1.
</event>
<event>
 8    1  0.1079508E+005  0.1043930E+01  0.7957747E-01            NaN
         13   -1    0    0    0    0  0.00000000000E+00  0.00000000000E+00  0.74505805969E-08  0.10566000000E+00  0.10566000000E+00 0. -1.
     999900   -1    0    0    0    0 -0.00000000000E+00 -0.00000000000E+00 -0.74505805969E-08  0.93827000000E+00  0.93827000000E+00 0. -1.
     999902    2    1    2    0    0 -0.15453684812E-01 -0.16044512777E-01  0.11206504919E-01  0.10189935103E+01  0.10186883457E+01 0.  0.
     999903    2    3    3    0    0 -0.32228908640E-02  0.11423644865E+00  0.55384704811E-01  0.12822169074E+00  0.17691331859E-01 0.  0.
         14    1    1    2    0    0  0.15453684812E-01  0.16044512777E-01 -0.11206504919E-01  0.24936489669E-01  0.00000000000E+00 0. -1.
     999901    1    3    3    0    0 -0.12230793948E-01 -0.13028096143E+00 -0.44178199892E-01  0.89077181959E+00  0.88000000000E+00 0. -1.
        -11    1    4    4    0    0 -0.19238021354E-02  0.47983200213E-01  0.33022445269E-01  0.58282343209E-01  0.51100000000E-03 0. -1.
         11    1    4    4    0    0 -0.12990887286E-02  0.66253248439E-01  0.22362259542E-01  0.69939347532E-01  0.51100000000E-03 0.  1.
</event>
<event>
 8    1  0.1079508E+005  0.1043930E+01  0.7957747E-01            NaN
         13   -1    0    0    0    0  0.00000000000E+00  0.00000000000E+00  0.74505805969E-08  0.10566000000E+00  0.10566000000E+00 0.  1.
     999900   -1    0    0    0    0 -0.00000000000E+00 -0.00000000000E+00 -0.74505805969E-08  0.93827000000E+00  0.93827000000E+00 0. -1.
     999902    2    1    2    0    0 -0.12394381549E-01  0.19578829613E-01 -0.11376806724E-02  0.10207298797E+01  0.10204661885E+01 0.  0.
     999903    2    3    3    0    0 -0.62467022293E-01  0.11572596329E+00 -0.16801540162E-01  0.13393965812E+00  0.19050270610E-01 0.  0.
         14    1    1    2    0    0  0.12394381549E-01 -0.19578829613E-01  0.11376806724E-02  0.23200120265E-01  0.00000000000E+00 0. -1.
     999901    1    3    3    0    0  0.50072640744E-01 -0.96147133679E-01  0.15663859489E-01  0.88679022162E+00  0.88000000000E+00 0.  1.
        -11    1    4    4    0    0 -0.93025488200E-02  0.27064479411E-01 -0.10059154947E-01  0.30339267947E-01  0.51100000000E-03 0.  1.
         11    1    4    4    0    0 -0.53164473473E-01  0.88661483881E-01 -0.67423852150E-02  0.10360039017E+00  0.51100000000E-03 0. -1.
</event>
<event>
 8    1  0.1079508E+005  0.1043930E+01  0.7957747E-01            NaN
         13   -1    0    0    0    0  0.00000000000E+00  0.00000000000E+00  0.74505805969E-08  0.10566000000E+00  0.10566000000E+00 0.  1.
     999900   -1    0    0    0    0 -0.00000000000E+00 -0.00000000000E+00 -0.74505805969E-08  0.93827000000E+00  0.93827000000E+00 0. -1.
     999902    2    1    2    0    0 -0.18448609249E-01  0.14786609839E-01  0.40870330918E-02  0.10199362747E+01  0.10196540127E+01 0.  0.
     999903    2    3    3    0    0 -0.12549030578E-01  0.12968613863E+00  0.16936685194E-01  0.13235426706E+00  0.15963332469E-01 0.  0.
         14    1    1    2    0    0  0.18448609249E-01 -0.14786609839E-01 -0.40870330918E-02  0.23993725289E-01  0.00000000000E+00 0.  1.
     999901    1    3    3    0    0 -0.58995786710E-02 -0.11489952879E+00 -0.12849652103E-01  0.88758200765E+00  0.88000000000E+00 0. -1.
        -11    1    4    4    0    0 -0.38713346500E-02  0.70995336401E-01  0.16634030793E-01  0.73022442606E-01  0.51100000000E-03 0.  1.
         11    1    4    4    0    0 -0.86776959279E-02  0.58690802226E-01  0.30265440126E-03  0.59331824456E-01  0.51100000000E-03 0. -1.
</event>
<event>
 8    1  0.1079508E+005  0.1043930E+01  0.7957747E-01            NaN
         13   -1    0    0    0    0  0.00000000000E+00  0.00000000000E+00  0.74505805969E-08  0.10566000000E+00  0.10566000000E+00 0.  1.
     999900   -1    0    0    0    0 -0.00000000000E+00 -0.00000000000E+00 -0.74505805969E-08  0.93827000000E+00  0.93827000000E+00 0. -1.
     999902    2    1    2    0    0  0.18244438787E-01  0.12759351079E-01  0.74137270415E-02  0.10204646226E+01  0.10201947962E+01 0.  0.
     999903    2    3    3    0    0 -0.50742325311E-01  0.92047027553E-01 -0.74862142657E-01  0.13040000250E+00  0.18771824372E-01 0.  0.
         14    1    1    2    0    0 -0.18244438787E-01 -0.12759351079E-01 -0.74137270415E-02  0.23465377373E-01  0.00000000000E+00 0. -1.
     999901    1    3    3    0    0  0.68986764098E-01 -0.79287676473E-01  0.82275869699E-01  0.89006462012E+00  0.88000000000E+00 0.  1.
        -11    1    4    4    0    0 -0.31227618895E-02  0.55947361243E-02  0.15014427165E-03  0.64293373236E-02  0.51100000000E-03 0. -1.
         11    1    4    4    0    0 -0.47619563422E-01  0.86452291429E-01 -0.75012286929E-01  0.12397066518E+00  0.51100000000E-03 0.  1.
</event>
<event>
 8    1  0.1079508E+005  0.1043930E+01  0.7957747E-01            NaN
         13   -1    0    0    0    0  0.00000000000E+00  0.00000000000E+00  0.74505805969E-08  0.10566000000E+00  0.10566000000E+00 0. -1.
     999900   -1    0    0    0    0 -0.00000000000E+00 -0.00000000000E+00 -0.74505805969E-08  0.93827000000E+00  0.93827000000E+00 0. -1.
     999902    2    1    2    0    0 -0.19633508282E-02 -0.21675902761E-01  0.13305136426E-01  0.10184206652E+01  0.10181011370E+01 0.  0.
     999903    2    3    3    0    0 -0.44056942242E-01  0.70354765916E-01  0.96433569625E-01  0.12872866747E+00  0.19514846397E-01 0.  0.
         14    1    1    2    0    0  0.19633508282E-02  0.21675902761E-01 -0.13305136426E-01  0.25509334807E-01  0.00000000000E+00 0.  1.
     999901    1    3    3    0    0  0.42093591414E-01 -0.92030668677E-01 -0.83128433200E-01  0.88969199773E+00  0.88000000000E+00 0.  1.
        -11    1    4    4    0    0 -0.14178688850E-01  0.87464649400E-02  0.21830965168E-01  0.27466125093E-01  0.51100000000E-03 0. -1.
         11    1    4    4    0    0 -0.29878253391E-01  0.61608300976E-01  0.74602604458E-01  0.10126254237E+00  0.51100000000E-03 0.  1.
</event>
<event>
 8    1  0.1079508E+005  0.1043930E+01  0.7957747E-01            NaN
         13   -1    0    0    0    0  0.00000000000E+00  0.00000000000E+00  0.74505805969E-08  0.10566000000E+00  0.10566000000E+00 0.  1.
     999900   -1    0    0    0    0 -0.00000000000E+00 -0.00000000000E+00 -0.74505805969E-08  0.93827000000E+00  0.93827000000E+00 0.  1.
     999902    2    1    2    0    0  0.14838630283E-01  0.13747982365E-01 -0.92480149733E-02  0.10216877486E+01  0.10214456118E+01 0.  0.
     999903    2    3    3    0    0 -0.12170352615E-01  0.40189957116E-01 -0.12487034870E+00  0.13332003909E+00  0.20451863097E-01 0.  0.
         14    1    1    2    0    0 -0.14838630283E-01 -0.13747982365E-01  0.92480149733E-02  0.22242251431E-01  0.00000000000E+00 0.  1.
     999901    1    3    3    0    0  0.27008982898E-01 -0.26441974752E-01  0.11562233372E+00  0.88836770948E+00  0.88000000000E+00 0. -1.
        -11    1    4    4    0    0 -0.53636286120E-03 -0.70808762662E-04 -0.25012232259E-01  0.25023300793E-01  0.51100000000E-03 0.  1.
         11    1    4    4    0    0 -0.11633989754E-01  0.40260765879E-01 -0.99858116437E-01  0.10829673830E+00  0.51100000000E-03 0. -1.
</event>
<event>
 8    1  0.1079508E+005  0.1043930E+01  0.7957747E-01            NaN
         13   -1    0    0    0    0  0.00000000000E+00  0.00000000000E+00  0.74505805969E-08  0.10566000000E+00  0.10566000000E+00 0.  1.
     999900   -1    0    0    0    0 -0.00000000000E+00 -0.00000000000E+00 -0.74505805969E-08  0.93827000000E+00  0.93827000000E+00 0.  1.
     999902    2    1    2    0    0 -0.51013254579E-02  0.67644004821E-02  0.21690485404E-01  0.10206435706E+01  0.10203778910E+01 0.  0.
     999903    2    3    3    0    0 -0.25654676978E-01  0.94143099441E-01 -0.84622205106E-01  0.12971154997E+00  0.11961729617E-01 0.  0.
         14    1    1    2    0    0  0.51013254579E-02 -0.67644004821E-02 -0.21690485404E-01  0.23286429360E-01  0.00000000000E+00 0. -1.
     999901    1    3    3    0    0  0.20553351520E-01 -0.87378698959E-01  0.10631269051E+00  0.89093202067E+00  0.88000000000E+00 0. -1.
        -11    1    4    4    0    0 -0.63680270756E-02  0.30642691458E-01 -0.20423972749E-01  0.37375474478E-01  0.51100000000E-03 0. -1.
         11    1    4    4    0    0 -0.19286649902E-01  0.63500407983E-01 -0.64198232357E-01  0.92336075492E-01  0.51100000000E-03 0.  1.
</event>
<event>
 8    1  0.1079508E+005  0.1043930E+01  0.7957747E-01            NaN
         13   -1    0    0    0    0  0.00000000000E+00  0.00000000000E+00  0.74505805969E-08  0.10566000000E+00  0.10566000000E+00 0.  1.
     999900   -1    0    0    0    0 -0.00000000000E+00 -0.00000000000E+00 -0.74505805969E-08  0.93827000000E+00  0.93827000000E+00 0.  1.
     999902    2    1    2    0    0  0.74424198088E-02  0.13277722171E-01 -0.18441751286E-01  0.10200179589E+01  0.10197376382E+01 0.  0.
     999903    2    3    3    0    0 -0.10725268522E+00 -0.27919556090E-01 -0.65811151867E-01  0.13035732532E+00  0.19475226664E-01 0.  0.
         14    1    1    2    0    0 -0.74424198088E-02 -0.13277722171E-01  0.18441751286E-01  0.23912041091E-01  0.00000000000E+00 0.  1.
     999901    1    3    3    0    0  0.11469510503E+00  0.41197278261E-01  0.47369400581E-01  0.88966063359E+00  0.88000000000E+00 0. -1.
        -11    1    4    4    0    0 -0.10292229791E+00 -0.29337685729E-01 -0.66053371144E-01  0.12576568758E+00  0.51100000000E-03 0.  1.
         11    1    4    4    0    0 -0.43303873106E-02  0.14181296395E-02  0.24221927705E-03  0.45916377375E-02  0.51100000000E-03 0. -1.
</event>
<event>
 8    1  0.1079508E+005  0.1043930E+01  0.7957747E-01            NaN
         13   -1    0    0    0    0  0.00000000000E+00  0.00000000000E+00  0.74505805969E-08  0.10566000000E+00  0.10566000000E+00 0.  1.
     999900   -1    0    0    0    0 -0.00000000000E+00 -0.00000000000E+00 -0.74505805969E-08  0.93827000000E+00  0.93827000000E+00 0. -1.
     999902    2    1    2    0    0  0.18998530280E-01  0.95903261409E-02  0.28361640311E-01  0.10084715574E+01  0.10078479950E+01 0.  0.
     999903    2    3    3    0    0 -0.37245621176E-01 -0.89665845590E-01  0.67878119375E-01  0.12022792851E+00  0.20496720275E-01 0.  0.
         14    1    1    2    0    0 -0.18998530280E-01 -0.95903261409E-02 -0.28361640311E-01  0.35458442569E-01  0.00000000000E+00 0. -1.
     999901    1    3    3    0    0  0.56244151456E-01  0.99256171731E-01 -0.39516479064E-01  0.88824362892E+00  0.88000000000E+00 0. -1.
        -11    1    4    4    0    0 -0.25109153613E-01 -0.45476255175E-01  0.25766108694E-01  0.57988902888E-01  0.51100000000E-03 0. -1.
         11    1    4    4    0    0 -0.12136467563E-01 -0.44189590415E-01  0.42112010681E-01  0.62239025624E-01  0.51100000000E-03 0.  1.
</event>
<event>
 8    1  0.1079508E+005  0.1043930E+01  0.7957747E-01            NaN
         13   -1    0    0    0    0  0.00000000000E+00  0.00000000000E+00  0.74505805969E-08  0.10566000000E+00  0.10566000000E+00 0. -1.
     999900   -1    0    0    0    0 -0.00000000000E+00 -0.00000000000E+00 -0.74505805969E-08  0.93827000000E+00  0.93827000000E+00 0.  1.
     999902    2    1    2    0    0 -0.16710923843E-01 -0.36974440205E-02  0.18007003937E-01  0.10190869273E+01  0.10187840729E+01 0.  0.
     999903    2    3    3    0    0  0.30652451731E-01  0.12318450194E+00  0.65255855405E-02  0.12865212315E+00  0.19869353552E-01 0.  0.
         14    1    1    2    0    0  0.16710923843E-01  0.36974440205E-02 -0.18007003937E-01  0.24843072651E-01  0.00000000000E+00 0.  1.
     999901    1    3    3    0    0 -0.47363375574E-01 -0.12688194596E+00  0.11481418396E-01  0.89043480420E+00  0.88000000000E+00 0. -1.
        -11    1    4    4    0    0  0.90184011980E-02  0.76386187446E-01  0.31741961219E-02  0.76983880356E-01  0.51100000000E-03 0.  1.
         11    1    4    4    0    0  0.21634050533E-01  0.46798314491E-01  0.33513894186E-02  0.51668242797E-01  0.51100000000E-03 0. -1.
</event>
<event>
 8    1  0.1079508E+005  0.1043930E+01  0.7957747E-01            NaN
         13   -1    0    0    0    0  0.00000000000E+00  0.00000000000E+00  0.74505805969E-08  0.10566000000E+00  0.10566000000E+00 0. -1.
     999900   -1    0    0    0    0 -0.00000000000E+00 -0.00000000000E+00 -0.74505805969E-08  0.93827000000E+00  0.93827000000E+00 0.  1.
     999902    2    1    2    0    0 -0.10019726574E-01  0.13813569987E-01  0.17406498608E-01  0.10195538676E+01  0.10192624260E+01 0.  0.
     999903    2    3    3    0    0  0.33957519419E-01  0.12470503380E+00  0.10189632989E-01  0.13147560639E+00  0.21852868769E-01 0.  0.
         14    1    1    2    0    0  0.10019726574E-01 -0.13813569987E-01 -0.17406498608E-01  0.24376132388E-01  0.00000000000E+00 0.  1.
     999901    1    3    3    0    0 -0.43977245993E-01 -0.11089146382E+00  0.72168656188E-02  0.88807826123E+00  0.88000000000E+00 0. -1.
        -11    1    4    4    0    0  0.30266882987E-01  0.70360026515E-01  0.68321660010E-02  0.76899656372E-01  0.51100000000E-03 0. -1.
         11    1    4    4    0    0  0.36906364325E-02  0.54345007288E-01  0.33574669881E-02  0.54575950014E-01  0.51100000000E-03 0.  1.
</event>
<event>
 8    1  0.1079508E+005  0.1043930E+01  0.7957747E-01            NaN
         13   -1    0    0    0    0  0.00000000000E+00  0.00000000000E+00  0.74505805969E-08  0.10566000000E+00  0.10566000000E+00 0.  1.
     999900   -1    0    0    0    0 -0.00000000000E+00 -0.00000000000E+00 -0.74505805969E-08  0.93827000000E+00  0.93827000000E+00 0. -1.
     999902    2    1    2    0    0  0.55585912340E-02  0.92191437075E-02  0.21249182933E-01  0.10201094559E+01  0.10198313016E+01 0.  0.
     999903    2    3    3    0    0  0.15183738762E-01  0.91757969983E-01 -0.88163285037E-01  0.12944880812E+00  0.18279992259E-01 0.  0.
         14    1    1    2    0    0 -0.55585912340E-02 -0.92191437075E-02 -0.21249182933E-01  0.23820544127E-01  0.00000000000E+00 0. -1.
     999901    1    3    3    0    0 -0.96251475279E-02 -0.82538826276E-01  0.10941246797E+00  0.89066064775E+00  0.88000000000E+00 0.  1.
        -11    1    4    4    0    0  0.76551442257E-02  0.79758995920E-01 -0.69908151238E-01  0.10633677348E+00  0.51100000000E-03 0. -1.
         11    1    4    4    0    0  0.75285945362E-02  0.11998974064E-01 -0.18255133800E-01  0.23112034642E-01  0.51100000000E-03 0.  1.
</event>
<event>
 8    1  0.1079508E+005  0.1043930E+01  0.7957747E-01            NaN
         13   -1    0    0    0    0  0.00000000000E+00  0.00000000000E+00  0.74505805969E-08  0.10566000000E+00  0.10566000000E+00 0.  1.
     999900   -1    0    0    0    0 -0.00000000000E+00 -0.00000000000E+00 -0.74505805969E-08  0.93827000000E+00  0.93827000000E+00 0. -1.
     999902    2    1    2    0    0 -0.28407573746E-02  0.11800476685E-01  0.20649601448E-01  0.10199773970E+01  0.10196961131E+01 0.  0.
     999903    2    3    3    0    0  0.10985645032E+00 -0.58088557762E-01 -0.27586885474E-01  0.12873562481E+00  0.19212095805E-01 0.  0.
         14    1    1    2    0    0  0.28407573746E-02 -0.11800476685E-01 -0.20649601448E-01  0.23952603041E-01  0.00000000000E+00 0. -1.
     999901    1    3    3    0    0 -0.11269720769E+00  0.69889034447E-01  0.48236486922E-01  0.89124177215E+00  0.88000000000E+00 0. -1.
        -11    1    4    4    0    0  0.87662643574E-01 -0.49871971928E-01 -0.29228694931E-01  0.10500728732E+00  0.51100000000E-03 0. -1.
         11    1    4    4    0    0  0.22193806743E-01 -0.82165858340E-02  0.16418094573E-02  0.23728337485E-01  0.51100000000E-03 0.  1.
</event>
<event>
 8    1  0.1079508E+005  0.1043930E+01  0.7957747E-01            NaN
         13   -1    0    0    0    0  0.00000000000E+00  0.00000000000E+00  0.74505805969E-08  0.10566000000E+00  0.10566000000E+00 0.  1.
     999900   -1    0    0    0    0 -0.00000000000E+00 -0.00000000000E+00 -0.74505805969E-08  0.93827000000E+00  0.93827000000E+00 0.  1.
     999902    2    1    2    0    0 -0.10598651589E-01  0.92592683571E-02  0.18856639988E-01  0.10204004794E+01  0.10201291585E+01 0.  0.
     999903    2    3    3    0    0  0.11657026308E+00  0.41321282288E-01 -0.35052596988E-01  0.12904975642E+00  0.11361358703E-01 0.  0.
         14    1    1    2    0    0  0.10598651589E-01 -0.92592683571E-02 -0.18856639988E-01  0.23529520557E-01  0.00000000000E+00 0. -1.
     999901    1    3    3    0    0 -0.12716891467E+00 -0.32062013931E-01  0.53909236977E-01  0.89135072302E+00  0.88000000000E+00 0. -1.
        -11    1    4    4    0    0  0.94728005279E-01  0.32907347164E-01 -0.23771831264E-01  0.10306138736E+00  0.51100000000E-03 0. -1.
         11    1    4    4    0    0  0.21842257805E-01  0.84139351242E-02 -0.11280765724E-01  0.25988369064E-01  0.51100000000E-03 0.  1.
</event>
<event>
 8    1  0.1079508E+005  0.1043930E+01  0.7957747E-01            NaN
         13   -1    0    0    0    0  0.00000000000E+00  0.00000000000E+00  0.74505805969E-08  0.10566000000E+00  0.10566000000E+00 0.  1.
     999900   -1    0    0    0    0 -0.00000000000E+00 -0.00000000000E+00 -0.74505805969E-08  0.93827000000E+00  0.93827000000E+00 0. -1.
     999902    2    1    2    0    0 -0.64707142652E-02 -0.21767632392E-01 -0.97618287741E-02  0.10192117221E+01  0.10189119398E+01 0.  0.
     999903    2    3    3    0    0 -0.69669396554E-01  0.10213133811E+00  0.24396516660E-01  0.12763344682E+00  0.20260100707E-01 0.  0.
         14    1    1    2    0    0  0.64707142652E-02  0.21767632392E-01  0.97618287741E-02  0.24718277935E-01  0.00000000000E+00 0.  1.
     999901    1    3    3    0    0  0.63198682289E-01 -0.12389897050E+00 -0.34158345434E-01  0.89157827525E+00  0.88000000000E+00 0. -1.
        -11    1    4    4    0    0 -0.19605925431E-01  0.16646301567E-01  0.52093625716E-03  0.25729830226E-01  0.51100000000E-03 0.  1.
         11    1    4    4    0    0 -0.50063471124E-01  0.85485036541E-01  0.23875580403E-01  0.10190361659E+00  0.51100000000E-03 0. -1.
</event>
<event>
 8    1  0.1079508E+005  0.1043930E+01  0.7957747E-01            NaN
         13   -1    0    0    0    0  0.00000000000E+00  0.00000000000E+00  0.74505805969E-08  0.10566000000E+00  0.10566000000E+00 0. -1.
     999900   -1    0    0    0    0 -0.00000000000E+00 -0.00000000000E+00 -0.74505805969E-08  0.93827000000E+00  0.93827000000E+00 0.  1.
     999902    2    1    2    0    0  0.88991859584E-02 -0.10801407770E-01  0.19436850040E-01  0.10199788610E+01  0.10196976119E+01 0.  0.
     999903    2    3    3    0    0  0.11636239786E+00 -0.42379187463E-01 -0.38193402223E-01  0.13100937666E+00  0.19196813116E-01 0.  0.
         14    1    1    2    0    0 -0.88991859584E-02  0.10801407770E-01 -0.19436850040E-01  0.23951139013E-01  0.00000000000E+00 0.  1.
     999901    1    3    3    0    0 -0.10746321190E+00  0.31577779693E-01  0.57630252263E-01  0.88896948432E+00  0.88000000000E+00 0.  1.
        -11    1    4    4    0    0  0.10259672119E+00 -0.30252223016E-01 -0.32444011729E-01  0.11177727503E+00  0.51100000000E-03 0. -1.
         11    1    4    4    0    0  0.13765676675E-01 -0.12126964447E-01 -0.57493904946E-02  0.19232101629E-01  0.51100000000E-03 0.  1.
</event>
<event>
 8    1  0.1079508E+005  0.1043930E+01  0.7957747E-01            NaN
         13   -1    0    0    0    0  0.00000000000E+00  0.00000000000E+00  0.74505805969E-08  0.10566000000E+00  0.10566000000E+00 0. -1.
     999900   -1    0    0    0    0 -0.00000000000E+00 -0.00000000000E+00 -0.74505805969E-08  0.93827000000E+00  0.93827000000E+00 0. -1.
     999902    2    1    2    0    0  0.64853028041E-02  0.12072437582E-01  0.19828616871E-01  0.10198265366E+01  0.10195416557E+01 0.  0.
     999903    2    3    3    0    0 -0.25965056462E-01 -0.85627439547E-01 -0.88022384429E-01  0.12728514803E+00  0.21150087160E-01 0.  0.
         14    1    1    2    0    0 -0.64853028041E-02 -0.12072437582E-01 -0.19828616871E-01  0.24103463416E-01  0.00000000000E+00 0.  1.
     999901    1    3    3    0    0  0.32450359266E-01  0.97699877129E-01  0.10785100130E+00  0.89254138856E+00  0.88000000000E+00 0.  1.
        -11    1    4    4    0    0 -0.12211224692E-01 -0.62878099476E-01 -0.51954465941E-01  0.82476039275E-01  0.51100000000E-03 0.  1.
         11    1    4    4    0    0 -0.13753831769E-01 -0.22749340071E-01 -0.36067918489E-01  0.44809108752E-01  0.51100000000E-03 0. -1.
</event>
<event>
 8    1  0.1079508E+005  0.1043930E+01  0.7957747E-01            NaN
         13   -1    0    0    0    0  0.00000000000E+00  0.00000000000E+00  0.74505805969E-08  0.10566000000E+00  0.10566000000E+00 0. -1.
     999900   -1    0    0    0    0 -0.00000000000E+00 -0.00000000000E+00 -0.74505805969E-08  0.93827000000E+00  0.93827000000E+00 0. -1.
     999902    2    1    2    0    0  0.33438800179E-02 -0.21643333737E-01  0.90509847210E-02  0.10202332544E+01  0.10199580176E+01 0.  0.
     999903    2    3    3    0    0 -0.88148138888E-01  0.84372549662E-01  0.36017489614E-01  0.12875282865E+00  0.19779024303E-01 0.  0.
         14    1    1    2    0    0 -0.33438800179E-02  0.21643333737E-01 -0.90509847210E-02  0.23696745626E-01  0.00000000000E+00 0. -1.
     999901    1    3    3    0    0  0.91492018905E-01 -0.10601588340E+00 -0.26966504893E-01  0.89148042572E+00  0.88000000000E+00 0. -1.
        -11    1    4    4    0    0 -0.35916463450E-01  0.29136116901E-01  0.45486033841E-02  0.46474257052E-01  0.51100000000E-03 0.  1.
         11    1    4    4    0    0 -0.52231675438E-01  0.55236432761E-01  0.31468886230E-01  0.82278571601E-01  0.51100000000E-03 0. -1.
</event>
<event>
 8    1  0.1079508E+005  0.1043930E+01  0.7957747E-01            NaN
         13   -1    0    0    0    0  0.00000000000E+00  0.00000000000E+00  0.74505805969E-08  0.10566000000E+00  0.10566000000E+00 0. -1.
     999900   -1    0    0    0    0 -0.00000000000E+00 -0.00000000000E+00 -0.74505805969E-08  0.93827000000E+00  0.93827000000E+00 0. -1.
     999902    2    1    2    0    0  0.65029498439E-02  0.17117742939E-01 -0.13157157102E-01  0.10213819122E+01  0.10211329954E+01 0.  0.
     999903    2    3    3    0    0  0.94509857607E-01  0.73347326070E-01 -0.54533536815E-01  0.13424100647E+00  0.27107153203E-01 0.  0.
         14    1    1    2    0    0 -0.65029498439E-02 -0.17117742939E-01  0.13157157102E-01  0.22548087790E-01  0.00000000000E+00 0. -1.
     999901    1    3    3    0    0 -0.88006907763E-01 -0.56229583132E-01  0.41376379713E-01  0.88714090574E+00  0.88000000000E+00 0. -1.
        -11    1    4    4    0    0  0.19798498282E-01  0.19953147861E-01 -0.14053106589E-02  0.28148617423E-01  0.51100000000E-03 0. -1.
         11    1    4    4    0    0  0.74711359325E-01  0.53394178209E-01 -0.53128226156E-01  0.10609238905E+00  0.51100000000E-03 0.  1.
</event>
<event>
 8    1  0.1079508E+005  0.1043930E+01  0.7957747E-01            NaN
         13   -1    0    0    0    0  0.00000000000E+00  0.00000000000E+00  0.74505805969E-08  0.10566000000E+00  0.10566000000E+00 0. -1.
     999900   -1    0    0    0    0 -0.00000000000E+00 -0.00000000000E+00 -0.74505805969E-08  0.93827000000E+00  0.93827000000E+00 0.  1.
     999902    2    1    2    0    0 -0.25671643215E-02 -0.20434172195E-01  0.12443013205E-01  0.10198681151E+01  0.10195842280E+01 0.  0.
     999903    2    3    3    0    0  0.12670254691E-02 -0.11680700115E+00 -0.57848270722E-01  0.13181221161E+00  0.19559034565E-01 0.  0.
         14    1    1    2    0    0  0.25671643215E-02  0.20434172195E-01 -0.12443013205E-01  0.24061884872E-01  0.00000000000E+00 0.  1.
     999901    1    3    3    0    0 -0.38341897907E-02  0.96372828957E-01  0.70291283927E-01  0.88805590352E+00  0.88000000000E+00 0. -1.
        -11    1    4    4    0    0  0.26063693372E-02 -0.56249659334E-02  0.50161040122E-03  0.62406840064E-02  0.51100000000E-03 0. -1.
         11    1    4    4    0    0 -0.13393438681E-02 -0.11118203522E+00 -0.58349881123E-01  0.12557152761E+00  0.51100000000E-03 0.  1.
</event>
<event>
 8    1  0.1079508E+005  0.1043930E+01  0.7957747E-01            NaN
         13   -1    0    0    0    0  0.00000000000E+00  0.00000000000E+00  0.74505805969E-08  0.10566000000E+00  0.10566000000E+00 0. -1.
     999900   -1    0    0    0    0 -0.00000000000E+00 -0.00000000000E+00 -0.74505805969E-08  0.93827000000E+00  0.93827000000E+00 0.  1.
     999902    2    1    2    0    0  0.10775297726E-01 -0.17183332632E-01 -0.13341076970E-01  0.10196532973E+01  0.10193642569E+01 0.  0.
     999903    2    3    3    0    0 -0.12345805387E-01 -0.11867755929E+00 -0.51588325799E-01  0.13269303011E+00  0.26632740962E-01 0.  0.
         14    1    1    2    0    0 -0.10775297726E-01  0.17183332632E-01  0.13341076970E-01  0.24276702744E-01  0.00000000000E+00 0. -1.
     999901    1    3    3    0    0  0.23121103113E-01  0.10149422666E+00  0.38247248829E-01  0.88696026715E+00  0.88000000000E+00 0.  1.
        -11    1    4    4    0    0 -0.95628287512E-02 -0.26012877097E-01 -0.26092206920E-02  0.27842173446E-01  0.51100000000E-03 0.  1.
         11    1    4    4    0    0 -0.27829766355E-02 -0.92664682193E-01 -0.48979105107E-01  0.10485085666E+00  0.51100000000E-03 0. -1.
</event>
<event>
 8    1  0.1079508E+005  0.1043930E+01  0.7957747E-01            NaN
         13   -1    0    0    0    0  0.00000000000E+00  0.00000000000E+00  0.74505805969E-08  0.10566000000E+00  0.10566000000E+00 0. -1.
     999900   -1    0    0    0    0 -0.00000000000E+00 -0.00000000000E+00 -0.74505805969E-08  0.93827000000E+00  0.93827000000E+00 0. -1.
     999902    2    1    2    0    0  0.22272162048E-02 -0.23476331357E-01 -0.22770643440E-02  0.10202385744E+01  0.10199634626E+01 0.  0.
     999903    2    3    3    0    0  0.32786014545E-01  0.96537472654E-01 -0.75680644929E-01  0.12854062162E+00  0.20018117123E-01 0.  0.
         14    1    1    2    0    0 -0.22272162048E-02  0.23476331357E-01  0.22770643440E-02  0.23691425623E-01  0.00000000000E+00 0. -1.
     999901    1    3    3    0    0 -0.30558798340E-01 -0.12001380401E+00  0.73403580585E-01  0.89169795276E+00  0.88000000000E+00 0.  1.
        -11    1    4    4    0    0  0.55270266928E-02  0.25712549426E-01 -0.98915964388E-02  0.28103167494E-01  0.51100000000E-03 0. -1.
         11    1    4    4    0    0  0.27258987852E-01  0.70824923228E-01 -0.65789048490E-01  0.10043745413E+00  0.51100000000E-03 0.  1.
</event>
<event>
 8    1  0.1079508E+005  0.1043930E+01  0.7957747E-01            NaN
         13   -1    0    0    0    0  0.00000000000E+00  0.00000000000E+00  0.74505805969E-08  0.10566000000E+00  0.10566000000E+00 0. -1.
     999900   -1    0    0    0    0 -0.00000000000E+00 -0.00000000000E+00 -0.74505805969E-08  0.93827000000E+00  0.93827000000E+00 0. -1.
     999902    2    1    2    0    0  0.16643424759E-01 -0.13615879164E-02  0.20641299284E-01  0.10173796564E+01  0.10170331580E+01 0.  0.
     999903    2    3    3    0    0 -0.61274465550E-01  0.45118168712E-01  0.10222064299E+00  0.12896153708E+00  0.19794163692E-01 0.  0.
         14    1    1    2    0    0 -0.16643424759E-01  0.13615879164E-02 -0.20641299284E-01  0.26550343604E-01  0.00000000000E+00 0. -1.
     999901    1    3    3    0    0  0.77917890309E-01 -0.46479756629E-01 -0.81579343708E-01  0.88841811931E+00  0.88000000000E+00 0.  1.
        -11    1    4    4    0    0 -0.20644713700E-01  0.11176205860E-01  0.46537675700E-01  0.52126079478E-01  0.51100000000E-03 0. -1.
         11    1    4    4    0    0 -0.40629751850E-01  0.33941962852E-01  0.55682967292E-01  0.76835457603E-01  0.51100000000E-03 0.  1.
</event>
<event>
 8    1  0.1079508E+005  0.1043930E+01  0.7957747E-01            NaN
         13   -1    0    0    0    0  0.00000000000E+00  0.00000000000E+00  0.74505805969E-08  0.10566000000E+00  0.10566000000E+00 0. -1.
     999900   -1    0    0    0    0 -0.00000000000E+00 -0.00000000000E+00 -0.74505805969E-08  0.93827000000E+00  0.93827000000E+00 0. -1.
     999902    2    1    2    0    0  0.22305498388E-01 -0.57223926799E-02  0.67505227303E-02  0.10199331128E+01  0.10196507755E+01 0.  0.
     999903    2    3    3    0    0 -0.16388904650E-01 -0.12605377945E+00 -0.20582370781E-01  0.13048160402E+00  0.21063321003E-01 0.  0.
         14    1    1    2    0    0 -0.22305498388E-01  0.57223926799E-02 -0.67505227303E-02  0.23996887162E-01  0.00000000000E+00 0.  1.
     999901    1    3    3    0    0  0.38694403038E-01  0.12033138677E+00  0.27332893511E-01  0.88945150882E+00  0.88000000000E+00 0. -1.
        -11    1    4    4    0    0 -0.18510204310E-01 -0.65489974802E-01 -0.14397371922E-01  0.69563711103E-01  0.51100000000E-03 0. -1.
         11    1    4    4    0    0  0.21212996599E-02 -0.60563804648E-01 -0.61849988587E-02  0.60917892918E-01  0.51100000000E-03 0.  1.
</event>
<event>
 8    1  0.1079508E+005  0.1043930E+01  0.7957747E-01            NaN
         13   -1    0    0    0    0  0.00000000000E+00  0.00000000000E+00  0.74505805969E-08  0.10566000000E+00  0.10566000000E+00 0.  1.
     999900   -1    0    0    0    0 -0.00000000000E+00 -0.00000000000E+00 -0.74505805969E-08  0.93827000000E+00  0.93827000000E+00 0.  1.
     999902    2    1    2    0    0  0.11160473501E-01 -0.36216713485E-02 -0.21853112110E-01  0.10191261458E+01  0.10188242586E+01 0.  0.
     999903    2    3    3    0    0 -0.27963390618E-01 -0.72692021898E-01 -0.10388393351E+00  0.13175336864E+00  0.22382967700E-01 0.  0.
         14    1    1    2    0    0 -0.11160473501E-01  0.36216713485E-02  0.21853112110E-01  0.24803854157E-01  0.00000000000E+00 0.  1.
     999901    1    3    3    0    0  0.39123864118E-01  0.69070350550E-01  0.82030821399E-01  0.88737277721E+00  0.88000000000E+00 0. -1.
        -11    1    4    4    0    0 -0.12936364759E-01 -0.13868160587E-01 -0.35897395762E-01  0.40602457496E-01  0.51100000000E-03 0. -1.
         11    1    4    4    0    0 -0.15027025859E-01 -0.58823861311E-01 -0.67986537748E-01  0.91150911140E-01  0.51100000000E-03 0.  1.
</event>
<event>
 8    1  0.1079508E+005  0.1043930E+01  0.7957747E-01            NaN
         13   -1    0    0    0    0  0.00000000000E+00  0.00000000000E+00  0.74505805969E-08  0.10566000000E+00  0.10566000000E+00 0. -1.
     999900   -1    0    0    0    0 -0.00000000000E+00 -0.00000000000E+00 -0.74505805969E-08  0.93827000000E+00  0.93827000000E+00 0.  1.
     999902    2    1    2    0    0  0.18262008251E-02  0.19003278801E-01 -0.97592593800E-02  0.10224893200E+01  0.10222644994E+01 0.  0.
     999903    2    3    3    0    0 -0.10215370148E+00 -0.65616076269E-01 -0.49727549544E-01  0.13143953490E+00  0.79166887303E-02 0.  0.
         14    1    1    2    0    0 -0.18262008251E-02 -0.19003278801E-01  0.97592593800E-02  0.21440679986E-01  0.00000000000E+00 0. -1.
     999901    1    3    3    0    0  0.10397990230E+00  0.84619355070E-01  0.39968290164E-01  0.89104978512E+00  0.88000000000E+00 0. -1.
        -11    1    4    4    0    0 -0.82004565290E-01 -0.49470997196E-01 -0.37293541306E-01  0.10277741793E+00  0.51100000000E-03 0.  1.
         11    1    4    4    0    0 -0.20149136186E-01 -0.16145079073E-01 -0.12434008238E-01  0.28662116969E-01  0.51100000000E-03 0. -1.
</event>
<event>
 8    1  0.1079508E+005  0.1043930E+01  0.7957747E-01            NaN
         13   -1    0    0    0    0  0.00000000000E+00  0.00000000000E+00  0.74505805969E-08  0.10566000000E+00  0.10566000000E+00 0. -1.
     999900   -1    0    0    0    0 -0.00000000000E+00 -0.00000000000E+00 -0.74505805969E-08  0.93827000000E+00  0.93827000000E+00 0. -1.
     999902    2    1    2    0    0 -0.22156140904E-01 -0.11387808831E-02 -0.60907361648E-02  0.10209237298E+01  0.10206644765E+01 0.  0.
     999903    2    3    3    0    0  0.12524592627E+00  0.20256289793E-01 -0.56167733828E-02  0.12840743129E+00  0.18975271909E-01 0.  0.
         14    1    1    2    0    0  0.22156140904E-01  0.11387808831E-02  0.60907361648E-02  0.23006270204E-01  0.00000000000E+00 0. -1.
     999901    1    3    3    0    0 -0.14740206717E+00 -0.21395070676E-01 -0.47396278199E-03  0.89251629851E+00  0.88000000000E+00 0. -1.
        -11    1    4    4    0    0  0.21902215092E-01 -0.34424208827E-02 -0.26910900528E-02  0.22339659221E-01  0.51100000000E-03 0. -1.
         11    1    4    4    0    0  0.10334371118E+00  0.23698710676E-01 -0.29256833300E-02  0.10606777207E+00  0.51100000000E-03 0.  1.
</event>
<event>
 8    1  0.1079508E+005  0.1043930E+01  0.7957747E-01            NaN
         13   -1    0    0    0    0  0.00000000000E+00  0.00000000000E+00  0.74505805969E-08  0.10566000000E+00  0.10566000000E+00 0.  1.
     999900   -1    0    0    0    0 -0.00000000000E+00 -0.00000000000E+00 -0.74505805969E-08  0.93827000000E+00  0.93827000000E+00 0. -1.
     999902    2    1    2    0    0 -0.13479445309E-01 -0.85284698265E-02  0.17472566163E-01  0.10202715805E+01  0.10199972437E+01 0.  0.
     999903    2    3    3    0    0  0.78586674753E-01  0.98454999469E-01 -0.15091839886E-01  0.12842962497E+00  0.19928687071E-01 0.  0.
         14    1    1    2    0    0  0.13479445309E-01  0.85284698265E-02 -0.17472566163E-01  0.23658419469E-01  0.00000000000E+00 0. -1.
     999901    1    3    3    0    0 -0.92066120062E-01 -0.10698346930E+00  0.32564406050E-01  0.89184195557E+00  0.88000000000E+00 0.  1.
        -11    1    4    4    0    0  0.36023497956E-01  0.55796809726E-01 -0.15342940208E-01  0.68166291639E-01  0.51100000000E-03 0. -1.
         11    1    4    4    0    0  0.42563176797E-01  0.42658189743E-01  0.25110032184E-03  0.60263333326E-01  0.51100000000E-03 0.  1.
</event>
<event>
 8    1  0.1079508E+005  0.1043930E+01  0.7957747E-01            NaN
         13   -1    0    0    0    0  0.00000000000E+00  0.00000000000E+00  0.74505805969E-08  0.10566000000E+00  0.10566000000E+00 0. -1.
     999900   -1    0    0    0    0 -0.00000000000E+00 -0.00000000000E+00 -0.74505805969E-08  0.93827000000E+00  0.93827000000E+00 0. -1.
     999902    2    1    2    0    0  0.21754333815E-01 -0.41514344516E-03  0.11196215902E-02  0.10221429181E+01  0.10219106948E+01 0.  0.
     999903    2    3    3    0    0 -0.12793619998E+00 -0.41119524871E-02  0.23901810289E-03  0.12949422028E+00  0.19598891238E-01 0.  0.
         14    1    1    2    0    0 -0.21754333815E-01  0.41514344516E-03 -0.11196215902E-02  0.21787081868E-01  0.00000000000E+00 0. -1.
     999901    1    3    3    0    0  0.14969053380E+00  0.36968090420E-02  0.88060348727E-03  0.89264869785E+00  0.88000000000E+00 0. -1.
        -11    1    4    4    0    0 -0.52489000090E-01 -0.29046517257E-02 -0.94557587586E-02  0.53415396907E-01  0.51100000000E-03 0.  1.
         11    1    4    4    0    0 -0.75447199895E-01 -0.12073007614E-02  0.96947768615E-02  0.76078823377E-01  0.51100000000E-03 0. -1.
</event>
<event>
 7    1  0.1661399E+005  0.1043930E+01  0.7957747E-01            NaN
         13   -1    0    0    0    0  0.00000000000E+00  0.00000000000E+00  0.74505805969E-08  0.10566000000E+00  0.10566000000E+00 0.  1.
     999900   -1    0    0    0    0 -0.00000000000E+00 -0.00000000000E+00 -0.74505805969E-08  0.93827000000E+00  0.93827000000E+00 0.  1.
     999903    2    1    2    0    0  0.49184532064E-01 -0.88183296698E-01 -0.92015051300E-03  0.10281695422E+00  0.19366656572E-01 0.  0.
         14    1    1    2    0    0  0.76126164730E-02 -0.14761408330E-01  0.49253894962E-01  0.51978815630E-01  0.00000000000E+00 0.  1.
     999901    1    1    2    0    0 -0.56797148537E-01  0.10294470503E+00 -0.48333744449E-01  0.88913423015E+00  0.88000000000E+00 0.  1.
        -11    1    3    3    0    0  0.16518927472E-01 -0.49168933533E-01  0.12061475055E-02  0.51886172555E-01  0.51100000000E-03 0. -1.
         11    1    3    3    0    0  0.32665604592E-01 -0.39014363165E-01 -0.21262980185E-02  0.50930781663E-01  0.51100000000E-03 0.  1.
</event>
<event>
 8    1  0.1079508E+005  0.1043930E+01  0.7957747E-01            NaN
         13   -1    0    0    0    0  0.00000000000E+00  0.00000000000E+00  0.74505805969E-08  0.10566000000E+00  0.10566000000E+00 0. -1.
     999900   -1    0    0    0    0 -0.00000000000E+00 -0.00000000000E+00 -0.74505805969E-08  0.93827000000E+00  0.93827000000E+00 0. -1.
     999902    2    1    2    0    0  0.22250675665E-01  0.35954838071E-02  0.43782022970E-02  0.10209694093E+01  0.10207111961E+01 0.  0.
     999903    2    3    3    0    0  0.12345479450E+00 -0.24027713272E-01 -0.40342562256E-01  0.13361082253E+00  0.20147264751E-01 0.  0.
         14    1    1    2    0    0 -0.22250675665E-01 -0.35954838071E-02 -0.43782022970E-02  0.22960590730E-01  0.00000000000E+00 0. -1.
     999901    1    3    3    0    0 -0.10120411883E+00  0.27623197080E-01  0.44720764553E-01  0.88735858674E+00  0.88000000000E+00 0.  1.
        -11    1    4    4    0    0  0.66215614827E-01 -0.14418447302E-01 -0.32096264775E-01  0.74985535959E-01  0.51100000000E-03 0. -1.
         11    1    4    4    0    0  0.57239179671E-01 -0.96092659707E-02 -0.82462974809E-02  0.58625286567E-01  0.51100000000E-03 0.  1.
</event>
<event>
 8    1  0.1079508E+005  0.1043930E+01  0.7957747E-01            NaN
         13   -1    0    0    0    0  0.00000000000E+00  0.00000000000E+00  0.74505805969E-08  0.10566000000E+00  0.10566000000E+00 0.  1.
     999900   -1    0    0    0    0 -0.00000000000E+00 -0.00000000000E+00 -0.74505805969E-08  0.93827000000E+00  0.93827000000E+00 0. -1.
     999902    2    1    2    0    0 -0.17042377989E-01  0.41116596742E-02  0.15805281443E-01  0.10203258623E+01  0.10200527977E+01 0.  0.
     999903    2    3    3    0    0  0.11100376514E+00  0.48072138807E-01 -0.38156695005E-01  0.12833918453E+00  0.19551125529E-01 0.  0.
         14    1    1    2    0    0  0.17042377989E-01 -0.41116596742E-02 -0.15805281443E-01  0.23604137652E-01  0.00000000000E+00 0. -1.
     999901    1    3    3    0    0 -0.12804614312E+00 -0.43960479133E-01  0.53961976448E-01  0.89198667781E+00  0.88000000000E+00 0.  1.
        -11    1    4    4    0    0  0.61604344680E-01  0.19152173264E-01 -0.27402986236E-01  0.70093407677E-01  0.51100000000E-03 0. -1.
         11    1    4    4    0    0  0.49399420456E-01  0.28919965543E-01 -0.10753708769E-01  0.58245776857E-01  0.51100000000E-03 0.  1.
</event>
<event>
 8    1  0.1079508E+005  0.1043930E+01  0.7957747E-01            NaN
         13   -1    0    0    0    0  0.00000000000E+00  0.00000000000E+00  0.74505805969E-08  0.10566000000E+00  0.10566000000E+00 0. -1.
     999900   -1    0    0    0    0 -0.00000000000E+00 -0.00000000000E+00 -0.74505805969E-08  0.93827000000E+00  0.93827000000E+00 0.  1.
     999902    2    1    2    0    0 -0.12438798257E-01 -0.20616067982E-01  0.26400389420E-02  0.10197077836E+01  0.10194200548E+01 0.  0.
     999903    2    3    3    0    0 -0.71918220030E-01  0.52580907518E-01  0.92668124599E-01  0.13010076080E+00  0.20046057853E-01 0.  0.
         14    1    1    2    0    0  0.12438798257E-01  0.20616067982E-01 -0.26400389420E-02  0.24222216387E-01  0.00000000000E+00 0. -1.
     999901    1    3    3    0    0  0.59479421773E-01 -0.73196975500E-01 -0.90028085657E-01  0.88960702282E+00  0.88000000000E+00 0.  1.
        -11    1    4    4    0    0 -0.47939758844E-01  0.41501111005E-01  0.75488996661E-01  0.98587080445E-01  0.51100000000E-03 0.  1.
         11    1    4    4    0    0 -0.23978461186E-01  0.11079796513E-01  0.17179127938E-01  0.31513680352E-01  0.51100000000E-03 0. -1.
</event>
<event>
 8    1  0.1079508E+005  0.1043930E+01  0.7957747E-01            NaN
         13   -1    0    0    0    0  0.00000000000E+00  0.00000000000E+00  0.74505805969E-08  0.10566000000E+00  0.10566000000E+00 0. -1.
     999900   -1    0    0    0    0 -0.00000000000E+00 -0.00000000000E+00 -0.74505805969E-08  0.93827000000E+00  0.93827000000E+00 0. -1.
     999902    2    1    2    0    0 -0.19619884264E-01 -0.51504729367E-02  0.10911350999E-01  0.10208968758E+01  0.10206370100E+01 0.  0.
     999903    2    3    3    0    0 -0.93488718722E-01  0.82758702345E-01 -0.38723991797E-01  0.13205026639E+00  0.18670350022E-01 0.  0.
         14    1    1    2    0    0  0.19619884264E-01  0.51504729367E-02 -0.10911350999E-01  0.23033124205E-01  0.00000000000E+00 0. -1.
     999901    1    3    3    0    0  0.73868834458E-01 -0.87909175282E-01  0.49635342796E-01  0.88884660941E+00  0.88000000000E+00 0.  1.
        -11    1    4    4    0    0 -0.41963637596E-01  0.25283330198E-01 -0.13074473283E-01  0.50708940423E-01  0.51100000000E-03 0. -1.
         11    1    4    4    0    0 -0.51525081125E-01  0.57475372147E-01 -0.25649518514E-01  0.81341325963E-01  0.51100000000E-03 0.  1.
</event>
<event>
 8    1  0.1079508E+005  0.1043930E+01  0.7957747E-01            NaN
         13   -1    0    0    0    0  0.00000000000E+00  0.00000000000E+00  0.74505805969E-08  0.10566000000E+00  0.10566000000E+00 0. -1.
     999900   -1    0    0    0    0 -0.00000000000E+00 -0.00000000000E+00 -0.74505805969E-08  0.93827000000E+00  0.93827000000E+00 0. -1.
     999902    2    1    2    0    0 -0.10359052792E-01 -0.19680847188E-01 -0.41167565975E-02  0.10213115693E+01  0.10210610796E+01 0.  0.
     999903    2    3    3    0    0  0.11590399923E+00  0.54014328471E-01 -0.14966760908E-02  0.12924643604E+00  0.18738102176E-01 0.  0.
         14    1    1    2    0    0  0.10359052792E-01  0.19680847188E-01  0.41167565975E-02  0.22618430663E-01  0.00000000000E+00 0. -1.
     999901    1    3    3    0    0 -0.12626305202E+00 -0.73695175659E-01 -0.26200805067E-02  0.89206513330E+00  0.88000000000E+00 0. -1.
        -11    1    4    4    0    0  0.66323400254E-01  0.25973580870E-01  0.73210446703E-02  0.71605021755E-01  0.51100000000E-03 0.  1.
         11    1    4    4    0    0  0.49580598972E-01  0.28040747601E-01 -0.88177207611E-02  0.57641414286E-01  0.51100000000E-03 0. -1.
</event>
<event>
 8    1  0.1079508E+005  0.1043930E+01  0.7957747E-01            NaN
         13   -1    0    0    0    0  0.00000000000E+00  0.00000000000E+00  0.74505805969E-08  0.10566000000E+00  0.10566000000E+00 0.  1.
     999900   -1    0    0    0    0 -0.00000000000E+00 -0.00000000000E+00 -0.74505805969E-08  0.93827000000E+00  0.93827000000E+00 0. -1.
     999902    2    1    2    0    0 -0.36360032494E-02  0.11274658264E-01 -0.18010340435E-01  0.10223728480E+01  0.10221455521E+01 0.  0.
     999903    2    3    3    0    0  0.37701642001E-02  0.12918586909E+00  0.26924707975E-01  0.13334131679E+00  0.18755371295E-01 0.  0.
         14    1    1    2    0    0  0.36360032494E-02 -0.11274658264E-01  0.18010340435E-01  0.21557151973E-01  0.00000000000E+00 0.  1.
     999901    1    3    3    0    0 -0.74061674495E-02 -0.11791121083E+00 -0.44935048410E-01  0.88903153124E+00  0.88000000000E+00 0.  1.
        -11    1    4    4    0    0  0.93906073754E-02  0.96874344713E-01  0.15207803608E-01  0.98510713032E-01  0.51100000000E-03 0. -1.
         11    1    4    4    0    0 -0.56204431754E-02  0.32311524381E-01  0.11716904366E-01  0.34830603759E-01  0.51100000000E-03 0.  1.
</event>
<event>
 8    1  0.1079508E+005  0.1043930E+01  0.7957747E-01            NaN
         13   -1    0    0    0    0  0.00000000000E+00  0.00000000000E+00  0.74505805969E-08  0.10566000000E+00  0.10566000000E+00 0. -1.
     999900   -1    0    0    0    0 -0.00000000000E+00 -0.00000000000E+00 -0.74505805969E-08  0.93827000000E+00  0.93827000000E+00 0. -1.
     999902    2    1    2    0    0 -0.21486190421E-01  0.48623026210E-02 -0.86815183013E-02  0.10202515895E+01  0.10199767834E+01 0.  0.
     999903    2    3    3    0    0 -0.44463093363E-02 -0.82425745099E-01 -0.99803044835E-01  0.13108754756E+00  0.20236705361E-01 0.  0.
         14    1    1    2    0    0  0.21486190421E-01 -0.48623026210E-02  0.86815183013E-02  0.23678410538E-01  0.00000000000E+00 0. -1.
     999901    1    3    3    0    0 -0.17039881085E-01  0.87288047720E-01  0.91121526534E-01  0.88916404191E+00  0.88000000000E+00 0. -1.
        -11    1    4    4    0    0 -0.40174057046E-02 -0.78235759444E-01 -0.84590159055E-01  0.11529410104E+00  0.51100000000E-03 0.  1.
         11    1    4    4    0    0 -0.42890363169E-03 -0.41899856548E-02 -0.15212885780E-01  0.15793446517E-01  0.51100000000E-03 0. -1.
</event>
<event>
 8    1  0.1079508E+005  0.1043930E+01  0.7957747E-01            NaN
         13   -1    0    0    0    0  0.00000000000E+00  0.00000000000E+00  0.74505805969E-08  0.10566000000E+00  0.10566000000E+00 0. -1.
     999900   -1    0    0    0    0 -0.00000000000E+00 -0.00000000000E+00 -0.74505805969E-08  0.93827000000E+00  0.93827000000E+00 0. -1.
     999902    2    1    2    0    0  0.45983352179E-02 -0.33978493941E-03 -0.23241196834E-01  0.10202358368E+01  0.10199606606E+01 0.  0.
     999903    2    3    3    0    0 -0.40187254579E-01  0.12034198552E+00 -0.25729158465E-01  0.13086750547E+00  0.19159996993E-01 0.  0.
         14    1    1    2    0    0 -0.45983352179E-02  0.33978493941E-03  0.23241196834E-01  0.23694163223E-01  0.00000000000E+00 0. -1.
     999901    1    3    3    0    0  0.44785589797E-01 -0.12068177046E+00  0.24879616308E-02  0.88936833130E+00  0.88000000000E+00 0.  1.
        -11    1    4    4    0    0 -0.21216857338E-01  0.68620875463E-01 -0.24056780213E-01  0.75749385343E-01  0.51100000000E-03 0. -1.
         11    1    4    4    0    0 -0.18970397241E-01  0.51721110053E-01 -0.16723782517E-02  0.55118120130E-01  0.51100000000E-03 0.  1.
</event>
<event>
 8    1  0.1079508E+005  0.1043930E+01  0.7957747E-01            NaN
         13   -1    0    0    0    0  0.00000000000E+00  0.00000000000E+00  0.74505805969E-08  0.10566000000E+00  0.10566000000E+00 0. -1.
     999900   -1    0    0    0    0 -0.00000000000E+00 -0.00000000000E+00 -0.74505805969E-08  0.93827000000E+00  0.93827000000E+00 0.  1.
     999902    2    1    2    0    0  0.15926243455E-01  0.12535173634E-01  0.11213292204E-01  0.10207672340E+01  0.10205044009E+01 0.  0.
     999903    2    3    3    0    0  0.68263696080E-01  0.85254411863E-01 -0.71981527746E-01  0.13231426693E+00  0.19936849100E-01 0.  0.
         14    1    1    2    0    0 -0.15926243455E-01 -0.12535173634E-01 -0.11213292204E-01  0.23162766041E-01  0.00000000000E+00 0.  1.
     999901    1    3    3    0    0 -0.52337452624E-01 -0.72719238229E-01  0.83194819949E-01  0.88845296703E+00  0.88000000000E+00 0. -1.
        -11    1    4    4    0    0  0.15409277532E-01  0.30205641213E-01 -0.15053347243E-01  0.37103786590E-01  0.51100000000E-03 0. -1.
         11    1    4    4    0    0  0.52854418548E-01  0.55048770651E-01 -0.56928180503E-01  0.95210480340E-01  0.51100000000E-03 0.  1.
</event>
<event>
 8    1  0.1079508E+005  0.1043930E+01  0.7957747E-01            NaN
         13   -1    0    0    0    0  0.00000000000E+00  0.00000000000E+00  0.74505805969E-08  0.10566000000E+00  0.10566000000E+00 0.  1.
     999900   -1    0    0    0    0 -0.00000000000E+00 -0.00000000000E+00 -0.74505805969E-08  0.93827000000E+00  0.93827000000E+00 0.  1.
     999902    2    1    2    0    0 -0.13194715661E-01  0.95091246473E-02 -0.16371555264E-01  0.10208529162E+01  0.10205920462E+01 0.  0.
     999903    2    3    3    0    0  0.57040665897E-01 -0.11410190332E+00  0.88456402386E-02  0.12908579305E+00  0.17663938128E-01 0.  0.
         14    1    1    2    0    0  0.13194715661E-01 -0.95091246473E-02  0.16371555264E-01  0.23077083756E-01  0.00000000000E+00 0.  1.
     999901    1    3    3    0    0 -0.70235381558E-01  0.12361102796E+00 -0.25217195503E-01  0.89176712319E+00  0.88000000000E+00 0. -1.
        -11    1    4    4    0    0  0.35352876531E-01 -0.87889030252E-01  0.75747071682E-02  0.95036544694E-01  0.51100000000E-03 0. -1.
         11    1    4    4    0    0  0.21687789366E-01 -0.26212873064E-01  0.12709330705E-02  0.34049248358E-01  0.51100000000E-03 0.  1.
</event>
<event>
 8    1  0.1079508E+005  0.1043930E+01  0.7957747E-01            NaN
         13   -1    0    0    0    0  0.00000000000E+00  0.00000000000E+00  0.74505805969E-08  0.10566000000E+00  0.10566000000E+00 0.  1.
     999900   -1    0    0    0    0 -0.00000000000E+00 -0.00000000000E+00 -0.74505805969E-08  0.93827000000E+00  0.93827000000E+00 0. -1.
     999902    2    1    2    0    0 -0.15598717259E-01 -0.16208948544E-01  0.82543291314E-02  0.10199678644E+01  0.10196863540E+01 0.  0.
     999903    2    3    3    0    0  0.20574839825E-01  0.71654620049E-01 -0.10217996047E+00  0.12799013753E+00  0.19570957455E-01 0.  0.
         14    1    1    2    0    0  0.15598717259E-01  0.16208948544E-01 -0.82543291314E-02  0.23962135599E-01  0.00000000000E+00 0.  1.
     999901    1    3    3    0    0 -0.36173557083E-01 -0.87863568593E-01  0.11043428960E+00  0.89197772687E+00  0.88000000000E+00 0.  1.
        -11    1    4    4    0    0  0.19096131071E-01  0.53300545241E-01 -0.63053994688E-01  0.84744779851E-01  0.51100000000E-03 0. -1.
         11    1    4    4    0    0  0.14787087532E-02  0.18354074808E-01 -0.39125965778E-01  0.43245357678E-01  0.51100000000E-03 0.  1.
</event>
<event>
 8    1  0.1079508E+005  0.1043930E+01  0.7957747E-01            NaN
         13   -1    0    0    0    0  0.00000000000E+00  0.00000000000E+00  0.74505805969E-08  0.10566000000E+00  0.10566000000E+00 0.  1.
     999900   -1    0    0    0    0 -0.00000000000E+00 -0.00000000000E+00 -0.74505805969E-08  0.93827000000E+00  0.93827000000E+00 0. -1.
     999902    2    1    2    0    0  0.81305030200E-02 -0.21497958818E-01 -0.76784677073E-02  0.10196972499E+01  0.10194092678E+01 0.  0.
     999903    2    3    3    0    0  0.10526013607E+00 -0.19094293460E-01 -0.74627324320E-01  0.13182220650E+00  0.19067467163E-01 0.  0.
         14    1    1    2    0    0 -0.81305030200E-02  0.21497958818E-01  0.76784677073E-02  0.24232750133E-01  0.00000000000E+00 0. -1.
     999901    1    3    3    0    0 -0.97129633052E-01 -0.24036653577E-02  0.66948856612E-01  0.88787504336E+00  0.88000000000E+00 0.  1.
        -11    1    4    4    0    0  0.24301851146E-01 -0.19834942504E-02 -0.26845201761E-01  0.36268997741E-01  0.51100000000E-03 0.  1.
         11    1    4    4    0    0  0.80958284926E-01 -0.17110799209E-01 -0.47782122558E-01  0.95553208763E-01  0.51100000000E-03 0. -1.
</event>
<event>
 8    1  0.1079508E+005  0.1043930E+01  0.7957747E-01            NaN
         13   -1    0    0    0    0  0.00000000000E+00  0.00000000000E+00  0.74505805969E-08  0.10566000000E+00  0.10566000000E+00 0.  1.
     999900   -1    0    0    0    0 -0.00000000000E+00 -0.00000000000E+00 -0.74505805969E-08  0.93827000000E+00  0.93827000000E+00 0.  1.
     999902    2    1    2    0    0  0.14732547295E-01 -0.15379027363E-01 -0.11061370367E-01  0.10199317428E+01  0.10196493729E+01 0.  0.
     999903    2    3    3    0    0 -0.64858773500E-01  0.10698192889E+00 -0.15065904992E-01  0.12789866147E+00  0.21892750019E-01 0.  0.
         14    1    1    2    0    0 -0.14732547295E-01  0.15379027363E-01  0.11061370367E-01  0.23998257162E-01  0.00000000000E+00 0.  1.
     999901    1    3    3    0    0  0.79591320795E-01 -0.12236095625E+00  0.40045346251E-02  0.89203308137E+00  0.88000000000E+00 0. -1.
        -11    1    4    4    0    0 -0.29752611151E-01  0.35542780825E-01  0.23529150654E-02  0.46414485556E-01  0.51100000000E-03 0. -1.
         11    1    4    4    0    0 -0.35106162349E-01  0.71439148063E-01 -0.17418820057E-01  0.81484175912E-01  0.51100000000E-03 0.  1.
</event>
<event>
 8    1  0.1079508E+005  0.1043930E+01  0.7957747E-01            NaN
         13   -1    0    0    0    0  0.00000000000E+00  0.00000000000E+00  0.74505805969E-08  0.10566000000E+00  0.10566000000E+00 0.  1.
     999900   -1    0    0    0    0 -0.00000000000E+00 -0.00000000000E+00 -0.74505805969E-08  0.93827000000E+00  0.93827000000E+00 0. -1.
     999902    2    1    2    0    0  0.25713995928E-02 -0.18624936520E-01 -0.14632694133E-01  0.10201053050E+01  0.10198270525E+01 0.  0.
     999903    2    3    3    0    0  0.58880178781E-01 -0.11303020491E+00  0.28965573259E-01  0.13219548846E+00  0.19847923284E-01 0.  0.
         14    1    1    2    0    0 -0.25713995928E-02  0.18624936520E-01  0.14632694133E-01  0.23824695041E-01  0.00000000000E+00 0.  1.
     999901    1    3    3    0    0 -0.56308779189E-01  0.94405268395E-01 -0.43598267391E-01  0.88790981650E+00  0.88000000000E+00 0. -1.
        -11    1    4    4    0    0  0.10601177854E-01 -0.40171958958E-01  0.80293641927E-02  0.42319062711E-01  0.51100000000E-03 0. -1.
         11    1    4    4    0    0  0.48279000927E-01 -0.72858245957E-01  0.20936209066E-01  0.89876425750E-01  0.51100000000E-03 0.  1.
</event>
<event>
 8    1  0.1079508E+005  0.1043930E+01  0.7957747E-01            NaN
         13   -1    0    0    0    0  0.00000000000E+00  0.00000000000E+00  0.74505805969E-08  0.10566000000E+00  0.10566000000E+00 0. -1.
     999900   -1    0    0    0    0 -0.00000000000E+00 -0.00000000000E+00 -0.74505805969E-08  0.93827000000E+00  0.93827000000E+00 0. -1.
     999902    2    1    2    0    0  0.21395431270E-01  0.75147028927E-02 -0.91540090253E-04  0.10212530598E+01  0.10210012578E+01 0.  0.
     999903    2    3    3    0    0  0.46264599732E-01  0.12326244818E+00 -0.56728891880E-02  0.13330758422E+00  0.20116809414E-01 0.  0.
         14    1    1    2    0    0 -0.21395431270E-01 -0.75147028927E-02  0.91540090253E-04  0.22676940234E-01  0.00000000000E+00 0. -1.
     999901    1    3    3    0    0 -0.24869168462E-01 -0.11574774528E+00  0.55813490978E-02  0.88794547554E+00  0.88000000000E+00 0. -1.
        -11    1    4    4    0    0  0.22610717904E-01  0.41199761858E-01 -0.89309855750E-02  0.47840240024E-01  0.51100000000E-03 0.  1.
         11    1    4    4    0    0  0.23653881828E-01  0.82062686319E-01  0.32580963870E-02  0.85467344199E-01  0.51100000000E-03 0. -1.
</event>
<event>
 8    1  0.1079508E+005  0.1043930E+01  0.7957747E-01            NaN
         13   -1    0    0    0    0  0.00000000000E+00  0.00000000000E+00  0.74505805969E-08  0.10566000000E+00  0.10566000000E+00 0.  1.
     999900   -1    0    0    0    0 -0.00000000000E+00 -0.00000000000E+00 -0.74505805969E-08  0.93827000000E+00  0.93827000000E+00 0. -1.
     999902    2    1    2    0    0 -0.18136308600E-01  0.46138764380E-02 -0.12040016309E-01  0.10216774600E+01  0.10214350966E+01 0.  0.
     999903    2    3    3    0    0  0.22593132839E-01  0.81991280637E-01  0.97131472623E-01  0.13063056778E+00  0.19919902393E-01 0.  0.
         14    1    1    2    0    0  0.18136308600E-01 -0.46138764380E-02  0.12040016309E-01  0.22252540038E-01  0.00000000000E+00 0.  1.
     999901    1    3    3    0    0 -0.40729441439E-01 -0.77377404199E-01 -0.10917148893E+00  0.89104689219E+00  0.88000000000E+00 0. -1.
        -11    1    4    4    0    0  0.18847227145E-01  0.36026363835E-01  0.52965850296E-01  0.66773941630E-01  0.51100000000E-03 0.  1.
         11    1    4    4    0    0  0.37459056943E-02  0.45964916803E-01  0.44165622327E-01  0.63856626145E-01  0.51100000000E-03 0. -1.
</event>
<event>
 8    1  0.1079508E+005  0.1043930E+01  0.7957747E-01            NaN
         13   -1    0    0    0    0  0.00000000000E+00  0.00000000000E+00  0.74505805969E-08  0.10566000000E+00  0.10566000000E+00 0.  1.
     999900   -1    0    0    0    0 -0.00000000000E+00 -0.00000000000E+00 -0.74505805969E-08  0.93827000000E+00  0.93827000000E+00 0. -1.
     999902    2    1    2    0    0  0.33769112038E-02  0.33282490130E-03  0.20368696070E-01  0.10232805913E+01  0.10230722215E+01 0.  0.
     999903    2    3    3    0    0 -0.15950466178E-01 -0.57730942482E-01 -0.11426315449E+00  0.13094058668E+00  0.22407357588E-01 0.  0.
         14    1    1    2    0    0 -0.33769112038E-02 -0.33282490130E-03 -0.20368696070E-01  0.20649408739E-01  0.00000000000E+00 0. -1.
     999901    1    3    3    0    0  0.19327377381E-01  0.58063767383E-01  0.13463185056E+00  0.89234000459E+00  0.88000000000E+00 0.  1.
        -11    1    4    4    0    0  0.40609550532E-02 -0.22125299365E-01 -0.32320290056E-01  0.39381245514E-01  0.51100000000E-03 0. -1.
         11    1    4    4    0    0 -0.20011421231E-01 -0.35605643116E-01 -0.81942864433E-01  0.91559341161E-01  0.51100000000E-03 0.  1.
</event>
<event>
 8    1  0.1079508E+005  0.1043930E+01  0.7957747E-01            NaN
         13   -1    0    0    0    0  0.00000000000E+00  0.00000000000E+00  0.74505805969E-08  0.10566000000E+00  0.10566000000E+00 0.  1.
     999900   -1    0    0    0    0 -0.00000000000E+00 -0.00000000000E+00 -0.74505805969E-08  0.93827000000E+00  0.93827000000E+00 0. -1.
     999902    2    1    2    0    0  0.36361358516E-02  0.18623114612E-01 -0.14624039246E-01  0.10199736980E+01  0.10196923262E+01 0.  0.
     999903    2    3    3    0    0  0.33906637482E-01  0.11253025052E+00  0.55848100543E-01  0.13166002821E+00  0.20065775514E-01 0.  0.
         14    1    1    2    0    0 -0.36361358516E-02 -0.18623114612E-01  0.14624039246E-01  0.23956302003E-01  0.00000000000E+00 0.  1.
     999901    1    3    3    0    0 -0.30270501630E-01 -0.93907135907E-01 -0.70472139789E-01  0.88831366979E+00  0.88000000000E+00 0. -1.
        -11    1    4    4    0    0  0.28206176281E-01  0.80968496592E-01  0.31332640836E-01  0.91287903489E-01  0.51100000000E-03 0.  1.
         11    1    4    4    0    0  0.57004612007E-02  0.31561753928E-01  0.24515459707E-01  0.40372124721E-01  0.51100000000E-03 0. -1.
</event>
<event>
 8    1  0.1079508E+005  0.1043930E+01  0.7957747E-01            NaN
         13   -1    0    0    0    0  0.00000000000E+00  0.00000000000E+00  0.74505805969E-08  0.10566000000E+00  0.10566000000E+00 0. -1.
     999900   -1    0    0    0    0 -0.00000000000E+00 -0.00000000000E+00 -0.74505805969E-08  0.93827000000E+00  0.93827000000E+00 0. -1.
     999902    2    1    2    0    0  0.48068837289E-02 -0.21046778270E-01  0.11645135958E-01  0.10194007889E+01  0.10191056305E+01 0.  0.
     999903    2    3    3    0    0  0.89469211071E-01  0.17853517400E-01  0.91225723052E-01  0.13091105201E+00  0.22182947947E-01 0.  0.
         14    1    1    2    0    0 -0.48068837289E-02  0.21046778270E-01 -0.11645135958E-01  0.24529211121E-01  0.00000000000E+00 0.  1.
     999901    1    3    3    0    0 -0.84662327342E-01 -0.38900295670E-01 -0.79580587094E-01  0.88848973687E+00  0.88000000000E+00 0. -1.
        -11    1    4    4    0    0  0.65952935721E-01  0.20012013579E-01  0.57631084838E-01  0.89843605662E-01  0.51100000000E-03 0. -1.
         11    1    4    4    0    0  0.23516275349E-01 -0.21584961784E-02  0.33594638214E-01  0.41067446351E-01  0.51100000000E-03 0.  1.
</event>
<event>
 7    1  0.1079508E+005  0.1043930E+01  0.7957747E-01            NaN
         13   -1    0    0    0    0  0.00000000000E+00  0.00000000000E+00  0.74505805969E-08  0.10566000000E+00  0.10566000000E+00 0. -1.
     999900   -1    0    0    0    0 -0.00000000000E+00 -0.00000000000E+00 -0.74505805969E-08  0.93827000000E+00  0.93827000000E+00 0. -1.
     999903    2    1    2    0    0 -0.10035941734E+00 -0.39294281093E-01 -0.37743170293E-01  0.11582936057E+00  0.19386611170E-01 0.  0.
         14    1    1    2    0    0  0.27651963515E-01  0.25021454991E-01 -0.21422056632E-01  0.43007078562E-01  0.00000000000E+00 0. -1.
     999901    1    1    2    0    0  0.72707453821E-01  0.14272826102E-01  0.59165226925E-01  0.88509356086E+00  0.88000000000E+00 0.  1.
        -11    1    3    3    0    0 -0.15530106148E-01 -0.25621396776E-02 -0.12206312481E-01  0.19924957769E-01  0.51100000000E-03 0. -1.
         11    1    3    3    0    0 -0.84829311188E-01 -0.36732141415E-01 -0.25536857812E-01  0.95904402805E-01  0.51100000000E-03 0.  1.
</event>
<event>
 8    1  0.1079508E+005  0.1043930E+01  0.7957747E-01            NaN
         13   -1    0    0    0    0  0.00000000000E+00  0.00000000000E+00  0.74505805969E-08  0.10566000000E+00  0.10566000000E+00 0.  1.
     999900   -1    0    0    0    0 -0.00000000000E+00 -0.00000000000E+00 -0.74505805969E-08  0.93827000000E+00  0.93827000000E+00 0.  1.
     999902    2    1    2    0    0 -0.24265021433E-01  0.11993140379E-01  0.10148516613E-02  0.10168439038E+01  0.10164830880E+01 0.  0.
     999903    2    3    3    0    0 -0.12432279454E+00 -0.21449269877E-01 -0.24510771973E-01  0.13017513241E+00  0.20701660229E-01 0.  0.
         14    1    1    2    0    0  0.24265021433E-01 -0.11993140379E-01 -0.10148516613E-02  0.27086096160E-01  0.00000000000E+00 0.  1.
     999901    1    3    3    0    0  0.10005777310E+00  0.33442410255E-01  0.25525623634E-01  0.88666877143E+00  0.88000000000E+00 0.  1.
        -11    1    4    4    0    0 -0.43877195659E-01 -0.15716705542E-01 -0.15005115004E-01  0.48965679095E-01  0.51100000000E-03 0. -1.
         11    1    4    4    0    0 -0.80445598878E-01 -0.57325643350E-02 -0.95056569684E-02  0.81209453318E-01  0.51100000000E-03 0.  1.
</event>
<event>
 8    1  0.1079508E+005  0.1043930E+01  0.7957747E-01            NaN
         13   -1    0    0    0    0  0.00000000000E+00  0.00000000000E+00  0.74505805969E-08  0.10566000000E+00  0.10566000000E+00 0.  1.
     999900   -1    0    0    0    0 -0.00000000000E+00 -0.00000000000E+00 -0.74505805969E-08  0.93827000000E+00  0.93827000000E+00 0. -1.
     999902    2    1    2    0    0  0.19708495568E-01  0.24287466651E-02  0.80746362465E-02  0.10224935041E+01  0.10222687721E+01 0.  0.
     999903    2    3    3    0    0 -0.50672875739E-01 -0.10544916755E-01 -0.11842334904E+00  0.13057221064E+00  0.18603144588E-01 0.  0.
         14    1    1    2    0    0 -0.19708495568E-01 -0.24287466651E-02 -0.80746362465E-02  0.21436495946E-01  0.00000000000E+00 0. -1.
     999901    1    3    3    0    0  0.70381371307E-01  0.12973663420E-01  0.12649798528E+00  0.89192129342E+00  0.88000000000E+00 0.  1.
        -11    1    4    4    0    0 -0.23187193251E-01 -0.11392231565E-01 -0.41577582743E-01  0.48952889380E-01  0.51100000000E-03 0.  1.
         11    1    4    4    0    0 -0.27485682487E-01  0.84731480977E-03 -0.76845766294E-01  0.81619321257E-01  0.51100000000E-03 0. -1.
</event>
<event>
 8    1  0.1079508E+005  0.1043930E+01  0.7957747E-01            NaN
         13   -1    0    0    0    0  0.00000000000E+00  0.00000000000E+00  0.74505805969E-08  0.10566000000E+00  0.10566000000E+00 0. -1.
     999900   -1    0    0    0    0 -0.00000000000E+00 -0.00000000000E+00 -0.74505805969E-08  0.93827000000E+00  0.93827000000E+00 0.  1.
     999902    2    1    2    0    0 -0.86509800142E-02  0.12333835382E-01  0.15139601384E-01  0.10225718521E+01  0.10223487772E+01 0.  0.
     999903    2    3    3    0    0 -0.11628128459E+00  0.54954949782E-01 -0.31317112571E-01  0.13377543667E+00  0.19331897595E-01 0.  0.
         14    1    1    2    0    0  0.86509800142E-02 -0.12333835382E-01 -0.15139601384E-01  0.21358147872E-01  0.00000000000E+00 0.  1.
     999901    1    3    3    0    0  0.10763030458E+00 -0.42621114400E-01  0.46456713956E-01  0.88879641546E+00  0.88000000000E+00 0. -1.
        -11    1    4    4    0    0 -0.48111129737E-01  0.28411620822E-01 -0.21899288511E-01  0.60014506251E-01  0.51100000000E-03 0. -1.
         11    1    4    4    0    0 -0.68170154857E-01  0.26543328961E-01 -0.94178240604E-02  0.73760930421E-01  0.51100000000E-03 0.  1.
</event>
<event>
 8    1  0.1079508E+005  0.1043930E+01  0.7957747E-01            NaN
         13   -1    0    0    0    0  0.00000000000E+00  0.00000000000E+00  0.74505805969E-08  0.10566000000E+00  0.10566000000E+00 0. -1.
     999900   -1    0    0    0    0 -0.00000000000E+00 -0.00000000000E+00 -0.74505805969E-08  0.93827000000E+00  0.93827000000E+00 0.  1.
     999902    2    1    2    0    0 -0.14106772862E-01 -0.15723625483E-01 -0.10551773360E-01  0.10203170087E+01  0.10200437367E+01 0.  0.
     999903    2    3    3    0    0  0.22050309025E-01 -0.12689344003E+00 -0.23631439309E-01  0.13248980706E+00  0.20172823294E-01 0.  0.
         14    1    1    2    0    0  0.14106772862E-01  0.15723625483E-01  0.10551773360E-01  0.23612991339E-01  0.00000000000E+00 0. -1.
     999901    1    3    3    0    0 -0.36157081887E-01  0.11116981455E+00  0.13079665949E-01  0.88782720160E+00  0.88000000000E+00 0.  1.
        -11    1    4    4    0    0  0.11805827091E-01 -0.85302838643E-01 -0.65270016361E-02  0.86364429629E-01  0.51100000000E-03 0.  1.
         11    1    4    4    0    0  0.10244481934E-01 -0.41590601392E-01 -0.17104437673E-01  0.46125377433E-01  0.51100000000E-03 0. -1.
</event>
<event>
 8    1  0.1079508E+005  0.1043930E+01  0.7957747E-01            NaN
         13   -1    0    0    0    0  0.00000000000E+00  0.00000000000E+00  0.74505805969E-08  0.10566000000E+00  0.10566000000E+00 0.  1.
     999900   -1    0    0    0    0 -0.00000000000E+00 -0.00000000000E+00 -0.74505805969E-08  0.93827000000E+00  0.93827000000E+00 0. -1.
     999902    2    1    2    0    0 -0.22585826844E-01  0.60607152708E-02  0.15808054593E-02  0.10204917665E+01  0.10202225712E+01 0.  0.
     999903    2    3    3    0    0 -0.73912402317E-01 -0.71771672301E-01  0.80162865850E-01  0.13208451860E+00  0.20149908959E-01 0.  0.
         14    1    1    2    0    0  0.22585826844E-01 -0.60607152708E-02 -0.15808054593E-02  0.23438233502E-01  0.00000000000E+00 0. -1.
     999901    1    3    3    0    0  0.51326575473E-01  0.77832387571E-01 -0.78582060390E-01  0.88840724790E+00  0.88000000000E+00 0. -1.
        -11    1    4    4    0    0 -0.26163304519E-01 -0.29747894206E-01  0.42757062929E-01  0.58291365264E-01  0.51100000000E-03 0. -1.
         11    1    4    4    0    0 -0.47749097797E-01 -0.42023778095E-01  0.37405802920E-01  0.73793153334E-01  0.51100000000E-03 0.  1.
</event>
<event>
 8    1  0.1079508E+005  0.1043930E+01  0.7957747E-01            NaN
         13   -1    0    0    0    0  0.00000000000E+00  0.00000000000E+00  0.74505805969E-08  0.10566000000E+00  0.10566000000E+00 0. -1.
     999900   -1    0    0    0    0 -0.00000000000E+00 -0.00000000000E+00 -0.74505805969E-08  0.93827000000E+00  0.93827000000E+00 0. -1.
     999902    2    1    2    0    0  0.17449141627E-01  0.96994180833E-03  0.16926075204E-01  0.10196008950E+01  0.10193105904E+01 0.  0.
     999903    2    3    3    0    0 -0.11655889838E+00  0.39886587623E-01 -0.26994053577E-01  0.12752374704E+00  0.18886780274E-01 0.  0.
         14    1    1    2    0    0 -0.17449141627E-01 -0.96994180833E-03 -0.16926075204E-01  0.24329105048E-01  0.00000000000E+00 0.  1.
     999901    1    3    3    0    0  0.13400804000E+00 -0.38916645815E-01  0.43920128781E-01  0.89207714791E+00  0.88000000000E+00 0. -1.
        -11    1    4    4    0    0 -0.90352139285E-02  0.15906494959E-02 -0.72129039033E-02  0.11681282475E-01  0.51100000000E-03 0.  1.
         11    1    4    4    0    0 -0.10752368445E+00  0.38295938127E-01 -0.19781149674E-01  0.11584246457E+00  0.51100000000E-03 0. -1.
</event>
<event>
 8    1  0.1079508E+005  0.1043930E+01  0.7957747E-01            NaN
         13   -1    0    0    0    0  0.00000000000E+00  0.00000000000E+00  0.74505805969E-08  0.10566000000E+00  0.10566000000E+00 0. -1.
     999900   -1    0    0    0    0 -0.00000000000E+00 -0.00000000000E+00 -0.74505805969E-08  0.93827000000E+00  0.93827000000E+00 0. -1.
     999902    2    1    2    0    0 -0.98629435386E-02 -0.12286932985E-01 -0.19384604535E-01  0.10189498225E+01  0.10186435743E+01 0.  0.
     999903    2    3    3    0    0  0.22505237476E-01 -0.35761681151E-01 -0.12324300200E+00  0.13194061750E+00  0.20835197418E-01 0.  0.
         14    1    1    2    0    0  0.98629435386E-02  0.12286932985E-01  0.19384604535E-01  0.24980177550E-01  0.00000000000E+00 0. -1.
     999901    1    3    3    0    0 -0.32368181014E-01  0.23474748166E-01  0.10385839747E+00  0.88700920495E+00  0.88000000000E+00 0.  1.
        -11    1    4    4    0    0 -0.18139006141E-02 -0.21299441382E-02 -0.26731046058E-01  0.26881905472E-01  0.51100000000E-03 0.  1.
         11    1    4    4    0    0  0.24319138090E-01 -0.33631737013E-01 -0.96511955943E-01  0.10505871203E+00  0.51100000000E-03 0. -1.
</event>
<event>
 8    1  0.1079508E+005  0.1043930E+01  0.7957747E-01            NaN
         13   -1    0    0    0    0  0.00000000000E+00  0.00000000000E+00  0.74505805969E-08  0.10566000000E+00  0.10566000000E+00 0. -1.
     999900   -1    0    0    0    0 -0.00000000000E+00 -0.00000000000E+00 -0.74505805969E-08  0.93827000000E+00  0.93827000000E+00 0.  1.
     999902    2    1    2    0    0  0.11575888265E-01  0.19622635257E-01  0.19398649902E-02  0.10210649157E+01  0.10208088705E+01 0.  0.
     999903    2    3    3    0    0  0.35760683576E-01  0.19080721628E-01 -0.12366299057E+00  0.13181732627E+00  0.20985038515E-01 0.  0.
         14    1    1    2    0    0 -0.11575888265E-01 -0.19622635257E-01 -0.19398649902E-02  0.22865084293E-01  0.00000000000E+00 0. -1.
     999901    1    3    3    0    0 -0.24184795311E-01  0.54191362874E-03  0.12560285556E+00  0.88924758944E+00  0.88000000000E+00 0. -1.
        -11    1    4    4    0    0  0.18879236281E-01  0.20815630683E-01 -0.66755696807E-01  0.72431348327E-01  0.51100000000E-03 0.  1.
         11    1    4    4    0    0  0.16881447294E-01 -0.17349090555E-02 -0.56907293760E-01  0.59385977943E-01  0.51100000000E-03 0. -1.
</event>
<event>
 8    1  0.1079508E+005  0.1043930E+01  0.7957747E-01            NaN
         13   -1    0    0    0    0  0.00000000000E+00  0.00000000000E+00  0.74505805969E-08  0.10566000000E+00  0.10566000000E+00 0.  1.
     999900   -1    0    0    0    0 -0.00000000000E+00 -0.00000000000E+00 -0.74505805969E-08  0.93827000000E+00  0.93827000000E+00 0.  1.
     999902    2    1    2    0    0 -0.48903246438E-02 -0.21803343038E-01 -0.23628901448E-02  0.10214603695E+01  0.10212132012E+01 0.  0.
     999903    2    3    3    0    0 -0.10866476059E+00 -0.56230777886E-01  0.48742731057E-01  0.13322269508E+00  0.20062454439E-01 0.  0.
         14    1    1    2    0    0  0.48903246438E-02  0.21803343038E-01  0.23628901448E-02  0.22469630451E-01  0.00000000000E+00 0.  1.
     999901    1    3    3    0    0  0.10377443595E+00  0.34427434847E-01 -0.51105621202E-01  0.88823767447E+00  0.88000000000E+00 0.  1.
        -11    1    4    4    0    0 -0.38685150780E-01 -0.20818192780E-01  0.73689330467E-02  0.44547730995E-01  0.51100000000E-03 0.  1.
         11    1    4    4    0    0 -0.69979609809E-01 -0.35412585105E-01  0.41373798010E-01  0.88674964086E-01  0.51100000000E-03 0. -1.
</event>
<event>
 8    1  0.1079508E+005  0.1043930E+01  0.7957747E-01            NaN
         13   -1    0    0    0    0  0.00000000000E+00  0.00000000000E+00  0.74505805969E-08  0.10566000000E+00  0.10566000000E+00 0. -1.
     999900   -1    0    0    0    0 -0.00000000000E+00 -0.00000000000E+00 -0.74505805969E-08  0.93827000000E+00  0.93827000000E+00 0. -1.
     999902    2    1    2    0    0  0.73755408555E-03  0.23741910070E-01  0.27948475166E-02  0.10200127792E+01  0.10197323356E+01 0.  0.
     999903    2    3    3    0    0 -0.73526558011E-01  0.95207945700E-02 -0.10509334752E+00  0.13020534994E+00  0.20298305308E-01 0.  0.
         14    1    1    2    0    0 -0.73755408555E-03 -0.23741910070E-01 -0.27948475166E-02  0.23917220835E-01  0.00000000000E+00 0. -1.
     999901    1    3    3    0    0  0.74264112097E-01  0.14221115500E-01  0.10788819504E+00  0.88980742922E+00  0.88000000000E+00 0.  1.
        -11    1    4    4    0    0 -0.26233010233E-01 -0.43012909671E-02 -0.47271950782E-01  0.54236246013E-01  0.51100000000E-03 0.  1.
         11    1    4    4    0    0 -0.47293547778E-01  0.13822085537E-01 -0.57821396739E-01  0.75969103930E-01  0.51100000000E-03 0. -1.
</event>
<event>
 8    1  0.1079508E+005  0.1043930E+01  0.7957747E-01            NaN
         13   -1    0    0    0    0  0.00000000000E+00  0.00000000000E+00  0.74505805969E-08  0.10566000000E+00  0.10566000000E+00 0. -1.
     999900   -1    0    0    0    0 -0.00000000000E+00 -0.00000000000E+00 -0.74505805969E-08  0.93827000000E+00  0.93827000000E+00 0.  1.
     999902    2    1    2    0    0  0.12943649739E-01 -0.75037495121E-02 -0.18443273260E-01  0.10201813442E+01  0.10199048859E+01 0.  0.
     999903    2    3    3    0    0 -0.67563458447E-01 -0.34045071504E-01 -0.10591437062E+00  0.13179121077E+00  0.20668370109E-01 0.  0.
         14    1    1    2    0    0 -0.12943649739E-01  0.75037495121E-02  0.18443273260E-01  0.23748655832E-01  0.00000000000E+00 0. -1.
     999901    1    3    3    0    0  0.80507108186E-01  0.26541321992E-01  0.87471097355E-01  0.88839013340E+00  0.88000000000E+00 0. -1.
        -11    1    4    4    0    0 -0.31223585465E-01 -0.12228820810E-01 -0.30760768924E-01  0.45507607863E-01  0.51100000000E-03 0. -1.
         11    1    4    4    0    0 -0.36339872982E-01 -0.21816250694E-01 -0.75153601692E-01  0.86283602909E-01  0.51100000000E-03 0.  1.
</event>
<event>
 8    1  0.1079508E+005  0.1043930E+01  0.7957747E-01            NaN
         13   -1    0    0    0    0  0.00000000000E+00  0.00000000000E+00  0.74505805969E-08  0.10566000000E+00  0.10566000000E+00 0.  1.
     999900   -1    0    0    0    0 -0.00000000000E+00 -0.00000000000E+00 -0.74505805969E-08  0.93827000000E+00  0.93827000000E+00 0.  1.
     999902    2    1    2    0    0  0.17368107769E-01  0.39318245210E-02  0.15049941983E-01  0.10206145295E+01  0.10203481791E+01 0.  0.
     999903    2    3    3    0    0 -0.77651132437E-01  0.10219747381E+00 -0.34128084467E-03  0.12992845483E+00  0.20180804766E-01 0.  0.
         14    1    1    2    0    0 -0.17368107769E-01 -0.39318245210E-02 -0.15049941983E-01  0.23315470513E-01  0.00000000000E+00 0. -1.
     999901    1    3    3    0    0  0.95019240206E-01 -0.98265649290E-01  0.15391222828E-01  0.89068607465E+00  0.88000000000E+00 0. -1.
        -11    1    4    4    0    0 -0.29134798044E-01  0.53919277552E-01  0.33680309842E-02  0.61381835281E-01  0.51100000000E-03 0.  1.
         11    1    4    4    0    0 -0.48516334393E-01  0.48278196259E-01 -0.37093118288E-02  0.68546619553E-01  0.51100000000E-03 0. -1.
</event>
<event>
 8    1  0.1079508E+005  0.1043930E+01  0.7957747E-01            NaN
         13   -1    0    0    0    0  0.00000000000E+00  0.00000000000E+00  0.74505805969E-08  0.10566000000E+00  0.10566000000E+00 0. -1.
     999900   -1    0    0    0    0 -0.00000000000E+00 -0.00000000000E+00 -0.74505805969E-08  0.93827000000E+00  0.93827000000E+00 0.  1.
     999902    2    1    2    0    0  0.21556189060E-01 -0.93102116848E-02 -0.27557220270E-02  0.10202880176E+01  0.10200140663E+01 0.  0.
     999903    2    3    3    0    0 -0.92357291386E-01  0.36965970597E-01 -0.78794918278E-01  0.12849223074E+00  0.20131119199E-01 0.  0.
         14    1    1    2    0    0 -0.21556189060E-01  0.93102116848E-02  0.27557220270E-02  0.23641982410E-01  0.00000000000E+00 0.  1.
     999901    1    3    3    0    0  0.11391348045E+00 -0.46276182282E-01  0.76039196251E-01  0.89179578685E+00  0.88000000000E+00 0. -1.
        -11    1    4    4    0    0 -0.57252657620E-01  0.12271282094E-01 -0.46665924990E-01  0.74876036520E-01  0.51100000000E-03 0. -1.
         11    1    4    4    0    0 -0.35104633766E-01  0.24694688503E-01 -0.32128993288E-01  0.53616194221E-01  0.51100000000E-03 0.  1.
</event>
<event>
 7    1  0.1079508E+005  0.1043930E+01  0.7957747E-01            NaN
         13   -1    0    0    0    0  0.00000000000E+00  0.00000000000E+00  0.74505805969E-08  0.10566000000E+00  0.10566000000E+00 0. -1.
     999900   -1    0    0    0    0 -0.00000000000E+00 -0.00000000000E+00 -0.74505805969E-08  0.93827000000E+00  0.93827000000E+00 0. -1.
     999903    2    1    2    0    0  0.44239030568E-01 -0.52218930248E-01 -0.73246771462E-01  0.10209523997E+00  0.19350452027E-01 0.  0.
         14    1    1    2    0    0 -0.21569401188E-01 -0.25712952126E-01 -0.38486276131E-01  0.51064551550E-01  0.00000000000E+00 0.  1.
     999901    1    1    2    0    0 -0.22669629380E-01  0.77931882374E-01  0.11173304759E+00  0.89077020848E+00  0.88000000000E+00 0.  1.
        -11    1    3    3    0    0  0.34833451563E-01 -0.47783633597E-01 -0.53371700262E-01  0.79658298359E-01  0.51100000000E-03 0.  1.
         11    1    3    3    0    0  0.94055790048E-02 -0.44352966512E-02 -0.19875071199E-01  0.22436941614E-01  0.51100000000E-03 0. -1.
</event>
<event>
 8    1  0.1079508E+005  0.1043930E+01  0.7957747E-01            NaN
         13   -1    0    0    0    0  0.00000000000E+00  0.00000000000E+00  0.74505805969E-08  0.10566000000E+00  0.10566000000E+00 0. -1.
     999900   -1    0    0    0    0 -0.00000000000E+00 -0.00000000000E+00 -0.74505805969E-08  0.93827000000E+00  0.93827000000E+00 0.  1.
     999902    2    1    2    0    0 -0.20507407020E-01  0.74749134175E-03  0.12524904466E-01  0.10198886665E+01  0.10196052698E+01 0.  0.
     999903    2    3    3    0    0 -0.28347713788E-01 -0.11666021039E+00  0.49485698746E-01  0.13128744030E+00  0.19348385885E-01 0.  0.
         14    1    1    2    0    0  0.20507407020E-01 -0.74749134175E-03 -0.12524904466E-01  0.24041333529E-01  0.00000000000E+00 0.  1.
     999901    1    3    3    0    0  0.78403067678E-02  0.11740770173E+00 -0.36960794280E-01  0.88860122617E+00  0.88000000000E+00 0.  1.
        -11    1    4    4    0    0 -0.25180904484E-01 -0.63035040612E-01  0.28052314011E-01  0.73448538024E-01  0.51100000000E-03 0.  1.
         11    1    4    4    0    0 -0.31668093043E-02 -0.53625169774E-01  0.21433384735E-01  0.57838902277E-01  0.51100000000E-03 0. -1.
</event>
<event>
 8    1  0.1079508E+005  0.1043930E+01  0.7957747E-01            NaN
         13   -1    0    0    0    0  0.00000000000E+00  0.00000000000E+00  0.74505805969E-08  0.10566000000E+00  0.10566000000E+00 0. -1.
     999900   -1    0    0    0    0 -0.00000000000E+00 -0.00000000000E+00 -0.74505805969E-08  0.93827000000E+00  0.93827000000E+00 0.  1.
     999902    2    1    2    0    0 -0.16480384652E-01  0.12039781984E-01 -0.74264181392E-02  0.10222110885E+01  0.10219803317E+01 0.  0.
     999903    2    3    3    0    0 -0.78525427590E-01 -0.34709474442E-01 -0.10058252526E+00  0.13389068428E+00  0.20949476266E-01 0.  0.
         14    1    1    2    0    0  0.16480384652E-01 -0.12039781984E-01  0.74264181392E-02  0.21718911457E-01  0.00000000000E+00 0.  1.
     999901    1    3    3    0    0  0.62045042938E-01  0.46749256425E-01  0.93156107122E-01  0.88832040426E+00  0.88000000000E+00 0. -1.
        -11    1    4    4    0    0 -0.53922768884E-01 -0.33124623259E-01 -0.78086454412E-01  0.10051199507E+00  0.51100000000E-03 0.  1.
         11    1    4    4    0    0 -0.24602658707E-01 -0.15848511822E-02 -0.22496070849E-01  0.33378689210E-01  0.51100000000E-03 0. -1.
</event>
<event>
 8    1  0.1079508E+005  0.1043930E+01  0.7957747E-01            NaN
         13   -1    0    0    0    0  0.00000000000E+00  0.00000000000E+00  0.74505805969E-08  0.10566000000E+00  0.10566000000E+00 0.  1.
     999900   -1    0    0    0    0 -0.00000000000E+00 -0.00000000000E+00 -0.74505805969E-08  0.93827000000E+00  0.93827000000E+00 0. -1.
     999902    2    1    2    0    0  0.22260234576E-02  0.24083022984E-01 -0.28158435497E-02  0.10195809517E+01  0.10192901653E+01 0.  0.
     999903    2    3    3    0    0  0.12682423586E+00 -0.12180531042E-01 -0.16239028906E-01  0.12996308895E+00  0.19848080301E-01 0.  0.
         14    1    1    2    0    0 -0.22260234576E-02 -0.24083022984E-01  0.28158435497E-02  0.24349048264E-01  0.00000000000E+00 0.  1.
     999901    1    3    3    0    0 -0.12459821240E+00  0.36263554026E-01  0.13423185356E-01  0.88961786279E+00  0.88000000000E+00 0.  1.
        -11    1    4    4    0    0  0.30025651179E-01 -0.42467347161E-02 -0.12391021083E-01  0.32762371846E-01  0.51100000000E-03 0.  1.
         11    1    4    4    0    0  0.96798584680E-01 -0.79337963261E-02 -0.38480078234E-02  0.97200717104E-01  0.51100000000E-03 0. -1.
</event>
<event>
 8    1  0.1079508E+005  0.1043930E+01  0.7957747E-01            NaN
         13   -1    0    0    0    0  0.00000000000E+00  0.00000000000E+00  0.74505805969E-08  0.10566000000E+00  0.10566000000E+00 0. -1.
     999900   -1    0    0    0    0 -0.00000000000E+00 -0.00000000000E+00 -0.74505805969E-08  0.93827000000E+00  0.93827000000E+00 0.  1.
     999902    2    1    2    0    0 -0.12365397315E-01  0.18639018178E-01 -0.88906311836E-02  0.10198601148E+01  0.10195760366E+01 0.  0.
     999903    2    3    3    0    0 -0.11023363698E-01  0.10826007448E+00 -0.73363154604E-01  0.13296077383E+00  0.21322679232E-01 0.  0.
         14    1    1    2    0    0  0.12365397315E-01 -0.18639018178E-01  0.88906311836E-02  0.24069885173E-01  0.00000000000E+00 0.  1.
     999901    1    3    3    0    0 -0.13420336169E-02 -0.89621056304E-01  0.64472523420E-01  0.88689934100E+00  0.88000000000E+00 0. -1.
        -11    1    4    4    0    0  0.10816741978E-02  0.38395474963E-01 -0.36735276582E-01  0.53151897269E-01  0.51100000000E-03 0. -1.
         11    1    4    4    0    0 -0.12105037895E-01  0.69864599519E-01 -0.36627878022E-01  0.79808876560E-01  0.51100000000E-03 0.  1.
</event>
<event>
 8    1  0.1079508E+005  0.1043930E+01  0.7957747E-01            NaN
         13   -1    0    0    0    0  0.00000000000E+00  0.00000000000E+00  0.74505805969E-08  0.10566000000E+00  0.10566000000E+00 0. -1.
     999900   -1    0    0    0    0 -0.00000000000E+00 -0.00000000000E+00 -0.74505805969E-08  0.93827000000E+00  0.93827000000E+00 0. -1.
     999902    2    1    2    0    0 -0.21081914106E-01  0.69129522249E-02  0.13522930026E-01  0.10179472048E+01  0.10176155493E+01 0.  0.
     999903    2    3    3    0    0  0.24137564097E-01  0.76859749779E-01  0.99809651041E-01  0.12981278144E+00  0.19983709579E-01 0.  0.
         14    1    1    2    0    0  0.21081914106E-01 -0.69129522249E-02 -0.13522930026E-01  0.25982795218E-01  0.00000000000E+00 0.  1.
     999901    1    3    3    0    0 -0.45219478203E-01 -0.69946797554E-01 -0.86286721015E-01  0.88813442334E+00  0.88000000000E+00 0. -1.
        -11    1    4    4    0    0  0.69454822468E-02  0.37770303478E-02  0.94039247996E-02  0.12296365501E-01  0.51100000000E-03 0.  1.
         11    1    4    4    0    0  0.17192081850E-01  0.73082719431E-01  0.90405726241E-01  0.11751641594E+00  0.51100000000E-03 0. -1.
</event>
<event>
 8    1  0.1079508E+005  0.1043930E+01  0.7957747E-01            NaN
         13   -1    0    0    0    0  0.00000000000E+00  0.00000000000E+00  0.74505805969E-08  0.10566000000E+00  0.10566000000E+00 0.  1.
     999900   -1    0    0    0    0 -0.00000000000E+00 -0.00000000000E+00 -0.74505805969E-08  0.93827000000E+00  0.93827000000E+00 0. -1.
     999902    2    1    2    0    0  0.18162205130E-01  0.75012878867E-02 -0.13145700511E-01  0.10202879938E+01  0.10200140420E+01 0.  0.
     999903    2    3    3    0    0 -0.11557005822E-01  0.11466400718E+00 -0.61077686070E-01  0.13199493679E+00  0.20267724989E-01 0.  0.
         14    1    1    2    0    0 -0.18162205130E-01 -0.75012878867E-02  0.13145700511E-01  0.23642006198E-01  0.00000000000E+00 0.  1.
     999901    1    3    3    0    0  0.29719210952E-01 -0.10716271929E+00  0.47931985559E-01  0.88829305702E+00  0.88000000000E+00 0. -1.
        -11    1    4    4    0    0  0.57706252971E-02  0.27754439683E-01 -0.13346491369E-01  0.31336863137E-01  0.51100000000E-03 0.  1.
         11    1    4    4    0    0 -0.17327631119E-01  0.86909567493E-01 -0.47731194701E-01  0.10065807365E+00  0.51100000000E-03 0. -1.
</event>
<event>
 8    1  0.1079508E+005  0.1043930E+01  0.7957747E-01            NaN
         13   -1    0    0    0    0  0.00000000000E+00  0.00000000000E+00  0.74505805969E-08  0.10566000000E+00  0.10566000000E+00 0.  1.
     999900   -1    0    0    0    0 -0.00000000000E+00 -0.00000000000E+00 -0.74505805969E-08  0.93827000000E+00  0.93827000000E+00 0. -1.
     999902    2    1    2    0    0  0.17776486901E-01 -0.50130552159E-02  0.15133473581E-01  0.10200520555E+01  0.10197725432E+01 0.  0.
     999903    2    3    3    0    0  0.90662449233E-01  0.79367004552E-01  0.50956698739E-01  0.13229326991E+00  0.19650012860E-01 0.  0.
         14    1    1    2    0    0 -0.17776486901E-01  0.50130552159E-02 -0.15133473581E-01  0.23877944463E-01  0.00000000000E+00 0. -1.
     999901    1    3    3    0    0 -0.72885962332E-01 -0.84380059768E-01 -0.35823225158E-01  0.88775878562E+00  0.88000000000E+00 0. -1.
        -11    1    4    4    0    0  0.76186393567E-01  0.55857511081E-01  0.39156119842E-01  0.10226383012E+00  0.51100000000E-03 0.  1.
         11    1    4    4    0    0  0.14476055666E-01  0.23509493472E-01  0.11800578897E-01  0.30029439792E-01  0.51100000000E-03 0. -1.
</event>
<event>
 8    1  0.1079508E+005  0.1043930E+01  0.7957747E-01            NaN
         13   -1    0    0    0    0  0.00000000000E+00  0.00000000000E+00  0.74505805969E-08  0.10566000000E+00  0.10566000000E+00 0. -1.
     999900   -1    0    0    0    0 -0.00000000000E+00 -0.00000000000E+00 -0.74505805969E-08  0.93827000000E+00  0.93827000000E+00 0. -1.
     999902    2    1    2    0    0  0.49553864878E-02  0.21259806088E-01  0.97165475090E-02  0.10200355131E+01  0.10197556087E+01 0.  0.
     999903    2    3    3    0    0 -0.86200355096E-01 -0.77067075561E-01 -0.50770962473E-01  0.12782685825E+00  0.19803527577E-01 0.  0.
         14    1    1    2    0    0 -0.49553864878E-02 -0.21259806088E-01 -0.97165475090E-02  0.23894486930E-01  0.00000000000E+00 0.  1.
     999901    1    3    3    0    0  0.91155741583E-01  0.98326881649E-01  0.60487509982E-01  0.89220865482E+00  0.88000000000E+00 0. -1.
        -11    1    4    4    0    0 -0.51317458114E-01 -0.52542617306E-01 -0.40854040674E-01  0.84044761294E-01  0.51100000000E-03 0.  1.
         11    1    4    4    0    0 -0.34882896982E-01 -0.24524458255E-01 -0.99169217998E-02  0.43782096952E-01  0.51100000000E-03 0. -1.
</event>
<event>
 8    1  0.1079508E+005  0.1043930E+01  0.7957747E-01            NaN
         13   -1    0    0    0    0  0.00000000000E+00  0.00000000000E+00  0.74505805969E-08  0.10566000000E+00  0.10566000000E+00 0. -1.
     999900   -1    0    0    0    0 -0.00000000000E+00 -0.00000000000E+00 -0.74505805969E-08  0.93827000000E+00  0.93827000000E+00 0.  1.
     999902    2    1    2    0    0  0.29203706041E-02  0.23815808596E-01 -0.21660346280E-02  0.10198382377E+01  0.10195536367E+01 0.  0.
     999903    2    3    3    0    0  0.12429446478E-01 -0.11359013368E+00 -0.53360960693E-01  0.12765454814E+00  0.19775791410E-01 0.  0.
         14    1    1    2    0    0 -0.29203706041E-02 -0.23815808596E-01  0.21660346280E-02  0.24091762276E-01  0.00000000000E+00 0. -1.
     999901    1    3    3    0    0 -0.95090758742E-02  0.13740594228E+00  0.51194926065E-01  0.89218368958E+00  0.88000000000E+00 0.  1.
        -11    1    4    4    0    0  0.43893156804E-02 -0.88526491589E-01 -0.33825963740E-01  0.94871822736E-01  0.51100000000E-03 0. -1.
         11    1    4    4    0    0  0.80401307979E-02 -0.25063642094E-01 -0.19534996953E-01  0.32782725409E-01  0.51100000000E-03 0.  1.
</event>
<event>
 8    1  0.1079508E+005  0.1043930E+01  0.7957747E-01            NaN
         13   -1    0    0    0    0  0.00000000000E+00  0.00000000000E+00  0.74505805969E-08  0.10566000000E+00  0.10566000000E+00 0. -1.
     999900   -1    0    0    0    0 -0.00000000000E+00 -0.00000000000E+00 -0.74505805969E-08  0.93827000000E+00  0.93827000000E+00 0.  1.
     999902    2    1    2    0    0  0.10666714421E-01 -0.20545325467E-01  0.40784382422E-02  0.10204241953E+01  0.10201534275E+01 0.  0.
     999903    2    3    3    0    0  0.29783697967E-01  0.11791795939E+00 -0.36052130493E-01  0.12848921851E+00  0.20445276903E-01 0.  0.
         14    1    1    2    0    0 -0.10666714421E-01  0.20545325467E-01 -0.40784382422E-02  0.23505804679E-01  0.00000000000E+00 0.  1.
     999901    1    3    3    0    0 -0.19116983546E-01 -0.13846328486E+00  0.40130568735E-01  0.89193497681E+00  0.88000000000E+00 0. -1.
        -11    1    4    4    0    0  0.21236914717E-01  0.62305407845E-01 -0.10376168752E-01  0.66640050963E-01  0.51100000000E-03 0. -1.
         11    1    4    4    0    0  0.85467832506E-02  0.55612551549E-01 -0.25675961741E-01  0.61849167546E-01  0.51100000000E-03 0.  1.
</event>
<event>
 8    1  0.1079508E+005  0.1043930E+01  0.7957747E-01            NaN
         13   -1    0    0    0    0  0.00000000000E+00  0.00000000000E+00  0.74505805969E-08  0.10566000000E+00  0.10566000000E+00 0.  1.
     999900   -1    0    0    0    0 -0.00000000000E+00 -0.00000000000E+00 -0.74505805969E-08  0.93827000000E+00  0.93827000000E+00 0. -1.
     999902    2    1    2    0    0 -0.20411648530E-01  0.68899661138E-02 -0.11054987430E-01  0.10197159591E+01  0.10194284269E+01 0.  0.
     999903    2    3    3    0    0  0.96127761091E-01  0.50056367832E-01  0.64589186673E-01  0.12777043763E+00  0.20182548981E-01 0.  0.
         14    1    1    2    0    0  0.20411648530E-01 -0.68899661138E-02  0.11054987430E-01  0.24214040882E-01  0.00000000000E+00 0.  1.
     999901    1    3    3    0    0 -0.11653940962E+00 -0.43166401718E-01 -0.75644174104E-01  0.89194552149E+00  0.88000000000E+00 0. -1.
        -11    1    4    4    0    0  0.64093368875E-01  0.27140171966E-01  0.31827632275E-01  0.76536319256E-01  0.51100000000E-03 0.  1.
         11    1    4    4    0    0  0.32034392216E-01  0.22916195866E-01  0.32761554398E-01  0.51234118370E-01  0.51100000000E-03 0. -1.
</event>
<event>
 8    1  0.1079508E+005  0.1043930E+01  0.7957747E-01            NaN
         13   -1    0    0    0    0  0.00000000000E+00  0.00000000000E+00  0.74505805969E-08  0.10566000000E+00  0.10566000000E+00 0. -1.
     999900   -1    0    0    0    0 -0.00000000000E+00 -0.00000000000E+00 -0.74505805969E-08  0.93827000000E+00  0.93827000000E+00 0.  1.
     999902    2    1    2    0    0 -0.19227593153E-02 -0.77093946891E-02  0.22647708517E-01  0.10199289485E+01  0.10196465121E+01 0.  0.
     999903    2    3    3    0    0  0.24043192300E-01  0.11950207221E+00 -0.35733986102E-01  0.12848887192E+00  0.19330082381E-01 0.  0.
         14    1    1    2    0    0  0.19227593153E-02  0.77093946891E-02 -0.22647708517E-01  0.24001051455E-01  0.00000000000E+00 0.  1.
     999901    1    3    3    0    0 -0.25965951615E-01 -0.12721146690E+00  0.58381694620E-01  0.89144007663E+00  0.88000000000E+00 0. -1.
        -11    1    4    4    0    0  0.21032732311E-01  0.56997302201E-01 -0.15229720819E-01  0.62636042371E-01  0.51100000000E-03 0. -1.
         11    1    4    4    0    0  0.30104599895E-02  0.62504770010E-01 -0.20504265283E-01  0.65852829545E-01  0.51100000000E-03 0.  1.
</event>
<event>
 8    1  0.1079508E+005  0.1043930E+01  0.7957747E-01            NaN
         13   -1    0    0    0    0  0.00000000000E+00  0.00000000000E+00  0.74505805969E-08  0.10566000000E+00  0.10566000000E+00 0. -1.
     999900   -1    0    0    0    0 -0.00000000000E+00 -0.00000000000E+00 -0.74505805969E-08  0.93827000000E+00  0.93827000000E+00 0. -1.
     999902    2    1    2    0    0 -0.14992051188E-01 -0.11431906003E-01 -0.11523849150E-01  0.10218336389E+01  0.10215947026E+01 0.  0.
     999903    2    3    3    0    0 -0.13219691641E+00  0.41880208354E-02  0.28788279399E-02  0.13380863947E+00  0.20072372004E-01 0.  0.
         14    1    1    2    0    0  0.14992051188E-01  0.11431906003E-01  0.11523849150E-01  0.22096361079E-01  0.00000000000E+00 0. -1.
     999901    1    3    3    0    0  0.11720486523E+00 -0.15619926839E-01 -0.14402677089E-01  0.88802499945E+00  0.88000000000E+00 0.  1.
        -11    1    4    4    0    0 -0.51817760740E-01 -0.81016170987E-02  0.20414583670E-02  0.52489477050E-01  0.51100000000E-03 0.  1.
         11    1    4    4    0    0 -0.80379155675E-01  0.12289637934E-01  0.83736957285E-03  0.81319162418E-01  0.51100000000E-03 0. -1.
</event>
<event>
 8    1  0.1079508E+005  0.1043930E+01  0.7957747E-01            NaN
         13   -1    0    0    0    0  0.00000000000E+00  0.00000000000E+00  0.74505805969E-08  0.10566000000E+00  0.10566000000E+00 0. -1.
     999900   -1    0    0    0    0 -0.00000000000E+00 -0.00000000000E+00 -0.74505805969E-08  0.93827000000E+00  0.93827000000E+00 0. -1.
     999902    2    1    2    0    0  0.11179132958E-01  0.16635040052E-02  0.10584757425E-01  0.10284452543E+01  0.10283286750E+01 0.  0.
     999903    2    3    3    0    0  0.37159138956E-01  0.17420995551E-01 -0.12919700256E+00  0.13689480724E+00  0.19079572417E-01 0.  0.
         14    1    1    2    0    0 -0.11179132958E-01 -0.16635040052E-02 -0.10584757425E-01  0.15484745687E-01  0.00000000000E+00 0. -1.
     999901    1    3    3    0    0 -0.25980005998E-01 -0.15757491546E-01  0.13978175999E+00  0.89155044707E+00  0.88000000000E+00 0.  1.
        -11    1    4    4    0    0  0.13977996514E-01  0.61780439755E-02 -0.79039880469E-01  0.80505381432E-01  0.51100000000E-03 0. -1.
         11    1    4    4    0    0  0.23181142442E-01  0.11242951575E-01 -0.50157122095E-01  0.56389425807E-01  0.51100000000E-03 0.  1.
</event>
<event>
 8    1  0.1079508E+005  0.1043930E+01  0.7957747E-01            NaN
         13   -1    0    0    0    0  0.00000000000E+00  0.00000000000E+00  0.74505805969E-08  0.10566000000E+00  0.10566000000E+00 0.  1.
     999900   -1    0    0    0    0 -0.00000000000E+00 -0.00000000000E+00 -0.74505805969E-08  0.93827000000E+00  0.93827000000E+00 0.  1.
     999902    2    1    2    0    0 -0.12984181009E-01  0.10414846619E-01  0.17096438763E-01  0.10200690234E+01  0.10197899128E+01 0.  0.
     999903    2    3    3    0    0 -0.57991004369E-01 -0.98164823563E-01  0.61546655434E-01  0.13114215312E+00  0.20272749097E-01 0.  0.
         14    1    1    2    0    0  0.12984181009E-01 -0.10414846619E-01 -0.17096438763E-01  0.23860976614E-01  0.00000000000E+00 0. -1.
     999901    1    3    3    0    0  0.45006823360E-01  0.10857967018E+00 -0.44450216671E-01  0.88892687027E+00  0.88000000000E+00 0. -1.
        -11    1    4    4    0    0 -0.29837591414E-01 -0.69231489182E-01  0.38431785348E-01  0.84619998829E-01  0.51100000000E-03 0.  1.
         11    1    4    4    0    0 -0.28153412956E-01 -0.28933334381E-01  0.23114870086E-01  0.46522154288E-01  0.51100000000E-03 0. -1.
</event>
<event>
 8    1  0.1079508E+005  0.1043930E+01  0.7957747E-01            NaN
         13   -1    0    0    0    0  0.00000000000E+00  0.00000000000E+00  0.74505805969E-08  0.10566000000E+00  0.10566000000E+00 0.  1.
     999900   -1    0    0    0    0 -0.00000000000E+00 -0.00000000000E+00 -0.74505805969E-08  0.93827000000E+00  0.93827000000E+00 0.  1.
     999902    2    1    2    0    0  0.28906916479E-02  0.22503352919E-02  0.23158566811E-01  0.10204834795E+01  0.10202140915E+01 0.  0.
     999903    2    3    3    0    0 -0.75483088623E-01 -0.73543791341E-01 -0.71280526674E-01  0.12874027574E+00  0.19666194376E-01 0.  0.
         14    1    1    2    0    0 -0.28906916479E-02 -0.22503352919E-02 -0.23158566811E-01  0.23446520506E-01  0.00000000000E+00 0. -1.
     999901    1    3    3    0    0  0.78373780271E-01  0.75794126633E-01  0.94439093485E-01  0.89174320376E+00  0.88000000000E+00 0. -1.
        -11    1    4    4    0    0 -0.27539773345E-01 -0.34860868046E-01 -0.20625300243E-01  0.48983500977E-01  0.51100000000E-03 0.  1.
         11    1    4    4    0    0 -0.47943315278E-01 -0.38682923295E-01 -0.50655226431E-01  0.79756774761E-01  0.51100000000E-03 0. -1.
</event>
<event>
 8    1  0.1079508E+005  0.1043930E+01  0.7957747E-01            NaN
         13   -1    0    0    0    0  0.00000000000E+00  0.00000000000E+00  0.74505805969E-08  0.10566000000E+00  0.10566000000E+00 0.  1.
     999900   -1    0    0    0    0 -0.00000000000E+00 -0.00000000000E+00 -0.74505805969E-08  0.93827000000E+00  0.93827000000E+00 0. -1.
     999902    2    1    2    0    0 -0.22104743064E-01 -0.74173044510E-02  0.31607284214E-02  0.10204007358E+01  0.10201294208E+01 0.  0.
     999903    2    3    3    0    0 -0.59695095520E-01  0.95717066673E-01 -0.63459504959E-01  0.13108190171E+00  0.20738729597E-01 0.  0.
         14    1    1    2    0    0  0.22104743064E-01  0.74173044510E-02 -0.31607284214E-02  0.23529264234E-01  0.00000000000E+00 0. -1.
     999901    1    3    3    0    0  0.37590352456E-01 -0.10313437112E+00  0.66620233381E-01  0.88931883405E+00  0.88000000000E+00 0. -1.
        -11    1    4    4    0    0 -0.45486401972E-01  0.64215171457E-01 -0.34228605517E-01  0.85816429466E-01  0.51100000000E-03 0.  1.
         11    1    4    4    0    0 -0.14208693549E-01  0.31501895216E-01 -0.29230899442E-01  0.45265472247E-01  0.51100000000E-03 0. -1.
</event>
<event>
 8    1  0.1079508E+005  0.1043930E+01  0.7957747E-01            NaN
         13   -1    0    0    0    0  0.00000000000E+00  0.00000000000E+00  0.74505805969E-08  0.10566000000E+00  0.10566000000E+00 0.  1.
     999900   -1    0    0    0    0 -0.00000000000E+00 -0.00000000000E+00 -0.74505805969E-08  0.93827000000E+00  0.93827000000E+00 0.  1.
     999902    2    1    2    0    0 -0.70274251281E-02  0.11005634281E-01 -0.22245126267E-01  0.10181355368E+01  0.10178087330E+01 0.  0.
     999903    2    3    3    0    0  0.62472837460E-01  0.63789661676E-01 -0.93682402540E-01  0.13093785617E+00  0.19908623156E-01 0.  0.
         14    1    1    2    0    0  0.70274251281E-02 -0.11005634281E-01  0.22245126267E-01  0.25794463214E-01  0.00000000000E+00 0.  1.
     999901    1    3    3    0    0 -0.69500262588E-01 -0.52784027396E-01  0.71437276273E-01  0.88719768062E+00  0.88000000000E+00 0. -1.
        -11    1    4    4    0    0  0.39237432546E-01  0.27389499394E-01 -0.55605813821E-01  0.73362309407E-01  0.51100000000E-03 0. -1.
         11    1    4    4    0    0  0.23235404914E-01  0.36400162283E-01 -0.38076588718E-01  0.57575546764E-01  0.51100000000E-03 0.  1.
</event>
<event>
 8    1  0.1079508E+005  0.1043930E+01  0.7957747E-01            NaN
         13   -1    0    0    0    0  0.00000000000E+00  0.00000000000E+00  0.74505805969E-08  0.10566000000E+00  0.10566000000E+00 0.  1.
     999900   -1    0    0    0    0 -0.00000000000E+00 -0.00000000000E+00 -0.74505805969E-08  0.93827000000E+00  0.93827000000E+00 0. -1.
     999902    2    1    2    0    0  0.23951904155E-01 -0.20501729814E-02 -0.42365299847E-02  0.10195200613E+01  0.10192278010E+01 0.  0.
     999903    2    3    3    0    0 -0.74450370336E-01 -0.52439339446E-01 -0.88567259534E-01  0.12860269830E+00  0.20043766692E-01 0.  0.
         14    1    1    2    0    0 -0.23951904155E-01  0.20501729814E-02  0.42365299847E-02  0.24409938718E-01  0.00000000000E+00 0.  1.
     999901    1    3    3    0    0  0.98402274491E-01  0.50389166465E-01  0.84330729550E-01  0.89091736299E+00  0.88000000000E+00 0.  1.
        -11    1    4    4    0    0 -0.69172210222E-01 -0.52343694017E-01 -0.77471671180E-01  0.11630467715E+00  0.51100000000E-03 0.  1.
         11    1    4    4    0    0 -0.52781601138E-02 -0.95645429716E-04 -0.11095588354E-01  0.12298021148E-01  0.51100000000E-03 0. -1.
</event>
<event>
 8    1  0.1079508E+005  0.1043930E+01  0.7957747E-01            NaN
         13   -1    0    0    0    0  0.00000000000E+00  0.00000000000E+00  0.74505805969E-08  0.10566000000E+00  0.10566000000E+00 0.  1.
     999900   -1    0    0    0    0 -0.00000000000E+00 -0.00000000000E+00 -0.74505805969E-08  0.93827000000E+00  0.93827000000E+00 0. -1.
     999902    2    1    2    0    0 -0.10658101293E-01 -0.44473250520E-02  0.21184875993E-01  0.10198017428E+01  0.10195162686E+01 0.  0.
     999903    2    3    3    0    0  0.12516956046E-01  0.81271519746E-01 -0.95555971128E-01  0.12766205140E+00  0.20122664809E-01 0.  0.
         14    1    1    2    0    0  0.10658101293E-01  0.44473250520E-02 -0.21184875993E-01  0.24128257172E-01  0.00000000000E+00 0. -1.
     999901    1    3    3    0    0 -0.23175057339E-01 -0.85718844798E-01  0.11674084712E+00  0.89213969143E+00  0.88000000000E+00 0.  1.
        -11    1    4    4    0    0  0.16171605209E-01  0.39445278743E-01 -0.49917854384E-01  0.65646813612E-01  0.51100000000E-03 0.  1.
         11    1    4    4    0    0 -0.36546491632E-02  0.41826241003E-01 -0.45638116744E-01  0.62015237788E-01  0.51100000000E-03 0. -1.
</event>
<event>
 8    1  0.1079508E+005  0.1043930E+01  0.7957747E-01            NaN
         13   -1    0    0    0    0  0.00000000000E+00  0.00000000000E+00  0.74505805969E-08  0.10566000000E+00  0.10566000000E+00 0. -1.
     999900   -1    0    0    0    0 -0.00000000000E+00 -0.00000000000E+00 -0.74505805969E-08  0.93827000000E+00  0.93827000000E+00 0. -1.
     999902    2    1    2    0    0 -0.13763834864E-01 -0.21191435978E-02  0.20920526934E-01  0.10187982996E+01  0.10184882782E+01 0.  0.
     999903    2    3    3    0    0  0.70719376623E-01 -0.79466189696E-01 -0.66579077001E-01  0.12707179482E+00  0.19959008258E-01 0.  0.
         14    1    1    2    0    0  0.13763834864E-01  0.21191435978E-02 -0.20920526934E-01  0.25131700439E-01  0.00000000000E+00 0.  1.
     999901    1    3    3    0    0 -0.84483211487E-01  0.77347046098E-01  0.87499603935E-01  0.89172650474E+00  0.88000000000E+00 0. -1.
        -11    1    4    4    0    0  0.60150481691E-01 -0.69184208193E-01 -0.48433937476E-01  0.10368530528E+00  0.51100000000E-03 0. -1.
         11    1    4    4    0    0  0.10568894932E-01 -0.10281981503E-01 -0.18145139524E-01  0.23386489541E-01  0.51100000000E-03 0.  1.
</event>
<event>
 8    1  0.1079508E+005  0.1043930E+01  0.7957747E-01            NaN
         13   -1    0    0    0    0  0.00000000000E+00  0.00000000000E+00  0.74505805969E-08  0.10566000000E+00  0.10566000000E+00 0.  1.
     999900   -1    0    0    0    0 -0.00000000000E+00 -0.00000000000E+00 -0.74505805969E-08  0.93827000000E+00  0.93827000000E+00 0.  1.
     999902    2    1    2    0    0 -0.50428884118E-02 -0.11929235010E-01  0.21204898620E-01  0.10190827648E+01  0.10187798076E+01 0.  0.
     999903    2    3    3    0    0 -0.10026172507E+00  0.69150043291E-01 -0.35486601778E-01  0.12843446023E+00  0.20049181197E-01 0.  0.
         14    1    1    2    0    0  0.50428884118E-02  0.11929235010E-01 -0.21204898620E-01  0.24847235197E-01  0.00000000000E+00 0. -1.
     999901    1    3    3    0    0  0.95218836660E-01 -0.81079278301E-01  0.56691500398E-01  0.89064830457E+00  0.88000000000E+00 0. -1.
        -11    1    4    4    0    0 -0.20652139038E-01  0.24401403367E-01 -0.11873446052E-01  0.34105412698E-01  0.51100000000E-03 0.  1.
         11    1    4    4    0    0 -0.79609586034E-01  0.44748639924E-01 -0.23613155726E-01  0.94329047530E-01  0.51100000000E-03 0. -1.
</event>
<event>
 8    1  0.1079508E+005  0.1043930E+01  0.7957747E-01            NaN
         13   -1    0    0    0    0  0.00000000000E+00  0.00000000000E+00  0.74505805969E-08  0.10566000000E+00  0.10566000000E+00 0. -1.
     999900   -1    0    0    0    0 -0.00000000000E+00 -0.00000000000E+00 -0.74505805969E-08  0.93827000000E+00  0.93827000000E+00 0. -1.
     999902    2    1    2    0    0 -0.22102711804E-01 -0.40453376116E-02 -0.20377473468E-02  0.10213679292E+01  0.10211187001E+01 0.  0.
     999903    2    3    3    0    0  0.67335470631E-01 -0.81215965796E-01  0.73864055715E-01  0.13023630139E+00  0.19377738995E-01 0.  0.
         14    1    1    2    0    0  0.22102711804E-01  0.40453376116E-02  0.20377473468E-02  0.22562070821E-01  0.00000000000E+00 0. -1.
     999901    1    3    3    0    0 -0.89438182435E-01  0.77170628184E-01 -0.75901803062E-01  0.89113162779E+00  0.88000000000E+00 0.  1.
        -11    1    4    4    0    0  0.41520690573E-01 -0.38480704152E-01  0.31690261816E-01  0.64878857516E-01  0.51100000000E-03 0.  1.
         11    1    4    4    0    0  0.25814780059E-01 -0.42735261644E-01  0.42173793899E-01  0.65357443877E-01  0.51100000000E-03 0. -1.
</event>
<event>
 8    1  0.1079508E+005  0.1043930E+01  0.7957747E-01            NaN
         13   -1    0    0    0    0  0.00000000000E+00  0.00000000000E+00  0.74505805969E-08  0.10566000000E+00  0.10566000000E+00 0. -1.
     999900   -1    0    0    0    0 -0.00000000000E+00 -0.00000000000E+00 -0.74505805969E-08  0.93827000000E+00  0.93827000000E+00 0. -1.
     999902    2    1    2    0    0 -0.59436388558E-02 -0.17514411114E-01 -0.12887529224E-01  0.10213873771E+01  0.10211385823E+01 0.  0.
     999903    2    3    3    0    0 -0.24178230474E-01  0.66903063843E-01  0.10603141873E+00  0.12919876102E+00  0.19724383664E-01 0.  0.
         14    1    1    2    0    0  0.59436388558E-02  0.17514411114E-01  0.12887529224E-01  0.22542622940E-01  0.00000000000E+00 0. -1.
     999901    1    3    3    0    0  0.18234591619E-01 -0.84417474957E-01 -0.11891894795E+00  0.89218861604E+00  0.88000000000E+00 0. -1.
        -11    1    4    4    0    0 -0.21955055064E-01  0.35029376407E-01  0.52101605824E-01  0.66512555993E-01  0.51100000000E-03 0.  1.
         11    1    4    4    0    0 -0.22231754109E-02  0.31873687436E-01  0.53929812905E-01  0.62686205027E-01  0.51100000000E-03 0. -1.
</event>
<event>
 8    1  0.1079508E+005  0.1043930E+01  0.7957747E-01            NaN
         13   -1    0    0    0    0  0.00000000000E+00  0.00000000000E+00  0.74505805969E-08  0.10566000000E+00  0.10566000000E+00 0.  1.
     999900   -1    0    0    0    0 -0.00000000000E+00 -0.00000000000E+00 -0.74505805969E-08  0.93827000000E+00  0.93827000000E+00 0.  1.
     999902    2    1    2    0    0  0.83953063360E-02 -0.18795485727E-01 -0.11789191544E-01  0.10202079324E+01  0.10199321002E+01 0.  0.
     999903    2    3    3    0    0  0.12585967781E+00  0.24653946771E-01 -0.20696656637E-01  0.13129563379E+00  0.19018839754E-01 0.  0.
         14    1    1    2    0    0 -0.83953063360E-02  0.18795485727E-01  0.11789191544E-01  0.23722067563E-01  0.00000000000E+00 0.  1.
     999901    1    3    3    0    0 -0.11746437148E+00 -0.43449432498E-01  0.89074650925E-02  0.88891229865E+00  0.88000000000E+00 0.  1.
        -11    1    4    4    0    0  0.31332890496E-01  0.38033367483E-02 -0.13166293482E-01  0.34202745537E-01  0.51100000000E-03 0. -1.
         11    1    4    4    0    0  0.94526787319E-01  0.20850610023E-01 -0.75303631548E-02  0.97092888253E-01  0.51100000000E-03 0.  1.
</event>
<event>
 8    1  0.1079508E+005  0.1043930E+01  0.7957747E-01            NaN
         13   -1    0    0    0    0  0.00000000000E+00  0.00000000000E+00  0.74505805969E-08  0.10566000000E+00  0.10566000000E+00 0.  1.
     999900   -1    0    0    0    0 -0.00000000000E+00 -0.00000000000E+00 -0.74505805969E-08  0.93827000000E+00  0.93827000000E+00 0. -1.
     999902    2    1    2    0    0  0.13376418360E-01  0.11223255269E-01  0.15958659000E-01  0.10202747929E+01  0.10200005314E+01 0.  0.
     999903    2    3    3    0    0 -0.97138699723E-01  0.83870916589E-01  0.42041239878E-02  0.13031443246E+00  0.22224288860E-01 0.  0.
         14    1    1    2    0    0 -0.13376418360E-01 -0.11223255269E-01 -0.15958659000E-01  0.23655207124E-01  0.00000000000E+00 0. -1.
     999901    1    3    3    0    0  0.11051511808E+00 -0.72647661319E-01  0.11754535013E-01  0.88996036042E+00  0.88000000000E+00 0.  1.
        -11    1    4    4    0    0 -0.45033981278E-01  0.53419173814E-01  0.10369129275E-02  0.69878493903E-01  0.51100000000E-03 0.  1.
         11    1    4    4    0    0 -0.52104718445E-01  0.30451742774E-01  0.31672110603E-02  0.60435938556E-01  0.51100000000E-03 0. -1.
</event>
<event>
 8    1  0.1079508E+005  0.1043930E+01  0.7957747E-01            NaN
         13   -1    0    0    0    0  0.00000000000E+00  0.00000000000E+00  0.74505805969E-08  0.10566000000E+00  0.10566000000E+00 0. -1.
     999900   -1    0    0    0    0 -0.00000000000E+00 -0.00000000000E+00 -0.74505805969E-08  0.93827000000E+00  0.93827000000E+00 0. -1.
     999902    2    1    2    0    0  0.66664745625E-02  0.14507032088E-01 -0.15652844876E-01  0.10215713906E+01  0.10213266855E+01 0.  0.
     999903    2    3    3    0    0  0.40536891232E-01 -0.12085235739E+00  0.16070678105E-01  0.13001334346E+00  0.19916599763E-01 0.  0.
         14    1    1    2    0    0 -0.66664745625E-02 -0.14507032088E-01  0.15652844876E-01  0.22358609434E-01  0.00000000000E+00 0. -1.
     999901    1    3    3    0    0 -0.33870416669E-01  0.13535938948E+00 -0.31723522982E-01  0.89155804710E+00  0.88000000000E+00 0. -1.
        -11    1    4    4    0    0  0.25096594125E-01 -0.50851869357E-01  0.13436821802E-01  0.58280021919E-01  0.51100000000E-03 0. -1.
         11    1    4    4    0    0  0.15440297107E-01 -0.70000488033E-01  0.26338563031E-02  0.71733321543E-01  0.51100000000E-03 0.  1.
</event>
<event>
 8    1  0.1079508E+005  0.1043930E+01  0.7957747E-01            NaN
         13   -1    0    0    0    0  0.00000000000E+00  0.00000000000E+00  0.74505805969E-08  0.10566000000E+00  0.10566000000E+00 0. -1.
     999900   -1    0    0    0    0 -0.00000000000E+00 -0.00000000000E+00 -0.74505805969E-08  0.93827000000E+00  0.93827000000E+00 0. -1.
     999902    2    1    2    0    0 -0.62212264121E-02  0.57772995916E-02 -0.23196128251E-01  0.10192289633E+01  0.10189296042E+01 0.  0.
     999903    2    3    3    0    0  0.12251046469E+00 -0.28519016200E-01  0.13939659662E-01  0.12842755315E+00  0.21844313941E-01 0.  0.
         14    1    1    2    0    0  0.62212264121E-02 -0.57772995916E-02  0.23196128251E-01  0.24701036708E-01  0.00000000000E+00 0. -1.
     999901    1    3    3    0    0 -0.12873169111E+00  0.34296315791E-01 -0.37135787913E-01  0.89080141014E+00  0.88000000000E+00 0. -1.
        -11    1    4    4    0    0  0.35898946859E-01  0.15313387585E-02  0.56336453323E-02  0.36374145553E-01  0.51100000000E-03 0.  1.
         11    1    4    4    0    0  0.86611517834E-01 -0.30050354958E-01  0.83060143300E-02  0.92053407594E-01  0.51100000000E-03 0. -1.
</event>
<event>
 8    1  0.1079508E+005  0.1043930E+01  0.7957747E-01            NaN
         13   -1    0    0    0    0  0.00000000000E+00  0.00000000000E+00  0.74505805969E-08  0.10566000000E+00  0.10566000000E+00 0.  1.
     999900   -1    0    0    0    0 -0.00000000000E+00 -0.00000000000E+00 -0.74505805969E-08  0.93827000000E+00  0.93827000000E+00 0. -1.
     999902    2    1    2    0    0  0.19801580705E-01  0.13840647520E-01 -0.51029280441E-02  0.10192377746E+01  0.10189386317E+01 0.  0.
     999903    2    3    3    0    0  0.41919685946E-01 -0.11177419276E+00  0.44370607249E-01  0.12866721062E+00  0.18324029652E-01 0.  0.
         14    1    1    2    0    0 -0.19801580705E-01 -0.13840647520E-01  0.51029280441E-02  0.24692225433E-01  0.00000000000E+00 0. -1.
     999901    1    3    3    0    0 -0.22118105241E-01  0.12561484028E+00 -0.49473535293E-01  0.89057056395E+00  0.88000000000E+00 0. -1.
        -11    1    4    4    0    0  0.18570291211E-01 -0.32423180890E-01  0.75390593057E-02  0.38121082236E-01  0.51100000000E-03 0. -1.
         11    1    4    4    0    0  0.23349394735E-01 -0.79351011874E-01  0.36831547943E-01  0.90546128381E-01  0.51100000000E-03 0.  1.
</event>
<event>
 8    1  0.1079508E+005  0.1043930E+01  0.7957747E-01            NaN
         13   -1    0    0    0    0  0.00000000000E+00  0.00000000000E+00  0.74505805969E-08  0.10566000000E+00  0.10566000000E+00 0.  1.
     999900   -1    0    0    0    0 -0.00000000000E+00 -0.00000000000E+00 -0.74505805969E-08  0.93827000000E+00  0.93827000000E+00 0.  1.
     999902    2    1    2    0    0  0.13867023273E-01 -0.21514392894E-01  0.13533731319E-01  0.10149761519E+01  0.10145630900E+01 0.  0.
     999903    2    3    3    0    0  0.34104438235E-01  0.11635550513E+00 -0.13188861536E-01  0.12361104225E+00  0.20100433219E-01 0.  0.
         14    1    1    2    0    0 -0.13867023273E-01  0.21514392894E-01 -0.13533731319E-01  0.28953848094E-01  0.00000000000E+00 0. -1.
     999901    1    3    3    0    0 -0.20237414963E-01 -0.13786989802E+00  0.26722592854E-01  0.89136510966E+00  0.88000000000E+00 0.  1.
        -11    1    4    4    0    0  0.22680245623E-01  0.10226984069E+00 -0.11686776721E-01  0.10540567218E+00  0.51100000000E-03 0. -1.
         11    1    4    4    0    0  0.11424192612E-01  0.14085664438E-01 -0.15020848150E-02  0.18205370068E-01  0.51100000000E-03 0.  1.
</event>
<event>
 8    1  0.1079508E+005  0.1043930E+01  0.7957747E-01            NaN
         13   -1    0    0    0    0  0.00000000000E+00  0.00000000000E+00  0.74505805969E-08  0.10566000000E+00  0.10566000000E+00 0.  1.
     999900   -1    0    0    0    0 -0.00000000000E+00 -0.00000000000E+00 -0.74505805969E-08  0.93827000000E+00  0.93827000000E+00 0.  1.
     999902    2    1    2    0    0  0.11976024022E-01 -0.12853866297E-01  0.13723084637E-01  0.10216371742E+01  0.10213939228E+01 0.  0.
     999903    2    3    3    0    0  0.60924935208E-01  0.10045378731E+00 -0.53303857908E-01  0.13049900798E+00  0.19643795491E-01 0.  0.
         14    1    1    2    0    0 -0.11976024022E-01  0.12853866297E-01 -0.13723084637E-01  0.22292825799E-01  0.00000000000E+00 0.  1.
     999901    1    3    3    0    0 -0.48948911186E-01 -0.11330765360E+00  0.67026942545E-01  0.89113816622E+00  0.88000000000E+00 0. -1.
        -11    1    4    4    0    0  0.35329937187E-01  0.40507051247E-01 -0.27667374771E-01  0.60454697172E-01  0.51100000000E-03 0.  1.
         11    1    4    4    0    0  0.25594998021E-01  0.59946736059E-01 -0.25636483137E-01  0.70044310807E-01  0.51100000000E-03 0. -1.
</event>
<event>
 8    1  0.1079508E+005  0.1043930E+01  0.7957747E-01            NaN
         13   -1    0    0    0    0  0.00000000000E+00  0.00000000000E+00  0.74505805969E-08  0.10566000000E+00  0.10566000000E+00 0.  1.
     999900   -1    0    0    0    0 -0.00000000000E+00 -0.00000000000E+00 -0.74505805969E-08  0.93827000000E+00  0.93827000000E+00 0.  1.
     999902    2    1    2    0    0 -0.18473517128E-01 -0.14514006197E-01 -0.54384881058E-03  0.10204305748E+01  0.10201599556E+01 0.  0.
     999903    2    3    3    0    0 -0.10073007853E+00  0.76507309360E-01 -0.29469518481E-01  0.13144929487E+00  0.20261971674E-01 0.  0.
         14    1    1    2    0    0  0.18473517128E-01  0.14514006197E-01  0.54384881058E-03  0.23499425152E-01  0.00000000000E+00 0.  1.
     999901    1    3    3    0    0  0.82256561406E-01 -0.91021315557E-01  0.28925669670E-01  0.88898127998E+00  0.88000000000E+00 0. -1.
        -11    1    4    4    0    0 -0.58614820815E-01  0.52695699708E-01 -0.25760215361E-01  0.82923963987E-01  0.51100000000E-03 0. -1.
         11    1    4    4    0    0 -0.42115257719E-01  0.23811609652E-01 -0.37093031201E-02  0.48525330886E-01  0.51100000000E-03 0.  1.
</event>
<event>
 8    1  0.1079508E+005  0.1043930E+01  0.7957747E-01            NaN
         13   -1    0    0    0    0  0.00000000000E+00  0.00000000000E+00  0.74505805969E-08  0.10566000000E+00  0.10566000000E+00 0.  1.
     999900   -1    0    0    0    0 -0.00000000000E+00 -0.00000000000E+00 -0.74505805969E-08  0.93827000000E+00  0.93827000000E+00 0.  1.
     999902    2    1    2    0    0 -0.17824421749E-02  0.89889623707E-02  0.21637185741E-01  0.10204322054E+01  0.10201616242E+01 0.  0.
     999903    2    3    3    0    0  0.96612468138E-02  0.27413022729E-01 -0.12333450823E+00  0.12830710426E+00  0.20161809902E-01 0.  0.
         14    1    1    2    0    0  0.17824421749E-02 -0.89889623707E-02 -0.21637185741E-01  0.23497794607E-01  0.00000000000E+00 0. -1.
     999901    1    3    3    0    0 -0.11443688989E-01 -0.18424060359E-01  0.14497169397E+00  0.89212510113E+00  0.88000000000E+00 0. -1.
        -11    1    4    4    0    0 -0.11337231782E-02  0.23341216677E-01 -0.72397229637E-01  0.76077051101E-01  0.51100000000E-03 0.  1.
         11    1    4    4    0    0  0.10794969992E-01  0.40718060528E-02 -0.50937278592E-01  0.52230053159E-01  0.51100000000E-03 0. -1.
</event>
<event>
 8    1  0.1079508E+005  0.1043930E+01  0.7957747E-01            NaN
         13   -1    0    0    0    0  0.00000000000E+00  0.00000000000E+00  0.74505805969E-08  0.10566000000E+00  0.10566000000E+00 0. -1.
     999900   -1    0    0    0    0 -0.00000000000E+00 -0.00000000000E+00 -0.74505805969E-08  0.93827000000E+00  0.93827000000E+00 0.  1.
     999902    2    1    2    0    0 -0.17294713073E-01 -0.73660300133E-02 -0.18906632916E-01  0.10172686747E+01  0.10169192349E+01 0.  0.
     999903    2    3    3    0    0 -0.40772066668E-01  0.10268820170E+00 -0.63434007275E-01  0.12898617059E+00  0.20157647047E-01 0.  0.
         14    1    1    2    0    0  0.17294713073E-01  0.73660300133E-02  0.18906632916E-01  0.26661325298E-01  0.00000000000E+00 0. -1.
     999901    1    3    3    0    0  0.23477353595E-01 -0.11005423172E+00  0.44527374359E-01  0.88828250412E+00  0.88000000000E+00 0. -1.
        -11    1    4    4    0    0 -0.16326549557E-01  0.39939733955E-01 -0.36272380997E-01  0.56370961612E-01  0.51100000000E-03 0. -1.
         11    1    4    4    0    0 -0.24445517111E-01  0.62748467747E-01 -0.27161626278E-01  0.72615208975E-01  0.51100000000E-03 0.  1.
</event>
<event>
 8    1  0.1079508E+005  0.1043930E+01  0.7957747E-01            NaN
         13   -1    0    0    0    0  0.00000000000E+00  0.00000000000E+00  0.74505805969E-08  0.10566000000E+00  0.10566000000E+00 0.  1.
     999900   -1    0    0    0    0 -0.00000000000E+00 -0.00000000000E+00 -0.74505805969E-08  0.93827000000E+00  0.93827000000E+00 0. -1.
     999902    2    1    2    0    0 -0.29867652954E-02  0.20223138736E-01  0.11020189243E-01  0.10207062906E+01  0.10204420567E+01 0.  0.
     999903    2    3    3    0    0  0.92073085016E-01  0.81037250693E-01  0.47105360148E-01  0.13276661308E+00  0.19067501414E-01 0.  0.
         14    1    1    2    0    0  0.29867652954E-02 -0.20223138736E-01 -0.11020189243E-01  0.23223709399E-01  0.00000000000E+00 0. -1.
     999901    1    3    3    0    0 -0.95059850312E-01 -0.60814111957E-01 -0.36085170904E-01  0.88793967752E+00  0.88000000000E+00 0.  1.
        -11    1    4    4    0    0  0.49802998158E-01  0.48958802963E-01  0.35914968677E-01  0.78533108363E-01  0.51100000000E-03 0.  1.
         11    1    4    4    0    0  0.42270086859E-01  0.32078447730E-01  0.11190391471E-01  0.54233504719E-01  0.51100000000E-03 0. -1.
</event>
<event>
 8    1  0.1079508E+005  0.1043930E+01  0.7957747E-01            NaN
         13   -1    0    0    0    0  0.00000000000E+00  0.00000000000E+00  0.74505805969E-08  0.10566000000E+00  0.10566000000E+00 0. -1.
     999900   -1    0    0    0    0 -0.00000000000E+00 -0.00000000000E+00 -0.74505805969E-08  0.93827000000E+00  0.93827000000E+00 0.  1.
     999902    2    1    2    0    0 -0.15482980065E-01 -0.19147768868E-01 -0.69337247438E-02  0.10183480481E+01  0.10180266749E+01 0.  0.
     999903    2    3    3    0    0 -0.10393988915E+00 -0.42745813535E-01  0.63843777014E-01  0.13077216558E+00  0.19865203147E-01 0.  0.
         14    1    1    2    0    0  0.15482980065E-01  0.19147768868E-01  0.69337247438E-02  0.25581951902E-01  0.00000000000E+00 0. -1.
     999901    1    3    3    0    0  0.88456909081E-01  0.23598044667E-01 -0.70777501758E-01  0.88757588252E+00  0.88000000000E+00 0.  1.
        -11    1    4    4    0    0 -0.85153917197E-01 -0.35308629316E-01  0.60554968241E-01  0.11029530461E+00  0.51100000000E-03 0.  1.
         11    1    4    4    0    0 -0.18785971948E-01 -0.74371842184E-02  0.32888087729E-02  0.20476860973E-01  0.51100000000E-03 0. -1.
</event>
<event>
 8    1  0.1079508E+005  0.1043930E+01  0.7957747E-01            NaN
         13   -1    0    0    0    0  0.00000000000E+00  0.00000000000E+00  0.74505805969E-08  0.10566000000E+00  0.10566000000E+00 0.  1.
     999900   -1    0    0    0    0 -0.00000000000E+00 -0.00000000000E+00 -0.74505805969E-08  0.93827000000E+00  0.93827000000E+00 0. -1.
     999902    2    1    2    0    0 -0.17473350983E-01  0.14465175564E-01  0.62644798181E-02  0.10203969805E+01  0.10201255780E+01 0.  0.
     999903    2    3    3    0    0  0.57053709444E-01  0.11109028220E+00 -0.32848213996E-01  0.13111609306E+00  0.22721094566E-01 0.  0.
         14    1    1    2    0    0  0.17473350983E-01 -0.14465175564E-01 -0.62644798181E-02  0.23533019485E-01  0.00000000000E+00 0. -1.
     999901    1    3    3    0    0 -0.74527060427E-01 -0.96625106631E-01  0.39112693814E-01  0.88928088745E+00  0.88000000000E+00 0.  1.
        -11    1    4    4    0    0  0.32594998277E-01  0.41122818294E-01 -0.89258341173E-02  0.53230176900E-01  0.51100000000E-03 0. -1.
         11    1    4    4    0    0  0.24458711167E-01  0.69967463901E-01 -0.23922379879E-01  0.77885916165E-01  0.51100000000E-03 0.  1.
</event>
<event>
 8    1  0.1079508E+005  0.1043930E+01  0.7957747E-01            NaN
         13   -1    0    0    0    0  0.00000000000E+00  0.00000000000E+00  0.74505805969E-08  0.10566000000E+00  0.10566000000E+00 0. -1.
     999900   -1    0    0    0    0 -0.00000000000E+00 -0.00000000000E+00 -0.74505805969E-08  0.93827000000E+00  0.93827000000E+00 0.  1.
     999902    2    1    2    0    0  0.40385125114E-02 -0.13616083371E-01  0.17597552673E-01  0.10213162615E+01  0.10210658768E+01 0.  0.
     999903    2    3    3    0    0 -0.28594902288E-01 -0.69556637459E-01  0.10922149748E+00  0.13419212552E+00  0.20552293961E-01 0.  0.
         14    1    1    2    0    0 -0.40385125114E-02  0.13616083371E-01 -0.17597552673E-01  0.22613738518E-01  0.00000000000E+00 0.  1.
     999901    1    3    3    0    0  0.32633414799E-01  0.55940554088E-01 -0.91623944807E-01  0.88712413597E+00  0.88000000000E+00 0.  1.
        -11    1    4    4    0    0 -0.23932278104E-01 -0.59930099537E-01  0.78288260220E-01  0.10145779209E+00  0.51100000000E-03 0. -1.
         11    1    4    4    0    0 -0.46626241842E-02 -0.96265379218E-02  0.30933237260E-01  0.32734333429E-01  0.51100000000E-03 0.  1.
</event>
<event>
 8    1  0.1079508E+005  0.1043930E+01  0.7957747E-01            NaN
         13   -1    0    0    0    0  0.00000000000E+00  0.00000000000E+00  0.74505805969E-08  0.10566000000E+00  0.10566000000E+00 0. -1.
     999900   -1    0    0    0    0 -0.00000000000E+00 -0.00000000000E+00 -0.74505805969E-08  0.93827000000E+00  0.93827000000E+00 0. -1.
     999902    2    1    2    0    0  0.14478067242E-01 -0.74141595628E-02  0.16576086917E-01  0.10207060716E+01  0.10204418326E+01 0.  0.
     999903    2    3    3    0    0 -0.55252348113E-01  0.11552847323E+00  0.67672213387E-02  0.12937367814E+00  0.17091027211E-01 0.  0.
         14    1    1    2    0    0 -0.14478067242E-01  0.74141595628E-02 -0.16576086917E-01  0.23223928406E-01  0.00000000000E+00 0.  1.
     999901    1    3    3    0    0  0.69730415355E-01 -0.12294263279E+00  0.98088655787E-02  0.89133239346E+00  0.88000000000E+00 0. -1.
        -11    1    4    4    0    0 -0.56091563442E-01  0.10914969781E+00  0.69560195215E-02  0.12291691238E+00  0.51100000000E-03 0. -1.
         11    1    4    4    0    0  0.83921532944E-03  0.63787754236E-02 -0.18879818279E-03  0.64567657560E-02  0.51100000000E-03 0.  1.
</event>
<event>
 8    1  0.1079508E+005  0.1043930E+01  0.7957747E-01            NaN
         13   -1    0    0    0    0  0.00000000000E+00  0.00000000000E+00  0.74505805969E-08  0.10566000000E+00  0.10566000000E+00 0.  1.
     999900   -1    0    0    0    0 -0.00000000000E+00 -0.00000000000E+00 -0.74505805969E-08  0.93827000000E+00  0.93827000000E+00 0. -1.
     999902    2    1    2    0    0  0.11020383270E-01  0.34642280905E-01  0.14643970529E-03  0.10075767619E+01  0.10069207383E+01 0.  0.
     999903    2    3    3    0    0 -0.10728789408E+00 -0.19196349262E-01  0.39477490030E-01  0.11715979325E+00  0.16992730626E-01 0.  0.
         14    1    1    2    0    0 -0.11020383270E-01 -0.34642280905E-01 -0.14643970529E-03  0.36353238071E-01  0.00000000000E+00 0. -1.
     999901    1    3    3    0    0  0.11830827735E+00  0.53838630166E-01 -0.39331050324E-01  0.89041696868E+00  0.88000000000E+00 0.  1.
        -11    1    4    4    0    0 -0.87750254381E-01 -0.20811595246E-01  0.27977995589E-01  0.94425944522E-01  0.51100000000E-03 0. -1.
         11    1    4    4    0    0 -0.19537639701E-01  0.16152459845E-02  0.11499494440E-01  0.22733848730E-01  0.51100000000E-03 0.  1.
</event>
<event>
 8    1  0.1079508E+005  0.1043930E+01  0.7957747E-01            NaN
         13   -1    0    0    0    0  0.00000000000E+00  0.00000000000E+00  0.74505805969E-08  0.10566000000E+00  0.10566000000E+00 0. -1.
     999900   -1    0    0    0    0 -0.00000000000E+00 -0.00000000000E+00 -0.74505805969E-08  0.93827000000E+00  0.93827000000E+00 0.  1.
     999902    2    1    2    0    0  0.98179460116E-02 -0.24257095563E-01 -0.25463593805E-01  0.10074170796E+01  0.10067551732E+01 0.  0.
     999903    2    3    3    0    0  0.16863438912E-01  0.53900187626E-01  0.98445908392E-01  0.11527820886E+00  0.20195612439E-01 0.  0.
         14    1    1    2    0    0 -0.98179460116E-02  0.24257095563E-01  0.25463593805E-01  0.36512920432E-01  0.00000000000E+00 0. -1.
     999901    1    3    3    0    0 -0.70454929003E-02 -0.78157283189E-01 -0.12390950220E+00  0.89213887070E+00  0.88000000000E+00 0.  1.
        -11    1    4    4    0    0  0.13464284096E-01  0.38177906081E-01  0.50630540547E-01  0.64827094767E-01  0.51100000000E-03 0.  1.
         11    1    4    4    0    0  0.33991548155E-02  0.15722281546E-01  0.47815367845E-01  0.50451114097E-01  0.51100000000E-03 0. -1.
</event>
<event>
 8    1  0.1079508E+005  0.1043930E+01  0.7957747E-01            NaN
         13   -1    0    0    0    0  0.00000000000E+00  0.00000000000E+00  0.74505805969E-08  0.10566000000E+00  0.10566000000E+00 0.  1.
     999900   -1    0    0    0    0 -0.00000000000E+00 -0.00000000000E+00 -0.74505805969E-08  0.93827000000E+00  0.93827000000E+00 0.  1.
     999902    2    1    2    0    0 -0.13373236702E-01  0.10035715358E-01 -0.16198462813E-01  0.10206501967E+01  0.10203846700E+01 0.  0.
     999903    2    3    3    0    0 -0.51546758816E-01  0.20256824587E-01 -0.11970262706E+00  0.13370329817E+00  0.21919072277E-01 0.  0.
         14    1    1    2    0    0  0.13373236702E-01 -0.10035715358E-01  0.16198462813E-01  0.23279803267E-01  0.00000000000E+00 0.  1.
     999901    1    3    3    0    0  0.38173522114E-01 -0.10221109230E-01  0.10350416424E+00  0.88694689857E+00  0.88000000000E+00 0. -1.
        -11    1    4    4    0    0 -0.11069732027E-01  0.13134592642E-01 -0.23723935152E-01  0.29294072969E-01  0.51100000000E-03 0.  1.
         11    1    4    4    0    0 -0.40477026789E-01  0.71222319453E-02 -0.95978691903E-01  0.10440922520E+00  0.51100000000E-03 0. -1.
</event>
<event>
 8    1  0.1079508E+005  0.1043930E+01  0.7957747E-01            NaN
         13   -1    0    0    0    0  0.00000000000E+00  0.00000000000E+00  0.74505805969E-08  0.10566000000E+00  0.10566000000E+00 0. -1.
     999900   -1    0    0    0    0 -0.00000000000E+00 -0.00000000000E+00 -0.74505805969E-08  0.93827000000E+00  0.93827000000E+00 0.  1.
     999902    2    1    2    0    0 -0.19876322033E-01 -0.91589396651E-02 -0.10040479761E-01  0.10198516781E+01  0.10195673983E+01 0.  0.
     999903    2    3    3    0    0 -0.57577581009E-01 -0.10279422794E+00  0.55994333851E-01  0.13162335790E+00  0.17536014025E-01 0.  0.
         14    1    1    2    0    0  0.19876322033E-01  0.91589396651E-02  0.10040479761E-01  0.24078321935E-01  0.00000000000E+00 0.  1.
     999901    1    3    3    0    0  0.37701258976E-01  0.93635288277E-01 -0.66034813613E-01  0.88822832017E+00  0.88000000000E+00 0.  1.
        -11    1    4    4    0    0 -0.13890512237E-01 -0.14053356776E-01  0.13686552611E-01  0.24042171496E-01  0.51100000000E-03 0. -1.
         11    1    4    4    0    0 -0.43687068772E-01 -0.88740871166E-01  0.42307781241E-01  0.10758118640E+00  0.51100000000E-03 0.  1.
</event>
<event>
 8    1  0.1079508E+005  0.1043930E+01  0.7957747E-01            NaN
         13   -1    0    0    0    0  0.00000000000E+00  0.00000000000E+00  0.74505805969E-08  0.10566000000E+00  0.10566000000E+00 0. -1.
     999900   -1    0    0    0    0 -0.00000000000E+00 -0.00000000000E+00 -0.74505805969E-08  0.93827000000E+00  0.93827000000E+00 0. -1.
     999902    2    1    2    0    0 -0.17178276890E-01 -0.10468649050E-01 -0.12080340762E-01  0.10204646970E+01  0.10201948723E+01 0.  0.
     999903    2    3    3    0    0  0.10573065117E+00 -0.72794392110E-02  0.69021947081E-01  0.12822349829E+00  0.21101552181E-01 0.  0.
         14    1    1    2    0    0  0.17178276890E-01  0.10468649050E-01  0.12080340762E-01  0.23465302955E-01  0.00000000000E+00 0.  1.
     999901    1    3    3    0    0 -0.12290892806E+00 -0.31892098393E-02 -0.81102287844E-01  0.89224119875E+00  0.88000000000E+00 0. -1.
        -11    1    4    4    0    0  0.12873808399E-03  0.10696978626E-02  0.34219507334E-02  0.36237680435E-02  0.51100000000E-03 0.  1.
         11    1    4    4    0    0  0.10560191308E+00 -0.83491370737E-02  0.65599996348E-01  0.12459973025E+00  0.51100000000E-03 0. -1.
</event>
<event>
 8    1  0.1079508E+005  0.1043930E+01  0.7957747E-01            NaN
         13   -1    0    0    0    0  0.00000000000E+00  0.00000000000E+00  0.74505805969E-08  0.10566000000E+00  0.10566000000E+00 0.  1.
     999900   -1    0    0    0    0 -0.00000000000E+00 -0.00000000000E+00 -0.74505805969E-08  0.93827000000E+00  0.93827000000E+00 0.  1.
     999902    2    1    2    0    0 -0.29698104298E-02  0.91404003941E-02  0.21961600534E-01  0.10199575452E+01  0.10196757893E+01 0.  0.
     999903    2    3    3    0    0  0.47864792319E-01  0.24584750070E-01 -0.11430237987E+00  0.12788660788E+00  0.19862078243E-01 0.  0.
         14    1    1    2    0    0  0.29698104298E-02 -0.91404003941E-02 -0.21961600534E-01  0.23972454846E-01  0.00000000000E+00 0. -1.
     999901    1    3    3    0    0 -0.50834602749E-01 -0.15444349676E-01  0.13626398040E+00  0.89207093727E+00  0.88000000000E+00 0. -1.
        -11    1    4    4    0    0  0.27763842263E-01  0.31155433011E-02 -0.55928376291E-01  0.62520252261E-01  0.51100000000E-03 0.  1.
         11    1    4    4    0    0  0.20100950056E-01  0.21469206768E-01 -0.58374003576E-01  0.65366355619E-01  0.51100000000E-03 0. -1.
</event>
<event>
 8    1  0.1079508E+005  0.1043930E+01  0.7957747E-01            NaN
         13   -1    0    0    0    0  0.00000000000E+00  0.00000000000E+00  0.74505805969E-08  0.10566000000E+00  0.10566000000E+00 0.  1.
     999900   -1    0    0    0    0 -0.00000000000E+00 -0.00000000000E+00 -0.74505805969E-08  0.93827000000E+00  0.93827000000E+00 0.  1.
     999902    2    1    2    0    0  0.16263961529E-01  0.87014407957E-02 -0.14678116004E-01  0.10203571638E+01  0.10200848313E+01 0.  0.
     999903    2    3    3    0    0 -0.40191716438E-01  0.34513267449E-01  0.11592726199E+00  0.12855491066E+00  0.16753963201E-01 0.  0.
         14    1    1    2    0    0 -0.16263961529E-01 -0.87014407957E-02  0.14678116004E-01  0.23572836188E-01  0.00000000000E+00 0.  1.
     999901    1    3    3    0    0  0.56455677966E-01 -0.25811826653E-01 -0.13060537799E+00  0.89180225315E+00  0.88000000000E+00 0.  1.
        -11    1    4    4    0    0 -0.74728283083E-02  0.54513954213E-02  0.38655046495E-01  0.39749649250E-01  0.51100000000E-03 0. -1.
         11    1    4    4    0    0 -0.32718888129E-01  0.29061872028E-01  0.77272215490E-01  0.88805261409E-01  0.51100000000E-03 0.  1.
</event>
<event>
 8    1  0.1079508E+005  0.1043930E+01  0.7957747E-01            NaN
         13   -1    0    0    0    0  0.00000000000E+00  0.00000000000E+00  0.74505805969E-08  0.10566000000E+00  0.10566000000E+00 0. -1.
     999900   -1    0    0    0    0 -0.00000000000E+00 -0.00000000000E+00 -0.74505805969E-08  0.93827000000E+00  0.93827000000E+00 0.  1.
     999902    2    1    2    0    0  0.10847481546E-01  0.16485201867E-01  0.13254379350E-01  0.10201579932E+01  0.10198809846E+01 0.  0.
     999903    2    3    3    0    0  0.32598169639E-01  0.12705966637E+00  0.93901257781E-02  0.13296312333E+00  0.19601485180E-01 0.  0.
         14    1    1    2    0    0 -0.10847481546E-01 -0.16485201867E-01 -0.13254379350E-01  0.23772006824E-01  0.00000000000E+00 0.  1.
     999901    1    3    3    0    0 -0.21750688093E-01 -0.11057446450E+00  0.38642535722E-02  0.88719486985E+00  0.88000000000E+00 0.  1.
        -11    1    4    4    0    0  0.25855549707E-01  0.86370700889E-01 -0.19688490363E-02  0.90180623807E-01  0.51100000000E-03 0. -1.
         11    1    4    4    0    0  0.67426199321E-02  0.40688965479E-01  0.11358974814E-01  0.42782499519E-01  0.51100000000E-03 0.  1.
</event>
<event>
 8    1  0.1079508E+005  0.1043930E+01  0.7957747E-01            NaN
         13   -1    0    0    0    0  0.00000000000E+00  0.00000000000E+00  0.74505805969E-08  0.10566000000E+00  0.10566000000E+00 0.  1.
     999900   -1    0    0    0    0 -0.00000000000E+00 -0.00000000000E+00 -0.74505805969E-08  0.93827000000E+00  0.93827000000E+00 0. -1.
     999902    2    1    2    0    0  0.21824173337E-01 -0.66308402357E-02 -0.45886274631E-02  0.10206637565E+01  0.10203985426E+01 0.  0.
     999903    2    3    3    0    0  0.56975328658E-01  0.94367119205E-01  0.68664543023E-01  0.13116827113E+00  0.18410720229E-01 0.  0.
         14    1    1    2    0    0 -0.21824173337E-01  0.66308402357E-02  0.45886274631E-02  0.23266243488E-01  0.00000000000E+00 0.  1.
     999901    1    3    3    0    0 -0.35151155322E-01 -0.10099795944E+00 -0.73253170486E-01  0.88949548538E+00  0.88000000000E+00 0. -1.
        -11    1    4    4    0    0  0.23240035448E-01  0.49386564103E-01  0.25307200847E-01  0.60165168472E-01  0.51100000000E-03 0.  1.
         11    1    4    4    0    0  0.33735293210E-01  0.44980555103E-01  0.43357342176E-01  0.71003102657E-01  0.51100000000E-03 0. -1.
</event>
<event>
 8    1  0.1079508E+005  0.1043930E+01  0.7957747E-01            NaN
         13   -1    0    0    0    0  0.00000000000E+00  0.00000000000E+00  0.74505805969E-08  0.10566000000E+00  0.10566000000E+00 0.  1.
     999900   -1    0    0    0    0 -0.00000000000E+00 -0.00000000000E+00 -0.74505805969E-08  0.93827000000E+00  0.93827000000E+00 0. -1.
     999902    2    1    2    0    0 -0.11333649620E-01 -0.67131121826E-02  0.18965900425E-01  0.10208383810E+01  0.10205771785E+01 0.  0.
     999903    2    3    3    0    0 -0.78863281304E-01 -0.11203090807E-02 -0.10126279972E+00  0.13008225785E+00  0.21132131234E-01 0.  0.
         14    1    1    2    0    0  0.11333649620E-01  0.67131121826E-02 -0.18965900425E-01  0.23091618995E-01  0.00000000000E+00 0. -1.
     999901    1    3    3    0    0  0.67529631683E-01 -0.55928031019E-02  0.12022870014E+00  0.89075612316E+00  0.88000000000E+00 0.  1.
        -11    1    4    4    0    0 -0.42626151154E-01 -0.11055722396E-01 -0.56553073512E-01  0.71677953407E-01  0.51100000000E-03 0. -1.
         11    1    4    4    0    0 -0.36237130150E-01  0.99354133150E-02 -0.44709726204E-01  0.58404304443E-01  0.51100000000E-03 0.  1.
</event>
<event>
 8    1  0.1079508E+005  0.1043930E+01  0.7957747E-01            NaN
         13   -1    0    0    0    0  0.00000000000E+00  0.00000000000E+00  0.74505805969E-08  0.10566000000E+00  0.10566000000E+00 0. -1.
     999900   -1    0    0    0    0 -0.00000000000E+00 -0.00000000000E+00 -0.74505805969E-08  0.93827000000E+00  0.93827000000E+00 0.  1.
     999902    2    1    2    0    0 -0.12596356404E-01 -0.19016244559E-01  0.54457615697E-02  0.10204791563E+01  0.10202096678E+01 0.  0.
     999903    2    3    3    0    0  0.43032739238E-01  0.34453481676E-01  0.11619531381E+00  0.13018759100E+00  0.20213828236E-01 0.  0.
         14    1    1    2    0    0  0.12596356404E-01  0.19016244559E-01 -0.54457615697E-02  0.23450843713E-01  0.00000000000E+00 0.  1.
     999901    1    3    3    0    0 -0.55629095642E-01 -0.53469726235E-01 -0.11074955224E+00  0.89029156529E+00  0.88000000000E+00 0.  1.
        -11    1    4    4    0    0  0.40396413074E-01  0.27474729245E-01  0.84364920108E-01  0.97490675463E-01  0.51100000000E-03 0.  1.
         11    1    4    4    0    0  0.26363261634E-02  0.69787524304E-02  0.31830393703E-01  0.32696915533E-01  0.51100000000E-03 0. -1.
</event>
<event>
 8    1  0.1079508E+005  0.1043930E+01  0.7957747E-01            NaN
         13   -1    0    0    0    0  0.00000000000E+00  0.00000000000E+00  0.74505805969E-08  0.10566000000E+00  0.10566000000E+00 0. -1.
     999900   -1    0    0    0    0 -0.00000000000E+00 -0.00000000000E+00 -0.74505805969E-08  0.93827000000E+00  0.93827000000E+00 0. -1.
     999902    2    1    2    0    0  0.32750090274E-02 -0.14633342349E-02 -0.14229076417E-01  0.10292557488E+01  0.10291511370E+01 0.  0.
     999903    2    3    3    0    0 -0.11683793097E+00 -0.66953515470E-01 -0.25341846848E-01  0.13861576779E+00  0.20934338574E-01 0.  0.
         14    1    1    2    0    0 -0.32750090274E-02  0.14633342349E-02  0.14229076417E-01  0.14674251153E-01  0.00000000000E+00 0. -1.
     999901    1    3    3    0    0  0.12011294000E+00  0.65490181235E-01  0.11112770431E-01  0.89063998106E+00  0.88000000000E+00 0.  1.
        -11    1    4    4    0    0 -0.85544320745E-01 -0.37878156732E-01 -0.16920427548E-01  0.95074431676E-01  0.51100000000E-03 0.  1.
         11    1    4    4    0    0 -0.31293610224E-01 -0.29075358737E-01 -0.84214192995E-02  0.43541336113E-01  0.51100000000E-03 0. -1.
</event>
<event>
 8    1  0.1079508E+005  0.1043930E+01  0.7957747E-01            NaN
         13   -1    0    0    0    0  0.00000000000E+00  0.00000000000E+00  0.74505805969E-08  0.10566000000E+00  0.10566000000E+00 0.  1.
     999900   -1    0    0    0    0 -0.00000000000E+00 -0.00000000000E+00 -0.74505805969E-08  0.93827000000E+00  0.93827000000E+00 0. -1.
     999902    2    1    2    0    0  0.74276103265E-02  0.19219291101E-01  0.85927530448E-02  0.10216054406E+01  0.10213614886E+01 0.  0.
     999903    2    3    3    0    0  0.79474355521E-01 -0.88270043473E-01 -0.49490785843E-01  0.13024783113E+00  0.20183802209E-01 0.  0.
         14    1    1    2    0    0 -0.74276103265E-02 -0.19219291101E-01 -0.85927530448E-02  0.22324559357E-01  0.00000000000E+00 0.  1.
     999901    1    3    3    0    0 -0.72046745194E-01  0.10748933457E+00  0.58083538888E-01  0.89135760951E+00  0.88000000000E+00 0.  1.
        -11    1    4    4    0    0  0.70434912718E-01 -0.82945020701E-01 -0.49950253828E-01  0.11973404849E+00  0.51100000000E-03 0. -1.
         11    1    4    4    0    0  0.90394428030E-02 -0.53250227719E-02  0.45946798561E-03  0.10513782647E-01  0.51100000000E-03 0.  1.
</event>
<event>
 8    1  0.1079508E+005  0.1043930E+01  0.7957747E-01            NaN
         13   -1    0    0    0    0  0.00000000000E+00  0.00000000000E+00  0.74505805969E-08  0.10566000000E+00  0.10566000000E+00 0.  1.
     999900   -1    0    0    0    0 -0.00000000000E+00 -0.00000000000E+00 -0.74505805969E-08  0.93827000000E+00  0.93827000000E+00 0.  1.
     999902    2    1    2    0    0  0.93935159374E-02 -0.21336838260E-01  0.38043961812E-02  0.10203085640E+01  0.10200350943E+01 0.  0.
     999903    2    3    3    0    0  0.11097436722E+00  0.59458930376E-01  0.24302212354E-01  0.13055197591E+00  0.24546818689E-01 0.  0.
         14    1    1    2    0    0 -0.93935159374E-02  0.21336838260E-01 -0.38043961812E-02  0.23621436004E-01  0.00000000000E+00 0.  1.
     999901    1    3    3    0    0 -0.10158085128E+00 -0.80795768635E-01 -0.20497816173E-01  0.88975658809E+00  0.88000000000E+00 0. -1.
        -11    1    4    4    0    0  0.50802453262E-01  0.21625484250E-01  0.21993417101E-01  0.59435026233E-01  0.51100000000E-03 0.  1.
         11    1    4    4    0    0  0.60171913955E-01  0.37833446125E-01  0.23087952534E-02  0.71116949676E-01  0.51100000000E-03 0. -1.
</event>
<event>
 8    1  0.1079508E+005  0.1043930E+01  0.7957747E-01            NaN
         13   -1    0    0    0    0  0.00000000000E+00  0.00000000000E+00  0.74505805969E-08  0.10566000000E+00  0.10566000000E+00 0. -1.
     999900   -1    0    0    0    0 -0.00000000000E+00 -0.00000000000E+00 -0.74505805969E-08  0.93827000000E+00  0.93827000000E+00 0. -1.
     999902    2    1    2    0    0  0.30510864253E-02 -0.17225777923E-01  0.16248625181E-01  0.10200541885E+01  0.10197747267E+01 0.  0.
     999903    2    3    3    0    0 -0.20671329220E-01  0.95091442725E-01 -0.79876666083E-01  0.12740757161E+00  0.19563261198E-01 0.  0.
         14    1    1    2    0    0 -0.30510864253E-02  0.17225777923E-01 -0.16248625181E-01  0.23875811477E-01  0.00000000000E+00 0.  1.
     999901    1    3    3    0    0  0.23722415645E-01 -0.11231722065E+00  0.96125291264E-01  0.89264661691E+00  0.88000000000E+00 0.  1.
        -11    1    4    4    0    0 -0.22759023077E-02  0.23756898874E-01 -0.10039145190E-01  0.25896245530E-01  0.51100000000E-03 0. -1.
         11    1    4    4    0    0 -0.18395426912E-01  0.71334543852E-01 -0.69837520894E-01  0.10151132608E+00  0.51100000000E-03 0.  1.
</event>
<event>
 8    1  0.1079508E+005  0.1043930E+01  0.7957747E-01            NaN
         13   -1    0    0    0    0  0.00000000000E+00  0.00000000000E+00  0.74505805969E-08  0.10566000000E+00  0.10566000000E+00 0. -1.
     999900   -1    0    0    0    0 -0.00000000000E+00 -0.00000000000E+00 -0.74505805969E-08  0.93827000000E+00  0.93827000000E+00 0. -1.
     999902    2    1    2    0    0  0.14455482425E-01  0.18523389592E-01  0.22929807797E-02  0.10203220629E+01  0.10200489093E+01 0.  0.
     999903    2    3    3    0    0  0.21073990778E-01  0.10988819277E+00 -0.68691207919E-01  0.13272413197E+00  0.19434123690E-01 0.  0.
         14    1    1    2    0    0 -0.14455482425E-01 -0.18523389592E-01 -0.22929807797E-02  0.23607937118E-01  0.00000000000E+00 0. -1.
     999901    1    3    3    0    0 -0.66185083533E-02 -0.91364803181E-01  0.70984188699E-01  0.88759793091E+00  0.88000000000E+00 0.  1.
        -11    1    4    4    0    0  0.37153675092E-02  0.32289710253E-01 -0.10402671178E-01  0.34130719778E-01  0.51100000000E-03 0. -1.
         11    1    4    4    0    0  0.17358623269E-01  0.77598482520E-01 -0.58288536741E-01  0.98593412192E-01  0.51100000000E-03 0.  1.
</event>
<event>
 8    1  0.1079508E+005  0.1043930E+01  0.7957747E-01            NaN
         13   -1    0    0    0    0  0.00000000000E+00  0.00000000000E+00  0.74505805969E-08  0.10566000000E+00  0.10566000000E+00 0. -1.
     999900   -1    0    0    0    0 -0.00000000000E+00 -0.00000000000E+00 -0.74505805969E-08  0.93827000000E+00  0.93827000000E+00 0. -1.
     999902    2    1    2    0    0  0.10996447555E-02  0.24363382024E-01 -0.14014157823E-03  0.10195414116E+01  0.10192496685E+01 0.  0.
     999903    2    3    3    0    0 -0.69379191538E-01  0.10152898413E+00  0.42497745766E-01  0.13233242502E+00  0.24170342978E-01 0.  0.
         14    1    1    2    0    0 -0.10996447555E-02 -0.24363382024E-01  0.14014157823E-03  0.24388588354E-01  0.00000000000E+00 0.  1.
     999901    1    3    3    0    0  0.70478836293E-01 -0.77165602104E-01 -0.42637887344E-01  0.88720898663E+00  0.88000000000E+00 0.  1.
        -11    1    4    4    0    0 -0.18008238011E-01  0.23412337923E-01  0.21421061051E-01  0.36490508092E-01  0.51100000000E-03 0.  1.
         11    1    4    4    0    0 -0.51370953527E-01  0.78116646206E-01  0.21076684715E-01  0.95841916928E-01  0.51100000000E-03 0. -1.
</event>
<event>
 7    1  0.1127253E+005  0.1043930E+01  0.7957747E-01            NaN
         13   -1    0    0    0    0  0.00000000000E+00  0.00000000000E+00  0.74505805969E-08  0.10566000000E+00  0.10566000000E+00 0. -1.
     999900   -1    0    0    0    0 -0.00000000000E+00 -0.00000000000E+00 -0.74505805969E-08  0.93827000000E+00  0.93827000000E+00 0.  1.
     999903    2    1    2    0    0 -0.29771680915E-01 -0.92887374337E-01 -0.41863967592E-01  0.10860243496E+00  0.22966928439E-01 0.  0.
         14    1    1    2    0    0  0.10855325657E-01  0.47201422043E-01  0.23293474303E-01  0.53743820883E-01  0.00000000000E+00 0. -1.
     999901    1    1    2    0    0  0.18916355258E-01  0.45685952294E-01  0.18570493289E-01  0.88158374415E+00  0.88000000000E+00 0. -1.
        -11    1    3    3    0    0 -0.12461486600E-01 -0.47157037212E-01 -0.87796094798E-02  0.49562258530E-01  0.51100000000E-03 0.  1.
         11    1    3    3    0    0 -0.17310194315E-01 -0.45730337125E-01 -0.33084358112E-01  0.59040176435E-01  0.51100000000E-03 0. -1.
</event>
<event>
 8    1  0.1079508E+005  0.1043930E+01  0.7957747E-01            NaN
         13   -1    0    0    0    0  0.00000000000E+00  0.00000000000E+00  0.74505805969E-08  0.10566000000E+00  0.10566000000E+00 0.  1.
     999900   -1    0    0    0    0 -0.00000000000E+00 -0.00000000000E+00 -0.74505805969E-08  0.93827000000E+00  0.93827000000E+00 0. -1.
     999902    2    1    2    0    0 -0.14773321347E-01  0.33914187052E-02 -0.11480030604E-01  0.10249156936E+01  0.10247393011E+01 0.  0.
     999903    2    3    3    0    0  0.86606324894E-01 -0.11716212163E-01 -0.10020239327E+00  0.13453502738E+00  0.20523860119E-01 0.  0.
         14    1    1    2    0    0  0.14773321347E-01 -0.33914187052E-02  0.11480030604E-01  0.19014306380E-01  0.00000000000E+00 0.  1.
     999901    1    3    3    0    0 -0.10137964624E+00  0.15107630868E-01  0.88722362670E-01  0.89038066624E+00  0.88000000000E+00 0.  1.
        -11    1    4    4    0    0  0.81070011430E-01 -0.15630763901E-01 -0.88754522643E-01  0.12122002287E+00  0.51100000000E-03 0.  1.
         11    1    4    4    0    0  0.55363134640E-02  0.39145517382E-02 -0.11447870631E-01  0.13315004509E-01  0.51100000000E-03 0. -1.
</event>
<event>
 8    1  0.1079508E+005  0.1043930E+01  0.7957747E-01            NaN
         13   -1    0    0    0    0  0.00000000000E+00  0.00000000000E+00  0.74505805969E-08  0.10566000000E+00  0.10566000000E+00 0.  1.
     999900   -1    0    0    0    0 -0.00000000000E+00 -0.00000000000E+00 -0.74505805969E-08  0.93827000000E+00  0.93827000000E+00 0. -1.
     999902    2    1    2    0    0 -0.16279569824E-01 -0.28366790911E-02 -0.21404272805E-01  0.10168890304E+01  0.10165294320E+01 0.  0.
     999903    2    3    3    0    0 -0.10413729208E+00  0.60208996804E-01  0.39692638447E-01  0.12816715650E+00  0.19534982994E-01 0.  0.
         14    1    1    2    0    0  0.16279569824E-01  0.28366790911E-02  0.21404272805E-01  0.27040969588E-01  0.00000000000E+00 0.  1.
     999901    1    3    3    0    0  0.87857722253E-01 -0.63045675895E-01 -0.61096911252E-01  0.88872187391E+00  0.88000000000E+00 0. -1.
        -11    1    4    4    0    0 -0.97851753778E-01  0.50232885413E-01  0.37116681686E-01  0.11608711244E+00  0.51100000000E-03 0.  1.
         11    1    4    4    0    0 -0.62855382993E-02  0.99761113915E-02  0.25759567604E-02  0.12080044058E-01  0.51100000000E-03 0. -1.
</event>
<event>
 8    1  0.1079508E+005  0.1043930E+01  0.7957747E-01            NaN
         13   -1    0    0    0    0  0.00000000000E+00  0.00000000000E+00  0.74505805969E-08  0.10566000000E+00  0.10566000000E+00 0. -1.
     999900   -1    0    0    0    0 -0.00000000000E+00 -0.00000000000E+00 -0.74505805969E-08  0.93827000000E+00  0.93827000000E+00 0. -1.
     999902    2    1    2    0    0  0.14173610865E-01 -0.17478723150E-01  0.56322564442E-02  0.10207326010E+01  0.10204689723E+01 0.  0.
     999903    2    3    3    0    0  0.11004553546E+00 -0.51720619325E-01  0.52363516525E-01  0.13363184908E+00  0.18179408355E-01 0.  0.
         14    1    1    2    0    0 -0.14173610865E-01  0.17478723150E-01 -0.56322564442E-02  0.23197399004E-01  0.00000000000E+00 0. -1.
     999901    1    3    3    0    0 -0.95871924595E-01  0.34241896175E-01 -0.46731260081E-01  0.88710075191E+00  0.88000000000E+00 0. -1.
        -11    1    4    4    0    0  0.93824077230E-01 -0.36479538584E-01  0.42111976995E-01  0.10912100591E+00  0.51100000000E-03 0. -1.
         11    1    4    4    0    0  0.16221458230E-01 -0.15241080741E-01  0.10251539530E-01  0.24510843172E-01  0.51100000000E-03 0.  1.
</event>
<event>
 8    1  0.1079508E+005  0.1043930E+01  0.7957747E-01            NaN
         13   -1    0    0    0    0  0.00000000000E+00  0.00000000000E+00  0.74505805969E-08  0.10566000000E+00  0.10566000000E+00 0. -1.
     999900   -1    0    0    0    0 -0.00000000000E+00 -0.00000000000E+00 -0.74505805969E-08  0.93827000000E+00  0.93827000000E+00 0.  1.
     999902    2    1    2    0    0 -0.12275777884E-01  0.18666483873E-01 -0.48236831196E-02  0.10210739229E+01  0.10208180816E+01 0.  0.
     999903    2    3    3    0    0  0.29087592561E-01 -0.39647353180E-01 -0.11953827523E+00  0.13075326735E+00  0.19723514458E-01 0.  0.
         14    1    1    2    0    0  0.12275777884E-01 -0.18666483873E-01  0.48236831196E-02  0.22856077128E-01  0.00000000000E+00 0. -1.
     999901    1    3    3    0    0 -0.41363370445E-01  0.58313837053E-01  0.11471459211E+00  0.89032065552E+00  0.88000000000E+00 0. -1.
        -11    1    4    4    0    0  0.22005524447E-01 -0.29663552226E-01 -0.64135663136E-01  0.74012254686E-01  0.51100000000E-03 0.  1.
         11    1    4    4    0    0  0.70820681141E-02 -0.99838009540E-02 -0.55402612094E-01  0.56741012664E-01  0.51100000000E-03 0. -1.
</event>
<event>
 8    1  0.1079508E+005  0.1043930E+01  0.7957747E-01            NaN
         13   -1    0    0    0    0  0.00000000000E+00  0.00000000000E+00  0.74505805969E-08  0.10566000000E+00  0.10566000000E+00 0. -1.
     999900   -1    0    0    0    0 -0.00000000000E+00 -0.00000000000E+00 -0.74505805969E-08  0.93827000000E+00  0.93827000000E+00 0.  1.
     999902    2    1    2    0    0  0.48238334675E-02 -0.15793472115E-01  0.15437650766E-01  0.10213241558E+01  0.10210739479E+01 0.  0.
     999903    2    3    3    0    0  0.50013049524E-01 -0.45283505008E-01 -0.11031363818E+00  0.13074843529E+00  0.19343050832E-01 0.  0.
         14    1    1    2    0    0 -0.48238334675E-02  0.15793472115E-01 -0.15437650766E-01  0.22605844199E-01  0.00000000000E+00 0.  1.
     999901    1    3    3    0    0 -0.45189216057E-01  0.29490032893E-01  0.12575128894E+00  0.89057572051E+00  0.88000000000E+00 0. -1.
        -11    1    4    4    0    0  0.23464443888E-02 -0.10986983200E-01 -0.21720778490E-01  0.24459618565E-01  0.51100000000E-03 0. -1.
         11    1    4    4    0    0  0.47666605135E-01 -0.34296521808E-01 -0.88592859686E-01  0.10628881673E+00  0.51100000000E-03 0.  1.
</event>
<event>
 8    1  0.1079508E+005  0.1043930E+01  0.7957747E-01            NaN
         13   -1    0    0    0    0  0.00000000000E+00  0.00000000000E+00  0.74505805969E-08  0.10566000000E+00  0.10566000000E+00 0. -1.
     999900   -1    0    0    0    0 -0.00000000000E+00 -0.00000000000E+00 -0.74505805969E-08  0.93827000000E+00  0.93827000000E+00 0.  1.
     999902    2    1    2    0    0  0.11405502564E-02  0.24897121685E-02 -0.23759100199E-01  0.10200135963E+01  0.10197331721E+01 0.  0.
     999903    2    3    3    0    0 -0.12172312812E+00  0.18178320568E-01 -0.40402045771E-01  0.13118368937E+00  0.20733156939E-01 0.  0.
         14    1    1    2    0    0 -0.11405502564E-02 -0.24897121685E-02  0.23759100199E-01  0.23916403656E-01  0.00000000000E+00 0. -1.
     999901    1    3    3    0    0  0.12286367837E+00 -0.15688608399E-01  0.16642945572E-01  0.88882990698E+00  0.88000000000E+00 0.  1.
        -11    1    4    4    0    0 -0.39740914134E-01  0.90493978388E-02 -0.23259612210E-01  0.46930827167E-01  0.51100000000E-03 0. -1.
         11    1    4    4    0    0 -0.81982213983E-01  0.91289227289E-02 -0.17142433562E-01  0.84252862201E-01  0.51100000000E-03 0.  1.
</event>
<event>
 8    1  0.1079508E+005  0.1043930E+01  0.7957747E-01            NaN
         13   -1    0    0    0    0  0.00000000000E+00  0.00000000000E+00  0.74505805969E-08  0.10566000000E+00  0.10566000000E+00 0. -1.
     999900   -1    0    0    0    0 -0.00000000000E+00 -0.00000000000E+00 -0.74505805969E-08  0.93827000000E+00  0.93827000000E+00 0.  1.
     999902    2    1    2    0    0  0.21591132091E-01  0.28472033515E-02 -0.14374810872E-01  0.10178355803E+01  0.10175010318E+01 0.  0.
     999903    2    3    3    0    0  0.54504503793E-01  0.28062017785E-02 -0.11766801846E+00  0.13118301111E+00  0.19611326625E-01 0.  0.
         14    1    1    2    0    0 -0.21591132091E-01 -0.28472033515E-02  0.14374810872E-01  0.26094419701E-01  0.00000000000E+00 0.  1.
     999901    1    3    3    0    0 -0.32913371701E-01  0.41001573038E-04  0.10329320759E+00  0.88665256919E+00  0.88000000000E+00 0. -1.
        -11    1    4    4    0    0  0.35258890511E-01 -0.70176617392E-02 -0.65593343452E-01  0.74800967658E-01  0.51100000000E-03 0.  1.
         11    1    4    4    0    0  0.19245613282E-01  0.98238635177E-02 -0.52074675013E-01  0.56382043451E-01  0.51100000000E-03 0. -1.
</event>
<event>
 8    1  0.1079508E+005  0.1043930E+01  0.7957747E-01            NaN
         13   -1    0    0    0    0  0.00000000000E+00  0.00000000000E+00  0.74505805969E-08  0.10566000000E+00  0.10566000000E+00 0.  1.
     999900   -1    0    0    0    0 -0.00000000000E+00 -0.00000000000E+00 -0.74505805969E-08  0.93827000000E+00  0.93827000000E+00 0. -1.
     999902    2    1    2    0    0 -0.10381216137E-01  0.13634008014E-01  0.16631616129E-01  0.10200497471E+01  0.10197701800E+01 0.  0.
     999903    2    3    3    0    0 -0.54629065973E-01 -0.11310201868E+00 -0.22717559048E-01  0.12900078647E+00  0.18673883911E-01 0.  0.
         14    1    1    2    0    0  0.10381216137E-01 -0.13634008014E-01 -0.16631616129E-01  0.23880252890E-01  0.00000000000E+00 0. -1.
     999901    1    3    3    0    0  0.44247849836E-01  0.12673602670E+00  0.39349175176E-01  0.89104896064E+00  0.88000000000E+00 0. -1.
        -11    1    4    4    0    0 -0.29543888960E-01 -0.71763837291E-01 -0.21890008832E-01  0.80636984847E-01  0.51100000000E-03 0.  1.
         11    1    4    4    0    0 -0.25085177014E-01 -0.41338181393E-01 -0.82755021595E-03  0.48363801619E-01  0.51100000000E-03 0. -1.
</event>
<event>
 8    1  0.1079508E+005  0.1043930E+01  0.7957747E-01            NaN
         13   -1    0    0    0    0  0.00000000000E+00  0.00000000000E+00  0.74505805969E-08  0.10566000000E+00  0.10566000000E+00 0. -1.
     999900   -1    0    0    0    0 -0.00000000000E+00 -0.00000000000E+00 -0.74505805969E-08  0.93827000000E+00  0.93827000000E+00 0. -1.
     999902    2    1    2    0    0 -0.11623212431E-02 -0.23075703015E-01 -0.47558218673E-02  0.10203406613E+01  0.10200679429E+01 0.  0.
     999903    2    3    3    0    0  0.11471422958E-01  0.10267843066E+00 -0.75044840208E-01  0.12853672557E+00  0.14680194496E-01 0.  0.
         14    1    1    2    0    0  0.11623212431E-02  0.23075703015E-01  0.47558218673E-02  0.23589338735E-01  0.00000000000E+00 0. -1.
     999901    1    3    3    0    0 -0.12633744201E-01 -0.12575413367E+00  0.70289018340E-01  0.89180393570E+00  0.88000000000E+00 0.  1.
        -11    1    4    4    0    0  0.37931214542E-02  0.28691516778E-01 -0.13261598288E-01  0.31839001485E-01  0.51100000000E-03 0.  1.
         11    1    4    4    0    0  0.76783015040E-02  0.73986913880E-01 -0.61783241919E-01  0.96697724081E-01  0.51100000000E-03 0. -1.
</event>
<event>
 8    1  0.1079508E+005  0.1043930E+01  0.7957747E-01            NaN
         13   -1    0    0    0    0  0.00000000000E+00  0.00000000000E+00  0.74505805969E-08  0.10566000000E+00  0.10566000000E+00 0.  1.
     999900   -1    0    0    0    0 -0.00000000000E+00 -0.00000000000E+00 -0.74505805969E-08  0.93827000000E+00  0.93827000000E+00 0. -1.
     999902    2    1    2    0    0  0.18946152694E-02  0.58422815804E-02  0.23825817205E-01  0.10193252975E+01  0.10190282973E+01 0.  0.
     999903    2    3    3    0    0 -0.17914959933E-01  0.12171761612E+00 -0.35706904870E-01  0.12951427404E+00  0.19048366385E-01 0.  0.
         14    1    1    2    0    0 -0.18946152694E-02 -0.58422815804E-02 -0.23825817205E-01  0.24604702529E-01  0.00000000000E+00 0. -1.
     999901    1    3    3    0    0  0.19809575202E-01 -0.11587533454E+00  0.59532722075E-01  0.88981102343E+00  0.88000000000E+00 0.  1.
        -11    1    4    4    0    0 -0.65416775379E-03  0.27126706702E-01 -0.58289241204E-03  0.27145663309E-01  0.51100000000E-03 0.  1.
         11    1    4    4    0    0 -0.17260792179E-01  0.94590909414E-01 -0.35124012458E-01  0.10236861073E+00  0.51100000000E-03 0. -1.
</event>
<event>
 8    1  0.1079508E+005  0.1043930E+01  0.7957747E-01            NaN
         13   -1    0    0    0    0  0.00000000000E+00  0.00000000000E+00  0.74505805969E-08  0.10566000000E+00  0.10566000000E+00 0.  1.
     999900   -1    0    0    0    0 -0.00000000000E+00 -0.00000000000E+00 -0.74505805969E-08  0.93827000000E+00  0.93827000000E+00 0.  1.
     999902    2    1    2    0    0 -0.15921038439E-01 -0.65164627848E-02  0.15877036866E-01  0.10205200865E+01  0.10202515488E+01 0.  0.
     999903    2    3    3    0    0  0.32580872672E-01  0.91571050125E-01 -0.81455516856E-01  0.12841738969E+00  0.20230033714E-01 0.  0.
         14    1    1    2    0    0  0.15921038439E-01  0.65164627848E-02 -0.15877036866E-01  0.23409913538E-01  0.00000000000E+00 0. -1.
     999901    1    3    3    0    0 -0.48501911111E-01 -0.98087512910E-01  0.97332553721E-01  0.89210269677E+00  0.88000000000E+00 0. -1.
        -11    1    4    4    0    0  0.10115418307E-01  0.37462505874E-01 -0.44955968675E-01  0.59389066961E-01  0.51100000000E-03 0. -1.
         11    1    4    4    0    0  0.22465454365E-01  0.54108544251E-01 -0.36499548180E-01  0.69028322732E-01  0.51100000000E-03 0.  1.
</event>
<event>
 8    1  0.1079508E+005  0.1043930E+01  0.7957747E-01            NaN
         13   -1    0    0    0    0  0.00000000000E+00  0.00000000000E+00  0.74505805969E-08  0.10566000000E+00  0.10566000000E+00 0.  1.
     999900   -1    0    0    0    0 -0.00000000000E+00 -0.00000000000E+00 -0.74505805969E-08  0.93827000000E+00  0.93827000000E+00 0.  1.
     999902    2    1    2    0    0  0.21516296323E-01  0.84493927056E-02 -0.50182868160E-02  0.10202756886E+01  0.10200014482E+01 0.  0.
     999903    2    3    3    0    0  0.12150710215E+00 -0.30804148720E-01 -0.40083515763E-01  0.13305047930E+00  0.19567073232E-01 0.  0.
         14    1    1    2    0    0 -0.21516296323E-01 -0.84493927056E-02  0.50182868160E-02  0.23654311386E-01  0.00000000000E+00 0.  1.
     999901    1    3    3    0    0 -0.99990805825E-01  0.39253541425E-01  0.35065228947E-01  0.88722520932E+00  0.88000000000E+00 0. -1.
        -11    1    4    4    0    0  0.43237964055E-01 -0.37014904326E-02 -0.20184734442E-01  0.47863422282E-01  0.51100000000E-03 0. -1.
         11    1    4    4    0    0  0.78269138094E-01 -0.27102658287E-01 -0.19898781320E-01  0.85187057017E-01  0.51100000000E-03 0.  1.
</event>
<event>
 8    1  0.1079508E+005  0.1043930E+01  0.7957747E-01            NaN
         13   -1    0    0    0    0  0.00000000000E+00  0.00000000000E+00  0.74505805969E-08  0.10566000000E+00  0.10566000000E+00 0.  1.
     999900   -1    0    0    0    0 -0.00000000000E+00 -0.00000000000E+00 -0.74505805969E-08  0.93827000000E+00  0.93827000000E+00 0. -1.
     999902    2    1    2    0    0 -0.12689067133E-01  0.18484584601E-01  0.75305266610E-02  0.10202783378E+01  0.10200041595E+01 0.  0.
     999903    2    3    3    0    0  0.90301021365E-01  0.93148925781E-01  0.46758032375E-02  0.13112712929E+00  0.18478746311E-01 0.  0.
         14    1    1    2    0    0  0.12689067133E-01 -0.18484584601E-01 -0.75305266610E-02  0.23651662190E-01  0.00000000000E+00 0. -1.
     999901    1    3    3    0    0 -0.10299008850E+00 -0.74664341180E-01  0.28547234235E-02  0.88915120852E+00  0.88000000000E+00 0. -1.
        -11    1    4    4    0    0  0.92605716454E-02  0.18984829795E-01  0.22095322141E-02  0.21244413457E-01  0.51100000000E-03 0.  1.
         11    1    4    4    0    0  0.81040449720E-01  0.74164095986E-01  0.24662710234E-02  0.10988271583E+00  0.51100000000E-03 0. -1.
</event>
<event>
 8    1  0.1079508E+005  0.1043930E+01  0.7957747E-01            NaN
         13   -1    0    0    0    0  0.00000000000E+00  0.00000000000E+00  0.74505805969E-08  0.10566000000E+00  0.10566000000E+00 0. -1.
     999900   -1    0    0    0    0 -0.00000000000E+00 -0.00000000000E+00 -0.74505805969E-08  0.93827000000E+00  0.93827000000E+00 0. -1.
     999902    2    1    2    0    0 -0.75519376051E-02  0.88440849701E-02  0.20301037447E-01  0.10205338097E+01  0.10202655904E+01 0.  0.
     999903    2    3    3    0    0  0.22538124144E-02  0.91825273570E-01 -0.89545743132E-01  0.12977663423E+00  0.19661488807E-01 0.  0.
         14    1    1    2    0    0  0.75519376051E-02 -0.88440849701E-02 -0.20301037447E-01  0.23396190331E-01  0.00000000000E+00 0.  1.
     999901    1    3    3    0    0 -0.98057500196E-02 -0.82981188600E-01  0.10984678058E+00  0.89075717544E+00  0.88000000000E+00 0. -1.
        -11    1    4    4    0    0 -0.87274858030E-02  0.44123669485E-01 -0.43045039650E-01  0.62259166206E-01  0.51100000000E-03 0.  1.
         11    1    4    4    0    0  0.10981298217E-01  0.47701604085E-01 -0.46500703482E-01  0.67517468023E-01  0.51100000000E-03 0. -1.
</event>
<event>
 8    1  0.1079508E+005  0.1043930E+01  0.7957747E-01            NaN
         13   -1    0    0    0    0  0.00000000000E+00  0.00000000000E+00  0.74505805969E-08  0.10566000000E+00  0.10566000000E+00 0.  1.
     999900   -1    0    0    0    0 -0.00000000000E+00 -0.00000000000E+00 -0.74505805969E-08  0.93827000000E+00  0.93827000000E+00 0. -1.
     999902    2    1    2    0    0 -0.58108301544E-02  0.15134578220E-01 -0.14223852454E-01  0.10223629143E+01  0.10221354066E+01 0.  0.
     999903    2    3    3    0    0 -0.23511480989E-01  0.12990234902E+00  0.10494960361E-01  0.13438995645E+00  0.22871514621E-01 0.  0.
         14    1    1    2    0    0  0.58108301544E-02 -0.15134578220E-01  0.14223852454E-01  0.21567085654E-01  0.00000000000E+00 0.  1.
     999901    1    3    3    0    0  0.17700650834E-01 -0.11476777080E+00 -0.24718812815E-01  0.88797295790E+00  0.88000000000E+00 0. -1.
        -11    1    4    4    0    0 -0.18818653388E-01  0.58144946097E-01 -0.31359432677E-02  0.61196991210E-01  0.51100000000E-03 0.  1.
         11    1    4    4    0    0 -0.46928276005E-02  0.71757402924E-01  0.13630903629E-01  0.73192965236E-01  0.51100000000E-03 0. -1.
</event>
<event>
 8    1  0.1079508E+005  0.1043930E+01  0.7957747E-01            NaN
         13   -1    0    0    0    0  0.00000000000E+00  0.00000000000E+00  0.74505805969E-08  0.10566000000E+00  0.10566000000E+00 0. -1.
     999900   -1    0    0    0    0 -0.00000000000E+00 -0.00000000000E+00 -0.74505805969E-08  0.93827000000E+00  0.93827000000E+00 0. -1.
     999902    2    1    2    0    0 -0.57968082231E-02 -0.95944410782E-02 -0.22646903036E-01  0.10186606806E+01  0.10183472118E+01 0.  0.
     999903    2    3    3    0    0 -0.70224045606E-01 -0.96550207642E-01  0.47096621463E-01  0.12929217799E+00  0.15652998370E-01 0.  0.
         14    1    1    2    0    0  0.57968082231E-02  0.95944410782E-02  0.22646903036E-01  0.25269319387E-01  0.00000000000E+00 0. -1.
     999901    1    3    3    0    0  0.64427237383E-01  0.86955766564E-01 -0.69743524499E-01  0.88936850263E+00  0.88000000000E+00 0. -1.
        -11    1    4    4    0    0 -0.13599690219E-01 -0.30215178012E-01  0.11264406135E-01  0.35000807461E-01  0.51100000000E-03 0.  1.
         11    1    4    4    0    0 -0.56624355388E-01 -0.66335029630E-01  0.35832215328E-01  0.94291370525E-01  0.51100000000E-03 0. -1.
</event>
<event>
 8    1  0.1079508E+005  0.1043930E+01  0.7957747E-01            NaN
         13   -1    0    0    0    0  0.00000000000E+00  0.00000000000E+00  0.74505805969E-08  0.10566000000E+00  0.10566000000E+00 0.  1.
     999900   -1    0    0    0    0 -0.00000000000E+00 -0.00000000000E+00 -0.74505805969E-08  0.93827000000E+00  0.93827000000E+00 0.  1.
     999902    2    1    2    0    0 -0.71751709026E-02  0.62530974893E-02  0.23007201890E-01  0.10190318948E+01  0.10187276804E+01 0.  0.
     999903    2    3    3    0    0 -0.81193108658E-01 -0.63386380797E-01  0.79696480202E-01  0.13137093115E+00  0.17223194541E-01 0.  0.
         14    1    1    2    0    0  0.71751709026E-02 -0.62530974893E-02 -0.23007201890E-01  0.24898105239E-01  0.00000000000E+00 0. -1.
     999901    1    3    3    0    0  0.74017937755E-01  0.69639478286E-01 -0.56689278312E-01  0.88766096361E+00  0.88000000000E+00 0.  1.
        -11    1    4    4    0    0 -0.50372918245E-01 -0.44389926263E-01  0.42509596964E-01  0.79468379883E-01  0.51100000000E-03 0.  1.
         11    1    4    4    0    0 -0.30820190413E-01 -0.18996454534E-01  0.37186883238E-01  0.51902551266E-01  0.51100000000E-03 0. -1.
</event>
<event>
 8    1  0.1079508E+005  0.1043930E+01  0.7957747E-01            NaN
         13   -1    0    0    0    0  0.00000000000E+00  0.00000000000E+00  0.74505805969E-08  0.10566000000E+00  0.10566000000E+00 0.  1.
     999900   -1    0    0    0    0 -0.00000000000E+00 -0.00000000000E+00 -0.74505805969E-08  0.93827000000E+00  0.93827000000E+00 0.  1.
     999902    2    1    2    0    0  0.67953213466E-02 -0.13361572579E-01 -0.17820327149E-01  0.10206432640E+01  0.10203775773E+01 0.  0.
     999903    2    3    3    0    0 -0.11307182450E+00  0.42519333296E-01  0.40367344364E-01  0.12886043538E+00  0.19553979568E-01 0.  0.
         14    1    1    2    0    0 -0.67953213466E-02  0.13361572579E-01  0.17820327149E-01  0.23286736003E-01  0.00000000000E+00 0.  1.
     999901    1    3    3    0    0  0.11986714584E+00 -0.55880905875E-01 -0.58187671513E-01  0.89178282861E+00  0.88000000000E+00 0.  1.
        -11    1    4    4    0    0 -0.10091067708E+00  0.43823378099E-01  0.34608497567E-01  0.11533196626E+00  0.51100000000E-03 0. -1.
         11    1    4    4    0    0 -0.12161147422E-01 -0.13040448024E-02  0.57588467971E-02  0.13528469126E-01  0.51100000000E-03 0.  1.
</event>
