<event>
 7    1  0.1103774E+005  0.1043930E+01  0.7957747E-01            NaN
         13   -1    0    0    0    0  0.00000000000E+00  0.00000000000E+00  0.74505805969E-08  0.10566000000E+00  0.10566000000E+00 0.  1.
     999900   -1    0    0    0    0 -0.00000000000E+00 -0.00000000000E+00 -0.74505805969E-08  0.93827000000E+00  0.93827000000E+00 0. -1.
     999902    2    1    2    0    0  0.11150999969E-01  0.19745945667E-01  0.11103741955E-01  0.10186804405E+01  0.10183674678E+01 0.  0.
         14    1    1    2    0    0 -0.11150999969E-01 -0.19745945667E-01 -0.11103741955E-01  0.25249559521E-01  0.00000000000E+00 0. -1.
     999901    1    3    3    0    0 -0.83337721885E-01  0.78013725641E-01 -0.40141737883E-01  0.88828074188E+00  0.88000000000E+00 0.  1.
        -11    1    3    3    0    0  0.22124828128E-01 -0.37682687856E-01  0.26927400909E-01  0.51330683070E-01  0.51100000000E-03 0. -1.
         11    1    3    3    0    0  0.72363893726E-01 -0.20585092118E-01  0.24318078930E-01  0.79069015528E-01  0.51100000000E-03 0.  1.
</event>
<event>
 8    1  0.1103774E+005  0.1043930E+01  0.7957747E-01            NaN
         13   -1    0    0    0    0  0.00000000000E+00  0.00000000000E+00  0.74505805969E-08  0.10566000000E+00  0.10566000000E+00 0. -1.
     999900   -1    0    0    0    0 -0.00000000000E+00 -0.00000000000E+00 -0.74505805969E-08  0.93827000000E+00  0.93827000000E+00 0. -1.
     999902    2    1    2    0    0 -0.64435672068E-02  0.21727905536E-01  0.50900226280E-02  0.10207022199E+01  0.10204378923E+01 0.  0.
     999903    2    3    3    0    0 -0.11571506240E+00 -0.53569296678E-01  0.19762961446E-01  0.13063187244E+00  0.20358443948E-01 0.  0.
         14    1    1    2    0    0  0.64435672068E-02 -0.21727905536E-01 -0.50900226280E-02  0.23227780085E-01  0.00000000000E+00 0.  1.
     999901    1    3    3    0    0  0.10927149519E+00  0.75297202214E-01 -0.14672938818E-01  0.89007034748E+00  0.88000000000E+00 0. -1.
        -11    1    4    4    0    0 -0.53610318856E-01 -0.32550789842E-01  0.22264033547E-02  0.62760164118E-01  0.51100000000E-03 0. -1.
         11    1    4    4    0    0 -0.62104743540E-01 -0.21018506836E-01  0.17536558091E-01  0.67871708321E-01  0.51100000000E-03 0.  1.
</event>
<event>
 8    1  0.1103774E+005  0.1043930E+01  0.7957747E-01            NaN
         13   -1    0    0    0    0  0.00000000000E+00  0.00000000000E+00  0.74505805969E-08  0.10566000000E+00  0.10566000000E+00 0.  1.
     999900   -1    0    0    0    0 -0.00000000000E+00 -0.00000000000E+00 -0.74505805969E-08  0.93827000000E+00  0.93827000000E+00 0.  1.
     999902    2    1    2    0    0 -0.18836423245E-01  0.28258673065E-02 -0.14595406042E-01  0.10199337035E+01  0.10196513803E+01 0.  0.
     999903    2    3    3    0    0 -0.79612009505E-01 -0.67091693944E-01 -0.79923685155E-01  0.13266265063E+00  0.19292899492E-01 0.  0.
         14    1    1    2    0    0  0.18836423245E-01 -0.28258673065E-02  0.14595406042E-01  0.23996296469E-01  0.00000000000E+00 0. -1.
     999901    1    3    3    0    0  0.60775586260E-01  0.69917561251E-01  0.65328279113E-01  0.88727105290E+00  0.88000000000E+00 0. -1.
        -11    1    4    4    0    0 -0.40436103182E-01 -0.40954949673E-01 -0.33823174185E-01  0.66758179845E-01  0.51100000000E-03 0.  1.
         11    1    4    4    0    0 -0.39175906323E-01 -0.26136744272E-01 -0.46100510970E-01  0.65904470789E-01  0.51100000000E-03 0. -1.
</event>
<event>
 8    1  0.1103774E+005  0.1043930E+01  0.7957747E-01            NaN
         13   -1    0    0    0    0  0.00000000000E+00  0.00000000000E+00  0.74505805969E-08  0.10566000000E+00  0.10566000000E+00 0.  1.
     999900   -1    0    0    0    0 -0.00000000000E+00 -0.00000000000E+00 -0.74505805969E-08  0.93827000000E+00  0.93827000000E+00 0.  1.
     999902    2    1    2    0    0  0.75990605466E-03  0.33028764319E-02  0.22299581365E-01  0.10213743404E+01  0.10211252546E+01 0.  0.
     999903    2    3    3    0    0  0.30448371313E-01 -0.40872730425E-01  0.12372931496E+00  0.13395060845E+00  0.60115484740E-02 0.  0.
         14    1    1    2    0    0 -0.75990605466E-03 -0.33028764319E-02 -0.22299581365E-01  0.22555659578E-01  0.00000000000E+00 0. -1.
     999901    1    3    3    0    0 -0.29688465258E-01  0.44175606857E-01 -0.10142973360E+00  0.88742373197E+00  0.88000000000E+00 0. -1.
        -11    1    4    4    0    0  0.55295661647E-02 -0.65443343616E-02  0.15747590321E-01  0.17934662978E-01  0.51100000000E-03 0. -1.
         11    1    4    4    0    0  0.24918805148E-01 -0.34328396063E-01  0.10798172464E+00  0.11601594547E+00  0.51100000000E-03 0.  1.
</event>
<event>
 8    1  0.1103774E+005  0.1043930E+01  0.7957747E-01            NaN
         13   -1    0    0    0    0  0.00000000000E+00  0.00000000000E+00  0.74505805969E-08  0.10566000000E+00  0.10566000000E+00 0.  1.
     999900   -1    0    0    0    0 -0.00000000000E+00 -0.00000000000E+00 -0.74505805969E-08  0.93827000000E+00  0.93827000000E+00 0. -1.
     999902    2    1    2    0    0 -0.12649098757E-01 -0.17881788754E-01  0.95075098671E-02  0.10200521690E+01  0.10197726593E+01 0.  0.
     999903    2    3    3    0    0 -0.39214119456E-01  0.10426824471E+00 -0.62069237272E-01  0.12834057790E+00  0.14460280102E-01 0.  0.
         14    1    1    2    0    0  0.12649098757E-01  0.17881788754E-01 -0.95075098671E-02  0.23877830980E-01  0.00000000000E+00 0.  1.
     999901    1    3    3    0    0  0.26565020699E-01 -0.12215003347E+00  0.71576747139E-01  0.89171159112E+00  0.88000000000E+00 0.  1.
        -11    1    4    4    0    0 -0.11838805537E-01  0.47199227428E-01 -0.32177361705E-01  0.58340107247E-01  0.51100000000E-03 0. -1.
         11    1    4    4    0    0 -0.27375313919E-01  0.57069017286E-01 -0.29891875567E-01  0.70000470656E-01  0.51100000000E-03 0.  1.
</event>
<event>
 8    1  0.1103774E+005  0.1043930E+01  0.7957747E-01            NaN
         13   -1    0    0    0    0  0.00000000000E+00  0.00000000000E+00  0.74505805969E-08  0.10566000000E+00  0.10566000000E+00 0.  1.
     999900   -1    0    0    0    0 -0.00000000000E+00 -0.00000000000E+00 -0.74505805969E-08  0.93827000000E+00  0.93827000000E+00 0. -1.
     999902    2    1    2    0    0  0.75182179295E-02 -0.88994077493E-02  0.20023923864E-01  0.10207636324E+01  0.10205007167E+01 0.  0.
     999903    2    3    3    0    0  0.10431221313E+00  0.54896065666E-01 -0.51496309554E-01  0.13028393939E+00  0.20674117482E-01 0.  0.
         14    1    1    2    0    0 -0.75182179295E-02  0.88994077493E-02 -0.20023923864E-01  0.23166367562E-01  0.00000000000E+00 0.  1.
     999901    1    3    3    0    0 -0.96793995196E-01 -0.63795473415E-01  0.71520233418E-01  0.89047969304E+00  0.88000000000E+00 0.  1.
        -11    1    4    4    0    0  0.65728398087E-01  0.33027879191E-01 -0.21145811327E-01  0.76540640032E-01  0.51100000000E-03 0. -1.
         11    1    4    4    0    0  0.38583815039E-01  0.21868186475E-01 -0.30350498227E-01  0.53743299362E-01  0.51100000000E-03 0.  1.
</event>
<event>
 8    1  0.1103774E+005  0.1043930E+01  0.7957747E-01            NaN
         13   -1    0    0    0    0  0.00000000000E+00  0.00000000000E+00  0.74505805969E-08  0.10566000000E+00  0.10566000000E+00 0. -1.
     999900   -1    0    0    0    0 -0.00000000000E+00 -0.00000000000E+00 -0.74505805969E-08  0.93827000000E+00  0.93827000000E+00 0. -1.
     999902    2    1    2    0    0  0.71461803024E-02  0.83097532091E-02  0.22545762164E-01  0.10188614683E+01  0.10185530228E+01 0.  0.
     999903    2    3    3    0    0  0.43181856609E-01  0.59182107546E-02  0.12348782619E+00  0.13235507251E+00  0.19207395561E-01 0.  0.
         14    1    1    2    0    0 -0.71461803024E-02 -0.83097532091E-02 -0.22545762164E-01  0.25068531725E-01  0.00000000000E+00 0.  1.
     999901    1    3    3    0    0 -0.36035676306E-01  0.23915424545E-02 -0.10094206402E+00  0.88650639576E+00  0.88000000000E+00 0. -1.
        -11    1    4    4    0    0  0.24529222598E-01 -0.49791371704E-02  0.79458851143E-01  0.83309331495E-01  0.51100000000E-03 0.  1.
         11    1    4    4    0    0  0.18652634011E-01  0.10897347925E-01  0.44028975043E-01  0.49045741015E-01  0.51100000000E-03 0. -1.
</event>
<event>
 8    1  0.1103774E+005  0.1043930E+01  0.7957747E-01            NaN
         13   -1    0    0    0    0  0.00000000000E+00  0.00000000000E+00  0.74505805969E-08  0.10566000000E+00  0.10566000000E+00 0.  1.
     999900   -1    0    0    0    0 -0.00000000000E+00 -0.00000000000E+00 -0.74505805969E-08  0.93827000000E+00  0.93827000000E+00 0.  1.
     999902    2    1    2    0    0 -0.18334292632E-01  0.68537730108E-02  0.12023478580E-01  0.10209586150E+01  0.10207001563E+01 0.  0.
     999903    2    3    3    0    0 -0.65463044934E-01  0.99987824567E-01  0.56347410273E-01  0.13368206187E+00  0.20319638449E-01 0.  0.
         14    1    1    2    0    0  0.18334292632E-01 -0.68537730108E-02 -0.12023478580E-01  0.22971384981E-01  0.00000000000E+00 0. -1.
     999901    1    3    3    0    0  0.47128752302E-01 -0.93134051556E-01 -0.44323931693E-01  0.88727655315E+00  0.88000000000E+00 0.  1.
        -11    1    4    4    0    0 -0.34793268396E-01  0.68131563917E-01  0.29800489596E-01  0.82102447154E-01  0.51100000000E-03 0. -1.
         11    1    4    4    0    0 -0.30669776538E-01  0.31856260650E-01  0.26546920677E-01  0.51579614713E-01  0.51100000000E-03 0.  1.
</event>
<event>
 8    1  0.1103774E+005  0.1043930E+01  0.7957747E-01            NaN
         13   -1    0    0    0    0  0.00000000000E+00  0.00000000000E+00  0.74505805969E-08  0.10566000000E+00  0.10566000000E+00 0.  1.
     999900   -1    0    0    0    0 -0.00000000000E+00 -0.00000000000E+00 -0.74505805969E-08  0.93827000000E+00  0.93827000000E+00 0.  1.
     999902    2    1    2    0    0 -0.73136253372E-02  0.35058237202E-01  0.81603224134E-02  0.10071990870E+01  0.10065291058E+01 0.  0.
     999903    2    3    3    0    0 -0.25419583355E-02  0.66289800166E-01  0.10016372649E+00  0.12183881808E+00  0.20276250392E-01 0.  0.
         14    1    1    2    0    0  0.73136253372E-02 -0.35058237202E-01 -0.81603224134E-02  0.36730913046E-01  0.00000000000E+00 0. -1.
     999901    1    3    3    0    0 -0.47716670017E-02 -0.31231562964E-01 -0.92003404075E-01  0.88536026887E+00  0.88000000000E+00 0.  1.
        -11    1    4    4    0    0 -0.79819232149E-02  0.26327900212E-01  0.28572581945E-01  0.39667656697E-01  0.51100000000E-03 0. -1.
         11    1    4    4    0    0  0.54399648794E-02  0.39961899953E-01  0.71591144544E-01  0.82171161388E-01  0.51100000000E-03 0.  1.
</event>
<event>
 8    1  0.1103774E+005  0.1043930E+01  0.7957747E-01            NaN
         13   -1    0    0    0    0  0.00000000000E+00  0.00000000000E+00  0.74505805969E-08  0.10566000000E+00  0.10566000000E+00 0. -1.
     999900   -1    0    0    0    0 -0.00000000000E+00 -0.00000000000E+00 -0.74505805969E-08  0.93827000000E+00  0.93827000000E+00 0. -1.
     999902    2    1    2    0    0 -0.48117652632E-02 -0.15067025041E-01  0.21741799693E-02  0.10279645565E+01  0.10278405684E+01 0.  0.
     999903    2    3    3    0    0 -0.21651472511E-01  0.11258112550E-01  0.13393127937E+00  0.13760703174E+00  0.20064302393E-01 0.  0.
         14    1    1    2    0    0  0.48117652632E-02  0.15067025041E-01 -0.21741799693E-02  0.15965443529E-01  0.00000000000E+00 0. -1.
     999901    1    3    3    0    0  0.16839707247E-01 -0.26325137592E-01 -0.13175709940E+00  0.89035752473E+00  0.88000000000E+00 0. -1.
        -11    1    4    4    0    0 -0.13801404358E-01  0.16753333873E-01  0.10092921361E+00  0.10323817239E+00  0.51100000000E-03 0. -1.
         11    1    4    4    0    0 -0.78500681529E-02 -0.54952213225E-02  0.33002065758E-01  0.34368859345E-01  0.51100000000E-03 0.  1.
</event>
<event>
 8    1  0.1103774E+005  0.1043930E+01  0.7957747E-01            NaN
         13   -1    0    0    0    0  0.00000000000E+00  0.00000000000E+00  0.74505805969E-08  0.10566000000E+00  0.10566000000E+00 0. -1.
     999900   -1    0    0    0    0 -0.00000000000E+00 -0.00000000000E+00 -0.74505805969E-08  0.93827000000E+00  0.93827000000E+00 0.  1.
     999902    2    1    2    0    0  0.12325686362E-01  0.15491868999E-02 -0.20802133062E-01  0.10197008592E+01  0.10194129639E+01 0.  0.
     999903    2    3    3    0    0 -0.14835367688E-01 -0.19676567096E-01  0.12328592181E+00  0.12731662410E+00  0.20071094342E-01 0.  0.
         14    1    1    2    0    0 -0.12325686362E-01 -0.15491868999E-02  0.20802133062E-01  0.24229140808E-01  0.00000000000E+00 0. -1.
     999901    1    3    3    0    0  0.27161054050E-01  0.21225753996E-01 -0.14408805487E+00  0.89238423510E+00  0.88000000000E+00 0.  1.
        -11    1    4    4    0    0  0.20467161571E-02 -0.13704686593E-01  0.54413656508E-01  0.56152601162E-01  0.51100000000E-03 0. -1.
         11    1    4    4    0    0 -0.16882083845E-01 -0.59718805029E-02  0.68872265301E-01  0.71164022936E-01  0.51100000000E-03 0.  1.
</event>
<event>
 8    1  0.1103774E+005  0.1043930E+01  0.7957747E-01            NaN
         13   -1    0    0    0    0  0.00000000000E+00  0.00000000000E+00  0.74505805969E-08  0.10566000000E+00  0.10566000000E+00 0.  1.
     999900   -1    0    0    0    0 -0.00000000000E+00 -0.00000000000E+00 -0.74505805969E-08  0.93827000000E+00  0.93827000000E+00 0. -1.
     999902    2    1    2    0    0  0.58126269541E-02  0.47613390004E-02 -0.23690907424E-01  0.10190761054E+01  0.10187729838E+01 0.  0.
     999903    2    3    3    0    0 -0.75934690636E-01 -0.10130068652E-02 -0.10568897838E+00  0.13147278713E+00  0.18650205855E-01 0.  0.
         14    1    1    2    0    0 -0.58126269541E-02 -0.47613390004E-02  0.23690907424E-01  0.24853894579E-01  0.00000000000E+00 0.  1.
     999901    1    3    3    0    0  0.81747317590E-01  0.57743458655E-02  0.81998070960E-01  0.88760331829E+00  0.88000000000E+00 0.  1.
        -11    1    4    4    0    0 -0.34032277088E-01  0.77979881097E-02 -0.40464752640E-01  0.53447748593E-01  0.51100000000E-03 0. -1.
         11    1    4    4    0    0 -0.41902413548E-01 -0.88109949749E-02 -0.65224225744E-01  0.78025038536E-01  0.51100000000E-03 0.  1.
</event>
<event>
 8    1  0.1103774E+005  0.1043930E+01  0.7957747E-01            NaN
         13   -1    0    0    0    0  0.00000000000E+00  0.00000000000E+00  0.74505805969E-08  0.10566000000E+00  0.10566000000E+00 0.  1.
     999900   -1    0    0    0    0 -0.00000000000E+00 -0.00000000000E+00 -0.74505805969E-08  0.93827000000E+00  0.93827000000E+00 0. -1.
     999902    2    1    2    0    0  0.12070392896E-01 -0.11929792463E-01 -0.10941241663E-01  0.10237377960E+01  0.10235386411E+01 0.  0.
     999903    2    3    3    0    0  0.13285539289E+00 -0.19763217779E-01 -0.18375493602E-02  0.13540606969E+00  0.17037808627E-01 0.  0.
         14    1    1    2    0    0 -0.12070392896E-01  0.11929792463E-01  0.10941241663E-01  0.20192203990E-01  0.00000000000E+00 0.  1.
     999901    1    3    3    0    0 -0.12078500000E+00  0.78334253159E-02 -0.91036923025E-02  0.88833172632E+00  0.88000000000E+00 0. -1.
        -11    1    4    4    0    0  0.11807450211E+00 -0.20395501156E-01  0.29121211824E-02  0.11985952647E+00  0.51100000000E-03 0.  1.
         11    1    4    4    0    0  0.14780890785E-01  0.63228337723E-03 -0.47496705425E-02  0.15546543215E-01  0.51100000000E-03 0. -1.
</event>
<event>
 8    1  0.1103774E+005  0.1043930E+01  0.7957747E-01            NaN
         13   -1    0    0    0    0  0.00000000000E+00  0.00000000000E+00  0.74505805969E-08  0.10566000000E+00  0.10566000000E+00 0.  1.
     999900   -1    0    0    0    0 -0.00000000000E+00 -0.00000000000E+00 -0.74505805969E-08  0.93827000000E+00  0.93827000000E+00 0. -1.
     999902    2    1    2    0    0 -0.34764131693E-02 -0.16542868031E-01  0.17071741993E-01  0.10199050899E+01  0.10196220849E+01 0.  0.
     999903    2    3    3    0    0  0.11923357006E+00 -0.38533981972E-01  0.33136526314E-01  0.13097346914E+00  0.18828389357E-01 0.  0.
         14    1    1    2    0    0  0.34764131693E-02  0.16542868031E-01 -0.17071741993E-01  0.24024910112E-01  0.00000000000E+00 0.  1.
     999901    1    3    3    0    0 -0.12270998323E+00  0.21991113942E-01 -0.16064784321E-01  0.88893162075E+00  0.88000000000E+00 0. -1.
        -11    1    4    4    0    0  0.53453049588E-01 -0.20209049699E-01  0.24364846615E-01  0.62125204801E-01  0.51100000000E-03 0.  1.
         11    1    4    4    0    0  0.65780520471E-01 -0.18324932274E-01  0.87716796996E-02  0.68848264336E-01  0.51100000000E-03 0. -1.
</event>
<event>
 8    1  0.1103774E+005  0.1043930E+01  0.7957747E-01            NaN
         13   -1    0    0    0    0  0.00000000000E+00  0.00000000000E+00  0.74505805969E-08  0.10566000000E+00  0.10566000000E+00 0.  1.
     999900   -1    0    0    0    0 -0.00000000000E+00 -0.00000000000E+00 -0.74505805969E-08  0.93827000000E+00  0.93827000000E+00 0. -1.
     999902    2    1    2    0    0  0.10325483635E-01 -0.17864605733E-01  0.17772219852E-01  0.10166974542E+01  0.10163326728E+01 0.  0.
     999903    2    3    3    0    0 -0.10707143276E+00 -0.23742905878E-01  0.62354943522E-01  0.12776314303E+00  0.20180793903E-01 0.  0.
         14    1    1    2    0    0 -0.10325483635E-01  0.17864605733E-01 -0.17772219852E-01  0.27232545764E-01  0.00000000000E+00 0. -1.
     999901    1    3    3    0    0  0.11739691639E+00  0.58783001450E-02 -0.44582723669E-01  0.88893431121E+00  0.88000000000E+00 0.  1.
        -11    1    4    4    0    0 -0.28965078257E-01 -0.11681633214E-01  0.93673019857E-02  0.32610485744E-01  0.51100000000E-03 0.  1.
         11    1    4    4    0    0 -0.78106354501E-01 -0.12061272664E-01  0.52987641536E-01  0.95152657285E-01  0.51100000000E-03 0. -1.
</event>
<event>
 8    1  0.1103774E+005  0.1043930E+01  0.7957747E-01            NaN
         13   -1    0    0    0    0  0.00000000000E+00  0.00000000000E+00  0.74505805969E-08  0.10566000000E+00  0.10566000000E+00 0.  1.
     999900   -1    0    0    0    0 -0.00000000000E+00 -0.00000000000E+00 -0.74505805969E-08  0.93827000000E+00  0.93827000000E+00 0. -1.
     999902    2    1    2    0    0 -0.23397368962E-01 -0.21146158563E-02 -0.18029060233E-01  0.10143165658E+01  0.10138841848E+01 0.  0.
     999903    2    3    3    0    0 -0.22339051326E-01 -0.31495672861E-01  0.11580505688E+00  0.12371231164E+00  0.20072723522E-01 0.  0.
         14    1    1    2    0    0  0.23397368962E-01  0.21146158563E-02  0.18029060233E-01  0.29613434240E-01  0.00000000000E+00 0. -1.
     999901    1    3    3    0    0 -0.10583176363E-02  0.29381057004E-01 -0.13383411712E+00  0.89060425412E+00  0.88000000000E+00 0. -1.
        -11    1    4    4    0    0 -0.71594874614E-02 -0.18730978974E-01  0.82870210812E-01  0.85263361388E-01  0.51100000000E-03 0.  1.
         11    1    4    4    0    0 -0.15179563865E-01 -0.12764693886E-01  0.32934846070E-01  0.38448950256E-01  0.51100000000E-03 0. -1.
</event>
<event>
 8    1  0.1103774E+005  0.1043930E+01  0.7957747E-01            NaN
         13   -1    0    0    0    0  0.00000000000E+00  0.00000000000E+00  0.74505805969E-08  0.10566000000E+00  0.10566000000E+00 0.  1.
     999900   -1    0    0    0    0 -0.00000000000E+00 -0.00000000000E+00 -0.74505805969E-08  0.93827000000E+00  0.93827000000E+00 0. -1.
     999902    2    1    2    0    0  0.18301277684E-02 -0.24124165194E-01 -0.53571246499E-02  0.10191505025E+01  0.10188492151E+01 0.  0.
     999903    2    3    3    0    0  0.93790639390E-01 -0.12043097560E-01  0.86248617319E-01  0.12954705156E+00  0.20047302603E-01 0.  0.
         14    1    1    2    0    0 -0.18301277684E-02  0.24124165194E-01  0.53571246499E-02  0.24779497543E-01  0.00000000000E+00 0.  1.
     999901    1    3    3    0    0 -0.91960511621E-01 -0.12081067634E-01 -0.91605741968E-01  0.88960345090E+00  0.88000000000E+00 0. -1.
        -11    1    4    4    0    0  0.25944797428E-01 -0.34592701619E-02  0.12636932600E-01  0.29069782424E-01  0.51100000000E-03 0. -1.
         11    1    4    4    0    0  0.67845841962E-01 -0.85838273983E-02  0.73611684718E-01  0.10047726913E+00  0.51100000000E-03 0.  1.
</event>
<event>
 8    1  0.1103774E+005  0.1043930E+01  0.7957747E-01            NaN
         13   -1    0    0    0    0  0.00000000000E+00  0.00000000000E+00  0.74505805969E-08  0.10566000000E+00  0.10566000000E+00 0. -1.
     999900   -1    0    0    0    0 -0.00000000000E+00 -0.00000000000E+00 -0.74505805969E-08  0.93827000000E+00  0.93827000000E+00 0.  1.
     999902    2    1    2    0    0 -0.14711639932E-01  0.77965722335E-03  0.19329799761E-01  0.10196260626E+01  0.10193363656E+01 0.  0.
     999903    2    3    3    0    0  0.29290781375E-01 -0.12171018594E+00 -0.22196594131E-01  0.12908442058E+00  0.22333374344E-01 0.  0.
         14    1    1    2    0    0  0.14711639932E-01 -0.77965722335E-03 -0.19329799761E-01  0.24303937411E-01  0.00000000000E+00 0.  1.
     999901    1    3    3    0    0 -0.44002421307E-01  0.12248984317E+00  0.41526393891E-01  0.89054164201E+00  0.88000000000E+00 0. -1.
        -11    1    4    4    0    0 -0.74948362190E-03 -0.23431003277E-01  0.19089316630E-02  0.23526129758E-01  0.51100000000E-03 0.  1.
         11    1    4    4    0    0  0.30040264997E-01 -0.98279182667E-01 -0.24105525794E-01  0.10555829082E+00  0.51100000000E-03 0. -1.
</event>
<event>
 8    1  0.1103774E+005  0.1043930E+01  0.7957747E-01            NaN
         13   -1    0    0    0    0  0.00000000000E+00  0.00000000000E+00  0.74505805969E-08  0.10566000000E+00  0.10566000000E+00 0.  1.
     999900   -1    0    0    0    0 -0.00000000000E+00 -0.00000000000E+00 -0.74505805969E-08  0.93827000000E+00  0.93827000000E+00 0.  1.
     999902    2    1    2    0    0 -0.63025272446E-02  0.68190865404E-02 -0.22071560436E-01  0.10199847380E+01  0.10197036286E+01 0.  0.
     999903    2    3    3    0    0 -0.11644013854E+00 -0.54085611238E-01  0.11542354689E-01  0.13039518609E+00  0.19649921045E-01 0.  0.
         14    1    1    2    0    0  0.63025272446E-02 -0.68190865404E-02  0.22071560436E-01  0.23945261974E-01  0.00000000000E+00 0.  1.
     999901    1    3    3    0    0  0.11013761129E+00  0.60904697779E-01 -0.33613915125E-01  0.88958955194E+00  0.88000000000E+00 0.  1.
        -11    1    4    4    0    0 -0.30547090915E-01 -0.22758480910E-01  0.78182538819E-02  0.38890351393E-01  0.51100000000E-03 0.  1.
         11    1    4    4    0    0 -0.85893047621E-01 -0.31327130328E-01  0.37241008073E-02  0.91504834692E-01  0.51100000000E-03 0. -1.
</event>
<event>
 8    1  0.1103774E+005  0.1043930E+01  0.7957747E-01            NaN
         13   -1    0    0    0    0  0.00000000000E+00  0.00000000000E+00  0.74505805969E-08  0.10566000000E+00  0.10566000000E+00 0. -1.
     999900   -1    0    0    0    0 -0.00000000000E+00 -0.00000000000E+00 -0.74505805969E-08  0.93827000000E+00  0.93827000000E+00 0.  1.
     999902    2    1    2    0    0  0.13952812009E-01  0.22917830667E-02  0.20114371063E-01  0.10193429881E+01  0.10190464200E+01 0.  0.
     999903    2    3    3    0    0  0.68265647940E-01  0.60219704029E-01  0.93902312857E-01  0.13269187938E+00  0.22424964937E-01 0.  0.
         14    1    1    2    0    0 -0.13952812009E-01 -0.22917830667E-02 -0.20114371063E-01  0.24587011934E-01  0.00000000000E+00 0.  1.
     999901    1    3    3    0    0 -0.54312835932E-01 -0.57927920962E-01 -0.73787941793E-01  0.88665110868E+00  0.88000000000E+00 0. -1.
        -11    1    4    4    0    0  0.39651378695E-01  0.26322445263E-01  0.35631363467E-01  0.59455513962E-01  0.51100000000E-03 0.  1.
         11    1    4    4    0    0  0.28614269246E-01  0.33897258765E-01  0.58270949390E-01  0.73236365421E-01  0.51100000000E-03 0. -1.
</event>
<event>
 8    1  0.1103774E+005  0.1043930E+01  0.7957747E-01            NaN
         13   -1    0    0    0    0  0.00000000000E+00  0.00000000000E+00  0.74505805969E-08  0.10566000000E+00  0.10566000000E+00 0. -1.
     999900   -1    0    0    0    0 -0.00000000000E+00 -0.00000000000E+00 -0.74505805969E-08  0.93827000000E+00  0.93827000000E+00 0.  1.
     999902    2    1    2    0    0  0.14205193367E-01  0.19035766375E-01 -0.81429761128E-02  0.10188211175E+01  0.10185116659E+01 0.  0.
     999903    2    3    3    0    0 -0.79071612311E-01 -0.37949385581E-01  0.88961970250E-01  0.12675764408E+00  0.21466076529E-01 0.  0.
         14    1    1    2    0    0 -0.14205193367E-01 -0.19035766375E-01  0.81429761128E-02  0.25108882493E-01  0.00000000000E+00 0. -1.
     999901    1    3    3    0    0  0.93276805678E-01  0.56985151956E-01 -0.97104946363E-01  0.89206347343E+00  0.88000000000E+00 0.  1.
        -11    1    4    4    0    0 -0.35266687572E-01 -0.20960333221E-01  0.27497739267E-01  0.49390906115E-01  0.51100000000E-03 0.  1.
         11    1    4    4    0    0 -0.43804924739E-01 -0.16989052360E-01  0.61464230983E-01  0.77366737961E-01  0.51100000000E-03 0. -1.
</event>
<event>
 8    1  0.1103774E+005  0.1043930E+01  0.7957747E-01            NaN
         13   -1    0    0    0    0  0.00000000000E+00  0.00000000000E+00  0.74505805969E-08  0.10566000000E+00  0.10566000000E+00 0. -1.
     999900   -1    0    0    0    0 -0.00000000000E+00 -0.00000000000E+00 -0.74505805969E-08  0.93827000000E+00  0.93827000000E+00 0.  1.
     999902    2    1    2    0    0 -0.24262382899E-01 -0.81672726689E-02 -0.12027711647E-02  0.10183016129E+01  0.10179790571E+01 0.  0.
     999903    2    3    3    0    0  0.33370362932E-01  0.64485109234E-01 -0.10317386093E+00  0.12757269503E+00  0.18921852535E-01 0.  0.
         14    1    1    2    0    0  0.24262382899E-01  0.81672726689E-02  0.12027711647E-02  0.25628387098E-01  0.00000000000E+00 0.  1.
     999901    1    3    3    0    0 -0.57632745831E-01 -0.72652381903E-01  0.10197108976E+00  0.89072891787E+00  0.88000000000E+00 0.  1.
        -11    1    4    4    0    0  0.25258327145E-01  0.29659270431E-01 -0.47983102972E-01  0.61808532618E-01  0.51100000000E-03 0.  1.
         11    1    4    4    0    0  0.81120357877E-02  0.34825838804E-01 -0.55190757954E-01  0.65764162411E-01  0.51100000000E-03 0. -1.
</event>
<event>
 8    1  0.1103774E+005  0.1043930E+01  0.7957747E-01            NaN
         13   -1    0    0    0    0  0.00000000000E+00  0.00000000000E+00  0.74505805969E-08  0.10566000000E+00  0.10566000000E+00 0. -1.
     999900   -1    0    0    0    0 -0.00000000000E+00 -0.00000000000E+00 -0.74505805969E-08  0.93827000000E+00  0.93827000000E+00 0.  1.
     999902    2    1    2    0    0  0.22037226513E-01 -0.64868381095E-02 -0.23816173696E-02  0.10208347511E+01  0.10205734655E+01 0.  0.
     999903    2    3    3    0    0 -0.79248192241E-01  0.96770752178E-02  0.99408201610E-01  0.12904936469E+00  0.19945581493E-01 0.  0.
         14    1    1    2    0    0 -0.22037226513E-01  0.64868381095E-02  0.23816173696E-02  0.23095248913E-01  0.00000000000E+00 0. -1.
     999901    1    3    3    0    0  0.10128541875E+00 -0.16163913327E-01 -0.10178981898E+00  0.89178538640E+00  0.88000000000E+00 0.  1.
        -11    1    4    4    0    0 -0.14192536851E-01  0.76960988999E-02  0.12264234585E-01  0.20281287225E-01  0.51100000000E-03 0. -1.
         11    1    4    4    0    0 -0.65055655389E-01  0.19809763179E-02  0.87143967025E-01  0.10876807746E+00  0.51100000000E-03 0.  1.
</event>
<event>
 8    1  0.1208489E+005  0.1043930E+01  0.7957747E-01            NaN
         13   -1    0    0    0    0  0.00000000000E+00  0.00000000000E+00  0.74505805969E-08  0.10566000000E+00  0.10566000000E+00 0. -1.
     999900   -1    0    0    0    0 -0.00000000000E+00 -0.00000000000E+00 -0.74505805969E-08  0.93827000000E+00  0.93827000000E+00 0. -1.
     999902    2    1    2    0    0  0.75708422772E-02  0.13939373823E-01 -0.18084888663E-01  0.10198740861E+01  0.10195903415E+01 0.  0.
     999903    2    3    3    0    0 -0.11485808546E-01 -0.12742457715E-01 -0.12949763858E+00  0.13224360166E+00  0.20601887174E-01 0.  0.
         14    1    1    2    0    0 -0.75708422772E-02 -0.13939373823E-01  0.18084888663E-01  0.24055913895E-01  0.00000000000E+00 0. -1.
     999901    1    3    3    0    0  0.19056650823E-01  0.26681831538E-01  0.11141274992E+00  0.88763048445E+00  0.88000000000E+00 0.  1.
        -11    1    4    4    0    0 -0.13585462566E-01  0.69037051917E-04 -0.74671990645E-01  0.75899518227E-01  0.51100000000E-03 0.  1.
         11    1    4    4    0    0  0.20996540197E-02 -0.12811494767E-01 -0.54825647935E-01  0.56344083431E-01  0.51100000000E-03 0. -1.
</event>
<event>
 8    1  0.1103774E+005  0.1043930E+01  0.7957747E-01            NaN
         13   -1    0    0    0    0  0.00000000000E+00  0.00000000000E+00  0.74505805969E-08  0.10566000000E+00  0.10566000000E+00 0.  1.
     999900   -1    0    0    0    0 -0.00000000000E+00 -0.00000000000E+00 -0.74505805969E-08  0.93827000000E+00  0.93827000000E+00 0. -1.
     999902    2    1    2    0    0 -0.40010887294E-02  0.37817408202E-02 -0.23162080533E-01  0.10201226010E+01  0.10198447572E+01 0.  0.
     999903    2    3    3    0    0  0.85257869469E-01 -0.26221786049E-01 -0.95317234806E-01  0.13216216291E+00  0.20614938380E-01 0.  0.
         14    1    1    2    0    0  0.40010887294E-02 -0.37817408202E-02  0.23162080533E-01  0.23807399045E-01  0.00000000000E+00 0.  1.
     999901    1    3    3    0    0 -0.89258958198E-01  0.30003526869E-01  0.72155154273E-01  0.88796043804E+00  0.88000000000E+00 0.  1.
        -11    1    4    4    0    0  0.44533241754E-01 -0.21144205113E-01 -0.62550239098E-01  0.79643459011E-01  0.51100000000E-03 0. -1.
         11    1    4    4    0    0  0.40724627715E-01 -0.50775809359E-02 -0.32766995708E-01  0.52518703900E-01  0.51100000000E-03 0.  1.
</event>
<event>
 8    1  0.1103774E+005  0.1043930E+01  0.7957747E-01            NaN
         13   -1    0    0    0    0  0.00000000000E+00  0.00000000000E+00  0.74505805969E-08  0.10566000000E+00  0.10566000000E+00 0.  1.
     999900   -1    0    0    0    0 -0.00000000000E+00 -0.00000000000E+00 -0.74505805969E-08  0.93827000000E+00  0.93827000000E+00 0.  1.
     999902    2    1    2    0    0 -0.17887870097E-01 -0.10936899272E-01  0.13135261710E-01  0.10191888043E+01  0.10188884591E+01 0.  0.
     999903    2    3    3    0    0  0.98683837748E-01 -0.46236832324E-02  0.80581381739E-01  0.12892041848E+00  0.19163427099E-01 0.  0.
         14    1    1    2    0    0  0.17887870097E-01  0.10936899272E-01 -0.13135261710E-01  0.24741195656E-01  0.00000000000E+00 0.  1.
     999901    1    3    3    0    0 -0.11657170784E+00 -0.63132160393E-02 -0.67446120029E-01  0.89026838587E+00  0.88000000000E+00 0.  1.
        -11    1    4    4    0    0  0.43704260086E-01  0.71202245400E-02  0.32290115463E-01  0.54805771820E-01  0.51100000000E-03 0. -1.
         11    1    4    4    0    0  0.54979577662E-01 -0.11743907772E-01  0.48291266276E-01  0.74114646657E-01  0.51100000000E-03 0.  1.
</event>
<event>
 8    1  0.1103774E+005  0.1043930E+01  0.7957747E-01            NaN
         13   -1    0    0    0    0  0.00000000000E+00  0.00000000000E+00  0.74505805969E-08  0.10566000000E+00  0.10566000000E+00 0.  1.
     999900   -1    0    0    0    0 -0.00000000000E+00 -0.00000000000E+00 -0.74505805969E-08  0.93827000000E+00  0.93827000000E+00 0. -1.
     999902    2    1    2    0    0  0.14842846002E-01 -0.95859708145E-02 -0.15135947306E-01  0.10206641922E+01  0.10203989883E+01 0.  0.
     999903    2    3    3    0    0 -0.12442433229E+00 -0.18720644862E-01  0.18938285090E-01  0.12901412484E+00  0.21309827697E-01 0.  0.
         14    1    1    2    0    0 -0.14842846002E-01  0.95859708145E-02  0.15135947306E-01  0.23265807846E-01  0.00000000000E+00 0.  1.
     999901    1    3    3    0    0  0.13926717830E+00  0.91346740474E-02 -0.34074232395E-01  0.89165006731E+00  0.88000000000E+00 0. -1.
        -11    1    4    4    0    0 -0.92308506158E-01 -0.18883361418E-01  0.60858680235E-02  0.94417903801E-01  0.51100000000E-03 0. -1.
         11    1    4    4    0    0 -0.32115826135E-01  0.16271655571E-03  0.12852417066E-01  0.34596221043E-01  0.51100000000E-03 0.  1.
</event>
<event>
 8    1  0.1103774E+005  0.1043930E+01  0.7957747E-01            NaN
         13   -1    0    0    0    0  0.00000000000E+00  0.00000000000E+00  0.74505805969E-08  0.10566000000E+00  0.10566000000E+00 0. -1.
     999900   -1    0    0    0    0 -0.00000000000E+00 -0.00000000000E+00 -0.74505805969E-08  0.93827000000E+00  0.93827000000E+00 0. -1.
     999902    2    1    2    0    0 -0.16149367570E-01 -0.16312671222E-01  0.53260294375E-02  0.10203657919E+01  0.10200936610E+01 0.  0.
     999903    2    3    3    0    0  0.58383745353E-01  0.70297294747E-01  0.88703978169E-01  0.12906990752E+00  0.20982705099E-01 0.  0.
         14    1    1    2    0    0  0.16149367570E-01  0.16312671222E-01 -0.53260294375E-02  0.23564208132E-01  0.00000000000E+00 0. -1.
     999901    1    3    3    0    0 -0.74533112923E-01 -0.86609965969E-01 -0.83377948731E-01  0.89129588435E+00  0.88000000000E+00 0. -1.
        -11    1    4    4    0    0  0.56447810542E-01  0.61802458288E-01  0.72817398893E-01  0.11094383204E+00  0.51100000000E-03 0. -1.
         11    1    4    4    0    0  0.19359348104E-02  0.84948364584E-02  0.15886579276E-01  0.18126075475E-01  0.51100000000E-03 0.  1.
</event>
<event>
 8    1  0.1103774E+005  0.1043930E+01  0.7957747E-01            NaN
         13   -1    0    0    0    0  0.00000000000E+00  0.00000000000E+00  0.74505805969E-08  0.10566000000E+00  0.10566000000E+00 0.  1.
     999900   -1    0    0    0    0 -0.00000000000E+00 -0.00000000000E+00 -0.74505805969E-08  0.93827000000E+00  0.93827000000E+00 0.  1.
     999902    2    1    2    0    0  0.71835623875E-02  0.16156464676E-01 -0.15181834248E-01  0.10206250003E+01  0.10203588919E+01 0.  0.
     999903    2    3    3    0    0 -0.52603855837E-01  0.57973076192E-01  0.10166837145E+00  0.12990779774E+00  0.20286324190E-01 0.  0.
         14    1    1    2    0    0 -0.71835623875E-02 -0.16156464676E-01  0.15181834248E-01  0.23304999689E-01  0.00000000000E+00 0.  1.
     999901    1    3    3    0    0  0.59787418225E-01 -0.41816611516E-01 -0.11685020570E+00  0.89071720257E+00  0.88000000000E+00 0.  1.
        -11    1    4    4    0    0 -0.26597769919E-01  0.19023419148E-01  0.30559983790E-01  0.44760535866E-01  0.51100000000E-03 0.  1.
         11    1    4    4    0    0 -0.26006085918E-01  0.38949657044E-01  0.71108387661E-01  0.85147261878E-01  0.51100000000E-03 0. -1.
</event>
<event>
 8    1  0.1103774E+005  0.1043930E+01  0.7957747E-01            NaN
         13   -1    0    0    0    0  0.00000000000E+00  0.00000000000E+00  0.74505805969E-08  0.10566000000E+00  0.10566000000E+00 0. -1.
     999900   -1    0    0    0    0 -0.00000000000E+00 -0.00000000000E+00 -0.74505805969E-08  0.93827000000E+00  0.93827000000E+00 0. -1.
     999902    2    1    2    0    0 -0.12148569392E-01  0.16864758372E-01 -0.13752908085E-01  0.10190071130E+01  0.10187022853E+01 0.  0.
     999903    2    3    3    0    0  0.28664440128E-01 -0.10268184162E+00  0.65018573661E-01  0.12650387067E+00  0.20263357264E-01 0.  0.
         14    1    1    2    0    0  0.12148569392E-01 -0.16864758372E-01  0.13752908085E-01  0.24922886952E-01  0.00000000000E+00 0. -1.
     999901    1    3    3    0    0 -0.40813009520E-01  0.11954659999E+00 -0.78771481746E-01  0.89250324238E+00  0.88000000000E+00 0. -1.
        -11    1    4    4    0    0 -0.25015679861E-02 -0.19856749006E-01  0.11993712031E-01  0.23337921346E-01  0.51100000000E-03 0. -1.
         11    1    4    4    0    0  0.31166008114E-01 -0.82825092614E-01  0.53024861630E-01  0.10316594933E+00  0.51100000000E-03 0.  1.
</event>
<event>
 8    1  0.1103774E+005  0.1043930E+01  0.7957747E-01            NaN
         13   -1    0    0    0    0  0.00000000000E+00  0.00000000000E+00  0.74505805969E-08  0.10566000000E+00  0.10566000000E+00 0. -1.
     999900   -1    0    0    0    0 -0.00000000000E+00 -0.00000000000E+00 -0.74505805969E-08  0.93827000000E+00  0.93827000000E+00 0. -1.
     999902    2    1    2    0    0  0.20214765204E-01 -0.13050894268E-01  0.78652861910E-02  0.10186154725E+01  0.10183008669E+01 0.  0.
     999903    2    3    3    0    0 -0.78537390144E-01 -0.72632377059E-01 -0.67259516689E-01  0.12791592877E+00  0.19876076055E-01 0.  0.
         14    1    1    2    0    0 -0.20214765204E-01  0.13050894268E-01 -0.78652861910E-02  0.25314527455E-01  0.00000000000E+00 0.  1.
     999901    1    3    3    0    0  0.98752155347E-01  0.59581482791E-01  0.75124802880E-01  0.89069954378E+00  0.88000000000E+00 0.  1.
        -11    1    4    4    0    0 -0.57690133495E-01 -0.41629836078E-01 -0.39544139473E-01  0.81395299878E-01  0.51100000000E-03 0.  1.
         11    1    4    4    0    0 -0.20847256649E-01 -0.31002540980E-01 -0.27715377216E-01  0.46520628890E-01  0.51100000000E-03 0. -1.
</event>
<event>
 8    1  0.1103774E+005  0.1043930E+01  0.7957747E-01            NaN
         13   -1    0    0    0    0  0.00000000000E+00  0.00000000000E+00  0.74505805969E-08  0.10566000000E+00  0.10566000000E+00 0. -1.
     999900   -1    0    0    0    0 -0.00000000000E+00 -0.00000000000E+00 -0.74505805969E-08  0.93827000000E+00  0.93827000000E+00 0. -1.
     999902    2    1    2    0    0 -0.14917737997E-01 -0.18706157371E-01  0.10937969027E-02  0.10199788910E+01  0.10196976427E+01 0.  0.
     999903    2    3    3    0    0  0.72072038111E-01  0.42089451515E-02  0.10527567914E+00  0.12927906073E+00  0.20445366899E-01 0.  0.
         14    1    1    2    0    0  0.14917737997E-01  0.18706157371E-01 -0.10937969027E-02  0.23951108997E-01  0.00000000000E+00 0.  1.
     999901    1    3    3    0    0 -0.86989776108E-01 -0.22915102522E-01 -0.10418188223E+00  0.89069983028E+00  0.88000000000E+00 0. -1.
        -11    1    4    4    0    0  0.18916087175E-01  0.90557919618E-02  0.37926713789E-01  0.43341924990E-01  0.51100000000E-03 0. -1.
         11    1    4    4    0    0  0.53155950936E-01 -0.48468468103E-02  0.67348965348E-01  0.85937135735E-01  0.51100000000E-03 0.  1.
</event>
<event>
 8    1  0.1103774E+005  0.1043930E+01  0.7957747E-01            NaN
         13   -1    0    0    0    0  0.00000000000E+00  0.00000000000E+00  0.74505805969E-08  0.10566000000E+00  0.10566000000E+00 0.  1.
     999900   -1    0    0    0    0 -0.00000000000E+00 -0.00000000000E+00 -0.74505805969E-08  0.93827000000E+00  0.93827000000E+00 0. -1.
     999902    2    1    2    0    0 -0.19217138275E-01 -0.16864116622E-01 -0.24412397643E-02  0.10182462214E+01  0.10179222519E+01 0.  0.
     999903    2    3    3    0    0  0.74389455807E-02 -0.44818746938E-01 -0.12019388388E+00  0.12956309823E+00  0.16612306058E-01 0.  0.
         14    1    1    2    0    0  0.19217138275E-01  0.16864116622E-01  0.24412397643E-02  0.25683778626E-01  0.00000000000E+00 0. -1.
     999901    1    3    3    0    0 -0.26656083856E-01  0.27954630316E-01  0.11775264412E+00  0.88868312314E+00  0.88000000000E+00 0.  1.
        -11    1    4    4    0    0 -0.54162032451E-03 -0.60465153539E-02 -0.36177815361E-01  0.36687179584E-01  0.51100000000E-03 0.  1.
         11    1    4    4    0    0  0.79805659052E-02 -0.38772231584E-01 -0.84016068519E-01  0.92875918647E-01  0.51100000000E-03 0. -1.
</event>
<event>
 8    1  0.1103774E+005  0.1043930E+01  0.7957747E-01            NaN
         13   -1    0    0    0    0  0.00000000000E+00  0.00000000000E+00  0.74505805969E-08  0.10566000000E+00  0.10566000000E+00 0.  1.
     999900   -1    0    0    0    0 -0.00000000000E+00 -0.00000000000E+00 -0.74505805969E-08  0.93827000000E+00  0.93827000000E+00 0. -1.
     999902    2    1    2    0    0  0.27314515441E-02  0.23203675494E-01 -0.50253105902E-02  0.10200317756E+01  0.10197517826E+01 0.  0.
     999903    2    3    3    0    0  0.96191198926E-01  0.88734127061E-01 -0.91657117337E-02  0.13265017368E+00  0.19635840961E-01 0.  0.
         14    1    1    2    0    0 -0.27314515441E-02 -0.23203675494E-01  0.50253105902E-02  0.23898224421E-01  0.00000000000E+00 0.  1.
     999901    1    3    3    0    0 -0.93459747382E-01 -0.65530451567E-01  0.41404011434E-02  0.88738160190E+00  0.88000000000E+00 0.  1.
        -11    1    4    4    0    0  0.44632697727E-01  0.38285929893E-01  0.54177195591E-02  0.59055083950E-01  0.51100000000E-03 0.  1.
         11    1    4    4    0    0  0.51558501199E-01  0.50448197167E-01 -0.14583431293E-01  0.73595089732E-01  0.51100000000E-03 0. -1.
</event>
<event>
 8    1  0.1103774E+005  0.1043930E+01  0.7957747E-01            NaN
         13   -1    0    0    0    0  0.00000000000E+00  0.00000000000E+00  0.74505805969E-08  0.10566000000E+00  0.10566000000E+00 0. -1.
     999900   -1    0    0    0    0 -0.00000000000E+00 -0.00000000000E+00 -0.74505805969E-08  0.93827000000E+00  0.93827000000E+00 0. -1.
     999902    2    1    2    0    0  0.17362716380E-01  0.15787030003E-01  0.38941923718E-02  0.10201422096E+01  0.10198648287E+01 0.  0.
     999903    2    3    3    0    0  0.77475113740E-01  0.99264623811E-01  0.39711233917E-01  0.13342643248E+00  0.19229456453E-01 0.  0.
         14    1    1    2    0    0 -0.17362716380E-01 -0.15787030003E-01 -0.38941923718E-02  0.23787790369E-01  0.00000000000E+00 0.  1.
     999901    1    3    3    0    0 -0.60112397360E-01 -0.83477593808E-01 -0.35817041545E-01  0.88671577715E+00  0.88000000000E+00 0.  1.
        -11    1    4    4    0    0  0.61627498195E-01  0.78741360730E-01  0.39442963636E-01  0.10749027363E+00  0.51100000000E-03 0. -1.
         11    1    4    4    0    0  0.15847615546E-01  0.20523263081E-01  0.26827028091E-03  0.25936158851E-01  0.51100000000E-03 0.  1.
</event>
<event>
 8    1  0.1103774E+005  0.1043930E+01  0.7957747E-01            NaN
         13   -1    0    0    0    0  0.00000000000E+00  0.00000000000E+00  0.74505805969E-08  0.10566000000E+00  0.10566000000E+00 0.  1.
     999900   -1    0    0    0    0 -0.00000000000E+00 -0.00000000000E+00 -0.74505805969E-08  0.93827000000E+00  0.93827000000E+00 0.  1.
     999902    2    1    2    0    0  0.12410387981E-02 -0.11184060138E-01  0.22247615129E-01  0.10189984987E+01  0.10186934576E+01 0.  0.
     999903    2    3    3    0    0 -0.66622546326E-01  0.94429556115E-01 -0.51508660676E-01  0.12703454744E+00  0.11363510483E-01 0.  0.
         14    1    1    2    0    0 -0.12410387981E-02  0.11184060138E-01 -0.22247615129E-01  0.24931501306E-01  0.00000000000E+00 0. -1.
     999901    1    3    3    0    0  0.67863585124E-01 -0.10561361625E+00  0.73756275804E-01  0.89196395126E+00  0.88000000000E+00 0.  1.
        -11    1    4    4    0    0 -0.59024654063E-01  0.86419541474E-01 -0.43256311599E-01  0.11324140828E+00  0.51100000000E-03 0.  1.
         11    1    4    4    0    0 -0.75978922627E-02  0.80100146409E-02 -0.82523490765E-02  0.13793139152E-01  0.51100000000E-03 0. -1.
</event>
<event>
 8    1  0.1103774E+005  0.1043930E+01  0.7957747E-01            NaN
         13   -1    0    0    0    0  0.00000000000E+00  0.00000000000E+00  0.74505805969E-08  0.10566000000E+00  0.10566000000E+00 0.  1.
     999900   -1    0    0    0    0 -0.00000000000E+00 -0.00000000000E+00 -0.74505805969E-08  0.93827000000E+00  0.93827000000E+00 0. -1.
     999902    2    1    2    0    0 -0.70723705622E-02  0.16549412746E-01  0.15355331866E-01  0.10202722802E+01  0.10199979599E+01 0.  0.
     999903    2    3    3    0    0  0.82204334606E-01 -0.93896089084E-01 -0.20599014363E-01  0.12816171872E+00  0.20665879591E-01 0.  0.
         14    1    1    2    0    0  0.70723705622E-02 -0.16549412746E-01 -0.15355331866E-01  0.23657719761E-01  0.00000000000E+00 0. -1.
     999901    1    3    3    0    0 -0.89276705168E-01  0.11044550183E+00  0.35954346229E-01  0.89211056152E+00  0.88000000000E+00 0. -1.
        -11    1    4    4    0    0  0.42342628996E-01 -0.35850581320E-01 -0.15255703204E-01  0.57542679921E-01  0.51100000000E-03 0.  1.
         11    1    4    4    0    0  0.39861705610E-01 -0.58045507765E-01 -0.53433111593E-02  0.70619038799E-01  0.51100000000E-03 0. -1.
</event>
<event>
 8    1  0.1103774E+005  0.1043930E+01  0.7957747E-01            NaN
         13   -1    0    0    0    0  0.00000000000E+00  0.00000000000E+00  0.74505805969E-08  0.10566000000E+00  0.10566000000E+00 0. -1.
     999900   -1    0    0    0    0 -0.00000000000E+00 -0.00000000000E+00 -0.74505805969E-08  0.93827000000E+00  0.93827000000E+00 0.  1.
     999902    2    1    2    0    0  0.32176040988E-03  0.12455123496E-01 -0.22007903728E-01  0.10186400522E+01  0.10183260650E+01 0.  0.
     999903    2    3    3    0    0 -0.84651390768E-01  0.67752168329E-01  0.65970452083E-01  0.12846119905E+00  0.19848547551E-01 0.  0.
         14    1    1    2    0    0 -0.32176040988E-03 -0.12455123496E-01  0.22007903728E-01  0.25289947757E-01  0.00000000000E+00 0. -1.
     999901    1    3    3    0    0  0.84973151178E-01 -0.55297044834E-01 -0.87978355811E-01  0.89017885320E+00  0.88000000000E+00 0. -1.
        -11    1    4    4    0    0 -0.22201792490E-01  0.19979031505E-01  0.84665432650E-02  0.31048748212E-01  0.51100000000E-03 0. -1.
         11    1    4    4    0    0 -0.62449598278E-01  0.47773136824E-01  0.57503908818E-01  0.97412450834E-01  0.51100000000E-03 0.  1.
</event>
<event>
 8    1  0.1103774E+005  0.1043930E+01  0.7957747E-01            NaN
         13   -1    0    0    0    0  0.00000000000E+00  0.00000000000E+00  0.74505805969E-08  0.10566000000E+00  0.10566000000E+00 0. -1.
     999900   -1    0    0    0    0 -0.00000000000E+00 -0.00000000000E+00 -0.74505805969E-08  0.93827000000E+00  0.93827000000E+00 0. -1.
     999902    2    1    2    0    0  0.21951273484E-01 -0.66145364852E-02  0.62185203811E-02  0.10201754110E+01  0.10198988130E+01 0.  0.
     999903    2    3    3    0    0 -0.34253306199E-01 -0.12293705249E+00 -0.17914538908E-01  0.13041573167E+00  0.20013108256E-01 0.  0.
         14    1    1    2    0    0 -0.21951273484E-01  0.66145364852E-02 -0.62185203811E-02  0.23754588951E-01  0.00000000000E+00 0.  1.
     999901    1    3    3    0    0  0.56204579684E-01  0.11632251600E+00  0.24133059289E-01  0.88975967938E+00  0.88000000000E+00 0.  1.
        -11    1    4    4    0    0 -0.27561798687E-01 -0.11573784178E+00 -0.13893445312E-01  0.11978392926E+00  0.51100000000E-03 0. -1.
         11    1    4    4    0    0 -0.66915075126E-02 -0.71992107092E-02 -0.40210935957E-02  0.10631802403E-01  0.51100000000E-03 0.  1.
</event>
<event>
 8    1  0.1103774E+005  0.1043930E+01  0.7957747E-01            NaN
         13   -1    0    0    0    0  0.00000000000E+00  0.00000000000E+00  0.74505805969E-08  0.10566000000E+00  0.10566000000E+00 0. -1.
     999900   -1    0    0    0    0 -0.00000000000E+00 -0.00000000000E+00 -0.74505805969E-08  0.93827000000E+00  0.93827000000E+00 0.  1.
     999902    2    1    2    0    0  0.12582323307E-01 -0.14987488402E-01  0.10474011429E-01  0.10217344017E+01  0.10214932907E+01 0.  0.
     999903    2    3    3    0    0 -0.59631714859E-01 -0.11699154560E+00  0.81513409735E-03  0.13285140102E+00  0.20146144806E-01 0.  0.
         14    1    1    2    0    0 -0.12582323307E-01  0.14987488402E-01 -0.10474011429E-01  0.22195598298E-01  0.00000000000E+00 0. -1.
     999901    1    3    3    0    0  0.72214038165E-01  0.10200405720E+00  0.96588773314E-02  0.88888300068E+00  0.88000000000E+00 0. -1.
        -11    1    4    4    0    0 -0.14720507493E-01 -0.33960852524E-01  0.90040604432E-02  0.38096811815E-01  0.51100000000E-03 0.  1.
         11    1    4    4    0    0 -0.44911207366E-01 -0.83030693075E-01 -0.81889263459E-02  0.94754589204E-01  0.51100000000E-03 0. -1.
</event>
<event>
 8    1  0.1103774E+005  0.1043930E+01  0.7957747E-01            NaN
         13   -1    0    0    0    0  0.00000000000E+00  0.00000000000E+00  0.74505805969E-08  0.10566000000E+00  0.10566000000E+00 0. -1.
     999900   -1    0    0    0    0 -0.00000000000E+00 -0.00000000000E+00 -0.74505805969E-08  0.93827000000E+00  0.93827000000E+00 0. -1.
     999902    2    1    2    0    0 -0.34608879139E-02  0.23341706827E-01  0.19694952994E-02  0.10202510656E+01  0.10199762472E+01 0.  0.
     999903    2    3    3    0    0  0.78730997035E-01 -0.51756955148E-01  0.85484477824E-01  0.12931331957E+00  0.23172966365E-01 0.  0.
         14    1    1    2    0    0  0.34608879139E-02 -0.23341706827E-01 -0.19694952994E-02  0.23678934403E-01  0.00000000000E+00 0. -1.
     999901    1    3    3    0    0 -0.82191884949E-01  0.75098661975E-01 -0.83514982524E-01  0.89093774602E+00  0.88000000000E+00 0. -1.
        -11    1    4    4    0    0  0.40579322751E-01 -0.13302668914E-01  0.34144184456E-01  0.54678413366E-01  0.51100000000E-03 0. -1.
         11    1    4    4    0    0  0.38151674284E-01 -0.38454286235E-01  0.51340293368E-01  0.74634906207E-01  0.51100000000E-03 0.  1.
</event>
<event>
 8    1  0.1103774E+005  0.1043930E+01  0.7957747E-01            NaN
         13   -1    0    0    0    0  0.00000000000E+00  0.00000000000E+00  0.74505805969E-08  0.10566000000E+00  0.10566000000E+00 0. -1.
     999900   -1    0    0    0    0 -0.00000000000E+00 -0.00000000000E+00 -0.74505805969E-08  0.93827000000E+00  0.93827000000E+00 0. -1.
     999902    2    1    2    0    0  0.48690731600E-02 -0.14542344701E-01  0.18279428907E-01  0.10200694639E+01  0.10197903637E+01 0.  0.
     999903    2    3    3    0    0  0.30034629563E-01  0.11292757601E+00  0.53427679610E-01  0.12983506472E+00  0.18652364109E-01 0.  0.
         14    1    1    2    0    0 -0.48690731600E-02  0.14542344701E-01 -0.18279428907E-01  0.23860536121E-01  0.00000000000E+00 0.  1.
     999901    1    3    3    0    0 -0.25165556403E-01 -0.12746992071E+00 -0.35148250703E-01  0.89023439916E+00  0.88000000000E+00 0. -1.
        -11    1    4    4    0    0  0.14465632278E-01  0.33445683361E-01  0.24116211299E-01  0.43700354931E-01  0.51100000000E-03 0. -1.
         11    1    4    4    0    0  0.15568997285E-01  0.79481892647E-01  0.29311468311E-01  0.86134709791E-01  0.51100000000E-03 0.  1.
</event>
<event>
 8    1  0.1103774E+005  0.1043930E+01  0.7957747E-01            NaN
         13   -1    0    0    0    0  0.00000000000E+00  0.00000000000E+00  0.74505805969E-08  0.10566000000E+00  0.10566000000E+00 0.  1.
     999900   -1    0    0    0    0 -0.00000000000E+00 -0.00000000000E+00 -0.74505805969E-08  0.93827000000E+00  0.93827000000E+00 0. -1.
     999902    2    1    2    0    0  0.18427820865E-01  0.82711879943E-02  0.12767258604E-01  0.10200343932E+01  0.10197544622E+01 0.  0.
     999903    2    3    3    0    0  0.97376196172E-01 -0.26318143289E-01 -0.81615184523E-01  0.13080027701E+00  0.16519863020E-01 0.  0.
         14    1    1    2    0    0 -0.18427820865E-01 -0.82711879943E-02 -0.12767258604E-01  0.23895606812E-01  0.00000000000E+00 0. -1.
     999901    1    3    3    0    0 -0.78948375307E-01  0.34589331284E-01  0.94382443127E-01  0.88923411618E+00  0.88000000000E+00 0.  1.
        -11    1    4    4    0    0  0.53625934560E-01 -0.22921539358E-01 -0.45788460149E-01  0.74148378457E-01  0.51100000000E-03 0. -1.
         11    1    4    4    0    0  0.43750261612E-01 -0.33966039318E-02 -0.35826724373E-01  0.56651898553E-01  0.51100000000E-03 0.  1.
</event>
<event>
 8    1  0.1103774E+005  0.1043930E+01  0.7957747E-01            NaN
         13   -1    0    0    0    0  0.00000000000E+00  0.00000000000E+00  0.74505805969E-08  0.10566000000E+00  0.10566000000E+00 0. -1.
     999900   -1    0    0    0    0 -0.00000000000E+00 -0.00000000000E+00 -0.74505805969E-08  0.93827000000E+00  0.93827000000E+00 0. -1.
     999902    2    1    2    0    0  0.23653126660E-01 -0.39751417585E-02 -0.16629855600E-03  0.10199445918E+01  0.10196625277E+01 0.  0.
     999903    2    3    3    0    0 -0.92818657559E-01 -0.68408562931E-01 -0.52697957328E-01  0.12838589070E+00  0.20268881322E-01 0.  0.
         14    1    1    2    0    0 -0.23653126660E-01  0.39751417585E-02  0.16629855600E-03  0.23985408231E-01  0.00000000000E+00 0. -1.
     999901    1    3    3    0    0  0.11647178422E+00  0.64433421173E-01  0.52531658772E-01  0.89155870107E+00  0.88000000000E+00 0. -1.
        -11    1    4    4    0    0 -0.19317072643E-01 -0.25382229391E-01 -0.14551318652E-01  0.35062927144E-01  0.51100000000E-03 0.  1.
         11    1    4    4    0    0 -0.73501584916E-01 -0.43026333540E-01 -0.38146638676E-01  0.93322963553E-01  0.51100000000E-03 0. -1.
</event>
<event>
 8    1  0.1103774E+005  0.1043930E+01  0.7957747E-01            NaN
         13   -1    0    0    0    0  0.00000000000E+00  0.00000000000E+00  0.74505805969E-08  0.10566000000E+00  0.10566000000E+00 0.  1.
     999900   -1    0    0    0    0 -0.00000000000E+00 -0.00000000000E+00 -0.74505805969E-08  0.93827000000E+00  0.93827000000E+00 0.  1.
     999902    2    1    2    0    0  0.10531946139E-01  0.34167862360E-01 -0.35895275699E-02  0.10079960409E+01  0.10073553341E+01 0.  0.
     999903    2    3    3    0    0 -0.53691348443E-01 -0.83118839230E-01  0.56800864004E-01  0.11584818246E+00  0.20073885919E-01 0.  0.
         14    1    1    2    0    0 -0.10531946139E-01 -0.34167862360E-01  0.35895275699E-02  0.35933959090E-01  0.00000000000E+00 0.  1.
     999901    1    3    3    0    0  0.64223294582E-01  0.11728670159E+00 -0.60390391574E-01  0.89214785845E+00  0.88000000000E+00 0.  1.
        -11    1    4    4    0    0 -0.12442912928E-01 -0.36827314378E-01  0.19561961187E-01  0.43520209248E-01  0.51100000000E-03 0.  1.
         11    1    4    4    0    0 -0.41248435514E-01 -0.46291524851E-01  0.37238902817E-01  0.72327973215E-01  0.51100000000E-03 0. -1.
</event>
<event>
 8    1  0.1103774E+005  0.1043930E+01  0.7957747E-01            NaN
         13   -1    0    0    0    0  0.00000000000E+00  0.00000000000E+00  0.74505805969E-08  0.10566000000E+00  0.10566000000E+00 0.  1.
     999900   -1    0    0    0    0 -0.00000000000E+00 -0.00000000000E+00 -0.74505805969E-08  0.93827000000E+00  0.93827000000E+00 0. -1.
     999902    2    1    2    0    0  0.11382796591E-01 -0.18317177209E-01 -0.84333514841E-02  0.10207738247E+01  0.10205111428E+01 0.  0.
     999903    2    3    3    0    0  0.97644642843E-01 -0.88842040279E-01  0.46562064488E-02  0.13365139852E+00  0.20337936754E-01 0.  0.
         14    1    1    2    0    0 -0.11382796591E-01  0.18317177209E-01  0.84333514841E-02  0.23156175340E-01  0.00000000000E+00 0.  1.
     999901    1    3    3    0    0 -0.86261846252E-01  0.70524863070E-01 -0.13089557933E-01  0.88712242614E+00  0.88000000000E+00 0. -1.
        -11    1    4    4    0    0  0.28907196555E-01 -0.14621546765E-01  0.44972511562E-03  0.32401836617E-01  0.51100000000E-03 0.  1.
         11    1    4    4    0    0  0.68737446288E-01 -0.74220493515E-01  0.42064813332E-02  0.10124956191E+00  0.51100000000E-03 0. -1.
</event>
<event>
 8    1  0.1103774E+005  0.1043930E+01  0.7957747E-01            NaN
         13   -1    0    0    0    0  0.00000000000E+00  0.00000000000E+00  0.74505805969E-08  0.10566000000E+00  0.10566000000E+00 0. -1.
     999900   -1    0    0    0    0 -0.00000000000E+00 -0.00000000000E+00 -0.74505805969E-08  0.93827000000E+00  0.93827000000E+00 0.  1.
     999902    2    1    2    0    0  0.20600070490E-01 -0.77257629049E-02  0.87145812372E-02  0.10202658025E+01  0.10199913301E+01 0.  0.
     999903    2    3    3    0    0 -0.12498216727E+00  0.16534939292E-01 -0.56230411022E-02  0.12785987636E+00  0.20556824592E-01 0.  0.
         14    1    1    2    0    0 -0.20600070490E-01  0.77257629049E-02 -0.87145812372E-02  0.23664197489E-01  0.00000000000E+00 0. -1.
     999901    1    3    3    0    0  0.14558223776E+00 -0.24260702197E-01  0.14337622339E-01  0.89240592616E+00  0.88000000000E+00 0.  1.
        -11    1    4    4    0    0 -0.45464355221E-01  0.29398827812E-02 -0.11442455860E-01  0.46977030808E-01  0.51100000000E-03 0.  1.
         11    1    4    4    0    0 -0.79517812050E-01  0.13595056511E-01  0.58194147579E-02  0.80882845548E-01  0.51100000000E-03 0. -1.
</event>
<event>
 8    1  0.1103774E+005  0.1043930E+01  0.7957747E-01            NaN
         13   -1    0    0    0    0  0.00000000000E+00  0.00000000000E+00  0.74505805969E-08  0.10566000000E+00  0.10566000000E+00 0.  1.
     999900   -1    0    0    0    0 -0.00000000000E+00 -0.00000000000E+00 -0.74505805969E-08  0.93827000000E+00  0.93827000000E+00 0.  1.
     999902    2    1    2    0    0  0.98314873610E-02  0.21041170816E-01  0.48051898526E-02  0.10202133632E+01  0.10199376586E+01 0.  0.
     999903    2    3    3    0    0 -0.34084692967E-01 -0.11856545657E+00  0.26756713085E-01  0.12785664600E+00  0.20294492993E-01 0.  0.
         14    1    1    2    0    0 -0.98314873610E-02 -0.21041170816E-01 -0.48051898526E-02  0.23716636831E-01  0.00000000000E+00 0. -1.
     999901    1    3    3    0    0  0.43916180328E-01  0.13960662738E+00 -0.21951523233E-01  0.89235671717E+00  0.88000000000E+00 0.  1.
        -11    1    4    4    0    0 -0.17144551431E-01 -0.31272445071E-01  0.12521354366E-01  0.37801414003E-01  0.51100000000E-03 0. -1.
         11    1    4    4    0    0 -0.16940141537E-01 -0.87293011495E-01  0.14235358720E-01  0.90055231997E-01  0.51100000000E-03 0.  1.
</event>
<event>
 8    1  0.1103774E+005  0.1043930E+01  0.7957747E-01            NaN
         13   -1    0    0    0    0  0.00000000000E+00  0.00000000000E+00  0.74505805969E-08  0.10566000000E+00  0.10566000000E+00 0.  1.
     999900   -1    0    0    0    0 -0.00000000000E+00 -0.00000000000E+00 -0.74505805969E-08  0.93827000000E+00  0.93827000000E+00 0. -1.
     999902    2    1    2    0    0 -0.16470527107E-01  0.16932858516E-01 -0.62411080790E-02  0.10194974113E+01  0.10192046018E+01 0.  0.
     999903    2    3    3    0    0  0.17024129995E-01  0.76458165772E-01  0.10225006453E+00  0.13020809460E+00  0.19063055544E-01 0.  0.
         14    1    1    2    0    0  0.16470527107E-01 -0.16932858516E-01  0.62411080790E-02  0.24432588704E-01  0.00000000000E+00 0. -1.
     999901    1    3    3    0    0 -0.33494657102E-01 -0.59525307256E-01 -0.10849117261E+00  0.88928931670E+00  0.88000000000E+00 0. -1.
        -11    1    4    4    0    0  0.37175169632E-03  0.44188276559E-01  0.59454149690E-01  0.74079680217E-01  0.51100000000E-03 0.  1.
         11    1    4    4    0    0  0.16652378298E-01  0.32269889213E-01  0.42795914843E-01  0.56128414382E-01  0.51100000000E-03 0. -1.
</event>
<event>
 7    1  0.1103774E+005  0.1043930E+01  0.7957747E-01            NaN
         13   -1    0    0    0    0  0.00000000000E+00  0.00000000000E+00  0.74505805969E-08  0.10566000000E+00  0.10566000000E+00 0.  1.
     999900   -1    0    0    0    0 -0.00000000000E+00 -0.00000000000E+00 -0.74505805969E-08  0.93827000000E+00  0.93827000000E+00 0. -1.
     999903    2    1    2    0    0 -0.98714389349E-02 -0.66670535877E-01 -0.87874667759E-01  0.11247043156E+00  0.19627406373E-01 0.  0.
         14    1    1    2    0    0  0.28555677163E-01 -0.26463200060E-01 -0.11977683855E-01  0.40733187528E-01  0.00000000000E+00 0.  1.
     999901    1    1    2    0    0 -0.18684238228E-01  0.93133735937E-01  0.99852351614E-01  0.89072638091E+00  0.88000000000E+00 0.  1.
        -11    1    3    3    0    0 -0.17108175353E-02 -0.41213532306E-02 -0.17026018013E-01  0.17608488279E-01  0.51100000000E-03 0.  1.
         11    1    3    3    0    0 -0.81606213995E-02 -0.62549182647E-01 -0.70848649746E-01  0.94861943282E-01  0.51100000000E-03 0. -1.
</event>
<event>
 8    1  0.1103774E+005  0.1043930E+01  0.7957747E-01            NaN
         13   -1    0    0    0    0  0.00000000000E+00  0.00000000000E+00  0.74505805969E-08  0.10566000000E+00  0.10566000000E+00 0. -1.
     999900   -1    0    0    0    0 -0.00000000000E+00 -0.00000000000E+00 -0.74505805969E-08  0.93827000000E+00  0.93827000000E+00 0.  1.
     999902    2    1    2    0    0 -0.17332203552E-02  0.11516166069E-01 -0.20231057553E-01  0.10205864394E+01  0.10203194394E+01 0.  0.
     999903    2    3    3    0    0 -0.25160514935E-01  0.80057653231E-01 -0.10224317440E+00  0.13380982662E+00  0.20226804866E-01 0.  0.
         14    1    1    2    0    0  0.17332203552E-02 -0.11516166069E-01  0.20231057553E-01  0.23343560642E-01  0.00000000000E+00 0. -1.
     999901    1    3    3    0    0  0.23427294580E-01 -0.68541487163E-01  0.82012116848E-01  0.88677661274E+00  0.88000000000E+00 0. -1.
        -11    1    4    4    0    0 -0.24525456710E-01  0.44999955699E-01 -0.60210381086E-01  0.79069875119E-01  0.51100000000E-03 0.  1.
         11    1    4    4    0    0 -0.63505822459E-03  0.35057697532E-01 -0.42032793315E-01  0.54739951498E-01  0.51100000000E-03 0. -1.
</event>
<event>
 8    1  0.1103774E+005  0.1043930E+01  0.7957747E-01            NaN
         13   -1    0    0    0    0  0.00000000000E+00  0.00000000000E+00  0.74505805969E-08  0.10566000000E+00  0.10566000000E+00 0.  1.
     999900   -1    0    0    0    0 -0.00000000000E+00 -0.00000000000E+00 -0.74505805969E-08  0.93827000000E+00  0.93827000000E+00 0.  1.
     999902    2    1    2    0    0 -0.23481136314E-01  0.41327682495E-02 -0.16765002714E-02  0.10200290756E+01  0.10197490185E+01 0.  0.
     999903    2    3    3    0    0 -0.49667579878E-01  0.12045575726E+00 -0.47719874535E-02  0.13198270873E+00  0.20498916852E-01 0.  0.
         14    1    1    2    0    0  0.23481136314E-01 -0.41327682495E-02  0.16765002714E-02  0.23900924442E-01  0.00000000000E+00 0.  1.
     999901    1    3    3    0    0  0.26186443563E-01 -0.11632298901E+00  0.30954871821E-02  0.88804636683E+00  0.88000000000E+00 0. -1.
        -11    1    4    4    0    0 -0.34235287597E-01  0.76222374842E-01  0.64455619103E-02  0.83807587561E-01  0.51100000000E-03 0.  1.
         11    1    4    4    0    0 -0.15432292280E-01  0.44233382414E-01 -0.11217549364E-01  0.48175121168E-01  0.51100000000E-03 0. -1.
</event>
<event>
 8    1  0.1103774E+005  0.1043930E+01  0.7957747E-01            NaN
         13   -1    0    0    0    0  0.00000000000E+00  0.00000000000E+00  0.74505805969E-08  0.10566000000E+00  0.10566000000E+00 0. -1.
     999900   -1    0    0    0    0 -0.00000000000E+00 -0.00000000000E+00 -0.74505805969E-08  0.93827000000E+00  0.93827000000E+00 0. -1.
     999902    2    1    2    0    0 -0.15438708106E-01 -0.18256098654E-01  0.14390824753E-02  0.10199777599E+01  0.10196964847E+01 0.  0.
     999903    2    3    3    0    0 -0.46930563297E-01  0.11787862104E+00  0.10404182261E-01  0.12890830592E+00  0.20279478751E-01 0.  0.
         14    1    1    2    0    0  0.15438708106E-01  0.18256098654E-01 -0.14390824753E-02  0.23952240071E-01  0.00000000000E+00 0. -1.
     999901    1    3    3    0    0  0.31491855190E-01 -0.13613471969E+00 -0.89650997855E-02  0.89106945401E+00  0.88000000000E+00 0.  1.
        -11    1    4    4    0    0 -0.37476059126E-01  0.67331025928E-01  0.59423688682E-02  0.77288388060E-01  0.51100000000E-03 0. -1.
         11    1    4    4    0    0 -0.94545041710E-02  0.50547595109E-01  0.44618133927E-02  0.51619917863E-01  0.51100000000E-03 0.  1.
</event>
<event>
 8    1  0.1103774E+005  0.1043930E+01  0.7957747E-01            NaN
         13   -1    0    0    0    0  0.00000000000E+00  0.00000000000E+00  0.74505805969E-08  0.10566000000E+00  0.10566000000E+00 0. -1.
     999900   -1    0    0    0    0 -0.00000000000E+00 -0.00000000000E+00 -0.74505805969E-08  0.93827000000E+00  0.93827000000E+00 0. -1.
     999902    2    1    2    0    0 -0.26255391841E-01  0.41503958955E-02 -0.86888564437E-02  0.10159645282E+01  0.10155795660E+01 0.  0.
     999903    2    3    3    0    0 -0.27802892572E-01 -0.23732357612E-01  0.11908041448E+00  0.12629895660E+00  0.20857988638E-01 0.  0.
         14    1    1    2    0    0  0.26255391841E-01 -0.41503958955E-02  0.86888564437E-02  0.27965471802E-01  0.00000000000E+00 0.  1.
     999901    1    3    3    0    0  0.15475007314E-02  0.27882753507E-01 -0.12776927093E+00  0.88966557160E+00  0.88000000000E+00 0. -1.
        -11    1    4    4    0    0  0.10550073777E-02 -0.89965445799E-02  0.18108969590E-01  0.20254549009E-01  0.51100000000E-03 0.  1.
         11    1    4    4    0    0 -0.28857899950E-01 -0.14735813032E-01  0.10097144489E+00  0.10604440759E+00  0.51100000000E-03 0. -1.
</event>
<event>
 8    1  0.1103774E+005  0.1043930E+01  0.7957747E-01            NaN
         13   -1    0    0    0    0  0.00000000000E+00  0.00000000000E+00  0.74505805969E-08  0.10566000000E+00  0.10566000000E+00 0. -1.
     999900   -1    0    0    0    0 -0.00000000000E+00 -0.00000000000E+00 -0.74505805969E-08  0.93827000000E+00  0.93827000000E+00 0. -1.
     999902    2    1    2    0    0 -0.70439245542E-02 -0.18864025806E-01  0.14750705324E-01  0.10189689974E+01  0.10186632250E+01 0.  0.
     999903    2    3    3    0    0  0.12583771501E-01  0.40494672085E-01 -0.11779794474E+00  0.12684913657E+00  0.20400438542E-01 0.  0.
         14    1    1    2    0    0  0.70439245542E-02  0.18864025806E-01 -0.14750705324E-01  0.24961002590E-01  0.00000000000E+00 0.  1.
     999901    1    3    3    0    0 -0.19627696055E-01 -0.59358697891E-01  0.13254865006E+00  0.89211986084E+00  0.88000000000E+00 0.  1.
        -11    1    4    4    0    0  0.67044739594E-02  0.39755207596E-01 -0.10910061622E+00  0.11631264799E+00  0.51100000000E-03 0.  1.
         11    1    4    4    0    0  0.58792975417E-02  0.73946448893E-03 -0.86973285156E-02  0.10536488581E-01  0.51100000000E-03 0. -1.
</event>
<event>
 8    1  0.1103774E+005  0.1043930E+01  0.7957747E-01            NaN
         13   -1    0    0    0    0  0.00000000000E+00  0.00000000000E+00  0.74505805969E-08  0.10566000000E+00  0.10566000000E+00 0.  1.
     999900   -1    0    0    0    0 -0.00000000000E+00 -0.00000000000E+00 -0.74505805969E-08  0.93827000000E+00  0.93827000000E+00 0. -1.
     999902    2    1    2    0    0 -0.11160716940E-01 -0.15081719310E-01  0.14460058687E-01  0.10202421728E+01  0.10199671456E+01 0.  0.
     999903    2    3    3    0    0 -0.62564215586E-01 -0.11543610392E+00  0.78780109114E-02  0.13302368476E+00  0.19835888930E-01 0.  0.
         14    1    1    2    0    0  0.11160716940E-01  0.15081719310E-01 -0.14460058687E-01  0.23687827194E-01  0.00000000000E+00 0. -1.
     999901    1    3    3    0    0  0.51403498646E-01  0.10035438461E+00  0.65820477755E-02  0.88721848805E+00  0.88000000000E+00 0. -1.
        -11    1    4    4    0    0 -0.18810710681E-01 -0.43183587299E-01 -0.57749611627E-02  0.47458153628E-01  0.51100000000E-03 0.  1.
         11    1    4    4    0    0 -0.43753504905E-01 -0.72252516623E-01  0.13652972074E-01  0.85565531129E-01  0.51100000000E-03 0. -1.
</event>
<event>
 8    1  0.1103774E+005  0.1043930E+01  0.7957747E-01            NaN
         13   -1    0    0    0    0  0.00000000000E+00  0.00000000000E+00  0.74505805969E-08  0.10566000000E+00  0.10566000000E+00 0. -1.
     999900   -1    0    0    0    0 -0.00000000000E+00 -0.00000000000E+00 -0.74505805969E-08  0.93827000000E+00  0.93827000000E+00 0. -1.
     999902    2    1    2    0    0 -0.58814684916E-02  0.22234556140E-01  0.57043825518E-02  0.10202338581E+01  0.10199586355E+01 0.  0.
     999903    2    3    3    0    0  0.12669089496E+00 -0.16764816486E-01  0.65403889969E-02  0.12944932667E+00  0.19562963688E-01 0.  0.
         14    1    1    2    0    0  0.58814684916E-02 -0.22234556140E-01 -0.57043825518E-02  0.23696141852E-01  0.00000000000E+00 0. -1.
     999901    1    3    3    0    0 -0.13257236345E+00  0.38999372626E-01 -0.83600644508E-03  0.89078453148E+00  0.88000000000E+00 0.  1.
        -11    1    4    4    0    0  0.10891052410E+00 -0.13712225450E-01  0.12410706050E-01  0.11047087459E+00  0.51100000000E-03 0.  1.
         11    1    4    4    0    0  0.17780370860E-01 -0.30525910353E-02 -0.58703170528E-02  0.18978452077E-01  0.51100000000E-03 0. -1.
</event>
<event>
 8    1  0.1103774E+005  0.1043930E+01  0.7957747E-01            NaN
         13   -1    0    0    0    0  0.00000000000E+00  0.00000000000E+00  0.74505805969E-08  0.10566000000E+00  0.10566000000E+00 0. -1.
     999900   -1    0    0    0    0 -0.00000000000E+00 -0.00000000000E+00 -0.74505805969E-08  0.93827000000E+00  0.93827000000E+00 0.  1.
     999902    2    1    2    0    0  0.65543758417E-02 -0.19857844059E-01  0.11505285190E-01  0.10200623357E+01  0.10197830668E+01 0.  0.
     999903    2    3    3    0    0  0.32096264246E-01  0.86532229375E-01 -0.86506693806E-01  0.12788657730E+00  0.18803501853E-01 0.  0.
         14    1    1    2    0    0 -0.65543758417E-02  0.19857844059E-01 -0.11505285190E-01  0.23867664332E-01  0.00000000000E+00 0.  1.
     999901    1    3    3    0    0 -0.25541888404E-01 -0.10639007343E+00  0.98011978996E-01  0.89217575837E+00  0.88000000000E+00 0.  1.
        -11    1    4    4    0    0  0.10510387344E-01  0.29461646721E-01 -0.41953202597E-01  0.52333442451E-01  0.51100000000E-03 0.  1.
         11    1    4    4    0    0  0.21585876902E-01  0.57070582654E-01 -0.44553491209E-01  0.75553134852E-01  0.51100000000E-03 0. -1.
</event>
<event>
 8    1  0.1103774E+005  0.1043930E+01  0.7957747E-01            NaN
         13   -1    0    0    0    0  0.00000000000E+00  0.00000000000E+00  0.74505805969E-08  0.10566000000E+00  0.10566000000E+00 0. -1.
     999900   -1    0    0    0    0 -0.00000000000E+00 -0.00000000000E+00 -0.74505805969E-08  0.93827000000E+00  0.93827000000E+00 0.  1.
     999902    2    1    2    0    0 -0.16800805286E-01  0.99003095983E-02  0.14234743897E-01  0.10197864476E+01  0.10195006070E+01 0.  0.
     999903    2    3    3    0    0 -0.12840417725E+00 -0.11109651948E-01  0.22852058890E-01  0.13244717245E+00  0.20223248812E-01 0.  0.
         14    1    1    2    0    0  0.16800805286E-01 -0.99003095983E-02 -0.14234743897E-01  0.24143552394E-01  0.00000000000E+00 0.  1.
     999901    1    3    3    0    0  0.11160337197E+00  0.21009961546E-01 -0.86173149931E-02  0.88733927516E+00  0.88000000000E+00 0. -1.
        -11    1    4    4    0    0 -0.37027473959E-01  0.36531117398E-02  0.12750410132E-01  0.39334630197E-01  0.51100000000E-03 0. -1.
         11    1    4    4    0    0 -0.91376703292E-01 -0.14762763688E-01  0.10101648757E-01  0.93112542253E-01  0.51100000000E-03 0.  1.
</event>
<event>
 8    1  0.1103774E+005  0.1043930E+01  0.7957747E-01            NaN
         13   -1    0    0    0    0  0.00000000000E+00  0.00000000000E+00  0.74505805969E-08  0.10566000000E+00  0.10566000000E+00 0.  1.
     999900   -1    0    0    0    0 -0.00000000000E+00 -0.00000000000E+00 -0.74505805969E-08  0.93827000000E+00  0.93827000000E+00 0.  1.
     999902    2    1    2    0    0 -0.16189727896E-02 -0.22334137879E-01 -0.25883388700E-02  0.10213881659E+01  0.10211393887E+01 0.  0.
     999903    2    3    3    0    0 -0.50705987749E-01 -0.67661620529E-01 -0.10137388465E+00  0.13334385404E+00  0.18834193260E-01 0.  0.
         14    1    1    2    0    0  0.16189727896E-02  0.22334137879E-01  0.25883388700E-02  0.22541834126E-01  0.00000000000E+00 0. -1.
     999901    1    3    3    0    0  0.49087014959E-01  0.45327482651E-01  0.98785545779E-01  0.88804431183E+00  0.88000000000E+00 0. -1.
        -11    1    4    4    0    0 -0.21095897117E-01 -0.41499806668E-01 -0.47283512296E-01  0.66357083154E-01  0.51100000000E-03 0. -1.
         11    1    4    4    0    0 -0.29610090632E-01 -0.26161813861E-01 -0.54090372353E-01  0.66986770888E-01  0.51100000000E-03 0.  1.
</event>
<event>
 8    1  0.1103774E+005  0.1043930E+01  0.7957747E-01            NaN
         13   -1    0    0    0    0  0.00000000000E+00  0.00000000000E+00  0.74505805969E-08  0.10566000000E+00  0.10566000000E+00 0.  1.
     999900   -1    0    0    0    0 -0.00000000000E+00 -0.00000000000E+00 -0.74505805969E-08  0.93827000000E+00  0.93827000000E+00 0. -1.
     999902    2    1    2    0    0  0.14970835249E-01  0.40938059783E-02  0.18363229207E-01  0.10198864283E+01  0.10196029782E+01 0.  0.
     999903    2    3    3    0    0 -0.32544262720E-01 -0.88474549134E-01 -0.84019494007E-01  0.12786131262E+00  0.20059038159E-01 0.  0.
         14    1    1    2    0    0 -0.14970835249E-01 -0.40938059783E-02 -0.18363229207E-01  0.24043571747E-01  0.00000000000E+00 0. -1.
     999901    1    3    3    0    0  0.47515097969E-01  0.92568355113E-01  0.10238272321E+00  0.89202511563E+00  0.88000000000E+00 0.  1.
        -11    1    4    4    0    0 -0.22078097191E-01 -0.33190898597E-01 -0.39379275285E-01  0.56036296881E-01  0.51100000000E-03 0.  1.
         11    1    4    4    0    0 -0.10466165529E-01 -0.55283650537E-01 -0.44640218722E-01  0.71825015741E-01  0.51100000000E-03 0. -1.
</event>
<event>
 8    1  0.1103774E+005  0.1043930E+01  0.7957747E-01            NaN
         13   -1    0    0    0    0  0.00000000000E+00  0.00000000000E+00  0.74505805969E-08  0.10566000000E+00  0.10566000000E+00 0. -1.
     999900   -1    0    0    0    0 -0.00000000000E+00 -0.00000000000E+00 -0.74505805969E-08  0.93827000000E+00  0.93827000000E+00 0.  1.
     999902    2    1    2    0    0 -0.19068586897E-01 -0.39764067429E-03 -0.13977506007E-01  0.10202838629E+01  0.10200098142E+01 0.  0.
     999903    2    3    3    0    0  0.35624367044E-01 -0.63643472039E-01 -0.10724035545E+00  0.13141417986E+00  0.21203909288E-01 0.  0.
         14    1    1    2    0    0  0.19068586897E-01  0.39764067429E-03  0.13977506007E-01  0.23646137074E-01  0.00000000000E+00 0.  1.
     999901    1    3    3    0    0 -0.54692953941E-01  0.63245831365E-01  0.93262849444E-01  0.88886968307E+00  0.88000000000E+00 0. -1.
        -11    1    4    4    0    0  0.27466006826E-01 -0.28013063357E-01 -0.51190699524E-01  0.64496992863E-01  0.51100000000E-03 0.  1.
         11    1    4    4    0    0  0.81583602176E-02 -0.35630408682E-01 -0.56049655927E-01  0.66917186992E-01  0.51100000000E-03 0. -1.
</event>
<event>
 8    1  0.1103774E+005  0.1043930E+01  0.7957747E-01            NaN
         13   -1    0    0    0    0  0.00000000000E+00  0.00000000000E+00  0.74505805969E-08  0.10566000000E+00  0.10566000000E+00 0. -1.
     999900   -1    0    0    0    0 -0.00000000000E+00 -0.00000000000E+00 -0.74505805969E-08  0.93827000000E+00  0.93827000000E+00 0.  1.
     999902    2    1    2    0    0 -0.13448828414E-02  0.15903057813E-01  0.13406490765E-01  0.10230865369E+01  0.10228741917E+01 0.  0.
     999903    2    3    3    0    0  0.95390804546E-01  0.23987944440E-01 -0.86064000862E-01  0.13217827157E+00  0.19729575763E-01 0.  0.
         14    1    1    2    0    0  0.13448828414E-02 -0.15903057813E-01 -0.13406490765E-01  0.20843463059E-01  0.00000000000E+00 0.  1.
     999901    1    3    3    0    0 -0.96735687388E-01 -0.80848866268E-02  0.99470491627E-01  0.89090826537E+00  0.88000000000E+00 0.  1.
        -11    1    4    4    0    0  0.62906767697E-01  0.24540918656E-01 -0.62808110572E-01  0.92220594148E-01  0.51100000000E-03 0.  1.
         11    1    4    4    0    0  0.32484036850E-01 -0.55297421601E-03 -0.23255890290E-01  0.39957677419E-01  0.51100000000E-03 0. -1.
</event>
<event>
 8    1  0.1103774E+005  0.1043930E+01  0.7957747E-01            NaN
         13   -1    0    0    0    0  0.00000000000E+00  0.00000000000E+00  0.74505805969E-08  0.10566000000E+00  0.10566000000E+00 0. -1.
     999900   -1    0    0    0    0 -0.00000000000E+00 -0.00000000000E+00 -0.74505805969E-08  0.93827000000E+00  0.93827000000E+00 0.  1.
     999902    2    1    2    0    0 -0.21057546570E-01 -0.10667277393E-01  0.11716502564E-02  0.10202956217E+01  0.10200218487E+01 0.  0.
     999903    2    3    3    0    0  0.63570952347E-01  0.52804216192E-03 -0.11049809338E+00  0.12914050069E+00  0.20637234971E-01 0.  0.
         14    1    1    2    0    0  0.21057546570E-01  0.10667277393E-01 -0.11716502564E-02  0.23634378326E-01  0.00000000000E+00 0. -1.
     999901    1    3    3    0    0 -0.84628498917E-01 -0.11195319555E-01  0.11166974364E+00  0.89115512098E+00  0.88000000000E+00 0. -1.
        -11    1    4    4    0    0  0.15945321674E-01 -0.83351034048E-02 -0.36456131621E-01  0.40657568617E-01  0.51100000000E-03 0.  1.
         11    1    4    4    0    0  0.47625630673E-01  0.88631455667E-02 -0.74041961760E-01  0.88482932075E-01  0.51100000000E-03 0. -1.
</event>
<event>
 8    1  0.1103774E+005  0.1043930E+01  0.7957747E-01            NaN
         13   -1    0    0    0    0  0.00000000000E+00  0.00000000000E+00  0.74505805969E-08  0.10566000000E+00  0.10566000000E+00 0. -1.
     999900   -1    0    0    0    0 -0.00000000000E+00 -0.00000000000E+00 -0.74505805969E-08  0.93827000000E+00  0.93827000000E+00 0. -1.
     999902    2    1    2    0    0 -0.19923404465E-02  0.15752917705E-01 -0.18251923325E-01  0.10197379240E+01  0.10194509194E+01 0.  0.
     999903    2    3    3    0    0 -0.99002598789E-01  0.16778046228E-01  0.78622563971E-01  0.12912200935E+00  0.20198225961E-01 0.  0.
         14    1    1    2    0    0  0.19923404465E-02 -0.15752917705E-01  0.18251923325E-01  0.24192076011E-01  0.00000000000E+00 0. -1.
     999901    1    3    3    0    0  0.97010258343E-01 -0.10251285232E-02 -0.96874487296E-01  0.89061591463E+00  0.88000000000E+00 0. -1.
        -11    1    4    4    0    0 -0.69221671110E-01  0.18464437340E-01  0.63212776382E-01  0.95544185675E-01  0.51100000000E-03 0. -1.
         11    1    4    4    0    0 -0.29780927679E-01 -0.16863911124E-02  0.15409787590E-01  0.33577823678E-01  0.51100000000E-03 0.  1.
</event>
<event>
 8    1  0.1103774E+005  0.1043930E+01  0.7957747E-01            NaN
         13   -1    0    0    0    0  0.00000000000E+00  0.00000000000E+00  0.74505805969E-08  0.10566000000E+00  0.10566000000E+00 0.  1.
     999900   -1    0    0    0    0 -0.00000000000E+00 -0.00000000000E+00 -0.74505805969E-08  0.93827000000E+00  0.93827000000E+00 0.  1.
     999902    2    1    2    0    0 -0.17018334047E-01 -0.13645746475E-01  0.94009152887E-02  0.10201769518E+01  0.10199003901E+01 0.  0.
     999903    2    3    3    0    0  0.81384391852E-01  0.95524767171E-01 -0.13052346753E-01  0.12770541360E+00  0.19746101579E-01 0.  0.
         14    1    1    2    0    0  0.17018334047E-01  0.13645746475E-01 -0.94009152887E-02  0.23753048201E-01  0.00000000000E+00 0. -1.
     999901    1    3    3    0    0 -0.98402725898E-01 -0.10917051365E+00  0.22453262042E-01  0.89247153820E+00  0.88000000000E+00 0. -1.
        -11    1    4    4    0    0  0.25309737453E-01  0.22178931667E-01 -0.10815773720E-01  0.35351519090E-01  0.51100000000E-03 0.  1.
         11    1    4    4    0    0  0.56074654399E-01  0.73345835504E-01 -0.22365730329E-02  0.92353894512E-01  0.51100000000E-03 0. -1.
</event>
<event>
 8    1  0.1103774E+005  0.1043930E+01  0.7957747E-01            NaN
         13   -1    0    0    0    0  0.00000000000E+00  0.00000000000E+00  0.74505805969E-08  0.10566000000E+00  0.10566000000E+00 0. -1.
     999900   -1    0    0    0    0 -0.00000000000E+00 -0.00000000000E+00 -0.74505805969E-08  0.93827000000E+00  0.93827000000E+00 0. -1.
     999902    2    1    2    0    0 -0.15274094901E-01  0.14271503988E-01  0.10203367811E-01  0.10206688196E+01  0.10204037224E+01 0.  0.
     999903    2    3    3    0    0  0.26442018375E-01 -0.33339336938E-01 -0.11990660074E+00  0.12885290234E+00  0.20366291166E-01 0.  0.
         14    1    1    2    0    0  0.15274094901E-01 -0.14271503988E-01 -0.10203367811E-01  0.23261180447E-01  0.00000000000E+00 0.  1.
     999901    1    3    3    0    0 -0.41716113276E-01  0.47610840926E-01  0.13010996855E+00  0.89181591721E+00  0.88000000000E+00 0.  1.
        -11    1    4    4    0    0  0.69734767831E-02  0.13389335119E-02 -0.13617929725E-01  0.15366562803E-01  0.51100000000E-03 0.  1.
         11    1    4    4    0    0  0.19468541591E-01 -0.34678270450E-01 -0.10628867102E+00  0.11348633953E+00  0.51100000000E-03 0. -1.
</event>
<event>
 8    1  0.1103774E+005  0.1043930E+01  0.7957747E-01            NaN
         13   -1    0    0    0    0  0.00000000000E+00  0.00000000000E+00  0.74505805969E-08  0.10566000000E+00  0.10566000000E+00 0.  1.
     999900   -1    0    0    0    0 -0.00000000000E+00 -0.00000000000E+00 -0.74505805969E-08  0.93827000000E+00  0.93827000000E+00 0. -1.
     999902    2    1    2    0    0 -0.27937763653E-02  0.92979452061E-02  0.21077626958E-01  0.10207238946E+01  0.10204600657E+01 0.  0.
     999903    2    3    3    0    0 -0.78672756854E-01 -0.16078553544E-01 -0.98956621703E-01  0.12897852327E+00  0.19877724488E-01 0.  0.
         14    1    1    2    0    0  0.27937763653E-02 -0.92979452061E-02 -0.21077626958E-01  0.23206105438E-01  0.00000000000E+00 0. -1.
     999901    1    3    3    0    0  0.75878980489E-01  0.25376498750E-01  0.12003424866E+00  0.89174537129E+00  0.88000000000E+00 0.  1.
        -11    1    4    4    0    0 -0.59527256245E-01 -0.33354242978E-02 -0.74134243500E-01  0.95135516352E-01  0.51100000000E-03 0. -1.
         11    1    4    4    0    0 -0.19145500609E-01 -0.12743129246E-01 -0.24822378203E-01  0.33843006918E-01  0.51100000000E-03 0.  1.
</event>
<event>
 8    1  0.1103774E+005  0.1043930E+01  0.7957747E-01            NaN
         13   -1    0    0    0    0  0.00000000000E+00  0.00000000000E+00  0.74505805969E-08  0.10566000000E+00  0.10566000000E+00 0.  1.
     999900   -1    0    0    0    0 -0.00000000000E+00 -0.00000000000E+00 -0.74505805969E-08  0.93827000000E+00  0.93827000000E+00 0.  1.
     999902    2    1    2    0    0  0.44174914795E-02 -0.11869392135E-01 -0.45464316790E-02  0.10304738957E+01  0.10303860359E+01 0.  0.
     999903    2    3    3    0    0 -0.20601739822E-01 -0.11397798041E+00  0.76773043225E-01  0.14049356859E+00  0.20710648112E-01 0.  0.
         14    1    1    2    0    0 -0.44174914795E-02  0.11869392135E-01  0.45464316790E-02  0.13456104252E-01  0.00000000000E+00 0. -1.
     999901    1    3    3    0    0  0.25019231302E-01  0.10210858828E+00 -0.81319474904E-01  0.88998032716E+00  0.88000000000E+00 0.  1.
        -11    1    4    4    0    0 -0.83205905572E-02 -0.87153449016E-01  0.51042091173E-01  0.10134353504E+00  0.51100000000E-03 0.  1.
         11    1    4    4    0    0 -0.12281149265E-01 -0.26824531398E-01  0.25730952052E-01  0.39150033544E-01  0.51100000000E-03 0. -1.
</event>
<event>
 8    1  0.1103774E+005  0.1043930E+01  0.7957747E-01            NaN
         13   -1    0    0    0    0  0.00000000000E+00  0.00000000000E+00  0.74505805969E-08  0.10566000000E+00  0.10566000000E+00 0.  1.
     999900   -1    0    0    0    0 -0.00000000000E+00 -0.00000000000E+00 -0.74505805969E-08  0.93827000000E+00  0.93827000000E+00 0.  1.
     999902    2    1    2    0    0  0.86182453232E-02 -0.19922879792E-01  0.95283914973E-02  0.10202237659E+01  0.10199483060E+01 0.  0.
     999903    2    3    3    0    0  0.11030154826E+00 -0.66177489274E-01  0.27108514533E-01  0.13298758328E+00  0.20122974674E-01 0.  0.
         14    1    1    2    0    0 -0.86182453232E-02  0.19922879792E-01 -0.95283914973E-02  0.23706234121E-01  0.00000000000E+00 0. -1.
     999901    1    3    3    0    0 -0.10168330294E+00  0.46254609482E-01 -0.17580123035E-01  0.88723618260E+00  0.88000000000E+00 0.  1.
        -11    1    4    4    0    0  0.75581127289E-01 -0.52372922992E-01  0.26177881055E-01  0.95608432905E-01  0.51100000000E-03 0.  1.
         11    1    4    4    0    0  0.34720420973E-01 -0.13804566283E-01  0.93063347797E-03  0.37379150371E-01  0.51100000000E-03 0. -1.
</event>
<event>
 8    1  0.1103774E+005  0.1043930E+01  0.7957747E-01            NaN
         13   -1    0    0    0    0  0.00000000000E+00  0.00000000000E+00  0.74505805969E-08  0.10566000000E+00  0.10566000000E+00 0. -1.
     999900   -1    0    0    0    0 -0.00000000000E+00 -0.00000000000E+00 -0.74505805969E-08  0.93827000000E+00  0.93827000000E+00 0.  1.
     999902    2    1    2    0    0  0.21520909548E-01  0.21686310640E-02  0.12414106472E-01  0.10189908230E+01  0.10186855918E+01 0.  0.
     999903    2    3    3    0    0  0.90104271553E-01  0.82668590875E-01 -0.42562399189E-01  0.13095572392E+00  0.19620604826E-01 0.  0.
         14    1    1    2    0    0 -0.21520909548E-01 -0.21686310640E-02 -0.12414106472E-01  0.24939176970E-01  0.00000000000E+00 0.  1.
     999901    1    3    3    0    0 -0.68583362005E-01 -0.80499959811E-01  0.54976505661E-01  0.88803509911E+00  0.88000000000E+00 0. -1.
        -11    1    4    4    0    0  0.53698106396E-01  0.61830937322E-01 -0.28109860190E-01  0.86585084175E-01  0.51100000000E-03 0. -1.
         11    1    4    4    0    0  0.36406165157E-01  0.20837653553E-01 -0.14452538999E-01  0.44370639747E-01  0.51100000000E-03 0.  1.
</event>
<event>
 8    1  0.1103774E+005  0.1043930E+01  0.7957747E-01            NaN
         13   -1    0    0    0    0  0.00000000000E+00  0.00000000000E+00  0.74505805969E-08  0.10566000000E+00  0.10566000000E+00 0. -1.
     999900   -1    0    0    0    0 -0.00000000000E+00 -0.00000000000E+00 -0.74505805969E-08  0.93827000000E+00  0.93827000000E+00 0. -1.
     999902    2    1    2    0    0 -0.61526720398E-02 -0.19663890537E-01 -0.11144435855E-01  0.10205051752E+01  0.10202362914E+01 0.  0.
     999903    2    3    3    0    0 -0.39974735012E-02  0.24024490660E-01  0.12503335926E+00  0.12895724529E+00  0.20086668187E-01 0.  0.
         14    1    1    2    0    0  0.61526720398E-02  0.19663890537E-01  0.11144435855E-01  0.23424824755E-01  0.00000000000E+00 0.  1.
     999901    1    3    3    0    0 -0.21551985387E-02 -0.43688381197E-01 -0.13617779511E+00  0.89154792996E+00  0.88000000000E+00 0. -1.
        -11    1    4    4    0    0 -0.60822651272E-02  0.22941744540E-01  0.70867994577E-01  0.74738553424E-01  0.51100000000E-03 0.  1.
         11    1    4    4    0    0  0.20847916260E-02  0.10827461204E-02  0.54165364679E-01  0.54218691861E-01  0.51100000000E-03 0. -1.
</event>
<event>
 8    1  0.1103774E+005  0.1043930E+01  0.7957747E-01            NaN
         13   -1    0    0    0    0  0.00000000000E+00  0.00000000000E+00  0.74505805969E-08  0.10566000000E+00  0.10566000000E+00 0.  1.
     999900   -1    0    0    0    0 -0.00000000000E+00 -0.00000000000E+00 -0.74505805969E-08  0.93827000000E+00  0.93827000000E+00 0. -1.
     999902    2    1    2    0    0 -0.10648658071E-02  0.35520425837E-02 -0.23652904043E-01  0.10199881785E+01  0.10197071509E+01 0.  0.
     999903    2    3    3    0    0  0.10997670518E+00 -0.63500554898E-01  0.16567122066E-01  0.12957033739E+00  0.19667400542E-01 0.  0.
         14    1    1    2    0    0  0.10648658071E-02 -0.35520425837E-02  0.23652904043E-01  0.23941821471E-01  0.00000000000E+00 0.  1.
     999901    1    3    3    0    0 -0.11104157098E+00  0.67052597482E-01 -0.40220026108E-01  0.89041784114E+00  0.88000000000E+00 0. -1.
        -11    1    4    4    0    0  0.94299834006E-01 -0.55769906960E-01  0.20948494096E-01  0.11154300400E+00  0.51100000000E-03 0.  1.
         11    1    4    4    0    0  0.15676871172E-01 -0.77306479384E-02 -0.43813720299E-02  0.18027333390E-01  0.51100000000E-03 0. -1.
</event>
<event>
 8    1  0.1103774E+005  0.1043930E+01  0.7957747E-01            NaN
         13   -1    0    0    0    0  0.00000000000E+00  0.00000000000E+00  0.74505805969E-08  0.10566000000E+00  0.10566000000E+00 0. -1.
     999900   -1    0    0    0    0 -0.00000000000E+00 -0.00000000000E+00 -0.74505805969E-08  0.93827000000E+00  0.93827000000E+00 0.  1.
     999902    2    1    2    0    0  0.20289135923E-01  0.32180047646E-02  0.98865815932E-02  0.10211319938E+01  0.10208774656E+01 0.  0.
     999903    2    3    3    0    0 -0.97046395910E-01 -0.72073628815E-01 -0.39665175276E-01  0.12878013846E+00  0.19959634325E-01 0.  0.
         14    1    1    2    0    0 -0.20289135923E-01 -0.32180047646E-02 -0.98865815932E-02  0.22798006201E-01  0.00000000000E+00 0.  1.
     999901    1    3    3    0    0  0.11733553183E+00  0.75291633580E-01  0.49551756869E-01  0.89235185534E+00  0.88000000000E+00 0. -1.
        -11    1    4    4    0    0 -0.70780018872E-01 -0.49212670091E-01 -0.37123274387E-01  0.93862114781E-01  0.51100000000E-03 0. -1.
         11    1    4    4    0    0 -0.26266377038E-01 -0.22860958725E-01 -0.25419008891E-02  0.34918023679E-01  0.51100000000E-03 0.  1.
</event>
<event>
 8    1  0.1103774E+005  0.1043930E+01  0.7957747E-01            NaN
         13   -1    0    0    0    0  0.00000000000E+00  0.00000000000E+00  0.74505805969E-08  0.10566000000E+00  0.10566000000E+00 0.  1.
     999900   -1    0    0    0    0 -0.00000000000E+00 -0.00000000000E+00 -0.74505805969E-08  0.93827000000E+00  0.93827000000E+00 0. -1.
     999902    2    1    2    0    0 -0.18240483932E-01  0.12648699689E-01  0.80789205238E-02  0.10203085306E+01  0.10200350601E+01 0.  0.
     999903    2    3    3    0    0 -0.79052582828E-01 -0.79709933257E-01  0.65657775999E-01  0.13152084337E+00  0.19590925930E-01 0.  0.
         14    1    1    2    0    0  0.18240483932E-01 -0.12648699689E-01 -0.80789205238E-02  0.23621469360E-01  0.00000000000E+00 0.  1.
     999901    1    3    3    0    0  0.60812098896E-01  0.92358632946E-01 -0.57578855475E-01  0.88878768727E+00  0.88000000000E+00 0.  1.
        -11    1    4    4    0    0 -0.65944298939E-02 -0.16459280992E-01  0.11478144173E-01  0.21128259537E-01  0.51100000000E-03 0. -1.
         11    1    4    4    0    0 -0.72458152934E-01 -0.63250652265E-01  0.54179631826E-01  0.11039258383E+00  0.51100000000E-03 0.  1.
</event>
<event>
 7    1  0.1103774E+005  0.1043930E+01  0.7957747E-01            NaN
         13   -1    0    0    0    0  0.00000000000E+00  0.00000000000E+00  0.74505805969E-08  0.10566000000E+00  0.10566000000E+00 0.  1.
     999900   -1    0    0    0    0 -0.00000000000E+00 -0.00000000000E+00 -0.74505805969E-08  0.93827000000E+00  0.93827000000E+00 0. -1.
     999903    2    1    2    0    0 -0.15902240651E-01 -0.80321855229E-01  0.32228880080E-01  0.90221534451E-01  0.19918405619E-01 0.  0.
         14    1    1    2    0    0  0.30874434696E-02 -0.35586514286E-01  0.50843422967E-01  0.62136832598E-01  0.00000000000E+00 0.  1.
     999901    1    1    2    0    0  0.12814797182E-01  0.11590836952E+00 -0.83072303047E-01  0.89157163295E+00  0.88000000000E+00 0. -1.
        -11    1    3    3    0    0 -0.53010405224E-02 -0.32423566517E-02  0.71823415901E-03  0.62762161040E-02  0.51100000000E-03 0. -1.
         11    1    3    3    0    0 -0.10601200129E-01 -0.77079498577E-01  0.31510645921E-01  0.83945318347E-01  0.51100000000E-03 0.  1.
</event>
<event>
 8    1  0.1103774E+005  0.1043930E+01  0.7957747E-01            NaN
         13   -1    0    0    0    0  0.00000000000E+00  0.00000000000E+00  0.74505805969E-08  0.10566000000E+00  0.10566000000E+00 0. -1.
     999900   -1    0    0    0    0 -0.00000000000E+00 -0.00000000000E+00 -0.74505805969E-08  0.93827000000E+00  0.93827000000E+00 0. -1.
     999902    2    1    2    0    0 -0.16651669387E-01  0.37475741676E-02  0.16119257080E-01  0.10204533551E+01  0.10201832664E+01 0.  0.
     999903    2    3    3    0    0  0.52624889758E-01 -0.66527121809E-01 -0.93455734605E-01  0.12818408336E+00  0.22404194659E-01 0.  0.
         14    1    1    2    0    0  0.16651669387E-01 -0.37475741676E-02 -0.16119257080E-01  0.23476644869E-01  0.00000000000E+00 0.  1.
     999901    1    3    3    0    0 -0.69276559144E-01  0.70274695976E-01  0.10957499169E+00  0.89226927177E+00  0.88000000000E+00 0. -1.
        -11    1    4    4    0    0  0.31025013002E-01 -0.44736860293E-01 -0.44088778456E-01  0.70057259491E-01  0.51100000000E-03 0. -1.
         11    1    4    4    0    0  0.21599876756E-01 -0.21790261516E-01 -0.49366956149E-01  0.58126823870E-01  0.51100000000E-03 0.  1.
</event>
<event>
 8    1  0.1103774E+005  0.1043930E+01  0.7957747E-01            NaN
         13   -1    0    0    0    0  0.00000000000E+00  0.00000000000E+00  0.74505805969E-08  0.10566000000E+00  0.10566000000E+00 0. -1.
     999900   -1    0    0    0    0 -0.00000000000E+00 -0.00000000000E+00 -0.74505805969E-08  0.93827000000E+00  0.93827000000E+00 0. -1.
     999902    2    1    2    0    0  0.14604884109E-01  0.18712054188E-01 -0.19838296675E-02  0.10201102772E+01  0.10198321423E+01 0.  0.
     999903    2    3    3    0    0 -0.70895678231E-01  0.81723749762E-01  0.70489010345E-01  0.13076606240E+00  0.20642045208E-01 0.  0.
         14    1    1    2    0    0 -0.14604884109E-01 -0.18712054188E-01  0.19838296675E-02  0.23819722750E-01  0.00000000000E+00 0. -1.
     999901    1    3    3    0    0  0.85500562340E-01 -0.63011695574E-01 -0.72472840012E-01  0.88934421485E+00  0.88000000000E+00 0. -1.
        -11    1    4    4    0    0 -0.33659104468E-01  0.47108742146E-01  0.27111800026E-01  0.63933400674E-01  0.51100000000E-03 0.  1.
         11    1    4    4    0    0 -0.37236573762E-01  0.34615007616E-01  0.43377210319E-01  0.66832661730E-01  0.51100000000E-03 0. -1.
</event>
<event>
 8    1  0.1103774E+005  0.1043930E+01  0.7957747E-01            NaN
         13   -1    0    0    0    0  0.00000000000E+00  0.00000000000E+00  0.74505805969E-08  0.10566000000E+00  0.10566000000E+00 0. -1.
     999900   -1    0    0    0    0 -0.00000000000E+00 -0.00000000000E+00 -0.74505805969E-08  0.93827000000E+00  0.93827000000E+00 0.  1.
     999902    2    1    2    0    0 -0.24845190025E-01  0.14547708037E-01  0.87582241120E-02  0.10138363833E+01  0.10133896518E+01 0.  0.
     999903    2    3    3    0    0  0.96202591283E-01  0.14524113514E-01 -0.70838306803E-01  0.12199100788E+00  0.19946223977E-01 0.  0.
         14    1    1    2    0    0  0.24845190025E-01 -0.14547708037E-01 -0.87582241120E-02  0.30093616700E-01  0.00000000000E+00 0.  1.
     999901    1    3    3    0    0 -0.12104778131E+00  0.23594523489E-04  0.79596530915E-01  0.89184537542E+00  0.88000000000E+00 0. -1.
        -11    1    4    4    0    0  0.15757087740E-01  0.84993772847E-02 -0.74672064345E-02  0.19404780885E-01  0.51100000000E-03 0. -1.
         11    1    4    4    0    0  0.80445503543E-01  0.60247362290E-02 -0.63371100369E-01  0.10258622700E+00  0.51100000000E-03 0.  1.
</event>
<event>
 8    1  0.1103774E+005  0.1043930E+01  0.7957747E-01            NaN
         13   -1    0    0    0    0  0.00000000000E+00  0.00000000000E+00  0.74505805969E-08  0.10566000000E+00  0.10566000000E+00 0. -1.
     999900   -1    0    0    0    0 -0.00000000000E+00 -0.00000000000E+00 -0.74505805969E-08  0.93827000000E+00  0.93827000000E+00 0.  1.
     999902    2    1    2    0    0 -0.16293700343E-02  0.12556753857E-01 -0.20840059321E-01  0.10195448614E+01  0.10192532018E+01 0.  0.
     999903    2    3    3    0    0 -0.12018795840E+00 -0.42263872636E-01  0.11223186439E-01  0.12932607269E+00  0.19180534109E-01 0.  0.
         14    1    1    2    0    0  0.16293700343E-02 -0.12556753857E-01  0.20840059321E-01  0.24385138643E-01  0.00000000000E+00 0. -1.
     999901    1    3    3    0    0  0.11855858837E+00  0.54820626494E-01 -0.32063245761E-01  0.89021878867E+00  0.88000000000E+00 0.  1.
        -11    1    4    4    0    0 -0.93493781352E-01 -0.24268834935E-01  0.68973913162E-02  0.96839550952E-01  0.51100000000E-03 0. -1.
         11    1    4    4    0    0 -0.26694177050E-01 -0.17995037701E-01  0.43257951233E-02  0.32486521739E-01  0.51100000000E-03 0.  1.
</event>
<event>
 8    1  0.1103774E+005  0.1043930E+01  0.7957747E-01            NaN
         13   -1    0    0    0    0  0.00000000000E+00  0.00000000000E+00  0.74505805969E-08  0.10566000000E+00  0.10566000000E+00 0.  1.
     999900   -1    0    0    0    0 -0.00000000000E+00 -0.00000000000E+00 -0.74505805969E-08  0.93827000000E+00  0.93827000000E+00 0.  1.
     999902    2    1    2    0    0 -0.86086444690E-02 -0.20439864160E-01 -0.10113302782E-01  0.10195542805E+01  0.10192628490E+01 0.  0.
     999903    2    3    3    0    0 -0.12191908585E-01 -0.35090586033E-01  0.12245034126E+00  0.12949776370E+00  0.19889516502E-01 0.  0.
         14    1    1    2    0    0  0.86086444690E-02  0.20439864160E-01  0.10113302782E-01  0.24375719469E-01  0.00000000000E+00 0.  1.
     999901    1    3    3    0    0  0.35832641155E-02  0.14650721873E-01 -0.13256364404E+00  0.89005651683E+00  0.88000000000E+00 0.  1.
        -11    1    4    4    0    0 -0.13611757501E-01 -0.15661121694E-01  0.82168672950E-01  0.84749646668E-01  0.51100000000E-03 0. -1.
         11    1    4    4    0    0  0.14198489170E-02 -0.19429464339E-01  0.40281668305E-01  0.44748117032E-01  0.51100000000E-03 0.  1.
</event>
<event>
 8    1  0.1103774E+005  0.1043930E+01  0.7957747E-01            NaN
         13   -1    0    0    0    0  0.00000000000E+00  0.00000000000E+00  0.74505805969E-08  0.10566000000E+00  0.10566000000E+00 0.  1.
     999900   -1    0    0    0    0 -0.00000000000E+00 -0.00000000000E+00 -0.74505805969E-08  0.93827000000E+00  0.93827000000E+00 0. -1.
     999902    2    1    2    0    0 -0.17451822704E-01 -0.12627678791E-01 -0.11532018745E-01  0.10194961742E+01  0.10192033346E+01 0.  0.
     999903    2    3    3    0    0  0.83818201446E-02  0.97885387714E-01  0.78762307718E-01  0.12762534253E+00  0.20806799430E-01 0.  0.
         14    1    1    2    0    0  0.17451822704E-01  0.12627678791E-01  0.11532018745E-01  0.24433825809E-01  0.00000000000E+00 0.  1.
     999901    1    3    3    0    0 -0.25833642849E-01 -0.11051306651E+00 -0.90294326463E-01  0.89187083166E+00  0.88000000000E+00 0.  1.
        -11    1    4    4    0    0  0.74282392331E-02  0.85583734530E-01  0.58629491675E-01  0.10400688809E+00  0.51100000000E-03 0. -1.
         11    1    4    4    0    0  0.95358091150E-03  0.12301653184E-01  0.20132816043E-01  0.23618454446E-01  0.51100000000E-03 0.  1.
</event>
<event>
 7    1  0.1103774E+005  0.1043930E+01  0.7957747E-01            NaN
         13   -1    0    0    0    0  0.00000000000E+00  0.00000000000E+00  0.74505805969E-08  0.10566000000E+00  0.10566000000E+00 0. -1.
     999900   -1    0    0    0    0 -0.00000000000E+00 -0.00000000000E+00 -0.74505805969E-08  0.93827000000E+00  0.93827000000E+00 0.  1.
     999903    2    1    2    0    0 -0.10892966675E+00  0.34421453466E-01 -0.25494014847E-01  0.11886691301E+00  0.20709646516E-01 0.  0.
         14    1    1    2    0    0  0.35499591204E-01  0.10304882513E-01 -0.15126514792E-01  0.39940243227E-01  0.00000000000E+00 0.  1.
     999901    1    1    2    0    0  0.73430075543E-01 -0.44726335978E-01  0.40620529639E-01  0.88512284376E+00  0.88000000000E+00 0.  1.
        -11    1    3    3    0    0 -0.82337417458E-01  0.28054801614E-01 -0.28053076084E-01  0.91398897182E-01  0.51100000000E-03 0.  1.
         11    1    3    3    0    0 -0.26592249290E-01  0.63666518516E-02  0.25590612367E-02  0.27468015828E-01  0.51100000000E-03 0. -1.
</event>
<event>
 8    1  0.1103774E+005  0.1043930E+01  0.7957747E-01            NaN
         13   -1    0    0    0    0  0.00000000000E+00  0.00000000000E+00  0.74505805969E-08  0.10566000000E+00  0.10566000000E+00 0.  1.
     999900   -1    0    0    0    0 -0.00000000000E+00 -0.00000000000E+00 -0.74505805969E-08  0.93827000000E+00  0.93827000000E+00 0. -1.
     999902    2    1    2    0    0 -0.22667717604E-01  0.75450527888E-02  0.97323601480E-02  0.10181332545E+01  0.10178063921E+01 0.  0.
     999903    2    3    3    0    0  0.12389006818E+00 -0.80969251192E-02 -0.45459563947E-02  0.12576128815E+00  0.19517343256E-01 0.  0.
         14    1    1    2    0    0  0.22667717604E-01 -0.75450527888E-02 -0.97323601480E-02  0.25796745473E-01  0.00000000000E+00 0.  1.
     999901    1    3    3    0    0 -0.14655778579E+00  0.15641977908E-01  0.14278316543E-01  0.89237196637E+00  0.88000000000E+00 0. -1.
        -11    1    4    4    0    0  0.91939715687E-01 -0.12606938878E-01 -0.87698309351E-02  0.93214898402E-01  0.51100000000E-03 0.  1.
         11    1    4    4    0    0  0.31950352495E-01  0.45100137591E-02  0.42238745404E-02  0.32546389751E-01  0.51100000000E-03 0. -1.
</event>
<event>
 8    1  0.1103774E+005  0.1043930E+01  0.7957747E-01            NaN
         13   -1    0    0    0    0  0.00000000000E+00  0.00000000000E+00  0.74505805969E-08  0.10566000000E+00  0.10566000000E+00 0.  1.
     999900   -1    0    0    0    0 -0.00000000000E+00 -0.00000000000E+00 -0.74505805969E-08  0.93827000000E+00  0.93827000000E+00 0.  1.
     999902    2    1    2    0    0 -0.97956992348E-02 -0.38654570752E-03 -0.21050835604E-01  0.10207083975E+01  0.10204442121E+01 0.  0.
     999903    2    3    3    0    0  0.95520781322E-02 -0.61026311129E-01  0.11121576093E+00  0.12855035650E+00  0.18460656290E-01 0.  0.
         14    1    1    2    0    0  0.97956992348E-02  0.38654570752E-03  0.21050835604E-01  0.23221602458E-01  0.00000000000E+00 0.  1.
     999901    1    3    3    0    0 -0.19347777367E-01  0.60639765421E-01 -0.13226659653E+00  0.89215804104E+00  0.88000000000E+00 0.  1.
        -11    1    4    4    0    0 -0.40675810809E-02 -0.32363839887E-01  0.52640159746E-01  0.61929079496E-01  0.51100000000E-03 0.  1.
         11    1    4    4    0    0  0.13619659213E-01 -0.28662471242E-01  0.58575601181E-01  0.66621277003E-01  0.51100000000E-03 0. -1.
</event>
<event>
 8    1  0.1103774E+005  0.1043930E+01  0.7957747E-01            NaN
         13   -1    0    0    0    0  0.00000000000E+00  0.00000000000E+00  0.74505805969E-08  0.10566000000E+00  0.10566000000E+00 0.  1.
     999900   -1    0    0    0    0 -0.00000000000E+00 -0.00000000000E+00 -0.74505805969E-08  0.93827000000E+00  0.93827000000E+00 0.  1.
     999902    2    1    2    0    0 -0.12047691200E-02  0.13108728080E-01 -0.20226929499E-01  0.10197966435E+01  0.10195110471E+01 0.  0.
     999903    2    3    3    0    0  0.12199233603E+00 -0.63292553693E-03  0.37573859704E-01  0.12923092945E+00  0.20157071922E-01 0.  0.
         14    1    1    2    0    0  0.12047691200E-02 -0.13108728080E-01  0.20226929499E-01  0.24133356531E-01  0.00000000000E+00 0.  1.
     999901    1    3    3    0    0 -0.12319710515E+00  0.13741653617E-01 -0.57800789203E-01  0.89056571402E+00  0.88000000000E+00 0.  1.
        -11    1    4    4    0    0  0.98963396105E-01  0.21359839993E-02  0.22343807485E-01  0.10147819002E+00  0.51100000000E-03 0. -1.
         11    1    4    4    0    0  0.23028939922E-01 -0.27689095363E-02  0.15230052219E-01  0.27752739424E-01  0.51100000000E-03 0.  1.
</event>
<event>
 8    1  0.1103774E+005  0.1043930E+01  0.7957747E-01            NaN
         13   -1    0    0    0    0  0.00000000000E+00  0.00000000000E+00  0.74505805969E-08  0.10566000000E+00  0.10566000000E+00 0.  1.
     999900   -1    0    0    0    0 -0.00000000000E+00 -0.00000000000E+00 -0.74505805969E-08  0.93827000000E+00  0.93827000000E+00 0.  1.
     999902    2    1    2    0    0 -0.12362395357E-01  0.78465059444E-02 -0.13902118766E-03  0.10292870563E+01  0.10291828936E+01 0.  0.
     999903    2    3    3    0    0 -0.35014947116E-01 -0.11256428232E+00 -0.69286897961E-01  0.13811180700E+00  0.19427630532E-01 0.  0.
         14    1    1    2    0    0  0.12362395357E-01 -0.78465059444E-02  0.13902118766E-03  0.14642943741E-01  0.00000000000E+00 0. -1.
     999901    1    3    3    0    0  0.22652551759E-01  0.12041078826E+00  0.69147876773E-01  0.89117524926E+00  0.88000000000E+00 0. -1.
        -11    1    4    4    0    0 -0.32826900284E-01 -0.76190313412E-01 -0.45970478749E-01  0.94847853310E-01  0.51100000000E-03 0.  1.
         11    1    4    4    0    0 -0.21880468318E-02 -0.36373968907E-01 -0.23316419212E-01  0.43263953689E-01  0.51100000000E-03 0. -1.
</event>
<event>
 8    1  0.1103774E+005  0.1043930E+01  0.7957747E-01            NaN
         13   -1    0    0    0    0  0.00000000000E+00  0.00000000000E+00  0.74505805969E-08  0.10566000000E+00  0.10566000000E+00 0.  1.
     999900   -1    0    0    0    0 -0.00000000000E+00 -0.00000000000E+00 -0.74505805969E-08  0.93827000000E+00  0.93827000000E+00 0. -1.
     999902    2    1    2    0    0 -0.18569080424E-01 -0.65911916100E-02  0.12002064917E-01  0.10208582832E+01  0.10205975359E+01 0.  0.
     999903    2    3    3    0    0  0.81730113416E-01  0.37722039702E-01 -0.89136806540E-01  0.12830427245E+00  0.20343360845E-01 0.  0.
         14    1    1    2    0    0  0.18569080424E-01  0.65911916100E-02 -0.12002064917E-01  0.23071716818E-01  0.00000000000E+00 0. -1.
     999901    1    3    3    0    0 -0.10029919384E+00 -0.44313231312E-01  0.10113887146E+00  0.89255401073E+00  0.88000000000E+00 0.  1.
        -11    1    4    4    0    0  0.24017909983E-01  0.64695036012E-02 -0.14035594895E-01  0.28565250250E-01  0.51100000000E-03 0. -1.
         11    1    4    4    0    0  0.57712203433E-01  0.31252536101E-01 -0.75101211645E-01  0.99739022200E-01  0.51100000000E-03 0.  1.
</event>
<event>
 8    1  0.1103774E+005  0.1043930E+01  0.7957747E-01            NaN
         13   -1    0    0    0    0  0.00000000000E+00  0.00000000000E+00  0.74505805969E-08  0.10566000000E+00  0.10566000000E+00 0. -1.
     999900   -1    0    0    0    0 -0.00000000000E+00 -0.00000000000E+00 -0.74505805969E-08  0.93827000000E+00  0.93827000000E+00 0. -1.
     999902    2    1    2    0    0  0.19044453808E-01  0.85117183868E-02 -0.10863461621E-01  0.10204107447E+01  0.10201396633E+01 0.  0.
     999903    2    3    3    0    0  0.45603209074E-01 -0.11314256607E+00 -0.34501054024E-01  0.13133039504E+00  0.34299518910E-01 0.  0.
         14    1    1    2    0    0 -0.19044453808E-01 -0.85117183868E-02  0.10863461621E-01  0.23519255284E-01  0.00000000000E+00 0. -1.
     999901    1    3    3    0    0 -0.26558755266E-01  0.12165428446E+00  0.23637592403E-01  0.88908034968E+00  0.88000000000E+00 0.  1.
        -11    1    4    4    0    0  0.14105328116E-01 -0.70898174092E-02 -0.14253461821E-02  0.15859335575E-01  0.51100000000E-03 0. -1.
         11    1    4    4    0    0  0.31497880958E-01 -0.10605274866E+00 -0.33075707842E-01  0.11547105946E+00  0.51100000000E-03 0.  1.
</event>
<event>
 8    1  0.1103774E+005  0.1043930E+01  0.7957747E-01            NaN
         13   -1    0    0    0    0  0.00000000000E+00  0.00000000000E+00  0.74505805969E-08  0.10566000000E+00  0.10566000000E+00 0. -1.
     999900   -1    0    0    0    0 -0.00000000000E+00 -0.00000000000E+00 -0.74505805969E-08  0.93827000000E+00  0.93827000000E+00 0. -1.
     999902    2    1    2    0    0  0.19014299612E-01  0.12770747699E-01  0.76514739287E-02  0.10197808667E+01  0.10194948923E+01 0.  0.
     999903    2    3    3    0    0  0.42987211106E-01  0.85230983183E-01 -0.87630565010E-01  0.13135312446E+00  0.21501315504E-01 0.  0.
         14    1    1    2    0    0 -0.19014299612E-01 -0.12770747699E-01 -0.76514739287E-02  0.24149133314E-01  0.00000000000E+00 0.  1.
     999901    1    3    3    0    0 -0.23972911494E-01 -0.72460235484E-01  0.95282038938E-01  0.88842774223E+00  0.88000000000E+00 0.  1.
        -11    1    4    4    0    0  0.29526010220E-01  0.34856583651E-01 -0.39563777041E-01  0.60434429575E-01  0.51100000000E-03 0.  1.
         11    1    4    4    0    0  0.13461200886E-01  0.50374399532E-01 -0.48066787968E-01  0.70918694885E-01  0.51100000000E-03 0. -1.
</event>
<event>
 8    1  0.1103774E+005  0.1043930E+01  0.7957747E-01            NaN
         13   -1    0    0    0    0  0.00000000000E+00  0.00000000000E+00  0.74505805969E-08  0.10566000000E+00  0.10566000000E+00 0. -1.
     999900   -1    0    0    0    0 -0.00000000000E+00 -0.00000000000E+00 -0.74505805969E-08  0.93827000000E+00  0.93827000000E+00 0.  1.
     999902    2    1    2    0    0 -0.11991566650E-02  0.17838296618E-01 -0.13333231204E-01  0.10216271334E+01  0.10213836605E+01 0.  0.
     999903    2    3    3    0    0 -0.74221780064E-01  0.12480970607E-01 -0.10853295154E+00  0.13346949471E+00  0.19236870453E-01 0.  0.
         14    1    1    2    0    0  0.11991566650E-02 -0.17838296618E-01  0.13333231204E-01  0.22302866571E-01  0.00000000000E+00 0.  1.
     999901    1    3    3    0    0  0.73022623399E-01  0.53573260109E-02  0.95199720333E-01  0.88815763872E+00  0.88000000000E+00 0. -1.
        -11    1    4    4    0    0 -0.13837627139E-01  0.10297562915E-01 -0.24426163083E-01  0.29906826825E-01  0.51100000000E-03 0. -1.
         11    1    4    4    0    0 -0.60384152925E-01  0.21834076919E-02 -0.84106788455E-01  0.10356266788E+00  0.51100000000E-03 0.  1.
</event>
<event>
 8    1  0.1103774E+005  0.1043930E+01  0.7957747E-01            NaN
         13   -1    0    0    0    0  0.00000000000E+00  0.00000000000E+00  0.74505805969E-08  0.10566000000E+00  0.10566000000E+00 0. -1.
     999900   -1    0    0    0    0 -0.00000000000E+00 -0.00000000000E+00 -0.74505805969E-08  0.93827000000E+00  0.93827000000E+00 0.  1.
     999902    2    1    2    0    0 -0.13951938632E-01  0.82759621724E-02 -0.19735912034E-01  0.10183828991E+01  0.10180624120E+01 0.  0.
     999903    2    3    3    0    0 -0.38546771096E-01 -0.11857507736E+00  0.20655089498E-01  0.12803042673E+00  0.20475715261E-01 0.  0.
         14    1    1    2    0    0  0.13951938632E-01 -0.82759621724E-02  0.19735912034E-01  0.25547100917E-01  0.00000000000E+00 0. -1.
     999901    1    3    3    0    0  0.24594832464E-01  0.12685103953E+00 -0.40391001532E-01  0.89035247235E+00  0.88000000000E+00 0. -1.
        -11    1    4    4    0    0 -0.73692484564E-02 -0.30188976147E-01 -0.34071613650E-02  0.31265795578E-01  0.51100000000E-03 0. -1.
         11    1    4    4    0    0 -0.31177522640E-01 -0.88386101210E-01  0.24062250863E-01  0.96764631155E-01  0.51100000000E-03 0.  1.
</event>
<event>
 8    1  0.1103774E+005  0.1043930E+01  0.7957747E-01            NaN
         13   -1    0    0    0    0  0.00000000000E+00  0.00000000000E+00  0.74505805969E-08  0.10566000000E+00  0.10566000000E+00 0. -1.
     999900   -1    0    0    0    0 -0.00000000000E+00 -0.00000000000E+00 -0.74505805969E-08  0.93827000000E+00  0.93827000000E+00 0. -1.
     999902    2    1    2    0    0 -0.43835802779E-02  0.24035420344E-02  0.22195352603E-01  0.10211785942E+01  0.10209251171E+01 0.  0.
     999903    2    3    3    0    0  0.88723968392E-01  0.69677341243E-01 -0.59851361301E-01  0.12992866124E+00  0.23924822076E-01 0.  0.
         14    1    1    2    0    0  0.43835802779E-02 -0.24035420344E-02 -0.22195352603E-01  0.22751405836E-01  0.00000000000E+00 0.  1.
     999901    1    3    3    0    0 -0.93107548670E-01 -0.67273799209E-01  0.82046713903E-01  0.89124993293E+00  0.88000000000E+00 0. -1.
        -11    1    4    4    0    0  0.69788015291E-01  0.61333384605E-01 -0.57082827883E-01  0.10904522688E+00  0.51100000000E-03 0. -1.
         11    1    4    4    0    0  0.18935953102E-01  0.83439566379E-02 -0.27685334179E-02  0.20883434357E-01  0.51100000000E-03 0.  1.
</event>
<event>
 8    1  0.1103774E+005  0.1043930E+01  0.7957747E-01            NaN
         13   -1    0    0    0    0  0.00000000000E+00  0.00000000000E+00  0.74505805969E-08  0.10566000000E+00  0.10566000000E+00 0.  1.
     999900   -1    0    0    0    0 -0.00000000000E+00 -0.00000000000E+00 -0.74505805969E-08  0.93827000000E+00  0.93827000000E+00 0.  1.
     999902    2    1    2    0    0 -0.65457219452E-02  0.21181288780E-01 -0.79581845473E-02  0.10203752516E+01  0.10201033418E+01 0.  0.
     999903    2    3    3    0    0  0.71632906688E-01 -0.40776061875E-02 -0.10764190973E+00  0.13094467264E+00  0.20293505594E-01 0.  0.
         14    1    1    2    0    0  0.65457219452E-02 -0.21181288780E-01  0.79581845473E-02  0.23554748385E-01  0.00000000000E+00 0.  1.
     999901    1    3    3    0    0 -0.78178628634E-01  0.25258894968E-01  0.99683725184E-01  0.88943057898E+00  0.88000000000E+00 0. -1.
        -11    1    4    4    0    0  0.45804733022E-01 -0.53331353350E-02 -0.84374439384E-01  0.96155202886E-01  0.51100000000E-03 0. -1.
         11    1    4    4    0    0  0.25828173666E-01  0.12555291475E-02 -0.23267470347E-01  0.34789469754E-01  0.51100000000E-03 0.  1.
</event>
<event>
 8    1  0.1103774E+005  0.1043930E+01  0.7957747E-01            NaN
         13   -1    0    0    0    0  0.00000000000E+00  0.00000000000E+00  0.74505805969E-08  0.10566000000E+00  0.10566000000E+00 0.  1.
     999900   -1    0    0    0    0 -0.00000000000E+00 -0.00000000000E+00 -0.74505805969E-08  0.93827000000E+00  0.93827000000E+00 0.  1.
     999902    2    1    2    0    0  0.27172289456E-02  0.21558155140E-01 -0.10048587878E-01  0.10199902526E+01  0.10197092742E+01 0.  0.
     999903    2    3    3    0    0 -0.33873826352E-01 -0.53799828386E-01  0.10929466607E+00  0.12799219025E+00  0.19870055050E-01 0.  0.
         14    1    1    2    0    0 -0.27172289456E-02 -0.21558155140E-01  0.10048587878E-01  0.23939747378E-01  0.00000000000E+00 0.  1.
     999901    1    3    3    0    0  0.36591055298E-01  0.75357983526E-01 -0.11934325395E+00  0.89199806237E+00  0.88000000000E+00 0. -1.
        -11    1    4    4    0    0 -0.11413109388E-01 -0.16271520617E-01  0.53645455791E-01  0.57211165843E-01  0.51100000000E-03 0.  1.
         11    1    4    4    0    0 -0.22460716964E-01 -0.37528307768E-01  0.55649210281E-01  0.70781024409E-01  0.51100000000E-03 0. -1.
</event>
<event>
 8    1  0.1103774E+005  0.1043930E+01  0.7957747E-01            NaN
         13   -1    0    0    0    0  0.00000000000E+00  0.00000000000E+00  0.74505805969E-08  0.10566000000E+00  0.10566000000E+00 0. -1.
     999900   -1    0    0    0    0 -0.00000000000E+00 -0.00000000000E+00 -0.74505805969E-08  0.93827000000E+00  0.93827000000E+00 0.  1.
     999902    2    1    2    0    0 -0.15816342913E-01 -0.15429217065E-01 -0.69346275528E-02  0.10207717077E+01  0.10205089773E+01 0.  0.
     999903    2    3    3    0    0 -0.11052575412E+00  0.65432489502E-01  0.21256350077E-01  0.13155676217E+00  0.18920788740E-01 0.  0.
         14    1    1    2    0    0  0.15816342913E-01  0.15429217065E-01  0.69346275528E-02  0.23158292287E-01  0.00000000000E+00 0. -1.
     999901    1    3    3    0    0  0.94709411210E-01 -0.80861706567E-01 -0.28190977630E-01  0.88921494554E+00  0.88000000000E+00 0. -1.
        -11    1    4    4    0    0 -0.61459977642E-01  0.32594591165E-01  0.20431802434E-01  0.72508316052E-01  0.51100000000E-03 0. -1.
         11    1    4    4    0    0 -0.49065776481E-01  0.32837898337E-01  0.82454764279E-03  0.59048446116E-01  0.51100000000E-03 0.  1.
</event>
<event>
 8    1  0.1103774E+005  0.1043930E+01  0.7957747E-01            NaN
         13   -1    0    0    0    0  0.00000000000E+00  0.00000000000E+00  0.74505805969E-08  0.10566000000E+00  0.10566000000E+00 0.  1.
     999900   -1    0    0    0    0 -0.00000000000E+00 -0.00000000000E+00 -0.74505805969E-08  0.93827000000E+00  0.93827000000E+00 0.  1.
     999902    2    1    2    0    0  0.95548470616E-02 -0.14165687538E-01 -0.17318404101E-01  0.10196012325E+01  0.10193109361E+01 0.  0.
     999903    2    3    3    0    0  0.64465476725E-01  0.86447139679E-01 -0.71293984792E-01  0.13052784886E+00  0.18049415830E-01 0.  0.
         14    1    1    2    0    0 -0.95548470616E-02  0.14165687538E-01  0.17318404101E-01  0.24328767466E-01  0.00000000000E+00 0.  1.
     999901    1    3    3    0    0 -0.54910629663E-01 -0.10061282722E+00  0.53975580691E-01  0.88907338368E+00  0.88000000000E+00 0. -1.
        -11    1    4    4    0    0  0.37919522031E-01  0.46464514273E-01 -0.49727233895E-01  0.77909563915E-01  0.51100000000E-03 0.  1.
         11    1    4    4    0    0  0.26545954695E-01  0.39982625406E-01 -0.21566750897E-01  0.52618284942E-01  0.51100000000E-03 0. -1.
</event>
<event>
 8    1  0.1103774E+005  0.1043930E+01  0.7957747E-01            NaN
         13   -1    0    0    0    0  0.00000000000E+00  0.00000000000E+00  0.74505805969E-08  0.10566000000E+00  0.10566000000E+00 0.  1.
     999900   -1    0    0    0    0 -0.00000000000E+00 -0.00000000000E+00 -0.74505805969E-08  0.93827000000E+00  0.93827000000E+00 0.  1.
     999902    2    1    2    0    0  0.21999566993E-01 -0.36691902603E-03 -0.99849013469E-02  0.10197677602E+01  0.10194814716E+01 0.  0.
     999903    2    3    3    0    0 -0.99444003829E-01  0.38361555750E-02  0.76810374026E-01  0.12718744081E+00  0.19312833930E-01 0.  0.
         14    1    1    2    0    0 -0.21999566993E-01  0.36691902603E-03  0.99849013469E-02  0.24162239804E-01  0.00000000000E+00 0. -1.
     999901    1    3    3    0    0  0.12144357082E+00 -0.42030746011E-02 -0.86795275373E-01  0.89258031939E+00  0.88000000000E+00 0.  1.
        -11    1    4    4    0    0 -0.35089891085E-01  0.53967459383E-03  0.39023815525E-01  0.52485340850E-01  0.51100000000E-03 0.  1.
         11    1    4    4    0    0 -0.64354112743E-01  0.32964809812E-02  0.37786558501E-01  0.74702099958E-01  0.51100000000E-03 0. -1.
</event>
<event>
 8    1  0.1103774E+005  0.1043930E+01  0.7957747E-01            NaN
         13   -1    0    0    0    0  0.00000000000E+00  0.00000000000E+00  0.74505805969E-08  0.10566000000E+00  0.10566000000E+00 0. -1.
     999900   -1    0    0    0    0 -0.00000000000E+00 -0.00000000000E+00 -0.74505805969E-08  0.93827000000E+00  0.93827000000E+00 0.  1.
     999902    2    1    2    0    0 -0.14696398578E-01  0.31017363752E-02  0.18164453139E-01  0.10203598439E+01  0.10200875741E+01 0.  0.
     999903    2    3    3    0    0  0.14916136192E-01 -0.12682328607E+00  0.17672853486E-01  0.13032745387E+00  0.19138403083E-01 0.  0.
         14    1    1    2    0    0  0.14696398578E-01 -0.31017363752E-02 -0.18164453139E-01  0.23570156078E-01  0.00000000000E+00 0.  1.
     999901    1    3    3    0    0 -0.29612534770E-01  0.12992502245E+00  0.49159965367E-03  0.89003239005E+00  0.88000000000E+00 0.  1.
        -11    1    4    4    0    0 -0.28653804724E-02 -0.55624382964E-01  0.61096614995E-02  0.56034556035E-01  0.51100000000E-03 0. -1.
         11    1    4    4    0    0  0.17781516664E-01 -0.71198903108E-01  0.11563191986E-01  0.74292897834E-01  0.51100000000E-03 0.  1.
</event>
<event>
 8    1  0.1103774E+005  0.1043930E+01  0.7957747E-01            NaN
         13   -1    0    0    0    0  0.00000000000E+00  0.00000000000E+00  0.74505805969E-08  0.10566000000E+00  0.10566000000E+00 0.  1.
     999900   -1    0    0    0    0 -0.00000000000E+00 -0.00000000000E+00 -0.74505805969E-08  0.93827000000E+00  0.93827000000E+00 0. -1.
     999902    2    1    2    0    0  0.16014341376E-01  0.17277586636E-01  0.18519677626E-02  0.10202994284E+01  0.10200257446E+01 0.  0.
     999903    2    3    3    0    0 -0.39815445500E-01 -0.88367267385E-01  0.82074441920E-01  0.12860808850E+00  0.20243091811E-01 0.  0.
         14    1    1    2    0    0 -0.16014341376E-01 -0.17277586636E-01 -0.18519677626E-02  0.23630571603E-01  0.00000000000E+00 0.  1.
     999901    1    3    3    0    0  0.55829786877E-01  0.10564485402E+00 -0.80222474157E-01  0.89169133990E+00  0.88000000000E+00 0.  1.
        -11    1    4    4    0    0 -0.61260255898E-02 -0.31673679344E-01  0.34857972852E-01  0.47498310971E-01  0.51100000000E-03 0.  1.
         11    1    4    4    0    0 -0.33689419910E-01 -0.56693588042E-01  0.47216469068E-01  0.81109777531E-01  0.51100000000E-03 0. -1.
</event>
<event>
 8    1  0.1103774E+005  0.1043930E+01  0.7957747E-01            NaN
         13   -1    0    0    0    0  0.00000000000E+00  0.00000000000E+00  0.74505805969E-08  0.10566000000E+00  0.10566000000E+00 0. -1.
     999900   -1    0    0    0    0 -0.00000000000E+00 -0.00000000000E+00 -0.74505805969E-08  0.93827000000E+00  0.93827000000E+00 0. -1.
     999902    2    1    2    0    0  0.13652132885E-01  0.18436471644E-01  0.51033066608E-02  0.10204283414E+01  0.10201576701E+01 0.  0.
     999903    2    3    3    0    0 -0.31609194010E-01 -0.10556244005E-01 -0.12357689089E+00  0.12944699561E+00  0.19357202208E-01 0.  0.
         14    1    1    2    0    0 -0.13652132885E-01 -0.18436471644E-01 -0.51033066608E-02  0.23501658619E-01  0.00000000000E+00 0. -1.
     999901    1    3    3    0    0  0.45261326895E-01  0.28992715649E-01  0.12868019755E+00  0.89098134577E+00  0.88000000000E+00 0.  1.
        -11    1    4    4    0    0 -0.15974997369E-01 -0.14408386156E-01 -0.56408318962E-01  0.60373518215E-01  0.51100000000E-03 0.  1.
         11    1    4    4    0    0 -0.15634196641E-01  0.38521421515E-02 -0.67168571925E-01  0.69073477393E-01  0.51100000000E-03 0. -1.
</event>
<event>
 8    1  0.1103774E+005  0.1043930E+01  0.7957747E-01            NaN
         13   -1    0    0    0    0  0.00000000000E+00  0.00000000000E+00  0.74505805969E-08  0.10566000000E+00  0.10566000000E+00 0. -1.
     999900   -1    0    0    0    0 -0.00000000000E+00 -0.00000000000E+00 -0.74505805969E-08  0.93827000000E+00  0.93827000000E+00 0. -1.
     999902    2    1    2    0    0 -0.20796236614E-01 -0.39828161089E-02 -0.12907523747E-01  0.10191318055E+01  0.10188300577E+01 0.  0.
     999903    2    3    3    0    0  0.55876097543E-01 -0.11426615622E+00  0.13397554047E-02  0.12882621364E+00  0.20383955458E-01 0.  0.
         14    1    1    2    0    0  0.20796236614E-01  0.39828161089E-02  0.12907523747E-01  0.24798194506E-01  0.00000000000E+00 0. -1.
     999901    1    3    3    0    0 -0.76672334157E-01  0.11028334012E+00 -0.14247279151E-01  0.89030559186E+00  0.88000000000E+00 0. -1.
        -11    1    4    4    0    0  0.47967453965E-01 -0.78089779613E-01  0.36539634269E-02  0.91719697391E-01  0.51100000000E-03 0.  1.
         11    1    4    4    0    0  0.79086435788E-02 -0.36176376612E-01 -0.23142080222E-02  0.37106516244E-01  0.51100000000E-03 0. -1.
</event>
<event>
 8    1  0.1103774E+005  0.1043930E+01  0.7957747E-01            NaN
         13   -1    0    0    0    0  0.00000000000E+00  0.00000000000E+00  0.74505805969E-08  0.10566000000E+00  0.10566000000E+00 0. -1.
     999900   -1    0    0    0    0 -0.00000000000E+00 -0.00000000000E+00 -0.74505805969E-08  0.93827000000E+00  0.93827000000E+00 0.  1.
     999902    2    1    2    0    0  0.25648921200E-02  0.13008819767E-01  0.18757309523E-01  0.10209594814E+01  0.10207010424E+01 0.  0.
     999903    2    3    3    0    0 -0.35702980510E-01  0.33853812233E-01 -0.11794150953E+00  0.12933988152E+00  0.19945472216E-01 0.  0.
         14    1    1    2    0    0 -0.25648921200E-02 -0.13008819767E-01 -0.18757309523E-01  0.22970518581E-01  0.00000000000E+00 0.  1.
     999901    1    3    3    0    0  0.38267872630E-01 -0.20844992465E-01  0.13669881906E+00  0.89161959990E+00  0.88000000000E+00 0. -1.
        -11    1    4    4    0    0 -0.25296603920E-01  0.25486992303E-01 -0.60427843684E-01  0.70294312429E-01  0.51100000000E-03 0.  1.
         11    1    4    4    0    0 -0.10406376590E-01  0.83668199294E-02 -0.57513665848E-01  0.59045569095E-01  0.51100000000E-03 0. -1.
</event>
<event>
 8    1  0.1103774E+005  0.1043930E+01  0.7957747E-01            NaN
         13   -1    0    0    0    0  0.00000000000E+00  0.00000000000E+00  0.74505805969E-08  0.10566000000E+00  0.10566000000E+00 0.  1.
     999900   -1    0    0    0    0 -0.00000000000E+00 -0.00000000000E+00 -0.74505805969E-08  0.93827000000E+00  0.93827000000E+00 0. -1.
     999902    2    1    2    0    0 -0.17134107437E-01 -0.57432148211E-02  0.16458934839E-01  0.10194870319E+01  0.10191939705E+01 0.  0.
     999903    2    3    3    0    0  0.69643595579E-02 -0.10510814808E+00  0.76261189622E-01  0.13155097802E+00  0.19841010018E-01 0.  0.
         14    1    1    2    0    0  0.17134107437E-01  0.57432148211E-02 -0.16458934839E-01  0.24442968113E-01  0.00000000000E+00 0. -1.
     999901    1    3    3    0    0 -0.24098466995E-01  0.99364933263E-01 -0.59802254784E-01  0.88793605386E+00  0.88000000000E+00 0. -1.
        -11    1    4    4    0    0  0.19847860599E-03 -0.29531602856E-01  0.32662567786E-01  0.44037023246E-01  0.51100000000E-03 0.  1.
         11    1    4    4    0    0  0.67658809519E-02 -0.75576545228E-01  0.43598621836E-01  0.87513954777E-01  0.51100000000E-03 0. -1.
</event>
<event>
 7    1  0.1103774E+005  0.1043930E+01  0.7957747E-01            NaN
         13   -1    0    0    0    0  0.00000000000E+00  0.00000000000E+00  0.74505805969E-08  0.10566000000E+00  0.10566000000E+00 0. -1.
     999900   -1    0    0    0    0 -0.00000000000E+00 -0.00000000000E+00 -0.74505805969E-08  0.93827000000E+00  0.93827000000E+00 0. -1.
     999902    2    1    2    0    0  0.15382132649E-01  0.66033666142E-02  0.16993675427E-01  0.10200762904E+01  0.10197973519E+01 0.  0.
         14    1    1    2    0    0 -0.15382132649E-01 -0.66033666142E-02 -0.16993675427E-01  0.23853709565E-01  0.00000000000E+00 0.  1.
     999901    1    3    3    0    0 -0.54655260032E-02 -0.61314764765E-01  0.10490909373E+00  0.88836664182E+00  0.88000000000E+00 0.  1.
        -11    1    3    3    0    0 -0.24069940590E-01  0.33480326451E-01 -0.41567777080E-01  0.58552843754E-01  0.51100000000E-03 0. -1.
         11    1    3    3    0    0  0.44917599242E-01  0.34437804928E-01 -0.46347641219E-01  0.73156804861E-01  0.51100000000E-03 0.  1.
</event>
<event>
 8    1  0.1103774E+005  0.1043930E+01  0.7957747E-01            NaN
         13   -1    0    0    0    0  0.00000000000E+00  0.00000000000E+00  0.74505805969E-08  0.10566000000E+00  0.10566000000E+00 0.  1.
     999900   -1    0    0    0    0 -0.00000000000E+00 -0.00000000000E+00 -0.74505805969E-08  0.93827000000E+00  0.93827000000E+00 0. -1.
     999902    2    1    2    0    0 -0.19234176473E-01 -0.37690788574E-02 -0.11967262165E-01  0.10209653562E+01  0.10207070509E+01 0.  0.
     999903    2    3    3    0    0 -0.12381808205E+00 -0.47960122159E-01 -0.38767582753E-02  0.13363447213E+00  0.14562009725E-01 0.  0.
         14    1    1    2    0    0  0.19234176473E-01  0.37690788574E-02  0.11967262165E-01  0.22964643775E-01  0.00000000000E+00 0.  1.
     999901    1    3    3    0    0  0.10458390558E+00  0.44191043302E-01 -0.80905038896E-02  0.88733088409E+00  0.88000000000E+00 0.  1.
        -11    1    4    4    0    0 -0.89780309794E-01 -0.39324284508E-01  0.19441923219E-02  0.98035424126E-01  0.51100000000E-03 0.  1.
         11    1    4    4    0    0 -0.34037772254E-01 -0.86358376512E-02 -0.58209505971E-02  0.35599048005E-01  0.51100000000E-03 0. -1.
</event>
<event>
 8    1  0.1103774E+005  0.1043930E+01  0.7957747E-01            NaN
         13   -1    0    0    0    0  0.00000000000E+00  0.00000000000E+00  0.74505805969E-08  0.10566000000E+00  0.10566000000E+00 0. -1.
     999900   -1    0    0    0    0 -0.00000000000E+00 -0.00000000000E+00 -0.74505805969E-08  0.93827000000E+00  0.93827000000E+00 0. -1.
     999902    2    1    2    0    0 -0.16549043198E-01  0.16471847599E-01 -0.83308135098E-02  0.10191389724E+01  0.10188374012E+01 0.  0.
     999903    2    3    3    0    0  0.55796266976E-01 -0.74898751712E-02  0.11263239210E+00  0.12760091650E+00  0.20654696881E-01 0.  0.
         14    1    1    2    0    0  0.16549043198E-01 -0.16471847599E-01  0.83308135098E-02  0.24791027567E-01  0.00000000000E+00 0.  1.
     999901    1    3    3    0    0 -0.72345310174E-01  0.23961722770E-01 -0.12096320561E+00  0.89153805593E+00  0.88000000000E+00 0. -1.
        -11    1    4    4    0    0  0.46495503296E-01 -0.78829741249E-02  0.73170066647E-01  0.87052242257E-01  0.51100000000E-03 0. -1.
         11    1    4    4    0    0  0.93007636796E-02  0.39309895366E-03  0.39462325453E-01  0.40548674245E-01  0.51100000000E-03 0.  1.
</event>
<event>
 8    1  0.1103774E+005  0.1043930E+01  0.7957747E-01            NaN
         13   -1    0    0    0    0  0.00000000000E+00  0.00000000000E+00  0.74505805969E-08  0.10566000000E+00  0.10566000000E+00 0. -1.
     999900   -1    0    0    0    0 -0.00000000000E+00 -0.00000000000E+00 -0.74505805969E-08  0.93827000000E+00  0.93827000000E+00 0.  1.
     999902    2    1    2    0    0  0.15440335801E-01  0.17221507691E-01  0.27339703963E-02  0.10206392531E+01  0.10203734738E+01 0.  0.
     999903    2    3    3    0    0 -0.95431944151E-01 -0.48945725396E-02 -0.84547914731E-01  0.12912373953E+00  0.19833744505E-01 0.  0.
         14    1    1    2    0    0 -0.15440335801E-01 -0.17221507691E-01 -0.27339703963E-02  0.23290746895E-01  0.00000000000E+00 0.  1.
     999901    1    3    3    0    0  0.11087227995E+00  0.22116080231E-01  0.87281885127E-01  0.89151551357E+00  0.88000000000E+00 0.  1.
        -11    1    4    4    0    0 -0.85828790385E-01 -0.86029292829E-02 -0.68962937473E-01  0.11043884967E+00  0.51100000000E-03 0.  1.
         11    1    4    4    0    0 -0.96031537666E-02  0.37083567433E-02 -0.15584977258E-01  0.18684889861E-01  0.51100000000E-03 0. -1.
</event>
<event>
 8    1  0.1103774E+005  0.1043930E+01  0.7957747E-01            NaN
         13   -1    0    0    0    0  0.00000000000E+00  0.00000000000E+00  0.74505805969E-08  0.10566000000E+00  0.10566000000E+00 0.  1.
     999900   -1    0    0    0    0 -0.00000000000E+00 -0.00000000000E+00 -0.74505805969E-08  0.93827000000E+00  0.93827000000E+00 0.  1.
     999902    2    1    2    0    0  0.21543931854E-01 -0.90885865057E-02 -0.53233931746E-02  0.10199491343E+01  0.10196671784E+01 0.  0.
     999903    2    3    3    0    0  0.63248262591E-01  0.11193973549E+00 -0.13804492489E-01  0.13064657895E+00  0.18631088970E-01 0.  0.
         14    1    1    2    0    0 -0.21543931854E-01  0.90885865057E-02  0.53233931746E-02  0.23980865691E-01  0.00000000000E+00 0. -1.
     999901    1    3    3    0    0 -0.41704330736E-01 -0.12102832199E+00  0.84810993146E-02  0.88930255536E+00  0.88000000000E+00 0. -1.
        -11    1    4    4    0    0  0.49093693066E-01  0.99911127067E-01 -0.11246787371E-01  0.11188912082E+00  0.51100000000E-03 0. -1.
         11    1    4    4    0    0  0.14154569524E-01  0.12028608420E-01 -0.25577051182E-02  0.18757458128E-01  0.51100000000E-03 0.  1.
</event>
<event>
 8    1  0.1103774E+005  0.1043930E+01  0.7957747E-01            NaN
         13   -1    0    0    0    0  0.00000000000E+00  0.00000000000E+00  0.74505805969E-08  0.10566000000E+00  0.10566000000E+00 0.  1.
     999900   -1    0    0    0    0 -0.00000000000E+00 -0.00000000000E+00 -0.74505805969E-08  0.93827000000E+00  0.93827000000E+00 0. -1.
     999902    2    1    2    0    0  0.23543957465E-01  0.51822592752E-04  0.21414292459E-02  0.10202888000E+01  0.10200148671E+01 0.  0.
     999903    2    3    3    0    0  0.75758729506E-01 -0.10538425113E+00 -0.15552260274E-01  0.13228192236E+00  0.20283212329E-01 0.  0.
         14    1    1    2    0    0 -0.23543957465E-01 -0.51822592752E-04 -0.21414292459E-02  0.23641200010E-01  0.00000000000E+00 0. -1.
     999901    1    3    3    0    0 -0.52214772041E-01  0.10543607372E+00  0.17693689520E-01  0.88800687763E+00  0.88000000000E+00 0. -1.
        -11    1    4    4    0    0  0.17465182496E-01 -0.26812568309E-01  0.47719127864E-02  0.32357050107E-01  0.51100000000E-03 0. -1.
         11    1    4    4    0    0  0.58293547010E-01 -0.78571682820E-01 -0.20324173060E-01  0.99924872258E-01  0.51100000000E-03 0.  1.
</event>
<event>
 8    1  0.1103774E+005  0.1043930E+01  0.7957747E-01            NaN
         13   -1    0    0    0    0  0.00000000000E+00  0.00000000000E+00  0.74505805969E-08  0.10566000000E+00  0.10566000000E+00 0. -1.
     999900   -1    0    0    0    0 -0.00000000000E+00 -0.00000000000E+00 -0.74505805969E-08  0.93827000000E+00  0.93827000000E+00 0. -1.
     999902    2    1    2    0    0  0.41386338276E-02  0.12776822157E-01 -0.21495300470E-01  0.10185839270E+01  0.10182685269E+01 0.  0.
     999903    2    3    3    0    0  0.65709517399E-01 -0.64152940139E-01  0.85005201869E-01  0.12670303863E+00  0.19860393974E-01 0.  0.
         14    1    1    2    0    0 -0.41386338276E-02 -0.12776822157E-01  0.21495300470E-01  0.25346073003E-01  0.00000000000E+00 0. -1.
     999901    1    3    3    0    0 -0.61570883571E-01  0.76929762296E-01 -0.10650050234E+00  0.89188088836E+00  0.88000000000E+00 0. -1.
        -11    1    4    4    0    0  0.32163818385E-01 -0.35074871106E-01  0.56804888858E-01  0.74106776447E-01  0.51100000000E-03 0. -1.
         11    1    4    4    0    0  0.33545699014E-01 -0.29078069033E-01  0.28200313011E-01  0.52596262186E-01  0.51100000000E-03 0.  1.
</event>
<event>
 8    1  0.1103774E+005  0.1043930E+01  0.7957747E-01            NaN
         13   -1    0    0    0    0  0.00000000000E+00  0.00000000000E+00  0.74505805969E-08  0.10566000000E+00  0.10566000000E+00 0.  1.
     999900   -1    0    0    0    0 -0.00000000000E+00 -0.00000000000E+00 -0.74505805969E-08  0.93827000000E+00  0.93827000000E+00 0. -1.
     999902    2    1    2    0    0  0.23064835449E-01 -0.24894226853E-02  0.40600492780E-02  0.10203786124E+01  0.10201067810E+01 0.  0.
     999903    2    3    3    0    0 -0.25945892064E-01 -0.12355646460E+00  0.26138234737E-01  0.13046472533E+00  0.19961161805E-01 0.  0.
         14    1    1    2    0    0 -0.23064835449E-01  0.24894226853E-02 -0.40600492780E-02  0.23551387640E-01  0.00000000000E+00 0.  1.
     999901    1    3    3    0    0  0.49010727513E-01  0.12106704192E+00 -0.22078185459E-01  0.88991388703E+00  0.88000000000E+00 0.  1.
        -11    1    4    4    0    0 -0.18602550074E-01 -0.83164446758E-01  0.27007472404E-01  0.89398236898E-01  0.51100000000E-03 0. -1.
         11    1    4    4    0    0 -0.73433419902E-02 -0.40392017846E-01 -0.86923766722E-03  0.41066488435E-01  0.51100000000E-03 0.  1.
</event>
<event>
 8    1  0.1103774E+005  0.1043930E+01  0.7957747E-01            NaN
         13   -1    0    0    0    0  0.00000000000E+00  0.00000000000E+00  0.74505805969E-08  0.10566000000E+00  0.10566000000E+00 0. -1.
     999900   -1    0    0    0    0 -0.00000000000E+00 -0.00000000000E+00 -0.74505805969E-08  0.93827000000E+00  0.93827000000E+00 0. -1.
     999902    2    1    2    0    0  0.17516429016E-01 -0.21852935647E-02  0.16280608829E-01  0.10199162744E+01  0.10196335360E+01 0.  0.
     999903    2    3    3    0    0 -0.10317240789E+00 -0.72472175944E-01  0.17589904903E-01  0.12890126025E+00  0.20232847100E-01 0.  0.
         14    1    1    2    0    0 -0.17516429016E-01  0.21852935647E-02 -0.16280608829E-01  0.24013725602E-01  0.00000000000E+00 0.  1.
     999901    1    3    3    0    0  0.12068883691E+00  0.70286882379E-01 -0.13092960743E-02  0.89101501415E+00  0.88000000000E+00 0.  1.
        -11    1    4    4    0    0 -0.65678413704E-01 -0.51585107936E-01  0.30103837191E-02  0.83570335159E-01  0.51100000000E-03 0.  1.
         11    1    4    4    0    0 -0.37493994189E-01 -0.20887068008E-01  0.14579521184E-01  0.45330925086E-01  0.51100000000E-03 0. -1.
</event>
<event>
 8    1  0.1103774E+005  0.1043930E+01  0.7957747E-01            NaN
         13   -1    0    0    0    0  0.00000000000E+00  0.00000000000E+00  0.74505805969E-08  0.10566000000E+00  0.10566000000E+00 0.  1.
     999900   -1    0    0    0    0 -0.00000000000E+00 -0.00000000000E+00 -0.74505805969E-08  0.93827000000E+00  0.93827000000E+00 0.  1.
     999902    2    1    2    0    0  0.16610294314E-01  0.15010421793E-01  0.22756714892E-02  0.10214268153E+01  0.10211789000E+01 0.  0.
     999903    2    3    3    0    0  0.53304386319E-01 -0.11043873580E+00  0.41175112687E-01  0.13092296129E+00  0.20183159378E-01 0.  0.
         14    1    1    2    0    0 -0.16610294314E-01 -0.15010421793E-01 -0.22756714892E-02  0.22503184671E-01  0.00000000000E+00 0.  1.
     999901    1    3    3    0    0 -0.36694092005E-01  0.12544915759E+00 -0.38899441198E-01  0.89050385404E+00  0.88000000000E+00 0. -1.
        -11    1    4    4    0    0  0.17720404741E-01 -0.54855597397E-01  0.12638599693E-01  0.59018172059E-01  0.51100000000E-03 0.  1.
         11    1    4    4    0    0  0.35583981578E-01 -0.55583138404E-01  0.28536512995E-01  0.71904789233E-01  0.51100000000E-03 0. -1.
</event>
<event>
 8    1  0.1103774E+005  0.1043930E+01  0.7957747E-01            NaN
         13   -1    0    0    0    0  0.00000000000E+00  0.00000000000E+00  0.74505805969E-08  0.10566000000E+00  0.10566000000E+00 0. -1.
     999900   -1    0    0    0    0 -0.00000000000E+00 -0.00000000000E+00 -0.74505805969E-08  0.93827000000E+00  0.93827000000E+00 0.  1.
     999902    2    1    2    0    0  0.40823704287E-02 -0.67695449606E-02  0.22461665089E-01  0.10201178416E+01  0.10198398854E+01 0.  0.
     999903    2    3    3    0    0 -0.42459878866E-01 -0.12229108074E+00  0.12968707445E-01  0.13129754347E+00  0.17689200280E-01 0.  0.
         14    1    1    2    0    0 -0.40823704287E-02  0.67695449606E-02 -0.22461665089E-01  0.23812158362E-01  0.00000000000E+00 0.  1.
     999901    1    3    3    0    0  0.46542249294E-01  0.11552153578E+00  0.94929576438E-02  0.88882029817E+00  0.88000000000E+00 0.  1.
        -11    1    4    4    0    0 -0.19025162125E-01 -0.35025646377E-01  0.89193001649E-02  0.40848105640E-01  0.51100000000E-03 0.  1.
         11    1    4    4    0    0 -0.23434716741E-01 -0.87265434360E-01  0.40494072800E-02  0.90449437826E-01  0.51100000000E-03 0. -1.
</event>
<event>
 8    1  0.1103774E+005  0.1043930E+01  0.7957747E-01            NaN
         13   -1    0    0    0    0  0.00000000000E+00  0.00000000000E+00  0.74505805969E-08  0.10566000000E+00  0.10566000000E+00 0.  1.
     999900   -1    0    0    0    0 -0.00000000000E+00 -0.00000000000E+00 -0.74505805969E-08  0.93827000000E+00  0.93827000000E+00 0. -1.
     999902    2    1    2    0    0 -0.18510006422E-01 -0.14253596507E-01 -0.71218957745E-02  0.10195065123E+01  0.10192139235E+01 0.  0.
     999903    2    3    3    0    0  0.50993122962E-01  0.28493706988E-02 -0.11770489142E+00  0.12970215438E+00  0.18968128116E-01 0.  0.
         14    1    1    2    0    0  0.18510006422E-01  0.14253596507E-01  0.71218957745E-02  0.24423487682E-01  0.00000000000E+00 0.  1.
     999901    1    3    3    0    0 -0.69503129384E-01 -0.17102967206E-01  0.11058299564E+00  0.88980435794E+00  0.88000000000E+00 0.  1.
        -11    1    4    4    0    0  0.25178488522E-01  0.57160215534E-02 -0.38609518912E-01  0.46449814406E-01  0.51100000000E-03 0.  1.
         11    1    4    4    0    0  0.25814634439E-01 -0.28666508546E-02 -0.79095372505E-01  0.83252339974E-01  0.51100000000E-03 0. -1.
</event>
<event>
 8    1  0.1103774E+005  0.1043930E+01  0.7957747E-01            NaN
         13   -1    0    0    0    0  0.00000000000E+00  0.00000000000E+00  0.74505805969E-08  0.10566000000E+00  0.10566000000E+00 0.  1.
     999900   -1    0    0    0    0 -0.00000000000E+00 -0.00000000000E+00 -0.74505805969E-08  0.93827000000E+00  0.93827000000E+00 0.  1.
     999902    2    1    2    0    0  0.11910692677E-01  0.15709389030E-01 -0.12140649171E-01  0.10207773573E+01  0.10205147565E+01 0.  0.
     999903    2    3    3    0    0 -0.10131225100E+00 -0.54919364571E-01 -0.54769723240E-01  0.12969650023E+00  0.23262647729E-01 0.  0.
         14    1    1    2    0    0 -0.11910692677E-01 -0.15709389030E-01  0.12140649171E-01  0.23152642744E-01  0.00000000000E+00 0. -1.
     999901    1    3    3    0    0  0.11322294368E+00  0.70628753601E-01  0.42629074070E-01  0.89108085703E+00  0.88000000000E+00 0.  1.
        -11    1    4    4    0    0 -0.14753906379E-01 -0.61231633852E-02  0.50624420845E-03  0.15990256016E-01  0.51100000000E-03 0. -1.
         11    1    4    4    0    0 -0.86558344621E-01 -0.48796201186E-01 -0.55275967449E-01  0.11370624421E+00  0.51100000000E-03 0.  1.
</event>
<event>
 8    1  0.1103774E+005  0.1043930E+01  0.7957747E-01            NaN
         13   -1    0    0    0    0  0.00000000000E+00  0.00000000000E+00  0.74505805969E-08  0.10566000000E+00  0.10566000000E+00 0.  1.
     999900   -1    0    0    0    0 -0.00000000000E+00 -0.00000000000E+00 -0.74505805969E-08  0.93827000000E+00  0.93827000000E+00 0.  1.
     999902    2    1    2    0    0 -0.16661678871E-01  0.15219610793E-01  0.62226623640E-02  0.10205212490E+01  0.10202527383E+01 0.  0.
     999903    2    3    3    0    0  0.49385910012E-02  0.98754202003E-01 -0.84590895192E-01  0.13165022248E+00  0.19984479871E-01 0.  0.
         14    1    1    2    0    0  0.16661678871E-01 -0.15219610793E-01 -0.62226623640E-02  0.23408750978E-01  0.00000000000E+00 0. -1.
     999901    1    3    3    0    0 -0.21600269872E-01 -0.83534591210E-01  0.90813557556E-01  0.88887102654E+00  0.88000000000E+00 0. -1.
        -11    1    4    4    0    0  0.70830392964E-02  0.24059171641E-01 -0.13400076205E-01  0.28440048330E-01  0.51100000000E-03 0. -1.
         11    1    4    4    0    0 -0.21444482952E-02  0.74695030361E-01 -0.71190818987E-01  0.10321017415E+00  0.51100000000E-03 0.  1.
</event>
<event>
 7    1  0.1103774E+005  0.1043930E+01  0.7957747E-01            NaN
         13   -1    0    0    0    0  0.00000000000E+00  0.00000000000E+00  0.74505805969E-08  0.10566000000E+00  0.10566000000E+00 0.  1.
     999900   -1    0    0    0    0 -0.00000000000E+00 -0.00000000000E+00 -0.74505805969E-08  0.93827000000E+00  0.93827000000E+00 0. -1.
     999902    2    1    2    0    0  0.70606921416E-02  0.71314840558E-02  0.20653784608E-01  0.10209671984E+01  0.10207089350E+01 0.  0.
         14    1    1    2    0    0 -0.70606921416E-02 -0.71314840558E-02 -0.20653784608E-01  0.22962801593E-01  0.00000000000E+00 0. -1.
     999901    1    3    3    0    0 -0.10986481974E+00 -0.39631416413E-01  0.15605769241E-01  0.88785385499E+00  0.88000000000E+00 0.  1.
        -11    1    3    3    0    0  0.60011157408E-01  0.45775160647E-01  0.92002010046E-02  0.76036893448E-01  0.51100000000E-03 0. -1.
         11    1    3    3    0    0  0.56914354471E-01  0.98773982250E-03 -0.41521856373E-02  0.57076449972E-01  0.51100000000E-03 0.  1.
</event>
<event>
 8    1  0.1103774E+005  0.1043930E+01  0.7957747E-01            NaN
         13   -1    0    0    0    0  0.00000000000E+00  0.00000000000E+00  0.74505805969E-08  0.10566000000E+00  0.10566000000E+00 0.  1.
     999900   -1    0    0    0    0 -0.00000000000E+00 -0.00000000000E+00 -0.74505805969E-08  0.93827000000E+00  0.93827000000E+00 0.  1.
     999902    2    1    2    0    0 -0.24986590192E-01  0.38314479904E-02  0.56351426877E-02  0.10180308781E+01  0.10177013826E+01 0.  0.
     999903    2    3    3    0    0  0.88945899437E-01 -0.58711526641E-02 -0.86499454448E-01  0.12586299217E+00  0.20334544964E-01 0.  0.
         14    1    1    2    0    0  0.24986590192E-01 -0.38314479904E-02 -0.56351426877E-02  0.25899121921E-01  0.00000000000E+00 0.  1.
     999901    1    3    3    0    0 -0.11393248963E+00  0.97026006545E-02  0.92134597136E-01  0.89216788591E+00  0.88000000000E+00 0. -1.
        -11    1    4    4    0    0  0.18666904169E-01 -0.77856735141E-02 -0.12461890340E-01  0.23761941317E-01  0.51100000000E-03 0. -1.
         11    1    4    4    0    0  0.70278995268E-01  0.19145208500E-02 -0.74037564108E-01  0.10210105086E+00  0.51100000000E-03 0.  1.
</event>
<event>
 8    1  0.1103774E+005  0.1043930E+01  0.7957747E-01            NaN
         13   -1    0    0    0    0  0.00000000000E+00  0.00000000000E+00  0.74505805969E-08  0.10566000000E+00  0.10566000000E+00 0.  1.
     999900   -1    0    0    0    0 -0.00000000000E+00 -0.00000000000E+00 -0.74505805969E-08  0.93827000000E+00  0.93827000000E+00 0. -1.
     999902    2    1    2    0    0 -0.15679838243E-01  0.65389344033E-02  0.17156953015E-01  0.10197851035E+01  0.10194992306E+01 0.  0.
     999903    2    3    3    0    0 -0.54632798435E-01 -0.11225673058E+00  0.33517487211E-01  0.13079837119E+00  0.19961856941E-01 0.  0.
         14    1    1    2    0    0  0.15679838243E-01 -0.65389344033E-02 -0.17156953015E-01  0.24144896505E-01  0.00000000000E+00 0. -1.
     999901    1    3    3    0    0  0.38952960191E-01  0.11879566498E+00 -0.16360534195E-01  0.88898673230E+00  0.88000000000E+00 0. -1.
        -11    1    4    4    0    0 -0.41433816281E-01 -0.65031861953E-01  0.24730105277E-01  0.80979895212E-01  0.51100000000E-03 0.  1.
         11    1    4    4    0    0 -0.13198982154E-01 -0.47224868629E-01  0.87873819339E-02  0.49818475982E-01  0.51100000000E-03 0. -1.
</event>
<event>
 8    1  0.1103774E+005  0.1043930E+01  0.7957747E-01            NaN
         13   -1    0    0    0    0  0.00000000000E+00  0.00000000000E+00  0.74505805969E-08  0.10566000000E+00  0.10566000000E+00 0. -1.
     999900   -1    0    0    0    0 -0.00000000000E+00 -0.00000000000E+00 -0.74505805969E-08  0.93827000000E+00  0.93827000000E+00 0.  1.
     999902    2    1    2    0    0 -0.72832298163E-02 -0.14768230414E-01  0.38977824091E-02  0.10270084524E+01  0.10268690386E+01 0.  0.
     999903    2    3    3    0    0 -0.40798062451E-01 -0.12495652810E+00 -0.38628383972E-01  0.13848541960E+00  0.20185231733E-01 0.  0.
         14    1    1    2    0    0  0.72832298163E-02  0.14768230414E-01 -0.38977824091E-02  0.16921547619E-01  0.00000000000E+00 0.  1.
     999901    1    3    3    0    0  0.33514832635E-01  0.11018829768E+00  0.42526166381E-01  0.88852303278E+00  0.88000000000E+00 0.  1.
        -11    1    4    4    0    0 -0.30302551931E-01 -0.64771523204E-01 -0.26052837321E-01  0.76109173725E-01  0.51100000000E-03 0.  1.
         11    1    4    4    0    0 -0.10495510520E-01 -0.60185004893E-01 -0.12575546652E-01  0.62376245876E-01  0.51100000000E-03 0. -1.
</event>
<event>
 8    1  0.1103774E+005  0.1043930E+01  0.7957747E-01            NaN
         13   -1    0    0    0    0  0.00000000000E+00  0.00000000000E+00  0.74505805969E-08  0.10566000000E+00  0.10566000000E+00 0. -1.
     999900   -1    0    0    0    0 -0.00000000000E+00 -0.00000000000E+00 -0.74505805969E-08  0.93827000000E+00  0.93827000000E+00 0. -1.
     999902    2    1    2    0    0 -0.12157546321E-01 -0.20368366583E-01  0.23002752824E-02  0.10200979301E+01  0.10198195034E+01 0.  0.
     999903    2    3    3    0    0 -0.96753442731E-01  0.83474628753E-01  0.74352865798E-02  0.12994839113E+00  0.22406662960E-01 0.  0.
         14    1    1    2    0    0  0.12157546321E-01  0.20368366583E-01 -0.23002752824E-02  0.23832069910E-01  0.00000000000E+00 0. -1.
     999901    1    3    3    0    0  0.84595896411E-01 -0.10384299534E+00 -0.51350112973E-02  0.89014953896E+00  0.88000000000E+00 0. -1.
        -11    1    4    4    0    0 -0.74101074950E-01  0.50354172931E-01  0.60175480443E-02  0.89794120330E-01  0.51100000000E-03 0.  1.
         11    1    4    4    0    0 -0.22652367781E-01  0.33120455822E-01  0.14177385355E-02  0.40154270800E-01  0.51100000000E-03 0. -1.
</event>
<event>
 8    1  0.1103774E+005  0.1043930E+01  0.7957747E-01            NaN
         13   -1    0    0    0    0  0.00000000000E+00  0.00000000000E+00  0.74505805969E-08  0.10566000000E+00  0.10566000000E+00 0.  1.
     999900   -1    0    0    0    0 -0.00000000000E+00 -0.00000000000E+00 -0.74505805969E-08  0.93827000000E+00  0.93827000000E+00 0.  1.
     999902    2    1    2    0    0 -0.21416817049E-01 -0.13136653811E-01  0.95908786749E-02  0.10170369399E+01  0.10166813171E+01 0.  0.
     999903    2    3    3    0    0  0.16069073077E-01  0.55652876542E-01  0.11183730462E+00  0.12765989781E+00  0.20832883335E-01 0.  0.
         14    1    1    2    0    0  0.21416817049E-01  0.13136653811E-01 -0.95908786749E-02  0.26893060064E-01  0.00000000000E+00 0.  1.
     999901    1    3    3    0    0 -0.37485890126E-01 -0.68789530353E-01 -0.10224642594E+00  0.88937704213E+00  0.88000000000E+00 0.  1.
        -11    1    4    4    0    0  0.28818942882E-03  0.36861229751E-01  0.71424631462E-01  0.80377686036E-01  0.51100000000E-03 0. -1.
         11    1    4    4    0    0  0.15780883648E-01  0.18791646792E-01  0.40412673153E-01  0.47282211773E-01  0.51100000000E-03 0.  1.
</event>
<event>
 8    1  0.1262479E+005  0.1043930E+01  0.7957747E-01            NaN
         13   -1    0    0    0    0  0.00000000000E+00  0.00000000000E+00  0.74505805969E-08  0.10566000000E+00  0.10566000000E+00 0.  1.
     999900   -1    0    0    0    0 -0.00000000000E+00 -0.00000000000E+00 -0.74505805969E-08  0.93827000000E+00  0.93827000000E+00 0.  1.
     999902    2    1    2    0    0  0.50152534257E-02  0.23186389537E-01 -0.10633023588E-02  0.10201835889E+01  0.10199071836E+01 0.  0.
     999903    2    3    3    0    0 -0.85321423367E-01 -0.91699973011E-01  0.16934382299E-01  0.12794846962E+00  0.19884849505E-01 0.  0.
         14    1    1    2    0    0 -0.50152534257E-02 -0.23186389537E-01  0.10633023588E-02  0.23746411068E-01  0.00000000000E+00 0.  1.
     999901    1    3    3    0    0  0.90336676793E-01  0.11488636255E+00 -0.17997684658E-01  0.89223511931E+00  0.88000000000E+00 0. -1.
        -11    1    4    4    0    0 -0.29466173134E-01 -0.40661680030E-01  0.14401006763E-01  0.52242489401E-01  0.51100000000E-03 0. -1.
         11    1    4    4    0    0 -0.55855250233E-01 -0.51038292981E-01  0.25333755359E-02  0.75705980224E-01  0.51100000000E-03 0.  1.
</event>
<event>
 8    1  0.1103774E+005  0.1043930E+01  0.7957747E-01            NaN
         13   -1    0    0    0    0  0.00000000000E+00  0.00000000000E+00  0.74505805969E-08  0.10566000000E+00  0.10566000000E+00 0.  1.
     999900   -1    0    0    0    0 -0.00000000000E+00 -0.00000000000E+00 -0.74505805969E-08  0.93827000000E+00  0.93827000000E+00 0.  1.
     999902    2    1    2    0    0  0.30366632621E-02  0.22730370071E-01  0.46478481182E-02  0.10205314201E+01  0.10202631454E+01 0.  0.
     999903    2    3    3    0    0 -0.32135624177E-02  0.46789624653E-01 -0.12053732816E+00  0.13132433435E+00  0.22742852852E-01 0.  0.
         14    1    1    2    0    0 -0.30366632621E-02 -0.22730370071E-01 -0.46478481182E-02  0.23398579860E-01  0.00000000000E+00 0. -1.
     999901    1    3    3    0    0  0.62502256799E-02 -0.24059254581E-01  0.12518517628E+00  0.88920708579E+00  0.88000000000E+00 0. -1.
        -11    1    4    4    0    0 -0.10171668736E-01  0.41187504019E-01 -0.89932717754E-01  0.99438564832E-01  0.51100000000E-03 0.  1.
         11    1    4    4    0    0  0.69581063180E-02  0.56021206338E-02 -0.30604610403E-01  0.31885769523E-01  0.51100000000E-03 0. -1.
</event>
<event>
 8    1  0.1103774E+005  0.1043930E+01  0.7957747E-01            NaN
         13   -1    0    0    0    0  0.00000000000E+00  0.00000000000E+00  0.74505805969E-08  0.10566000000E+00  0.10566000000E+00 0.  1.
     999900   -1    0    0    0    0 -0.00000000000E+00 -0.00000000000E+00 -0.74505805969E-08  0.93827000000E+00  0.93827000000E+00 0.  1.
     999902    2    1    2    0    0  0.20253603799E-01 -0.96470521541E-02 -0.60480164333E-02  0.10206952720E+01  0.10204307844E+01 0.  0.
     999903    2    3    3    0    0  0.11184238517E+00 -0.12406322018E-01 -0.69258219027E-01  0.13368250538E+00  0.20289785479E-01 0.  0.
         14    1    1    2    0    0 -0.20253603799E-01  0.96470521541E-02  0.60480164333E-02  0.23234727993E-01  0.00000000000E+00 0.  1.
     999901    1    3    3    0    0 -0.91588781375E-01  0.27592698636E-02  0.63210202594E-01  0.88701276663E+00  0.88000000000E+00 0. -1.
        -11    1    4    4    0    0  0.45780109164E-01 -0.51800936576E-02 -0.16898822383E-01  0.49076298600E-01  0.51100000000E-03 0. -1.
         11    1    4    4    0    0  0.66062276011E-01 -0.72262283601E-02 -0.52359396644E-01  0.84606206782E-01  0.51100000000E-03 0.  1.
</event>
<event>
 8    1  0.1103774E+005  0.1043930E+01  0.7957747E-01            NaN
         13   -1    0    0    0    0  0.00000000000E+00  0.00000000000E+00  0.74505805969E-08  0.10566000000E+00  0.10566000000E+00 0.  1.
     999900   -1    0    0    0    0 -0.00000000000E+00 -0.00000000000E+00 -0.74505805969E-08  0.93827000000E+00  0.93827000000E+00 0. -1.
     999902    2    1    2    0    0  0.51552344464E-02  0.12051557704E-01  0.19104917755E-01  0.10207607452E+01  0.10204977631E+01 0.  0.
     999903    2    3    3    0    0 -0.83151731693E-01  0.31851589405E-01  0.96621371533E-01  0.13272979860E+00  0.18782325951E-01 0.  0.
         14    1    1    2    0    0 -0.51552344464E-02 -0.12051557704E-01 -0.19104917755E-01  0.23169254794E-01  0.00000000000E+00 0. -1.
     999901    1    3    3    0    0  0.88306966140E-01 -0.19800031701E-01 -0.77516453777E-01  0.88803094661E+00  0.88000000000E+00 0.  1.
        -11    1    4    4    0    0 -0.38067063949E-01  0.89315475234E-02  0.31135644452E-01  0.49985631689E-01  0.51100000000E-03 0.  1.
         11    1    4    4    0    0 -0.45084667744E-01  0.22920041882E-01  0.65485727080E-01  0.82744166910E-01  0.51100000000E-03 0. -1.
</event>
<event>
 8    1  0.1103774E+005  0.1043930E+01  0.7957747E-01            NaN
         13   -1    0    0    0    0  0.00000000000E+00  0.00000000000E+00  0.74505805969E-08  0.10566000000E+00  0.10566000000E+00 0. -1.
     999900   -1    0    0    0    0 -0.00000000000E+00 -0.00000000000E+00 -0.74505805969E-08  0.93827000000E+00  0.93827000000E+00 0.  1.
     999902    2    1    2    0    0 -0.15704120817E-01  0.22635340540E-02  0.16453555798E-01  0.10210725615E+01  0.10208166894E+01 0.  0.
     999903    2    3    3    0    0 -0.92790370181E-01 -0.61944368136E-01 -0.66648102131E-01  0.13148230182E+00  0.19961679080E-01 0.  0.
         14    1    1    2    0    0  0.15704120817E-01 -0.22635340540E-02 -0.16453555798E-01  0.22857438514E-01  0.00000000000E+00 0.  1.
     999901    1    3    3    0    0  0.77086249364E-01  0.64207902190E-01  0.83101657929E-01  0.88959025967E+00  0.88000000000E+00 0.  1.
        -11    1    4    4    0    0 -0.49956687564E-01 -0.44446274542E-01 -0.35556976711E-01  0.75734415340E-01  0.51100000000E-03 0. -1.
         11    1    4    4    0    0 -0.42833682617E-01 -0.17498093594E-01 -0.31091125420E-01  0.55747886479E-01  0.51100000000E-03 0.  1.
</event>
<event>
 8    1  0.1103774E+005  0.1043930E+01  0.7957747E-01            NaN
         13   -1    0    0    0    0  0.00000000000E+00  0.00000000000E+00  0.74505805969E-08  0.10566000000E+00  0.10566000000E+00 0.  1.
     999900   -1    0    0    0    0 -0.00000000000E+00 -0.00000000000E+00 -0.74505805969E-08  0.93827000000E+00  0.93827000000E+00 0. -1.
     999902    2    1    2    0    0 -0.14354334520E-03 -0.39263741230E-02  0.23458386713E-01  0.10201448591E+01  0.10198675408E+01 0.  0.
     999903    2    3    3    0    0 -0.85124025383E-01 -0.24577546130E-01 -0.90770327455E-01  0.12846310405E+00  0.20331288292E-01 0.  0.
         14    1    1    2    0    0  0.14354334520E-03  0.39263741230E-02 -0.23458386713E-01  0.23785140857E-01  0.00000000000E+00 0. -1.
     999901    1    3    3    0    0  0.84980482038E-01  0.20651172007E-01  0.11422871417E+00  0.89168175510E+00  0.88000000000E+00 0.  1.
        -11    1    4    4    0    0 -0.27395635334E-01 -0.41918856123E-02 -0.16684298426E-01  0.32353047389E-01  0.51100000000E-03 0. -1.
         11    1    4    4    0    0 -0.57728390049E-01 -0.20385660518E-01 -0.74086029029E-01  0.96110056657E-01  0.51100000000E-03 0.  1.
</event>
<event>
 8    1  0.1103774E+005  0.1043930E+01  0.7957747E-01            NaN
         13   -1    0    0    0    0  0.00000000000E+00  0.00000000000E+00  0.74505805969E-08  0.10566000000E+00  0.10566000000E+00 0.  1.
     999900   -1    0    0    0    0 -0.00000000000E+00 -0.00000000000E+00 -0.74505805969E-08  0.93827000000E+00  0.93827000000E+00 0. -1.
     999902    2    1    2    0    0 -0.16761664002E-01 -0.14117048753E-01  0.28029268460E-02  0.10218369956E+01  0.10215981327E+01 0.  0.
     999903    2    3    3    0    0 -0.11945429647E+00 -0.51336651000E-01  0.28893999863E-01  0.13470012922E+00  0.20111710613E-01 0.  0.
         14    1    1    2    0    0  0.16761664002E-01  0.14117048753E-01 -0.28029268460E-02  0.22093004425E-01  0.00000000000E+00 0. -1.
     999901    1    3    3    0    0  0.10269263246E+00  0.37219602247E-01 -0.26091073017E-01  0.88713686635E+00  0.88000000000E+00 0. -1.
        -11    1    4    4    0    0 -0.95647090736E-01 -0.33829338466E-01  0.17137703929E-01  0.10289194392E+00  0.51100000000E-03 0. -1.
         11    1    4    4    0    0 -0.23807205731E-01 -0.17507312534E-01  0.11756295933E-01  0.31808185298E-01  0.51100000000E-03 0.  1.
</event>
<event>
 8    1  0.1103774E+005  0.1043930E+01  0.7957747E-01            NaN
         13   -1    0    0    0    0  0.00000000000E+00  0.00000000000E+00  0.74505805969E-08  0.10566000000E+00  0.10566000000E+00 0.  1.
     999900   -1    0    0    0    0 -0.00000000000E+00 -0.00000000000E+00 -0.74505805969E-08  0.93827000000E+00  0.93827000000E+00 0.  1.
     999902    2    1    2    0    0  0.21445108589E-01 -0.43333510158E-02 -0.93656400880E-02  0.10201311381E+01  0.10198534959E+01 0.  0.
     999903    2    3    3    0    0  0.36215094253E-01  0.49313704576E-01  0.11277511806E+00  0.12995445685E+00  0.20653306981E-01 0.  0.
         14    1    1    2    0    0 -0.21445108589E-01  0.43333510158E-02  0.93656400880E-02  0.23798861899E-01  0.00000000000E+00 0.  1.
     999901    1    3    3    0    0 -0.14769985664E-01 -0.53647055592E-01 -0.12214075815E+00  0.89017668126E+00  0.88000000000E+00 0.  1.
        -11    1    4    4    0    0  0.39681924478E-03  0.10971514983E-01  0.11586634563E-01  0.15970060363E-01  0.51100000000E-03 0. -1.
         11    1    4    4    0    0  0.35818275008E-01  0.38342189594E-01  0.10118848350E+00  0.11398439648E+00  0.51100000000E-03 0.  1.
</event>
<event>
 8    1  0.1103774E+005  0.1043930E+01  0.7957747E-01            NaN
         13   -1    0    0    0    0  0.00000000000E+00  0.00000000000E+00  0.74505805969E-08  0.10566000000E+00  0.10566000000E+00 0. -1.
     999900   -1    0    0    0    0 -0.00000000000E+00 -0.00000000000E+00 -0.74505805969E-08  0.93827000000E+00  0.93827000000E+00 0.  1.
     999902    2    1    2    0    0  0.44820448887E-02  0.22677639535E-01 -0.55565993800E-02  0.10201552264E+01  0.10198781526E+01 0.  0.
     999903    2    3    3    0    0  0.98205694318E-02  0.10954101145E+00  0.71259644105E-01  0.13253228820E+00  0.19778618865E-01 0.  0.
         14    1    1    2    0    0 -0.44820448887E-02 -0.22677639535E-01  0.55565993800E-02  0.23774773562E-01  0.00000000000E+00 0. -1.
     999901    1    3    3    0    0 -0.53385245431E-02 -0.86863371914E-01 -0.76816243485E-01  0.88762293824E+00  0.88000000000E+00 0.  1.
        -11    1    4    4    0    0  0.15672327677E-01  0.73531088794E-01  0.45693623091E-01  0.87980743269E-01  0.51100000000E-03 0.  1.
         11    1    4    4    0    0 -0.58517582454E-02  0.36009922655E-01  0.25566021014E-01  0.44551544930E-01  0.51100000000E-03 0. -1.
</event>
<event>
 8    1  0.1103774E+005  0.1043930E+01  0.7957747E-01            NaN
         13   -1    0    0    0    0  0.00000000000E+00  0.00000000000E+00  0.74505805969E-08  0.10566000000E+00  0.10566000000E+00 0.  1.
     999900   -1    0    0    0    0 -0.00000000000E+00 -0.00000000000E+00 -0.74505805969E-08  0.93827000000E+00  0.93827000000E+00 0.  1.
     999902    2    1    2    0    0 -0.49639640754E-02 -0.23241052885E-01  0.49456711871E-02  0.10196555867E+01  0.10193666015E+01 0.  0.
     999903    2    3    3    0    0  0.97710016789E-01  0.76560708423E-01  0.24376576408E-01  0.12787091649E+00  0.18653802602E-01 0.  0.
         14    1    1    2    0    0  0.49639640754E-02  0.23241052885E-01 -0.49456711871E-02  0.24274413321E-01  0.00000000000E+00 0. -1.
     999901    1    3    3    0    0 -0.10267398086E+00 -0.99801761309E-01 -0.19430905221E-01  0.89178467019E+00  0.88000000000E+00 0.  1.
        -11    1    4    4    0    0  0.90838393943E-01  0.69055026872E-01  0.17172186116E-01  0.11539218192E+00  0.51100000000E-03 0.  1.
         11    1    4    4    0    0  0.68716228455E-02  0.75056815517E-02  0.72043902916E-02  0.12478734574E-01  0.51100000000E-03 0. -1.
</event>
<event>
 8    1  0.1103774E+005  0.1043930E+01  0.7957747E-01            NaN
         13   -1    0    0    0    0  0.00000000000E+00  0.00000000000E+00  0.74505805969E-08  0.10566000000E+00  0.10566000000E+00 0.  1.
     999900   -1    0    0    0    0 -0.00000000000E+00 -0.00000000000E+00 -0.74505805969E-08  0.93827000000E+00  0.93827000000E+00 0.  1.
     999902    2    1    2    0    0  0.13528945890E-01 -0.12374988415E-01 -0.16124663770E-01  0.10195132538E+01  0.10192208284E+01 0.  0.
     999903    2    3    3    0    0  0.67824898474E-01  0.10838352449E+00 -0.22795813824E-02  0.12950069474E+00  0.20445738270E-01 0.  0.
         14    1    1    2    0    0 -0.13528945890E-01  0.12374988415E-01  0.16124663770E-01  0.24416746238E-01  0.00000000000E+00 0.  1.
     999901    1    3    3    0    0 -0.54295952584E-01 -0.12075851291E+00 -0.13845082387E-01  0.89001255902E+00  0.88000000000E+00 0. -1.
        -11    1    4    4    0    0  0.34979484363E-01  0.52933140885E-01 -0.11220652788E-01  0.64433267031E-01  0.51100000000E-03 0.  1.
         11    1    4    4    0    0  0.32845414111E-01  0.55450383606E-01  0.89410714053E-02  0.65067427712E-01  0.51100000000E-03 0. -1.
</event>
<event>
 8    1  0.1103774E+005  0.1043930E+01  0.7957747E-01            NaN
         13   -1    0    0    0    0  0.00000000000E+00  0.00000000000E+00  0.74505805969E-08  0.10566000000E+00  0.10566000000E+00 0.  1.
     999900   -1    0    0    0    0 -0.00000000000E+00 -0.00000000000E+00 -0.74505805969E-08  0.93827000000E+00  0.93827000000E+00 0. -1.
     999902    2    1    2    0    0  0.16715438143E-01  0.20432770817E-02  0.16396658334E-01  0.10204261438E+01  0.10201554213E+01 0.  0.
     999903    2    3    3    0    0 -0.83182647625E-01  0.94623973580E-01  0.24712270701E-01  0.12990946098E+00  0.19817227023E-01 0.  0.
         14    1    1    2    0    0 -0.16715438143E-01 -0.20432770817E-02 -0.16396658334E-01  0.23503856238E-01  0.00000000000E+00 0. -1.
     999901    1    3    3    0    0  0.99898085768E-01 -0.92580696498E-01 -0.83156123666E-02  0.89051668278E+00  0.88000000000E+00 0. -1.
        -11    1    4    4    0    0 -0.26907258514E-01  0.19371645129E-01  0.19107731945E-02  0.33214053817E-01  0.51100000000E-03 0. -1.
         11    1    4    4    0    0 -0.56275389110E-01  0.75252328451E-01  0.22801497506E-01  0.96695407162E-01  0.51100000000E-03 0.  1.
</event>
<event>
 8    1  0.1103774E+005  0.1043930E+01  0.7957747E-01            NaN
         13   -1    0    0    0    0  0.00000000000E+00  0.00000000000E+00  0.74505805969E-08  0.10566000000E+00  0.10566000000E+00 0.  1.
     999900   -1    0    0    0    0 -0.00000000000E+00 -0.00000000000E+00 -0.74505805969E-08  0.93827000000E+00  0.93827000000E+00 0. -1.
     999902    2    1    2    0    0 -0.14667024872E-01 -0.14861866610E-01 -0.10130016974E-01  0.10207219423E+01  0.10204580685E+01 0.  0.
     999903    2    3    3    0    0  0.63298100117E-01 -0.59781901917E-01 -0.96991301355E-01  0.13187929425E+00  0.20107472211E-01 0.  0.
         14    1    1    2    0    0  0.14667024872E-01  0.14861866610E-01  0.10130016974E-01  0.23208057687E-01  0.00000000000E+00 0.  1.
     999901    1    3    3    0    0 -0.77965124990E-01  0.44920035308E-01  0.86861284381E-01  0.88884264806E+00  0.88000000000E+00 0.  1.
        -11    1    4    4    0    0  0.34822743826E-01 -0.20555758999E-01 -0.50686883457E-01  0.64842763599E-01  0.51100000000E-03 0.  1.
         11    1    4    4    0    0  0.28475356292E-01 -0.39226142919E-01 -0.46304417898E-01  0.67036530654E-01  0.51100000000E-03 0. -1.
</event>
<event>
 8    1  0.1103774E+005  0.1043930E+01  0.7957747E-01            NaN
         13   -1    0    0    0    0  0.00000000000E+00  0.00000000000E+00  0.74505805969E-08  0.10566000000E+00  0.10566000000E+00 0.  1.
     999900   -1    0    0    0    0 -0.00000000000E+00 -0.00000000000E+00 -0.74505805969E-08  0.93827000000E+00  0.93827000000E+00 0. -1.
     999902    2    1    2    0    0  0.16279893515E-01  0.11865206139E-01  0.14618995170E-01  0.10190395788E+01  0.10187355545E+01 0.  0.
     999903    2    3    3    0    0  0.84869870549E-02  0.99455496643E-01 -0.80367460165E-01  0.12957051518E+00  0.19135438009E-01 0.  0.
         14    1    1    2    0    0 -0.16279893515E-01 -0.11865206139E-01 -0.14618995170E-01  0.24890421237E-01  0.00000000000E+00 0. -1.
     999901    1    3    3    0    0  0.77929064600E-02 -0.87590290503E-01  0.94986455335E-01  0.88946906359E+00  0.88000000000E+00 0.  1.
        -11    1    4    4    0    0 -0.56686876143E-02  0.42553201894E-01 -0.31713977664E-01  0.53375523519E-01  0.51100000000E-03 0.  1.
         11    1    4    4    0    0  0.14155674669E-01  0.56902294748E-01 -0.48653482501E-01  0.76194991656E-01  0.51100000000E-03 0. -1.
</event>
<event>
 8    1  0.1103774E+005  0.1043930E+01  0.7957747E-01            NaN
         13   -1    0    0    0    0  0.00000000000E+00  0.00000000000E+00  0.74505805969E-08  0.10566000000E+00  0.10566000000E+00 0. -1.
     999900   -1    0    0    0    0 -0.00000000000E+00 -0.00000000000E+00 -0.74505805969E-08  0.93827000000E+00  0.93827000000E+00 0. -1.
     999902    2    1    2    0    0  0.22705876442E-01  0.84501994028E-02 -0.48082559524E-02  0.10192301615E+01  0.10189308319E+01 0.  0.
     999903    2    3    3    0    0  0.61393576898E-01 -0.10461131281E+00  0.42380192050E-01  0.12990097988E+00  0.19117684046E-01 0.  0.
         14    1    1    2    0    0 -0.22705876442E-01 -0.84501994028E-02  0.48082559524E-02  0.24699838467E-01  0.00000000000E+00 0.  1.
     999901    1    3    3    0    0 -0.38687700456E-01  0.11306151222E+00 -0.47188448002E-01  0.88932918165E+00  0.88000000000E+00 0. -1.
        -11    1    4    4    0    0  0.38580123243E-01 -0.79965966379E-01  0.25898561368E-01  0.92487719673E-01  0.51100000000E-03 0.  1.
         11    1    4    4    0    0  0.22813453655E-01 -0.24645346435E-01  0.16481630682E-01  0.37413260210E-01  0.51100000000E-03 0. -1.
</event>
<event>
 8    1  0.1103774E+005  0.1043930E+01  0.7957747E-01            NaN
         13   -1    0    0    0    0  0.00000000000E+00  0.00000000000E+00  0.74505805969E-08  0.10566000000E+00  0.10566000000E+00 0.  1.
     999900   -1    0    0    0    0 -0.00000000000E+00 -0.00000000000E+00 -0.74505805969E-08  0.93827000000E+00  0.93827000000E+00 0.  1.
     999902    2    1    2    0    0  0.30523338190E-02  0.22049533884E-02  0.23978236254E-01  0.10196579095E+01  0.10193689804E+01 0.  0.
     999903    2    3    3    0    0 -0.18471076518E-01  0.12734888493E+00 -0.14697465509E-02  0.13017948900E+00  0.19637210592E-01 0.  0.
         14    1    1    2    0    0 -0.30523338190E-02 -0.22049533884E-02 -0.23978236254E-01  0.24272090455E-01  0.00000000000E+00 0. -1.
     999901    1    3    3    0    0  0.21523410338E-01 -0.12514393154E+00  0.25447982805E-01  0.88947842055E+00  0.88000000000E+00 0. -1.
        -11    1    4    4    0    0 -0.12339497056E-01  0.57657850359E-01  0.82695298984E-02  0.59542733741E-01  0.51100000000E-03 0.  1.
         11    1    4    4    0    0 -0.61315794622E-02  0.69691034570E-01 -0.97392764494E-02  0.70636755254E-01  0.51100000000E-03 0. -1.
</event>
<event>
 8    1  0.1103774E+005  0.1043930E+01  0.7957747E-01            NaN
         13   -1    0    0    0    0  0.00000000000E+00  0.00000000000E+00  0.74505805969E-08  0.10566000000E+00  0.10566000000E+00 0.  1.
     999900   -1    0    0    0    0 -0.00000000000E+00 -0.00000000000E+00 -0.74505805969E-08  0.93827000000E+00  0.93827000000E+00 0.  1.
     999902    2    1    2    0    0  0.39340858946E-02 -0.83329461591E-02 -0.21751291647E-01  0.10203072628E+01  0.10200337626E+01 0.  0.
     999903    2    3    3    0    0  0.24574463700E-01 -0.76384332725E-01 -0.10482180192E+00  0.13353912735E+00  0.20164766908E-01 0.  0.
         14    1    1    2    0    0 -0.39340858946E-02  0.83329461591E-02  0.21751291647E-01  0.23622737179E-01  0.00000000000E+00 0.  1.
     999901    1    3    3    0    0 -0.20640377806E-01  0.68051386566E-01  0.83070510269E-01  0.88676813547E+00  0.88000000000E+00 0. -1.
        -11    1    4    4    0    0  0.27021895204E-01 -0.65143453134E-01 -0.83440452856E-01  0.10925393632E+00  0.51100000000E-03 0.  1.
         11    1    4    4    0    0 -0.24474315041E-02 -0.11240879591E-01 -0.21381349060E-01  0.24285191034E-01  0.51100000000E-03 0. -1.
</event>
<event>
 8    1  0.1103774E+005  0.1043930E+01  0.7957747E-01            NaN
         13   -1    0    0    0    0  0.00000000000E+00  0.00000000000E+00  0.74505805969E-08  0.10566000000E+00  0.10566000000E+00 0. -1.
     999900   -1    0    0    0    0 -0.00000000000E+00 -0.00000000000E+00 -0.74505805969E-08  0.93827000000E+00  0.93827000000E+00 0.  1.
     999902    2    1    2    0    0  0.19349963958E-01 -0.11058698138E-01 -0.47047674836E-02  0.10211517045E+01  0.10208976211E+01 0.  0.
     999903    2    3    3    0    0  0.93269121720E-01  0.16490333256E-01  0.90638865362E-01  0.13249350284E+00  0.19184999975E-01 0.  0.
         14    1    1    2    0    0 -0.19349963958E-01  0.11058698138E-01  0.47047674836E-02  0.22778295519E-01  0.00000000000E+00 0. -1.
     999901    1    3    3    0    0 -0.73919157762E-01 -0.27549031394E-01 -0.95343632845E-01  0.88865820164E+00  0.88000000000E+00 0.  1.
        -11    1    4    4    0    0  0.29237431264E-01  0.13546617256E-01  0.35429086310E-01  0.47893835759E-01  0.51100000000E-03 0. -1.
         11    1    4    4    0    0  0.64031690457E-01  0.29437160000E-02  0.55209779052E-01  0.84599667083E-01  0.51100000000E-03 0.  1.
</event>
<event>
 8    1  0.1103774E+005  0.1043930E+01  0.7957747E-01            NaN
         13   -1    0    0    0    0  0.00000000000E+00  0.00000000000E+00  0.74505805969E-08  0.10566000000E+00  0.10566000000E+00 0.  1.
     999900   -1    0    0    0    0 -0.00000000000E+00 -0.00000000000E+00 -0.74505805969E-08  0.93827000000E+00  0.93827000000E+00 0. -1.
     999902    2    1    2    0    0 -0.11048913335E-01 -0.11266416835E-01 -0.17026504640E-01  0.10207155111E+01  0.10204514894E+01 0.  0.
     999903    2    3    3    0    0  0.29735647881E-01  0.68990149882E-01 -0.10634462678E+00  0.13162483864E+00  0.19289089323E-01 0.  0.
         14    1    1    2    0    0  0.11048913335E-01  0.11266416835E-01  0.17026504640E-01  0.23214488890E-01  0.00000000000E+00 0.  1.
     999901    1    3    3    0    0 -0.40784561216E-01 -0.80256566717E-01  0.89318122136E-01  0.88909067247E+00  0.88000000000E+00 0.  1.
        -11    1    4    4    0    0  0.13121334901E-02  0.19217327914E-01 -0.36476166150E-01  0.41252869045E-01  0.51100000000E-03 0.  1.
         11    1    4    4    0    0  0.28423514391E-01  0.49772821968E-01 -0.69868460625E-01  0.90371969593E-01  0.51100000000E-03 0. -1.
</event>
<event>
 8    1  0.1103774E+005  0.1043930E+01  0.7957747E-01            NaN
         13   -1    0    0    0    0  0.00000000000E+00  0.00000000000E+00  0.74505805969E-08  0.10566000000E+00  0.10566000000E+00 0.  1.
     999900   -1    0    0    0    0 -0.00000000000E+00 -0.00000000000E+00 -0.74505805969E-08  0.93827000000E+00  0.93827000000E+00 0. -1.
     999902    2    1    2    0    0  0.98337853756E-02 -0.19935278167E-01 -0.66008455202E-02  0.10207418605E+01  0.10204784447E+01 0.  0.
     999903    2    3    3    0    0 -0.12001254249E+00  0.89580810968E-02  0.42936178330E-01  0.12936718521E+00  0.20226112564E-01 0.  0.
         14    1    1    2    0    0 -0.98337853756E-02  0.19935278167E-01  0.66008455202E-02  0.23188139468E-01  0.00000000000E+00 0.  1.
     999901    1    3    3    0    0  0.12984632786E+00 -0.28893359264E-01 -0.49537023850E-01  0.89137467532E+00  0.88000000000E+00 0. -1.
        -11    1    4    4    0    0 -0.40008339553E-01 -0.64274053560E-02  0.15785780662E-01  0.43490582492E-01  0.51100000000E-03 0. -1.
         11    1    4    4    0    0 -0.80004202932E-01  0.15385486453E-01  0.27150397668E-01  0.85876602720E-01  0.51100000000E-03 0.  1.
</event>
<event>
 8    1  0.1103774E+005  0.1043930E+01  0.7957747E-01            NaN
         13   -1    0    0    0    0  0.00000000000E+00  0.00000000000E+00  0.74505805969E-08  0.10566000000E+00  0.10566000000E+00 0.  1.
     999900   -1    0    0    0    0 -0.00000000000E+00 -0.00000000000E+00 -0.74505805969E-08  0.93827000000E+00  0.93827000000E+00 0. -1.
     999902    2    1    2    0    0  0.11233074774E-01 -0.14482592711E-01 -0.16000019546E-01  0.10196004277E+01  0.10193101119E+01 0.  0.
     999903    2    3    3    0    0 -0.10566871220E-01 -0.83956344139E-01 -0.10012466874E+00  0.13259490556E+00  0.19903095320E-01 0.  0.
         14    1    1    2    0    0 -0.11233074774E-01  0.14482592711E-01  0.16000019546E-01  0.24329572252E-01  0.00000000000E+00 0.  1.
     999901    1    3    3    0    0  0.21799945994E-01  0.69473751428E-01  0.84124649191E-01  0.88700552218E+00  0.88000000000E+00 0.  1.
        -11    1    4    4    0    0 -0.91495439234E-02 -0.31889138004E-01 -0.51962888538E-01  0.61652527790E-01  0.51100000000E-03 0. -1.
         11    1    4    4    0    0 -0.14173272964E-02 -0.52067206135E-01 -0.48161780199E-01  0.70942377774E-01  0.51100000000E-03 0.  1.
</event>
<event>
 8    1  0.1103774E+005  0.1043930E+01  0.7957747E-01            NaN
         13   -1    0    0    0    0  0.00000000000E+00  0.00000000000E+00  0.74505805969E-08  0.10566000000E+00  0.10566000000E+00 0.  1.
     999900   -1    0    0    0    0 -0.00000000000E+00 -0.00000000000E+00 -0.74505805969E-08  0.93827000000E+00  0.93827000000E+00 0. -1.
     999902    2    1    2    0    0  0.18788694581E-01  0.13536573478E-01  0.36348795914E-02  0.10204893043E+01  0.10202200517E+01 0.  0.
     999903    2    3    3    0    0 -0.69204621257E-01 -0.96913115186E-01 -0.42437084426E-01  0.12804065970E+00  0.20299578929E-01 0.  0.
         14    1    1    2    0    0 -0.18788694581E-01 -0.13536573478E-01 -0.36348795914E-02  0.23440695708E-01  0.00000000000E+00 0.  1.
     999901    1    3    3    0    0  0.87993315839E-01  0.11044968866E+00  0.46071964017E-01  0.89244864459E+00  0.88000000000E+00 0. -1.
        -11    1    4    4    0    0 -0.24541553707E-01 -0.39093069413E-01 -0.26615570454E-01  0.53284196964E-01  0.51100000000E-03 0. -1.
         11    1    4    4    0    0 -0.44663067550E-01 -0.57820045773E-01 -0.15821513971E-01  0.74756462741E-01  0.51100000000E-03 0.  1.
</event>
<event>
 8    1  0.1103774E+005  0.1043930E+01  0.7957747E-01            NaN
         13   -1    0    0    0    0  0.00000000000E+00  0.00000000000E+00  0.74505805969E-08  0.10566000000E+00  0.10566000000E+00 0.  1.
     999900   -1    0    0    0    0 -0.00000000000E+00 -0.00000000000E+00 -0.74505805969E-08  0.93827000000E+00  0.93827000000E+00 0. -1.
     999902    2    1    2    0    0  0.25638604204E-01 -0.12839159004E-02 -0.20077494562E-01  0.10113402431E+01  0.10108150153E+01 0.  0.
     999903    2    3    3    0    0 -0.91953439724E-01 -0.74472440989E-01 -0.15118894588E-01  0.12049287308E+00  0.16981517747E-01 0.  0.
         14    1    1    2    0    0 -0.25638604204E-01  0.12839159004E-02  0.20077494562E-01  0.32589756879E-01  0.00000000000E+00 0.  1.
     999901    1    3    3    0    0  0.11759204393E+00  0.73188525088E-01 -0.49585999733E-02  0.89084737004E+00  0.88000000000E+00 0.  1.
        -11    1    4    4    0    0 -0.82327577373E-01 -0.69036661467E-01 -0.18271278525E-01  0.10898619804E+00  0.51100000000E-03 0.  1.
         11    1    4    4    0    0 -0.96258623508E-02 -0.54357795216E-02  0.31523839361E-02  0.11506675040E-01  0.51100000000E-03 0. -1.
</event>
<event>
 8    1  0.1103774E+005  0.1043930E+01  0.7957747E-01            NaN
         13   -1    0    0    0    0  0.00000000000E+00  0.00000000000E+00  0.74505805969E-08  0.10566000000E+00  0.10566000000E+00 0.  1.
     999900   -1    0    0    0    0 -0.00000000000E+00 -0.00000000000E+00 -0.74505805969E-08  0.93827000000E+00  0.93827000000E+00 0.  1.
     999902    2    1    2    0    0 -0.19569496090E-01 -0.70418091169E-02  0.96565319668E-02  0.10209996519E+01  0.10207421263E+01 0.  0.
     999903    2    3    3    0    0 -0.68473537291E-01 -0.65876311684E-01  0.92512330369E-01  0.13380283765E+00  0.17786352731E-01 0.  0.
         14    1    1    2    0    0  0.19569496090E-01  0.70418091169E-02 -0.96565319668E-02  0.22930348067E-01  0.00000000000E+00 0. -1.
     999901    1    3    3    0    0  0.48904041201E-01  0.58834502567E-01 -0.82855798403E-01  0.88719681428E+00  0.88000000000E+00 0.  1.
        -11    1    4    4    0    0 -0.30630706387E-02 -0.19267958255E-02 -0.62478327928E-04  0.36551290583E-02  0.51100000000E-03 0. -1.
         11    1    4    4    0    0 -0.65410466653E-01 -0.63949515859E-01  0.92574808697E-01  0.13014770860E+00  0.51100000000E-03 0.  1.
</event>
<event>
 8    1  0.1103774E+005  0.1043930E+01  0.7957747E-01            NaN
         13   -1    0    0    0    0  0.00000000000E+00  0.00000000000E+00  0.74505805969E-08  0.10566000000E+00  0.10566000000E+00 0.  1.
     999900   -1    0    0    0    0 -0.00000000000E+00 -0.00000000000E+00 -0.74505805969E-08  0.93827000000E+00  0.93827000000E+00 0.  1.
     999902    2    1    2    0    0 -0.15043086858E-02 -0.22553918710E-01 -0.83877113462E-02  0.10198199213E+01  0.10195348822E+01 0.  0.
     999903    2    3    3    0    0  0.67319940416E-01  0.10468689370E+00 -0.22412066925E-01  0.12789857714E+00  0.19089924053E-01 0.  0.
         14    1    1    2    0    0  0.15043086858E-02  0.22553918710E-01  0.83877113462E-02  0.24110078711E-01  0.00000000000E+00 0. -1.
     999901    1    3    3    0    0 -0.68824249102E-01 -0.12724081241E+00  0.14024355579E-01  0.89192134415E+00  0.88000000000E+00 0.  1.
        -11    1    4    4    0    0  0.57803299247E-01  0.85085929712E-01 -0.25253632873E-01  0.10591904424E+00  0.51100000000E-03 0. -1.
         11    1    4    4    0    0  0.95166411685E-02  0.19600963984E-01  0.28415659476E-02  0.21979532895E-01  0.51100000000E-03 0.  1.
</event>
<event>
 8    1  0.1103774E+005  0.1043930E+01  0.7957747E-01            NaN
         13   -1    0    0    0    0  0.00000000000E+00  0.00000000000E+00  0.74505805969E-08  0.10566000000E+00  0.10566000000E+00 0.  1.
     999900   -1    0    0    0    0 -0.00000000000E+00 -0.00000000000E+00 -0.74505805969E-08  0.93827000000E+00  0.93827000000E+00 0.  1.
     999902    2    1    2    0    0 -0.11547207310E-01 -0.13865685463E-01 -0.15704036040E-01  0.10200090473E+01  0.10197285151E+01 0.  0.
     999903    2    3    3    0    0 -0.50812644308E-01 -0.89797288639E-01  0.78185691036E-01  0.13089563285E+00  0.19369732799E-01 0.  0.
         14    1    1    2    0    0  0.11547207310E-01  0.13865685463E-01  0.15704036040E-01  0.23920952698E-01  0.00000000000E+00 0.  1.
     999901    1    3    3    0    0  0.39265436997E-01  0.75931603176E-01 -0.93889727076E-01  0.88911341445E+00  0.88000000000E+00 0.  1.
        -11    1    4    4    0    0 -0.29629208852E-01 -0.35053757285E-01  0.39842135655E-01  0.60780858924E-01  0.51100000000E-03 0. -1.
         11    1    4    4    0    0 -0.21183435456E-01 -0.54743531355E-01  0.38343555381E-01  0.70114773929E-01  0.51100000000E-03 0.  1.
</event>
<event>
 8    1  0.1285729E+005  0.1043930E+01  0.7957747E-01            NaN
         13   -1    0    0    0    0  0.00000000000E+00  0.00000000000E+00  0.74505805969E-08  0.10566000000E+00  0.10566000000E+00 0. -1.
     999900   -1    0    0    0    0 -0.00000000000E+00 -0.00000000000E+00 -0.74505805969E-08  0.93827000000E+00  0.93827000000E+00 0.  1.
     999902    2    1    2    0    0 -0.15839474457E-01 -0.86513059843E-02 -0.15943937197E-01  0.10198479905E+01  0.10195636226E+01 0.  0.
     999903    2    3    3    0    0 -0.19805988029E-02  0.92643824851E-01 -0.90139857244E-01  0.13082728970E+00  0.20094397534E-01 0.  0.
         14    1    1    2    0    0  0.15839474457E-01  0.86513059843E-02  0.15943937197E-01  0.24082009460E-01  0.00000000000E+00 0. -1.
     999901    1    3    3    0    0 -0.13858875654E-01 -0.10129513084E+00  0.74195920047E-01  0.88902070084E+00  0.88000000000E+00 0. -1.
        -11    1    4    4    0    0  0.59059681882E-02  0.71621420114E-01 -0.62743544492E-01  0.95401896081E-01  0.51100000000E-03 0. -1.
         11    1    4    4    0    0 -0.78865669911E-02  0.21022404737E-01 -0.27396312752E-01  0.35425393622E-01  0.51100000000E-03 0.  1.
</event>
<event>
 8    1  0.1103774E+005  0.1043930E+01  0.7957747E-01            NaN
         13   -1    0    0    0    0  0.00000000000E+00  0.00000000000E+00  0.74505805969E-08  0.10566000000E+00  0.10566000000E+00 0. -1.
     999900   -1    0    0    0    0 -0.00000000000E+00 -0.00000000000E+00 -0.74505805969E-08  0.93827000000E+00  0.93827000000E+00 0.  1.
     999902    2    1    2    0    0  0.19058516364E-01  0.10776244709E-01  0.87284636184E-02  0.10203600918E+01  0.10200878278E+01 0.  0.
     999903    2    3    3    0    0 -0.19231728107E-02 -0.91880143961E-01 -0.88135170220E-01  0.12886632906E+00  0.19825818738E-01 0.  0.
         14    1    1    2    0    0 -0.19058516364E-01 -0.10776244709E-01 -0.87284636184E-02  0.23569908213E-01  0.00000000000E+00 0. -1.
     999901    1    3    3    0    0  0.20981689175E-01  0.10265638867E+00  0.96863633838E-01  0.89149376272E+00  0.88000000000E+00 0.  1.
        -11    1    4    4    0    0  0.23384083199E-02 -0.78456344605E-01 -0.65643443971E-01  0.10232394158E+00  0.51100000000E-03 0.  1.
         11    1    4    4    0    0 -0.42615811306E-02 -0.13423799356E-01 -0.22491726249E-01  0.26542387488E-01  0.51100000000E-03 0. -1.
</event>
<event>
 8    1  0.1103774E+005  0.1043930E+01  0.7957747E-01            NaN
         13   -1    0    0    0    0  0.00000000000E+00  0.00000000000E+00  0.74505805969E-08  0.10566000000E+00  0.10566000000E+00 0.  1.
     999900   -1    0    0    0    0 -0.00000000000E+00 -0.00000000000E+00 -0.74505805969E-08  0.93827000000E+00  0.93827000000E+00 0. -1.
     999902    2    1    2    0    0 -0.19812411769E-01  0.44471509722E-03  0.12196728863E-01  0.10206600703E+01  0.10203947714E+01 0.  0.
     999903    2    3    3    0    0  0.33129790512E-01  0.48198278918E-01  0.11477725836E+00  0.13183722822E+00  0.28046008598E-01 0.  0.
         14    1    1    2    0    0  0.19812411769E-01 -0.44471509722E-03 -0.12196728863E-01  0.23269929664E-01  0.00000000000E+00 0. -1.
     999901    1    3    3    0    0 -0.52942202281E-01 -0.47753563821E-01 -0.10258052949E+00  0.88882284212E+00  0.88000000000E+00 0. -1.
        -11    1    4    4    0    0 -0.13843585357E-02  0.19154505667E-01  0.26877393609E-01  0.33037356796E-01  0.51100000000E-03 0. -1.
         11    1    4    4    0    0  0.34514149048E-01  0.29043773251E-01  0.87899864748E-01  0.98799871421E-01  0.51100000000E-03 0.  1.
</event>
<event>
 8    1  0.1103774E+005  0.1043930E+01  0.7957747E-01            NaN
         13   -1    0    0    0    0  0.00000000000E+00  0.00000000000E+00  0.74505805969E-08  0.10566000000E+00  0.10566000000E+00 0.  1.
     999900   -1    0    0    0    0 -0.00000000000E+00 -0.00000000000E+00 -0.74505805969E-08  0.93827000000E+00  0.93827000000E+00 0. -1.
     999902    2    1    2    0    0 -0.10989511530E-01 -0.25943250066E-02 -0.20479346651E-01  0.10205440314E+01  0.10202760492E+01 0.  0.
     999903    2    3    3    0    0  0.20068514646E-01  0.83090381070E-01 -0.99173511450E-01  0.13234403065E+00  0.19308038962E-01 0.  0.
         14    1    1    2    0    0  0.10989511530E-01  0.25943250066E-02  0.20479346651E-01  0.23385968553E-01  0.00000000000E+00 0.  1.
     999901    1    3    3    0    0 -0.31058026175E-01 -0.85684706077E-01  0.78694164799E-01  0.88820000080E+00  0.88000000000E+00 0.  1.
        -11    1    4    4    0    0  0.15005277711E-01  0.68864559416E-01 -0.69181772530E-01  0.98761655890E-01  0.51100000000E-03 0.  1.
         11    1    4    4    0    0  0.50632369350E-02  0.14225821655E-01 -0.29991738920E-01  0.33582374759E-01  0.51100000000E-03 0. -1.
</event>
<event>
 8    1  0.1103774E+005  0.1043930E+01  0.7957747E-01            NaN
         13   -1    0    0    0    0  0.00000000000E+00  0.00000000000E+00  0.74505805969E-08  0.10566000000E+00  0.10566000000E+00 0.  1.
     999900   -1    0    0    0    0 -0.00000000000E+00 -0.00000000000E+00 -0.74505805969E-08  0.93827000000E+00  0.93827000000E+00 0. -1.
     999902    2    1    2    0    0 -0.53099346958E-02  0.19863346706E-01  0.12042493623E-01  0.10201020836E+01  0.10198237550E+01 0.  0.
     999903    2    3    3    0    0 -0.69792456096E-01  0.11125699238E+00  0.36697448984E-02  0.13298264575E+00  0.20538056432E-01 0.  0.
         14    1    1    2    0    0  0.53099346958E-02 -0.19863346706E-01 -0.12042493623E-01  0.23827916432E-01  0.00000000000E+00 0. -1.
     999901    1    3    3    0    0  0.64482521400E-01 -0.91393645672E-01  0.83727487244E-02  0.88711943782E+00  0.88000000000E+00 0.  1.
        -11    1    4    4    0    0 -0.15732355662E-01  0.42695533762E-01 -0.13672460025E-02  0.45525224882E-01  0.51100000000E-03 0.  1.
         11    1    4    4    0    0 -0.54060100434E-01  0.68561458615E-01  0.50369909009E-02  0.87457420867E-01  0.51100000000E-03 0. -1.
</event>
<event>
 8    1  0.1103774E+005  0.1043930E+01  0.7957747E-01            NaN
         13   -1    0    0    0    0  0.00000000000E+00  0.00000000000E+00  0.74505805969E-08  0.10566000000E+00  0.10566000000E+00 0.  1.
     999900   -1    0    0    0    0 -0.00000000000E+00 -0.00000000000E+00 -0.74505805969E-08  0.93827000000E+00  0.93827000000E+00 0.  1.
     999902    2    1    2    0    0  0.13391572423E-01  0.16350159529E-01 -0.10352740856E-01  0.10203961696E+01  0.10201247482E+01 0.  0.
     999903    2    3    3    0    0 -0.27809458364E-01 -0.11286087990E+00 -0.52212794305E-01  0.12902347445E+00  0.20246898103E-01 0.  0.
         14    1    1    2    0    0 -0.13391572423E-01 -0.16350159529E-01  0.10352740856E-01  0.23533830369E-01  0.00000000000E+00 0. -1.
     999901    1    3    3    0    0  0.41201030788E-01  0.12921103943E+00  0.41860053449E-01  0.89137269519E+00  0.88000000000E+00 0. -1.
        -11    1    4    4    0    0 -0.20225618933E-01 -0.80625512525E-01 -0.47011552441E-01  0.95498147182E-01  0.51100000000E-03 0. -1.
         11    1    4    4    0    0 -0.75838394306E-02 -0.32235367373E-01 -0.52012418640E-02  0.33525327264E-01  0.51100000000E-03 0.  1.
</event>
<event>
 8    1  0.1103774E+005  0.1043930E+01  0.7957747E-01            NaN
         13   -1    0    0    0    0  0.00000000000E+00  0.00000000000E+00  0.74505805969E-08  0.10566000000E+00  0.10566000000E+00 0.  1.
     999900   -1    0    0    0    0 -0.00000000000E+00 -0.00000000000E+00 -0.74505805969E-08  0.93827000000E+00  0.93827000000E+00 0. -1.
     999902    2    1    2    0    0 -0.86171620492E-02  0.12297053280E-02  0.23848909831E-01  0.10185422440E+01  0.10182257925E+01 0.  0.
     999903    2    3    3    0    0  0.91327737488E-01 -0.87529493747E-01 -0.38134819064E-02  0.12801858549E+00  0.19288537438E-01 0.  0.
         14    1    1    2    0    0  0.86171620492E-02 -0.12297053280E-02 -0.23848909831E-01  0.25387756047E-01  0.00000000000E+00 0. -1.
     999901    1    3    3    0    0 -0.99944899538E-01  0.88759199075E-01  0.27662391737E-01  0.89052365846E+00  0.88000000000E+00 0.  1.
        -11    1    4    4    0    0  0.68066906234E-01 -0.65536860100E-01  0.55748792788E-02  0.94654762986E-01  0.51100000000E-03 0.  1.
         11    1    4    4    0    0  0.23260831255E-01 -0.21992633647E-01 -0.93883611852E-02  0.33363822505E-01  0.51100000000E-03 0. -1.
</event>
<event>
 8    1  0.1103774E+005  0.1043930E+01  0.7957747E-01            NaN
         13   -1    0    0    0    0  0.00000000000E+00  0.00000000000E+00  0.74505805969E-08  0.10566000000E+00  0.10566000000E+00 0. -1.
     999900   -1    0    0    0    0 -0.00000000000E+00 -0.00000000000E+00 -0.74505805969E-08  0.93827000000E+00  0.93827000000E+00 0.  1.
     999902    2    1    2    0    0 -0.35247513550E-02  0.43245358533E-03 -0.24064558777E-01  0.10196048304E+01  0.10193146208E+01 0.  0.
     999903    2    3    3    0    0  0.15345140490E-01 -0.64956245929E-01  0.10656202003E+00  0.12736323869E+00  0.20276667228E-01 0.  0.
         14    1    1    2    0    0  0.35247513550E-02 -0.43245358533E-03  0.24064558777E-01  0.24325169626E-01  0.00000000000E+00 0. -1.
     999901    1    3    3    0    0 -0.18869891845E-01  0.65388699515E-01 -0.13062657881E+00  0.89224159169E+00  0.88000000000E+00 0.  1.
        -11    1    4    4    0    0  0.73608393633E-02 -0.49482466781E-01  0.63007538950E-01  0.80454381859E-01  0.51100000000E-03 0. -1.
         11    1    4    4    0    0  0.79843011272E-02 -0.15473779148E-01  0.43554481082E-01  0.46908856829E-01  0.51100000000E-03 0.  1.
</event>
<event>
 8    1  0.1103774E+005  0.1043930E+01  0.7957747E-01            NaN
         13   -1    0    0    0    0  0.00000000000E+00  0.00000000000E+00  0.74505805969E-08  0.10566000000E+00  0.10566000000E+00 0. -1.
     999900   -1    0    0    0    0 -0.00000000000E+00 -0.00000000000E+00 -0.74505805969E-08  0.93827000000E+00  0.93827000000E+00 0. -1.
     999902    2    1    2    0    0 -0.14614854418E-01  0.45524010646E-02  0.14797951342E-01  0.10226392112E+01  0.10224175559E+01 0.  0.
     999903    2    3    3    0    0  0.12283566309E+00 -0.34471813000E-01  0.22886608379E-01  0.13107824274E+00  0.19514170770E-01 0.  0.
         14    1    1    2    0    0  0.14614854418E-01 -0.45524010646E-02 -0.14797951342E-01  0.21290788831E-01  0.00000000000E+00 0.  1.
     999901    1    3    3    0    0 -0.13745051750E+00  0.39024214065E-01 -0.80886570364E-02  0.89156096842E+00  0.88000000000E+00 0. -1.
        -11    1    4    4    0    0  0.22312780043E-01 -0.45969399686E-02  0.11695602717E-01  0.25613282770E-01  0.51100000000E-03 0. -1.
         11    1    4    4    0    0  0.10052288304E+00 -0.29874873032E-01  0.11191005661E-01  0.10546495998E+00  0.51100000000E-03 0.  1.
</event>
<event>
 8    1  0.1103774E+005  0.1043930E+01  0.7957747E-01            NaN
         13   -1    0    0    0    0  0.00000000000E+00  0.00000000000E+00  0.74505805969E-08  0.10566000000E+00  0.10566000000E+00 0. -1.
     999900   -1    0    0    0    0 -0.00000000000E+00 -0.00000000000E+00 -0.74505805969E-08  0.93827000000E+00  0.93827000000E+00 0. -1.
     999902    2    1    2    0    0 -0.99175519730E-02 -0.11063688259E-01  0.18428718870E-01  0.10202576382E+01  0.10199829741E+01 0.  0.
     999903    2    3    3    0    0 -0.49706128597E-01  0.68470676685E-01  0.99522051521E-01  0.13206566870E+00  0.19436288883E-01 0.  0.
         14    1    1    2    0    0  0.99175519730E-02  0.11063688259E-01 -0.18428718870E-01  0.23672361822E-01  0.00000000000E+00 0.  1.
     999901    1    3    3    0    0  0.39788576624E-01 -0.79534364944E-01 -0.81093332651E-01  0.88819196947E+00  0.88000000000E+00 0. -1.
        -11    1    4    4    0    0 -0.26800894920E-01  0.26892099471E-01  0.56018737526E-01  0.67674463850E-01  0.51100000000E-03 0.  1.
         11    1    4    4    0    0 -0.22905233677E-01  0.41578577215E-01  0.43503313996E-01  0.64391204854E-01  0.51100000000E-03 0. -1.
</event>
<event>
 8    1  0.1182015E+005  0.1043930E+01  0.7957747E-01            NaN
         13   -1    0    0    0    0  0.00000000000E+00  0.00000000000E+00  0.74505805969E-08  0.10566000000E+00  0.10566000000E+00 0. -1.
     999900   -1    0    0    0    0 -0.00000000000E+00 -0.00000000000E+00 -0.74505805969E-08  0.93827000000E+00  0.93827000000E+00 0.  1.
     999902    2    1    2    0    0 -0.12817784136E-01 -0.14341110608E-01  0.14351588126E-01  0.10199314349E+01  0.10196490577E+01 0.  0.
     999903    2    3    3    0    0 -0.10876632760E+00 -0.36525740222E-01 -0.60472398532E-01  0.13128251114E+00  0.20345589901E-01 0.  0.
         14    1    1    2    0    0  0.12817784136E-01  0.14341110608E-01 -0.14351588126E-01  0.23998565069E-01  0.00000000000E+00 0.  1.
     999901    1    3    3    0    0  0.95948543460E-01  0.22184629614E-01  0.74823986658E-01  0.88864892380E+00  0.88000000000E+00 0.  1.
        -11    1    4    4    0    0 -0.56406007083E-01 -0.17725137782E-01 -0.19761204066E-01  0.62342477105E-01  0.51100000000E-03 0.  1.
         11    1    4    4    0    0 -0.52360320513E-01 -0.18800602440E-01 -0.40711194466E-01  0.68940034031E-01  0.51100000000E-03 0. -1.
</event>
<event>
 8    1  0.1103774E+005  0.1043930E+01  0.7957747E-01            NaN
         13   -1    0    0    0    0  0.00000000000E+00  0.00000000000E+00  0.74505805969E-08  0.10566000000E+00  0.10566000000E+00 0. -1.
     999900   -1    0    0    0    0 -0.00000000000E+00 -0.00000000000E+00 -0.74505805969E-08  0.93827000000E+00  0.93827000000E+00 0. -1.
     999902    2    1    2    0    0  0.11622730168E-01 -0.16634366851E-01 -0.12706107222E-01  0.10199876697E+01  0.10197066300E+01 0.  0.
     999903    2    3    3    0    0 -0.11000616400E+00  0.30345708581E-02 -0.65621347028E-01  0.12983011200E+00  0.20955477994E-01 0.  0.
         14    1    1    2    0    0 -0.11622730168E-01  0.16634366851E-01  0.12706107222E-01  0.23942330251E-01  0.00000000000E+00 0.  1.
     999901    1    3    3    0    0  0.12162889417E+00 -0.19668937709E-01  0.52915239806E-01  0.89015755775E+00  0.88000000000E+00 0.  1.
        -11    1    4    4    0    0 -0.53426057104E-01  0.11860714279E-01 -0.30575732332E-01  0.62690961466E-01  0.51100000000E-03 0. -1.
         11    1    4    4    0    0 -0.56580106899E-01 -0.88261434211E-02 -0.35045614696E-01  0.67139150537E-01  0.51100000000E-03 0.  1.
</event>
<event>
 8    1  0.1103774E+005  0.1043930E+01  0.7957747E-01            NaN
         13   -1    0    0    0    0  0.00000000000E+00  0.00000000000E+00  0.74505805969E-08  0.10566000000E+00  0.10566000000E+00 0.  1.
     999900   -1    0    0    0    0 -0.00000000000E+00 -0.00000000000E+00 -0.74505805969E-08  0.93827000000E+00  0.93827000000E+00 0. -1.
     999902    2    1    2    0    0  0.86504325661E-02 -0.15780671302E-01 -0.17126372660E-01  0.10190870491E+01  0.10187841976E+01 0.  0.
     999903    2    3    3    0    0  0.15880524420E-01  0.82894641293E-01 -0.96933599827E-01  0.12995360293E+00  0.19186024279E-01 0.  0.
         14    1    1    2    0    0 -0.86504325661E-02  0.15780671302E-01  0.17126372660E-01  0.24842950928E-01  0.00000000000E+00 0.  1.
     999901    1    3    3    0    0 -0.72300918540E-02 -0.98675312595E-01  0.79807227167E-01  0.88913344614E+00  0.88000000000E+00 0.  1.
        -11    1    4    4    0    0 -0.24371413330E-02  0.17999808258E-02 -0.60077535072E-02  0.67478746323E-02  0.51100000000E-03 0.  1.
         11    1    4    4    0    0  0.18317665753E-01  0.81094660467E-01 -0.90925846320E-01  0.12320572830E+00  0.51100000000E-03 0. -1.
</event>
<event>
 8    1  0.1347561E+005  0.1043930E+01  0.7957747E-01            NaN
         13   -1    0    0    0    0  0.00000000000E+00  0.00000000000E+00  0.74505805969E-08  0.10566000000E+00  0.10566000000E+00 0. -1.
     999900   -1    0    0    0    0 -0.00000000000E+00 -0.00000000000E+00 -0.74505805969E-08  0.93827000000E+00  0.93827000000E+00 0.  1.
     999902    2    1    2    0    0 -0.19138081648E-01 -0.49012165886E-02 -0.13974923974E-01  0.10197311035E+01  0.10194439351E+01 0.  0.
     999903    2    3    3    0    0 -0.10671382875E-01 -0.10250705478E-01  0.12613962117E+00  0.12859004405E+00  0.20130574397E-01 0.  0.
         14    1    1    2    0    0  0.19138081648E-01  0.49012165886E-02  0.13974923974E-01  0.24198896531E-01  0.00000000000E+00 0. -1.
     999901    1    3    3    0    0 -0.84666987735E-02  0.53494888892E-02 -0.14011454514E+00  0.89114105942E+00  0.88000000000E+00 0.  1.
        -11    1    4    4    0    0  0.15716678991E-02 -0.12121242944E-01  0.51868272666E-01  0.53291401753E-01  0.51100000000E-03 0. -1.
         11    1    4    4    0    0 -0.12243050774E-01  0.18705374660E-02  0.74271348503E-01  0.75298642299E-01  0.51100000000E-03 0.  1.
</event>
<event>
 8    1  0.1103774E+005  0.1043930E+01  0.7957747E-01            NaN
         13   -1    0    0    0    0  0.00000000000E+00  0.00000000000E+00  0.74505805969E-08  0.10566000000E+00  0.10566000000E+00 0.  1.
     999900   -1    0    0    0    0 -0.00000000000E+00 -0.00000000000E+00 -0.74505805969E-08  0.93827000000E+00  0.93827000000E+00 0.  1.
     999902    2    1    2    0    0  0.17453847670E-01  0.18969935678E-01 -0.26701449618E-02  0.10180142725E+01  0.10176843489E+01 0.  0.
     999903    2    3    3    0    0 -0.82213831364E-01 -0.59842348652E-01  0.71317666716E-01  0.12581518110E+00  0.20075593382E-01 0.  0.
         14    1    1    2    0    0 -0.17453847670E-01 -0.18969935678E-01  0.26701449618E-02  0.25915727507E-01  0.00000000000E+00 0.  1.
     999901    1    3    3    0    0  0.99667679035E-01  0.78812284329E-01 -0.73987811678E-01  0.89219909139E+00  0.88000000000E+00 0.  1.
        -11    1    4    4    0    0 -0.49839432082E-01 -0.27710996540E-01  0.30854129613E-01  0.64839083543E-01  0.51100000000E-03 0. -1.
         11    1    4    4    0    0 -0.32374399282E-01 -0.32131352111E-01  0.40463537103E-01  0.60976097557E-01  0.51100000000E-03 0.  1.
</event>
<event>
 8    1  0.1103774E+005  0.1043930E+01  0.7957747E-01            NaN
         13   -1    0    0    0    0  0.00000000000E+00  0.00000000000E+00  0.74505805969E-08  0.10566000000E+00  0.10566000000E+00 0.  1.
     999900   -1    0    0    0    0 -0.00000000000E+00 -0.00000000000E+00 -0.74505805969E-08  0.93827000000E+00  0.93827000000E+00 0. -1.
     999902    2    1    2    0    0  0.21062502402E-01 -0.24214376499E-02  0.10671331892E-01  0.10201945899E+01  0.10199184436E+01 0.  0.
     999903    2    3    3    0    0  0.44294920157E-01  0.10621136977E+00 -0.58305246521E-01  0.13053251898E+00  0.19908332920E-01 0.  0.
         14    1    1    2    0    0 -0.21062502402E-01  0.24214376499E-02 -0.10671331892E-01  0.23735410089E-01  0.00000000000E+00 0. -1.
     999901    1    3    3    0    0 -0.23232417755E-01 -0.10863280742E+00  0.68976578413E-01  0.88966207093E+00  0.88000000000E+00 0.  1.
        -11    1    4    4    0    0  0.11638793054E-01  0.53487445992E-01 -0.25973913329E-01  0.60591036277E-01  0.51100000000E-03 0.  1.
         11    1    4    4    0    0  0.32656127103E-01  0.52723923777E-01 -0.32331333193E-01  0.69941482704E-01  0.51100000000E-03 0. -1.
</event>
<event>
 8    1  0.1103774E+005  0.1043930E+01  0.7957747E-01            NaN
         13   -1    0    0    0    0  0.00000000000E+00  0.00000000000E+00  0.74505805969E-08  0.10566000000E+00  0.10566000000E+00 0.  1.
     999900   -1    0    0    0    0 -0.00000000000E+00 -0.00000000000E+00 -0.74505805969E-08  0.93827000000E+00  0.93827000000E+00 0. -1.
     999902    2    1    2    0    0  0.50963196201E-02  0.42501650097E-02 -0.17142331552E-01  0.10255480549E+01  0.10253833024E+01 0.  0.
     999903    2    3    3    0    0  0.92185092435E-01 -0.13200978357E-01  0.94367312205E-01  0.13407545438E+00  0.19966991670E-01 0.  0.
         14    1    1    2    0    0 -0.50963196201E-02 -0.42501650097E-02  0.17142331552E-01  0.18381945145E-01  0.00000000000E+00 0.  1.
     999901    1    3    3    0    0 -0.87088772815E-01  0.17451143366E-01 -0.11150964376E+00  0.89147260048E+00  0.88000000000E+00 0. -1.
        -11    1    4    4    0    0  0.75584128985E-01 -0.16371930114E-01  0.84277090318E-01  0.11438483170E+00  0.51100000000E-03 0.  1.
         11    1    4    4    0    0  0.16600963451E-01  0.31709517575E-02  0.10090221886E-01  0.19690622673E-01  0.51100000000E-03 0. -1.
</event>
<event>
 8    1  0.1103774E+005  0.1043930E+01  0.7957747E-01            NaN
         13   -1    0    0    0    0  0.00000000000E+00  0.00000000000E+00  0.74505805969E-08  0.10566000000E+00  0.10566000000E+00 0. -1.
     999900   -1    0    0    0    0 -0.00000000000E+00 -0.00000000000E+00 -0.74505805969E-08  0.93827000000E+00  0.93827000000E+00 0. -1.
     999902    2    1    2    0    0  0.64772085079E-02 -0.17136683376E-01 -0.15106867081E-01  0.10201847356E+01  0.10199083573E+01 0.  0.
     999903    2    3    3    0    0  0.10869189551E+00 -0.73066913156E-01 -0.46011427330E-02  0.13244242894E+00  0.19160493757E-01 0.  0.
         14    1    1    2    0    0 -0.64772085079E-02  0.17136683376E-01  0.15106867081E-01  0.23745264374E-01  0.00000000000E+00 0. -1.
     999901    1    3    3    0    0 -0.10221468700E+00  0.55930229781E-01 -0.10505724348E-01  0.88774230669E+00  0.88000000000E+00 0.  1.
        -11    1    4    4    0    0  0.44622791074E-01 -0.35354293082E-01 -0.10381476061E-01  0.57871890316E-01  0.51100000000E-03 0.  1.
         11    1    4    4    0    0  0.64069104434E-01 -0.37712620074E-01  0.57803333276E-02  0.74570538621E-01  0.51100000000E-03 0. -1.
</event>
<event>
 8    1  0.1103774E+005  0.1043930E+01  0.7957747E-01            NaN
         13   -1    0    0    0    0  0.00000000000E+00  0.00000000000E+00  0.74505805969E-08  0.10566000000E+00  0.10566000000E+00 0.  1.
     999900   -1    0    0    0    0 -0.00000000000E+00 -0.00000000000E+00 -0.74505805969E-08  0.93827000000E+00  0.93827000000E+00 0.  1.
     999902    2    1    2    0    0  0.23454781832E-03  0.16575077536E-01 -0.16849990499E-01  0.10202929446E+01  0.10200191089E+01 0.  0.
     999903    2    3    3    0    0  0.58734314105E-01 -0.10547378061E+00 -0.42567257713E-01  0.12957440081E+00  0.20077745546E-01 0.  0.
         14    1    1    2    0    0 -0.23454781832E-03 -0.16575077536E-01  0.16849990499E-01  0.23637055397E-01  0.00000000000E+00 0. -1.
     999901    1    3    3    0    0 -0.58499766287E-01  0.12204885814E+00  0.25717267214E-01  0.89071854380E+00  0.88000000000E+00 0.  1.
        -11    1    4    4    0    0  0.13699544463E-01 -0.35658836251E-01 -0.21605207648E-01  0.43889363629E-01  0.51100000000E-03 0.  1.
         11    1    4    4    0    0  0.45034769642E-01 -0.69814944357E-01 -0.20962050066E-01  0.85685037178E-01  0.51100000000E-03 0. -1.
</event>
<event>
 8    1  0.1103774E+005  0.1043930E+01  0.7957747E-01            NaN
         13   -1    0    0    0    0  0.00000000000E+00  0.00000000000E+00  0.74505805969E-08  0.10566000000E+00  0.10566000000E+00 0.  1.
     999900   -1    0    0    0    0 -0.00000000000E+00 -0.00000000000E+00 -0.74505805969E-08  0.93827000000E+00  0.93827000000E+00 0. -1.
     999902    2    1    2    0    0 -0.19742896820E-01  0.12582232314E-01  0.17688193673E-02  0.10204518556E+01  0.10201817320E+01 0.  0.
     999903    2    3    3    0    0 -0.85124747210E-01 -0.22565622464E-01  0.97302544298E-01  0.13217439290E+00  0.15711623293E-01 0.  0.
         14    1    1    2    0    0  0.19742896820E-01 -0.12582232314E-01 -0.17688193673E-02  0.23478144450E-01  0.00000000000E+00 0. -1.
     999901    1    3    3    0    0  0.65381850389E-01  0.35147854778E-01 -0.95533724931E-01  0.88827746265E+00  0.88000000000E+00 0. -1.
        -11    1    4    4    0    0 -0.27447372241E-01 -0.14927149426E-01  0.32539079390E-01  0.45113532798E-01  0.51100000000E-03 0. -1.
         11    1    4    4    0    0 -0.57677374969E-01 -0.76384730381E-02  0.64763464908E-01  0.87060860101E-01  0.51100000000E-03 0.  1.
</event>
<event>
 8    1  0.1103774E+005  0.1043930E+01  0.7957747E-01            NaN
         13   -1    0    0    0    0  0.00000000000E+00  0.00000000000E+00  0.74505805969E-08  0.10566000000E+00  0.10566000000E+00 0. -1.
     999900   -1    0    0    0    0 -0.00000000000E+00 -0.00000000000E+00 -0.74505805969E-08  0.93827000000E+00  0.93827000000E+00 0. -1.
     999902    2    1    2    0    0 -0.60602787687E-02 -0.19444955709E-01 -0.10646219164E-01  0.10209479360E+01  0.10206892342E+01 0.  0.
     999903    2    3    3    0    0  0.68844459309E-01  0.10460967879E+00  0.21611985496E-01  0.12851258046E+00  0.19122263053E-01 0.  0.
         14    1    1    2    0    0  0.60602787687E-02  0.19444955709E-01  0.10646219164E-01  0.22982063958E-01  0.00000000000E+00 0. -1.
     999901    1    3    3    0    0 -0.74904738078E-01 -0.12405463450E+00 -0.32258204660E-01  0.89243535558E+00  0.88000000000E+00 0. -1.
        -11    1    4    4    0    0  0.30171234762E-01  0.49290066480E-01  0.19450997803E-01  0.60978820071E-01  0.51100000000E-03 0.  1.
         11    1    4    4    0    0  0.38673224547E-01  0.55319612313E-01  0.21609876934E-02  0.67533760388E-01  0.51100000000E-03 0. -1.
</event>
<event>
 8    1  0.1103774E+005  0.1043930E+01  0.7957747E-01            NaN
         13   -1    0    0    0    0  0.00000000000E+00  0.00000000000E+00  0.74505805969E-08  0.10566000000E+00  0.10566000000E+00 0. -1.
     999900   -1    0    0    0    0 -0.00000000000E+00 -0.00000000000E+00 -0.74505805969E-08  0.93827000000E+00  0.93827000000E+00 0. -1.
     999902    2    1    2    0    0 -0.34632352770E-02  0.23026253710E-01  0.27204158066E-02  0.10204863864E+01  0.10202170660E+01 0.  0.
     999903    2    3    3    0    0 -0.21852616304E-01  0.60308385330E-01  0.11403985393E+00  0.13249981890E+00  0.20891997151E-01 0.  0.
         14    1    1    2    0    0  0.34632352770E-02 -0.23026253710E-01 -0.27204158066E-02  0.23443613643E-01  0.00000000000E+00 0.  1.
     999901    1    3    3    0    0  0.18389381027E-01 -0.37282131620E-01 -0.11131943812E+00  0.88798656745E+00  0.88000000000E+00 0. -1.
        -11    1    4    4    0    0 -0.47613092411E-02  0.41846068459E-01  0.66648638295E-01  0.78842029520E-01  0.51100000000E-03 0. -1.
         11    1    4    4    0    0 -0.17091307062E-01  0.18462316871E-01  0.47391215634E-01  0.53657789385E-01  0.51100000000E-03 0.  1.
</event>
<event>
 8    1  0.1103774E+005  0.1043930E+01  0.7957747E-01            NaN
         13   -1    0    0    0    0  0.00000000000E+00  0.00000000000E+00  0.74505805969E-08  0.10566000000E+00  0.10566000000E+00 0.  1.
     999900   -1    0    0    0    0 -0.00000000000E+00 -0.00000000000E+00 -0.74505805969E-08  0.93827000000E+00  0.93827000000E+00 0. -1.
     999902    2    1    2    0    0  0.22500688749E-01 -0.84114221876E-02 -0.49373236406E-02  0.10194063342E+01  0.10191113110E+01 0.  0.
     999903    2    3    3    0    0  0.75316734457E-01 -0.82351691008E-02  0.10472522385E+00  0.13102835159E+00  0.21462243839E-01 0.  0.
         14    1    1    2    0    0 -0.22500688749E-01  0.84114221876E-02  0.49373236406E-02  0.24523665756E-01  0.00000000000E+00 0.  1.
     999901    1    3    3    0    0 -0.52816045709E-01 -0.17625308685E-03 -0.10966254749E+00  0.88837798266E+00  0.88000000000E+00 0. -1.
        -11    1    4    4    0    0  0.34231022410E-01 -0.58186170840E-02  0.30798944383E-01  0.46416110308E-01  0.51100000000E-03 0.  1.
         11    1    4    4    0    0  0.41085712048E-01 -0.24165520167E-02  0.73926279462E-01  0.84612241278E-01  0.51100000000E-03 0. -1.
</event>
<event>
 8    1  0.1103774E+005  0.1043930E+01  0.7957747E-01            NaN
         13   -1    0    0    0    0  0.00000000000E+00  0.00000000000E+00  0.74505805969E-08  0.10566000000E+00  0.10566000000E+00 0.  1.
     999900   -1    0    0    0    0 -0.00000000000E+00 -0.00000000000E+00 -0.74505805969E-08  0.93827000000E+00  0.93827000000E+00 0.  1.
     999902    2    1    2    0    0  0.88746302433E-02 -0.19377426291E-01 -0.10004385353E-01  0.10203857557E+01  0.10201140912E+01 0.  0.
     999903    2    3    3    0    0 -0.81033215411E-01 -0.29772956354E-01  0.94399576816E-01  0.12960425892E+00  0.20812806083E-01 0.  0.
         14    1    1    2    0    0 -0.88746302433E-02  0.19377426291E-01  0.10004385353E-01  0.23544244263E-01  0.00000000000E+00 0.  1.
     999901    1    3    3    0    0  0.89907845654E-01  0.10395530063E-01 -0.10440396217E+00  0.89078149682E+00  0.88000000000E+00 0.  1.
        -11    1    4    4    0    0 -0.53581253640E-01 -0.96276564318E-02  0.63237361609E-01  0.83443798657E-01  0.51100000000E-03 0.  1.
         11    1    4    4    0    0 -0.27451961771E-01 -0.20145299923E-01  0.31162215208E-01  0.46160460263E-01  0.51100000000E-03 0. -1.
</event>
<event>
 8    1  0.1103774E+005  0.1043930E+01  0.7957747E-01            NaN
         13   -1    0    0    0    0  0.00000000000E+00  0.00000000000E+00  0.74505805969E-08  0.10566000000E+00  0.10566000000E+00 0.  1.
     999900   -1    0    0    0    0 -0.00000000000E+00 -0.00000000000E+00 -0.74505805969E-08  0.93827000000E+00  0.93827000000E+00 0. -1.
     999902    2    1    2    0    0  0.11807700399E-02  0.84612771016E-02  0.38560764542E-02  0.10345568066E+01  0.10345143447E+01 0.  0.
     999903    2    3    3    0    0 -0.50564798691E-01  0.98351728726E-01  0.90376797183E-01  0.14425139147E+00  0.20264181729E-01 0.  0.
         14    1    1    2    0    0 -0.11807700399E-02 -0.84612771016E-02 -0.38560764542E-02  0.93731933565E-02  0.00000000000E+00 0. -1.
     999901    1    3    3    0    0  0.51745568731E-01 -0.89890451624E-01 -0.86520720729E-01  0.89030541518E+00  0.88000000000E+00 0. -1.
        -11    1    4    4    0    0 -0.50977607475E-01  0.91288593693E-01  0.79870723571E-01  0.13157475976E+00  0.51100000000E-03 0.  1.
         11    1    4    4    0    0  0.41280878360E-03  0.70631350321E-02  0.10506073613E-01  0.12676631703E-01  0.51100000000E-03 0. -1.
</event>
<event>
 8    1  0.1103774E+005  0.1043930E+01  0.7957747E-01            NaN
         13   -1    0    0    0    0  0.00000000000E+00  0.00000000000E+00  0.74505805969E-08  0.10566000000E+00  0.10566000000E+00 0. -1.
     999900   -1    0    0    0    0 -0.00000000000E+00 -0.00000000000E+00 -0.74505805969E-08  0.93827000000E+00  0.93827000000E+00 0.  1.
     999902    2    1    2    0    0  0.46959671804E-02  0.17369869767E-01 -0.13458469436E-01  0.10214601339E+01  0.10212129603E+01 0.  0.
     999903    2    3    3    0    0 -0.47110860532E-01 -0.68074038729E-01  0.96539195903E-01  0.12900055762E+00  0.21629137559E-01 0.  0.
         14    1    1    2    0    0 -0.46959671804E-02 -0.17369869767E-01  0.13458469436E-01  0.22469866111E-01  0.00000000000E+00 0.  1.
     999901    1    3    3    0    0  0.51806827712E-01  0.85443908496E-01 -0.10999766534E+00  0.89245957627E+00  0.88000000000E+00 0.  1.
        -11    1    4    4    0    0 -0.34868951391E-01 -0.62903605763E-01  0.77009050281E-01  0.10537249326E+00  0.51100000000E-03 0.  1.
         11    1    4    4    0    0 -0.12241909141E-01 -0.51704329660E-02  0.19530145621E-01  0.23628064361E-01  0.51100000000E-03 0. -1.
</event>
<event>
 8    1  0.1103774E+005  0.1043930E+01  0.7957747E-01            NaN
         13   -1    0    0    0    0  0.00000000000E+00  0.00000000000E+00  0.74505805969E-08  0.10566000000E+00  0.10566000000E+00 0.  1.
     999900   -1    0    0    0    0 -0.00000000000E+00 -0.00000000000E+00 -0.74505805969E-08  0.93827000000E+00  0.93827000000E+00 0.  1.
     999902    2    1    2    0    0  0.18453249656E-02 -0.23320505781E-01  0.36778041859E-02  0.10202492598E+01  0.10199743990E+01 0.  0.
     999903    2    3    3    0    0 -0.91057925293E-01 -0.10189531040E-01  0.91309270495E-01  0.13093339334E+00  0.20268160028E-01 0.  0.
         14    1    1    2    0    0 -0.18453249656E-02  0.23320505781E-01 -0.36778041859E-02  0.23680740228E-01  0.00000000000E+00 0.  1.
     999901    1    3    3    0    0  0.92903250258E-01 -0.13130974741E-01 -0.87631466309E-01  0.88931586644E+00  0.88000000000E+00 0.  1.
        -11    1    4    4    0    0 -0.80303733111E-01 -0.20520442773E-02  0.77372894534E-01  0.11153352127E+00  0.51100000000E-03 0.  1.
         11    1    4    4    0    0 -0.10754192182E-01 -0.81374867625E-02  0.13936375961E-01  0.19399872067E-01  0.51100000000E-03 0. -1.
</event>
<event>
 8    1  0.1103774E+005  0.1043930E+01  0.7957747E-01            NaN
         13   -1    0    0    0    0  0.00000000000E+00  0.00000000000E+00  0.74505805969E-08  0.10566000000E+00  0.10566000000E+00 0. -1.
     999900   -1    0    0    0    0 -0.00000000000E+00 -0.00000000000E+00 -0.74505805969E-08  0.93827000000E+00  0.93827000000E+00 0. -1.
     999902    2    1    2    0    0 -0.25358860706E-02  0.21753086538E-01  0.64375932691E-02  0.10211030401E+01  0.10208478576E+01 0.  0.
     999903    2    3    3    0    0 -0.60808614636E-01  0.11870966347E+00 -0.59062349008E-02  0.13377634782E+00  0.84590667052E-02 0.  0.
         14    1    1    2    0    0  0.25358860706E-02 -0.21753086538E-01 -0.64375932691E-02  0.22826959920E-01  0.00000000000E+00 0.  1.
     999901    1    3    3    0    0  0.58272728566E-01 -0.96956576934E-01  0.12343828170E-01  0.88732669226E+00  0.88000000000E+00 0.  1.
        -11    1    4    4    0    0 -0.14637176046E-01  0.30462566345E-01 -0.50479372550E-02  0.34175395571E-01  0.51100000000E-03 0. -1.
         11    1    4    4    0    0 -0.46171438591E-01  0.88247097127E-01 -0.85829764578E-03  0.99600952248E-01  0.51100000000E-03 0.  1.
</event>
<event>
 8    1  0.1103774E+005  0.1043930E+01  0.7957747E-01            NaN
         13   -1    0    0    0    0  0.00000000000E+00  0.00000000000E+00  0.74505805969E-08  0.10566000000E+00  0.10566000000E+00 0. -1.
     999900   -1    0    0    0    0 -0.00000000000E+00 -0.00000000000E+00 -0.74505805969E-08  0.93827000000E+00  0.93827000000E+00 0. -1.
     999902    2    1    2    0    0  0.11380270823E-01  0.52225054382E-04  0.20790378218E-01  0.10202286684E+01  0.10199533238E+01 0.  0.
     999903    2    3    3    0    0 -0.14340861869E-02 -0.98545693430E-01  0.86042845855E-01  0.13222887012E+00  0.19177916305E-01 0.  0.
         14    1    1    2    0    0 -0.11380270823E-01 -0.52225054382E-04 -0.20790378218E-01  0.23701331564E-01  0.00000000000E+00 0.  1.
     999901    1    3    3    0    0  0.12814357010E-01  0.98597918485E-01 -0.65252467637E-01  0.88799979832E+00  0.88000000000E+00 0.  1.
        -11    1    4    4    0    0 -0.96218489250E-02 -0.48660486899E-01  0.47223022351E-01  0.68488670034E-01  0.51100000000E-03 0.  1.
         11    1    4    4    0    0  0.81877627380E-02 -0.49885206531E-01  0.38819823503E-01  0.63740200087E-01  0.51100000000E-03 0. -1.
</event>
<event>
 8    1  0.1103774E+005  0.1043930E+01  0.7957747E-01            NaN
         13   -1    0    0    0    0  0.00000000000E+00  0.00000000000E+00  0.74505805969E-08  0.10566000000E+00  0.10566000000E+00 0. -1.
     999900   -1    0    0    0    0 -0.00000000000E+00 -0.00000000000E+00 -0.74505805969E-08  0.93827000000E+00  0.93827000000E+00 0.  1.
     999902    2    1    2    0    0 -0.11222873367E-01  0.18514023919E-01 -0.80503332462E-02  0.10208317353E+01  0.10205703807E+01 0.  0.
     999903    2    3    3    0    0 -0.11712361920E-01  0.12503932832E+00 -0.39462923079E-01  0.13385110928E+00  0.24223627080E-01 0.  0.
         14    1    1    2    0    0  0.11222873367E-01 -0.18514023919E-01  0.80503332462E-02  0.23098264732E-01  0.00000000000E+00 0. -1.
     999901    1    3    3    0    0  0.48948855308E-03 -0.10652530440E+00  0.31412589833E-01  0.88698062599E+00  0.88000000000E+00 0. -1.
        -11    1    4    4    0    0 -0.11044825113E-02  0.24759588602E-01 -0.18303467999E-01  0.30814528573E-01  0.51100000000E-03 0. -1.
         11    1    4    4    0    0 -0.10607879409E-01  0.10027973972E+00 -0.21159455080E-01  0.10303658071E+00  0.51100000000E-03 0.  1.
</event>
<event>
 8    1  0.1103774E+005  0.1043930E+01  0.7957747E-01            NaN
         13   -1    0    0    0    0  0.00000000000E+00  0.00000000000E+00  0.74505805969E-08  0.10566000000E+00  0.10566000000E+00 0.  1.
     999900   -1    0    0    0    0 -0.00000000000E+00 -0.00000000000E+00 -0.74505805969E-08  0.93827000000E+00  0.93827000000E+00 0.  1.
     999902    2    1    2    0    0 -0.11754525849E-01  0.20137103571E-01 -0.93189781222E-02  0.10188199388E+01  0.10185104578E+01 0.  0.
     999903    2    3    3    0    0  0.75626910564E-01 -0.96705124412E-01 -0.24014154271E-01  0.12668566090E+00  0.20031634589E-01 0.  0.
         14    1    1    2    0    0  0.11754525849E-01 -0.20137103571E-01  0.93189781222E-02  0.25110061159E-01  0.00000000000E+00 0.  1.
     999901    1    3    3    0    0 -0.87381436413E-01  0.11684222798E+00  0.14695176149E-01  0.89213427794E+00  0.88000000000E+00 0.  1.
        -11    1    4    4    0    0  0.55762150108E-01 -0.62768410154E-01 -0.24125725447E-01  0.87359043305E-01  0.51100000000E-03 0. -1.
         11    1    4    4    0    0  0.19864760456E-01 -0.33936714258E-01  0.11157117558E-03  0.39326617598E-01  0.51100000000E-03 0.  1.
</event>
<event>
 8    1  0.1103774E+005  0.1043930E+01  0.7957747E-01            NaN
         13   -1    0    0    0    0  0.00000000000E+00  0.00000000000E+00  0.74505805969E-08  0.10566000000E+00  0.10566000000E+00 0.  1.
     999900   -1    0    0    0    0 -0.00000000000E+00 -0.00000000000E+00 -0.74505805969E-08  0.93827000000E+00  0.93827000000E+00 0. -1.
     999902    2    1    2    0    0 -0.90733610265E-02  0.21264485048E-01 -0.49039001340E-02  0.10202962859E+01  0.10200225285E+01 0.  0.
     999903    2    3    3    0    0 -0.30978884248E-01 -0.71496277703E-02  0.12435025331E+00  0.13013121699E+00  0.21455528233E-01 0.  0.
         14    1    1    2    0    0  0.90733610265E-02 -0.21264485048E-01  0.49039001340E-02  0.23633714080E-01  0.00000000000E+00 0.  1.
     999901    1    3    3    0    0  0.21905523222E-01  0.28414112818E-01 -0.12925415344E+00  0.89016506893E+00  0.88000000000E+00 0. -1.
        -11    1    4    4    0    0  0.18798281683E-02 -0.32822107405E-02  0.27964700413E-01  0.28223965906E-01  0.51100000000E-03 0. -1.
         11    1    4    4    0    0 -0.32858712417E-01 -0.38674170297E-02  0.96385552896E-01  0.10190725109E+00  0.51100000000E-03 0.  1.
</event>
<event>
 8    1  0.1103774E+005  0.1043930E+01  0.7957747E-01            NaN
         13   -1    0    0    0    0  0.00000000000E+00  0.00000000000E+00  0.74505805969E-08  0.10566000000E+00  0.10566000000E+00 0.  1.
     999900   -1    0    0    0    0 -0.00000000000E+00 -0.00000000000E+00 -0.74505805969E-08  0.93827000000E+00  0.93827000000E+00 0.  1.
     999902    2    1    2    0    0  0.17808259710E-01 -0.67500308511E-03  0.14941428458E-01  0.10206741184E+01  0.10204091434E+01 0.  0.
     999903    2    3    3    0    0  0.29084962708E-01  0.39260310185E-01  0.12236376930E+00  0.13317113106E+00  0.19348154956E-01 0.  0.
         14    1    1    2    0    0 -0.17808259710E-01  0.67500308511E-03 -0.14941428458E-01  0.23255881567E-01  0.00000000000E+00 0. -1.
     999901    1    3    3    0    0 -0.11276702998E-01 -0.39935313271E-01 -0.10742234084E+00  0.88750298737E+00  0.88000000000E+00 0.  1.
        -11    1    4    4    0    0  0.75802660058E-02  0.16002822813E-01  0.67812442004E-01  0.70088081600E-01  0.51100000000E-03 0. -1.
         11    1    4    4    0    0  0.21504696702E-01  0.23257487372E-01  0.54551327295E-01  0.63083049465E-01  0.51100000000E-03 0.  1.
</event>
<event>
 8    1  0.1106350E+005  0.1043930E+01  0.7957747E-01            NaN
         13   -1    0    0    0    0  0.00000000000E+00  0.00000000000E+00  0.74505805969E-08  0.10566000000E+00  0.10566000000E+00 0. -1.
     999900   -1    0    0    0    0 -0.00000000000E+00 -0.00000000000E+00 -0.74505805969E-08  0.93827000000E+00  0.93827000000E+00 0.  1.
     999902    2    1    2    0    0 -0.20408431974E-01 -0.12321875244E-01  0.59457073503E-03  0.10200828572E+01  0.10198040740E+01 0.  0.
     999903    2    3    3    0    0  0.93135870530E-03  0.11077308151E+00  0.63059212639E-01  0.12906681552E+00  0.20254272498E-01 0.  0.
         14    1    1    2    0    0  0.20408431974E-01  0.12321875244E-01 -0.59457073503E-03  0.23847142796E-01  0.00000000000E+00 0.  1.
     999901    1    3    3    0    0 -0.21339790679E-01 -0.12309495675E+00 -0.62464641904E-01  0.89101604168E+00  0.88000000000E+00 0.  1.
        -11    1    4    4    0    0  0.63758213090E-02  0.26632086765E-01  0.22765389428E-01  0.35615210510E-01  0.51100000000E-03 0.  1.
         11    1    4    4    0    0 -0.54444626037E-02  0.84140994745E-01  0.40293823211E-01  0.93451605014E-01  0.51100000000E-03 0. -1.
</event>
<event>
 8    1  0.1103774E+005  0.1043930E+01  0.7957747E-01            NaN
         13   -1    0    0    0    0  0.00000000000E+00  0.00000000000E+00  0.74505805969E-08  0.10566000000E+00  0.10566000000E+00 0. -1.
     999900   -1    0    0    0    0 -0.00000000000E+00 -0.00000000000E+00 -0.74505805969E-08  0.93827000000E+00  0.93827000000E+00 0. -1.
     999902    2    1    2    0    0 -0.57525450309E-02  0.97653078763E-02 -0.20225961457E-01  0.10207450366E+01  0.10204816937E+01 0.  0.
     999903    2    3    3    0    0 -0.53109382901E-01  0.94200508212E-01  0.70795016271E-01  0.13076931132E+00  0.19857899066E-01 0.  0.
         14    1    1    2    0    0  0.57525450309E-02 -0.97653078763E-02  0.20225961457E-01  0.23184963427E-01  0.00000000000E+00 0. -1.
     999901    1    3    3    0    0  0.47356837870E-01 -0.84435200336E-01 -0.91020977728E-01  0.88997572525E+00  0.88000000000E+00 0.  1.
        -11    1    4    4    0    0 -0.31085110246E-01  0.60186090610E-01  0.32988379253E-01  0.75346823879E-01  0.51100000000E-03 0. -1.
         11    1    4    4    0    0 -0.22024272655E-01  0.34014417602E-01  0.37806637017E-01  0.55422487443E-01  0.51100000000E-03 0.  1.
</event>
<event>
 7    1  0.1103774E+005  0.1043930E+01  0.7957747E-01            NaN
         13   -1    0    0    0    0  0.00000000000E+00  0.00000000000E+00  0.74505805969E-08  0.10566000000E+00  0.10566000000E+00 0. -1.
     999900   -1    0    0    0    0 -0.00000000000E+00 -0.00000000000E+00 -0.74505805969E-08  0.93827000000E+00  0.93827000000E+00 0.  1.
     999902    2    1    2    0    0 -0.19087244753E-01  0.13165857633E-01 -0.38911423471E-02  0.10204182219E+01  0.10201473148E+01 0.  0.
         14    1    1    2    0    0  0.19087244753E-01 -0.13165857633E-01  0.38911423471E-02  0.23511778075E-01  0.00000000000E+00 0. -1.
     999901    1    3    3    0    0 -0.63501940811E-02  0.70368679991E-01 -0.95651131048E-01  0.88799843185E+00  0.88000000000E+00 0.  1.
        -11    1    3    3    0    0  0.30372068391E-01 -0.19145331217E-01  0.49048454860E-01  0.60786662114E-01  0.51100000000E-03 0. -1.
         11    1    3    3    0    0 -0.43109119062E-01 -0.38057491141E-01  0.42711533840E-01  0.71633127966E-01  0.51100000000E-03 0.  1.
</event>
<event>
 8    1  0.1103774E+005  0.1043930E+01  0.7957747E-01            NaN
         13   -1    0    0    0    0  0.00000000000E+00  0.00000000000E+00  0.74505805969E-08  0.10566000000E+00  0.10566000000E+00 0. -1.
     999900   -1    0    0    0    0 -0.00000000000E+00 -0.00000000000E+00 -0.74505805969E-08  0.93827000000E+00  0.93827000000E+00 0.  1.
     999902    2    1    2    0    0 -0.48923535157E-02  0.76306082078E-02  0.23233305972E-01  0.10189911185E+01  0.10186858945E+01 0.  0.
     999903    2    3    3    0    0 -0.53252034655E-01  0.11682904012E+00 -0.98460065918E-02  0.13030827450E+00  0.19962433363E-01 0.  0.
         14    1    1    2    0    0  0.48923535157E-02 -0.76306082078E-02 -0.23233305972E-01  0.24938881509E-01  0.00000000000E+00 0.  1.
     999901    1    3    3    0    0  0.48359681139E-01 -0.10919843191E+00  0.33079312564E-01  0.88868284400E+00  0.88000000000E+00 0.  1.
        -11    1    4    4    0    0 -0.26509596279E-01  0.56361525225E-01  0.51848179926E-02  0.62502189395E-01  0.51100000000E-03 0. -1.
         11    1    4    4    0    0 -0.26742438376E-01  0.60467514895E-01 -0.15030824584E-01  0.67806085100E-01  0.51100000000E-03 0.  1.
</event>
<event>
 8    1  0.1103774E+005  0.1043930E+01  0.7957747E-01            NaN
         13   -1    0    0    0    0  0.00000000000E+00  0.00000000000E+00  0.74505805969E-08  0.10566000000E+00  0.10566000000E+00 0.  1.
     999900   -1    0    0    0    0 -0.00000000000E+00 -0.00000000000E+00 -0.74505805969E-08  0.93827000000E+00  0.93827000000E+00 0.  1.
     999902    2    1    2    0    0  0.51367903139E-02 -0.21282612264E-01 -0.80035633723E-02  0.10206192037E+01  0.10203529613E+01 0.  0.
     999903    2    3    3    0    0 -0.95773588751E-01  0.56419062347E-01 -0.64205144289E-01  0.12967640384E+00  0.18384185111E-01 0.  0.
         14    1    1    2    0    0 -0.51367903139E-02  0.21282612264E-01  0.80035633723E-02  0.23310796344E-01  0.00000000000E+00 0.  1.
     999901    1    3    3    0    0  0.10091037907E+00 -0.77701674611E-01  0.56201580917E-01  0.89094279981E+00  0.88000000000E+00 0. -1.
        -11    1    4    4    0    0 -0.71176240989E-01  0.33739235263E-01 -0.50175132371E-01  0.93392710138E-01  0.51100000000E-03 0.  1.
         11    1    4    4    0    0 -0.24597347762E-01  0.22679827084E-01 -0.14030011918E-01  0.36283693705E-01  0.51100000000E-03 0. -1.
</event>
<event>
 8    1  0.1103774E+005  0.1043930E+01  0.7957747E-01            NaN
         13   -1    0    0    0    0  0.00000000000E+00  0.00000000000E+00  0.74505805969E-08  0.10566000000E+00  0.10566000000E+00 0. -1.
     999900   -1    0    0    0    0 -0.00000000000E+00 -0.00000000000E+00 -0.74505805969E-08  0.93827000000E+00  0.93827000000E+00 0.  1.
     999902    2    1    2    0    0 -0.68975691674E-02  0.22343074057E-02  0.21971979081E-01  0.10207926610E+01  0.10205304113E+01 0.  0.
     999903    2    3    3    0    0 -0.12079004256E+00 -0.42175986273E-01  0.27881506892E-01  0.13232280099E+00  0.19049856586E-01 0.  0.
         14    1    1    2    0    0  0.68975691674E-02 -0.22343074057E-02 -0.21971979081E-01  0.23137338972E-01  0.00000000000E+00 0.  1.
     999901    1    3    3    0    0  0.11389247339E+00  0.44410293678E-01 -0.59095278117E-02  0.88846986004E+00  0.88000000000E+00 0.  1.
        -11    1    4    4    0    0 -0.65771705443E-01 -0.28804869276E-01  0.77204591064E-02  0.72218448756E-01  0.51100000000E-03 0.  1.
         11    1    4    4    0    0 -0.55018337113E-01 -0.13371116997E-01  0.20161047786E-01  0.60104352232E-01  0.51100000000E-03 0. -1.
</event>
<event>
 8    1  0.1103774E+005  0.1043930E+01  0.7957747E-01            NaN
         13   -1    0    0    0    0  0.00000000000E+00  0.00000000000E+00  0.74505805969E-08  0.10566000000E+00  0.10566000000E+00 0.  1.
     999900   -1    0    0    0    0 -0.00000000000E+00 -0.00000000000E+00 -0.74505805969E-08  0.93827000000E+00  0.93827000000E+00 0. -1.
     999902    2    1    2    0    0 -0.14893910504E-01 -0.16165683588E-01  0.98186490338E-02  0.10198558694E+01  0.10195716898E+01 0.  0.
     999903    2    3    3    0    0  0.39217122589E-01 -0.16754072250E-01 -0.11977084293E+00  0.12872075812E+00  0.20131992286E-01 0.  0.
         14    1    1    2    0    0  0.14893910504E-01  0.16165683588E-01 -0.98186490338E-02  0.24074130614E-01  0.00000000000E+00 0. -1.
     999901    1    3    3    0    0 -0.54111033093E-01  0.58838866208E-03  0.12958949196E+00  0.89113511127E+00  0.88000000000E+00 0.  1.
        -11    1    4    4    0    0  0.21432400349E-01 -0.19137271619E-01 -0.82275464629E-01  0.87149848827E-01  0.51100000000E-03 0. -1.
         11    1    4    4    0    0  0.17784722240E-01  0.23831993685E-02 -0.37495378302E-01  0.41570909292E-01  0.51100000000E-03 0.  1.
</event>
<event>
 8    1  0.1103774E+005  0.1043930E+01  0.7957747E-01            NaN
         13   -1    0    0    0    0  0.00000000000E+00  0.00000000000E+00  0.74505805969E-08  0.10566000000E+00  0.10566000000E+00 0.  1.
     999900   -1    0    0    0    0 -0.00000000000E+00 -0.00000000000E+00 -0.74505805969E-08  0.93827000000E+00  0.93827000000E+00 0.  1.
     999902    2    1    2    0    0  0.10712273643E-01  0.19660309406E-01  0.11206548957E-01  0.10188926816E+01  0.10185850133E+01 0.  0.
     999903    2    3    3    0    0  0.24223753877E-01  0.12436166935E+00 -0.29823371201E-01  0.13163376268E+00  0.19631580463E-01 0.  0.
         14    1    1    2    0    0 -0.10712273643E-01 -0.19660309406E-01 -0.11206548957E-01  0.25037318388E-01  0.00000000000E+00 0. -1.
     999901    1    3    3    0    0 -0.13511480234E-01 -0.10470135995E+00  0.41029920158E-01  0.88725891893E+00  0.88000000000E+00 0. -1.
        -11    1    4    4    0    0  0.47587944700E-02  0.53068668895E-01 -0.20720340615E-01  0.57171001209E-01  0.51100000000E-03 0. -1.
         11    1    4    4    0    0  0.19464959407E-01  0.71293000460E-01 -0.91030305858E-02  0.74462761472E-01  0.51100000000E-03 0.  1.
</event>
<event>
 8    1  0.1103774E+005  0.1043930E+01  0.7957747E-01            NaN
         13   -1    0    0    0    0  0.00000000000E+00  0.00000000000E+00  0.74505805969E-08  0.10566000000E+00  0.10566000000E+00 0. -1.
     999900   -1    0    0    0    0 -0.00000000000E+00 -0.00000000000E+00 -0.74505805969E-08  0.93827000000E+00  0.93827000000E+00 0.  1.
     999902    2    1    2    0    0 -0.11409127813E-01 -0.14241958061E-01  0.14774428533E-01  0.10204505344E+01  0.10201803800E+01 0.  0.
     999903    2    3    3    0    0  0.43486539256E-01 -0.25839263723E-01 -0.11476625059E+00  0.12919926830E+00  0.31022765949E-01 0.  0.
         14    1    1    2    0    0  0.11409127813E-01  0.14241958061E-01 -0.14774428533E-01  0.23479465610E-01  0.00000000000E+00 0.  1.
     999901    1    3    3    0    0 -0.54895667069E-01  0.11597305662E-01  0.12954067913E+00  0.89125126609E+00  0.88000000000E+00 0. -1.
        -11    1    4    4    0    0  0.17581468812E-01 -0.27961612749E-01 -0.70688185163E-01  0.78025896187E-01  0.51100000000E-03 0. -1.
         11    1    4    4    0    0  0.25905070444E-01  0.21223490260E-02 -0.44078065431E-01  0.51173372111E-01  0.51100000000E-03 0.  1.
</event>
<event>
 8    1  0.1103774E+005  0.1043930E+01  0.7957747E-01            NaN
         13   -1    0    0    0    0  0.00000000000E+00  0.00000000000E+00  0.74505805969E-08  0.10566000000E+00  0.10566000000E+00 0.  1.
     999900   -1    0    0    0    0 -0.00000000000E+00 -0.00000000000E+00 -0.74505805969E-08  0.93827000000E+00  0.93827000000E+00 0.  1.
     999902    2    1    2    0    0 -0.13640778490E-01  0.12445764361E-01  0.20159284303E-01  0.10165920295E+01  0.10162243796E+01 0.  0.
     999903    2    3    3    0    0 -0.82085323753E-02  0.25174029758E-02 -0.12298392204E+00  0.12495417745E+00  0.20366248055E-01 0.  0.
         14    1    1    2    0    0  0.13640778490E-01 -0.12445764361E-01 -0.20159284303E-01  0.27337970517E-01  0.00000000000E+00 0.  1.
     999901    1    3    3    0    0 -0.54322461152E-02  0.99283613849E-02  0.14314320634E+00  0.89163785203E+00  0.88000000000E+00 0. -1.
        -11    1    4    4    0    0  0.64532151602E-02 -0.55404460955E-03 -0.52051541855E-01  0.52455458075E-01  0.51100000000E-03 0.  1.
         11    1    4    4    0    0 -0.14661747536E-01  0.30714475854E-02 -0.70932380186E-01  0.72498719374E-01  0.51100000000E-03 0. -1.
</event>
<event>
 8    1  0.1103774E+005  0.1043930E+01  0.7957747E-01            NaN
         13   -1    0    0    0    0  0.00000000000E+00  0.00000000000E+00  0.74505805969E-08  0.10566000000E+00  0.10566000000E+00 0. -1.
     999900   -1    0    0    0    0 -0.00000000000E+00 -0.00000000000E+00 -0.74505805969E-08  0.93827000000E+00  0.93827000000E+00 0.  1.
     999902    2    1    2    0    0 -0.61520225966E-02  0.22461200586E-01  0.50754812646E-02  0.10200948700E+01  0.10198163709E+01 0.  0.
     999903    2    3    3    0    0  0.78609372743E-01  0.32399763207E-01 -0.96448999624E-01  0.13015639491E+00  0.20226207446E-01 0.  0.
         14    1    1    2    0    0  0.61520225966E-02 -0.22461200586E-01 -0.50754812646E-02  0.23835130036E-01  0.00000000000E+00 0.  1.
     999901    1    3    3    0    0 -0.84761395340E-01 -0.99385626215E-02  0.10152448089E+00  0.88993847506E+00  0.88000000000E+00 0. -1.
        -11    1    4    4    0    0  0.57110533991E-01  0.24399118973E-01 -0.55863632544E-01  0.83534044925E-01  0.51100000000E-03 0.  1.
         11    1    4    4    0    0  0.21498838752E-01  0.80006442339E-02 -0.40585367080E-01  0.46622349982E-01  0.51100000000E-03 0. -1.
</event>
<event>
 8    1  0.1103774E+005  0.1043930E+01  0.7957747E-01            NaN
         13   -1    0    0    0    0  0.00000000000E+00  0.00000000000E+00  0.74505805969E-08  0.10566000000E+00  0.10566000000E+00 0. -1.
     999900   -1    0    0    0    0 -0.00000000000E+00 -0.00000000000E+00 -0.74505805969E-08  0.93827000000E+00  0.93827000000E+00 0. -1.
     999902    2    1    2    0    0  0.98164388698E-02  0.80110564177E-02 -0.20162722291E-01  0.10201166662E+01  0.10198386822E+01 0.  0.
     999903    2    3    3    0    0  0.64923400016E-02 -0.12692876135E+00 -0.17376421101E-01  0.12982032927E+00  0.19957879289E-01 0.  0.
         14    1    1    2    0    0 -0.98164388698E-02 -0.80110564177E-02  0.20162722291E-01  0.23813333811E-01  0.00000000000E+00 0. -1.
     999901    1    3    3    0    0  0.33240988682E-02  0.13493981777E+00 -0.27863011904E-02  0.89029633692E+00  0.88000000000E+00 0.  1.
        -11    1    4    4    0    0  0.13023393895E-01 -0.62656165737E-01 -0.10441841947E-01  0.64843635598E-01  0.51100000000E-03 0.  1.
         11    1    4    4    0    0 -0.65310538935E-02 -0.64272595613E-01 -0.69345791534E-02  0.64976693674E-01  0.51100000000E-03 0. -1.
</event>
<event>
 8    1  0.1103774E+005  0.1043930E+01  0.7957747E-01            NaN
         13   -1    0    0    0    0  0.00000000000E+00  0.00000000000E+00  0.74505805969E-08  0.10566000000E+00  0.10566000000E+00 0.  1.
     999900   -1    0    0    0    0 -0.00000000000E+00 -0.00000000000E+00 -0.74505805969E-08  0.93827000000E+00  0.93827000000E+00 0. -1.
     999902    2    1    2    0    0 -0.18808801290E-01 -0.12947236506E-01 -0.64342572005E-02  0.10202065600E+01  0.10199306954E+01 0.  0.
     999903    2    3    3    0    0 -0.20664544345E-01 -0.88069906194E-01  0.93268096383E-01  0.13139419590E+00  0.19549044581E-01 0.  0.
         14    1    1    2    0    0  0.18808801290E-01  0.12947236506E-01  0.64342572005E-02  0.23723439988E-01  0.00000000000E+00 0. -1.
     999901    1    3    3    0    0  0.18557430546E-02  0.75122669688E-01 -0.99702353584E-01  0.88881236411E+00  0.88000000000E+00 0. -1.
        -11    1    4    4    0    0 -0.11230541921E-01 -0.14421726023E-01  0.17580888158E-01  0.25366513413E-01  0.51100000000E-03 0.  1.
         11    1    4    4    0    0 -0.94340024243E-02 -0.73648180171E-01  0.75687208226E-01  0.10602768249E+00  0.51100000000E-03 0. -1.
</event>
<event>
 8    1  0.1103774E+005  0.1043930E+01  0.7957747E-01            NaN
         13   -1    0    0    0    0  0.00000000000E+00  0.00000000000E+00  0.74505805969E-08  0.10566000000E+00  0.10566000000E+00 0.  1.
     999900   -1    0    0    0    0 -0.00000000000E+00 -0.00000000000E+00 -0.74505805969E-08  0.93827000000E+00  0.93827000000E+00 0.  1.
     999902    2    1    2    0    0  0.20213116535E-01 -0.86837870491E-02 -0.90721453889E-02  0.10201333183E+01  0.10198557276E+01 0.  0.
     999903    2    3    3    0    0 -0.37278576986E-01  0.98564821459E-01 -0.71330612534E-01  0.12958086304E+00  0.24462776838E-01 0.  0.
         14    1    1    2    0    0 -0.20213116535E-01  0.86837870491E-02  0.90721453889E-02  0.23796681692E-01  0.00000000000E+00 0.  1.
     999901    1    3    3    0    0  0.57491693521E-01 -0.10724860851E+00  0.62258467145E-01  0.89055245527E+00  0.88000000000E+00 0. -1.
        -11    1    4    4    0    0 -0.15177202108E-01  0.66271154928E-01 -0.53790141830E-01  0.86694024699E-01  0.51100000000E-03 0. -1.
         11    1    4    4    0    0 -0.22101374878E-01  0.32293666531E-01 -0.17540470704E-01  0.42886838342E-01  0.51100000000E-03 0.  1.
</event>
<event>
 8    1  0.1103774E+005  0.1043930E+01  0.7957747E-01            NaN
         13   -1    0    0    0    0  0.00000000000E+00  0.00000000000E+00  0.74505805969E-08  0.10566000000E+00  0.10566000000E+00 0. -1.
     999900   -1    0    0    0    0 -0.00000000000E+00 -0.00000000000E+00 -0.74505805969E-08  0.93827000000E+00  0.93827000000E+00 0. -1.
     999902    2    1    2    0    0 -0.14233705948E-01 -0.16175706008E-01  0.92015555975E-02  0.10205009481E+01  0.10202319660E+01 0.  0.
     999903    2    3    3    0    0 -0.31869474513E-01 -0.66097135128E-01  0.10923610941E+00  0.13325234626E+00  0.20956276063E-01 0.  0.
         14    1    1    2    0    0  0.14233705948E-01  0.16175706008E-01 -0.92015555975E-02  0.23429051950E-01  0.00000000000E+00 0.  1.
     999901    1    3    3    0    0  0.17635768565E-01  0.49921429121E-01 -0.10003455382E+00  0.88724860179E+00  0.88000000000E+00 0. -1.
        -11    1    4    4    0    0 -0.39874823466E-02 -0.92416948561E-02  0.31010999826E-01  0.32607547754E-01  0.51100000000E-03 0.  1.
         11    1    4    4    0    0 -0.27881992166E-01 -0.56855440272E-01  0.78225109588E-01  0.10064479851E+00  0.51100000000E-03 0. -1.
</event>
<event>
 8    1  0.1103774E+005  0.1043930E+01  0.7957747E-01            NaN
         13   -1    0    0    0    0  0.00000000000E+00  0.00000000000E+00  0.74505805969E-08  0.10566000000E+00  0.10566000000E+00 0.  1.
     999900   -1    0    0    0    0 -0.00000000000E+00 -0.00000000000E+00 -0.74505805969E-08  0.93827000000E+00  0.93827000000E+00 0. -1.
     999902    2    1    2    0    0  0.17112989547E-01 -0.92739047556E-02  0.13502698727E-01  0.10202407072E+01  0.10199656455E+01 0.  0.
     999903    2    3    3    0    0  0.77066395369E-01 -0.73200320122E-01  0.78168483418E-01  0.13352617525E+00  0.20528310119E-01 0.  0.
         14    1    1    2    0    0 -0.17112989547E-01  0.92739047556E-02 -0.13502698727E-01  0.23689292804E-01  0.00000000000E+00 0. -1.
     999901    1    3    3    0    0 -0.59953405822E-01  0.63926415366E-01 -0.64665784691E-01  0.88671453194E+00  0.88000000000E+00 0. -1.
        -11    1    4    4    0    0  0.33761075158E-01 -0.33246123919E-01  0.22465298846E-01  0.52441069065E-01  0.51100000000E-03 0.  1.
         11    1    4    4    0    0  0.43305320211E-01 -0.39954196203E-01  0.55703184572E-01  0.81085106187E-01  0.51100000000E-03 0. -1.
</event>
<event>
 8    1  0.1103774E+005  0.1043930E+01  0.7957747E-01            NaN
         13   -1    0    0    0    0  0.00000000000E+00  0.00000000000E+00  0.74505805969E-08  0.10566000000E+00  0.10566000000E+00 0.  1.
     999900   -1    0    0    0    0 -0.00000000000E+00 -0.00000000000E+00 -0.74505805969E-08  0.93827000000E+00  0.93827000000E+00 0. -1.
     999902    2    1    2    0    0 -0.62742743178E-02 -0.21043234029E-01  0.10133743803E-01  0.10197457700E+01  0.10194589538E+01 0.  0.
     999903    2    3    3    0    0 -0.12498336547E+00  0.19235353956E-01 -0.23481138594E-01  0.13022670148E+00  0.20415421188E-01 0.  0.
         14    1    1    2    0    0  0.62742743178E-02  0.21043234029E-01 -0.10133743803E-01  0.24184229987E-01  0.00000000000E+00 0. -1.
     999901    1    3    3    0    0  0.11870909115E+00 -0.40278587985E-01  0.33614882397E-01  0.88951906854E+00  0.88000000000E+00 0.  1.
        -11    1    4    4    0    0 -0.96526735596E-01  0.73897107953E-02 -0.13073129422E-01  0.97689233513E-01  0.51100000000E-03 0. -1.
         11    1    4    4    0    0 -0.28456629871E-01  0.11845643160E-01 -0.10408009172E-01  0.32537467963E-01  0.51100000000E-03 0.  1.
</event>
<event>
 8    1  0.1103774E+005  0.1043930E+01  0.7957747E-01            NaN
         13   -1    0    0    0    0  0.00000000000E+00  0.00000000000E+00  0.74505805969E-08  0.10566000000E+00  0.10566000000E+00 0.  1.
     999900   -1    0    0    0    0 -0.00000000000E+00 -0.00000000000E+00 -0.74505805969E-08  0.93827000000E+00  0.93827000000E+00 0. -1.
     999902    2    1    2    0    0  0.94721890376E-02 -0.99726055839E-02  0.19525103999E-01  0.10200468488E+01  0.10197672130E+01 0.  0.
     999903    2    3    3    0    0 -0.71516114610E-02 -0.12729520967E+00  0.27781530512E-01  0.13206649269E+00  0.20359987763E-01 0.  0.
         14    1    1    2    0    0 -0.94721890376E-02  0.99726055839E-02 -0.19525103999E-01  0.23883151246E-01  0.00000000000E+00 0. -1.
     999901    1    3    3    0    0  0.16623800499E-01  0.11732260409E+00 -0.82564265130E-02  0.88798035606E+00  0.88000000000E+00 0. -1.
        -11    1    4    4    0    0 -0.58555072186E-02 -0.10404436255E+00  0.30585094775E-01  0.10860582621E+00  0.51100000000E-03 0. -1.
         11    1    4    4    0    0 -0.12961042424E-02 -0.23250847123E-01 -0.28035642633E-02  0.23460666481E-01  0.51100000000E-03 0.  1.
</event>
<event>
 8    1  0.1103774E+005  0.1043930E+01  0.7957747E-01            NaN
         13   -1    0    0    0    0  0.00000000000E+00  0.00000000000E+00  0.74505805969E-08  0.10566000000E+00  0.10566000000E+00 0.  1.
     999900   -1    0    0    0    0 -0.00000000000E+00 -0.00000000000E+00 -0.74505805969E-08  0.93827000000E+00  0.93827000000E+00 0. -1.
     999902    2    1    2    0    0 -0.17681237919E-01 -0.49353543091E-02 -0.14530584504E-01  0.10205179992E+01  0.10202494131E+01 0.  0.
     999903    2    3    3    0    0  0.10171630214E+00 -0.76723031919E-01  0.92286455805E-02  0.12924153015E+00  0.19636075707E-01 0.  0.
         14    1    1    2    0    0  0.17681237919E-01  0.49353543091E-02  0.14530584504E-01  0.23412000823E-01  0.00000000000E+00 0.  1.
     999901    1    3    3    0    0 -0.11939754005E+00  0.71787677610E-01 -0.23759230085E-01  0.89127646903E+00  0.88000000000E+00 0. -1.
        -11    1    4    4    0    0  0.57618525529E-01 -0.45354430013E-01 -0.43066516917E-02  0.73455613643E-01  0.51100000000E-03 0. -1.
         11    1    4    4    0    0  0.44097776607E-01 -0.31368601907E-01  0.13535297272E-01  0.55785916507E-01  0.51100000000E-03 0.  1.
</event>
<event>
 8    1  0.1103774E+005  0.1043930E+01  0.7957747E-01            NaN
         13   -1    0    0    0    0  0.00000000000E+00  0.00000000000E+00  0.74505805969E-08  0.10566000000E+00  0.10566000000E+00 0.  1.
     999900   -1    0    0    0    0 -0.00000000000E+00 -0.00000000000E+00 -0.74505805969E-08  0.93827000000E+00  0.93827000000E+00 0. -1.
     999902    2    1    2    0    0 -0.16195640298E-01  0.12291994701E-01 -0.10878981606E-01  0.10208704220E+01  0.10206099521E+01 0.  0.
     999903    2    3    3    0    0  0.83101387512E-01  0.71245900571E-01  0.67067334785E-01  0.12990965347E+00  0.19916619089E-01 0.  0.
         14    1    1    2    0    0  0.16195640298E-01 -0.12291994701E-01  0.10878981606E-01  0.23059578036E-01  0.00000000000E+00 0.  1.
     999901    1    3    3    0    0 -0.99297027810E-01 -0.58953905870E-01 -0.77946316391E-01  0.89096076849E+00  0.88000000000E+00 0.  1.
        -11    1    4    4    0    0  0.56749562878E-01  0.40588285530E-01  0.33679608250E-01  0.77475795846E-01  0.51100000000E-03 0. -1.
         11    1    4    4    0    0  0.26351824634E-01  0.30657615041E-01  0.33387726536E-01  0.52433857628E-01  0.51100000000E-03 0.  1.
</event>
<event>
 8    1  0.1103774E+005  0.1043930E+01  0.7957747E-01            NaN
         13   -1    0    0    0    0  0.00000000000E+00  0.00000000000E+00  0.74505805969E-08  0.10566000000E+00  0.10566000000E+00 0.  1.
     999900   -1    0    0    0    0 -0.00000000000E+00 -0.00000000000E+00 -0.74505805969E-08  0.93827000000E+00  0.93827000000E+00 0. -1.
     999902    2    1    2    0    0 -0.10209196518E-01 -0.20139066925E-01 -0.59181001493E-02  0.10205883287E+01  0.10203213724E+01 0.  0.
     999903    2    3    3    0    0 -0.51298265764E-01 -0.10222128732E+00  0.64694771391E-01  0.13300059773E+00  0.20567982406E-01 0.  0.
         14    1    1    2    0    0  0.10209196518E-01  0.20139066925E-01  0.59181001493E-02  0.23341671310E-01  0.00000000000E+00 0.  1.
     999901    1    3    3    0    0  0.41089069246E-01  0.82082220396E-01 -0.70612871540E-01  0.88758773096E+00  0.88000000000E+00 0. -1.
        -11    1    4    4    0    0 -0.33845708508E-01 -0.56319875866E-01  0.26776867091E-01  0.70955775905E-01  0.51100000000E-03 0.  1.
         11    1    4    4    0    0 -0.17452557255E-01 -0.45901411455E-01  0.37917904300E-01  0.62044821829E-01  0.51100000000E-03 0. -1.
</event>
<event>
 8    1  0.1103774E+005  0.1043930E+01  0.7957747E-01            NaN
         13   -1    0    0    0    0  0.00000000000E+00  0.00000000000E+00  0.74505805969E-08  0.10566000000E+00  0.10566000000E+00 0. -1.
     999900   -1    0    0    0    0 -0.00000000000E+00 -0.00000000000E+00 -0.74505805969E-08  0.93827000000E+00  0.93827000000E+00 0. -1.
     999902    2    1    2    0    0  0.41397744264E-02 -0.22670756136E-01  0.64802171724E-02  0.10199906155E+01  0.10197096457E+01 0.  0.
     999903    2    3    3    0    0 -0.15459903187E-01  0.86197533793E-01 -0.90768790323E-01  0.12774971676E+00  0.20297620455E-01 0.  0.
         14    1    1    2    0    0 -0.41397744264E-02  0.22670756136E-01 -0.64802171724E-02  0.23939384509E-01  0.00000000000E+00 0. -1.
     999901    1    3    3    0    0  0.19599677614E-01 -0.10886828993E+00  0.97249007496E-01  0.89224089873E+00  0.88000000000E+00 0. -1.
        -11    1    4    4    0    0 -0.20676425651E-02  0.58591553846E-01 -0.52533514283E-01  0.78722783054E-01  0.51100000000E-03 0.  1.
         11    1    4    4    0    0 -0.13392260622E-01  0.27605979947E-01 -0.38235276040E-01  0.49026933703E-01  0.51100000000E-03 0. -1.
</event>
<event>
 8    1  0.1103774E+005  0.1043930E+01  0.7957747E-01            NaN
         13   -1    0    0    0    0  0.00000000000E+00  0.00000000000E+00  0.74505805969E-08  0.10566000000E+00  0.10566000000E+00 0.  1.
     999900   -1    0    0    0    0 -0.00000000000E+00 -0.00000000000E+00 -0.74505805969E-08  0.93827000000E+00  0.93827000000E+00 0.  1.
     999902    2    1    2    0    0  0.26323554443E-02 -0.80379804440E-02  0.21428928859E-01  0.10208922610E+01  0.10206322899E+01 0.  0.
     999903    2    3    3    0    0  0.57161897611E-01  0.10070841784E+00  0.58919888542E-01  0.13173264534E+00  0.21731742254E-01 0.  0.
         14    1    1    2    0    0 -0.26323554443E-02  0.80379804440E-02 -0.21428928859E-01  0.23037738970E-01  0.00000000000E+00 0. -1.
     999901    1    3    3    0    0 -0.54529542167E-01 -0.10874639828E+00 -0.37490959683E-01  0.88915961569E+00  0.88000000000E+00 0. -1.
        -11    1    4    4    0    0  0.21307755536E-01  0.59436111377E-01  0.32242357560E-01  0.70897831586E-01  0.51100000000E-03 0.  1.
         11    1    4    4    0    0  0.35854142075E-01  0.41272306462E-01  0.26677530982E-01  0.60834813758E-01  0.51100000000E-03 0. -1.
</event>
<event>
 8    1  0.1103774E+005  0.1043930E+01  0.7957747E-01            NaN
         13   -1    0    0    0    0  0.00000000000E+00  0.00000000000E+00  0.74505805969E-08  0.10566000000E+00  0.10566000000E+00 0. -1.
     999900   -1    0    0    0    0 -0.00000000000E+00 -0.00000000000E+00 -0.74505805969E-08  0.93827000000E+00  0.93827000000E+00 0.  1.
     999902    2    1    2    0    0 -0.14294080525E-01  0.18683089580E-01 -0.10120029263E-01  0.10183215333E+01  0.10179994851E+01 0.  0.
     999903    2    3    3    0    0 -0.52875787635E-01  0.10740182215E+00  0.50067300166E-01  0.13097601083E+00  0.17803947500E-01 0.  0.
         14    1    1    2    0    0  0.14294080525E-01 -0.18683089580E-01  0.10120029263E-01  0.25608466697E-01  0.00000000000E+00 0. -1.
     999901    1    3    3    0    0  0.38581707110E-01 -0.88718732574E-01 -0.60187329429E-01  0.88734552248E+00  0.88000000000E+00 0. -1.
        -11    1    4    4    0    0 -0.36002084001E-01  0.67012711399E-01  0.40442903573E-01  0.86155342910E-01  0.51100000000E-03 0.  1.
         11    1    4    4    0    0 -0.16873703634E-01  0.40389110754E-01  0.96243965930E-02  0.44820667918E-01  0.51100000000E-03 0. -1.
</event>
<event>
 8    1  0.1103774E+005  0.1043930E+01  0.7957747E-01            NaN
         13   -1    0    0    0    0  0.00000000000E+00  0.00000000000E+00  0.74505805969E-08  0.10566000000E+00  0.10566000000E+00 0.  1.
     999900   -1    0    0    0    0 -0.00000000000E+00 -0.00000000000E+00 -0.74505805969E-08  0.93827000000E+00  0.93827000000E+00 0. -1.
     999902    2    1    2    0    0 -0.31361913865E-02 -0.63839288248E-02 -0.23923127962E-01  0.10189719092E+01  0.10186662091E+01 0.  0.
     999903    2    3    3    0    0  0.13069304007E-01  0.11789529748E+00 -0.48682362829E-01  0.12974698611E+00  0.19854472521E-01 0.  0.
         14    1    1    2    0    0  0.31361913865E-02  0.63839288248E-02  0.23923127962E-01  0.24958090776E-01  0.00000000000E+00 0.  1.
     999901    1    3    3    0    0 -0.16205495394E-01 -0.12427922631E+00  0.24759234867E-01  0.88922492311E+00  0.88000000000E+00 0. -1.
        -11    1    4    4    0    0 -0.24325724358E-02  0.67230369135E-01 -0.27847096049E-01  0.72811824741E-01  0.51100000000E-03 0. -1.
         11    1    4    4    0    0  0.15501876443E-01  0.50664928347E-01 -0.20835266780E-01  0.56935161372E-01  0.51100000000E-03 0.  1.
</event>
<event>
 8    1  0.1103774E+005  0.1043930E+01  0.7957747E-01            NaN
         13   -1    0    0    0    0  0.00000000000E+00  0.00000000000E+00  0.74505805969E-08  0.10566000000E+00  0.10566000000E+00 0. -1.
     999900   -1    0    0    0    0 -0.00000000000E+00 -0.00000000000E+00 -0.74505805969E-08  0.93827000000E+00  0.93827000000E+00 0. -1.
     999902    2    1    2    0    0  0.12801101239E-02 -0.18370254632E-01 -0.13296132323E-01  0.10212167424E+01  0.10209641242E+01 0.  0.
     999903    2    3    3    0    0  0.29200248574E-01 -0.10026907227E-01 -0.12810973284E+00  0.13328019710E+00  0.19957803088E-01 0.  0.
         14    1    1    2    0    0 -0.12801101239E-02  0.18370254632E-01  0.13296132323E-01  0.22713257625E-01  0.00000000000E+00 0. -1.
     999901    1    3    3    0    0 -0.27920138450E-01 -0.83433474048E-02  0.11481360052E+00  0.88793654528E+00  0.88000000000E+00 0.  1.
        -11    1    4    4    0    0  0.20541289564E-01 -0.53177579807E-02 -0.46975767203E-01  0.51548103284E-01  0.51100000000E-03 0.  1.
         11    1    4    4    0    0  0.86589590107E-02 -0.47091492466E-02 -0.81133965639E-01  0.81732093813E-01  0.51100000000E-03 0. -1.
</event>
<event>
 8    1  0.1103774E+005  0.1043930E+01  0.7957747E-01            NaN
         13   -1    0    0    0    0  0.00000000000E+00  0.00000000000E+00  0.74505805969E-08  0.10566000000E+00  0.10566000000E+00 0.  1.
     999900   -1    0    0    0    0 -0.00000000000E+00 -0.00000000000E+00 -0.74505805969E-08  0.93827000000E+00  0.93827000000E+00 0. -1.
     999902    2    1    2    0    0 -0.56786342555E-02  0.18495742390E-01  0.17147259525E-01  0.10180771881E+01  0.10177488851E+01 0.  0.
     999903    2    3    3    0    0  0.36347167705E-01  0.27383748186E-01 -0.11671466544E+00  0.12691829115E+00  0.20370400894E-01 0.  0.
         14    1    1    2    0    0  0.56786342555E-02 -0.18495742390E-01 -0.17147259525E-01  0.25852811893E-01  0.00000000000E+00 0.  1.
     999901    1    3    3    0    0 -0.42025801960E-01 -0.88880057957E-02  0.13386192497E+00  0.89115889696E+00  0.88000000000E+00 0. -1.
        -11    1    4    4    0    0  0.35246685988E-01  0.21037501946E-01 -0.83078341382E-01  0.92667023741E-01  0.51100000000E-03 0. -1.
         11    1    4    4    0    0  0.11004817163E-02  0.63462462399E-02 -0.33636324062E-01  0.34251267404E-01  0.51100000000E-03 0.  1.
</event>
<event>
 7    1  0.1103774E+005  0.1043930E+01  0.7957747E-01            NaN
         13   -1    0    0    0    0  0.00000000000E+00  0.00000000000E+00  0.74505805969E-08  0.10566000000E+00  0.10566000000E+00 0. -1.
     999900   -1    0    0    0    0 -0.00000000000E+00 -0.00000000000E+00 -0.74505805969E-08  0.93827000000E+00  0.93827000000E+00 0.  1.
     999903    2    1    2    0    0 -0.63940948882E-01  0.59728270961E-01  0.63849502695E-01  0.11022035055E+00  0.20392532584E-01 0.  0.
         14    1    1    2    0    0 -0.37546740342E-01  0.19156597620E-01 -0.12231316640E-02  0.42169052559E-01  0.00000000000E+00 0.  1.
     999901    1    1    2    0    0  0.10148768922E+00 -0.78884868581E-01 -0.62626371031E-01  0.89154059689E+00  0.88000000000E+00 0. -1.
        -11    1    3    3    0    0 -0.44811830997E-01  0.36433588145E-01  0.30683688260E-01  0.65400736912E-01  0.51100000000E-03 0.  1.
         11    1    3    3    0    0 -0.19129117884E-01  0.23294682815E-01  0.33165814435E-01  0.44819613638E-01  0.51100000000E-03 0. -1.
</event>
<event>
 8    1  0.1103774E+005  0.1043930E+01  0.7957747E-01            NaN
         13   -1    0    0    0    0  0.00000000000E+00  0.00000000000E+00  0.74505805969E-08  0.10566000000E+00  0.10566000000E+00 0. -1.
     999900   -1    0    0    0    0 -0.00000000000E+00 -0.00000000000E+00 -0.74505805969E-08  0.93827000000E+00  0.93827000000E+00 0. -1.
     999902    2    1    2    0    0  0.35128314797E-02 -0.19517311328E-01  0.11741298773E-01  0.10208838827E+01  0.10206237203E+01 0.  0.
     999903    2    3    3    0    0 -0.70354322478E-01 -0.76901706431E-01 -0.77389278286E-01  0.13144946408E+00  0.20646018239E-01 0.  0.
         14    1    1    2    0    0 -0.35128314797E-02  0.19517311328E-01 -0.11741298773E-01  0.23046117317E-01  0.00000000000E+00 0. -1.
     999901    1    3    3    0    0  0.73867153957E-01  0.57384395103E-01  0.89130577060E-01  0.88943441861E+00  0.88000000000E+00 0.  1.
        -11    1    4    4    0    0 -0.43908058694E-01 -0.35073260568E-01 -0.34371478055E-01  0.65876481766E-01  0.51100000000E-03 0.  1.
         11    1    4    4    0    0 -0.26446263784E-01 -0.41828445863E-01 -0.43017800231E-01  0.65572982311E-01  0.51100000000E-03 0. -1.
</event>
<event>
 8    1  0.1103774E+005  0.1043930E+01  0.7957747E-01            NaN
         13   -1    0    0    0    0  0.00000000000E+00  0.00000000000E+00  0.74505805969E-08  0.10566000000E+00  0.10566000000E+00 0. -1.
     999900   -1    0    0    0    0 -0.00000000000E+00 -0.00000000000E+00 -0.74505805969E-08  0.93827000000E+00  0.93827000000E+00 0.  1.
     999902    2    1    2    0    0 -0.16186267760E-01  0.17487560752E-01  0.72235316444E-02  0.10190304126E+01  0.10187261616E+01 0.  0.
     999903    2    3    3    0    0  0.11924997051E+00  0.35974997264E-01 -0.21453259952E-01  0.12801575594E+00  0.20323275116E-01 0.  0.
         14    1    1    2    0    0  0.16186267760E-01 -0.17487560752E-01 -0.72235316444E-02  0.24899587436E-01  0.00000000000E+00 0. -1.
     999901    1    3    3    0    0 -0.13543623827E+00 -0.18487436512E-01  0.28676791597E-01  0.89101465663E+00  0.88000000000E+00 0. -1.
        -11    1    4    4    0    0  0.17442588292E-01  0.12456923251E-01 -0.68660437675E-02  0.22512718654E-01  0.51100000000E-03 0.  1.
         11    1    4    4    0    0  0.10180738222E+00  0.23518074013E-01 -0.14587216185E-01  0.10550303728E+00  0.51100000000E-03 0. -1.
</event>
<event>
 8    1  0.1103774E+005  0.1043930E+01  0.7957747E-01            NaN
         13   -1    0    0    0    0  0.00000000000E+00  0.00000000000E+00  0.74505805969E-08  0.10566000000E+00  0.10566000000E+00 0.  1.
     999900   -1    0    0    0    0 -0.00000000000E+00 -0.00000000000E+00 -0.74505805969E-08  0.93827000000E+00  0.93827000000E+00 0. -1.
     999902    2    1    2    0    0 -0.26321701942E-01 -0.11446501020E-02  0.94993594464E-02  0.10159232143E+01  0.10155370979E+01 0.  0.
     999903    2    3    3    0    0  0.10341879805E+00  0.40691397704E-01  0.52118231214E-01  0.12440808795E+00  0.20244127162E-01 0.  0.
         14    1    1    2    0    0  0.26321701942E-01  0.11446501020E-02 -0.94993594464E-02  0.28006785729E-01  0.00000000000E+00 0. -1.
     999901    1    3    3    0    0 -0.12974049999E+00 -0.41836047806E-01 -0.42618871768E-01  0.89151512632E+00  0.88000000000E+00 0.  1.
        -11    1    4    4    0    0  0.51598522035E-01  0.11441632686E-01  0.30939856108E-01  0.61244218108E-01  0.51100000000E-03 0.  1.
         11    1    4    4    0    0  0.51820276015E-01  0.29249765018E-01  0.21178375106E-01  0.63163869839E-01  0.51100000000E-03 0. -1.
</event>
<event>
 8    1  0.1103774E+005  0.1043930E+01  0.7957747E-01            NaN
         13   -1    0    0    0    0  0.00000000000E+00  0.00000000000E+00  0.74505805969E-08  0.10566000000E+00  0.10566000000E+00 0.  1.
     999900   -1    0    0    0    0 -0.00000000000E+00 -0.00000000000E+00 -0.74505805969E-08  0.93827000000E+00  0.93827000000E+00 0. -1.
     999902    2    1    2    0    0 -0.19163337316E-01  0.12166015989E-01  0.52358530101E-02  0.10206349448E+01  0.10203690660E+01 0.  0.
     999903    2    3    3    0    0  0.64504629296E-02 -0.18641952985E-01  0.12808235797E+00  0.13119890912E+00  0.20467839342E-01 0.  0.
         14    1    1    2    0    0  0.19163337316E-01 -0.12166015989E-01 -0.52358530101E-02  0.23295055245E-01  0.00000000000E+00 0. -1.
     999901    1    3    3    0    0 -0.25613800245E-01  0.30807968974E-01 -0.12284650496E+00  0.88943603564E+00  0.88000000000E+00 0. -1.
        -11    1    4    4    0    0 -0.69778537042E-02 -0.97412472337E-02  0.64480039233E-01  0.65585965880E-01  0.51100000000E-03 0.  1.
         11    1    4    4    0    0  0.13428316634E-01 -0.89007057516E-02  0.63602318735E-01  0.65612943235E-01  0.51100000000E-03 0. -1.
</event>
<event>
 8    1  0.1103774E+005  0.1043930E+01  0.7957747E-01            NaN
         13   -1    0    0    0    0  0.00000000000E+00  0.00000000000E+00  0.74505805969E-08  0.10566000000E+00  0.10566000000E+00 0. -1.
     999900   -1    0    0    0    0 -0.00000000000E+00 -0.00000000000E+00 -0.74505805969E-08  0.93827000000E+00  0.93827000000E+00 0.  1.
     999902    2    1    2    0    0 -0.20531356448E-01 -0.71390562366E-02 -0.11104692225E-01  0.10195206389E+01  0.10192283925E+01 0.  0.
     999903    2    3    3    0    0  0.22244306572E-01 -0.92684282070E-01 -0.86796532097E-01  0.13110801084E+00  0.23884873980E-01 0.  0.
         14    1    1    2    0    0  0.20531356448E-01  0.71390562366E-02  0.11104692225E-01  0.24409361134E-01  0.00000000000E+00 0.  1.
     999901    1    3    3    0    0 -0.42775663020E-01  0.85545225834E-01  0.75691839873E-01  0.88841262802E+00  0.88000000000E+00 0. -1.
        -11    1    4    4    0    0  0.35959914848E-02 -0.17017780850E-01 -0.29977664915E-01  0.34662047467E-01  0.51100000000E-03 0.  1.
         11    1    4    4    0    0  0.18648315087E-01 -0.75666501220E-01 -0.56818867182E-01  0.96445963375E-01  0.51100000000E-03 0. -1.
</event>
<event>
 8    1  0.1103774E+005  0.1043930E+01  0.7957747E-01            NaN
         13   -1    0    0    0    0  0.00000000000E+00  0.00000000000E+00  0.74505805969E-08  0.10566000000E+00  0.10566000000E+00 0. -1.
     999900   -1    0    0    0    0 -0.00000000000E+00 -0.00000000000E+00 -0.74505805969E-08  0.93827000000E+00  0.93827000000E+00 0. -1.
     999902    2    1    2    0    0  0.17680058733E-01 -0.10204199486E-01  0.13188420926E-01  0.10196268189E+01  0.10193371401E+01 0.  0.
     999903    2    3    3    0    0  0.58303846368E-02 -0.57942222623E-01 -0.11108699161E+00  0.12953485076E+00  0.32367627486E-01 0.  0.
         14    1    1    2    0    0 -0.17680058733E-01  0.10204199486E-01 -0.13188420926E-01  0.24303181077E-01  0.00000000000E+00 0.  1.
     999901    1    3    3    0    0  0.11849674096E-01  0.47738023137E-01  0.12427541253E+00  0.89009196816E+00  0.88000000000E+00 0.  1.
        -11    1    4    4    0    0 -0.19241294534E-02 -0.34324774476E-01 -0.91924488416E-01  0.98144103789E-01  0.51100000000E-03 0.  1.
         11    1    4    4    0    0  0.77545140902E-02 -0.23617448147E-01 -0.19162503192E-01  0.31390746970E-01  0.51100000000E-03 0. -1.
</event>
<event>
 8    1  0.1103774E+005  0.1043930E+01  0.7957747E-01            NaN
         13   -1    0    0    0    0  0.00000000000E+00  0.00000000000E+00  0.74505805969E-08  0.10566000000E+00  0.10566000000E+00 0.  1.
     999900   -1    0    0    0    0 -0.00000000000E+00 -0.00000000000E+00 -0.74505805969E-08  0.93827000000E+00  0.93827000000E+00 0.  1.
     999902    2    1    2    0    0  0.16123681360E-01  0.13582958967E-01 -0.92721754357E-02  0.10208986494E+01  0.10206388240E+01 0.  0.
     999903    2    3    3    0    0 -0.10300428759E+00 -0.11978169786E-01 -0.75834978527E-01  0.13001400417E+00  0.19983430578E-01 0.  0.
         14    1    1    2    0    0 -0.16123681360E-01 -0.13582958967E-01  0.92721754357E-02  0.23031350638E-01  0.00000000000E+00 0.  1.
     999901    1    3    3    0    0  0.11912796895E+00  0.25561128753E-01  0.66562803091E-01  0.89088464520E+00  0.88000000000E+00 0.  1.
        -11    1    4    4    0    0 -0.42947649478E-01  0.41979249043E-02 -0.35509876789E-01  0.55886810964E-01  0.51100000000E-03 0. -1.
         11    1    4    4    0    0 -0.60056638114E-01 -0.16176094690E-01 -0.40325101738E-01  0.74127193203E-01  0.51100000000E-03 0.  1.
</event>
<event>
 8    1  0.1103774E+005  0.1043930E+01  0.7957747E-01            NaN
         13   -1    0    0    0    0  0.00000000000E+00  0.00000000000E+00  0.74505805969E-08  0.10566000000E+00  0.10566000000E+00 0.  1.
     999900   -1    0    0    0    0 -0.00000000000E+00 -0.00000000000E+00 -0.74505805969E-08  0.93827000000E+00  0.93827000000E+00 0.  1.
     999902    2    1    2    0    0 -0.19462429200E-01  0.13583044715E-01  0.41801252284E-02  0.10198310643E+01  0.10195462918E+01 0.  0.
     999903    2    3    3    0    0  0.85166905268E-01  0.95848972154E-01  0.15493858654E-02  0.12981876034E+00  0.20250499324E-01 0.  0.
         14    1    1    2    0    0  0.19462429200E-01 -0.13583044715E-01 -0.41801252284E-02  0.24098935682E-01  0.00000000000E+00 0.  1.
     999901    1    3    3    0    0 -0.10462933447E+00 -0.82265927440E-01  0.26307393631E-02  0.89001230398E+00  0.88000000000E+00 0. -1.
        -11    1    4    4    0    0  0.26805066158E-01  0.22373770631E-01  0.77864218434E-02  0.35776901348E-01  0.51100000000E-03 0. -1.
         11    1    4    4    0    0  0.58361839110E-01  0.73475201523E-01 -0.62370359781E-02  0.94041858988E-01  0.51100000000E-03 0.  1.
</event>
<event>
 8    1  0.1103774E+005  0.1043930E+01  0.7957747E-01            NaN
         13   -1    0    0    0    0  0.00000000000E+00  0.00000000000E+00  0.74505805969E-08  0.10566000000E+00  0.10566000000E+00 0.  1.
     999900   -1    0    0    0    0 -0.00000000000E+00 -0.00000000000E+00 -0.74505805969E-08  0.93827000000E+00  0.93827000000E+00 0.  1.
     999902    2    1    2    0    0  0.37387026494E-02 -0.21367141629E-01 -0.10045834272E-01  0.10200249498E+01  0.10197447949E+01 0.  0.
     999903    2    3    3    0    0  0.12508329096E+00  0.27358746996E-01  0.13143285758E-01  0.13006064904E+00  0.18673396964E-01 0.  0.
         14    1    1    2    0    0 -0.37387026494E-02  0.21367141629E-01  0.10045834272E-01  0.23905050201E-01  0.00000000000E+00 0. -1.
     999901    1    3    3    0    0 -0.12134458831E+00 -0.48725888625E-01 -0.23189120030E-01  0.88996430076E+00  0.88000000000E+00 0.  1.
        -11    1    4    4    0    0  0.51440700700E-01  0.49315839676E-02  0.12068680183E-01  0.53069580470E-01  0.51100000000E-03 0. -1.
         11    1    4    4    0    0  0.73642590259E-01  0.22427163028E-01  0.10746055752E-02  0.76991068571E-01  0.51100000000E-03 0.  1.
</event>
<event>
 7    1  0.1103774E+005  0.1043930E+01  0.7957747E-01            NaN
         13   -1    0    0    0    0  0.00000000000E+00  0.00000000000E+00  0.74505805969E-08  0.10566000000E+00  0.10566000000E+00 0. -1.
     999900   -1    0    0    0    0 -0.00000000000E+00 -0.00000000000E+00 -0.74505805969E-08  0.93827000000E+00  0.93827000000E+00 0.  1.
     999903    2    1    2    0    0 -0.13939089366E-01  0.17704509956E-01 -0.65242895510E-01  0.71878372384E-01  0.20052858076E-01 0.  0.
         14    1    1    2    0    0  0.78004708309E-01 -0.25518887431E-01 -0.23140195679E-01  0.85272602811E-01  0.00000000000E+00 0. -1.
     999901    1    1    2    0    0 -0.64065618943E-01  0.78143774750E-02  0.88383091188E-01  0.88677902480E+00  0.88000000000E+00 0. -1.
        -11    1    3    3    0    0 -0.16153138215E-01  0.20727091047E-01 -0.58818682294E-01  0.64423867357E-01  0.51100000000E-03 0.  1.
         11    1    3    3    0    0  0.22140488490E-02 -0.30225810912E-02 -0.64242132160E-02  0.74545050274E-02  0.51100000000E-03 0. -1.
</event>
<event>
 8    1  0.1103774E+005  0.1043930E+01  0.7957747E-01            NaN
         13   -1    0    0    0    0  0.00000000000E+00  0.00000000000E+00  0.74505805969E-08  0.10566000000E+00  0.10566000000E+00 0. -1.
     999900   -1    0    0    0    0 -0.00000000000E+00 -0.00000000000E+00 -0.74505805969E-08  0.93827000000E+00  0.93827000000E+00 0. -1.
     999902    2    1    2    0    0 -0.87149032473E-02 -0.19949175414E-01  0.10717187710E-01  0.10196652673E+01  0.10193765154E+01 0.  0.
     999903    2    3    3    0    0  0.80722549476E-01  0.72521033648E-01 -0.63181100024E-01  0.12724678119E+00  0.20602466031E-01 0.  0.
         14    1    1    2    0    0  0.87149032473E-02  0.19949175414E-01 -0.10717187710E-01  0.24264732653E-01  0.00000000000E+00 0.  1.
     999901    1    3    3    0    0 -0.89437452723E-01 -0.92470209061E-01  0.73898287734E-01  0.89241848616E+00  0.88000000000E+00 0.  1.
        -11    1    4    4    0    0  0.28056832322E-01  0.29943558662E-01 -0.34832826762E-01  0.53827404605E-01  0.51100000000E-03 0.  1.
         11    1    4    4    0    0  0.52665717154E-01  0.42577474986E-01 -0.28348273262E-01  0.73419376580E-01  0.51100000000E-03 0. -1.
</event>
<event>
 8    1  0.1103774E+005  0.1043930E+01  0.7957747E-01            NaN
         13   -1    0    0    0    0  0.00000000000E+00  0.00000000000E+00  0.74505805969E-08  0.10566000000E+00  0.10566000000E+00 0.  1.
     999900   -1    0    0    0    0 -0.00000000000E+00 -0.00000000000E+00 -0.74505805969E-08  0.93827000000E+00  0.93827000000E+00 0. -1.
     999902    2    1    2    0    0 -0.91370268661E-02 -0.68218706821E-02 -0.21211005743E-01  0.10198482653E+01  0.10195639040E+01 0.  0.
     999903    2    3    3    0    0 -0.22503823766E-01 -0.55774971616E-01  0.11179545536E+00  0.12840797231E+00  0.19316158288E-01 0.  0.
         14    1    1    2    0    0  0.91370268661E-02  0.68218706821E-02  0.21211005743E-01  0.24081734659E-01  0.00000000000E+00 0.  1.
     999901    1    3    3    0    0  0.13366796900E-01  0.48953100934E-01 -0.13300646110E+00  0.89144029303E+00  0.88000000000E+00 0. -1.
        -11    1    4    4    0    0 -0.10048877848E-01 -0.29781430854E-01  0.77332679806E-01  0.83477650042E-01  0.51100000000E-03 0.  1.
         11    1    4    4    0    0 -0.12454945919E-01 -0.25993540763E-01  0.34462775550E-01  0.44930322265E-01  0.51100000000E-03 0. -1.
</event>
<event>
 8    1  0.1103774E+005  0.1043930E+01  0.7957747E-01            NaN
         13   -1    0    0    0    0  0.00000000000E+00  0.00000000000E+00  0.74505805969E-08  0.10566000000E+00  0.10566000000E+00 0. -1.
     999900   -1    0    0    0    0 -0.00000000000E+00 -0.00000000000E+00 -0.74505805969E-08  0.93827000000E+00  0.93827000000E+00 0.  1.
     999902    2    1    2    0    0  0.12059198415E-01 -0.11860127551E-01 -0.16672265399E-01  0.10201802353E+01  0.10199037509E+01 0.  0.
     999903    2    3    3    0    0  0.12274353244E-01  0.10080334498E+00  0.75653188658E-01  0.12820652836E+00  0.20038334585E-01 0.  0.
         14    1    1    2    0    0 -0.12059198415E-01  0.11860127551E-01  0.16672265399E-01  0.23749764745E-01  0.00000000000E+00 0. -1.
     999901    1    3    3    0    0 -0.21515482996E-03 -0.11266347253E+00 -0.92325454057E-01  0.89197370690E+00  0.88000000000E+00 0.  1.
        -11    1    4    4    0    0  0.15459102932E-01  0.58318557920E-01  0.50854840760E-01  0.78908263262E-01  0.51100000000E-03 0.  1.
         11    1    4    4    0    0 -0.31847496873E-02  0.42484787056E-01  0.24798347899E-01  0.49298265094E-01  0.51100000000E-03 0. -1.
</event>
<event>
 8    1  0.1103774E+005  0.1043930E+01  0.7957747E-01            NaN
         13   -1    0    0    0    0  0.00000000000E+00  0.00000000000E+00  0.74505805969E-08  0.10566000000E+00  0.10566000000E+00 0.  1.
     999900   -1    0    0    0    0 -0.00000000000E+00 -0.00000000000E+00 -0.74505805969E-08  0.93827000000E+00  0.93827000000E+00 0. -1.
     999902    2    1    2    0    0  0.11265966830E-01  0.71923354512E-02 -0.19491430947E-01  0.10202959657E+01  0.10200222007E+01 0.  0.
     999903    2    3    3    0    0  0.51180038971E-02 -0.10933083166E+00 -0.69665876321E-01  0.13117678307E+00  0.19354311570E-01 0.  0.
         14    1    1    2    0    0 -0.11265966830E-01 -0.71923354512E-02  0.19491430947E-01  0.23634034319E-01  0.00000000000E+00 0.  1.
     999901    1    3    3    0    0  0.61479629328E-02  0.11652316711E+00  0.50174445375E-01  0.88911918261E+00  0.88000000000E+00 0.  1.
        -11    1    4    4    0    0  0.37511708678E-02 -0.87538133287E-01 -0.45957581071E-01  0.98941176672E-01  0.51100000000E-03 0. -1.
         11    1    4    4    0    0  0.13668330292E-02 -0.21792698375E-01 -0.23708295250E-01  0.32235606395E-01  0.51100000000E-03 0.  1.
</event>
<event>
 8    1  0.1103774E+005  0.1043930E+01  0.7957747E-01            NaN
         13   -1    0    0    0    0  0.00000000000E+00  0.00000000000E+00  0.74505805969E-08  0.10566000000E+00  0.10566000000E+00 0. -1.
     999900   -1    0    0    0    0 -0.00000000000E+00 -0.00000000000E+00 -0.74505805969E-08  0.93827000000E+00  0.93827000000E+00 0. -1.
     999902    2    1    2    0    0 -0.21961721319E-01 -0.44730299548E-02  0.79697849083E-02  0.10201425522E+01  0.10198651794E+01 0.  0.
     999903    2    3    3    0    0 -0.11348346328E+00 -0.12447372663E-01  0.66612056135E-01  0.13341895641E+00  0.18166408072E-01 0.  0.
         14    1    1    2    0    0  0.21961721319E-01  0.44730299548E-02 -0.79697849083E-02  0.23787447777E-01  0.00000000000E+00 0.  1.
     999901    1    3    3    0    0  0.91521741965E-01  0.79743427080E-02 -0.58642271227E-01  0.88672359581E+00  0.88000000000E+00 0. -1.
        -11    1    4    4    0    0 -0.56735333710E-01 -0.10158662319E-01  0.42988914600E-01  0.71905524202E-01  0.51100000000E-03 0. -1.
         11    1    4    4    0    0 -0.56748129574E-01 -0.22887103437E-02  0.23623141535E-01  0.61513432209E-01  0.51100000000E-03 0.  1.
</event>
<event>
 8    1  0.1103774E+005  0.1043930E+01  0.7957747E-01            NaN
         13   -1    0    0    0    0  0.00000000000E+00  0.00000000000E+00  0.74505805969E-08  0.10566000000E+00  0.10566000000E+00 0. -1.
     999900   -1    0    0    0    0 -0.00000000000E+00 -0.00000000000E+00 -0.74505805969E-08  0.93827000000E+00  0.93827000000E+00 0. -1.
     999902    2    1    2    0    0  0.21889686995E-01 -0.91617382758E-02 -0.43467091237E-03  0.10201963786E+01  0.10199202744E+01 0.  0.
     999903    2    3    3    0    0  0.73255731164E-01  0.75522550211E-01  0.76035187523E-01  0.13134456957E+00  0.19999711852E-01 0.  0.
         14    1    1    2    0    0 -0.21889686995E-01  0.91617382758E-02  0.43467091237E-03  0.23733621380E-01  0.00000000000E+00 0.  1.
     999901    1    3    3    0    0 -0.51366044168E-01 -0.84684288486E-01 -0.76469858435E-01  0.88885180905E+00  0.88000000000E+00 0. -1.
        -11    1    4    4    0    0  0.63753367051E-01  0.61702220282E-01  0.54811808466E-01  0.10428926726E+00  0.51100000000E-03 0. -1.
         11    1    4    4    0    0  0.95023641124E-02  0.13820329929E-01  0.21223379057E-01  0.27055302302E-01  0.51100000000E-03 0.  1.
</event>
<event>
 8    1  0.1103774E+005  0.1043930E+01  0.7957747E-01            NaN
         13   -1    0    0    0    0  0.00000000000E+00  0.00000000000E+00  0.74505805969E-08  0.10566000000E+00  0.10566000000E+00 0. -1.
     999900   -1    0    0    0    0 -0.00000000000E+00 -0.00000000000E+00 -0.74505805969E-08  0.93827000000E+00  0.93827000000E+00 0. -1.
     999902    2    1    2    0    0 -0.15035316262E-01 -0.16470739102E-01 -0.93350953263E-02  0.10197537723E+01  0.10194671481E+01 0.  0.
     999903    2    3    3    0    0  0.31942896604E-03 -0.12468470858E+00 -0.40360114968E-01  0.13244966251E+00  0.19172783533E-01 0.  0.
         14    1    1    2    0    0  0.15035316262E-01  0.16470739102E-01  0.93350953263E-02  0.24176227713E-01  0.00000000000E+00 0. -1.
     999901    1    3    3    0    0 -0.15354745228E-01  0.10821396948E+00  0.31025019641E-01  0.88730410978E+00  0.88000000000E+00 0. -1.
        -11    1    4    4    0    0  0.59203438322E-02 -0.38937802126E-01 -0.57310871931E-02  0.39803384114E-01  0.51100000000E-03 0.  1.
         11    1    4    4    0    0 -0.56009148662E-02 -0.85746906457E-01 -0.34629027775E-01  0.92646278392E-01  0.51100000000E-03 0. -1.
</event>
<event>
 8    1  0.1103774E+005  0.1043930E+01  0.7957747E-01            NaN
         13   -1    0    0    0    0  0.00000000000E+00  0.00000000000E+00  0.74505805969E-08  0.10566000000E+00  0.10566000000E+00 0.  1.
     999900   -1    0    0    0    0 -0.00000000000E+00 -0.00000000000E+00 -0.74505805969E-08  0.93827000000E+00  0.93827000000E+00 0. -1.
     999902    2    1    2    0    0  0.64865799205E-02  0.20860531371E-01 -0.85757544208E-02  0.10204612750E+01  0.10201913707E+01 0.  0.
     999903    2    3    3    0    0 -0.17255131357E-02 -0.11300538957E+00 -0.60754286256E-01  0.12877179855E+00  0.10858054020E-01 0.  0.
         14    1    1    2    0    0 -0.64865799205E-02 -0.20860531371E-01  0.85757544208E-02  0.23468724977E-01  0.00000000000E+00 0.  1.
     999901    1    3    3    0    0  0.82120930562E-02  0.13386592094E+00  0.52178531835E-01  0.89168947647E+00  0.88000000000E+00 0.  1.
        -11    1    4    4    0    0  0.33766129762E-02 -0.28906601134E-01 -0.18781124093E-01  0.34640797443E-01  0.51100000000E-03 0. -1.
         11    1    4    4    0    0 -0.51021261120E-02 -0.84098788436E-01 -0.41973162162E-01  0.94131001111E-01  0.51100000000E-03 0.  1.
</event>
<event>
 8    1  0.1103774E+005  0.1043930E+01  0.7957747E-01            NaN
         13   -1    0    0    0    0  0.00000000000E+00  0.00000000000E+00  0.74505805969E-08  0.10566000000E+00  0.10566000000E+00 0.  1.
     999900   -1    0    0    0    0 -0.00000000000E+00 -0.00000000000E+00 -0.74505805969E-08  0.93827000000E+00  0.93827000000E+00 0. -1.
     999902    2    1    2    0    0 -0.77438543066E-02  0.10916757054E-01  0.19641586185E-01  0.10201616435E+01  0.10198847210E+01 0.  0.
     999903    2    3    3    0    0 -0.80756173232E-01 -0.16659670539E-01  0.10233754745E+00  0.13284553290E+00  0.19387053845E-01 0.  0.
         14    1    1    2    0    0  0.77438543066E-02 -0.10916757054E-01 -0.19641586185E-01  0.23768356526E-01  0.00000000000E+00 0. -1.
     999901    1    3    3    0    0  0.73012318925E-01  0.27576427593E-01 -0.82695961262E-01  0.88731611057E+00  0.88000000000E+00 0. -1.
        -11    1    4    4    0    0 -0.58130665545E-01 -0.16369953771E-01  0.85304198419E-01  0.10451897939E+00  0.51100000000E-03 0. -1.
         11    1    4    4    0    0 -0.22625507687E-01 -0.28971676838E-03  0.17033349028E-01  0.28326553514E-01  0.51100000000E-03 0.  1.
</event>
<event>
 8    1  0.1103774E+005  0.1043930E+01  0.7957747E-01            NaN
         13   -1    0    0    0    0  0.00000000000E+00  0.00000000000E+00  0.74505805969E-08  0.10566000000E+00  0.10566000000E+00 0.  1.
     999900   -1    0    0    0    0 -0.00000000000E+00 -0.00000000000E+00 -0.74505805969E-08  0.93827000000E+00  0.93827000000E+00 0.  1.
     999902    2    1    2    0    0 -0.72990395005E-02 -0.56702054297E-02  0.20081347353E-01  0.10218237177E+01  0.10215845644E+01 0.  0.
     999903    2    3    3    0    0 -0.11174743472E+00 -0.69599343313E-01  0.37175114030E-02  0.13319321118E+00  0.19875961792E-01 0.  0.
         14    1    1    2    0    0  0.72990395005E-02  0.56702054297E-02 -0.20081347353E-01  0.22106282337E-01  0.00000000000E+00 0.  1.
     999901    1    3    3    0    0  0.10444839521E+00  0.63929137883E-01  0.16363835950E-01  0.88863050649E+00  0.88000000000E+00 0. -1.
        -11    1    4    4    0    0 -0.60389243599E-01 -0.30933547495E-01  0.10053469558E-01  0.68593574584E-01  0.51100000000E-03 0. -1.
         11    1    4    4    0    0 -0.51358191116E-01 -0.38665795818E-01 -0.63359581550E-02  0.64599636591E-01  0.51100000000E-03 0.  1.
</event>
<event>
 8    1  0.1103774E+005  0.1043930E+01  0.7957747E-01            NaN
         13   -1    0    0    0    0  0.00000000000E+00  0.00000000000E+00  0.74505805969E-08  0.10566000000E+00  0.10566000000E+00 0. -1.
     999900   -1    0    0    0    0 -0.00000000000E+00 -0.00000000000E+00 -0.74505805969E-08  0.93827000000E+00  0.93827000000E+00 0.  1.
     999902    2    1    2    0    0 -0.13177593888E-01 -0.20077206449E-01  0.10969624456E-02  0.10198894816E+01  0.10196061044E+01 0.  0.
     999903    2    3    3    0    0  0.86765848207E-01  0.19503857386E-01  0.91086772875E-01  0.12879267527E+00  0.19545847177E-01 0.  0.
         14    1    1    2    0    0  0.13177593888E-01  0.20077206449E-01 -0.10969624456E-02  0.24040518424E-01  0.00000000000E+00 0. -1.
     999901    1    3    3    0    0 -0.99943442095E-01 -0.39581063835E-01 -0.89989810429E-01  0.89109680631E+00  0.88000000000E+00 0.  1.
        -11    1    4    4    0    0  0.46227030413E-01  0.16519298305E-01  0.38870672428E-01  0.62618015405E-01  0.51100000000E-03 0.  1.
         11    1    4    4    0    0  0.40538817794E-01  0.29845590811E-02  0.52216100447E-01  0.66174659863E-01  0.51100000000E-03 0. -1.
</event>
<event>
 8    1  0.1103774E+005  0.1043930E+01  0.7957747E-01            NaN
         13   -1    0    0    0    0  0.00000000000E+00  0.00000000000E+00  0.74505805969E-08  0.10566000000E+00  0.10566000000E+00 0. -1.
     999900   -1    0    0    0    0 -0.00000000000E+00 -0.00000000000E+00 -0.74505805969E-08  0.93827000000E+00  0.93827000000E+00 0. -1.
     999902    2    1    2    0    0 -0.87241396023E-02  0.22532473305E-01 -0.94794338062E-02  0.10179746031E+01  0.10176436556E+01 0.  0.
     999903    2    3    3    0    0  0.12418464497E+00 -0.10223674272E-01  0.15226059279E-01  0.12704920124E+00  0.19578485441E-01 0.  0.
         14    1    1    2    0    0  0.87241396023E-02 -0.22532473305E-01  0.94794338062E-02  0.25955396940E-01  0.00000000000E+00 0. -1.
     999901    1    3    3    0    0 -0.13290878457E+00  0.32756147577E-01 -0.24705493086E-01  0.89092540182E+00  0.88000000000E+00 0. -1.
        -11    1    4    4    0    0  0.10405103576E+00 -0.45842658333E-02  0.18785368656E-01  0.10583375989E+00  0.51100000000E-03 0. -1.
         11    1    4    4    0    0  0.20133609212E-01 -0.56394084388E-02 -0.35593093764E-02  0.21215441350E-01  0.51100000000E-03 0.  1.
</event>
<event>
 8    1  0.1103774E+005  0.1043930E+01  0.7957747E-01            NaN
         13   -1    0    0    0    0  0.00000000000E+00  0.00000000000E+00  0.74505805969E-08  0.10566000000E+00  0.10566000000E+00 0. -1.
     999900   -1    0    0    0    0 -0.00000000000E+00 -0.00000000000E+00 -0.74505805969E-08  0.93827000000E+00  0.93827000000E+00 0. -1.
     999902    2    1    2    0    0  0.20644305370E-01 -0.10927786059E-01 -0.25651544803E-03  0.10205704270E+01  0.10203030563E+01 0.  0.
     999903    2    3    3    0    0 -0.12327330561E+00 -0.17998404474E-01  0.25366145555E-01  0.12848366372E+00  0.18556941074E-01 0.  0.
         14    1    1    2    0    0 -0.20644305370E-01  0.10927786059E-01  0.25651544803E-03  0.23359573039E-01  0.00000000000E+00 0.  1.
     999901    1    3    3    0    0  0.14391761098E+00  0.70706184153E-02 -0.25622661003E-01  0.89208676324E+00  0.88000000000E+00 0. -1.
        -11    1    4    4    0    0 -0.40728078069E-01 -0.62043832977E-02 -0.41755863568E-03  0.41203230353E-01  0.51100000000E-03 0.  1.
         11    1    4    4    0    0 -0.82545227544E-01 -0.11794021176E-01  0.25783704191E-01  0.87280433366E-01  0.51100000000E-03 0. -1.
</event>
<event>
 8    1  0.1103774E+005  0.1043930E+01  0.7957747E-01            NaN
         13   -1    0    0    0    0  0.00000000000E+00  0.00000000000E+00  0.74505805969E-08  0.10566000000E+00  0.10566000000E+00 0. -1.
     999900   -1    0    0    0    0 -0.00000000000E+00 -0.00000000000E+00 -0.74505805969E-08  0.93827000000E+00  0.93827000000E+00 0. -1.
     999902    2    1    2    0    0  0.89054776711E-02 -0.23372677488E-02  0.21717235573E-01  0.10203416835E+01  0.10200689891E+01 0.  0.
     999903    2    3    3    0    0  0.12368150000E-01 -0.12825794637E+00 -0.10586339587E-01  0.13078475540E+00  0.19736000598E-01 0.  0.
         14    1    1    2    0    0 -0.89054776711E-02  0.23372677488E-02 -0.21717235573E-01  0.23588316472E-01  0.00000000000E+00 0.  1.
     999901    1    3    3    0    0 -0.34626723290E-02  0.12592067862E+00  0.32303575160E-01  0.88955692812E+00  0.88000000000E+00 0.  1.
        -11    1    4    4    0    0  0.16013169926E-01 -0.86312730662E-01 -0.12294043883E-01  0.88643746093E-01  0.51100000000E-03 0.  1.
         11    1    4    4    0    0 -0.36450199261E-02 -0.41945215705E-01  0.17077042962E-02  0.42141009312E-01  0.51100000000E-03 0. -1.
</event>
<event>
 8    1  0.1103774E+005  0.1043930E+01  0.7957747E-01            NaN
         13   -1    0    0    0    0  0.00000000000E+00  0.00000000000E+00  0.74505805969E-08  0.10566000000E+00  0.10566000000E+00 0.  1.
     999900   -1    0    0    0    0 -0.00000000000E+00 -0.00000000000E+00 -0.74505805969E-08  0.93827000000E+00  0.93827000000E+00 0.  1.
     999902    2    1    2    0    0 -0.11135156916E-01 -0.19058501375E-01 -0.74595201707E-02  0.10206305872E+01  0.10203646079E+01 0.  0.
     999903    2    3    3    0    0  0.53204710096E-01  0.96550024333E-01  0.61978439172E-01  0.12803516942E+00  0.19975718025E-01 0.  0.
         14    1    1    2    0    0  0.11135156916E-01  0.19058501375E-01  0.74595201707E-02  0.23299412769E-01  0.00000000000E+00 0. -1.
     999901    1    3    3    0    0 -0.64339867012E-01 -0.11560852571E+00 -0.69437959343E-01  0.89259541781E+00  0.88000000000E+00 0.  1.
        -11    1    4    4    0    0  0.80778341712E-02  0.58449624709E-02  0.10144544852E-01  0.14233337713E-01  0.51100000000E-03 0.  1.
         11    1    4    4    0    0  0.45126875925E-01  0.90705061862E-01  0.51833894319E-01  0.11380183171E+00  0.51100000000E-03 0. -1.
</event>
<event>
 8    1  0.1103774E+005  0.1043930E+01  0.7957747E-01            NaN
         13   -1    0    0    0    0  0.00000000000E+00  0.00000000000E+00  0.74505805969E-08  0.10566000000E+00  0.10566000000E+00 0. -1.
     999900   -1    0    0    0    0 -0.00000000000E+00 -0.00000000000E+00 -0.74505805969E-08  0.93827000000E+00  0.93827000000E+00 0. -1.
     999902    2    1    2    0    0  0.14621365030E-01  0.95985687312E-03  0.20973527537E-01  0.10183449556E+01  0.10180235037E+01 0.  0.
     999903    2    3    3    0    0 -0.26566366983E-01  0.88342198551E-01  0.90203348274E-01  0.13035572649E+00  0.18597190353E-01 0.  0.
         14    1    1    2    0    0 -0.14621365030E-01 -0.95985687312E-03 -0.20973527537E-01  0.25585044419E-01  0.00000000000E+00 0.  1.
     999901    1    3    3    0    0  0.41187732014E-01 -0.87382341678E-01 -0.69229820737E-01  0.88798922909E+00  0.88000000000E+00 0. -1.
        -11    1    4    4    0    0 -0.69815089300E-02  0.33555704229E-01  0.45576361917E-01  0.57027998736E-01  0.51100000000E-03 0. -1.
         11    1    4    4    0    0 -0.19584858053E-01  0.54786494322E-01  0.44626986357E-01  0.73327727753E-01  0.51100000000E-03 0.  1.
</event>
<event>
 8    1  0.1103774E+005  0.1043930E+01  0.7957747E-01            NaN
         13   -1    0    0    0    0  0.00000000000E+00  0.00000000000E+00  0.74505805969E-08  0.10566000000E+00  0.10566000000E+00 0. -1.
     999900   -1    0    0    0    0 -0.00000000000E+00 -0.00000000000E+00 -0.74505805969E-08  0.93827000000E+00  0.93827000000E+00 0. -1.
     999902    2    1    2    0    0 -0.51038609431E-02  0.11633019868E-01  0.21241215566E-01  0.10191799336E+01  0.10188793703E+01 0.  0.
     999903    2    3    3    0    0 -0.94379547092E-01  0.42323770632E-01 -0.74666093179E-01  0.12894946783E+00  0.18818589584E-01 0.  0.
         14    1    1    2    0    0  0.51038609431E-02 -0.11633019868E-01 -0.21241215566E-01  0.24750066394E-01  0.00000000000E+00 0.  1.
     999901    1    3    3    0    0  0.89275686149E-01 -0.30690750764E-01  0.95907308745E-01  0.89023046577E+00  0.88000000000E+00 0.  1.
        -11    1    4    4    0    0 -0.26495791974E-01  0.20477069114E-01 -0.28693844101E-01  0.44101419049E-01  0.51100000000E-03 0. -1.
         11    1    4    4    0    0 -0.67883755118E-01  0.21846701518E-01 -0.45972249078E-01  0.84848048784E-01  0.51100000000E-03 0.  1.
</event>
<event>
 8    1  0.1103774E+005  0.1043930E+01  0.7957747E-01            NaN
         13   -1    0    0    0    0  0.00000000000E+00  0.00000000000E+00  0.74505805969E-08  0.10566000000E+00  0.10566000000E+00 0.  1.
     999900   -1    0    0    0    0 -0.00000000000E+00 -0.00000000000E+00 -0.74505805969E-08  0.93827000000E+00  0.93827000000E+00 0. -1.
     999902    2    1    2    0    0 -0.12603865970E-01  0.14720445126E-01  0.12228497162E-01  0.10210152649E+01  0.10207580938E+01 0.  0.
     999903    2    3    3    0    0  0.29964289666E-01  0.95758863145E-01  0.85725144035E-01  0.13321966332E+00  0.18195050149E-01 0.  0.
         14    1    1    2    0    0  0.12603865970E-01 -0.14720445126E-01 -0.12228497162E-01  0.22914735105E-01  0.00000000000E+00 0. -1.
     999901    1    3    3    0    0 -0.42568155636E-01 -0.81038418020E-01 -0.73496646873E-01  0.88779560157E+00  0.88000000000E+00 0. -1.
        -11    1    4    4    0    0  0.93274068195E-02  0.42906375129E-01  0.48143978873E-01  0.65161809117E-01  0.51100000000E-03 0.  1.
         11    1    4    4    0    0  0.20636882847E-01  0.52852488016E-01  0.37581165162E-01  0.68057854206E-01  0.51100000000E-03 0. -1.
</event>
<event>
 8    1  0.1103774E+005  0.1043930E+01  0.7957747E-01            NaN
         13   -1    0    0    0    0  0.00000000000E+00  0.00000000000E+00  0.74505805969E-08  0.10566000000E+00  0.10566000000E+00 0. -1.
     999900   -1    0    0    0    0 -0.00000000000E+00 -0.00000000000E+00 -0.74505805969E-08  0.93827000000E+00  0.93827000000E+00 0. -1.
     999902    2    1    2    0    0 -0.89840425566E-03 -0.22520446860E-01  0.60142941894E-02  0.10206029901E+01  0.10203363730E+01 0.  0.
     999903    2    3    3    0    0 -0.68582795858E-01 -0.93202545144E-01  0.63237465049E-01  0.13333097589E+00  0.19694106676E-01 0.  0.
         14    1    1    2    0    0  0.89840425566E-03  0.22520446860E-01 -0.60142941894E-02  0.23327009915E-01  0.00000000000E+00 0.  1.
     999901    1    3    3    0    0  0.67684391602E-01  0.70682098284E-01 -0.57223170859E-01  0.88727201419E+00  0.88000000000E+00 0.  1.
        -11    1    4    4    0    0 -0.47251404462E-01 -0.52390761163E-01  0.30699172728E-01  0.76942754084E-01  0.51100000000E-03 0.  1.
         11    1    4    4    0    0 -0.21331391396E-01 -0.40811783981E-01  0.32538292321E-01  0.56388221809E-01  0.51100000000E-03 0. -1.
</event>
<event>
 8    1  0.1103774E+005  0.1043930E+01  0.7957747E-01            NaN
         13   -1    0    0    0    0  0.00000000000E+00  0.00000000000E+00  0.74505805969E-08  0.10566000000E+00  0.10566000000E+00 0. -1.
     999900   -1    0    0    0    0 -0.00000000000E+00 -0.00000000000E+00 -0.74505805969E-08  0.93827000000E+00  0.93827000000E+00 0.  1.
     999902    2    1    2    0    0  0.17096893361E-01 -0.12011604480E-01  0.69813738329E-02  0.10218999754E+01  0.10216624872E+01 0.  0.
     999903    2    3    3    0    0 -0.28402540941E-02  0.26792155291E-01 -0.12643130032E+00  0.13077587444E+00  0.19788102690E-01 0.  0.
         14    1    1    2    0    0 -0.17096893361E-01  0.12011604480E-01 -0.69813738329E-02  0.22030024634E-01  0.00000000000E+00 0.  1.
     999901    1    3    3    0    0  0.19937147455E-01 -0.38803759771E-01  0.13341267415E+00  0.89112410092E+00  0.88000000000E+00 0. -1.
        -11    1    4    4    0    0  0.40778889963E-02  0.18775111715E-02 -0.47525903078E-01  0.47740201207E-01  0.51100000000E-03 0. -1.
         11    1    4    4    0    0 -0.69181430904E-02  0.24914644119E-01 -0.78905397239E-01  0.83035673237E-01  0.51100000000E-03 0.  1.
</event>
<event>
 8    1  0.1103774E+005  0.1043930E+01  0.7957747E-01            NaN
         13   -1    0    0    0    0  0.00000000000E+00  0.00000000000E+00  0.74505805969E-08  0.10566000000E+00  0.10566000000E+00 0.  1.
     999900   -1    0    0    0    0 -0.00000000000E+00 -0.00000000000E+00 -0.74505805969E-08  0.93827000000E+00  0.93827000000E+00 0.  1.
     999902    2    1    2    0    0 -0.17466077925E-01 -0.14277690113E-01  0.77187305233E-02  0.10200868644E+01  0.10198081760E+01 0.  0.
     999903    2    3    3    0    0  0.84677975166E-01  0.83835948755E-01  0.42289912794E-01  0.12809198756E+00  0.20501091954E-01 0.  0.
         14    1    1    2    0    0  0.17466077925E-01  0.14277690113E-01 -0.77187305233E-02  0.23843135572E-01  0.00000000000E+00 0. -1.
     999901    1    3    3    0    0 -0.10214405309E+00 -0.98113638868E-01 -0.34571182270E-01  0.89199487687E+00  0.88000000000E+00 0. -1.
        -11    1    4    4    0    0  0.33279789244E-01  0.46553415409E-01  0.23572577200E-01  0.61892587401E-01  0.51100000000E-03 0.  1.
         11    1    4    4    0    0  0.51398185922E-01  0.37282533346E-01  0.18717335594E-01  0.66199400159E-01  0.51100000000E-03 0. -1.
</event>
<event>
 8    1  0.1103774E+005  0.1043930E+01  0.7957747E-01            NaN
         13   -1    0    0    0    0  0.00000000000E+00  0.00000000000E+00  0.74505805969E-08  0.10566000000E+00  0.10566000000E+00 0. -1.
     999900   -1    0    0    0    0 -0.00000000000E+00 -0.00000000000E+00 -0.74505805969E-08  0.93827000000E+00  0.93827000000E+00 0. -1.
     999902    2    1    2    0    0 -0.15099667037E-01 -0.15415491857E-01 -0.90335549640E-02  0.10205367863E+01  0.10202686360E+01 0.  0.
     999903    2    3    3    0    0 -0.13294822340E-02  0.10916469465E+00 -0.67422224659E-01  0.12973990840E+00  0.19183049071E-01 0.  0.
         14    1    1    2    0    0  0.15099667037E-01  0.15415491857E-01  0.90335549640E-02  0.23393213741E-01  0.00000000000E+00 0. -1.
     999901    1    3    3    0    0 -0.13770184803E-01 -0.12458018651E+00  0.58388669695E-01  0.89079687786E+00  0.88000000000E+00 0. -1.
        -11    1    4    4    0    0  0.16681771440E-02  0.24995581536E-01 -0.67856129387E-02  0.25958959441E-01  0.51100000000E-03 0.  1.
         11    1    4    4    0    0 -0.29976593780E-02  0.84169113116E-01 -0.60636611720E-01  0.10378094896E+00  0.51100000000E-03 0. -1.
</event>
<event>
 8    1  0.1103774E+005  0.1043930E+01  0.7957747E-01            NaN
         13   -1    0    0    0    0  0.00000000000E+00  0.00000000000E+00  0.74505805969E-08  0.10566000000E+00  0.10566000000E+00 0.  1.
     999900   -1    0    0    0    0 -0.00000000000E+00 -0.00000000000E+00 -0.74505805969E-08  0.93827000000E+00  0.93827000000E+00 0.  1.
     999902    2    1    2    0    0  0.32749790408E-02 -0.58130579390E-02  0.22610325267E-01  0.10203557781E+01  0.10200834132E+01 0.  0.
     999903    2    3    3    0    0 -0.60713937647E-01  0.11270904828E+00  0.11057521420E-01  0.13003250062E+00  0.19916592299E-01 0.  0.
         14    1    1    2    0    0 -0.32749790408E-02  0.58130579390E-02 -0.22610325267E-01  0.23574221917E-01  0.00000000000E+00 0. -1.
     999901    1    3    3    0    0  0.63988916688E-01 -0.11852210622E+00  0.11552803847E-01  0.89032327747E+00  0.88000000000E+00 0. -1.
        -11    1    4    4    0    0 -0.17081016914E-01  0.43610422668E-01 -0.37095228672E-02  0.46985655098E-01  0.51100000000E-03 0.  1.
         11    1    4    4    0    0 -0.43632920733E-01  0.69098625609E-01  0.14767044287E-01  0.83046845519E-01  0.51100000000E-03 0. -1.
</event>
<event>
 8    1  0.1103774E+005  0.1043930E+01  0.7957747E-01            NaN
         13   -1    0    0    0    0  0.00000000000E+00  0.00000000000E+00  0.74505805969E-08  0.10566000000E+00  0.10566000000E+00 0. -1.
     999900   -1    0    0    0    0 -0.00000000000E+00 -0.00000000000E+00 -0.74505805969E-08  0.93827000000E+00  0.93827000000E+00 0.  1.
     999902    2    1    2    0    0 -0.16268770906E-02 -0.24969584924E-01 -0.23405226875E-02  0.10187982482E+01  0.10184882256E+01 0.  0.
     999903    2    3    3    0    0  0.38013344682E-01 -0.82181321806E-01  0.92459831928E-01  0.13097414558E+00  0.20164876953E-01 0.  0.
         14    1    1    2    0    0  0.16268770906E-02  0.24969584924E-01  0.23405226875E-02  0.25131751765E-01  0.00000000000E+00 0. -1.
     999901    1    3    3    0    0 -0.39640221773E-01  0.57211736883E-01 -0.94800354616E-01  0.88782410265E+00  0.88000000000E+00 0.  1.
        -11    1    4    4    0    0  0.20673760593E-01 -0.22265213861E-01  0.30007263246E-01  0.42706452602E-01  0.51100000000E-03 0. -1.
         11    1    4    4    0    0  0.17339584089E-01 -0.59916107946E-01  0.62452568682E-01  0.88267692979E-01  0.51100000000E-03 0.  1.
</event>
<event>
 8    1  0.1103774E+005  0.1043930E+01  0.7957747E-01            NaN
         13   -1    0    0    0    0  0.00000000000E+00  0.00000000000E+00  0.74505805969E-08  0.10566000000E+00  0.10566000000E+00 0.  1.
     999900   -1    0    0    0    0 -0.00000000000E+00 -0.00000000000E+00 -0.74505805969E-08  0.93827000000E+00  0.93827000000E+00 0. -1.
     999902    2    1    2    0    0 -0.16728215719E-01  0.15481635812E-01  0.61616758565E-02  0.10203189751E+01  0.10200457492E+01 0.  0.
     999903    2    3    3    0    0 -0.76069902371E-01 -0.79388131095E-01 -0.67087257511E-01  0.13021386067E+00  0.19127048531E-01 0.  0.
         14    1    1    2    0    0  0.16728215719E-01 -0.15481635812E-01 -0.61616758565E-02  0.23611024923E-01  0.00000000000E+00 0. -1.
     999901    1    3    3    0    0  0.59341686652E-01  0.94869766908E-01  0.73248933368E-01  0.89010511440E+00  0.88000000000E+00 0.  1.
        -11    1    4    4    0    0 -0.51549431953E-01 -0.46687922544E-01 -0.32965657714E-01  0.76968186646E-01  0.51100000000E-03 0.  1.
         11    1    4    4    0    0 -0.24520470418E-01 -0.32700208552E-01 -0.34121599797E-01  0.53245674027E-01  0.51100000000E-03 0. -1.
</event>
<event>
 8    1  0.1103774E+005  0.1043930E+01  0.7957747E-01            NaN
         13   -1    0    0    0    0  0.00000000000E+00  0.00000000000E+00  0.74505805969E-08  0.10566000000E+00  0.10566000000E+00 0.  1.
     999900   -1    0    0    0    0 -0.00000000000E+00 -0.00000000000E+00 -0.74505805969E-08  0.93827000000E+00  0.93827000000E+00 0. -1.
     999902    2    1    2    0    0  0.10385409879E-01  0.21298046600E-01  0.68078838150E-02  0.10192761806E+01  0.10189779790E+01 0.  0.
     999903    2    3    3    0    0  0.23775178431E-01 -0.91138844280E-01 -0.82692561765E-01  0.12751855095E+00  0.23481333437E-01 0.  0.
         14    1    1    2    0    0 -0.10385409879E-01 -0.21298046600E-01 -0.68078838150E-02  0.24653819367E-01  0.00000000000E+00 0.  1.
     999901    1    3    3    0    0 -0.13389768553E-01  0.11243689088E+00  0.89500445580E-01  0.89175762968E+00  0.88000000000E+00 0.  1.
        -11    1    4    4    0    0  0.63950127372E-02 -0.17166878489E-01 -0.29621734835E-01  0.34832545135E-01  0.51100000000E-03 0.  1.
         11    1    4    4    0    0  0.17380165694E-01 -0.73971965791E-01 -0.53070826930E-01  0.92686005819E-01  0.51100000000E-03 0. -1.
</event>
<event>
 8    1  0.1103774E+005  0.1043930E+01  0.7957747E-01            NaN
         13   -1    0    0    0    0  0.00000000000E+00  0.00000000000E+00  0.74505805969E-08  0.10566000000E+00  0.10566000000E+00 0. -1.
     999900   -1    0    0    0    0 -0.00000000000E+00 -0.00000000000E+00 -0.74505805969E-08  0.93827000000E+00  0.93827000000E+00 0. -1.
     999902    2    1    2    0    0 -0.29161731026E-02  0.41506465594E-02  0.23162269821E-01  0.10202187648E+01  0.10199431873E+01 0.  0.
     999903    2    3    3    0    0  0.29227580921E-02  0.11904228787E+00  0.53869624774E-01  0.13220011407E+00  0.19882778206E-01 0.  0.
         14    1    1    2    0    0  0.29161731026E-02 -0.41506465594E-02 -0.23162269821E-01  0.23711235221E-01  0.00000000000E+00 0.  1.
     999901    1    3    3    0    0 -0.58389311948E-02 -0.11489164131E+00 -0.30707354953E-01  0.88801865071E+00  0.88000000000E+00 0.  1.
        -11    1    4    4    0    0 -0.93602793273E-03  0.94337317049E-01  0.50367125730E-01  0.10694631369E+00  0.51100000000E-03 0.  1.
         11    1    4    4    0    0  0.38587860249E-02  0.24704970826E-01  0.35024990442E-02  0.25253800380E-01  0.51100000000E-03 0. -1.
</event>
<event>
 8    1  0.1103774E+005  0.1043930E+01  0.7957747E-01            NaN
         13   -1    0    0    0    0  0.00000000000E+00  0.00000000000E+00  0.74505805969E-08  0.10566000000E+00  0.10566000000E+00 0. -1.
     999900   -1    0    0    0    0 -0.00000000000E+00 -0.00000000000E+00 -0.74505805969E-08  0.93827000000E+00  0.93827000000E+00 0. -1.
     999902    2    1    2    0    0 -0.14381663292E-01  0.15654132446E-01  0.10119850539E-01  0.10203865194E+01  0.10201148727E+01 0.  0.
     999903    2    3    3    0    0  0.92939132278E-01  0.21745266203E-01 -0.84258627092E-01  0.12883609905E+00  0.19715102525E-01 0.  0.
         14    1    1    2    0    0  0.14381663292E-01 -0.15654132446E-01 -0.10119850539E-01  0.23543480555E-01  0.00000000000E+00 0. -1.
     999901    1    3    3    0    0 -0.10732079557E+00 -0.60911337566E-02  0.94378477631E-01  0.89155042040E+00  0.88000000000E+00 0.  1.
        -11    1    4    4    0    0  0.81316980390E-01  0.19171931145E-01 -0.63650813198E-01  0.10503190651E+00  0.51100000000E-03 0. -1.
         11    1    4    4    0    0  0.11622151888E-01  0.25733350578E-02 -0.20607813894E-01  0.23804192536E-01  0.51100000000E-03 0.  1.
</event>
<event>
 8    1  0.1103774E+005  0.1043930E+01  0.7957747E-01            NaN
         13   -1    0    0    0    0  0.00000000000E+00  0.00000000000E+00  0.74505805969E-08  0.10566000000E+00  0.10566000000E+00 0.  1.
     999900   -1    0    0    0    0 -0.00000000000E+00 -0.00000000000E+00 -0.74505805969E-08  0.93827000000E+00  0.93827000000E+00 0. -1.
     999902    2    1    2    0    0  0.67804873347E-02  0.22986232557E-01 -0.12138926524E-02  0.10199338455E+01  0.10196515256E+01 0.  0.
     999903    2    3    3    0    0  0.59751774463E-01 -0.11091845713E+00 -0.12898061465E-01  0.12815307480E+00  0.19587544679E-01 0.  0.
         14    1    1    2    0    0 -0.67804873347E-02 -0.22986232557E-01  0.12138926524E-02  0.23996154505E-01  0.00000000000E+00 0. -1.
     999901    1    3    3    0    0 -0.52971287128E-01  0.13390468969E+00  0.11684168812E-01  0.89178077070E+00  0.88000000000E+00 0. -1.
        -11    1    4    4    0    0  0.12837029958E-01 -0.11345779918E-01 -0.47156090196E-02  0.17776786816E-01  0.51100000000E-03 0. -1.
         11    1    4    4    0    0  0.46914744505E-01 -0.99572677216E-01 -0.81824524450E-02  0.11037628798E+00  0.51100000000E-03 0.  1.
</event>
<event>
 8    1  0.1103774E+005  0.1043930E+01  0.7957747E-01            NaN
         13   -1    0    0    0    0  0.00000000000E+00  0.00000000000E+00  0.74505805969E-08  0.10566000000E+00  0.10566000000E+00 0.  1.
     999900   -1    0    0    0    0 -0.00000000000E+00 -0.00000000000E+00 -0.74505805969E-08  0.93827000000E+00  0.93827000000E+00 0.  1.
     999902    2    1    2    0    0 -0.23157241702E-01  0.60893127408E-02  0.75470513427E-02  0.10188243123E+01  0.10185149403E+01 0.  0.
     999903    2    3    3    0    0  0.11986744564E+00  0.16732974391E-02 -0.34084599090E-01  0.12629489723E+00  0.20436162125E-01 0.  0.
         14    1    1    2    0    0  0.23157241702E-01 -0.60893127408E-02 -0.75470513427E-02  0.25105687739E-01  0.00000000000E+00 0. -1.
     999901    1    3    3    0    0 -0.14302468734E+00  0.44160153017E-02  0.41631650432E-01  0.89252941503E+00  0.88000000000E+00 0.  1.
        -11    1    4    4    0    0  0.61088050934E-01 -0.83099550122E-02 -0.12660685771E-01  0.62939331140E-01  0.51100000000E-03 0.  1.
         11    1    4    4    0    0  0.58779394706E-01  0.99832524513E-02 -0.21423913319E-01  0.63355566088E-01  0.51100000000E-03 0. -1.
</event>
<event>
 7    1  0.1103774E+005  0.1043930E+01  0.7957747E-01            NaN
         13   -1    0    0    0    0  0.00000000000E+00  0.00000000000E+00  0.74505805969E-08  0.10566000000E+00  0.10566000000E+00 0.  1.
     999900   -1    0    0    0    0 -0.00000000000E+00 -0.00000000000E+00 -0.74505805969E-08  0.93827000000E+00  0.93827000000E+00 0.  1.
     999903    2    1    2    0    0  0.10264880180E+00  0.10810950677E-01  0.41223575448E-01  0.11295446160E+00  0.20141351902E-01 0.  0.
         14    1    1    2    0    0  0.24661277511E-01  0.13840026784E-01  0.26687706744E-01  0.38883912368E-01  0.00000000000E+00 0.  1.
     999901    1    1    2    0    0 -0.12731007932E+00 -0.24650977461E-01 -0.67911282192E-01  0.89209162603E+00  0.88000000000E+00 0.  1.
        -11    1    3    3    0    0  0.25751184987E-01  0.59085166185E-03  0.19748730567E-01  0.32461455819E-01  0.51100000000E-03 0. -1.
         11    1    3    3    0    0  0.76897616817E-01  0.10220099015E-01  0.21474844882E-01  0.80493005782E-01  0.51100000000E-03 0.  1.
</event>
<event>
 8    1  0.1103774E+005  0.1043930E+01  0.7957747E-01            NaN
         13   -1    0    0    0    0  0.00000000000E+00  0.00000000000E+00  0.74505805969E-08  0.10566000000E+00  0.10566000000E+00 0.  1.
     999900   -1    0    0    0    0 -0.00000000000E+00 -0.00000000000E+00 -0.74505805969E-08  0.93827000000E+00  0.93827000000E+00 0. -1.
     999902    2    1    2    0    0 -0.16475411890E-02 -0.28807388518E-01  0.43442605909E-02  0.10147503388E+01  0.10143307141E+01 0.  0.
     999903    2    3    3    0    0 -0.40945302074E-01  0.20712581854E-01 -0.11409410748E+00  0.12456822910E+00  0.19855717853E-01 0.  0.
         14    1    1    2    0    0  0.16475411890E-02  0.28807388518E-01 -0.43442605909E-02  0.29179661158E-01  0.00000000000E+00 0. -1.
     999901    1    3    3    0    0  0.39297760885E-01 -0.49519970371E-01  0.11843836807E+00  0.89018210974E+00  0.88000000000E+00 0.  1.
        -11    1    4    4    0    0 -0.19528306583E-01  0.21315344353E-02 -0.64631264979E-01  0.67552644144E-01  0.51100000000E-03 0. -1.
         11    1    4    4    0    0 -0.21416995491E-01  0.18581047418E-01 -0.49462842496E-01  0.57015584956E-01  0.51100000000E-03 0.  1.
</event>
<event>
 8    1  0.1103774E+005  0.1043930E+01  0.7957747E-01            NaN
         13   -1    0    0    0    0  0.00000000000E+00  0.00000000000E+00  0.74505805969E-08  0.10566000000E+00  0.10566000000E+00 0.  1.
     999900   -1    0    0    0    0 -0.00000000000E+00 -0.00000000000E+00 -0.74505805969E-08  0.93827000000E+00  0.93827000000E+00 0.  1.
     999902    2    1    2    0    0 -0.46243567311E-02 -0.56954778247E-03 -0.23276346539E-01  0.10201919005E+01  0.10199156909E+01 0.  0.
     999903    2    3    3    0    0 -0.71590981681E-01  0.96555536752E-01  0.44601952727E-01  0.12972838389E+00  0.19795935517E-01 0.  0.
         14    1    1    2    0    0  0.46243567311E-02  0.56954778247E-03  0.23276346539E-01  0.23738099504E-01  0.00000000000E+00 0.  1.
     999901    1    3    3    0    0  0.66966624950E-01 -0.97125084534E-01 -0.67878299266E-01  0.89046351661E+00  0.88000000000E+00 0.  1.
        -11    1    4    4    0    0 -0.34594175767E-01  0.39194186723E-01  0.10107203173E-01  0.53248079279E-01  0.51100000000E-03 0.  1.
         11    1    4    4    0    0 -0.36996805914E-01  0.57361350029E-01  0.34494749554E-01  0.76480304607E-01  0.51100000000E-03 0. -1.
</event>
<event>
 8    1  0.1103774E+005  0.1043930E+01  0.7957747E-01            NaN
         13   -1    0    0    0    0  0.00000000000E+00  0.00000000000E+00  0.74505805969E-08  0.10566000000E+00  0.10566000000E+00 0.  1.
     999900   -1    0    0    0    0 -0.00000000000E+00 -0.00000000000E+00 -0.74505805969E-08  0.93827000000E+00  0.93827000000E+00 0. -1.
     999902    2    1    2    0    0 -0.71514007424E-02  0.33387817999E-02 -0.23446963371E-01  0.10191903539E+01  0.10188900468E+01 0.  0.
     999903    2    3    3    0    0  0.11842643938E+00 -0.30100566811E-01  0.32291448320E-01  0.12790209837E+00  0.19630167234E-01 0.  0.
         14    1    1    2    0    0  0.71514007424E-02 -0.33387817999E-02  0.23446963371E-01  0.24739646073E-01  0.00000000000E+00 0.  1.
     999901    1    3    3    0    0 -0.12557784012E+00  0.33439348611E-01 -0.55738411691E-01  0.89128825556E+00  0.88000000000E+00 0. -1.
        -11    1    4    4    0    0  0.84321355874E-01 -0.27737676487E-01  0.16703609096E-01  0.90325751761E-01  0.51100000000E-03 0.  1.
         11    1    4    4    0    0  0.34105083503E-01 -0.23628903243E-02  0.15587839224E-01  0.37576346604E-01  0.51100000000E-03 0. -1.
</event>
<event>
 8    1  0.1103774E+005  0.1043930E+01  0.7957747E-01            NaN
         13   -1    0    0    0    0  0.00000000000E+00  0.00000000000E+00  0.74505805969E-08  0.10566000000E+00  0.10566000000E+00 0.  1.
     999900   -1    0    0    0    0 -0.00000000000E+00 -0.00000000000E+00 -0.74505805969E-08  0.93827000000E+00  0.93827000000E+00 0.  1.
     999902    2    1    2    0    0 -0.21956324702E-01 -0.37118130854E-02 -0.78633772575E-02  0.10203145294E+01  0.10200411994E+01 0.  0.
     999903    2    3    3    0    0  0.10516314532E+00 -0.13966543796E-01  0.67955509219E-01  0.12789477237E+00  0.22017495011E-01 0.  0.
         14    1    1    2    0    0  0.21956324702E-01  0.37118130854E-02  0.78633772575E-02  0.23615470622E-01  0.00000000000E+00 0.  1.
     999901    1    3    3    0    0 -0.12711947002E+00  0.10254730710E-01 -0.75818886477E-01  0.89241975701E+00  0.88000000000E+00 0. -1.
        -11    1    4    4    0    0  0.62368561720E-01 -0.18614509895E-01  0.36991173313E-01  0.74866183913E-01  0.51100000000E-03 0. -1.
         11    1    4    4    0    0  0.42794583597E-01  0.46479660991E-02  0.30964335906E-01  0.53028588452E-01  0.51100000000E-03 0.  1.
</event>
<event>
 8    1  0.1103774E+005  0.1043930E+01  0.7957747E-01            NaN
         13   -1    0    0    0    0  0.00000000000E+00  0.00000000000E+00  0.74505805969E-08  0.10566000000E+00  0.10566000000E+00 0.  1.
     999900   -1    0    0    0    0 -0.00000000000E+00 -0.00000000000E+00 -0.74505805969E-08  0.93827000000E+00  0.93827000000E+00 0.  1.
     999902    2    1    2    0    0 -0.18047786891E-01 -0.15810323632E-01 -0.40771004719E-02  0.10195925455E+01  0.10193020392E+01 0.  0.
     999903    2    3    3    0    0 -0.10319841497E+00  0.76041459350E-01 -0.14758960038E-01  0.13065976869E+00  0.20540980030E-01 0.  0.
         14    1    1    2    0    0  0.18047786891E-01  0.15810323632E-01  0.40771004719E-02  0.24337454536E-01  0.00000000000E+00 0. -1.
     999901    1    3    3    0    0  0.85150628077E-01 -0.91851782983E-01  0.10681859566E-01  0.88893277677E+00  0.88000000000E+00 0.  1.
        -11    1    4    4    0    0 -0.31471679195E-01  0.32187982552E-01  0.14325973698E-02  0.45042716041E-01  0.51100000000E-03 0. -1.
         11    1    4    4    0    0 -0.71726735774E-01  0.43853476798E-01 -0.16191557407E-01  0.85617052649E-01  0.51100000000E-03 0.  1.
</event>
<event>
 8    1  0.1103774E+005  0.1043930E+01  0.7957747E-01            NaN
         13   -1    0    0    0    0  0.00000000000E+00  0.00000000000E+00  0.74505805969E-08  0.10566000000E+00  0.10566000000E+00 0.  1.
     999900   -1    0    0    0    0 -0.00000000000E+00 -0.00000000000E+00 -0.74505805969E-08  0.93827000000E+00  0.93827000000E+00 0.  1.
     999902    2    1    2    0    0 -0.23739019937E-01 -0.56271791526E-03  0.35772530511E-02  0.10199163693E+01  0.10196336332E+01 0.  0.
     999903    2    3    3    0    0  0.77839582941E-01  0.63432996167E-01  0.77562809134E-01  0.12868826917E+00  0.21492686823E-01 0.  0.
         14    1    1    2    0    0  0.23739019937E-01  0.56271791526E-03 -0.35772530511E-02  0.24013630679E-01  0.00000000000E+00 0.  1.
     999901    1    3    3    0    0 -0.10157860288E+00 -0.63995714082E-01 -0.73985556083E-01  0.89122810015E+00  0.88000000000E+00 0.  1.
        -11    1    4    4    0    0  0.78804924584E-02  0.12806226998E-01  0.19486229560E-01  0.24618608302E-01  0.51100000000E-03 0. -1.
         11    1    4    4    0    0  0.69959090483E-01  0.50626769170E-01  0.58076579574E-01  0.10406966087E+00  0.51100000000E-03 0.  1.
</event>
<event>
 8    1  0.1103774E+005  0.1043930E+01  0.7957747E-01            NaN
         13   -1    0    0    0    0  0.00000000000E+00  0.00000000000E+00  0.74505805969E-08  0.10566000000E+00  0.10566000000E+00 0. -1.
     999900   -1    0    0    0    0 -0.00000000000E+00 -0.00000000000E+00 -0.74505805969E-08  0.93827000000E+00  0.93827000000E+00 0. -1.
     999902    2    1    2    0    0 -0.20198729998E-01 -0.11368210421E-01 -0.74922281729E-02  0.10195710512E+01  0.10192800254E+01 0.  0.
     999903    2    3    3    0    0 -0.12325642938E+00  0.42244153922E-01  0.22343549204E-02  0.13188316610E+00  0.20284507209E-01 0.  0.
         14    1    1    2    0    0  0.20198729998E-01  0.11368210421E-01  0.74922281729E-02  0.24358948760E-01  0.00000000000E+00 0. -1.
     999901    1    3    3    0    0  0.10305769939E+00 -0.53612364342E-01 -0.97265830933E-02  0.88768788514E+00  0.88000000000E+00 0. -1.
        -11    1    4    4    0    0 -0.89399403470E-01  0.26144830089E-01  0.97157085297E-02  0.93650742626E-01  0.51100000000E-03 0. -1.
         11    1    4    4    0    0 -0.33857025913E-01  0.16099323832E-01 -0.74813536093E-02  0.38232423470E-01  0.51100000000E-03 0.  1.
</event>
<event>
 8    1  0.1103774E+005  0.1043930E+01  0.7957747E-01            NaN
         13   -1    0    0    0    0  0.00000000000E+00  0.00000000000E+00  0.74505805969E-08  0.10566000000E+00  0.10566000000E+00 0.  1.
     999900   -1    0    0    0    0 -0.00000000000E+00 -0.00000000000E+00 -0.74505805969E-08  0.93827000000E+00  0.93827000000E+00 0.  1.
     999902    2    1    2    0    0 -0.12360162154E-01 -0.15688131191E-01 -0.12931075841E-01  0.10201370643E+01  0.10198595619E+01 0.  0.
     999903    2    3    3    0    0  0.60339529138E-01 -0.68776168602E-01 -0.92680651304E-01  0.13195713901E+00  0.21259427680E-01 0.  0.
         14    1    1    2    0    0  0.12360162154E-01  0.15688131191E-01  0.12931075841E-01  0.23792935741E-01  0.00000000000E+00 0.  1.
     999901    1    3    3    0    0 -0.72699691292E-01  0.53088037410E-01  0.79749575463E-01  0.88817992525E+00  0.88000000000E+00 0. -1.
        -11    1    4    4    0    0  0.30426033515E-01 -0.37276126616E-01 -0.63290968410E-01  0.79506357823E-01  0.51100000000E-03 0. -1.
         11    1    4    4    0    0  0.29913495623E-01 -0.31500041985E-01 -0.29389682894E-01  0.52450781187E-01  0.51100000000E-03 0.  1.
</event>
<event>
 8    1  0.1103774E+005  0.1043930E+01  0.7957747E-01            NaN
         13   -1    0    0    0    0  0.00000000000E+00  0.00000000000E+00  0.74505805969E-08  0.10566000000E+00  0.10566000000E+00 0. -1.
     999900   -1    0    0    0    0 -0.00000000000E+00 -0.00000000000E+00 -0.74505805969E-08  0.93827000000E+00  0.93827000000E+00 0.  1.
     999902    2    1    2    0    0  0.10547402965E-01 -0.12002744622E-01  0.17952583883E-01  0.10198965055E+01  0.10196132959E+01 0.  0.
     999903    2    3    3    0    0 -0.11351035709E+00  0.42176741401E-01 -0.31760454294E-01  0.12815824198E+00  0.27428631888E-01 0.  0.
         14    1    1    2    0    0 -0.10547402965E-01  0.12002744622E-01 -0.17952583883E-01  0.24033494458E-01  0.00000000000E+00 0.  1.
     999901    1    3    3    0    0  0.12405776006E+00 -0.54179486023E-01  0.49713038178E-01  0.89173826356E+00  0.88000000000E+00 0. -1.
        -11    1    4    4    0    0 -0.54518317825E-01  0.23110709759E-01 -0.29403238096E-01  0.66114774563E-01  0.51100000000E-03 0. -1.
         11    1    4    4    0    0 -0.58992039270E-01  0.19066031642E-01 -0.23572161984E-02  0.62043467416E-01  0.51100000000E-03 0.  1.
</event>
<event>
 8    1  0.1103774E+005  0.1043930E+01  0.7957747E-01            NaN
         13   -1    0    0    0    0  0.00000000000E+00  0.00000000000E+00  0.74505805969E-08  0.10566000000E+00  0.10566000000E+00 0.  1.
     999900   -1    0    0    0    0 -0.00000000000E+00 -0.00000000000E+00 -0.74505805969E-08  0.93827000000E+00  0.93827000000E+00 0.  1.
     999902    2    1    2    0    0 -0.19667822609E-01  0.12964409656E-01 -0.28963727409E-02  0.10201963079E+01  0.10199202021E+01 0.  0.
     999903    2    3    3    0    0  0.41187917360E-01  0.12066629295E+00  0.22481029054E-01  0.13118161218E+00  0.21128651504E-01 0.  0.
         14    1    1    2    0    0  0.19667822609E-01 -0.12964409656E-01  0.28963727409E-02  0.23733692064E-01  0.00000000000E+00 0. -1.
     999901    1    3    3    0    0 -0.60855739969E-01 -0.10770188330E+00 -0.25377401795E-01  0.88901469576E+00  0.88000000000E+00 0.  1.
        -11    1    4    4    0    0  0.68728175212E-02  0.39696880433E-01 -0.47166962812E-03  0.40293442767E-01  0.51100000000E-03 0. -1.
         11    1    4    4    0    0  0.34315099838E-01  0.80969412521E-01  0.22952698682E-01  0.90888169410E-01  0.51100000000E-03 0.  1.
</event>
<event>
 8    1  0.1103774E+005  0.1043930E+01  0.7957747E-01            NaN
         13   -1    0    0    0    0  0.00000000000E+00  0.00000000000E+00  0.74505805969E-08  0.10566000000E+00  0.10566000000E+00 0. -1.
     999900   -1    0    0    0    0 -0.00000000000E+00 -0.00000000000E+00 -0.74505805969E-08  0.93827000000E+00  0.93827000000E+00 0. -1.
     999902    2    1    2    0    0  0.20956762201E-01  0.93193144231E-02  0.51288437801E-02  0.10204280737E+01  0.10201573962E+01 0.  0.
     999903    2    3    3    0    0  0.51429007806E-01 -0.10019226061E+00 -0.62842315152E-01  0.13051716729E+00  0.20053489844E-01 0.  0.
         14    1    1    2    0    0 -0.20956762201E-01 -0.93193144231E-02 -0.51288437801E-02  0.23501926342E-01  0.00000000000E+00 0. -1.
     999901    1    3    3    0    0 -0.30472245605E-01  0.10951157503E+00  0.67971158932E-01  0.88991090636E+00  0.88000000000E+00 0.  1.
        -11    1    4    4    0    0  0.16301709899E-01 -0.51934096054E-01 -0.34424728842E-01  0.64406670116E-01  0.51100000000E-03 0.  1.
         11    1    4    4    0    0  0.35127297907E-01 -0.48258164556E-01 -0.28417586310E-01  0.66110497178E-01  0.51100000000E-03 0. -1.
</event>
<event>
 8    1  0.1103774E+005  0.1043930E+01  0.7957747E-01            NaN
         13   -1    0    0    0    0  0.00000000000E+00  0.00000000000E+00  0.74505805969E-08  0.10566000000E+00  0.10566000000E+00 0. -1.
     999900   -1    0    0    0    0 -0.00000000000E+00 -0.00000000000E+00 -0.74505805969E-08  0.93827000000E+00  0.93827000000E+00 0.  1.
     999902    2    1    2    0    0 -0.22006103349E-01 -0.22390059644E-02 -0.79115842286E-02  0.10204379823E+01  0.10201675356E+01 0.  0.
     999903    2    3    3    0    0 -0.22539165704E-01 -0.37101657297E-01 -0.12323749927E+00  0.13222868526E+00  0.20307560510E-01 0.  0.
         14    1    1    2    0    0  0.22006103349E-01  0.22390059644E-02  0.79115842286E-02  0.23492017736E-01  0.00000000000E+00 0. -1.
     999901    1    3    3    0    0  0.53306235547E-03  0.34862651332E-01  0.11532591504E+00  0.88820929701E+00  0.88000000000E+00 0. -1.
        -11    1    4    4    0    0 -0.16258223392E-01 -0.16765541260E-01 -0.88101473159E-01  0.91145728893E-01  0.51100000000E-03 0.  1.
         11    1    4    4    0    0 -0.62809423124E-02 -0.20336116037E-01 -0.35136026108E-01  0.41082956362E-01  0.51100000000E-03 0. -1.
</event>
<event>
 8    1  0.1103774E+005  0.1043930E+01  0.7957747E-01            NaN
         13   -1    0    0    0    0  0.00000000000E+00  0.00000000000E+00  0.74505805969E-08  0.10566000000E+00  0.10566000000E+00 0.  1.
     999900   -1    0    0    0    0 -0.00000000000E+00 -0.00000000000E+00 -0.74505805969E-08  0.93827000000E+00  0.93827000000E+00 0.  1.
     999902    2    1    2    0    0  0.22337313849E-01 -0.36088401120E-02  0.10058610537E-01  0.10191680339E+01  0.10188671780E+01 0.  0.
     999903    2    3    3    0    0  0.12400394058E-01  0.12024823270E+00  0.42808063363E-01  0.12983578809E+00  0.20282858297E-01 0.  0.
         14    1    1    2    0    0 -0.22337313849E-01  0.36088401120E-02 -0.10058610537E-01  0.24761966054E-01  0.00000000000E+00 0.  1.
     999901    1    3    3    0    0  0.99369197910E-02 -0.12385707281E+00 -0.32749452826E-01  0.88933224586E+00  0.88000000000E+00 0.  1.
        -11    1    4    4    0    0  0.13613341622E-01  0.79713348322E-01  0.19997718449E-01  0.83304926836E-01  0.51100000000E-03 0. -1.
         11    1    4    4    0    0 -0.12129475642E-02  0.40534884373E-01  0.22810344914E-01  0.46530861254E-01  0.51100000000E-03 0.  1.
</event>
<event>
 8    1  0.1103774E+005  0.1043930E+01  0.7957747E-01            NaN
         13   -1    0    0    0    0  0.00000000000E+00  0.00000000000E+00  0.74505805969E-08  0.10566000000E+00  0.10566000000E+00 0.  1.
     999900   -1    0    0    0    0 -0.00000000000E+00 -0.00000000000E+00 -0.74505805969E-08  0.93827000000E+00  0.93827000000E+00 0. -1.
     999902    2    1    2    0    0  0.28567882476E-02 -0.23101594239E-01  0.29264090208E-02  0.10204692079E+01  0.10201994881E+01 0.  0.
     999903    2    3    3    0    0 -0.41194438509E-02 -0.13102096298E+00 -0.11725891202E-01  0.13372801238E+00  0.23711225443E-01 0.  0.
         14    1    1    2    0    0 -0.28567882476E-02  0.23101594239E-01 -0.29264090208E-02  0.23460792084E-01  0.00000000000E+00 0.  1.
     999901    1    3    3    0    0  0.69762320985E-02  0.10791936874E+00  0.14652300223E-01  0.88674119554E+00  0.88000000000E+00 0.  1.
        -11    1    4    4    0    0  0.83169174282E-02 -0.88570569288E-01 -0.87351328622E-02  0.89389487786E-01  0.51100000000E-03 0.  1.
         11    1    4    4    0    0 -0.12436361279E-01 -0.42450393692E-01 -0.29907583400E-02  0.44338524591E-01  0.51100000000E-03 0. -1.
</event>
<event>
 8    1  0.1103774E+005  0.1043930E+01  0.7957747E-01            NaN
         13   -1    0    0    0    0  0.00000000000E+00  0.00000000000E+00  0.74505805969E-08  0.10566000000E+00  0.10566000000E+00 0.  1.
     999900   -1    0    0    0    0 -0.00000000000E+00 -0.00000000000E+00 -0.74505805969E-08  0.93827000000E+00  0.93827000000E+00 0. -1.
     999902    2    1    2    0    0  0.11479153444E-01 -0.13004416472E-01 -0.15311344230E-01  0.10207929502E+01  0.10205307071E+01 0.  0.
     999903    2    3    3    0    0 -0.95751364820E-02 -0.35071359040E-01 -0.12633749991E+00  0.13329250494E+00  0.22001011965E-01 0.  0.
         14    1    1    2    0    0 -0.11479153444E-01  0.13004416472E-01  0.15311344230E-01  0.23137049806E-01  0.00000000000E+00 0.  1.
     999901    1    3    3    0    0  0.21054289926E-01  0.22066942568E-01  0.11102615568E+00  0.88750044525E+00  0.88000000000E+00 0.  1.
        -11    1    4    4    0    0 -0.16735270935E-01 -0.23367771066E-01 -0.87264884873E-01  0.91877871497E-01  0.51100000000E-03 0.  1.
         11    1    4    4    0    0  0.71601344529E-02 -0.11703587974E-01 -0.39072615034E-01  0.41414633445E-01  0.51100000000E-03 0. -1.
</event>
<event>
 8    1  0.1103774E+005  0.1043930E+01  0.7957747E-01            NaN
         13   -1    0    0    0    0  0.00000000000E+00  0.00000000000E+00  0.74505805969E-08  0.10566000000E+00  0.10566000000E+00 0. -1.
     999900   -1    0    0    0    0 -0.00000000000E+00 -0.00000000000E+00 -0.74505805969E-08  0.93827000000E+00  0.93827000000E+00 0. -1.
     999902    2    1    2    0    0  0.50486311292E-02 -0.18456998964E-01  0.12565494065E-01  0.10210380554E+01  0.10207814014E+01 0.  0.
     999903    2    3    3    0    0  0.35352382136E-01  0.87636303050E-01  0.88388750721E-01  0.13091263034E+00  0.19890525254E-01 0.  0.
         14    1    1    2    0    0 -0.50486311292E-02  0.18456998964E-01 -0.12565494065E-01  0.22891944612E-01  0.00000000000E+00 0.  1.
     999901    1    3    3    0    0 -0.30303751006E-01 -0.10609330201E+00 -0.75823256657E-01  0.89012542504E+00  0.88000000000E+00 0. -1.
        -11    1    4    4    0    0  0.29029823942E-01  0.75224627615E-01  0.83662655388E-01  0.11619456229E+00  0.51100000000E-03 0. -1.
         11    1    4    4    0    0  0.63225581939E-02  0.12411675435E-01  0.47260953335E-02  0.14718068056E-01  0.51100000000E-03 0.  1.
</event>
<event>
 8    1  0.1103774E+005  0.1043930E+01  0.7957747E-01            NaN
         13   -1    0    0    0    0  0.00000000000E+00  0.00000000000E+00  0.74505805969E-08  0.10566000000E+00  0.10566000000E+00 0. -1.
     999900   -1    0    0    0    0 -0.00000000000E+00 -0.00000000000E+00 -0.74505805969E-08  0.93827000000E+00  0.93827000000E+00 0.  1.
     999902    2    1    2    0    0 -0.14487876720E-01 -0.88403417561E-02 -0.17877896313E-01  0.10192790489E+01  0.10189809174E+01 0.  0.
     999903    2    3    3    0    0 -0.42589287327E-01  0.95190302168E-01  0.71837707737E-01  0.12817807045E+00  0.19847429823E-01 0.  0.
         14    1    1    2    0    0  0.14487876720E-01  0.88403417561E-02  0.17877896313E-01  0.24650951114E-01  0.00000000000E+00 0. -1.
     999901    1    3    3    0    0  0.28101410607E-01 -0.10403064392E+00 -0.89715604050E-01  0.89110097843E+00  0.88000000000E+00 0.  1.
        -11    1    4    4    0    0 -0.40832497888E-01  0.76521856827E-01  0.53290408687E-01  0.10179890095E+00  0.51100000000E-03 0. -1.
         11    1    4    4    0    0 -0.17567894395E-02  0.18668445341E-01  0.18547299049E-01  0.26379169502E-01  0.51100000000E-03 0.  1.
</event>
<event>
 8    1  0.1103774E+005  0.1043930E+01  0.7957747E-01            NaN
         13   -1    0    0    0    0  0.00000000000E+00  0.00000000000E+00  0.74505805969E-08  0.10566000000E+00  0.10566000000E+00 0.  1.
     999900   -1    0    0    0    0 -0.00000000000E+00 -0.00000000000E+00 -0.74505805969E-08  0.93827000000E+00  0.93827000000E+00 0. -1.
     999902    2    1    2    0    0  0.21657539071E-01 -0.94207838120E-03 -0.87523806369E-02  0.10205517906E+01  0.10202839882E+01 0.  0.
     999903    2    3    3    0    0 -0.10976728384E+00  0.12697677197E-01  0.61407250326E-01  0.12792594462E+00  0.19598706712E-01 0.  0.
         14    1    1    2    0    0 -0.21657539071E-01  0.94207838120E-03  0.87523806369E-02  0.23378209450E-01  0.00000000000E+00 0.  1.
     999901    1    3    3    0    0  0.13142482292E+00 -0.13639755578E-01 -0.70159630963E-01  0.89262584593E+00  0.88000000000E+00 0. -1.
        -11    1    4    4    0    0 -0.80863474393E-01  0.10187903649E-02  0.47470996754E-01  0.93774709163E-01  0.51100000000E-03 0. -1.
         11    1    4    4    0    0 -0.28903809451E-01  0.11678886832E-01  0.13936253571E-01  0.34151235454E-01  0.51100000000E-03 0.  1.
</event>
<event>
 8    1  0.1103774E+005  0.1043930E+01  0.7957747E-01            NaN
         13   -1    0    0    0    0  0.00000000000E+00  0.00000000000E+00  0.74505805969E-08  0.10566000000E+00  0.10566000000E+00 0.  1.
     999900   -1    0    0    0    0 -0.00000000000E+00 -0.00000000000E+00 -0.74505805969E-08  0.93827000000E+00  0.93827000000E+00 0.  1.
     999902    2    1    2    0    0 -0.64837074824E-02 -0.24142983117E-01  0.18825266723E-01  0.10126360267E+01  0.10121523649E+01 0.  0.
     999903    2    3    3    0    0 -0.74510515915E-01  0.63826125818E-01  0.73073149000E-01  0.12398027587E+00  0.20145281842E-01 0.  0.
         14    1    1    2    0    0  0.64837074824E-02  0.24142983117E-01 -0.18825266723E-01  0.31293973280E-01  0.00000000000E+00 0. -1.
     999901    1    3    3    0    0  0.68026808433E-01 -0.87969108934E-01 -0.54247882277E-01  0.88865575085E+00  0.88000000000E+00 0.  1.
        -11    1    4    4    0    0 -0.69254397922E-02  0.91922470167E-02  0.17062313010E-01  0.20587441992E-01  0.51100000000E-03 0. -1.
         11    1    4    4    0    0 -0.67585076123E-01  0.54633878801E-01  0.56010835990E-01  0.10339283387E+00  0.51100000000E-03 0.  1.
</event>
<event>
 8    1  0.1103774E+005  0.1043930E+01  0.7957747E-01            NaN
         13   -1    0    0    0    0  0.00000000000E+00  0.00000000000E+00  0.74505805969E-08  0.10566000000E+00  0.10566000000E+00 0.  1.
     999900   -1    0    0    0    0 -0.00000000000E+00 -0.00000000000E+00 -0.74505805969E-08  0.93827000000E+00  0.93827000000E+00 0.  1.
     999902    2    1    2    0    0  0.13073838225E-01 -0.12378565641E-01 -0.18513337019E-01  0.10181056359E+01  0.10177780643E+01 0.  0.
     999903    2    3    3    0    0 -0.66463579244E-01  0.95339732813E-03 -0.10941119679E+00  0.12975527545E+00  0.21149590829E-01 0.  0.
         14    1    1    2    0    0 -0.13073838225E-01  0.12378565641E-01  0.18513337019E-01  0.25824364094E-01  0.00000000000E+00 0.  1.
     999901    1    3    3    0    0  0.79537417469E-01 -0.13331962969E-01  0.90897859767E-01  0.88835036046E+00  0.88000000000E+00 0.  1.
        -11    1    4    4    0    0 -0.30317796104E-01  0.10165439711E-01 -0.58043812772E-01  0.66271036262E-01  0.51100000000E-03 0. -1.
         11    1    4    4    0    0 -0.36145783140E-01 -0.92120423831E-02 -0.51367384014E-01  0.63484239187E-01  0.51100000000E-03 0.  1.
</event>
<event>
 8    1  0.1103774E+005  0.1043930E+01  0.7957747E-01            NaN
         13   -1    0    0    0    0  0.00000000000E+00  0.00000000000E+00  0.74505805969E-08  0.10566000000E+00  0.10566000000E+00 0.  1.
     999900   -1    0    0    0    0 -0.00000000000E+00 -0.00000000000E+00 -0.74505805969E-08  0.93827000000E+00  0.93827000000E+00 0.  1.
     999902    2    1    2    0    0  0.85853874852E-02  0.22105516956E-01 -0.53290428507E-03  0.10202098241E+01  0.10199340363E+01 0.  0.
     999903    2    3    3    0    0  0.74770393919E-01  0.85585327245E-01  0.66092774117E-01  0.13293922139E+00  0.19726169103E-01 0.  0.
         14    1    1    2    0    0 -0.85853874852E-02 -0.22105516956E-01  0.53290428507E-03  0.23720175909E-01  0.00000000000E+00 0. -1.
     999901    1    3    3    0    0 -0.66185006434E-01 -0.63479810289E-01 -0.66625678402E-01  0.88727060270E+00  0.88000000000E+00 0.  1.
        -11    1    4    4    0    0  0.58368775400E-01  0.56211045533E-01  0.53030221146E-01  0.96845552595E-01  0.51100000000E-03 0. -1.
         11    1    4    4    0    0  0.16401618519E-01  0.29374281712E-01  0.13062552971E-01  0.36093668798E-01  0.51100000000E-03 0.  1.
</event>
<event>
 8    1  0.1103774E+005  0.1043930E+01  0.7957747E-01            NaN
         13   -1    0    0    0    0  0.00000000000E+00  0.00000000000E+00  0.74505805969E-08  0.10566000000E+00  0.10566000000E+00 0. -1.
     999900   -1    0    0    0    0 -0.00000000000E+00 -0.00000000000E+00 -0.74505805969E-08  0.93827000000E+00  0.93827000000E+00 0.  1.
     999902    2    1    2    0    0  0.14172666632E-01 -0.80796034389E-02 -0.17504948454E-01  0.10200016133E+01  0.10197209046E+01 0.  0.
     999903    2    3    3    0    0 -0.11152858303E+00  0.52552400598E-01 -0.32000048142E-01  0.12888593503E+00  0.19677437033E-01 0.  0.
         14    1    1    2    0    0 -0.14172666632E-01  0.80796034389E-02  0.17504948454E-01  0.23928386731E-01  0.00000000000E+00 0. -1.
     999901    1    3    3    0    0  0.12570124966E+00 -0.60632004037E-01  0.14495099688E-01  0.89111567823E+00  0.88000000000E+00 0. -1.
        -11    1    4    4    0    0 -0.23527356674E-01  0.34448557104E-02 -0.27037483823E-02  0.23936894520E-01  0.51100000000E-03 0. -1.
         11    1    4    4    0    0 -0.88001226352E-01  0.49107544888E-01 -0.29296299760E-01  0.10494904051E+00  0.51100000000E-03 0.  1.
</event>
<event>
 8    1  0.1103774E+005  0.1043930E+01  0.7957747E-01            NaN
         13   -1    0    0    0    0  0.00000000000E+00  0.00000000000E+00  0.74505805969E-08  0.10566000000E+00  0.10566000000E+00 0.  1.
     999900   -1    0    0    0    0 -0.00000000000E+00 -0.00000000000E+00 -0.74505805969E-08  0.93827000000E+00  0.93827000000E+00 0.  1.
     999902    2    1    2    0    0 -0.74637287512E-02 -0.22063870999E-01  0.10156554617E-01  0.10185198199E+01  0.10182028021E+01 0.  0.
     999903    2    3    3    0    0 -0.26203250775E-01 -0.12480432510E+00 -0.25262939239E-01  0.13163690141E+00  0.20671908450E-01 0.  0.
         14    1    1    2    0    0  0.74637287512E-02  0.22063870999E-01 -0.10156554617E-01  0.25410180086E-01  0.00000000000E+00 0.  1.
     999901    1    3    3    0    0  0.18739522024E-01  0.10274045410E+00  0.35419493855E-01  0.88688291851E+00  0.88000000000E+00 0.  1.
        -11    1    4    4    0    0  0.18107345633E-02 -0.32789876412E-01 -0.93037817820E-02  0.34136142595E-01  0.51100000000E-03 0. -1.
         11    1    4    4    0    0 -0.28013985338E-01 -0.92014448684E-01 -0.15959157457E-01  0.97500758812E-01  0.51100000000E-03 0.  1.
</event>
<event>
 8    1  0.1103774E+005  0.1043930E+01  0.7957747E-01            NaN
         13   -1    0    0    0    0  0.00000000000E+00  0.00000000000E+00  0.74505805969E-08  0.10566000000E+00  0.10566000000E+00 0. -1.
     999900   -1    0    0    0    0 -0.00000000000E+00 -0.00000000000E+00 -0.74505805969E-08  0.93827000000E+00  0.93827000000E+00 0. -1.
     999902    2    1    2    0    0 -0.14922618942E-03 -0.23015187927E-01 -0.33034657179E-02  0.10206784618E+01  0.10204135869E+01 0.  0.
     999903    2    3    3    0    0  0.55258433768E-02 -0.13151311823E+00 -0.14511698426E-01  0.13392616730E+00  0.19984836353E-01 0.  0.
         14    1    1    2    0    0  0.14922618942E-03  0.23015187927E-01  0.33034657179E-02  0.23251538218E-01  0.00000000000E+00 0.  1.
     999901    1    3    3    0    0 -0.56750695662E-02  0.10849793030E+00  0.11208232708E-01  0.88675229449E+00  0.88000000000E+00 0.  1.
        -11    1    4    4    0    0  0.83154187512E-02 -0.12385935741E+00 -0.98570260842E-02  0.12452995098E+00  0.51100000000E-03 0.  1.
         11    1    4    4    0    0 -0.27895753744E-02 -0.76537608213E-02 -0.46546723418E-02  0.93962163176E-02  0.51100000000E-03 0. -1.
</event>
<event>
 8    1  0.1103774E+005  0.1043930E+01  0.7957747E-01            NaN
         13   -1    0    0    0    0  0.00000000000E+00  0.00000000000E+00  0.74505805969E-08  0.10566000000E+00  0.10566000000E+00 0.  1.
     999900   -1    0    0    0    0 -0.00000000000E+00 -0.00000000000E+00 -0.74505805969E-08  0.93827000000E+00  0.93827000000E+00 0. -1.
     999902    2    1    2    0    0 -0.28575959827E-02 -0.16584561083E-01  0.16416595761E-01  0.10204200417E+01  0.10201491771E+01 0.  0.
     999903    2    3    3    0    0 -0.10612668378E+00 -0.14553373370E-01 -0.71257006309E-01  0.13005197699E+00  0.19007421835E-01 0.  0.
         14    1    1    2    0    0  0.28575959827E-02  0.16584561083E-01 -0.16416595761E-01  0.23509958263E-01  0.00000000000E+00 0. -1.
     999901    1    3    3    0    0  0.10326908780E+00 -0.20311877137E-02  0.87673602070E-01  0.89036806475E+00  0.88000000000E+00 0.  1.
        -11    1    4    4    0    0 -0.91298446505E-01 -0.78040740385E-02 -0.54215584618E-01  0.10647018664E+00  0.51100000000E-03 0. -1.
         11    1    4    4    0    0 -0.14828237275E-01 -0.67492993312E-02 -0.17041421691E-01  0.23581790356E-01  0.51100000000E-03 0.  1.
</event>
<event>
 8    1  0.1103774E+005  0.1043930E+01  0.7957747E-01            NaN
         13   -1    0    0    0    0  0.00000000000E+00  0.00000000000E+00  0.74505805969E-08  0.10566000000E+00  0.10566000000E+00 0.  1.
     999900   -1    0    0    0    0 -0.00000000000E+00 -0.00000000000E+00 -0.74505805969E-08  0.93827000000E+00  0.93827000000E+00 0. -1.
     999902    2    1    2    0    0  0.95547963985E-02 -0.16033986304E-01 -0.10185498305E-01  0.10226667165E+01  0.10224456395E+01 0.  0.
     999903    2    3    3    0    0  0.11166333954E+00 -0.32807334721E-01 -0.65185340020E-01  0.13489845707E+00  0.20085879565E-01 0.  0.
         14    1    1    2    0    0 -0.95547963985E-02  0.16033986304E-01  0.10185498305E-01  0.21263283536E-01  0.00000000000E+00 0.  1.
     999901    1    3    3    0    0 -0.10210854314E+00  0.16773348417E-01  0.54999841715E-01  0.88776825939E+00  0.88000000000E+00 0.  1.
        -11    1    4    4    0    0  0.10792231386E+00 -0.31470746763E-01 -0.57588636073E-01  0.12631051364E+00  0.51100000000E-03 0. -1.
         11    1    4    4    0    0  0.37410256833E-02 -0.13365879586E-02 -0.75967039471E-02  0.85879434322E-02  0.51100000000E-03 0.  1.
</event>
<event>
 8    1  0.1103774E+005  0.1043930E+01  0.7957747E-01            NaN
         13   -1    0    0    0    0  0.00000000000E+00  0.00000000000E+00  0.74505805969E-08  0.10566000000E+00  0.10566000000E+00 0.  1.
     999900   -1    0    0    0    0 -0.00000000000E+00 -0.00000000000E+00 -0.74505805969E-08  0.93827000000E+00  0.93827000000E+00 0.  1.
     999902    2    1    2    0    0  0.20068544191E-01 -0.67524717197E-02  0.11692420336E-01  0.10197420891E+01  0.10194551845E+01 0.  0.
     999903    2    3    3    0    0 -0.83283074951E-01  0.93003345394E-01  0.13505182849E-01  0.12809413933E+00  0.25298729989E-01 0.  0.
         14    1    1    2    0    0 -0.20068544191E-01  0.67524717197E-02 -0.11692420336E-01  0.24187910897E-01  0.00000000000E+00 0.  1.
     999901    1    3    3    0    0  0.10335161914E+00 -0.99755817114E-01 -0.18127625137E-02  0.89164794977E+00  0.88000000000E+00 0. -1.
        -11    1    4    4    0    0 -0.46238851123E-01  0.32991559907E-01  0.78024732379E-02  0.57337719591E-01  0.51100000000E-03 0. -1.
         11    1    4    4    0    0 -0.37044223828E-01  0.60011785487E-01  0.57027096114E-02  0.70756419739E-01  0.51100000000E-03 0.  1.
</event>
<event>
 8    1  0.1103774E+005  0.1043930E+01  0.7957747E-01            NaN
         13   -1    0    0    0    0  0.00000000000E+00  0.00000000000E+00  0.74505805969E-08  0.10566000000E+00  0.10566000000E+00 0.  1.
     999900   -1    0    0    0    0 -0.00000000000E+00 -0.00000000000E+00 -0.74505805969E-08  0.93827000000E+00  0.93827000000E+00 0. -1.
     999902    2    1    2    0    0  0.48935981688E-02  0.11229798580E-01  0.17855267173E-01  0.10222766805E+01  0.10220473302E+01 0.  0.
     999903    2    3    3    0    0 -0.50596771056E-01  0.10091315511E+00  0.70141227205E-01  0.13443879715E+00  0.20260807243E-01 0.  0.
         14    1    1    2    0    0 -0.48935981688E-02 -0.11229798580E-01 -0.17855267173E-01  0.21653319491E-01  0.00000000000E+00 0. -1.
     999901    1    3    3    0    0  0.55490369225E-01 -0.89683356526E-01 -0.52285960032E-01  0.88783788336E+00  0.88000000000E+00 0. -1.
        -11    1    4    4    0    0 -0.25614016109E-01  0.50599377690E-01  0.23375920274E-01  0.61343863699E-01  0.51100000000E-03 0.  1.
         11    1    4    4    0    0 -0.24982754946E-01  0.50313777415E-01  0.46765306931E-01  0.73094933448E-01  0.51100000000E-03 0. -1.
</event>
<event>
 8    1  0.1103774E+005  0.1043930E+01  0.7957747E-01            NaN
         13   -1    0    0    0    0  0.00000000000E+00  0.00000000000E+00  0.74505805969E-08  0.10566000000E+00  0.10566000000E+00 0. -1.
     999900   -1    0    0    0    0 -0.00000000000E+00 -0.00000000000E+00 -0.74505805969E-08  0.93827000000E+00  0.93827000000E+00 0.  1.
     999902    2    1    2    0    0 -0.49625930201E-02  0.21760561803E-01  0.87604325950E-02  0.10199530411E+01  0.10196711781E+01 0.  0.
     999903    2    3    3    0    0 -0.10004429363E+00 -0.23219952208E-02  0.82718885052E-01  0.13142034499E+00  0.20362730235E-01 0.  0.
         14    1    1    2    0    0  0.49625930201E-02 -0.21760561803E-01 -0.87604325950E-02  0.23976958913E-01  0.00000000000E+00 0.  1.
     999901    1    3    3    0    0  0.95081700614E-01  0.24082557023E-01 -0.73958452457E-01  0.88853269610E+00  0.88000000000E+00 0.  1.
        -11    1    4    4    0    0 -0.55806424327E-01 -0.78490936545E-03  0.32957355130E-01  0.64818372835E-01  0.51100000000E-03 0.  1.
         11    1    4    4    0    0 -0.44237869307E-01 -0.15370858554E-02  0.49761529922E-01  0.66601972155E-01  0.51100000000E-03 0. -1.
</event>
<event>
 8    1  0.1103774E+005  0.1043930E+01  0.7957747E-01            NaN
         13   -1    0    0    0    0  0.00000000000E+00  0.00000000000E+00  0.74505805969E-08  0.10566000000E+00  0.10566000000E+00 0. -1.
     999900   -1    0    0    0    0 -0.00000000000E+00 -0.00000000000E+00 -0.74505805969E-08  0.93827000000E+00  0.93827000000E+00 0.  1.
     999902    2    1    2    0    0  0.15402996190E-01 -0.15007467323E-01 -0.99914469083E-02  0.10202170209E+01  0.10199414024E+01 0.  0.
     999903    2    3    3    0    0  0.38206995721E-01 -0.11852911341E+00  0.42878317998E-01  0.13228010554E+00  0.12269919223E-01 0.  0.
         14    1    1    2    0    0 -0.15402996190E-01  0.15007467323E-01  0.99914469083E-02  0.23712979113E-01  0.00000000000E+00 0. -1.
     999901    1    3    3    0    0 -0.22803999531E-01  0.10352164609E+00 -0.52869764906E-01  0.88793691535E+00  0.88000000000E+00 0.  1.
        -11    1    4    4    0    0  0.15030312471E-01 -0.37327673117E-01  0.19128468439E-01  0.44558106996E-01  0.51100000000E-03 0. -1.
         11    1    4    4    0    0  0.23176683250E-01 -0.81201440296E-01  0.23749849558E-01  0.87721998539E-01  0.51100000000E-03 0.  1.
</event>
<event>
 8    1  0.1103774E+005  0.1043930E+01  0.7957747E-01            NaN
         13   -1    0    0    0    0  0.00000000000E+00  0.00000000000E+00  0.74505805969E-08  0.10566000000E+00  0.10566000000E+00 0.  1.
     999900   -1    0    0    0    0 -0.00000000000E+00 -0.00000000000E+00 -0.74505805969E-08  0.93827000000E+00  0.93827000000E+00 0.  1.
     999902    2    1    2    0    0  0.16125432859E-01 -0.84598925636E-02 -0.16572074843E-01  0.10193082001E+01  0.10190107819E+01 0.  0.
     999903    2    3    3    0    0  0.11365616896E+00  0.52902520643E-01  0.30979039373E-01  0.13052324368E+00  0.18979326350E-01 0.  0.
         14    1    1    2    0    0 -0.16125432859E-01  0.84598925636E-02  0.16572074843E-01  0.24621799928E-01  0.00000000000E+00 0.  1.
     999901    1    3    3    0    0 -0.97530736100E-01 -0.61362413207E-01 -0.47551114216E-01  0.88878495639E+00  0.88000000000E+00 0.  1.
        -11    1    4    4    0    0  0.10003954253E+00  0.50942264136E-01  0.22949076517E-01  0.11458597462E+00  0.51100000000E-03 0. -1.
         11    1    4    4    0    0  0.13616626427E-01  0.19602565080E-02  0.80299628561E-02  0.15937269066E-01  0.51100000000E-03 0.  1.
</event>
<event>
 8    1  0.1103774E+005  0.1043930E+01  0.7957747E-01            NaN
         13   -1    0    0    0    0  0.00000000000E+00  0.00000000000E+00  0.74505805969E-08  0.10566000000E+00  0.10566000000E+00 0. -1.
     999900   -1    0    0    0    0 -0.00000000000E+00 -0.00000000000E+00 -0.74505805969E-08  0.93827000000E+00  0.93827000000E+00 0.  1.
     999902    2    1    2    0    0 -0.43865794128E-02  0.46298468844E-02 -0.26396343801E-01  0.10167740701E+01  0.10164113661E+01 0.  0.
     999903    2    3    3    0    0  0.11447572594E+00 -0.33613193497E-01 -0.41386248425E-01  0.12783342250E+00  0.19850031274E-01 0.  0.
         14    1    1    2    0    0  0.43865794128E-02 -0.46298468844E-02  0.26396343801E-01  0.27155929872E-01  0.00000000000E+00 0. -1.
     999901    1    3    3    0    0 -0.11886230535E+00  0.38243040382E-01  0.14989904624E-01  0.88894064763E+00  0.88000000000E+00 0. -1.
        -11    1    4    4    0    0  0.77759469839E-01 -0.16167775240E-01 -0.34532375938E-01  0.86606455964E-01  0.51100000000E-03 0. -1.
         11    1    4    4    0    0  0.36716256103E-01 -0.17445418257E-01 -0.68538724875E-02  0.41226966532E-01  0.51100000000E-03 0.  1.
</event>
<event>
 8    1  0.1103774E+005  0.1043930E+01  0.7957747E-01            NaN
         13   -1    0    0    0    0  0.00000000000E+00  0.00000000000E+00  0.74505805969E-08  0.10566000000E+00  0.10566000000E+00 0.  1.
     999900   -1    0    0    0    0 -0.00000000000E+00 -0.00000000000E+00 -0.74505805969E-08  0.93827000000E+00  0.93827000000E+00 0.  1.
     999902    2    1    2    0    0  0.16420112529E-01  0.13818019820E-01 -0.89186526913E-02  0.10206899455E+01  0.10204253352E+01 0.  0.
     999903    2    3    3    0    0  0.31737186752E-01  0.53629758535E-01  0.11377204576E+00  0.13115490134E+00  0.19342433336E-01 0.  0.
         14    1    1    2    0    0 -0.16420112529E-01 -0.13818019820E-01  0.89186526913E-02  0.23240054497E-01  0.00000000000E+00 0.  1.
     999901    1    3    3    0    0 -0.15317074223E-01 -0.39811738715E-01 -0.12269069845E+00  0.88953504416E+00  0.88000000000E+00 0.  1.
        -11    1    4    4    0    0  0.24537887316E-01  0.49311518962E-01  0.85914158106E-01  0.10205507092E+00  0.51100000000E-03 0.  1.
         11    1    4    4    0    0  0.71992994354E-02  0.43182395732E-02  0.27857887650E-01  0.29099830424E-01  0.51100000000E-03 0. -1.
</event>
<event>
 8    1  0.1103774E+005  0.1043930E+01  0.7957747E-01            NaN
         13   -1    0    0    0    0  0.00000000000E+00  0.00000000000E+00  0.74505805969E-08  0.10566000000E+00  0.10566000000E+00 0. -1.
     999900   -1    0    0    0    0 -0.00000000000E+00 -0.00000000000E+00 -0.74505805969E-08  0.93827000000E+00  0.93827000000E+00 0.  1.
     999902    2    1    2    0    0  0.24055408862E-02 -0.35058956930E-01  0.60555779080E-02  0.10082706799E+01  0.10076399043E+01 0.  0.
     999903    2    3    3    0    0 -0.96360007494E-01 -0.71480287788E-01 -0.91986217414E-02  0.12186567228E+00  0.19285871801E-01 0.  0.
         14    1    1    2    0    0 -0.24055408862E-02  0.35058956930E-01 -0.60555779080E-02  0.35659320125E-01  0.00000000000E+00 0.  1.
     999901    1    3    3    0    0  0.98765548380E-01  0.36421330858E-01  0.15254199649E-01  0.88640500760E+00  0.88000000000E+00 0.  1.
        -11    1    4    4    0    0 -0.35500372303E-01 -0.18859604290E-01 -0.99152979864E-02  0.41406948242E-01  0.51100000000E-03 0. -1.
         11    1    4    4    0    0 -0.60859635191E-01 -0.52620683498E-01  0.71667624498E-03  0.80458724034E-01  0.51100000000E-03 0.  1.
</event>
<event>
 8    1  0.1103774E+005  0.1043930E+01  0.7957747E-01            NaN
         13   -1    0    0    0    0  0.00000000000E+00  0.00000000000E+00  0.74505805969E-08  0.10566000000E+00  0.10566000000E+00 0.  1.
     999900   -1    0    0    0    0 -0.00000000000E+00 -0.00000000000E+00 -0.74505805969E-08  0.93827000000E+00  0.93827000000E+00 0.  1.
     999902    2    1    2    0    0  0.22131756916E-01 -0.88612013591E-02  0.19652404145E-02  0.10200093453E+01  0.10197288202E+01 0.  0.
     999903    2    3    3    0    0 -0.54555732779E-01  0.58880635915E-01  0.98692195886E-01  0.12881574591E+00  0.20250669138E-01 0.  0.
         14    1    1    2    0    0 -0.22131756916E-01  0.88612013591E-02 -0.19652404145E-02  0.23920654749E-01  0.00000000000E+00 0. -1.
     999901    1    3    3    0    0  0.76687489695E-01 -0.67741837274E-01 -0.96726955471E-01  0.89119359934E+00  0.88000000000E+00 0.  1.
        -11    1    4    4    0    0 -0.36903870643E-01  0.25247840997E-01  0.56191307202E-01  0.71812765366E-01  0.51100000000E-03 0.  1.
         11    1    4    4    0    0 -0.17651862136E-01  0.33632794919E-01  0.42500888684E-01  0.57002980543E-01  0.51100000000E-03 0. -1.
</event>
<event>
 8    1  0.1103774E+005  0.1043930E+01  0.7957747E-01            NaN
         13   -1    0    0    0    0  0.00000000000E+00  0.00000000000E+00  0.74505805969E-08  0.10566000000E+00  0.10566000000E+00 0. -1.
     999900   -1    0    0    0    0 -0.00000000000E+00 -0.00000000000E+00 -0.74505805969E-08  0.93827000000E+00  0.93827000000E+00 0. -1.
     999902    2    1    2    0    0 -0.59898439396E-02  0.78862636170E-02 -0.22484415089E-01  0.10193613145E+01  0.10190651938E+01 0.  0.
     999903    2    3    3    0    0 -0.87670793737E-02  0.83698276014E-01  0.94388715941E-01  0.12839863123E+00  0.22242205745E-01 0.  0.
         14    1    1    2    0    0  0.59898439396E-02 -0.78862636170E-02  0.22484415089E-01  0.24568685479E-01  0.00000000000E+00 0. -1.
     999901    1    3    3    0    0  0.27772354341E-02 -0.75812012397E-01 -0.11687313103E+00  0.89096268329E+00  0.88000000000E+00 0. -1.
        -11    1    4    4    0    0 -0.12572619230E-01  0.62084096344E-01  0.57929313441E-01  0.85840388221E-01  0.51100000000E-03 0.  1.
         11    1    4    4    0    0  0.38055398558E-02  0.21614179669E-01  0.36459402500E-01  0.42558243009E-01  0.51100000000E-03 0. -1.
</event>
<event>
 8    1  0.1103774E+005  0.1043930E+01  0.7957747E-01            NaN
         13   -1    0    0    0    0  0.00000000000E+00  0.00000000000E+00  0.74505805969E-08  0.10566000000E+00  0.10566000000E+00 0. -1.
     999900   -1    0    0    0    0 -0.00000000000E+00 -0.00000000000E+00 -0.74505805969E-08  0.93827000000E+00  0.93827000000E+00 0. -1.
     999902    2    1    2    0    0  0.85155260953E-02 -0.79252346584E-02 -0.20105400623E-01  0.10207017701E+01  0.10204374321E+01 0.  0.
     999903    2    3    3    0    0 -0.12434305602E-02 -0.12225497859E+00  0.42538257219E-01  0.13104410818E+00  0.20377169877E-01 0.  0.
         14    1    1    2    0    0 -0.85155260953E-02  0.79252346584E-02  0.20105400623E-01  0.23228229878E-01  0.00000000000E+00 0. -1.
     999901    1    3    3    0    0  0.97589566555E-02  0.11432974393E+00 -0.62643657842E-01  0.88965766194E+00  0.88000000000E+00 0.  1.
        -11    1    4    4    0    0 -0.53286639256E-02 -0.71403688041E-01  0.15338013316E-01  0.73228389977E-01  0.51100000000E-03 0.  1.
         11    1    4    4    0    0  0.40852333655E-02 -0.50851290548E-01  0.27200243902E-01  0.57815718204E-01  0.51100000000E-03 0. -1.
</event>
<event>
 8    1  0.1103774E+005  0.1043930E+01  0.7957747E-01            NaN
         13   -1    0    0    0    0  0.00000000000E+00  0.00000000000E+00  0.74505805969E-08  0.10566000000E+00  0.10566000000E+00 0. -1.
     999900   -1    0    0    0    0 -0.00000000000E+00 -0.00000000000E+00 -0.74505805969E-08  0.93827000000E+00  0.93827000000E+00 0.  1.
     999902    2    1    2    0    0 -0.23652013591E-01  0.47805065408E-02  0.12882871663E-02  0.10197653425E+01  0.10194789959E+01 0.  0.
     999903    2    3    3    0    0  0.56793528889E-01 -0.64028128863E-01 -0.93562151950E-01  0.12836042919E+00  0.19935327840E-01 0.  0.
         14    1    1    2    0    0  0.23652013591E-01 -0.47805065408E-02 -0.12882871663E-02  0.24164657530E-01  0.00000000000E+00 0.  1.
     999901    1    3    3    0    0 -0.80445542480E-01  0.68808635404E-01  0.94850439116E-01  0.89140491328E+00  0.88000000000E+00 0. -1.
        -11    1    4    4    0    0  0.40947951862E-01 -0.33723700687E-01 -0.49267646854E-01  0.72398790717E-01  0.51100000000E-03 0. -1.
         11    1    4    4    0    0  0.15845577026E-01 -0.30304428176E-01 -0.44294505096E-01  0.55961638477E-01  0.51100000000E-03 0.  1.
</event>
<event>
 8    1  0.1103774E+005  0.1043930E+01  0.7957747E-01            NaN
         13   -1    0    0    0    0  0.00000000000E+00  0.00000000000E+00  0.74505805969E-08  0.10566000000E+00  0.10566000000E+00 0.  1.
     999900   -1    0    0    0    0 -0.00000000000E+00 -0.00000000000E+00 -0.74505805969E-08  0.93827000000E+00  0.93827000000E+00 0. -1.
     999902    2    1    2    0    0  0.40672139536E-02  0.21622571979E-01  0.85661959991E-02  0.10203194608E+01  0.10200462462E+01 0.  0.
     999903    2    3    3    0    0  0.33539638958E-01 -0.78445038196E-01 -0.93608138515E-01  0.12828709305E+00  0.20409881147E-01 0.  0.
         14    1    1    2    0    0 -0.40672139536E-02 -0.21622571979E-01 -0.85661959991E-02  0.23610539220E-01  0.00000000000E+00 0. -1.
     999901    1    3    3    0    0 -0.29472425005E-01  0.10006761018E+00  0.10217433451E+00  0.89203236773E+00  0.88000000000E+00 0.  1.
        -11    1    4    4    0    0  0.45801406834E-02 -0.12967465266E-01 -0.27892761764E-01  0.31103056504E-01  0.51100000000E-03 0. -1.
         11    1    4    4    0    0  0.28959498275E-01 -0.65477572930E-01 -0.65715376751E-01  0.97184036547E-01  0.51100000000E-03 0.  1.
</event>
<event>
 8    1  0.1103774E+005  0.1043930E+01  0.7957747E-01            NaN
         13   -1    0    0    0    0  0.00000000000E+00  0.00000000000E+00  0.74505805969E-08  0.10566000000E+00  0.10566000000E+00 0. -1.
     999900   -1    0    0    0    0 -0.00000000000E+00 -0.00000000000E+00 -0.74505805969E-08  0.93827000000E+00  0.93827000000E+00 0. -1.
     999902    2    1    2    0    0 -0.85396135515E-02 -0.53759817428E-02  0.21055985226E-01  0.10205808952E+01  0.10203137670E+01 0.  0.
     999903    2    3    3    0    0 -0.75849629920E-01  0.95789013837E-01  0.45419053401E-01  0.13189728803E+00  0.20132129704E-01 0.  0.
         14    1    1    2    0    0  0.85396135515E-02  0.53759817428E-02 -0.21055985226E-01  0.23349104761E-01  0.00000000000E+00 0.  1.
     999901    1    3    3    0    0  0.67310016368E-01 -0.10116499558E+00 -0.24363068175E-01  0.88868360721E+00  0.88000000000E+00 0. -1.
        -11    1    4    4    0    0 -0.52568099086E-02  0.17371141828E-01  0.43246419922E-02  0.18664251075E-01  0.51100000000E-03 0.  1.
         11    1    4    4    0    0 -0.70592820011E-01  0.78417872009E-01  0.41094411409E-01  0.11323303695E+00  0.51100000000E-03 0. -1.
</event>
<event>
 7    1  0.1103774E+005  0.1043930E+01  0.7957747E-01            NaN
         13   -1    0    0    0    0  0.00000000000E+00  0.00000000000E+00  0.74505805969E-08  0.10566000000E+00  0.10566000000E+00 0.  1.
     999900   -1    0    0    0    0 -0.00000000000E+00 -0.00000000000E+00 -0.74505805969E-08  0.93827000000E+00  0.93827000000E+00 0. -1.
     999902    2    1    2    0    0 -0.42204543468E-02 -0.61928609923E-02  0.22867750807E-01  0.10198655493E+01  0.10195816008E+01 0.  0.
         14    1    1    2    0    0  0.42204543468E-02  0.61928609923E-02 -0.22867750807E-01  0.24064450734E-01  0.00000000000E+00 0. -1.
     999901    1    3    3    0    0  0.18188673440E-01 -0.60272027999E-02  0.14082106012E+00  0.89140211240E+00  0.88000000000E+00 0.  1.
        -11    1    3    3    0    0 -0.10160431642E-01  0.22383736421E-01 -0.47611293272E-01  0.53585094900E-01  0.51100000000E-03 0.  1.
         11    1    3    3    0    0 -0.12248696144E-01 -0.22549394614E-01 -0.70342016037E-01  0.74878341968E-01  0.51100000000E-03 0. -1.
</event>
<event>
 8    1  0.1103774E+005  0.1043930E+01  0.7957747E-01            NaN
         13   -1    0    0    0    0  0.00000000000E+00  0.00000000000E+00  0.74505805969E-08  0.10566000000E+00  0.10566000000E+00 0.  1.
     999900   -1    0    0    0    0 -0.00000000000E+00 -0.00000000000E+00 -0.74505805969E-08  0.93827000000E+00  0.93827000000E+00 0. -1.
     999902    2    1    2    0    0  0.11885344984E-01 -0.14551960624E-02 -0.20739254346E-01  0.10199822299E+01  0.10197010609E+01 0.  0.
     999903    2    3    3    0    0  0.67428549596E-01  0.15860019358E-01  0.10709967503E+00  0.12884382533E+00  0.18227490777E-01 0.  0.
         14    1    1    2    0    0 -0.11885344984E-01  0.14551960624E-02  0.20739254346E-01  0.23947770080E-01  0.00000000000E+00 0.  1.
     999901    1    3    3    0    0 -0.55543204612E-01 -0.17315215420E-01 -0.12783892938E+00  0.89113840459E+00  0.88000000000E+00 0. -1.
        -11    1    4    4    0    0  0.35993054319E-01  0.55540213705E-02  0.71505658816E-01  0.80247538755E-01  0.51100000000E-03 0.  1.
         11    1    4    4    0    0  0.31435495277E-01  0.10305997987E-01  0.35594016217E-01  0.48596286579E-01  0.51100000000E-03 0. -1.
</event>
<event>
 8    1  0.1103774E+005  0.1043930E+01  0.7957747E-01            NaN
         13   -1    0    0    0    0  0.00000000000E+00  0.00000000000E+00  0.74505805969E-08  0.10566000000E+00  0.10566000000E+00 0. -1.
     999900   -1    0    0    0    0 -0.00000000000E+00 -0.00000000000E+00 -0.74505805969E-08  0.93827000000E+00  0.93827000000E+00 0.  1.
     999902    2    1    2    0    0 -0.19399910715E-01 -0.52554618660E-02  0.17213517912E-01  0.10174671654E+01  0.10171229774E+01 0.  0.
     999903    2    3    3    0    0 -0.32709202935E-01 -0.10608728941E+00 -0.60951296858E-01  0.12816747860E+00  0.19683420729E-01 0.  0.
         14    1    1    2    0    0  0.19399910715E-01  0.52554618660E-02 -0.17213517912E-01  0.26462834582E-01  0.00000000000E+00 0.  1.
     999901    1    3    3    0    0  0.13309292220E-01  0.10083182754E+00  0.78164814771E-01  0.88929968682E+00  0.88000000000E+00 0. -1.
        -11    1    4    4    0    0 -0.68800594893E-02 -0.48708984136E-01 -0.20092866343E-01  0.53140236667E-01  0.51100000000E-03 0.  1.
         11    1    4    4    0    0 -0.25829143446E-01 -0.57378305272E-01 -0.40858430515E-01  0.75027241934E-01  0.51100000000E-03 0. -1.
</event>
<event>
 8    1  0.1103774E+005  0.1043930E+01  0.7957747E-01            NaN
         13   -1    0    0    0    0  0.00000000000E+00  0.00000000000E+00  0.74505805969E-08  0.10566000000E+00  0.10566000000E+00 0. -1.
     999900   -1    0    0    0    0 -0.00000000000E+00 -0.00000000000E+00 -0.74505805969E-08  0.93827000000E+00  0.93827000000E+00 0.  1.
     999902    2    1    2    0    0 -0.13201978836E-01 -0.35742320394E-02  0.18494000151E-01  0.10209279257E+01  0.10206687681E+01 0.  0.
     999903    2    3    3    0    0  0.50810463530E-02 -0.11986415712E+00  0.52106267955E-01  0.13245316511E+00  0.20869705136E-01 0.  0.
         14    1    1    2    0    0  0.13201978836E-01  0.35742320394E-02 -0.18494000151E-01  0.23002074286E-01  0.00000000000E+00 0.  1.
     999901    1    3    3    0    0 -0.18283025189E-01  0.11628992508E+00 -0.33612267803E-01  0.88847476061E+00  0.88000000000E+00 0.  1.
        -11    1    4    4    0    0 -0.15106486646E-02 -0.66188363212E-01  0.18357859324E-01  0.68705557301E-01  0.51100000000E-03 0.  1.
         11    1    4    4    0    0  0.65916950176E-02 -0.53675793910E-01  0.33748408631E-01  0.63747607808E-01  0.51100000000E-03 0. -1.
</event>
<event>
 8    1  0.1103774E+005  0.1043930E+01  0.7957747E-01            NaN
         13   -1    0    0    0    0  0.00000000000E+00  0.00000000000E+00  0.74505805969E-08  0.10566000000E+00  0.10566000000E+00 0.  1.
     999900   -1    0    0    0    0 -0.00000000000E+00 -0.00000000000E+00 -0.74505805969E-08  0.93827000000E+00  0.93827000000E+00 0. -1.
     999902    2    1    2    0    0  0.16086864990E-01  0.12575241549E-01 -0.11300349423E-01  0.10205928660E+01  0.10203260147E+01 0.  0.
     999903    2    3    3    0    0  0.33868027753E-01  0.12465465399E+00  0.25108596706E-01  0.13255932172E+00  0.15990812401E-01 0.  0.
         14    1    1    2    0    0 -0.16086864990E-01 -0.12575241549E-01  0.11300349423E-01  0.23337133978E-01  0.00000000000E+00 0.  1.
     999901    1    3    3    0    0 -0.17781162764E-01 -0.11207941244E+00 -0.36408946129E-01  0.88803354430E+00  0.88000000000E+00 0. -1.
        -11    1    4    4    0    0  0.31162590303E-01  0.12236687596E+00  0.22843650110E-01  0.12832323577E+00  0.51100000000E-03 0. -1.
         11    1    4    4    0    0  0.27054374501E-02  0.22877780279E-02  0.22649465952E-02  0.42360859505E-02  0.51100000000E-03 0.  1.
</event>
<event>
 8    1  0.1103774E+005  0.1043930E+01  0.7957747E-01            NaN
         13   -1    0    0    0    0  0.00000000000E+00  0.00000000000E+00  0.74505805969E-08  0.10566000000E+00  0.10566000000E+00 0. -1.
     999900   -1    0    0    0    0 -0.00000000000E+00 -0.00000000000E+00 -0.74505805969E-08  0.93827000000E+00  0.93827000000E+00 0.  1.
     999902    2    1    2    0    0 -0.97243793487E-02  0.13810681447E-01  0.41952860606E-02  0.10265260091E+01  0.10263784625E+01 0.  0.
     999903    2    3    3    0    0 -0.62149729036E-01  0.38605723018E-01 -0.11368291398E+00  0.13677408777E+00  0.20745011094E-01 0.  0.
         14    1    1    2    0    0  0.97243793487E-02 -0.13810681447E-01 -0.41952860606E-02  0.17403990947E-01  0.00000000000E+00 0. -1.
     999901    1    3    3    0    0  0.52425349688E-01 -0.24795041571E-01  0.11787820004E+00  0.88975192128E+00  0.88000000000E+00 0. -1.
        -11    1    4    4    0    0 -0.27037061249E-01  0.28397601503E-01 -0.53110330137E-01  0.66018139480E-01  0.51100000000E-03 0.  1.
         11    1    4    4    0    0 -0.35112667787E-01  0.10208121515E-01 -0.60572583846E-01  0.70755948293E-01  0.51100000000E-03 0. -1.
</event>
<event>
 8    1  0.1103774E+005  0.1043930E+01  0.7957747E-01            NaN
         13   -1    0    0    0    0  0.00000000000E+00  0.00000000000E+00  0.74505805969E-08  0.10566000000E+00  0.10566000000E+00 0.  1.
     999900   -1    0    0    0    0 -0.00000000000E+00 -0.00000000000E+00 -0.74505805969E-08  0.93827000000E+00  0.93827000000E+00 0.  1.
     999902    2    1    2    0    0  0.25780261251E-02  0.19701813681E-02 -0.23338318784E-01  0.10203672125E+01  0.10200951148E+01 0.  0.
     999903    2    3    3    0    0 -0.61478457152E-01  0.55279938134E-01  0.96198812342E-01  0.12838386679E+00  0.19817504958E-01 0.  0.
         14    1    1    2    0    0 -0.25780261251E-02 -0.19701813681E-02  0.23338318784E-01  0.23562787547E-01  0.00000000000E+00 0.  1.
     999901    1    3    3    0    0  0.64056483277E-01 -0.53309756766E-01 -0.11953713113E+00  0.89198334566E+00  0.88000000000E+00 0.  1.
        -11    1    4    4    0    0 -0.31524514656E-01  0.19358470949E-01  0.31767850065E-01  0.48764770486E-01  0.51100000000E-03 0.  1.
         11    1    4    4    0    0 -0.29953942496E-01  0.35921467185E-01  0.64430962277E-01  0.79619096307E-01  0.51100000000E-03 0. -1.
</event>
<event>
 8    1  0.1103774E+005  0.1043930E+01  0.7957747E-01            NaN
         13   -1    0    0    0    0  0.00000000000E+00  0.00000000000E+00  0.74505805969E-08  0.10566000000E+00  0.10566000000E+00 0.  1.
     999900   -1    0    0    0    0 -0.00000000000E+00 -0.00000000000E+00 -0.74505805969E-08  0.93827000000E+00  0.93827000000E+00 0.  1.
     999902    2    1    2    0    0 -0.58749401080E-02 -0.28184703223E-02  0.23235165737E-01  0.10197984517E+01  0.10195128986E+01 0.  0.
     999903    2    3    3    0    0  0.59781197708E-01 -0.89369711433E-01  0.73296317577E-01  0.13170613404E+00  0.20332699102E-01 0.  0.
         14    1    1    2    0    0  0.58749401080E-02  0.28184703223E-02 -0.23235165737E-01  0.24131548294E-01  0.00000000000E+00 0. -1.
     999901    1    3    3    0    0 -0.65656137816E-01  0.86551241111E-01 -0.50061151840E-01  0.88809231766E+00  0.88000000000E+00 0. -1.
        -11    1    4    4    0    0  0.20842299186E-01 -0.49327199733E-01  0.37078487501E-01  0.65135623320E-01  0.51100000000E-03 0.  1.
         11    1    4    4    0    0  0.38938898522E-01 -0.40042511700E-01  0.36217830076E-01  0.66570510722E-01  0.51100000000E-03 0. -1.
</event>
<event>
 8    1  0.1103774E+005  0.1043930E+01  0.7957747E-01            NaN
         13   -1    0    0    0    0  0.00000000000E+00  0.00000000000E+00  0.74505805969E-08  0.10566000000E+00  0.10566000000E+00 0.  1.
     999900   -1    0    0    0    0 -0.00000000000E+00 -0.00000000000E+00 -0.74505805969E-08  0.93827000000E+00  0.93827000000E+00 0. -1.
     999902    2    1    2    0    0 -0.84992410469E-02 -0.13842884745E-01 -0.18569449136E-01  0.10192584172E+01  0.10189597804E+01 0.  0.
     999903    2    3    3    0    0  0.53479460068E-01  0.88049703829E-01  0.71150219827E-01  0.12669296975E+00  0.19389476727E-01 0.  0.
         14    1    1    2    0    0  0.84992410469E-02  0.13842884745E-01  0.18569449136E-01  0.24671582796E-01  0.00000000000E+00 0.  1.
     999901    1    3    3    0    0 -0.61978701115E-01 -0.10189258857E+00 -0.89719668963E-01  0.89256544746E+00  0.88000000000E+00 0.  1.
        -11    1    4    4    0    0  0.22953935768E-01  0.54527422077E-01  0.35332643889E-01  0.68911390719E-01  0.51100000000E-03 0.  1.
         11    1    4    4    0    0  0.30525524300E-01  0.33522281752E-01  0.35817575938E-01  0.57781579026E-01  0.51100000000E-03 0. -1.
</event>
<event>
 8    1  0.1103774E+005  0.1043930E+01  0.7957747E-01            NaN
         13   -1    0    0    0    0  0.00000000000E+00  0.00000000000E+00  0.74505805969E-08  0.10566000000E+00  0.10566000000E+00 0. -1.
     999900   -1    0    0    0    0 -0.00000000000E+00 -0.00000000000E+00 -0.74505805969E-08  0.93827000000E+00  0.93827000000E+00 0.  1.
     999902    2    1    2    0    0 -0.20575171732E-01  0.17476798870E-01 -0.49933235055E-02  0.10164762303E+01  0.10161054164E+01 0.  0.
     999903    2    3    3    0    0  0.10762928197E+00  0.63180372117E-01  0.14659777741E-01  0.12579590441E+00  0.58205432459E-02 0.  0.
         14    1    1    2    0    0  0.20575171732E-01 -0.17476798870E-01  0.49933235055E-02  0.27453769690E-01  0.00000000000E+00 0. -1.
     999901    1    3    3    0    0 -0.12820445371E+00 -0.45703573247E-01 -0.19653101247E-01  0.89068032590E+00  0.88000000000E+00 0. -1.
        -11    1    4    4    0    0  0.57108577807E-01  0.31056523054E-01  0.57031219815E-02  0.65258593340E-01  0.51100000000E-03 0.  1.
         11    1    4    4    0    0  0.50520704168E-01  0.32123849063E-01  0.89566557599E-02  0.60537311070E-01  0.51100000000E-03 0. -1.
</event>
<event>
 8    1  0.1103774E+005  0.1043930E+01  0.7957747E-01            NaN
         13   -1    0    0    0    0  0.00000000000E+00  0.00000000000E+00  0.74505805969E-08  0.10566000000E+00  0.10566000000E+00 0.  1.
     999900   -1    0    0    0    0 -0.00000000000E+00 -0.00000000000E+00 -0.74505805969E-08  0.93827000000E+00  0.93827000000E+00 0. -1.
     999902    2    1    2    0    0  0.10847037972E-01 -0.93405771988E-02  0.19117844667E-01  0.10200470228E+01  0.10197673912E+01 0.  0.
     999903    2    3    3    0    0  0.18301921401E-02  0.63811629973E-01  0.11355522363E+00  0.13193049471E+00  0.20870862385E-01 0.  0.
         14    1    1    2    0    0 -0.10847037972E-01  0.93405771988E-02 -0.19117844667E-01  0.23882977199E-01  0.00000000000E+00 0. -1.
     999901    1    3    3    0    0  0.90168458316E-02 -0.73152207172E-01 -0.94437378967E-01  0.88811652809E+00  0.88000000000E+00 0. -1.
        -11    1    4    4    0    0  0.83804013760E-02  0.10484398257E-01  0.22949491441E-01  0.26591239392E-01  0.51100000000E-03 0. -1.
         11    1    4    4    0    0 -0.65502092359E-02  0.53327231716E-01  0.90605732193E-01  0.10533925532E+00  0.51100000000E-03 0.  1.
</event>
<event>
 8    1  0.1103774E+005  0.1043930E+01  0.7957747E-01            NaN
         13   -1    0    0    0    0  0.00000000000E+00  0.00000000000E+00  0.74505805969E-08  0.10566000000E+00  0.10566000000E+00 0. -1.
     999900   -1    0    0    0    0 -0.00000000000E+00 -0.00000000000E+00 -0.74505805969E-08  0.93827000000E+00  0.93827000000E+00 0.  1.
     999902    2    1    2    0    0 -0.13944270319E-01  0.17833149330E-01 -0.14045355969E-02  0.10212488049E+01  0.10209969074E+01 0.  0.
     999903    2    3    3    0    0  0.26690391920E-01 -0.57904104964E-01  0.11151344246E+00  0.12988031926E+00  0.19193412697E-01 0.  0.
         14    1    1    2    0    0  0.13944270319E-01 -0.17833149330E-01  0.14045355969E-02  0.22681195074E-01  0.00000000000E+00 0. -1.
     999901    1    3    3    0    0 -0.40634662239E-01  0.75737254295E-01 -0.11291797805E+00  0.89136848566E+00  0.88000000000E+00 0.  1.
        -11    1    4    4    0    0  0.20325544792E-01 -0.21603379450E-01  0.52508069347E-01  0.60309138961E-01  0.51100000000E-03 0. -1.
         11    1    4    4    0    0  0.63648471289E-02 -0.36300725515E-01  0.59005373110E-01  0.69571180303E-01  0.51100000000E-03 0.  1.
</event>
<event>
 8    1  0.1103774E+005  0.1043930E+01  0.7957747E-01            NaN
         13   -1    0    0    0    0  0.00000000000E+00  0.00000000000E+00  0.74505805969E-08  0.10566000000E+00  0.10566000000E+00 0. -1.
     999900   -1    0    0    0    0 -0.00000000000E+00 -0.00000000000E+00 -0.74505805969E-08  0.93827000000E+00  0.93827000000E+00 0.  1.
     999902    2    1    2    0    0  0.42065879909E-02  0.22518735847E-01 -0.44022024036E-02  0.10206025862E+01  0.10203359598E+01 0.  0.
     999903    2    3    3    0    0 -0.11107336279E+00 -0.62081709434E-01  0.75779635970E-02  0.12898034181E+00  0.19674157459E-01 0.  0.
         14    1    1    2    0    0 -0.42065879909E-02 -0.22518735847E-01  0.44022024036E-02  0.23327413759E-01  0.00000000000E+00 0.  1.
     999901    1    3    3    0    0  0.11527995078E+00  0.84600445281E-01 -0.11980166001E-01  0.89162224444E+00  0.88000000000E+00 0.  1.
        -11    1    4    4    0    0 -0.61619682969E-01 -0.40923081935E-01  0.12271784354E-01  0.74983610052E-01  0.51100000000E-03 0.  1.
         11    1    4    4    0    0 -0.49453679824E-01 -0.21158627499E-01 -0.46938207567E-02  0.53996731754E-01  0.51100000000E-03 0. -1.
</event>
<event>
 8    1  0.1103774E+005  0.1043930E+01  0.7957747E-01            NaN
         13   -1    0    0    0    0  0.00000000000E+00  0.00000000000E+00  0.74505805969E-08  0.10566000000E+00  0.10566000000E+00 0. -1.
     999900   -1    0    0    0    0 -0.00000000000E+00 -0.00000000000E+00 -0.74505805969E-08  0.93827000000E+00  0.93827000000E+00 0. -1.
     999902    2    1    2    0    0 -0.31878569457E-02 -0.14244233286E-01 -0.18833087842E-01  0.10201025828E+01  0.10198242660E+01 0.  0.
     999903    2    3    3    0    0 -0.47725923313E-01 -0.54145159681E-01  0.10551911928E+00  0.12935054394E+00  0.19693059930E-01 0.  0.
         14    1    1    2    0    0  0.31878569457E-02  0.14244233286E-01  0.18833087842E-01  0.23827417222E-01  0.00000000000E+00 0. -1.
     999901    1    3    3    0    0  0.44538066367E-01  0.39900926396E-01 -0.12435220713E+00  0.89075203884E+00  0.88000000000E+00 0. -1.
        -11    1    4    4    0    0 -0.40174165088E-01 -0.43299740924E-01  0.70842614701E-01  0.92237564383E-01  0.51100000000E-03 0.  1.
         11    1    4    4    0    0 -0.75517582246E-02 -0.10845418757E-01  0.34676504583E-01  0.37112979554E-01  0.51100000000E-03 0. -1.
</event>
<event>
 8    1  0.1103774E+005  0.1043930E+01  0.7957747E-01            NaN
         13   -1    0    0    0    0  0.00000000000E+00  0.00000000000E+00  0.74505805969E-08  0.10566000000E+00  0.10566000000E+00 0.  1.
     999900   -1    0    0    0    0 -0.00000000000E+00 -0.00000000000E+00 -0.74505805969E-08  0.93827000000E+00  0.93827000000E+00 0.  1.
     999902    2    1    2    0    0 -0.20549553951E-01 -0.44029660367E-02 -0.19613403264E-01  0.10151835939E+01  0.10147765140E+01 0.  0.
     999903    2    3    3    0    0 -0.83902407499E-01  0.50436159905E-01 -0.81830273363E-01  0.12901664983E+00  0.19122815834E-01 0.  0.
         14    1    1    2    0    0  0.20549553951E-01  0.44029660367E-02  0.19613403264E-01  0.28746406125E-01  0.00000000000E+00 0. -1.
     999901    1    3    3    0    0  0.63352853548E-01 -0.54839125942E-01  0.62216870099E-01  0.88616694404E+00  0.88000000000E+00 0. -1.
        -11    1    4    4    0    0 -0.42899260362E-01  0.17214605692E-01 -0.30406576841E-01  0.55330915634E-01  0.51100000000E-03 0. -1.
         11    1    4    4    0    0 -0.41003147137E-01  0.33221554213E-01 -0.51423696522E-01  0.73685734199E-01  0.51100000000E-03 0.  1.
</event>
<event>
 8    1  0.1103774E+005  0.1043930E+01  0.7957747E-01            NaN
         13   -1    0    0    0    0  0.00000000000E+00  0.00000000000E+00  0.74505805969E-08  0.10566000000E+00  0.10566000000E+00 0. -1.
     999900   -1    0    0    0    0 -0.00000000000E+00 -0.00000000000E+00 -0.74505805969E-08  0.93827000000E+00  0.93827000000E+00 0. -1.
     999902    2    1    2    0    0  0.23695427272E-01  0.13088668653E-02  0.22665567213E-02  0.10200904596E+01  0.10198118562E+01 0.  0.
     999903    2    3    3    0    0 -0.71276707686E-01 -0.98513643414E-01 -0.36755608887E-01  0.12851490512E+00  0.19488433903E-01 0.  0.
         14    1    1    2    0    0 -0.23695427272E-01 -0.13088668653E-02 -0.22665567213E-02  0.23839540378E-01  0.00000000000E+00 0.  1.
     999901    1    3    3    0    0  0.94972134958E-01  0.99822510279E-01  0.39022165609E-01  0.89157555450E+00  0.88000000000E+00 0.  1.
        -11    1    4    4    0    0 -0.26168866263E-01 -0.21416354160E-01 -0.97282329043E-02  0.35190473475E-01  0.51100000000E-03 0. -1.
         11    1    4    4    0    0 -0.45107841423E-01 -0.77097289254E-01 -0.27027375983E-01  0.93324431644E-01  0.51100000000E-03 0.  1.
</event>
<event>
 8    1  0.1103774E+005  0.1043930E+01  0.7957747E-01            NaN
         13   -1    0    0    0    0  0.00000000000E+00  0.00000000000E+00  0.74505805969E-08  0.10566000000E+00  0.10566000000E+00 0. -1.
     999900   -1    0    0    0    0 -0.00000000000E+00 -0.00000000000E+00 -0.74505805969E-08  0.93827000000E+00  0.93827000000E+00 0.  1.
     999902    2    1    2    0    0  0.41131444805E-02 -0.24098181857E-01 -0.31170157319E-02  0.10192854040E+01  0.10189874281E+01 0.  0.
     999903    2    3    3    0    0 -0.45542561836E-01 -0.56583731282E-01  0.10644591874E+00  0.13050813339E+00  0.20634817164E-01 0.  0.
         14    1    1    2    0    0 -0.41131444805E-02  0.24098181857E-01  0.31170157319E-02  0.24644596028E-01  0.00000000000E+00 0.  1.
     999901    1    3    3    0    0  0.49655706316E-01  0.32485549425E-01 -0.10956293448E+00  0.88877727058E+00  0.88000000000E+00 0.  1.
        -11    1    4    4    0    0 -0.29023800337E-01 -0.23840466297E-01  0.41928750695E-01  0.56294138905E-01  0.51100000000E-03 0.  1.
         11    1    4    4    0    0 -0.16518761499E-01 -0.32743264985E-01  0.64517168049E-01  0.74213994485E-01  0.51100000000E-03 0. -1.
</event>
<event>
 8    1  0.1103774E+005  0.1043930E+01  0.7957747E-01            NaN
         13   -1    0    0    0    0  0.00000000000E+00  0.00000000000E+00  0.74505805969E-08  0.10566000000E+00  0.10566000000E+00 0.  1.
     999900   -1    0    0    0    0 -0.00000000000E+00 -0.00000000000E+00 -0.74505805969E-08  0.93827000000E+00  0.93827000000E+00 0.  1.
     999902    2    1    2    0    0  0.40658959476E-02 -0.22523380841E-01  0.44771154628E-02  0.10206087917E+01  0.10203423087E+01 0.  0.
     999903    2    3    3    0    0  0.77807097328E-02 -0.70510754558E-01 -0.10941839787E+00  0.13196444447E+00  0.20246551800E-01 0.  0.
         14    1    1    2    0    0 -0.40658959476E-02  0.22523380841E-01 -0.44771154628E-02  0.23321208314E-01  0.00000000000E+00 0. -1.
     999901    1    3    3    0    0 -0.37148137852E-02  0.47987373718E-01  0.11389551333E+00  0.88864434721E+00  0.88000000000E+00 0. -1.
        -11    1    4    4    0    0  0.90721318951E-02 -0.41593402748E-01 -0.48623942500E-01  0.64628659544E-01  0.51100000000E-03 0. -1.
         11    1    4    4    0    0 -0.12914221623E-02 -0.28917351810E-01 -0.60794455371E-01  0.67335784928E-01  0.51100000000E-03 0.  1.
</event>
<event>
 8    1  0.1103774E+005  0.1043930E+01  0.7957747E-01            NaN
         13   -1    0    0    0    0  0.00000000000E+00  0.00000000000E+00  0.74505805969E-08  0.10566000000E+00  0.10566000000E+00 0. -1.
     999900   -1    0    0    0    0 -0.00000000000E+00 -0.00000000000E+00 -0.74505805969E-08  0.93827000000E+00  0.93827000000E+00 0.  1.
     999902    2    1    2    0    0 -0.13488755397E-01 -0.13121244776E-01 -0.13680582043E-01  0.10206647488E+01  0.10203995578E+01 0.  0.
     999903    2    3    3    0    0 -0.11642305947E+00  0.57134802839E-01 -0.12707411201E-01  0.13188337513E+00  0.20323185430E-01 0.  0.
         14    1    1    2    0    0  0.13488755397E-01  0.13121244776E-01  0.13680582043E-01  0.23265251163E-01  0.00000000000E+00 0. -1.
     999901    1    3    3    0    0  0.10293430407E+00 -0.70256047615E-01 -0.97317084251E-03  0.88878137370E+00  0.88000000000E+00 0.  1.
        -11    1    4    4    0    0 -0.53420407096E-01  0.25622898584E-01 -0.15963124631E-01  0.61362490947E-01  0.51100000000E-03 0. -1.
         11    1    4    4    0    0 -0.63002652371E-01  0.31511904254E-01  0.32557134308E-02  0.70520884187E-01  0.51100000000E-03 0.  1.
</event>
<event>
 8    1  0.1103774E+005  0.1043930E+01  0.7957747E-01            NaN
         13   -1    0    0    0    0  0.00000000000E+00  0.00000000000E+00  0.74505805969E-08  0.10566000000E+00  0.10566000000E+00 0. -1.
     999900   -1    0    0    0    0 -0.00000000000E+00 -0.00000000000E+00 -0.74505805969E-08  0.93827000000E+00  0.93827000000E+00 0. -1.
     999902    2    1    2    0    0 -0.21773526179E-01  0.11548555878E-01  0.20970310548E-02  0.10191943350E+01  0.10188941257E+01 0.  0.
     999903    2    3    3    0    0  0.75625805324E-01 -0.36408126250E-01  0.93959841076E-01  0.12777678466E+00  0.21298846800E-01 0.  0.
         14    1    1    2    0    0  0.21773526179E-01 -0.11548555878E-01 -0.20970310548E-02  0.24735665029E-01  0.00000000000E+00 0. -1.
     999901    1    3    3    0    0 -0.97399331504E-01  0.47956682128E-01 -0.91862810021E-01  0.89141755031E+00  0.88000000000E+00 0. -1.
        -11    1    4    4    0    0  0.64977149260E-01 -0.22719555778E-01  0.69808279856E-01  0.98039100354E-01  0.51100000000E-03 0. -1.
         11    1    4    4    0    0  0.10648656064E-01 -0.13688570471E-01  0.24151561220E-01  0.29737684306E-01  0.51100000000E-03 0.  1.
</event>
<event>
 8    1  0.1103774E+005  0.1043930E+01  0.7957747E-01            NaN
         13   -1    0    0    0    0  0.00000000000E+00  0.00000000000E+00  0.74505805969E-08  0.10566000000E+00  0.10566000000E+00 0. -1.
     999900   -1    0    0    0    0 -0.00000000000E+00 -0.00000000000E+00 -0.74505805969E-08  0.93827000000E+00  0.93827000000E+00 0. -1.
     999902    2    1    2    0    0 -0.24397872862E-01 -0.34747915852E-02 -0.17174718378E-02  0.10192261524E+01  0.10189267244E+01 0.  0.
     999903    2    3    3    0    0  0.88394597802E-01 -0.13064135185E-01 -0.88798537541E-01  0.12771215422E+00  0.20998512250E-01 0.  0.
         14    1    1    2    0    0  0.24397872862E-01  0.34747915852E-02  0.17174718378E-02  0.24703847601E-01  0.00000000000E+00 0. -1.
     999901    1    3    3    0    0 -0.11279247066E+00  0.95893436003E-02  0.87081065703E-01  0.89151399818E+00  0.88000000000E+00 0.  1.
        -11    1    4    4    0    0  0.25489406833E-01  0.30642471909E-02 -0.34831494340E-01  0.43273474445E-01  0.51100000000E-03 0.  1.
         11    1    4    4    0    0  0.62905190969E-01 -0.16128382376E-01 -0.53967043201E-01  0.84438679773E-01  0.51100000000E-03 0. -1.
</event>
<event>
 8    1  0.1103774E+005  0.1043930E+01  0.7957747E-01            NaN
         13   -1    0    0    0    0  0.00000000000E+00  0.00000000000E+00  0.74505805969E-08  0.10566000000E+00  0.10566000000E+00 0. -1.
     999900   -1    0    0    0    0 -0.00000000000E+00 -0.00000000000E+00 -0.74505805969E-08  0.93827000000E+00  0.93827000000E+00 0.  1.
     999902    2    1    2    0    0  0.11703887381E-01 -0.14283221599E-01  0.15183540895E-01  0.10200232789E+01  0.10197430844E+01 0.  0.
     999903    2    3    3    0    0 -0.49932052101E-01 -0.40392324988E-01  0.11366505535E+00  0.13200341258E+00  0.19504009288E-01 0.  0.
         14    1    1    2    0    0 -0.11703887381E-01  0.14283221599E-01 -0.15183540895E-01  0.23906721088E-01  0.00000000000E+00 0. -1.
     999901    1    3    3    0    0  0.61635939481E-01  0.26109103389E-01 -0.98481514460E-01  0.88801986634E+00  0.88000000000E+00 0.  1.
        -11    1    4    4    0    0 -0.33630133754E-01 -0.18989506555E-01  0.80566284053E-01  0.89346373752E-01  0.51100000000E-03 0. -1.
         11    1    4    4    0    0 -0.16301918347E-01 -0.21402818433E-01  0.33098771302E-01  0.42657038825E-01  0.51100000000E-03 0.  1.
</event>
<event>
 8    1  0.1103774E+005  0.1043930E+01  0.7957747E-01            NaN
         13   -1    0    0    0    0  0.00000000000E+00  0.00000000000E+00  0.74505805969E-08  0.10566000000E+00  0.10566000000E+00 0.  1.
     999900   -1    0    0    0    0 -0.00000000000E+00 -0.00000000000E+00 -0.74505805969E-08  0.93827000000E+00  0.93827000000E+00 0. -1.
     999902    2    1    2    0    0  0.31944306197E-03  0.49323283327E-03  0.23491987327E-01  0.10204306640E+01  0.10201600469E+01 0.  0.
     999903    2    3    3    0    0  0.28524830293E-01 -0.26860586885E-01  0.12623810787E+00  0.13358200692E+00  0.19311541206E-01 0.  0.
         14    1    1    2    0    0 -0.31944306197E-03 -0.49323283327E-03 -0.23491987327E-01  0.23499335970E-01  0.00000000000E+00 0. -1.
     999901    1    3    3    0    0 -0.28205387231E-01  0.27353819718E-01 -0.10274612055E+00  0.88684865711E+00  0.88000000000E+00 0. -1.
        -11    1    4    4    0    0  0.29515472011E-01 -0.25839153055E-01  0.10180932332E+00  0.10910648173E+00  0.51100000000E-03 0. -1.
         11    1    4    4    0    0 -0.99064171783E-03 -0.10214338301E-02  0.24428784549E-01  0.24475525196E-01  0.51100000000E-03 0.  1.
</event>
<event>
 8    1  0.1103774E+005  0.1043930E+01  0.7957747E-01            NaN
         13   -1    0    0    0    0  0.00000000000E+00  0.00000000000E+00  0.74505805969E-08  0.10566000000E+00  0.10566000000E+00 0.  1.
     999900   -1    0    0    0    0 -0.00000000000E+00 -0.00000000000E+00 -0.74505805969E-08  0.93827000000E+00  0.93827000000E+00 0. -1.
     999902    2    1    2    0    0 -0.22357982078E-02 -0.23169222110E-01 -0.43483626994E-02  0.10202504750E+01  0.10199756427E+01 0.  0.
     999903    2    3    3    0    0 -0.78540365791E-01 -0.86066902889E-01  0.59643819656E-01  0.13240279397E+00  0.19925205049E-01 0.  0.
         14    1    1    2    0    0  0.22357982078E-02  0.23169222110E-01  0.43483626994E-02  0.23679525015E-01  0.00000000000E+00 0. -1.
     999901    1    3    3    0    0  0.76304567583E-01  0.62897680779E-01 -0.63992182356E-01  0.88784768102E+00  0.88000000000E+00 0. -1.
        -11    1    4    4    0    0 -0.31969873429E-01 -0.33698434100E-01  0.34817099276E-01  0.58052982618E-01  0.51100000000E-03 0.  1.
         11    1    4    4    0    0 -0.46570492362E-01 -0.52368468789E-01  0.24826720380E-01  0.74349811351E-01  0.51100000000E-03 0. -1.
</event>
<event>
 8    1  0.1103774E+005  0.1043930E+01  0.7957747E-01            NaN
         13   -1    0    0    0    0  0.00000000000E+00  0.00000000000E+00  0.74505805969E-08  0.10566000000E+00  0.10566000000E+00 0. -1.
     999900   -1    0    0    0    0 -0.00000000000E+00 -0.00000000000E+00 -0.74505805969E-08  0.93827000000E+00  0.93827000000E+00 0.  1.
     999902    2    1    2    0    0 -0.19799307010E-01 -0.62291510828E-02  0.13211336322E-01  0.10193260514E+01  0.10190290696E+01 0.  0.
     999903    2    3    3    0    0 -0.73840436222E-01 -0.21586765856E-01  0.10628403643E+00  0.13263623666E+00  0.19433898077E-01 0.  0.
         14    1    1    2    0    0  0.19799307010E-01  0.62291510828E-02 -0.13211336322E-01  0.24603948641E-01  0.00000000000E+00 0.  1.
     999901    1    3    3    0    0  0.54041129212E-01  0.15357614774E-01 -0.93072700111E-01  0.88668981470E+00  0.88000000000E+00 0.  1.
        -11    1    4    4    0    0 -0.53050242279E-01 -0.60812462255E-02  0.70697839676E-01  0.88598845463E-01  0.51100000000E-03 0.  1.
         11    1    4    4    0    0 -0.20790193942E-01 -0.15505519631E-01  0.35586196757E-01  0.44037391201E-01  0.51100000000E-03 0. -1.
</event>
<event>
 8    1  0.1121507E+005  0.1043930E+01  0.7957747E-01            NaN
         13   -1    0    0    0    0  0.00000000000E+00  0.00000000000E+00  0.74505805969E-08  0.10566000000E+00  0.10566000000E+00 0. -1.
     999900   -1    0    0    0    0 -0.00000000000E+00 -0.00000000000E+00 -0.74505805969E-08  0.93827000000E+00  0.93827000000E+00 0. -1.
     999902    2    1    2    0    0  0.19558647027E-01  0.13038037829E-01  0.50003095633E-03  0.10204187020E+01  0.10201478061E+01 0.  0.
     999903    2    3    3    0    0  0.99603873696E-02  0.32722149033E-01  0.12524470125E+00  0.13135131218E+00  0.19924448971E-01 0.  0.
         14    1    1    2    0    0 -0.19558647027E-01 -0.13038037829E-01 -0.50003095633E-03  0.23511298027E-01  0.00000000000E+00 0. -1.
     999901    1    3    3    0    0  0.95982596575E-02 -0.19684111203E-01 -0.12474467029E+00  0.88906738979E+00  0.88000000000E+00 0. -1.
        -11    1    4    4    0    0 -0.53277984669E-02  0.14926648099E-01  0.43276216575E-01  0.46089937102E-01  0.51100000000E-03 0. -1.
         11    1    4    4    0    0  0.15288185837E-01  0.17795500934E-01  0.81968484675E-01  0.85261375080E-01  0.51100000000E-03 0.  1.
</event>
<event>
 8    1  0.1103774E+005  0.1043930E+01  0.7957747E-01            NaN
         13   -1    0    0    0    0  0.00000000000E+00  0.00000000000E+00  0.74505805969E-08  0.10566000000E+00  0.10566000000E+00 0.  1.
     999900   -1    0    0    0    0 -0.00000000000E+00 -0.00000000000E+00 -0.74505805969E-08  0.93827000000E+00  0.93827000000E+00 0. -1.
     999902    2    1    2    0    0 -0.17300954473E-01 -0.91018316622E-02 -0.13901669025E-01  0.10199420287E+01  0.10196599037E+01 0.  0.
     999903    2    3    3    0    0 -0.42443898531E-01  0.87803038939E-01 -0.85768794420E-01  0.13135460740E+00  0.19669484490E-01 0.  0.
         14    1    1    2    0    0  0.17300954473E-01  0.91018316622E-02  0.13901669025E-01  0.23987971297E-01  0.00000000000E+00 0.  1.
     999901    1    3    3    0    0  0.25142944058E-01 -0.96904870601E-01  0.71867125395E-01  0.88858742130E+00  0.88000000000E+00 0.  1.
        -11    1    4    4    0    0  0.16176536509E-02  0.13354307649E-02 -0.35779938206E-02  0.41789160607E-02  0.51100000000E-03 0.  1.
         11    1    4    4    0    0 -0.44061552182E-01  0.86467608174E-01 -0.82190800599E-01  0.12717569134E+00  0.51100000000E-03 0. -1.
</event>
<event>
 8    1  0.1103774E+005  0.1043930E+01  0.7957747E-01            NaN
         13   -1    0    0    0    0  0.00000000000E+00  0.00000000000E+00  0.74505805969E-08  0.10566000000E+00  0.10566000000E+00 0. -1.
     999900   -1    0    0    0    0 -0.00000000000E+00 -0.00000000000E+00 -0.74505805969E-08  0.93827000000E+00  0.93827000000E+00 0.  1.
     999902    2    1    2    0    0 -0.23768738163E-01 -0.21715767366E-02 -0.26535050205E-02  0.10199152181E+01  0.10196324546E+01 0.  0.
     999903    2    3    3    0    0  0.87681505872E-01 -0.97902454889E-02  0.90488474262E-01  0.12797652667E+00  0.20147754879E-01 0.  0.
         14    1    1    2    0    0  0.23768738163E-01  0.21715767366E-02  0.26535050205E-02  0.24014781871E-01  0.00000000000E+00 0. -1.
     999901    1    3    3    0    0 -0.11145024404E+00  0.76186687523E-02 -0.93141979282E-01  0.89193869145E+00  0.88000000000E+00 0.  1.
        -11    1    4    4    0    0  0.41822782441E-01 -0.48577981041E-02  0.29074204222E-01  0.51169461651E-01  0.51100000000E-03 0. -1.
         11    1    4    4    0    0  0.45858723431E-01 -0.49324473848E-02  0.61414270040E-01  0.76807065023E-01  0.51100000000E-03 0.  1.
</event>
<event>
 8    1  0.1103774E+005  0.1043930E+01  0.7957747E-01            NaN
         13   -1    0    0    0    0  0.00000000000E+00  0.00000000000E+00  0.74505805969E-08  0.10566000000E+00  0.10566000000E+00 0.  1.
     999900   -1    0    0    0    0 -0.00000000000E+00 -0.00000000000E+00 -0.74505805969E-08  0.93827000000E+00  0.93827000000E+00 0.  1.
     999902    2    1    2    0    0  0.12052164423E-01  0.89101707177E-02  0.18450473632E-01  0.10201588876E+01  0.10198819001E+01 0.  0.
     999903    2    3    3    0    0  0.55056503901E-01  0.77249294568E-01  0.91720786123E-01  0.13342998437E+00  0.19803686219E-01 0.  0.
         14    1    1    2    0    0 -0.12052164423E-01 -0.89101707177E-02 -0.18450473632E-01  0.23771112442E-01  0.00000000000E+00 0. -1.
     999901    1    3    3    0    0 -0.43004339478E-01 -0.68339123851E-01 -0.73270312491E-01  0.88672890319E+00  0.88000000000E+00 0.  1.
        -11    1    4    4    0    0 -0.31089727582E-03 -0.23395746704E-03  0.36797678043E-02  0.37353989487E-02  0.51100000000E-03 0. -1.
         11    1    4    4    0    0  0.55367401177E-01  0.77483252035E-01  0.88041018318E-01  0.12969458542E+00  0.51100000000E-03 0.  1.
</event>
<event>
 8    1  0.1103774E+005  0.1043930E+01  0.7957747E-01            NaN
         13   -1    0    0    0    0  0.00000000000E+00  0.00000000000E+00  0.74505805969E-08  0.10566000000E+00  0.10566000000E+00 0. -1.
     999900   -1    0    0    0    0 -0.00000000000E+00 -0.00000000000E+00 -0.74505805969E-08  0.93827000000E+00  0.93827000000E+00 0. -1.
     999902    2    1    2    0    0  0.25138264544E-01 -0.15313829929E-01  0.19322593948E-01  0.10087190874E+01  0.10081043541E+01 0.  0.
     999903    2    3    3    0    0 -0.19692582767E-01 -0.99538322114E-01 -0.60579914657E-01  0.11996266358E+00  0.20626177711E-01 0.  0.
         14    1    1    2    0    0 -0.25138264544E-01  0.15313829929E-01 -0.19322593948E-01  0.35210912631E-01  0.00000000000E+00 0.  1.
     999901    1    3    3    0    0  0.44830847312E-01  0.84224492184E-01  0.79902508605E-01  0.88875642379E+00  0.88000000000E+00 0.  1.
        -11    1    4    4    0    0 -0.40347308017E-02 -0.50322110233E-01 -0.39808886735E-01  0.64293097724E-01  0.51100000000E-03 0. -1.
         11    1    4    4    0    0 -0.15657851966E-01 -0.49216211881E-01 -0.20771027922E-01  0.55669565851E-01  0.51100000000E-03 0.  1.
</event>
<event>
 8    1  0.1103774E+005  0.1043930E+01  0.7957747E-01            NaN
         13   -1    0    0    0    0  0.00000000000E+00  0.00000000000E+00  0.74505805969E-08  0.10566000000E+00  0.10566000000E+00 0. -1.
     999900   -1    0    0    0    0 -0.00000000000E+00 -0.00000000000E+00 -0.74505805969E-08  0.93827000000E+00  0.93827000000E+00 0.  1.
     999902    2    1    2    0    0 -0.13909752145E-01  0.10501219934E-01 -0.15754602030E-01  0.10204360793E+01  0.10201655883E+01 0.  0.
     999903    2    3    3    0    0  0.21999033968E-03  0.10126199246E+00  0.80016746384E-01  0.13048702535E+00  0.19239141583E-01 0.  0.
         14    1    1    2    0    0  0.13909752145E-01 -0.10501219934E-01  0.15754602030E-01  0.23493920702E-01  0.00000000000E+00 0. -1.
     999901    1    3    3    0    0 -0.14129742485E-01 -0.90760772527E-01 -0.95771348413E-01  0.88994905395E+00  0.88000000000E+00 0.  1.
        -11    1    4    4    0    0  0.87569998925E-02  0.66588621791E-01  0.56034967972E-01  0.87469470992E-01  0.51100000000E-03 0.  1.
         11    1    4    4    0    0 -0.85370095529E-02  0.34673370671E-01  0.23981778412E-01  0.43017554354E-01  0.51100000000E-03 0. -1.
</event>
<event>
 8    1  0.1103774E+005  0.1043930E+01  0.7957747E-01            NaN
         13   -1    0    0    0    0  0.00000000000E+00  0.00000000000E+00  0.74505805969E-08  0.10566000000E+00  0.10566000000E+00 0. -1.
     999900   -1    0    0    0    0 -0.00000000000E+00 -0.00000000000E+00 -0.74505805969E-08  0.93827000000E+00  0.93827000000E+00 0. -1.
     999902    2    1    2    0    0  0.13904965825E-01 -0.22943060952E-01  0.80108498414E-02  0.10159316816E+01  0.10155458019E+01 0.  0.
     999903    2    3    3    0    0 -0.68080441343E-01 -0.10603417236E+00 -0.10640881295E-01  0.12802761756E+00  0.19991255677E-01 0.  0.
         14    1    1    2    0    0 -0.13904965825E-01  0.22943060952E-01 -0.80108498414E-02  0.27998318443E-01  0.00000000000E+00 0. -1.
     999901    1    3    3    0    0  0.81985407169E-01  0.83091111403E-01  0.18651731137E-01  0.88790406399E+00  0.88000000000E+00 0.  1.
        -11    1    4    4    0    0 -0.28222217539E-01 -0.27093044231E-01 -0.20963725632E-02  0.39181405124E-01  0.51100000000E-03 0. -1.
         11    1    4    4    0    0 -0.39858223804E-01 -0.78941128124E-01 -0.85445087322E-02  0.88846212439E-01  0.51100000000E-03 0.  1.
</event>
<event>
 8    1  0.1103774E+005  0.1043930E+01  0.7957747E-01            NaN
         13   -1    0    0    0    0  0.00000000000E+00  0.00000000000E+00  0.74505805969E-08  0.10566000000E+00  0.10566000000E+00 0. -1.
     999900   -1    0    0    0    0 -0.00000000000E+00 -0.00000000000E+00 -0.74505805969E-08  0.93827000000E+00  0.93827000000E+00 0.  1.
     999902    2    1    2    0    0 -0.24180250292E-02 -0.16643629312E-01 -0.16235200375E-01  0.10205539658E+01  0.10202862139E+01 0.  0.
     999903    2    3    3    0    0 -0.12326364209E+00 -0.23028453456E-02  0.37493032883E-01  0.13055618815E+00  0.20975275713E-01 0.  0.
         14    1    1    2    0    0  0.24180250292E-02  0.16643629312E-01  0.16235200375E-01  0.23376034157E-01  0.00000000000E+00 0. -1.
     999901    1    3    3    0    0  0.12084561706E+00 -0.14340783967E-01 -0.53728233258E-01  0.88999777769E+00  0.88000000000E+00 0.  1.
        -11    1    4    4    0    0 -0.54755569411E-01  0.55237697866E-02  0.25127187613E-01  0.60500587539E-01  0.51100000000E-03 0.  1.
         11    1    4    4    0    0 -0.68508072680E-01 -0.78266151322E-02  0.12365845270E-01  0.70055600612E-01  0.51100000000E-03 0. -1.
</event>
<event>
 8    1  0.1103774E+005  0.1043930E+01  0.7957747E-01            NaN
         13   -1    0    0    0    0  0.00000000000E+00  0.00000000000E+00  0.74505805969E-08  0.10566000000E+00  0.10566000000E+00 0. -1.
     999900   -1    0    0    0    0 -0.00000000000E+00 -0.00000000000E+00 -0.74505805969E-08  0.93827000000E+00  0.93827000000E+00 0. -1.
     999902    2    1    2    0    0 -0.12222096630E-01  0.79162243691E-03 -0.20388903889E-01  0.10201452630E+01  0.10198679542E+01 0.  0.
     999903    2    3    3    0    0  0.11770681697E+00  0.16928088224E-01 -0.49124265180E-01  0.12999492227E+00  0.18548084978E-01 0.  0.
         14    1    1    2    0    0  0.12222096630E-01 -0.79162243691E-03  0.20388903889E-01  0.23784736995E-01  0.00000000000E+00 0. -1.
     999901    1    3    3    0    0 -0.12992891360E+00 -0.16136465788E-01  0.28735361291E-01  0.89015034073E+00  0.88000000000E+00 0.  1.
        -11    1    4    4    0    0  0.79753097935E-01  0.17413275091E-01 -0.26614584201E-01  0.85862541267E-01  0.51100000000E-03 0. -1.
         11    1    4    4    0    0  0.37953719030E-01 -0.48518686633E-03 -0.22509680979E-01  0.44132381007E-01  0.51100000000E-03 0.  1.
</event>
<event>
 8    1  0.1103774E+005  0.1043930E+01  0.7957747E-01            NaN
         13   -1    0    0    0    0  0.00000000000E+00  0.00000000000E+00  0.74505805969E-08  0.10566000000E+00  0.10566000000E+00 0. -1.
     999900   -1    0    0    0    0 -0.00000000000E+00 -0.00000000000E+00 -0.74505805969E-08  0.93827000000E+00  0.93827000000E+00 0.  1.
     999902    2    1    2    0    0  0.19694714307E-01  0.46443343640E-02  0.58495379605E-02  0.10228665552E+01  0.10226496570E+01 0.  0.
     999903    2    3    3    0    0  0.14962934839E-01 -0.97161411997E-01  0.87631417112E-01  0.13321770564E+00  0.20086374261E-01 0.  0.
         14    1    1    2    0    0 -0.19694714307E-01 -0.46443343640E-02 -0.58495379605E-02  0.21063444819E-01  0.00000000000E+00 0.  1.
     999901    1    3    3    0    0  0.47317794674E-02  0.10180574636E+00 -0.81781879152E-01  0.88964884954E+00  0.88000000000E+00 0.  1.
        -11    1    4    4    0    0  0.10582202161E-01 -0.75251593718E-01  0.55606925212E-01  0.94165687021E-01  0.51100000000E-03 0. -1.
         11    1    4    4    0    0  0.43807326785E-02 -0.21909818279E-01  0.32024491900E-01  0.39052018620E-01  0.51100000000E-03 0.  1.
</event>
<event>
 8    1  0.1103774E+005  0.1043930E+01  0.7957747E-01            NaN
         13   -1    0    0    0    0  0.00000000000E+00  0.00000000000E+00  0.74505805969E-08  0.10566000000E+00  0.10566000000E+00 0.  1.
     999900   -1    0    0    0    0 -0.00000000000E+00 -0.00000000000E+00 -0.74505805969E-08  0.93827000000E+00  0.93827000000E+00 0.  1.
     999902    2    1    2    0    0  0.10085713334E-01 -0.16912746878E-01  0.13359324233E-01  0.10201343247E+01  0.10198567577E+01 0.  0.
     999903    2    3    3    0    0 -0.34009986025E-01  0.66080693782E-01 -0.10193833782E+00  0.12765133168E+00  0.19496166871E-01 0.  0.
         14    1    1    2    0    0 -0.10085713334E-01  0.16912746878E-01 -0.13359324233E-01  0.23795675329E-01  0.00000000000E+00 0.  1.
     999901    1    3    3    0    0  0.44095699359E-01 -0.82993440660E-01  0.11529766206E+00  0.89248299299E+00  0.88000000000E+00 0. -1.
        -11    1    4    4    0    0 -0.35717255592E-01  0.65614666959E-01 -0.97388600043E-01  0.12274285073E+00  0.51100000000E-03 0. -1.
         11    1    4    4    0    0  0.17072695667E-02  0.46602682306E-03 -0.45497377790E-02  0.49084809494E-02  0.51100000000E-03 0.  1.
</event>
<event>
 8    1  0.1103774E+005  0.1043930E+01  0.7957747E-01            NaN
         13   -1    0    0    0    0  0.00000000000E+00  0.00000000000E+00  0.74505805969E-08  0.10566000000E+00  0.10566000000E+00 0.  1.
     999900   -1    0    0    0    0 -0.00000000000E+00 -0.00000000000E+00 -0.74505805969E-08  0.93827000000E+00  0.93827000000E+00 0. -1.
     999902    2    1    2    0    0  0.12741504355E-03  0.22813930717E-01 -0.14197074224E-01  0.10170590382E+01  0.10167040074E+01 0.  0.
     999903    2    3    3    0    0  0.11060291008E+00  0.40712447291E-01  0.45795955391E-01  0.12794467242E+00  0.19546421398E-01 0.  0.
         14    1    1    2    0    0 -0.12741504355E-03 -0.22813930717E-01  0.14197074224E-01  0.26870961760E-01  0.00000000000E+00 0.  1.
     999901    1    3    3    0    0 -0.11047549503E+00 -0.17898516574E-01 -0.59993029616E-01  0.88911436582E+00  0.88000000000E+00 0.  1.
        -11    1    4    4    0    0  0.16063043882E-01  0.46108663435E-02  0.14175521848E-01  0.21920036676E-01  0.51100000000E-03 0. -1.
         11    1    4    4    0    0  0.94539866195E-01  0.36101580948E-01  0.31620433543E-01  0.10602463575E+00  0.51100000000E-03 0.  1.
</event>
<event>
 8    1  0.1103774E+005  0.1043930E+01  0.7957747E-01            NaN
         13   -1    0    0    0    0  0.00000000000E+00  0.00000000000E+00  0.74505805969E-08  0.10566000000E+00  0.10566000000E+00 0. -1.
     999900   -1    0    0    0    0 -0.00000000000E+00 -0.00000000000E+00 -0.74505805969E-08  0.93827000000E+00  0.93827000000E+00 0.  1.
     999902    2    1    2    0    0 -0.46731702441E-02 -0.48354868901E-02 -0.21628467849E-01  0.10212802522E+01  0.10210290605E+01 0.  0.
     999903    2    3    3    0    0 -0.10438273560E+00 -0.28133840888E-01  0.66083894548E-01  0.13101160217E+00  0.33312014190E-01 0.  0.
         14    1    1    2    0    0  0.46731702441E-02  0.48354868901E-02  0.21628467849E-01  0.22649747793E-01  0.00000000000E+00 0. -1.
     999901    1    3    3    0    0  0.99709565358E-01  0.23298353997E-01 -0.87712362397E-01  0.89026865004E+00  0.88000000000E+00 0.  1.
        -11    1    4    4    0    0 -0.22940702910E-01 -0.19150620039E-01  0.26799353034E-01  0.40143349909E-01  0.51100000000E-03 0. -1.
         11    1    4    4    0    0 -0.81442032692E-01 -0.89832208488E-02  0.39284541513E-01  0.90868252260E-01  0.51100000000E-03 0.  1.
</event>
<event>
 7    1  0.1103774E+005  0.1043930E+01  0.7957747E-01            NaN
         13   -1    0    0    0    0  0.00000000000E+00  0.00000000000E+00  0.74505805969E-08  0.10566000000E+00  0.10566000000E+00 0.  1.
     999900   -1    0    0    0    0 -0.00000000000E+00 -0.00000000000E+00 -0.74505805969E-08  0.93827000000E+00  0.93827000000E+00 0. -1.
     999903    2    1    2    0    0  0.55210031297E-02 -0.56115496843E-01  0.46606689870E-01  0.75906736187E-01  0.20253853864E-01 0.  0.
         14    1    1    2    0    0 -0.72027343595E-01 -0.29248113528E-01 -0.23040043733E-01  0.81081650116E-01  0.00000000000E+00 0. -1.
     999901    1    1    2    0    0  0.66506340465E-01  0.85363610371E-01 -0.23566646137E-01  0.88694161370E+00  0.88000000000E+00 0.  1.
        -11    1    3    3    0    0 -0.54862033693E-02 -0.27167504735E-01  0.29668659149E-01  0.40603721475E-01  0.51100000000E-03 0. -1.
         11    1    3    3    0    0  0.11007206499E-01 -0.28947992108E-01  0.16938030721E-01  0.35303014712E-01  0.51100000000E-03 0.  1.
</event>
<event>
 8    1  0.1103774E+005  0.1043930E+01  0.7957747E-01            NaN
         13   -1    0    0    0    0  0.00000000000E+00  0.00000000000E+00  0.74505805969E-08  0.10566000000E+00  0.10566000000E+00 0.  1.
     999900   -1    0    0    0    0 -0.00000000000E+00 -0.00000000000E+00 -0.74505805969E-08  0.93827000000E+00  0.93827000000E+00 0. -1.
     999902    2    1    2    0    0  0.39584159134E-02  0.21675314344E-01  0.68823195827E-02  0.10208463558E+01  0.10205853357E+01 0.  0.
     999903    2    3    3    0    0 -0.65466836684E-01  0.99484516661E-01  0.55425287208E-01  0.13336083060E+00  0.23023312450E-01 0.  0.
         14    1    1    2    0    0 -0.39584159134E-02 -0.21675314344E-01 -0.68823195827E-02  0.23083644238E-01  0.00000000000E+00 0.  1.
     999901    1    3    3    0    0  0.69425252597E-01 -0.77809202317E-01 -0.48542967625E-01  0.88748552516E+00  0.88000000000E+00 0.  1.
        -11    1    4    4    0    0 -0.10947743846E-01  0.35233634497E-01  0.19775245133E-01  0.41863869103E-01  0.51100000000E-03 0. -1.
         11    1    4    4    0    0 -0.54519092837E-01  0.64250882164E-01  0.35650042075E-01  0.91496961499E-01  0.51100000000E-03 0.  1.
</event>
<event>
 8    1  0.1103774E+005  0.1043930E+01  0.7957747E-01            NaN
         13   -1    0    0    0    0  0.00000000000E+00  0.00000000000E+00  0.74505805969E-08  0.10566000000E+00  0.10566000000E+00 0.  1.
     999900   -1    0    0    0    0 -0.00000000000E+00 -0.00000000000E+00 -0.74505805969E-08  0.93827000000E+00  0.93827000000E+00 0.  1.
     999902    2    1    2    0    0 -0.21873161314E-01  0.12155075671E-01  0.30481090224E-02  0.10187214297E+01  0.10184094850E+01 0.  0.
     999903    2    3    3    0    0 -0.20148083441E-01  0.39455902542E-01  0.12100940121E+00  0.13042914808E+00  0.20143832206E-01 0.  0.
         14    1    1    2    0    0  0.21873161314E-01 -0.12155075671E-01 -0.30481090224E-02  0.25208570349E-01  0.00000000000E+00 0.  1.
     999901    1    3    3    0    0 -0.17250778731E-02 -0.27300826872E-01 -0.11796129219E+00  0.88829228157E+00  0.88000000000E+00 0.  1.
        -11    1    4    4    0    0 -0.12059992744E-01  0.46587523652E-02  0.32093728024E-01  0.34603697751E-01  0.51100000000E-03 0. -1.
         11    1    4    4    0    0 -0.80880906961E-02  0.34797150177E-01  0.88915673188E-01  0.95825450331E-01  0.51100000000E-03 0.  1.
</event>
<event>
 8    1  0.1103774E+005  0.1043930E+01  0.7957747E-01            NaN
         13   -1    0    0    0    0  0.00000000000E+00  0.00000000000E+00  0.74505805969E-08  0.10566000000E+00  0.10566000000E+00 0. -1.
     999900   -1    0    0    0    0 -0.00000000000E+00 -0.00000000000E+00 -0.74505805969E-08  0.93827000000E+00  0.93827000000E+00 0. -1.
     999902    2    1    2    0    0 -0.17625413312E-01  0.14161306769E-01  0.10374567464E-01  0.10190537170E+01  0.10187500423E+01 0.  0.
     999903    2    3    3    0    0  0.53756062073E-01 -0.11025941557E+00  0.27234702833E-01  0.12728014974E+00  0.20289271704E-01 0.  0.
         14    1    1    2    0    0  0.17625413312E-01 -0.14161306769E-01 -0.10374567464E-01  0.24876282960E-01  0.00000000000E+00 0.  1.
     999901    1    3    3    0    0 -0.71381475385E-01  0.12442072234E+00 -0.16860135368E-01  0.89177356730E+00  0.88000000000E+00 0. -1.
        -11    1    4    4    0    0  0.22809798884E-01 -0.26177445088E-01  0.83333112965E-02  0.35710653237E-01  0.51100000000E-03 0.  1.
         11    1    4    4    0    0  0.30946263189E-01 -0.84081970487E-01  0.18901391536E-01  0.91569496500E-01  0.51100000000E-03 0. -1.
</event>
<event>
 8    1  0.1103774E+005  0.1043930E+01  0.7957747E-01            NaN
         13   -1    0    0    0    0  0.00000000000E+00  0.00000000000E+00  0.74505805969E-08  0.10566000000E+00  0.10566000000E+00 0. -1.
     999900   -1    0    0    0    0 -0.00000000000E+00 -0.00000000000E+00 -0.74505805969E-08  0.93827000000E+00  0.93827000000E+00 0.  1.
     999902    2    1    2    0    0  0.59124211868E-02 -0.22512422847E-01  0.54945951771E-02  0.10200143883E+01  0.10197339829E+01 0.  0.
     999903    2    3    3    0    0 -0.34469435178E-01 -0.78097204268E-01  0.98976263435E-01  0.13240006634E+00  0.21122536965E-01 0.  0.
         14    1    1    2    0    0 -0.59124211868E-02  0.22512422847E-01 -0.54945951771E-02  0.23915611698E-01  0.00000000000E+00 0.  1.
     999901    1    3    3    0    0  0.40381856364E-01  0.55584781421E-01 -0.93481668258E-01  0.88761432196E+00  0.88000000000E+00 0.  1.
        -11    1    4    4    0    0 -0.19877123148E-01 -0.31995725286E-01  0.29980556362E-01  0.48144795586E-01  0.51100000000E-03 0.  1.
         11    1    4    4    0    0 -0.14592312030E-01 -0.46101478982E-01  0.68995707073E-01  0.84255270756E-01  0.51100000000E-03 0. -1.
</event>
<event>
 8    1  0.1103774E+005  0.1043930E+01  0.7957747E-01            NaN
         13   -1    0    0    0    0  0.00000000000E+00  0.00000000000E+00  0.74505805969E-08  0.10566000000E+00  0.10566000000E+00 0. -1.
     999900   -1    0    0    0    0 -0.00000000000E+00 -0.00000000000E+00 -0.74505805969E-08  0.93827000000E+00  0.93827000000E+00 0. -1.
     999902    2    1    2    0    0  0.14783660345E-01  0.34992770789E-02  0.17678022944E-01  0.10206209020E+01  0.10203546989E+01 0.  0.
     999903    2    3    3    0    0  0.79344850068E-01  0.98062811242E-01  0.36923264106E-01  0.13299441046E+00  0.20304324693E-01 0.  0.
         14    1    1    2    0    0 -0.14783660345E-01 -0.34992770789E-02 -0.17678022944E-01  0.23309097976E-01  0.00000000000E+00 0.  1.
     999901    1    3    3    0    0 -0.64561189723E-01 -0.94563534163E-01 -0.19245241163E-01  0.88762649156E+00  0.88000000000E+00 0. -1.
        -11    1    4    4    0    0  0.40054322850E-01  0.52968515328E-01  0.29696432173E-01  0.72747175889E-01  0.51100000000E-03 0. -1.
         11    1    4    4    0    0  0.39290527219E-01  0.45094295914E-01  0.72268319332E-02  0.60247234574E-01  0.51100000000E-03 0.  1.
</event>
<event>
 7    1  0.1103774E+005  0.1043930E+01  0.7957747E-01            NaN
         13   -1    0    0    0    0  0.00000000000E+00  0.00000000000E+00  0.74505805969E-08  0.10566000000E+00  0.10566000000E+00 0.  1.
     999900   -1    0    0    0    0 -0.00000000000E+00 -0.00000000000E+00 -0.74505805969E-08  0.93827000000E+00  0.93827000000E+00 0. -1.
     999902    2    1    2    0    0  0.11477699993E-01  0.71519064314E-02 -0.29021115210E-01  0.10119126221E+01  0.10114059730E+01 0.  0.
         14    1    1    2    0    0 -0.11477699993E-01 -0.71519064314E-02  0.29021115210E-01  0.32017377949E-01  0.00000000000E+00 0.  1.
     999901    1    3    3    0    0  0.47984801850E-01 -0.90542878805E-01 -0.79438135297E-01  0.88950040554E+00  0.88000000000E+00 0. -1.
        -11    1    3    3    0    0 -0.35134665231E-01  0.58885703181E-01  0.47597955873E-01  0.83473332654E-01  0.51100000000E-03 0. -1.
         11    1    3    3    0    0 -0.13724366264E-02  0.38809082055E-01  0.28190642141E-02  0.38938883860E-01  0.51100000000E-03 0.  1.
</event>
<event>
 8    1  0.1103774E+005  0.1043930E+01  0.7957747E-01            NaN
         13   -1    0    0    0    0  0.00000000000E+00  0.00000000000E+00  0.74505805969E-08  0.10566000000E+00  0.10566000000E+00 0.  1.
     999900   -1    0    0    0    0 -0.00000000000E+00 -0.00000000000E+00 -0.74505805969E-08  0.93827000000E+00  0.93827000000E+00 0.  1.
     999902    2    1    2    0    0  0.42042026674E-02 -0.26409982134E-01 -0.95523419492E-02  0.10155326460E+01  0.10151355306E+01 0.  0.
     999903    2    3    3    0    0  0.15931848400E-01 -0.12304308338E+00 -0.33176679688E-01  0.12985008253E+00  0.19155356868E-01 0.  0.
         14    1    1    2    0    0 -0.42042026674E-02  0.26409982134E-01  0.95523419492E-02  0.28397353980E-01  0.00000000000E+00 0.  1.
     999901    1    3    3    0    0 -0.11727645733E-01  0.96633101249E-01  0.23624337739E-01  0.88568256349E+00  0.88000000000E+00 0. -1.
        -11    1    4    4    0    0  0.11083119574E-01 -0.47085543009E-01 -0.21131365449E-01  0.52789010472E-01  0.51100000000E-03 0. -1.
         11    1    4    4    0    0  0.48487288266E-02 -0.75957540374E-01 -0.12045314239E-01  0.77061072060E-01  0.51100000000E-03 0.  1.
</event>
<event>
 8    1  0.1103774E+005  0.1043930E+01  0.7957747E-01            NaN
         13   -1    0    0    0    0  0.00000000000E+00  0.00000000000E+00  0.74505805969E-08  0.10566000000E+00  0.10566000000E+00 0.  1.
     999900   -1    0    0    0    0 -0.00000000000E+00 -0.00000000000E+00 -0.74505805969E-08  0.93827000000E+00  0.93827000000E+00 0. -1.
     999902    2    1    2    0    0 -0.94966023909E-02 -0.21456029979E-01  0.46018357363E-02  0.10200192582E+01  0.10197389684E+01 0.  0.
     999903    2    3    3    0    0  0.18532241229E-01  0.52303470011E-01  0.11557568753E+00  0.12954675687E+00  0.18588322335E-01 0.  0.
         14    1    1    2    0    0  0.94966023909E-02  0.21456029979E-01 -0.46018357363E-02  0.23910741762E-01  0.00000000000E+00 0. -1.
     999901    1    3    3    0    0 -0.28028843620E-01 -0.73759499990E-01 -0.11097385179E+00  0.89047250137E+00  0.88000000000E+00 0. -1.
        -11    1    4    4    0    0  0.41454006391E-02  0.28813404422E-01  0.75458287065E-01  0.80880225202E-01  0.51100000000E-03 0.  1.
         11    1    4    4    0    0  0.14386840590E-01  0.23490065589E-01  0.40117400464E-01  0.48666531667E-01  0.51100000000E-03 0. -1.
</event>
<event>
 8    1  0.1103774E+005  0.1043930E+01  0.7957747E-01            NaN
         13   -1    0    0    0    0  0.00000000000E+00  0.00000000000E+00  0.74505805969E-08  0.10566000000E+00  0.10566000000E+00 0.  1.
     999900   -1    0    0    0    0 -0.00000000000E+00 -0.00000000000E+00 -0.74505805969E-08  0.93827000000E+00  0.93827000000E+00 0. -1.
     999902    2    1    2    0    0  0.21985708380E-01 -0.52352153610E-02  0.99478328362E-02  0.10192371219E+01  0.10189379630E+01 0.  0.
     999903    2    3    3    0    0  0.48453174941E-01  0.56794406237E-01  0.10587377514E+00  0.13145900366E+00  0.22336039013E-01 0.  0.
         14    1    1    2    0    0 -0.21985708380E-01  0.52352153610E-02 -0.99478328362E-02  0.24692878143E-01  0.00000000000E+00 0. -1.
     999901    1    3    3    0    0 -0.26467466562E-01 -0.62029621598E-01 -0.95925942306E-01  0.88777811820E+00  0.88000000000E+00 0. -1.
        -11    1    4    4    0    0  0.40115518295E-01  0.34600358887E-01  0.83293016042E-01  0.98713865721E-01  0.51100000000E-03 0.  1.
         11    1    4    4    0    0  0.83376566460E-02  0.22194047350E-01  0.22580759101E-01  0.32745137940E-01  0.51100000000E-03 0. -1.
</event>
<event>
 8    1  0.1103774E+005  0.1043930E+01  0.7957747E-01            NaN
         13   -1    0    0    0    0  0.00000000000E+00  0.00000000000E+00  0.74505805969E-08  0.10566000000E+00  0.10566000000E+00 0.  1.
     999900   -1    0    0    0    0 -0.00000000000E+00 -0.00000000000E+00 -0.74505805969E-08  0.93827000000E+00  0.93827000000E+00 0. -1.
     999902    2    1    2    0    0 -0.28681498989E-02  0.83989384554E-02  0.23533063047E-01  0.10187789860E+01  0.10184684819E+01 0.  0.
     999903    2    3    3    0    0  0.81064339420E-01  0.99338876633E-01  0.78831115226E-02  0.12998223973E+00  0.19839346305E-01 0.  0.
         14    1    1    2    0    0  0.28681498989E-02 -0.83989384554E-02 -0.23533063047E-01  0.25151014043E-01  0.00000000000E+00 0. -1.
     999901    1    3    3    0    0 -0.83932489319E-01 -0.90939938178E-01  0.15649951525E-01  0.88879674623E+00  0.88000000000E+00 0. -1.
        -11    1    4    4    0    0  0.58378234701E-01  0.56777974528E-01  0.28351031735E-02  0.81486536368E-01  0.51100000000E-03 0. -1.
         11    1    4    4    0    0  0.22686104719E-01  0.42560902105E-01  0.50480083490E-02  0.48495703363E-01  0.51100000000E-03 0.  1.
</event>
<event>
 8    1  0.1103774E+005  0.1043930E+01  0.7957747E-01            NaN
         13   -1    0    0    0    0  0.00000000000E+00  0.00000000000E+00  0.74505805969E-08  0.10566000000E+00  0.10566000000E+00 0. -1.
     999900   -1    0    0    0    0 -0.00000000000E+00 -0.00000000000E+00 -0.74505805969E-08  0.93827000000E+00  0.93827000000E+00 0. -1.
     999902    2    1    2    0    0  0.29516281845E-02 -0.25411769984E-02 -0.29532279542E-01  0.10141419953E+01  0.10137044251E+01 0.  0.
     999903    2    3    3    0    0  0.60885381308E-01 -0.10082010652E+00  0.35088792452E-01  0.12442802402E+00  0.19477840461E-01 0.  0.
         14    1    1    2    0    0 -0.29516281845E-02  0.25411769984E-02  0.29532279542E-01  0.29788004707E-01  0.00000000000E+00 0. -1.
     999901    1    3    3    0    0 -0.57933753123E-01  0.98278929522E-01 -0.64621071994E-01  0.88971397128E+00  0.88000000000E+00 0. -1.
        -11    1    4    4    0    0  0.59588876868E-02 -0.26023676647E-02 -0.91844495565E-04  0.65230526854E-02  0.51100000000E-03 0. -1.
         11    1    4    4    0    0  0.54926493621E-01 -0.98217738856E-01  0.35180636948E-01  0.11790497133E+00  0.51100000000E-03 0.  1.
</event>
<event>
 8    1  0.1103774E+005  0.1043930E+01  0.7957747E-01            NaN
         13   -1    0    0    0    0  0.00000000000E+00  0.00000000000E+00  0.74505805969E-08  0.10566000000E+00  0.10566000000E+00 0. -1.
     999900   -1    0    0    0    0 -0.00000000000E+00 -0.00000000000E+00 -0.74505805969E-08  0.93827000000E+00  0.93827000000E+00 0.  1.
     999902    2    1    2    0    0 -0.18487680387E-01  0.12710477703E-01 -0.45791412464E-02  0.10210319847E+01  0.10207751930E+01 0.  0.
     999903    2    3    3    0    0  0.11317742110E+00 -0.55793755393E-01 -0.16161092105E-01  0.12852838781E+00  0.18338314697E-01 0.  0.
         14    1    1    2    0    0  0.18487680387E-01 -0.12710477703E-01  0.45791412464E-02  0.22898015287E-01  0.00000000000E+00 0.  1.
     999901    1    3    3    0    0 -0.13166510149E+00  0.68504233096E-01  0.11581950858E-01  0.89250359690E+00  0.88000000000E+00 0. -1.
        -11    1    4    4    0    0  0.76471976008E-01 -0.30163788991E-01 -0.16037024623E-01  0.83757176174E-01  0.51100000000E-03 0. -1.
         11    1    4    4    0    0  0.36705445096E-01 -0.25629966402E-01 -0.12406748207E-03  0.44771211634E-01  0.51100000000E-03 0.  1.
</event>
<event>
 8    1  0.1103774E+005  0.1043930E+01  0.7957747E-01            NaN
         13   -1    0    0    0    0  0.00000000000E+00  0.00000000000E+00  0.74505805969E-08  0.10566000000E+00  0.10566000000E+00 0.  1.
     999900   -1    0    0    0    0 -0.00000000000E+00 -0.00000000000E+00 -0.74505805969E-08  0.93827000000E+00  0.93827000000E+00 0.  1.
     999902    2    1    2    0    0  0.23264957528E-01  0.29531700704E-02  0.33372285931E-02  0.10202421010E+01  0.10199670721E+01 0.  0.
     999903    2    3    3    0    0 -0.99367731768E-01 -0.50505722202E-01 -0.59392501663E-01  0.12792396904E+00  0.20305135040E-01 0.  0.
         14    1    1    2    0    0 -0.23264957528E-01 -0.29531700704E-02 -0.33372285931E-02  0.23687898956E-01  0.00000000000E+00 0.  1.
     999901    1    3    3    0    0  0.12263268930E+00  0.53458892273E-01  0.62729730256E-01  0.89231813201E+00  0.88000000000E+00 0. -1.
        -11    1    4    4    0    0 -0.12691781328E-01 -0.14910933111E-01 -0.95806840577E-02  0.21805225694E-01  0.51100000000E-03 0. -1.
         11    1    4    4    0    0 -0.86675950440E-01 -0.35594789091E-01 -0.49811817605E-01  0.10611874335E+00  0.51100000000E-03 0.  1.
</event>
<event>
 8    1  0.1103774E+005  0.1043930E+01  0.7957747E-01            NaN
         13   -1    0    0    0    0  0.00000000000E+00  0.00000000000E+00  0.74505805969E-08  0.10566000000E+00  0.10566000000E+00 0. -1.
     999900   -1    0    0    0    0 -0.00000000000E+00 -0.00000000000E+00 -0.74505805969E-08  0.93827000000E+00  0.93827000000E+00 0.  1.
     999902    2    1    2    0    0 -0.72059734951E-02  0.22168703993E-01  0.29017940233E-02  0.10204396211E+01  0.10201692127E+01 0.  0.
     999903    2    3    3    0    0  0.10943217208E-01  0.13052853160E+00  0.22291633515E-01  0.13339553472E+00  0.11832167814E-01 0.  0.
         14    1    1    2    0    0  0.72059734951E-02 -0.22168703993E-01 -0.29017940233E-02  0.23490378867E-01  0.00000000000E+00 0.  1.
     999901    1    3    3    0    0 -0.18149190703E-01 -0.10835982760E+00 -0.19389839491E-01  0.88704408641E+00  0.88000000000E+00 0. -1.
        -11    1    4    4    0    0  0.48115880888E-02  0.51143486206E-01  0.14574526656E-01  0.53399302519E-01  0.51100000000E-03 0. -1.
         11    1    4    4    0    0  0.61316291188E-02  0.79385045391E-01  0.77171068587E-02  0.79996232203E-01  0.51100000000E-03 0.  1.
</event>
<event>
 8    1  0.1103774E+005  0.1043930E+01  0.7957747E-01            NaN
         13   -1    0    0    0    0  0.00000000000E+00  0.00000000000E+00  0.74505805969E-08  0.10566000000E+00  0.10566000000E+00 0.  1.
     999900   -1    0    0    0    0 -0.00000000000E+00 -0.00000000000E+00 -0.74505805969E-08  0.93827000000E+00  0.93827000000E+00 0.  1.
     999902    2    1    2    0    0 -0.15112081731E-01 -0.11251853948E-01 -0.13814713199E-01  0.10205670907E+01  0.10202996428E+01 0.  0.
     999903    2    3    3    0    0  0.11098971705E+00 -0.57979368559E-01 -0.29535507996E-01  0.13021195497E+00  0.20061966890E-01 0.  0.
         14    1    1    2    0    0  0.15112081731E-01  0.11251853948E-01  0.13814713199E-01  0.23362909329E-01  0.00000000000E+00 0. -1.
     999901    1    3    3    0    0 -0.12610179878E+00  0.46727514611E-01  0.15720794797E-01  0.89035513570E+00  0.88000000000E+00 0. -1.
        -11    1    4    4    0    0  0.28942484586E-01 -0.22081846670E-01 -0.15460853480E-01  0.39554702346E-01  0.51100000000E-03 0.  1.
         11    1    4    4    0    0  0.82047232464E-01 -0.35897521890E-01 -0.14074654516E-01  0.90657252625E-01  0.51100000000E-03 0. -1.
</event>
<event>
 8    1  0.1103774E+005  0.1043930E+01  0.7957747E-01            NaN
         13   -1    0    0    0    0  0.00000000000E+00  0.00000000000E+00  0.74505805969E-08  0.10566000000E+00  0.10566000000E+00 0. -1.
     999900   -1    0    0    0    0 -0.00000000000E+00 -0.00000000000E+00 -0.74505805969E-08  0.93827000000E+00  0.93827000000E+00 0.  1.
     999902    2    1    2    0    0  0.13214225605E-01 -0.19252648871E-01 -0.36893191987E-02  0.10202891175E+01  0.10200151921E+01 0.  0.
     999903    2    3    3    0    0 -0.76631807598E-01 -0.74614394895E-01 -0.73393759805E-01  0.13124696914E+00  0.19984520742E-01 0.  0.
         14    1    1    2    0    0 -0.13214225605E-01  0.19252648871E-01  0.36893191987E-02  0.23640882451E-01  0.00000000000E+00 0. -1.
     999901    1    3    3    0    0  0.89846033203E-01  0.55361746024E-01  0.69704440607E-01  0.88904214841E+00  0.88000000000E+00 0. -1.
        -11    1    4    4    0    0 -0.48675388813E-01 -0.36827718860E-01 -0.49080235068E-01  0.78324357309E-01  0.51100000000E-03 0. -1.
         11    1    4    4    0    0 -0.27956418785E-01 -0.37786676035E-01 -0.24313524737E-01  0.52922611833E-01  0.51100000000E-03 0.  1.
</event>
<event>
 8    1  0.1147544E+005  0.1043930E+01  0.7957747E-01            NaN
         13   -1    0    0    0    0  0.00000000000E+00  0.00000000000E+00  0.74505805969E-08  0.10566000000E+00  0.10566000000E+00 0. -1.
     999900   -1    0    0    0    0 -0.00000000000E+00 -0.00000000000E+00 -0.74505805969E-08  0.93827000000E+00  0.93827000000E+00 0. -1.
     999902    2    1    2    0    0 -0.20643962174E-01 -0.58535132335E-02  0.18934100846E-01  0.10153129253E+01  0.10149095523E+01 0.  0.
     999903    2    3    3    0    0  0.29491239669E-02 -0.12492686587E+00  0.92053883287E-02  0.12692689157E+00  0.20255307483E-01 0.  0.
         14    1    1    2    0    0  0.20643962174E-01  0.58535132335E-02 -0.18934100846E-01  0.28617074733E-01  0.00000000000E+00 0.  1.
     999901    1    3    3    0    0 -0.23593086141E-01  0.11907335264E+00  0.97287125168E-02  0.88838603370E+00  0.88000000000E+00 0.  1.
        -11    1    4    4    0    0 -0.69766068687E-02 -0.32121750706E-01  0.67406042721E-02  0.33558557460E-01  0.51100000000E-03 0.  1.
         11    1    4    4    0    0  0.99257308356E-02 -0.92805115163E-01  0.24647840566E-02  0.93368334110E-01  0.51100000000E-03 0. -1.
</event>
<event>
 8    1  0.1103774E+005  0.1043930E+01  0.7957747E-01            NaN
         13   -1    0    0    0    0  0.00000000000E+00  0.00000000000E+00  0.74505805969E-08  0.10566000000E+00  0.10566000000E+00 0. -1.
     999900   -1    0    0    0    0 -0.00000000000E+00 -0.00000000000E+00 -0.74505805969E-08  0.93827000000E+00  0.93827000000E+00 0.  1.
     999902    2    1    2    0    0  0.20258207993E-01 -0.10754971616E-01 -0.20290863059E-02  0.10209043274E+01  0.10206446317E+01 0.  0.
     999903    2    3    3    0    0  0.46736972963E-01  0.10439037432E+00 -0.61358130120E-01  0.13102820622E+00  0.17940897406E-01 0.  0.
         14    1    1    2    0    0 -0.20258207993E-01  0.10754971616E-01  0.20290863059E-02  0.23025672559E-01  0.00000000000E+00 0. -1.
     999901    1    3    3    0    0 -0.26478764971E-01 -0.11514534594E+00  0.59329043814E-01  0.88987612122E+00  0.88000000000E+00 0. -1.
        -11    1    4    4    0    0  0.19148211117E-01  0.58195572373E-01 -0.39813253828E-01  0.73066647208E-01  0.51100000000E-03 0.  1.
         11    1    4    4    0    0  0.27588761847E-01  0.46194801949E-01 -0.21544876291E-01  0.57961559009E-01  0.51100000000E-03 0. -1.
</event>
<event>
 8    1  0.1123546E+005  0.1043930E+01  0.7957747E-01            NaN
         13   -1    0    0    0    0  0.00000000000E+00  0.00000000000E+00  0.74505805969E-08  0.10566000000E+00  0.10566000000E+00 0. -1.
     999900   -1    0    0    0    0 -0.00000000000E+00 -0.00000000000E+00 -0.74505805969E-08  0.93827000000E+00  0.93827000000E+00 0.  1.
     999902    2    1    2    0    0 -0.85820029049E-02 -0.78291015393E-02  0.20884435072E-01  0.10200321919E+01  0.10197522087E+01 0.  0.
     999903    2    3    3    0    0 -0.47064710747E-01  0.11762589378E+00 -0.17748111197E-01  0.12946363849E+00  0.19872099892E-01 0.  0.
         14    1    1    2    0    0  0.85820029049E-02  0.78291015393E-02 -0.20884435072E-01  0.23897808122E-01  0.00000000000E+00 0.  1.
     999901    1    3    3    0    0  0.38482707842E-01 -0.12545499532E+00  0.38632546269E-01  0.89056855339E+00  0.88000000000E+00 0. -1.
        -11    1    4    4    0    0 -0.27135550864E-01  0.75840677499E-01 -0.20478599027E-02  0.80576679848E-01  0.51100000000E-03 0. -1.
         11    1    4    4    0    0 -0.19929159883E-01  0.41785216282E-01 -0.15700251294E-01  0.48886958640E-01  0.51100000000E-03 0.  1.
</event>
<event>
 8    1  0.1103774E+005  0.1043930E+01  0.7957747E-01            NaN
         13   -1    0    0    0    0  0.00000000000E+00  0.00000000000E+00  0.74505805969E-08  0.10566000000E+00  0.10566000000E+00 0. -1.
     999900   -1    0    0    0    0 -0.00000000000E+00 -0.00000000000E+00 -0.74505805969E-08  0.93827000000E+00  0.93827000000E+00 0. -1.
     999902    2    1    2    0    0 -0.31549091367E-01 -0.13345923970E-01  0.10561324292E-01  0.10080830974E+01  0.10074455474E+01 0.  0.
     999903    2    3    3    0    0 -0.20035820497E-01 -0.95006773587E-01  0.71389428060E-01  0.12213664986E+00  0.19829010808E-01 0.  0.
         14    1    1    2    0    0  0.31549091367E-01  0.13345923970E-01 -0.10561324292E-01  0.35846902565E-01  0.00000000000E+00 0.  1.
     999901    1    3    3    0    0 -0.11513270869E-01  0.81660849616E-01 -0.60828103767E-01  0.88594644758E+00  0.88000000000E+00 0. -1.
        -11    1    4    4    0    0 -0.18942396480E-01 -0.83259123083E-01  0.53710094162E-01  0.10087582117E+00  0.51100000000E-03 0.  1.
         11    1    4    4    0    0 -0.10934240176E-02 -0.11747650504E-01  0.17679333898E-01  0.21260828688E-01  0.51100000000E-03 0. -1.
</event>
<event>
 8    1  0.1103774E+005  0.1043930E+01  0.7957747E-01            NaN
         13   -1    0    0    0    0  0.00000000000E+00  0.00000000000E+00  0.74505805969E-08  0.10566000000E+00  0.10566000000E+00 0.  1.
     999900   -1    0    0    0    0 -0.00000000000E+00 -0.00000000000E+00 -0.74505805969E-08  0.93827000000E+00  0.93827000000E+00 0.  1.
     999902    2    1    2    0    0 -0.84177796811E-02  0.81342994024E-02 -0.20872417225E-01  0.10199991905E+01  0.10197184244E+01 0.  0.
     999903    2    3    3    0    0  0.79972968978E-01 -0.86814406704E-02 -0.10237910839E+00  0.13166421188E+00  0.19568844550E-01 0.  0.
         14    1    1    2    0    0  0.84177796811E-02 -0.81342994024E-02  0.20872417225E-01  0.23930809479E-01  0.00000000000E+00 0.  1.
     999901    1    3    3    0    0 -0.88390748659E-01  0.16815740073E-01  0.81506691167E-01  0.88833497864E+00  0.88000000000E+00 0. -1.
        -11    1    4    4    0    0  0.30395674567E-01 -0.12413993678E-01 -0.45596963976E-01  0.56190288451E-01  0.51100000000E-03 0.  1.
         11    1    4    4    0    0  0.49577294411E-01  0.37325530071E-02 -0.56782144415E-01  0.75473923434E-01  0.51100000000E-03 0. -1.
</event>
<event>
 8    1  0.1103774E+005  0.1043930E+01  0.7957747E-01            NaN
         13   -1    0    0    0    0  0.00000000000E+00  0.00000000000E+00  0.74505805969E-08  0.10566000000E+00  0.10566000000E+00 0. -1.
     999900   -1    0    0    0    0 -0.00000000000E+00 -0.00000000000E+00 -0.74505805969E-08  0.93827000000E+00  0.93827000000E+00 0.  1.
     999902    2    1    2    0    0  0.50248041257E-02  0.49825104696E-02 -0.25244668070E-01  0.10177123088E+01  0.10173745505E+01 0.  0.
     999903    2    3    3    0    0  0.19739799530E-01 -0.83904167092E-03  0.12210930674E+00  0.12532023382E+00  0.20102600223E-01 0.  0.
         14    1    1    2    0    0 -0.50248041257E-02 -0.49825104696E-02  0.25244668070E-01  0.26217691223E-01  0.00000000000E+00 0. -1.
     999901    1    3    3    0    0 -0.14714995404E-01  0.58215521405E-02 -0.14735397481E+00  0.89239207496E+00  0.88000000000E+00 0.  1.
        -11    1    4    4    0    0  0.13218618871E-01  0.15386528698E-02  0.28560674465E-01  0.31513054191E-01  0.51100000000E-03 0.  1.
         11    1    4    4    0    0  0.65211806587E-02 -0.23776945407E-02  0.93548632272E-01  0.93807179627E-01  0.51100000000E-03 0. -1.
</event>
<event>
 8    1  0.1103774E+005  0.1043930E+01  0.7957747E-01            NaN
         13   -1    0    0    0    0  0.00000000000E+00  0.00000000000E+00  0.74505805969E-08  0.10566000000E+00  0.10566000000E+00 0. -1.
     999900   -1    0    0    0    0 -0.00000000000E+00 -0.00000000000E+00 -0.74505805969E-08  0.93827000000E+00  0.93827000000E+00 0. -1.
     999902    2    1    2    0    0 -0.17619407637E-01 -0.13207384462E-02 -0.16024319094E-01  0.10200769776E+01  0.10197980553E+01 0.  0.
     999903    2    3    3    0    0 -0.10262863669E+00  0.45571433203E-01  0.64564806638E-01  0.13107751079E+00  0.20082504505E-01 0.  0.
         14    1    1    2    0    0  0.17619407637E-01  0.13207384462E-02  0.16024319094E-01  0.23853022407E-01  0.00000000000E+00 0. -1.
     999901    1    3    3    0    0  0.85009229048E-01 -0.46892171649E-01 -0.80589125732E-01  0.88899946680E+00  0.88000000000E+00 0.  1.
        -11    1    4    4    0    0 -0.89306375240E-01  0.36672366799E-01  0.47264174533E-01  0.10749257863E+00  0.51100000000E-03 0. -1.
         11    1    4    4    0    0 -0.13322261446E-01  0.88990664034E-02  0.17300632105E-01  0.23584932163E-01  0.51100000000E-03 0.  1.
</event>
<event>
 8    1  0.1103774E+005  0.1043930E+01  0.7957747E-01            NaN
         13   -1    0    0    0    0  0.00000000000E+00  0.00000000000E+00  0.74505805969E-08  0.10566000000E+00  0.10566000000E+00 0.  1.
     999900   -1    0    0    0    0 -0.00000000000E+00 -0.00000000000E+00 -0.74505805969E-08  0.93827000000E+00  0.93827000000E+00 0.  1.
     999902    2    1    2    0    0  0.62507200642E-02 -0.13120315113E-01  0.15627540926E-01  0.10225890955E+01  0.10223663844E+01 0.  0.
     999903    2    3    3    0    0 -0.69280368116E-01 -0.11206334831E+00  0.11193249391E-01  0.13381784706E+00  0.20590384134E-01 0.  0.
         14    1    1    2    0    0 -0.62507200642E-02  0.13120315113E-01 -0.15627540926E-01  0.21340904512E-01  0.00000000000E+00 0. -1.
     999901    1    3    3    0    0  0.75531088181E-01  0.98943033193E-01  0.44342915345E-02  0.88877124843E+00  0.88000000000E+00 0. -1.
        -11    1    4    4    0    0 -0.48296771547E-01 -0.66997196019E-01  0.15057076337E-01  0.83953434028E-01  0.51100000000E-03 0. -1.
         11    1    4    4    0    0 -0.20983596569E-01 -0.45066152287E-01 -0.38638269451E-02  0.49864413027E-01  0.51100000000E-03 0.  1.
</event>
<event>
 8    1  0.1103774E+005  0.1043930E+01  0.7957747E-01            NaN
         13   -1    0    0    0    0  0.00000000000E+00  0.00000000000E+00  0.74505805969E-08  0.10566000000E+00  0.10566000000E+00 0.  1.
     999900   -1    0    0    0    0 -0.00000000000E+00 -0.00000000000E+00 -0.74505805969E-08  0.93827000000E+00  0.93827000000E+00 0.  1.
     999902    2    1    2    0    0  0.47008483615E-02 -0.22044853852E-01 -0.58249714561E-02  0.10206490239E+01  0.10203834701E+01 0.  0.
     999903    2    3    3    0    0  0.93681179691E-01 -0.74609683174E-01 -0.54417061501E-01  0.13326987613E+00  0.21374635666E-01 0.  0.
         14    1    1    2    0    0 -0.47008483615E-02  0.22044853852E-01  0.58249714561E-02  0.23280976121E-01  0.00000000000E+00 0.  1.
     999901    1    3    3    0    0 -0.88980331329E-01  0.52564829322E-01  0.48592090045E-01  0.88737914775E+00  0.88000000000E+00 0. -1.
        -11    1    4    4    0    0  0.13839660135E-01 -0.22133103778E-01 -0.11851401888E-01  0.28672762741E-01  0.51100000000E-03 0.  1.
         11    1    4    4    0    0  0.79841519556E-01 -0.52476579396E-01 -0.42565659613E-01  0.10459711339E+00  0.51100000000E-03 0. -1.
</event>
<event>
 8    1  0.1103774E+005  0.1043930E+01  0.7957747E-01            NaN
         13   -1    0    0    0    0  0.00000000000E+00  0.00000000000E+00  0.74505805969E-08  0.10566000000E+00  0.10566000000E+00 0.  1.
     999900   -1    0    0    0    0 -0.00000000000E+00 -0.00000000000E+00 -0.74505805969E-08  0.93827000000E+00  0.93827000000E+00 0.  1.
     999902    2    1    2    0    0 -0.43205383686E-03  0.79607772517E-02  0.22792926439E-01  0.10197829890E+01  0.10194970655E+01 0.  0.
     999903    2    3    3    0    0 -0.70041664001E-03 -0.79174685231E-01 -0.98730147105E-01  0.12716856034E+00  0.12453088997E-01 0.  0.
         14    1    1    2    0    0  0.43205383686E-03 -0.79607772517E-02 -0.22792926439E-01  0.24147011008E-01  0.00000000000E+00 0. -1.
     999901    1    3    3    0    0  0.26836280315E-03  0.87135462483E-01  0.12152307354E+00  0.89261442866E+00  0.88000000000E+00 0. -1.
        -11    1    4    4    0    0 -0.56461514034E-02 -0.20742550279E-01 -0.25896018775E-01  0.33660025656E-01  0.51100000000E-03 0.  1.
         11    1    4    4    0    0  0.49457347634E-02 -0.58432134952E-01 -0.72834128330E-01  0.93508534680E-01  0.51100000000E-03 0. -1.
</event>
<event>
 8    1  0.1103774E+005  0.1043930E+01  0.7957747E-01            NaN
         13   -1    0    0    0    0  0.00000000000E+00  0.00000000000E+00  0.74505805969E-08  0.10566000000E+00  0.10566000000E+00 0. -1.
     999900   -1    0    0    0    0 -0.00000000000E+00 -0.00000000000E+00 -0.74505805969E-08  0.93827000000E+00  0.93827000000E+00 0.  1.
     999902    2    1    2    0    0  0.19148987502E-01  0.13669248297E-01  0.16145138571E-01  0.10153958525E+01  0.10149948472E+01 0.  0.
     999903    2    3    3    0    0  0.17556569380E-01  0.70471229461E-01  0.10485935225E+00  0.12911191804E+00  0.19999407848E-01 0.  0.
         14    1    1    2    0    0 -0.19148987502E-01 -0.13669248297E-01 -0.16145138571E-01  0.28534147452E-01  0.00000000000E+00 0.  1.
     999901    1    3    3    0    0  0.15924181219E-02 -0.56801981164E-01 -0.88714213684E-01  0.88628393451E+00  0.88000000000E+00 0.  1.
        -11    1    4    4    0    0  0.19555875536E-01  0.45447809788E-01  0.60678400491E-01  0.78294732197E-01  0.51100000000E-03 0.  1.
         11    1    4    4    0    0 -0.19993061560E-02  0.25023419672E-01  0.44180951763E-01  0.50817185842E-01  0.51100000000E-03 0. -1.
</event>
<event>
 8    1  0.1103774E+005  0.1043930E+01  0.7957747E-01            NaN
         13   -1    0    0    0    0  0.00000000000E+00  0.00000000000E+00  0.74505805969E-08  0.10566000000E+00  0.10566000000E+00 0. -1.
     999900   -1    0    0    0    0 -0.00000000000E+00 -0.00000000000E+00 -0.74505805969E-08  0.93827000000E+00  0.93827000000E+00 0. -1.
     999902    2    1    2    0    0 -0.18022641650E-01  0.64790227392E-02 -0.12861449480E-01  0.10208603179E+01  0.10205996171E+01 0.  0.
     999903    2    3    3    0    0 -0.85751853785E-02 -0.25368232162E-01  0.12497314667E+00  0.12951196967E+00  0.20928016913E-01 0.  0.
         14    1    1    2    0    0  0.18022641650E-01 -0.64790227392E-02  0.12861449480E-01  0.23069682061E-01  0.00000000000E+00 0. -1.
     999901    1    3    3    0    0 -0.94474562711E-02  0.31847254901E-01 -0.13783459615E+00  0.89134834827E+00  0.88000000000E+00 0. -1.
        -11    1    4    4    0    0  0.30206241348E-02 -0.13306855281E-01  0.28559648233E-01  0.31656139939E-01  0.51100000000E-03 0. -1.
         11    1    4    4    0    0 -0.11595809513E-01 -0.12061376881E-01  0.96413498432E-01  0.97855829726E-01  0.51100000000E-03 0.  1.
</event>
<event>
 8    1  0.1103774E+005  0.1043930E+01  0.7957747E-01            NaN
         13   -1    0    0    0    0  0.00000000000E+00  0.00000000000E+00  0.74505805969E-08  0.10566000000E+00  0.10566000000E+00 0. -1.
     999900   -1    0    0    0    0 -0.00000000000E+00 -0.00000000000E+00 -0.74505805969E-08  0.93827000000E+00  0.93827000000E+00 0. -1.
     999902    2    1    2    0    0  0.76751724902E-02 -0.16253518533E-01 -0.17073802615E-01  0.10191388751E+01  0.10188373015E+01 0.  0.
     999903    2    3    3    0    0  0.13093580298E-01  0.98822471186E-01  0.75786295374E-01  0.12678533511E+00  0.19840261509E-01 0.  0.
         14    1    1    2    0    0 -0.76751724902E-02  0.16253518533E-01  0.17073802615E-01  0.24791124887E-01  0.00000000000E+00 0. -1.
     999901    1    3    3    0    0 -0.54184078073E-02 -0.11507598972E+00 -0.92860097989E-01  0.89235354000E+00  0.88000000000E+00 0. -1.
        -11    1    4    4    0    0  0.12358364218E-01  0.45317168895E-01  0.44987820442E-01  0.65042601977E-01  0.51100000000E-03 0. -1.
         11    1    4    4    0    0  0.73521607994E-03  0.53505302290E-01  0.30798474933E-01  0.61742733135E-01  0.51100000000E-03 0.  1.
</event>
<event>
 8    1  0.1103774E+005  0.1043930E+01  0.7957747E-01            NaN
         13   -1    0    0    0    0  0.00000000000E+00  0.00000000000E+00  0.74505805969E-08  0.10566000000E+00  0.10566000000E+00 0. -1.
     999900   -1    0    0    0    0 -0.00000000000E+00 -0.00000000000E+00 -0.74505805969E-08  0.93827000000E+00  0.93827000000E+00 0.  1.
     999902    2    1    2    0    0  0.16244306874E-01 -0.13375652560E-01  0.12855051075E-01  0.10192715750E+01  0.10189732605E+01 0.  0.
     999903    2    3    3    0    0 -0.99911654322E-01  0.53898260237E-01  0.55686317800E-01  0.12806312343E+00  0.20293754403E-01 0.  0.
         14    1    1    2    0    0 -0.16244306874E-01  0.13375652560E-01 -0.12855051075E-01  0.24658425038E-01  0.00000000000E+00 0. -1.
     999901    1    3    3    0    0  0.11615596120E+00 -0.67273912796E-01 -0.42831266725E-01  0.89120845153E+00  0.88000000000E+00 0.  1.
        -11    1    4    4    0    0 -0.64096664536E-01  0.27748172071E-01  0.25232248889E-01  0.74264870315E-01  0.51100000000E-03 0.  1.
         11    1    4    4    0    0 -0.35814989786E-01  0.26150088166E-01  0.30454068911E-01  0.53798253119E-01  0.51100000000E-03 0. -1.
</event>
<event>
 8    1  0.1103774E+005  0.1043930E+01  0.7957747E-01            NaN
         13   -1    0    0    0    0  0.00000000000E+00  0.00000000000E+00  0.74505805969E-08  0.10566000000E+00  0.10566000000E+00 0.  1.
     999900   -1    0    0    0    0 -0.00000000000E+00 -0.00000000000E+00 -0.74505805969E-08  0.93827000000E+00  0.93827000000E+00 0.  1.
     999902    2    1    2    0    0 -0.10649320889E-01  0.92404691716E-02  0.17960318535E-01  0.10210965301E+01  0.10208412004E+01 0.  0.
     999903    2    3    3    0    0  0.83927880240E-01  0.84111508112E-01  0.54912347411E-01  0.13209935806E+00  0.17783127520E-01 0.  0.
         14    1    1    2    0    0  0.10649320889E-01 -0.92404691716E-02 -0.17960318535E-01  0.22833469903E-01  0.00000000000E+00 0. -1.
     999901    1    3    3    0    0 -0.94577201129E-01 -0.74871038940E-01 -0.36952028875E-01  0.88899717203E+00  0.88000000000E+00 0.  1.
        -11    1    4    4    0    0  0.24116284263E-01  0.14147891154E-01  0.10191006002E-01  0.29763664342E-01  0.51100000000E-03 0. -1.
         11    1    4    4    0    0  0.59811595977E-01  0.69963616957E-01  0.44721341409E-01  0.10233569372E+00  0.51100000000E-03 0.  1.
</event>
<event>
 8    1  0.1103774E+005  0.1043930E+01  0.7957747E-01            NaN
         13   -1    0    0    0    0  0.00000000000E+00  0.00000000000E+00  0.74505805969E-08  0.10566000000E+00  0.10566000000E+00 0.  1.
     999900   -1    0    0    0    0 -0.00000000000E+00 -0.00000000000E+00 -0.74505805969E-08  0.93827000000E+00  0.93827000000E+00 0. -1.
     999902    2    1    2    0    0 -0.17995760257E-01 -0.52997028071E-02  0.14356263301E-01  0.10203072031E+01  0.10200337015E+01 0.  0.
     999903    2    3    3    0    0 -0.12659274482E+00  0.31134202114E-01 -0.13087198513E-01  0.13245931181E+00  0.19471336310E-01 0.  0.
         14    1    1    2    0    0  0.17995760257E-01  0.52997028071E-02 -0.14356263301E-01  0.23622796893E-01  0.00000000000E+00 0. -1.
     999901    1    3    3    0    0  0.10859698456E+00 -0.36433904921E-01  0.27443461814E-01  0.88784789130E+00  0.88000000000E+00 0.  1.
        -11    1    4    4    0    0 -0.70915216749E-01  0.26999745624E-01 -0.10024859313E-01  0.76542231190E-01  0.51100000000E-03 0.  1.
         11    1    4    4    0    0 -0.55677528072E-01  0.41344564901E-02 -0.30623392003E-02  0.55917080620E-01  0.51100000000E-03 0. -1.
</event>
<event>
 8    1  0.1489989E+005  0.1043930E+01  0.7957747E-01            NaN
         13   -1    0    0    0    0  0.00000000000E+00  0.00000000000E+00  0.74505805969E-08  0.10566000000E+00  0.10566000000E+00 0. -1.
     999900   -1    0    0    0    0 -0.00000000000E+00 -0.00000000000E+00 -0.74505805969E-08  0.93827000000E+00  0.93827000000E+00 0.  1.
     999902    2    1    2    0    0 -0.20015928536E-01 -0.10941907000E-01 -0.22280874030E-01  0.10120426973E+01  0.10115402222E+01 0.  0.
     999903    2    3    3    0    0  0.91167521588E-01 -0.76135588031E-01 -0.22635809308E-01  0.12265408620E+00  0.20579121495E-01 0.  0.
         14    1    1    2    0    0  0.20015928536E-01  0.10941907000E-01  0.22280874030E-01  0.31887302669E-01  0.00000000000E+00 0. -1.
     999901    1    3    3    0    0 -0.11118345012E+00  0.65193681031E-01  0.35493527810E-03  0.88938861113E+00  0.88000000000E+00 0.  1.
        -11    1    4    4    0    0  0.24306985829E-01 -0.22144056263E-01  0.28664780290E-02  0.33010098533E-01  0.51100000000E-03 0. -1.
         11    1    4    4    0    0  0.66860535759E-01 -0.53991531767E-01 -0.25502287337E-01  0.89643987668E-01  0.51100000000E-03 0.  1.
</event>
<event>
 8    1  0.1103774E+005  0.1043930E+01  0.7957747E-01            NaN
         13   -1    0    0    0    0  0.00000000000E+00  0.00000000000E+00  0.74505805969E-08  0.10566000000E+00  0.10566000000E+00 0. -1.
     999900   -1    0    0    0    0 -0.00000000000E+00 -0.00000000000E+00 -0.74505805969E-08  0.93827000000E+00  0.93827000000E+00 0.  1.
     999902    2    1    2    0    0 -0.11659060066E-01 -0.17746932640E-01  0.92676529968E-02  0.10207615583E+01  0.10204985949E+01 0.  0.
     999903    2    3    3    0    0 -0.21296277844E-01 -0.63305560825E-01 -0.11122430198E+00  0.13133096752E+00  0.20392454401E-01 0.  0.
         14    1    1    2    0    0  0.11659060066E-01  0.17746932640E-01 -0.92676529968E-02  0.23168441722E-01  0.00000000000E+00 0.  1.
     999901    1    3    3    0    0  0.96372177786E-02  0.45558628185E-01  0.12049195498E+00  0.88943059076E+00  0.88000000000E+00 0. -1.
        -11    1    4    4    0    0 -0.24532231678E-01 -0.47117617587E-01 -0.88861150424E-01  0.10353002199E+00  0.51100000000E-03 0.  1.
         11    1    4    4    0    0  0.32359538335E-02 -0.16187943238E-01 -0.22363151556E-01  0.27800945523E-01  0.51100000000E-03 0. -1.
</event>
<event>
 7    1  0.1103774E+005  0.1043930E+01  0.7957747E-01            NaN
         13   -1    0    0    0    0  0.00000000000E+00  0.00000000000E+00  0.74505805969E-08  0.10566000000E+00  0.10566000000E+00 0. -1.
     999900   -1    0    0    0    0 -0.00000000000E+00 -0.00000000000E+00 -0.74505805969E-08  0.93827000000E+00  0.93827000000E+00 0. -1.
     999902    2    1    2    0    0  0.17436980494E-02  0.10158904831E-01  0.20927592567E-01  0.10206017347E+01  0.10203350886E+01 0.  0.
         14    1    1    2    0    0 -0.17436980494E-02 -0.10158904831E-01 -0.20927592567E-01  0.23328265279E-01  0.00000000000E+00 0.  1.
     999901    1    3    3    0    0 -0.80790495766E-01  0.30890997905E-01 -0.63707045635E-01  0.88653254064E+00  0.88000000000E+00 0. -1.
        -11    1    3    3    0    0  0.56011543202E-01 -0.41077359425E-01  0.47764173219E-01  0.84298990465E-01  0.51100000000E-03 0. -1.
         11    1    3    3    0    0  0.26522650614E-01  0.20345266351E-01  0.36870464983E-01  0.49770203612E-01  0.51100000000E-03 0.  1.
</event>
<event>
 8    1  0.1103774E+005  0.1043930E+01  0.7957747E-01            NaN
         13   -1    0    0    0    0  0.00000000000E+00  0.00000000000E+00  0.74505805969E-08  0.10566000000E+00  0.10566000000E+00 0. -1.
     999900   -1    0    0    0    0 -0.00000000000E+00 -0.00000000000E+00 -0.74505805969E-08  0.93827000000E+00  0.93827000000E+00 0. -1.
     999902    2    1    2    0    0 -0.18354407114E-01 -0.19355834900E-01  0.15242521818E-01  0.10132075802E+01  0.10127416914E+01 0.  0.
     999903    2    3    3    0    0 -0.99138638779E-01  0.40263858949E-01  0.63667710808E-01  0.12617567612E+00  0.20422433943E-01 0.  0.
         14    1    1    2    0    0  0.18354407114E-01  0.19355834900E-01 -0.15242521818E-01  0.30722419770E-01  0.00000000000E+00 0.  1.
     999901    1    3    3    0    0  0.80784231665E-01 -0.59619693849E-01 -0.48425188990E-01  0.88703190411E+00  0.88000000000E+00 0. -1.
        -11    1    4    4    0    0 -0.36198496386E-01  0.44037787537E-02  0.20055235589E-01  0.41619682885E-01  0.51100000000E-03 0.  1.
         11    1    4    4    0    0 -0.62940142393E-01  0.35860080195E-01  0.43612475219E-01  0.84555993234E-01  0.51100000000E-03 0. -1.
</event>
<event>
 8    1  0.1103774E+005  0.1043930E+01  0.7957747E-01            NaN
         13   -1    0    0    0    0  0.00000000000E+00  0.00000000000E+00  0.74505805969E-08  0.10566000000E+00  0.10566000000E+00 0.  1.
     999900   -1    0    0    0    0 -0.00000000000E+00 -0.00000000000E+00 -0.74505805969E-08  0.93827000000E+00  0.93827000000E+00 0. -1.
     999902    2    1    2    0    0 -0.20953686594E-01 -0.87768678854E-02  0.66662067852E-02  0.10202545126E+01  0.10199797752E+01 0.  0.
     999903    2    3    3    0    0 -0.10446630256E-01  0.35408753963E-02 -0.12681019856E+00  0.13004213577E+00  0.26616925722E-01 0.  0.
         14    1    1    2    0    0  0.20953686594E-01  0.87768678854E-02 -0.66662067852E-02  0.23675487422E-01  0.00000000000E+00 0. -1.
     999901    1    3    3    0    0 -0.10507056338E-01 -0.12317743282E-01  0.13347640535E+00  0.89021237681E+00  0.88000000000E+00 0.  1.
        -11    1    4    4    0    0 -0.76778306716E-02 -0.11210847693E-01 -0.67870760188E-01  0.69219458242E-01  0.51100000000E-03 0. -1.
         11    1    4    4    0    0 -0.27687995844E-02  0.14751723090E-01 -0.58939438374E-01  0.60822677532E-01  0.51100000000E-03 0.  1.
</event>
<event>
 8    1  0.1103774E+005  0.1043930E+01  0.7957747E-01            NaN
         13   -1    0    0    0    0  0.00000000000E+00  0.00000000000E+00  0.74505805969E-08  0.10566000000E+00  0.10566000000E+00 0.  1.
     999900   -1    0    0    0    0 -0.00000000000E+00 -0.00000000000E+00 -0.74505805969E-08  0.93827000000E+00  0.93827000000E+00 0. -1.
     999902    2    1    2    0    0 -0.12045903450E-01 -0.21442245626E-01  0.80392549702E-02  0.10180552380E+01  0.10177263701E+01 0.  0.
     999903    2    3    3    0    0  0.79760415017E-01  0.42463704701E-01 -0.84818342885E-01  0.12612760413E+00  0.23433548900E-01 0.  0.
         14    1    1    2    0    0  0.12045903450E-01  0.21442245626E-01 -0.80392549702E-02  0.25874761987E-01  0.00000000000E+00 0. -1.
     999901    1    3    3    0    0 -0.91806318467E-01 -0.63905950327E-01  0.92857597856E-01  0.89192763388E+00  0.88000000000E+00 0.  1.
        -11    1    4    4    0    0  0.13817805723E-01  0.24269522615E-02 -0.24349609331E-01  0.28106697562E-01  0.51100000000E-03 0.  1.
         11    1    4    4    0    0  0.65942609294E-01  0.40036752440E-01 -0.60468733555E-01  0.98020906572E-01  0.51100000000E-03 0. -1.
</event>
<event>
 8    1  0.1103774E+005  0.1043930E+01  0.7957747E-01            NaN
         13   -1    0    0    0    0  0.00000000000E+00  0.00000000000E+00  0.74505805969E-08  0.10566000000E+00  0.10566000000E+00 0. -1.
     999900   -1    0    0    0    0 -0.00000000000E+00 -0.00000000000E+00 -0.74505805969E-08  0.93827000000E+00  0.93827000000E+00 0. -1.
     999902    2    1    2    0    0  0.10598144828E-01  0.20082924929E-01  0.82072693000E-02  0.10197845280E+01  0.10194986414E+01 0.  0.
     999903    2    3    3    0    0  0.39217379879E-01  0.91288400427E-01 -0.84162876591E-01  0.13162827814E+00  0.19262369359E-01 0.  0.
         14    1    1    2    0    0 -0.10598144828E-01 -0.20082924929E-01 -0.82072693000E-02  0.24145471975E-01  0.00000000000E+00 0. -1.
     999901    1    3    3    0    0 -0.28619235051E-01 -0.71205475498E-01  0.92370145891E-01  0.88815624988E+00  0.88000000000E+00 0.  1.
        -11    1    4    4    0    0  0.33058357874E-02  0.29367948868E-01 -0.22464563293E-01  0.37125768624E-01  0.51100000000E-03 0. -1.
         11    1    4    4    0    0  0.35911544092E-01  0.61920451559E-01 -0.61698313298E-01  0.94502509517E-01  0.51100000000E-03 0.  1.
</event>
<event>
 8    1  0.1103774E+005  0.1043930E+01  0.7957747E-01            NaN
         13   -1    0    0    0    0  0.00000000000E+00  0.00000000000E+00  0.74505805969E-08  0.10566000000E+00  0.10566000000E+00 0. -1.
     999900   -1    0    0    0    0 -0.00000000000E+00 -0.00000000000E+00 -0.74505805969E-08  0.93827000000E+00  0.93827000000E+00 0. -1.
     999902    2    1    2    0    0  0.23216003675E-01  0.52418041097E-02  0.14269112237E-03  0.10201291660E+01  0.10198514773E+01 0.  0.
     999903    2    3    3    0    0 -0.66455849044E-01 -0.30639621689E-01  0.10407464881E+00  0.12876483551E+00  0.19841473010E-01 0.  0.
         14    1    1    2    0    0 -0.23216003675E-01 -0.52418041097E-02 -0.14269112237E-03  0.23800833971E-01  0.00000000000E+00 0.  1.
     999901    1    3    3    0    0  0.89671852719E-01  0.35881425799E-01 -0.10393195768E+00  0.89136433052E+00  0.88000000000E+00 0. -1.
        -11    1    4    4    0    0 -0.13675418905E-01 -0.10903912067E-01  0.38590006336E-01  0.42371713332E-01  0.51100000000E-03 0.  1.
         11    1    4    4    0    0 -0.52780430139E-01 -0.19735709621E-01  0.65484642470E-01  0.86393122181E-01  0.51100000000E-03 0. -1.
</event>
<event>
 8    1  0.1103774E+005  0.1043930E+01  0.7957747E-01            NaN
         13   -1    0    0    0    0  0.00000000000E+00  0.00000000000E+00  0.74505805969E-08  0.10566000000E+00  0.10566000000E+00 0. -1.
     999900   -1    0    0    0    0 -0.00000000000E+00 -0.00000000000E+00 -0.74505805969E-08  0.93827000000E+00  0.93827000000E+00 0. -1.
     999902    2    1    2    0    0 -0.10879382590E-01  0.11046671178E-01 -0.24587472230E-01  0.10148622567E+01  0.10144458913E+01 0.  0.
     999903    2    3    3    0    0 -0.95826799466E-01  0.80400267214E-01  0.12201132980E-01  0.12729288680E+00  0.20189921248E-01 0.  0.
         14    1    1    2    0    0  0.10879382590E-01 -0.11046671178E-01  0.24587472230E-01  0.29067743296E-01  0.00000000000E+00 0. -1.
     999901    1    3    3    0    0  0.84947416876E-01 -0.69353596036E-01 -0.36788605211E-01  0.88756936990E+00  0.88000000000E+00 0. -1.
        -11    1    4    4    0    0 -0.65139834005E-01  0.54425644863E-01  0.17698987817E-01  0.86711383818E-01  0.51100000000E-03 0.  1.
         11    1    4    4    0    0 -0.30686965461E-01  0.25974622351E-01 -0.54978548365E-02  0.40581502982E-01  0.51100000000E-03 0. -1.
</event>
<event>
 8    1  0.1103774E+005  0.1043930E+01  0.7957747E-01            NaN
         13   -1    0    0    0    0  0.00000000000E+00  0.00000000000E+00  0.74505805969E-08  0.10566000000E+00  0.10566000000E+00 0.  1.
     999900   -1    0    0    0    0 -0.00000000000E+00 -0.00000000000E+00 -0.74505805969E-08  0.93827000000E+00  0.93827000000E+00 0.  1.
     999902    2    1    2    0    0 -0.20445701022E-01  0.74020246918E-02 -0.93518168354E-02  0.10202599105E+01  0.10199852998E+01 0.  0.
     999903    2    3    3    0    0  0.21408660807E-01  0.10945471021E+00  0.64869590414E-01  0.13027375580E+00  0.18014531502E-01 0.  0.
         14    1    1    2    0    0  0.20445701022E-01 -0.74020246918E-02  0.93518168354E-02  0.23670089521E-01  0.00000000000E+00 0. -1.
     999901    1    3    3    0    0 -0.41854361829E-01 -0.10205268552E+00 -0.74221407249E-01  0.88998615468E+00  0.88000000000E+00 0.  1.
        -11    1    4    4    0    0  0.21300232625E-01  0.77813174529E-01  0.40140022460E-01  0.90111445246E-01  0.51100000000E-03 0.  1.
         11    1    4    4    0    0  0.10842818157E-03  0.31641535680E-01  0.24729567954E-01  0.40162310554E-01  0.51100000000E-03 0. -1.
</event>
<event>
 8    1  0.1103774E+005  0.1043930E+01  0.7957747E-01            NaN
         13   -1    0    0    0    0  0.00000000000E+00  0.00000000000E+00  0.74505805969E-08  0.10566000000E+00  0.10566000000E+00 0.  1.
     999900   -1    0    0    0    0 -0.00000000000E+00 -0.00000000000E+00 -0.74505805969E-08  0.93827000000E+00  0.93827000000E+00 0. -1.
     999902    2    1    2    0    0  0.18289995398E-01 -0.72663717449E-02  0.16177861573E-01  0.10184535934E+01  0.10181349000E+01 0.  0.
     999903    2    3    3    0    0  0.46506309436E-02 -0.93007148245E-01  0.90081526379E-01  0.13109838563E+00  0.20003682856E-01 0.  0.
         14    1    1    2    0    0 -0.18289995398E-01  0.72663717449E-02 -0.16177861573E-01  0.25476406636E-01  0.00000000000E+00 0. -1.
     999901    1    3    3    0    0  0.13639364454E-01  0.85740776500E-01 -0.73903664806E-01  0.88735520773E+00  0.88000000000E+00 0. -1.
        -11    1    4    4    0    0  0.62732266276E-02 -0.26464190434E-01  0.37199886910E-01  0.46084698705E-01  0.51100000000E-03 0. -1.
         11    1    4    4    0    0 -0.16225956840E-02 -0.66542957811E-01  0.52881639469E-01  0.85013686927E-01  0.51100000000E-03 0.  1.
</event>
<event>
 8    1  0.1103774E+005  0.1043930E+01  0.7957747E-01            NaN
         13   -1    0    0    0    0  0.00000000000E+00  0.00000000000E+00  0.74505805969E-08  0.10566000000E+00  0.10566000000E+00 0.  1.
     999900   -1    0    0    0    0 -0.00000000000E+00 -0.00000000000E+00 -0.74505805969E-08  0.93827000000E+00  0.93827000000E+00 0.  1.
     999902    2    1    2    0    0 -0.14838211015E-01 -0.53490743401E-02  0.18055355723E-01  0.10199554099E+01  0.10196736032E+01 0.  0.
     999903    2    3    3    0    0 -0.99944503249E-01  0.69730696629E-01  0.47167967511E-01  0.13218990188E+00  0.19951922646E-01 0.  0.
         14    1    1    2    0    0  0.14838211015E-01  0.53490743401E-02 -0.18055355723E-01  0.23974590147E-01  0.00000000000E+00 0. -1.
     999901    1    3    3    0    0  0.85106292234E-01 -0.75079770969E-01 -0.29112611788E-01  0.88776550798E+00  0.88000000000E+00 0.  1.
        -11    1    4    4    0    0 -0.30748429177E-01  0.26566368038E-01  0.24851150553E-01  0.47634846619E-01  0.51100000000E-03 0.  1.
         11    1    4    4    0    0 -0.69196074072E-01  0.43164328591E-01  0.22316816957E-01  0.84555055259E-01  0.51100000000E-03 0. -1.
</event>
<event>
 8    1  0.1103774E+005  0.1043930E+01  0.7957747E-01            NaN
         13   -1    0    0    0    0  0.00000000000E+00  0.00000000000E+00  0.74505805969E-08  0.10566000000E+00  0.10566000000E+00 0. -1.
     999900   -1    0    0    0    0 -0.00000000000E+00 -0.00000000000E+00 -0.74505805969E-08  0.93827000000E+00  0.93827000000E+00 0.  1.
     999902    2    1    2    0    0 -0.23111483796E-01  0.29069027502E-02 -0.45600768908E-02  0.10201942660E+01  0.10199181121E+01 0.  0.
     999903    2    3    3    0    0  0.45041580864E-01 -0.33091750882E-01 -0.11557332761E+00  0.12987708370E+00  0.19673709172E-01 0.  0.
         14    1    1    2    0    0  0.23111483796E-01 -0.29069027502E-02  0.45600768908E-02  0.23735733991E-01  0.00000000000E+00 0.  1.
     999901    1    3    3    0    0 -0.68153064660E-01  0.35998653632E-01  0.11101325071E+00  0.89031718231E+00  0.88000000000E+00 0. -1.
        -11    1    4    4    0    0  0.19338707154E-01 -0.53052855033E-02 -0.27734919523E-01  0.34228913664E-01  0.51100000000E-03 0.  1.
         11    1    4    4    0    0  0.25702873711E-01 -0.27786465379E-01 -0.87838408082E-01  0.95648170033E-01  0.51100000000E-03 0. -1.
</event>
<event>
 8    1  0.1103774E+005  0.1043930E+01  0.7957747E-01            NaN
         13   -1    0    0    0    0  0.00000000000E+00  0.00000000000E+00  0.74505805969E-08  0.10566000000E+00  0.10566000000E+00 0. -1.
     999900   -1    0    0    0    0 -0.00000000000E+00 -0.00000000000E+00 -0.74505805969E-08  0.93827000000E+00  0.93827000000E+00 0.  1.
     999902    2    1    2    0    0  0.45968011240E-02 -0.19782427453E-01 -0.11827765254E-01  0.10204274247E+01  0.10201567321E+01 0.  0.
     999903    2    3    3    0    0 -0.47227739146E-01  0.11750712271E+00 -0.46258226712E-02  0.12824690956E+00  0.19684723598E-01 0.  0.
         14    1    1    2    0    0 -0.45968011240E-02  0.19782427453E-01  0.11827765254E-01  0.23502575336E-01  0.00000000000E+00 0. -1.
     999901    1    3    3    0    0  0.51824540270E-01 -0.13728955016E+00 -0.72019425831E-02  0.89218051511E+00  0.88000000000E+00 0.  1.
        -11    1    4    4    0    0 -0.19888032628E-01  0.74635771031E-01 -0.48942128187E-02  0.77396683387E-01  0.51100000000E-03 0. -1.
         11    1    4    4    0    0 -0.27339706518E-01  0.42871351680E-01  0.26839014752E-03  0.50850226171E-01  0.51100000000E-03 0.  1.
</event>
<event>
 8    1  0.1103774E+005  0.1043930E+01  0.7957747E-01            NaN
         13   -1    0    0    0    0  0.00000000000E+00  0.00000000000E+00  0.74505805969E-08  0.10566000000E+00  0.10566000000E+00 0. -1.
     999900   -1    0    0    0    0 -0.00000000000E+00 -0.00000000000E+00 -0.74505805969E-08  0.93827000000E+00  0.93827000000E+00 0.  1.
     999902    2    1    2    0    0 -0.22341757871E-01 -0.13939127092E-02  0.69837710330E-02  0.10204806888E+01  0.10202112360E+01 0.  0.
     999903    2    3    3    0    0 -0.40512935817E-01  0.89671808093E-01  0.85688017426E-01  0.13210153799E+00  0.20640951378E-01 0.  0.
         14    1    1    2    0    0  0.22341757871E-01  0.13939127092E-02 -0.69837710330E-02  0.23449311189E-01  0.00000000000E+00 0.  1.
     999901    1    3    3    0    0  0.18171177947E-01 -0.91065720802E-01 -0.78704246393E-01  0.88837915082E+00  0.88000000000E+00 0.  1.
        -11    1    4    4    0    0  0.16829562261E-02  0.86091683293E-02  0.10976324615E-01  0.14060261165E-01  0.51100000000E-03 0.  1.
         11    1    4    4    0    0 -0.42195892043E-01  0.81062639764E-01  0.74711692811E-01  0.11804127682E+00  0.51100000000E-03 0. -1.
</event>
<event>
 8    1  0.1103774E+005  0.1043930E+01  0.7957747E-01            NaN
         13   -1    0    0    0    0  0.00000000000E+00  0.00000000000E+00  0.74505805969E-08  0.10566000000E+00  0.10566000000E+00 0.  1.
     999900   -1    0    0    0    0 -0.00000000000E+00 -0.00000000000E+00 -0.74505805969E-08  0.93827000000E+00  0.93827000000E+00 0. -1.
     999902    2    1    2    0    0  0.68087412872E-02  0.29090854669E-02 -0.19030755629E-01  0.10235096328E+01  0.10233059059E+01 0.  0.
     999903    2    3    3    0    0 -0.58564380763E-01 -0.10195948651E+00 -0.62324970778E-01  0.13382123144E+00  0.14078224932E-01 0.  0.
         14    1    1    2    0    0 -0.68087412872E-02 -0.29090854669E-02  0.19030755629E-01  0.20420367185E-01  0.00000000000E+00 0.  1.
     999901    1    3    3    0    0  0.65373122050E-01  0.10486857198E+00  0.43294215149E-01  0.88968840138E+00  0.88000000000E+00 0. -1.
        -11    1    4    4    0    0 -0.22161435358E-01 -0.35765623114E-01 -0.29856146458E-01  0.51594181999E-01  0.51100000000E-03 0.  1.
         11    1    4    4    0    0 -0.36402945405E-01 -0.66193863400E-01 -0.32468824320E-01  0.82227049440E-01  0.51100000000E-03 0. -1.
</event>
<event>
 8    1  0.1103774E+005  0.1043930E+01  0.7957747E-01            NaN
         13   -1    0    0    0    0  0.00000000000E+00  0.00000000000E+00  0.74505805969E-08  0.10566000000E+00  0.10566000000E+00 0.  1.
     999900   -1    0    0    0    0 -0.00000000000E+00 -0.00000000000E+00 -0.74505805969E-08  0.93827000000E+00  0.93827000000E+00 0.  1.
     999902    2    1    2    0    0 -0.97746393817E-02  0.21384120223E-01 -0.54363557964E-03  0.10204115028E+01  0.10201404390E+01 0.  0.
     999903    2    3    3    0    0  0.20743084059E-01 -0.78521766931E-01  0.98096052932E-01  0.12876005411E+00  0.18983480061E-01 0.  0.
         14    1    1    2    0    0  0.97746393817E-02 -0.21384120223E-01  0.54363557964E-03  0.23518497240E-01  0.00000000000E+00 0. -1.
     999901    1    3    3    0    0 -0.30517723440E-01  0.99905887154E-01 -0.98639688511E-01  0.89165144865E+00  0.88000000000E+00 0. -1.
        -11    1    4    4    0    0 -0.26338232646E-02 -0.18558078655E-01  0.17812150523E-01  0.25862581766E-01  0.51100000000E-03 0. -1.
         11    1    4    4    0    0  0.23376907323E-01 -0.59963688275E-01  0.80283902409E-01  0.10289747234E+00  0.51100000000E-03 0.  1.
</event>
<event>
 8    1  0.1103774E+005  0.1043930E+01  0.7957747E-01            NaN
         13   -1    0    0    0    0  0.00000000000E+00  0.00000000000E+00  0.74505805969E-08  0.10566000000E+00  0.10566000000E+00 0. -1.
     999900   -1    0    0    0    0 -0.00000000000E+00 -0.00000000000E+00 -0.74505805969E-08  0.93827000000E+00  0.93827000000E+00 0.  1.
     999902    2    1    2    0    0 -0.19426976433E-01  0.77052201365E-02  0.96105700648E-02  0.10209269374E+01  0.10206677572E+01 0.  0.
     999903    2    3    3    0    0 -0.10022174290E+00  0.84327604259E-01 -0.16302550633E-01  0.13353171890E+00  0.20233739308E-01 0.  0.
         14    1    1    2    0    0  0.19426976433E-01 -0.77052201365E-02 -0.96105700648E-02  0.23003062571E-01  0.00000000000E+00 0. -1.
     999901    1    3    3    0    0  0.80794766467E-01 -0.76622384122E-01  0.25913120698E-01  0.88739521853E+00  0.88000000000E+00 0.  1.
        -11    1    4    4    0    0 -0.60017087951E-01  0.37634445421E-01 -0.10899351157E-01  0.71676072052E-01  0.51100000000E-03 0.  1.
         11    1    4    4    0    0 -0.40204654949E-01  0.46693158838E-01 -0.54031994769E-02  0.61855646852E-01  0.51100000000E-03 0. -1.
</event>
<event>
 8    1  0.1103774E+005  0.1043930E+01  0.7957747E-01            NaN
         13   -1    0    0    0    0  0.00000000000E+00  0.00000000000E+00  0.74505805969E-08  0.10566000000E+00  0.10566000000E+00 0. -1.
     999900   -1    0    0    0    0 -0.00000000000E+00 -0.00000000000E+00 -0.74505805969E-08  0.93827000000E+00  0.93827000000E+00 0.  1.
     999902    2    1    2    0    0  0.16166096033E-01  0.72204342121E-02  0.15563009448E-01  0.10203570368E+01  0.10200847014E+01 0.  0.
     999903    2    3    3    0    0 -0.41467409794E-01 -0.13883064743E-02 -0.11945835431E+00  0.12815386482E+00  0.20775976120E-01 0.  0.
         14    1    1    2    0    0 -0.16166096033E-01 -0.72204342121E-02 -0.15563009448E-01  0.23572963205E-01  0.00000000000E+00 0. -1.
     999901    1    3    3    0    0  0.57633505828E-01  0.86087406864E-02  0.13502136376E+00  0.89220317197E+00  0.88000000000E+00 0. -1.
        -11    1    4    4    0    0 -0.36987617419E-01 -0.26229886592E-02 -0.77278692746E-01  0.85715934256E-01  0.51100000000E-03 0.  1.
         11    1    4    4    0    0 -0.44797923748E-02  0.12346821849E-02 -0.42179661565E-01  0.42437930564E-01  0.51100000000E-03 0. -1.
</event>
<event>
 8    1  0.1103774E+005  0.1043930E+01  0.7957747E-01            NaN
         13   -1    0    0    0    0  0.00000000000E+00  0.00000000000E+00  0.74505805969E-08  0.10566000000E+00  0.10566000000E+00 0.  1.
     999900   -1    0    0    0    0 -0.00000000000E+00 -0.00000000000E+00 -0.74505805969E-08  0.93827000000E+00  0.93827000000E+00 0. -1.
     999902    2    1    2    0    0  0.18579440260E-01 -0.15253785254E-01  0.14952504793E-02  0.10198445409E+01  0.10195600906E+01 0.  0.
     999903    2    3    3    0    0  0.11358326774E+00  0.62423076749E-01 -0.62175655757E-02  0.13129577487E+00  0.20053008630E-01 0.  0.
         14    1    1    2    0    0 -0.18579440260E-01  0.15253785254E-01 -0.14952504793E-02  0.24085459077E-01  0.00000000000E+00 0. -1.
     999901    1    3    3    0    0 -0.95003827480E-01 -0.77676862003E-01  0.77128160550E-02  0.88854876606E+00  0.88000000000E+00 0.  1.
        -11    1    4    4    0    0  0.43455147812E-01  0.14195868121E-01 -0.65374365805E-02  0.46183024383E-01  0.51100000000E-03 0. -1.
         11    1    4    4    0    0  0.70128119928E-01  0.48227208628E-01  0.31987100478E-03  0.85112750485E-01  0.51100000000E-03 0.  1.
</event>
<event>
 8    1  0.1103774E+005  0.1043930E+01  0.7957747E-01            NaN
         13   -1    0    0    0    0  0.00000000000E+00  0.00000000000E+00  0.74505805969E-08  0.10566000000E+00  0.10566000000E+00 0. -1.
     999900   -1    0    0    0    0 -0.00000000000E+00 -0.00000000000E+00 -0.74505805969E-08  0.93827000000E+00  0.93827000000E+00 0. -1.
     999902    2    1    2    0    0  0.71711121362E-02  0.57405366770E-02  0.21571750430E-01  0.10204839123E+01  0.10202145344E+01 0.  0.
     999903    2    3    3    0    0 -0.97013786104E-01 -0.41369623083E-01 -0.70002330671E-01  0.12837423717E+00  0.21365815264E-01 0.  0.
         14    1    1    2    0    0 -0.71711121362E-02 -0.57405366770E-02 -0.21571750430E-01  0.23446087674E-01  0.00000000000E+00 0.  1.
     999901    1    3    3    0    0  0.10418489824E+00  0.47110159760E-01  0.91574081101E-01  0.89210967515E+00  0.88000000000E+00 0.  1.
        -11    1    4    4    0    0 -0.23948298256E-01 -0.14243196372E-01 -0.86388075442E-02  0.29176698734E-01  0.51100000000E-03 0.  1.
         11    1    4    4    0    0 -0.73065487848E-01 -0.27126426711E-01 -0.61363523127E-01  0.99197538438E-01  0.51100000000E-03 0. -1.
</event>
<event>
 8    1  0.1103774E+005  0.1043930E+01  0.7957747E-01            NaN
         13   -1    0    0    0    0  0.00000000000E+00  0.00000000000E+00  0.74505805969E-08  0.10566000000E+00  0.10566000000E+00 0.  1.
     999900   -1    0    0    0    0 -0.00000000000E+00 -0.00000000000E+00 -0.74505805969E-08  0.93827000000E+00  0.93827000000E+00 0.  1.
     999902    2    1    2    0    0 -0.19532516611E-02 -0.22458510973E-01  0.52096396723E-02  0.10207925790E+01  0.10205303273E+01 0.  0.
     999903    2    3    3    0    0  0.78831585627E-01  0.43636368284E-01  0.92198284083E-01  0.13036473389E+00  0.19387849959E-01 0.  0.
         14    1    1    2    0    0  0.19532516611E-02  0.22458510973E-01 -0.52096396723E-02  0.23137421047E-01  0.00000000000E+00 0.  1.
     999901    1    3    3    0    0 -0.80784837288E-01 -0.66094879258E-01 -0.86988644411E-01  0.89042784506E+00  0.88000000000E+00 0.  1.
        -11    1    4    4    0    0  0.29871458010E-01  0.26354950956E-01  0.46119316344E-01  0.60943743769E-01  0.51100000000E-03 0.  1.
         11    1    4    4    0    0  0.48960127616E-01  0.17281417329E-01  0.46078967739E-01  0.69420990125E-01  0.51100000000E-03 0. -1.
</event>
<event>
 8    1  0.1103774E+005  0.1043930E+01  0.7957747E-01            NaN
         13   -1    0    0    0    0  0.00000000000E+00  0.00000000000E+00  0.74505805969E-08  0.10566000000E+00  0.10566000000E+00 0.  1.
     999900   -1    0    0    0    0 -0.00000000000E+00 -0.00000000000E+00 -0.74505805969E-08  0.93827000000E+00  0.93827000000E+00 0. -1.
     999902    2    1    2    0    0  0.10430115173E-02 -0.22365341833E-01 -0.58863687174E-02  0.10207794984E+01  0.10205169467E+01 0.  0.
     999903    2    3    3    0    0 -0.25703051181E-01 -0.73641981844E-01  0.10466869916E+00  0.13197858214E+00  0.19468467617E-01 0.  0.
         14    1    1    2    0    0 -0.10430115173E-02  0.22365341833E-01  0.58863687174E-02  0.23150501615E-01  0.00000000000E+00 0. -1.
     999901    1    3    3    0    0  0.26746062699E-01  0.51276640011E-01 -0.11055506787E+00  0.88880091624E+00  0.88000000000E+00 0. -1.
        -11    1    4    4    0    0 -0.20072333232E-01 -0.40014415141E-01  0.71817703609E-01  0.84629165500E-01  0.51100000000E-03 0. -1.
         11    1    4    4    0    0 -0.56307179492E-02 -0.33627566703E-01  0.32850995547E-01  0.47349416643E-01  0.51100000000E-03 0.  1.
</event>
<event>
 8    1  0.1103774E+005  0.1043930E+01  0.7957747E-01            NaN
         13   -1    0    0    0    0  0.00000000000E+00  0.00000000000E+00  0.74505805969E-08  0.10566000000E+00  0.10566000000E+00 0.  1.
     999900   -1    0    0    0    0 -0.00000000000E+00 -0.00000000000E+00 -0.74505805969E-08  0.93827000000E+00  0.93827000000E+00 0. -1.
     999902    2    1    2    0    0 -0.19001097865E-01  0.94222244851E-03 -0.11406614342E-01  0.10217480174E+01  0.10215072054E+01 0.  0.
     999903    2    3    3    0    0  0.96130272816E-01 -0.78748472421E-01 -0.34246175858E-01  0.13038530503E+00  0.19625899861E-01 0.  0.
         14    1    1    2    0    0  0.19001097865E-01 -0.94222244851E-03  0.11406614342E-01  0.22181982643E-01  0.00000000000E+00 0.  1.
     999901    1    3    3    0    0 -0.11513137068E+00  0.79690694870E-01  0.22839561515E-01  0.89136271233E+00  0.88000000000E+00 0.  1.
        -11    1    4    4    0    0  0.40486371409E-01 -0.41643664796E-01 -0.23446010343E-01  0.62636392054E-01  0.51100000000E-03 0.  1.
         11    1    4    4    0    0  0.55643901407E-01 -0.37104807626E-01 -0.10800165514E-01  0.67748912972E-01  0.51100000000E-03 0. -1.
</event>
<event>
 8    1  0.1103774E+005  0.1043930E+01  0.7957747E-01            NaN
         13   -1    0    0    0    0  0.00000000000E+00  0.00000000000E+00  0.74505805969E-08  0.10566000000E+00  0.10566000000E+00 0. -1.
     999900   -1    0    0    0    0 -0.00000000000E+00 -0.00000000000E+00 -0.74505805969E-08  0.93827000000E+00  0.93827000000E+00 0.  1.
     999902    2    1    2    0    0 -0.17550001911E-01  0.99638921390E-02  0.12182452750E-01  0.10203568401E+01  0.10200845000E+01 0.  0.
     999903    2    3    3    0    0  0.13019876094E-01 -0.99063255846E-01 -0.78319443792E-01  0.12849809021E+00  0.19869023121E-01 0.  0.
         14    1    1    2    0    0  0.17550001911E-01 -0.99638921390E-02 -0.12182452750E-01  0.23573159920E-01  0.00000000000E+00 0.  1.
     999901    1    3    3    0    0 -0.30569878005E-01  0.10902714798E+00  0.90501896542E-01  0.89185874987E+00  0.88000000000E+00 0. -1.
        -11    1    4    4    0    0  0.99475170666E-02 -0.19746485237E-01 -0.12660913905E-01  0.25484046714E-01  0.51100000000E-03 0. -1.
         11    1    4    4    0    0  0.30723590279E-02 -0.79316770609E-01 -0.65658529886E-01  0.10301404350E+00  0.51100000000E-03 0.  1.
</event>
<event>
 8    1  0.1103774E+005  0.1043930E+01  0.7957747E-01            NaN
         13   -1    0    0    0    0  0.00000000000E+00  0.00000000000E+00  0.74505805969E-08  0.10566000000E+00  0.10566000000E+00 0. -1.
     999900   -1    0    0    0    0 -0.00000000000E+00 -0.00000000000E+00 -0.74505805969E-08  0.93827000000E+00  0.93827000000E+00 0.  1.
     999902    2    1    2    0    0 -0.13727796419E-01 -0.17474265537E-01  0.99839928894E-02  0.10195685045E+01  0.10192774170E+01 0.  0.
     999903    2    3    3    0    0  0.67012077790E-02 -0.54888146423E-01 -0.11550573543E+00  0.12964445456E+00  0.20211256179E-01 0.  0.
         14    1    1    2    0    0  0.13727796419E-01  0.17474265537E-01 -0.99839928894E-02  0.24361495533E-01  0.00000000000E+00 0.  1.
     999901    1    3    3    0    0 -0.20429004198E-01  0.37413880886E-01  0.12548972832E+00  0.88992404991E+00  0.88000000000E+00 0. -1.
        -11    1    4    4    0    0  0.97314022821E-02 -0.47955908356E-01 -0.83777459901E-01  0.97022642951E-01  0.51100000000E-03 0.  1.
         11    1    4    4    0    0 -0.30301945031E-02 -0.69322380664E-02 -0.31728275530E-01  0.32621811606E-01  0.51100000000E-03 0. -1.
</event>
<event>
 8    1  0.1103774E+005  0.1043930E+01  0.7957747E-01            NaN
         13   -1    0    0    0    0  0.00000000000E+00  0.00000000000E+00  0.74505805969E-08  0.10566000000E+00  0.10566000000E+00 0. -1.
     999900   -1    0    0    0    0 -0.00000000000E+00 -0.00000000000E+00 -0.74505805969E-08  0.93827000000E+00  0.93827000000E+00 0.  1.
     999902    2    1    2    0    0 -0.93949530065E-02 -0.12515633591E-01 -0.10164705623E-01  0.10252691461E+01  0.10250993096E+01 0.  0.
     999903    2    3    3    0    0 -0.17116792924E-02  0.95520475058E-01 -0.92866062735E-01  0.13478032087E+00  0.20360213297E-01 0.  0.
         14    1    1    2    0    0  0.93949530065E-02  0.12515633591E-01  0.10164705623E-01  0.18660853854E-01  0.00000000000E+00 0. -1.
     999901    1    3    3    0    0 -0.76832737141E-02 -0.10803610865E+00  0.82701357112E-01  0.89048882527E+00  0.88000000000E+00 0. -1.
        -11    1    4    4    0    0  0.33716456546E-02  0.84235571859E-01 -0.86746460267E-01  0.12096366831E+00  0.51100000000E-03 0.  1.
         11    1    4    4    0    0 -0.50833249470E-02  0.11284903199E-01 -0.61196024681E-02  0.13816652565E-01  0.51100000000E-03 0. -1.
</event>
<event>
 8    1  0.1103774E+005  0.1043930E+01  0.7957747E-01            NaN
         13   -1    0    0    0    0  0.00000000000E+00  0.00000000000E+00  0.74505805969E-08  0.10566000000E+00  0.10566000000E+00 0. -1.
     999900   -1    0    0    0    0 -0.00000000000E+00 -0.00000000000E+00 -0.74505805969E-08  0.93827000000E+00  0.93827000000E+00 0.  1.
     999902    2    1    2    0    0 -0.21681034602E-01 -0.59333099009E-02 -0.73571030612E-02  0.10202783955E+01  0.10200042186E+01 0.  0.
     999903    2    3    3    0    0 -0.44842836329E-02  0.12038254089E+00  0.43291257259E-01  0.12965126885E+00  0.20573128305E-01 0.  0.
         14    1    1    2    0    0  0.21681034602E-01  0.59333099009E-02  0.73571030612E-02  0.23651604454E-01  0.00000000000E+00 0. -1.
     999901    1    3    3    0    0 -0.17196750969E-01 -0.12631585079E+00 -0.50648360320E-01  0.89062712670E+00  0.88000000000E+00 0.  1.
        -11    1    4    4    0    0 -0.10209363735E-01  0.77805540581E-01  0.34859927471E-01  0.85868556045E-01  0.51100000000E-03 0. -1.
         11    1    4    4    0    0  0.57250801024E-02  0.42577000309E-01  0.84313297887E-02  0.43782712804E-01  0.51100000000E-03 0.  1.
</event>
<event>
 8    1  0.1557841E+005  0.1043930E+01  0.7957747E-01            NaN
         13   -1    0    0    0    0  0.00000000000E+00  0.00000000000E+00  0.74505805969E-08  0.10566000000E+00  0.10566000000E+00 0. -1.
     999900   -1    0    0    0    0 -0.00000000000E+00 -0.00000000000E+00 -0.74505805969E-08  0.93827000000E+00  0.93827000000E+00 0. -1.
     999902    2    1    2    0    0 -0.23693180133E-01 -0.20875995735E-01 -0.18555071537E-01  0.10073039893E+01  0.10066379002E+01 0.  0.
     999903    2    3    3    0    0  0.20193415199E-01  0.11228147064E+00  0.60558570689E-02  0.11586546536E+00  0.19319161231E-01 0.  0.
         14    1    1    2    0    0  0.23693180133E-01  0.20875995735E-01  0.18555071537E-01  0.36626010737E-01  0.00000000000E+00 0. -1.
     999901    1    3    3    0    0 -0.43886595332E-01 -0.13315746637E+00 -0.24610928606E-01  0.89143852391E+00  0.88000000000E+00 0.  1.
        -11    1    4    4    0    0  0.19314189395E-01  0.71085045030E-01  0.10536117195E-01  0.74413657519E-01  0.51100000000E-03 0. -1.
         11    1    4    4    0    0  0.87922580482E-03  0.41196425610E-01 -0.44802601261E-02  0.41451807836E-01  0.51100000000E-03 0.  1.
</event>
<event>
 8    1  0.1103774E+005  0.1043930E+01  0.7957747E-01            NaN
         13   -1    0    0    0    0  0.00000000000E+00  0.00000000000E+00  0.74505805969E-08  0.10566000000E+00  0.10566000000E+00 0. -1.
     999900   -1    0    0    0    0 -0.00000000000E+00 -0.00000000000E+00 -0.74505805969E-08  0.93827000000E+00  0.93827000000E+00 0.  1.
     999902    2    1    2    0    0  0.95081416945E-02  0.12358969808E-01  0.17309758015E-01  0.10206324333E+01  0.10203664965E+01 0.  0.
     999903    2    3    3    0    0  0.36390919195E-01  0.26975540515E-01  0.12414054962E+00  0.13364362505E+00  0.19944013382E-01 0.  0.
         14    1    1    2    0    0 -0.95081416945E-02 -0.12358969808E-01 -0.17309758015E-01  0.23297566734E-01  0.00000000000E+00 0.  1.
     999901    1    3    3    0    0 -0.26882777501E-01 -0.14616570707E-01 -0.10683079161E+00  0.88698880822E+00  0.88000000000E+00 0.  1.
        -11    1    4    4    0    0  0.24951467287E-01  0.89228584679E-02  0.85117822460E-01  0.89148740565E-01  0.51100000000E-03 0. -1.
         11    1    4    4    0    0  0.11439451909E-01  0.18052682047E-01  0.39022727163E-01  0.44494884484E-01  0.51100000000E-03 0.  1.
</event>
<event>
 8    1  0.1103774E+005  0.1043930E+01  0.7957747E-01            NaN
         13   -1    0    0    0    0  0.00000000000E+00  0.00000000000E+00  0.74505805969E-08  0.10566000000E+00  0.10566000000E+00 0.  1.
     999900   -1    0    0    0    0 -0.00000000000E+00 -0.00000000000E+00 -0.74505805969E-08  0.93827000000E+00  0.93827000000E+00 0.  1.
     999902    2    1    2    0    0  0.19039443454E-01 -0.59495083790E-02 -0.11628429155E-01  0.10208406643E+01  0.10205795141E+01 0.  0.
     999903    2    3    3    0    0  0.90084632211E-01 -0.15644007476E-01 -0.95810930507E-01  0.13392009535E+00  0.19871628070E-01 0.  0.
         14    1    1    2    0    0 -0.19039443454E-01  0.59495083790E-02  0.11628429155E-01  0.23089335668E-01  0.00000000000E+00 0. -1.
     999901    1    3    3    0    0 -0.71045188757E-01  0.96944990968E-02  0.84182501352E-01  0.88692056899E+00  0.88000000000E+00 0. -1.
        -11    1    4    4    0    0  0.39148292791E-01 -0.12864693446E-01 -0.54194662224E-01  0.68083857856E-01  0.51100000000E-03 0.  1.
         11    1    4    4    0    0  0.50936339420E-01 -0.27793140295E-02 -0.41616268283E-01  0.65836237490E-01  0.51100000000E-03 0. -1.
</event>
<event>
 8    1  0.1103774E+005  0.1043930E+01  0.7957747E-01            NaN
         13   -1    0    0    0    0  0.00000000000E+00  0.00000000000E+00  0.74505805969E-08  0.10566000000E+00  0.10566000000E+00 0. -1.
     999900   -1    0    0    0    0 -0.00000000000E+00 -0.00000000000E+00 -0.74505805969E-08  0.93827000000E+00  0.93827000000E+00 0.  1.
     999902    2    1    2    0    0  0.18860999038E-01 -0.17589751452E-03 -0.16658277797E-01  0.10187652142E+01  0.10184543658E+01 0.  0.
     999903    2    3    3    0    0 -0.12409748907E+00  0.93341405093E-02  0.14469376011E-01  0.12663489807E+00  0.18431538077E-01 0.  0.
         14    1    1    2    0    0 -0.18860999038E-01  0.17589751452E-03  0.16658277797E-01  0.25164785789E-01  0.00000000000E+00 0. -1.
     999901    1    3    3    0    0  0.14295848810E+00 -0.95100380238E-02 -0.31127653808E-01  0.89213031614E+00  0.88000000000E+00 0. -1.
        -11    1    4    4    0    0 -0.78754454001E-01  0.21981203842E-02  0.99082231003E-03  0.78793011162E-01  0.51100000000E-03 0. -1.
         11    1    4    4    0    0 -0.45343035065E-01  0.71360201250E-02  0.13478553701E-01  0.47841886908E-01  0.51100000000E-03 0.  1.
</event>
<event>
 8    1  0.1103774E+005  0.1043930E+01  0.7957747E-01            NaN
         13   -1    0    0    0    0  0.00000000000E+00  0.00000000000E+00  0.74505805969E-08  0.10566000000E+00  0.10566000000E+00 0.  1.
     999900   -1    0    0    0    0 -0.00000000000E+00 -0.00000000000E+00 -0.74505805969E-08  0.93827000000E+00  0.93827000000E+00 0. -1.
     999902    2    1    2    0    0 -0.20740497246E-01  0.24634453385E-02  0.10845683065E-01  0.10203956500E+01  0.10201242164E+01 0.  0.
     999903    2    3    3    0    0  0.16790920375E-01  0.12079747915E+00 -0.40907141848E-01  0.13017662877E+00  0.19964830277E-01 0.  0.
         14    1    1    2    0    0  0.20740497246E-01 -0.24634453385E-02 -0.10845683065E-01  0.23534350003E-01  0.00000000000E+00 0. -1.
     999901    1    3    3    0    0 -0.37531417621E-01 -0.11833403381E+00  0.51752824913E-01  0.89021902123E+00  0.88000000000E+00 0. -1.
        -11    1    4    4    0    0  0.12173179412E-01  0.39545203171E-01 -0.68039950421E-02  0.41935246040E-01  0.51100000000E-03 0.  1.
         11    1    4    4    0    0  0.46177409632E-02  0.81252275978E-01 -0.34103146806E-01  0.88241382731E-01  0.51100000000E-03 0. -1.
</event>
<event>
 8    1  0.1103774E+005  0.1043930E+01  0.7957747E-01            NaN
         13   -1    0    0    0    0  0.00000000000E+00  0.00000000000E+00  0.74505805969E-08  0.10566000000E+00  0.10566000000E+00 0.  1.
     999900   -1    0    0    0    0 -0.00000000000E+00 -0.00000000000E+00 -0.74505805969E-08  0.93827000000E+00  0.93827000000E+00 0. -1.
     999902    2    1    2    0    0  0.27906005102E-02  0.19059659257E-01  0.28952989279E-01  0.10091545252E+01  0.10085551656E+01 0.  0.
     999903    2    3    3    0    0 -0.16208541250E-01 -0.92386010582E-01  0.73540089306E-01  0.12080261617E+00  0.19678302217E-01 0.  0.
         14    1    1    2    0    0 -0.27906005102E-02 -0.19059659257E-01 -0.28952989279E-01  0.34775474841E-01  0.00000000000E+00 0. -1.
     999901    1    3    3    0    0  0.18999141760E-01  0.11144566984E+00 -0.44587100027E-01  0.88835190899E+00  0.88000000000E+00 0.  1.
        -11    1    4    4    0    0 -0.17464611401E-01 -0.78494330850E-01  0.69460378364E-01  0.10626089549E+00  0.51100000000E-03 0. -1.
         11    1    4    4    0    0  0.12560701515E-02 -0.13891679732E-01  0.40797109416E-02  0.14541720681E-01  0.51100000000E-03 0.  1.
</event>
<event>
 8    1  0.1103774E+005  0.1043930E+01  0.7957747E-01            NaN
         13   -1    0    0    0    0  0.00000000000E+00  0.00000000000E+00  0.74505805969E-08  0.10566000000E+00  0.10566000000E+00 0.  1.
     999900   -1    0    0    0    0 -0.00000000000E+00 -0.00000000000E+00 -0.74505805969E-08  0.93827000000E+00  0.93827000000E+00 0.  1.
     999902    2    1    2    0    0  0.11598386204E-01 -0.32833679763E-02  0.19460633985E-01  0.10210385312E+01  0.10207818880E+01 0.  0.
     999903    2    3    3    0    0 -0.28392763511E-01 -0.48741432706E-01 -0.11414220933E+00  0.12889759648E+00  0.20106470230E-01 0.  0.
         14    1    1    2    0    0 -0.11598386204E-01  0.32833679763E-02 -0.19460633985E-01  0.22891468780E-01  0.00000000000E+00 0. -1.
     999901    1    3    3    0    0  0.39991149715E-01  0.45458064729E-01  0.13360284331E+00  0.89214093474E+00  0.88000000000E+00 0. -1.
        -11    1    4    4    0    0 -0.42458137740E-02 -0.10818492200E-01 -0.95492467951E-02  0.15050446619E-01  0.51100000000E-03 0.  1.
         11    1    4    4    0    0 -0.24146949738E-01 -0.37922940506E-01 -0.10459296253E+00  0.11384714986E+00  0.51100000000E-03 0. -1.
</event>
<event>
 8    1  0.1103774E+005  0.1043930E+01  0.7957747E-01            NaN
         13   -1    0    0    0    0  0.00000000000E+00  0.00000000000E+00  0.74505805969E-08  0.10566000000E+00  0.10566000000E+00 0. -1.
     999900   -1    0    0    0    0 -0.00000000000E+00 -0.00000000000E+00 -0.74505805969E-08  0.93827000000E+00  0.93827000000E+00 0. -1.
     999902    2    1    2    0    0 -0.17877179864E-01 -0.14647792544E-01  0.67557458980E-02  0.10198511402E+01  0.10195668476E+01 0.  0.
     999903    2    3    3    0    0 -0.95291839101E-01  0.83697323572E-01 -0.23045745578E-01  0.13049580052E+00  0.20304457462E-01 0.  0.
         14    1    1    2    0    0  0.17877179864E-01  0.14647792544E-01 -0.67557458980E-02  0.24078859793E-01  0.00000000000E+00 0.  1.
     999901    1    3    3    0    0  0.77414659237E-01 -0.98345116116E-01  0.29801491476E-01  0.88935533968E+00  0.88000000000E+00 0.  1.
        -11    1    4    4    0    0 -0.68306609970E-01  0.49789840474E-01 -0.93442903796E-02  0.85043506887E-01  0.51100000000E-03 0.  1.
         11    1    4    4    0    0 -0.26985229131E-01  0.33907483097E-01 -0.13701455198E-01  0.45452293636E-01  0.51100000000E-03 0. -1.
</event>
<event>
 8    1  0.1103774E+005  0.1043930E+01  0.7957747E-01            NaN
         13   -1    0    0    0    0  0.00000000000E+00  0.00000000000E+00  0.74505805969E-08  0.10566000000E+00  0.10566000000E+00 0. -1.
     999900   -1    0    0    0    0 -0.00000000000E+00 -0.00000000000E+00 -0.74505805969E-08  0.93827000000E+00  0.93827000000E+00 0. -1.
     999902    2    1    2    0    0  0.16562388705E-01  0.13531782176E-01  0.99740382702E-02  0.10203312016E+01  0.10200582619E+01 0.  0.
     999903    2    3    3    0    0  0.67181507477E-01  0.46040474523E-01  0.10364415451E+00  0.13331755965E+00  0.19959476588E-01 0.  0.
         14    1    1    2    0    0 -0.16562388705E-01 -0.13531782176E-01 -0.99740382702E-02  0.23598798442E-01  0.00000000000E+00 0.  1.
     999901    1    3    3    0    0 -0.50619118772E-01 -0.32508692347E-01 -0.93670116235E-01  0.88701364191E+00  0.88000000000E+00 0. -1.
        -11    1    4    4    0    0  0.15644214790E-01  0.33901281872E-02  0.28639127086E-01  0.32813033184E-01  0.51100000000E-03 0. -1.
         11    1    4    4    0    0  0.51537292687E-01  0.42650346336E-01  0.75005027420E-01  0.10050452646E+00  0.51100000000E-03 0.  1.
</event>
<event>
 8    1  0.1103774E+005  0.1043930E+01  0.7957747E-01            NaN
         13   -1    0    0    0    0  0.00000000000E+00  0.00000000000E+00  0.74505805969E-08  0.10566000000E+00  0.10566000000E+00 0. -1.
     999900   -1    0    0    0    0 -0.00000000000E+00 -0.00000000000E+00 -0.74505805969E-08  0.93827000000E+00  0.93827000000E+00 0.  1.
     999902    2    1    2    0    0 -0.18787836117E-01  0.10239792670E-01 -0.91423663588E-02  0.10206615879E+01  0.10203963240E+01 0.  0.
     999903    2    3    3    0    0 -0.61852005557E-01  0.38907736119E-01 -0.10990136648E+00  0.13340246577E+00  0.19453148740E-01 0.  0.
         14    1    1    2    0    0  0.18787836117E-01 -0.10239792670E-01  0.91423663588E-02  0.23268412119E-01  0.00000000000E+00 0. -1.
     999901    1    3    3    0    0  0.43064169440E-01 -0.28667943449E-01  0.10075900013E+00  0.88725912212E+00  0.88000000000E+00 0. -1.
        -11    1    4    4    0    0 -0.49030274754E-01  0.25082201310E-01 -0.92950725734E-01  0.10804250645E+00  0.51100000000E-03 0. -1.
         11    1    4    4    0    0 -0.12821730803E-01  0.13825534809E-01 -0.16950640750E-01  0.25359959313E-01  0.51100000000E-03 0.  1.
</event>
<event>
 8    1  0.1103774E+005  0.1043930E+01  0.7957747E-01            NaN
         13   -1    0    0    0    0  0.00000000000E+00  0.00000000000E+00  0.74505805969E-08  0.10566000000E+00  0.10566000000E+00 0.  1.
     999900   -1    0    0    0    0 -0.00000000000E+00 -0.00000000000E+00 -0.74505805969E-08  0.93827000000E+00  0.93827000000E+00 0. -1.
     999902    2    1    2    0    0  0.47997241241E-02  0.10631819193E-01 -0.20479579828E-01  0.10203612469E+01  0.10200890099E+01 0.  0.
     999903    2    3    3    0    0  0.98925410309E-02  0.91807536732E-01 -0.94334661374E-01  0.13352980468E+00  0.20117013517E-01 0.  0.
         14    1    1    2    0    0 -0.47997241241E-02 -0.10631819193E-01  0.20479579828E-01  0.23568753063E-01  0.00000000000E+00 0.  1.
     999901    1    3    3    0    0 -0.50928169069E-02 -0.81175717539E-01  0.73855081547E-01  0.88683144226E+00  0.88000000000E+00 0.  1.
        -11    1    4    4    0    0 -0.14886715991E-02  0.63506741363E-01 -0.57327872325E-01  0.85569085586E-01  0.51100000000E-03 0.  1.
         11    1    4    4    0    0  0.11381212630E-01  0.28300795369E-01 -0.37006789050E-01  0.47960719096E-01  0.51100000000E-03 0. -1.
</event>
<event>
 8    1  0.1103774E+005  0.1043930E+01  0.7957747E-01            NaN
         13   -1    0    0    0    0  0.00000000000E+00  0.00000000000E+00  0.74505805969E-08  0.10566000000E+00  0.10566000000E+00 0.  1.
     999900   -1    0    0    0    0 -0.00000000000E+00 -0.00000000000E+00 -0.74505805969E-08  0.93827000000E+00  0.93827000000E+00 0. -1.
     999902    2    1    2    0    0 -0.20683444823E-01 -0.86174161277E-02 -0.85937267670E-02  0.10199317315E+01  0.10196493613E+01 0.  0.
     999903    2    3    3    0    0 -0.85048179504E-01 -0.69605709206E-01 -0.72796436730E-01  0.13314856809E+00  0.18736925945E-01 0.  0.
         14    1    1    2    0    0  0.20683444823E-01  0.86174161277E-02  0.85937267670E-02  0.23998268483E-01  0.00000000000E+00 0.  1.
     999901    1    3    3    0    0  0.64364734681E-01  0.60988293078E-01  0.64202709963E-01  0.88678316342E+00  0.88000000000E+00 0.  1.
        -11    1    4    4    0    0 -0.20364946516E-01 -0.23150985237E-01 -0.28651889407E-01  0.42093836266E-01  0.51100000000E-03 0.  1.
         11    1    4    4    0    0 -0.64683232988E-01 -0.46454723969E-01 -0.44144547323E-01  0.91054731828E-01  0.51100000000E-03 0. -1.
</event>
<event>
 8    1  0.1103774E+005  0.1043930E+01  0.7957747E-01            NaN
         13   -1    0    0    0    0  0.00000000000E+00  0.00000000000E+00  0.74505805969E-08  0.10566000000E+00  0.10566000000E+00 0.  1.
     999900   -1    0    0    0    0 -0.00000000000E+00 -0.00000000000E+00 -0.74505805969E-08  0.93827000000E+00  0.93827000000E+00 0.  1.
     999902    2    1    2    0    0  0.10809604691E-01 -0.15391854168E-01  0.14360848357E-01  0.10202658775E+01  0.10199914069E+01 0.  0.
     999903    2    3    3    0    0  0.10175493482E+00 -0.25567757445E-01 -0.76004954346E-01  0.13091747536E+00  0.18837603048E-01 0.  0.
         14    1    1    2    0    0 -0.10809604691E-01  0.15391854168E-01 -0.14360848357E-01  0.23664122503E-01  0.00000000000E+00 0. -1.
     999901    1    3    3    0    0 -0.90945330132E-01  0.10175903277E-01  0.90365802703E-01  0.88934840213E+00  0.88000000000E+00 0. -1.
        -11    1    4    4    0    0  0.48540411774E-01 -0.37757278939E-02 -0.40516775640E-01  0.63342702229E-01  0.51100000000E-03 0.  1.
         11    1    4    4    0    0  0.53214523049E-01 -0.21792029551E-01 -0.35488178706E-01  0.67574773134E-01  0.51100000000E-03 0. -1.
</event>
<event>
 8    1  0.1103774E+005  0.1043930E+01  0.7957747E-01            NaN
         13   -1    0    0    0    0  0.00000000000E+00  0.00000000000E+00  0.74505805969E-08  0.10566000000E+00  0.10566000000E+00 0.  1.
     999900   -1    0    0    0    0 -0.00000000000E+00 -0.00000000000E+00 -0.74505805969E-08  0.93827000000E+00  0.93827000000E+00 0.  1.
     999902    2    1    2    0    0  0.17697963929E-01  0.20041909834E-02  0.16535060554E-01  0.10196268534E+01  0.10193371754E+01 0.  0.
     999903    2    3    3    0    0  0.84072878928E-02  0.17972024922E-01 -0.12486461607E+00  0.12814765735E+00  0.20903912731E-01 0.  0.
         14    1    1    2    0    0 -0.17697963929E-01 -0.20041909834E-02 -0.16535060554E-01  0.24303146633E-01  0.00000000000E+00 0. -1.
     999901    1    3    3    0    0  0.92906760363E-02 -0.15967833938E-01  0.14139967663E+00  0.89147919602E+00  0.88000000000E+00 0. -1.
        -11    1    4    4    0    0 -0.12169351563E-02  0.18147349323E-01 -0.96201772473E-01  0.97907350932E-01  0.51100000000E-03 0.  1.
         11    1    4    4    0    0  0.96242230491E-02 -0.17532440081E-03 -0.28662843601E-01  0.30240306418E-01  0.51100000000E-03 0. -1.
</event>
<event>
 8    1  0.1103774E+005  0.1043930E+01  0.7957747E-01            NaN
         13   -1    0    0    0    0  0.00000000000E+00  0.00000000000E+00  0.74505805969E-08  0.10566000000E+00  0.10566000000E+00 0. -1.
     999900   -1    0    0    0    0 -0.00000000000E+00 -0.00000000000E+00 -0.74505805969E-08  0.93827000000E+00  0.93827000000E+00 0. -1.
     999902    2    1    2    0    0 -0.16757815279E-01 -0.16145440984E-01  0.49860920959E-02  0.10201316649E+01  0.10198540352E+01 0.  0.
     999903    2    3    3    0    0 -0.20769045072E-02  0.10493247490E+00 -0.71329446420E-01  0.12844817161E+00  0.19897362651E-01 0.  0.
         14    1    1    2    0    0  0.16757815279E-01  0.16145440984E-01 -0.49860920959E-02  0.23798335066E-01  0.00000000000E+00 0.  1.
     999901    1    3    3    0    0 -0.14680910772E-01 -0.12107791589E+00  0.76315538515E-01  0.89168349333E+00  0.88000000000E+00 0.  1.
        -11    1    4    4    0    0 -0.10586190975E-01  0.71849395085E-01 -0.49966438020E-01  0.88155028574E-01  0.51100000000E-03 0. -1.
         11    1    4    4    0    0  0.85092864675E-02  0.33083079819E-01 -0.21363008399E-01  0.40293143031E-01  0.51100000000E-03 0.  1.
</event>
<event>
 8    1  0.1103774E+005  0.1043930E+01  0.7957747E-01            NaN
         13   -1    0    0    0    0  0.00000000000E+00  0.00000000000E+00  0.74505805969E-08  0.10566000000E+00  0.10566000000E+00 0. -1.
     999900   -1    0    0    0    0 -0.00000000000E+00 -0.00000000000E+00 -0.74505805969E-08  0.93827000000E+00  0.93827000000E+00 0.  1.
     999902    2    1    2    0    0  0.13507413265E-01 -0.20013408755E-01 -0.80851909971E-03  0.10197713484E+01  0.10194851459E+01 0.  0.
     999903    2    3    3    0    0 -0.46068316899E-01 -0.67653034096E-01  0.10003777466E+00  0.13073322972E+00  0.19606074325E-01 0.  0.
         14    1    1    2    0    0 -0.13507413265E-01  0.20013408755E-01  0.80851909971E-03  0.24158651582E-01  0.00000000000E+00 0.  1.
     999901    1    3    3    0    0  0.59575730164E-01  0.47639625341E-01 -0.10084629376E+00  0.88903811869E+00  0.88000000000E+00 0.  1.
        -11    1    4    4    0    0 -0.10446347788E-01 -0.31898412426E-01  0.43425722623E-01  0.54887971394E-01  0.51100000000E-03 0. -1.
         11    1    4    4    0    0 -0.35621969111E-01 -0.35754621670E-01  0.56612052039E-01  0.75845258330E-01  0.51100000000E-03 0.  1.
</event>
<event>
 8    1  0.1103774E+005  0.1043930E+01  0.7957747E-01            NaN
         13   -1    0    0    0    0  0.00000000000E+00  0.00000000000E+00  0.74505805969E-08  0.10566000000E+00  0.10566000000E+00 0.  1.
     999900   -1    0    0    0    0 -0.00000000000E+00 -0.00000000000E+00 -0.74505805969E-08  0.93827000000E+00  0.93827000000E+00 0.  1.
     999902    2    1    2    0    0  0.83854568003E-03  0.19575859095E-01  0.13256504259E-01  0.10202730280E+01  0.10199987252E+01 0.  0.
     999903    2    3    3    0    0  0.15246808179E-01 -0.11271160823E+00  0.57813380967E-01  0.12915413174E+00  0.20050709171E-01 0.  0.
         14    1    1    2    0    0 -0.83854568003E-03 -0.19575859095E-01 -0.13256504259E-01  0.23656971981E-01  0.00000000000E+00 0. -1.
     999901    1    3    3    0    0 -0.14408262499E-01  0.13228746732E+00 -0.44556876708E-01  0.89111889628E+00  0.88000000000E+00 0.  1.
        -11    1    4    4    0    0  0.19639109445E-01 -0.75985134791E-01  0.40310529157E-01  0.88230579795E-01  0.51100000000E-03 0.  1.
         11    1    4    4    0    0 -0.43923012655E-02 -0.36726473437E-01  0.17502851810E-01  0.40923551948E-01  0.51100000000E-03 0. -1.
</event>
<event>
 8    1  0.1103774E+005  0.1043930E+01  0.7957747E-01            NaN
         13   -1    0    0    0    0  0.00000000000E+00  0.00000000000E+00  0.74505805969E-08  0.10566000000E+00  0.10566000000E+00 0. -1.
     999900   -1    0    0    0    0 -0.00000000000E+00 -0.00000000000E+00 -0.74505805969E-08  0.93827000000E+00  0.93827000000E+00 0.  1.
     999902    2    1    2    0    0  0.15618736141E-01  0.92555849011E-02  0.16286258512E-01  0.10195403918E+01  0.10192486240E+01 0.  0.
     999903    2    3    3    0    0  0.12401394597E+00 -0.36413175955E-01 -0.11519596968E-01  0.13127898727E+00  0.19902090495E-01 0.  0.
         14    1    1    2    0    0 -0.15618736141E-01 -0.92555849011E-02 -0.16286258512E-01  0.24389608172E-01  0.00000000000E+00 0.  1.
     999901    1    3    3    0    0 -0.10839520983E+00  0.45668760856E-01  0.27805855479E-01  0.88826140456E+00  0.88000000000E+00 0.  1.
        -11    1    4    4    0    0  0.70295258130E-01 -0.11474584863E-01 -0.17338540419E-02  0.71248556366E-01  0.51100000000E-03 0.  1.
         11    1    4    4    0    0  0.53718687838E-01 -0.24938591092E-01 -0.97857429257E-02  0.60030430902E-01  0.51100000000E-03 0. -1.
</event>
<event>
 8    1  0.1103774E+005  0.1043930E+01  0.7957747E-01            NaN
         13   -1    0    0    0    0  0.00000000000E+00  0.00000000000E+00  0.74505805969E-08  0.10566000000E+00  0.10566000000E+00 0. -1.
     999900   -1    0    0    0    0 -0.00000000000E+00 -0.00000000000E+00 -0.74505805969E-08  0.93827000000E+00  0.93827000000E+00 0.  1.
     999902    2    1    2    0    0 -0.86177222773E-02  0.81147855828E-02  0.20021079239E-01  0.10206714855E+01  0.10204064498E+01 0.  0.
     999903    2    3    3    0    0 -0.88124602702E-01  0.88135819546E-01 -0.37314670692E-01  0.13162025069E+00  0.19940848913E-01 0.  0.
         14    1    1    2    0    0  0.86177222773E-02 -0.81147855828E-02 -0.20021079239E-01  0.23258514489E-01  0.00000000000E+00 0.  1.
     999901    1    3    3    0    0  0.79506880425E-01 -0.80021033963E-01  0.57335749931E-01  0.88905123482E+00  0.88000000000E+00 0.  1.
        -11    1    4    4    0    0 -0.56599212645E-01  0.66095941492E-01 -0.32322653918E-01  0.92828656303E-01  0.51100000000E-03 0.  1.
         11    1    4    4    0    0 -0.31525390057E-01  0.22039878054E-01 -0.49920167742E-02  0.38791594390E-01  0.51100000000E-03 0. -1.
</event>
<event>
 8    1  0.1103774E+005  0.1043930E+01  0.7957747E-01            NaN
         13   -1    0    0    0    0  0.00000000000E+00  0.00000000000E+00  0.74505805969E-08  0.10566000000E+00  0.10566000000E+00 0.  1.
     999900   -1    0    0    0    0 -0.00000000000E+00 -0.00000000000E+00 -0.74505805969E-08  0.93827000000E+00  0.93827000000E+00 0. -1.
     999902    2    1    2    0    0 -0.16358679453E-01  0.15648400029E-01  0.57466481362E-02  0.10205739990E+01  0.10203067111E+01 0.  0.
     999903    2    3    3    0    0 -0.11823032562E+00  0.76700532289E-02 -0.55721168837E-01  0.13253133178E+00  0.20553968857E-01 0.  0.
         14    1    1    2    0    0  0.16358679453E-01 -0.15648400029E-01 -0.57466481362E-02  0.23356000979E-01  0.00000000000E+00 0. -1.
     999901    1    3    3    0    0  0.10187164617E+00  0.79783468002E-02  0.61467816973E-01  0.88804266724E+00  0.88000000000E+00 0.  1.
        -11    1    4    4    0    0 -0.11334652637E+00  0.60626566341E-02 -0.48001298768E-01  0.12324194355E+00  0.51100000000E-03 0.  1.
         11    1    4    4    0    0 -0.48837992513E-02  0.16073965949E-02 -0.77198700696E-02  0.92893882377E-02  0.51100000000E-03 0. -1.
</event>
<event>
 8    1  0.1103774E+005  0.1043930E+01  0.7957747E-01            NaN
         13   -1    0    0    0    0  0.00000000000E+00  0.00000000000E+00  0.74505805969E-08  0.10566000000E+00  0.10566000000E+00 0. -1.
     999900   -1    0    0    0    0 -0.00000000000E+00 -0.00000000000E+00 -0.74505805969E-08  0.93827000000E+00  0.93827000000E+00 0.  1.
     999902    2    1    2    0    0 -0.19676573646E-01 -0.31536919313E-02 -0.17188384111E-01  0.10176135817E+01  0.10172732415E+01 0.  0.
     999903    2    3    3    0    0 -0.82758692646E-01 -0.53122225087E-02  0.95497479147E-01  0.12818561005E+00  0.20846131158E-01 0.  0.
         14    1    1    2    0    0  0.19676573646E-01  0.31536919313E-02  0.17188384111E-01  0.26316418289E-01  0.00000000000E+00 0. -1.
     999901    1    3    3    0    0  0.63082119000E-01  0.21585305774E-02 -0.11268586326E+00  0.88942797166E+00  0.88000000000E+00 0.  1.
        -11    1    4    4    0    0 -0.42962936451E-01  0.76570505657E-02  0.47916046443E-01  0.64812444481E-01  0.51100000000E-03 0.  1.
         11    1    4    4    0    0 -0.39795756195E-01 -0.12969273074E-01  0.47581432705E-01  0.63373165571E-01  0.51100000000E-03 0. -1.
</event>
<event>
 8    1  0.1103774E+005  0.1043930E+01  0.7957747E-01            NaN
         13   -1    0    0    0    0  0.00000000000E+00  0.00000000000E+00  0.74505805969E-08  0.10566000000E+00  0.10566000000E+00 0.  1.
     999900   -1    0    0    0    0 -0.00000000000E+00 -0.00000000000E+00 -0.74505805969E-08  0.93827000000E+00  0.93827000000E+00 0.  1.
     999902    2    1    2    0    0  0.20889520178E-01  0.11066377341E-01  0.88715633395E-02  0.10186804179E+01  0.10183674447E+01 0.  0.
     999903    2    3    3    0    0 -0.10261019244E+00 -0.35191776614E-01  0.63395704590E-01  0.12718455261E+00  0.19737840015E-01 0.  0.
         14    1    1    2    0    0 -0.20889520178E-01 -0.11066377341E-01 -0.88715633395E-02  0.25249582112E-01  0.00000000000E+00 0.  1.
     999901    1    3    3    0    0  0.12349971262E+00  0.46258153955E-01 -0.54524141251E-01  0.89149586528E+00  0.88000000000E+00 0.  1.
        -11    1    4    4    0    0 -0.39395739902E-01 -0.23214382849E-01  0.30010973491E-01  0.54697820289E-01  0.51100000000E-03 0.  1.
         11    1    4    4    0    0 -0.63214452540E-01 -0.11977393765E-01  0.33384731099E-01  0.72486732323E-01  0.51100000000E-03 0. -1.
</event>
<event>
 8    1  0.1103774E+005  0.1043930E+01  0.7957747E-01            NaN
         13   -1    0    0    0    0  0.00000000000E+00  0.00000000000E+00  0.74505805969E-08  0.10566000000E+00  0.10566000000E+00 0.  1.
     999900   -1    0    0    0    0 -0.00000000000E+00 -0.00000000000E+00 -0.74505805969E-08  0.93827000000E+00  0.93827000000E+00 0.  1.
     999902    2    1    2    0    0 -0.10907572992E-01 -0.45257944918E-02  0.20649617817E-01  0.10201420896E+01  0.10198647059E+01 0.  0.
     999903    2    3    3    0    0 -0.28440216675E-01  0.99175582482E-01 -0.74515286951E-01  0.12878485019E+00  0.19707043515E-01 0.  0.
         14    1    1    2    0    0  0.10907572992E-01  0.45257944918E-02 -0.20649617817E-01  0.23787910382E-01  0.00000000000E+00 0. -1.
     999901    1    3    3    0    0  0.17532643683E-01 -0.10370137697E+00  0.95164904768E-01  0.89135723943E+00  0.88000000000E+00 0. -1.
        -11    1    4    4    0    0 -0.25061971808E-01  0.51920820409E-01 -0.40296534467E-01  0.70341636560E-01  0.51100000000E-03 0. -1.
         11    1    4    4    0    0 -0.33782448667E-02  0.47254762073E-01 -0.34218752484E-01  0.58443213631E-01  0.51100000000E-03 0.  1.
</event>
<event>
 8    1  0.1103774E+005  0.1043930E+01  0.7957747E-01            NaN
         13   -1    0    0    0    0  0.00000000000E+00  0.00000000000E+00  0.74505805969E-08  0.10566000000E+00  0.10566000000E+00 0. -1.
     999900   -1    0    0    0    0 -0.00000000000E+00 -0.00000000000E+00 -0.74505805969E-08  0.93827000000E+00  0.93827000000E+00 0.  1.
     999902    2    1    2    0    0  0.21737189160E-01  0.33076112657E-02 -0.72562160070E-02  0.10207762021E+01  0.10205135749E+01 0.  0.
     999903    2    3    3    0    0 -0.38322062994E-01  0.90772162285E-01  0.82234028737E-01  0.12989704907E+00  0.20065939245E-01 0.  0.
         14    1    1    2    0    0 -0.21737189160E-01 -0.33076112657E-02  0.72562160070E-02  0.23153797865E-01  0.00000000000E+00 0. -1.
     999901    1    3    3    0    0  0.60059252154E-01 -0.87464551019E-01 -0.89490244744E-01  0.89087915306E+00  0.88000000000E+00 0.  1.
        -11    1    4    4    0    0 -0.45789618020E-02  0.22614087530E-01  0.29000525609E-01  0.37062858128E-01  0.51100000000E-03 0. -1.
         11    1    4    4    0    0 -0.33743101192E-01  0.68158074755E-01  0.53233503128E-01  0.92834190946E-01  0.51100000000E-03 0.  1.
</event>
<event>
 8    1  0.1103774E+005  0.1043930E+01  0.7957747E-01            NaN
         13   -1    0    0    0    0  0.00000000000E+00  0.00000000000E+00  0.74505805969E-08  0.10566000000E+00  0.10566000000E+00 0. -1.
     999900   -1    0    0    0    0 -0.00000000000E+00 -0.00000000000E+00 -0.74505805969E-08  0.93827000000E+00  0.93827000000E+00 0. -1.
     999902    2    1    2    0    0 -0.12011967196E-01  0.43755580967E-02  0.21603571363E-01  0.10188272679E+01  0.10185179697E+01 0.  0.
     999903    2    3    3    0    0  0.87710905411E-01  0.76842388028E-01  0.53357873018E-01  0.12966787359E+00  0.19202585857E-01 0.  0.
         14    1    1    2    0    0  0.12011967196E-01 -0.43755580967E-02 -0.21603571363E-01  0.25102732127E-01  0.00000000000E+00 0.  1.
     999901    1    3    3    0    0 -0.99722872607E-01 -0.72466829931E-01 -0.31754301655E-01  0.88915939428E+00  0.88000000000E+00 0.  1.
        -11    1    4    4    0    0  0.72297900433E-01  0.66623704530E-01  0.51735825680E-01  0.11109708003E+00  0.51100000000E-03 0.  1.
         11    1    4    4    0    0  0.15413004978E-01  0.10218683498E-01  0.16220473381E-02  0.18570793560E-01  0.51100000000E-03 0. -1.
</event>
<event>
 8    1  0.1103774E+005  0.1043930E+01  0.7957747E-01            NaN
         13   -1    0    0    0    0  0.00000000000E+00  0.00000000000E+00  0.74505805969E-08  0.10566000000E+00  0.10566000000E+00 0.  1.
     999900   -1    0    0    0    0 -0.00000000000E+00 -0.00000000000E+00 -0.74505805969E-08  0.93827000000E+00  0.93827000000E+00 0.  1.
     999902    2    1    2    0    0  0.87196322894E-02  0.15002279942E-01 -0.15028514944E-01  0.10209744636E+01  0.10207163654E+01 0.  0.
     999903    2    3    3    0    0  0.80169566128E-01  0.61670336836E-01 -0.85232906870E-01  0.13406316180E+00  0.21860767614E-01 0.  0.
         14    1    1    2    0    0 -0.87196322894E-02 -0.15002279942E-01  0.15028514944E-01  0.22955536416E-01  0.00000000000E+00 0.  1.
     999901    1    3    3    0    0 -0.71449933839E-01 -0.46668056894E-01  0.70204391926E-01  0.88691130178E+00  0.88000000000E+00 0. -1.
        -11    1    4    4    0    0  0.36951949251E-01  0.33043713359E-01 -0.28378585337E-01  0.57122139077E-01  0.51100000000E-03 0. -1.
         11    1    4    4    0    0  0.43217616877E-01  0.28626623477E-01 -0.56854321533E-01  0.76941022726E-01  0.51100000000E-03 0.  1.
</event>
<event>
 8    1  0.1103774E+005  0.1043930E+01  0.7957747E-01            NaN
         13   -1    0    0    0    0  0.00000000000E+00  0.00000000000E+00  0.74505805969E-08  0.10566000000E+00  0.10566000000E+00 0. -1.
     999900   -1    0    0    0    0 -0.00000000000E+00 -0.00000000000E+00 -0.74505805969E-08  0.93827000000E+00  0.93827000000E+00 0.  1.
     999902    2    1    2    0    0 -0.23151073879E-02 -0.11833669528E-01  0.14433437003E-01  0.10251225664E+01  0.10249500263E+01 0.  0.
     999903    2    3    3    0    0  0.42128636322E-01 -0.20946470003E-01  0.12645062136E+00  0.13686239102E+00  0.22977768190E-01 0.  0.
         14    1    1    2    0    0  0.23151073879E-02  0.11833669528E-01 -0.14433437003E-01  0.18807433649E-01  0.00000000000E+00 0.  1.
     999901    1    3    3    0    0 -0.44443743710E-01  0.91128004748E-02 -0.11201718435E+00  0.88826017533E+00  0.88000000000E+00 0.  1.
        -11    1    4    4    0    0  0.36834228942E-01 -0.22278344472E-01  0.12316045244E+00  0.13046778614E+00  0.51100000000E-03 0.  1.
         11    1    4    4    0    0  0.52944073796E-02  0.13318744683E-02  0.32901689172E-02  0.63946048825E-02  0.51100000000E-03 0. -1.
</event>
<event>
 8    1  0.1103774E+005  0.1043930E+01  0.7957747E-01            NaN
         13   -1    0    0    0    0  0.00000000000E+00  0.00000000000E+00  0.74505805969E-08  0.10566000000E+00  0.10566000000E+00 0.  1.
     999900   -1    0    0    0    0 -0.00000000000E+00 -0.00000000000E+00 -0.74505805969E-08  0.93827000000E+00  0.93827000000E+00 0.  1.
     999902    2    1    2    0    0  0.96595152309E-02  0.43534921892E-02 -0.21141130796E-01  0.10202824517E+01  0.10200083699E+01 0.  0.
     999903    2    3    3    0    0 -0.11768751951E+00 -0.12865450369E-01 -0.51134746169E-01  0.13044349089E+00  0.19618103548E-01 0.  0.
         14    1    1    2    0    0 -0.96595152309E-02 -0.43534921892E-02  0.21141130796E-01  0.23647548289E-01  0.00000000000E+00 0.  1.
     999901    1    3    3    0    0  0.12734703474E+00  0.17218942558E-01  0.29993615373E-01  0.88983896083E+00  0.88000000000E+00 0. -1.
        -11    1    4    4    0    0 -0.62796694326E-01 -0.58031068251E-02 -0.16626776631E-01  0.65221251822E-01  0.51100000000E-03 0. -1.
         11    1    4    4    0    0 -0.54890825185E-01 -0.70623435441E-02 -0.34507969538E-01  0.65222239064E-01  0.51100000000E-03 0.  1.
</event>
<event>
 8    1  0.1103774E+005  0.1043930E+01  0.7957747E-01            NaN
         13   -1    0    0    0    0  0.00000000000E+00  0.00000000000E+00  0.74505805969E-08  0.10566000000E+00  0.10566000000E+00 0. -1.
     999900   -1    0    0    0    0 -0.00000000000E+00 -0.00000000000E+00 -0.74505805969E-08  0.93827000000E+00  0.93827000000E+00 0. -1.
     999902    2    1    2    0    0 -0.18516505340E-01  0.72685115300E-02  0.10809710730E-01  0.10212906079E+01  0.10210396484E+01 0.  0.
     999903    2    3    3    0    0 -0.12724014143E+00 -0.26059050568E-01  0.24871918951E-01  0.13386213124E+00  0.20768488655E-01 0.  0.
         14    1    1    2    0    0  0.18516505340E-01 -0.72685115300E-02 -0.10809710730E-01  0.22639392128E-01  0.00000000000E+00 0.  1.
     999901    1    3    3    0    0  0.10872363609E+00  0.33327562098E-01 -0.14062208221E-01  0.88742847663E+00  0.88000000000E+00 0. -1.
        -11    1    4    4    0    0 -0.50066010342E-01 -0.12552701093E-01  0.20015635501E-01  0.55363006438E-01  0.51100000000E-03 0. -1.
         11    1    4    4    0    0 -0.77174131083E-01 -0.13506349476E-01  0.48562834503E-02  0.78499124802E-01  0.51100000000E-03 0.  1.
</event>
<event>
 8    1  0.1103774E+005  0.1043930E+01  0.7957747E-01            NaN
         13   -1    0    0    0    0  0.00000000000E+00  0.00000000000E+00  0.74505805969E-08  0.10566000000E+00  0.10566000000E+00 0. -1.
     999900   -1    0    0    0    0 -0.00000000000E+00 -0.00000000000E+00 -0.74505805969E-08  0.93827000000E+00  0.93827000000E+00 0.  1.
     999902    2    1    2    0    0 -0.17167178431E-01  0.11775642384E-01 -0.47829920464E-02  0.10225698787E+01  0.10223467621E+01 0.  0.
     999903    2    3    3    0    0 -0.13321819001E+00  0.74489172924E-02  0.55516790233E-03  0.13492408573E+00  0.20040663125E-01 0.  0.
         14    1    1    2    0    0  0.17167178431E-01 -0.11775642384E-01  0.47829920464E-02  0.21360121296E-01  0.00000000000E+00 0.  1.
     999901    1    3    3    0    0  0.11605101158E+00  0.43267250917E-02 -0.53381599487E-02  0.88764579298E+00  0.88000000000E+00 0.  1.
        -11    1    4    4    0    0 -0.84187294925E-01  0.20911577789E-02 -0.89572211453E-02  0.84689825240E-01  0.51100000000E-03 0. -1.
         11    1    4    4    0    0 -0.49030895089E-01  0.53577595135E-02  0.95123890477E-02  0.50234260487E-01  0.51100000000E-03 0.  1.
</event>
<event>
 8    1  0.1103774E+005  0.1043930E+01  0.7957747E-01            NaN
         13   -1    0    0    0    0  0.00000000000E+00  0.00000000000E+00  0.74505805969E-08  0.10566000000E+00  0.10566000000E+00 0.  1.
     999900   -1    0    0    0    0 -0.00000000000E+00 -0.00000000000E+00 -0.74505805969E-08  0.93827000000E+00  0.93827000000E+00 0.  1.
     999902    2    1    2    0    0 -0.53270081725E-02 -0.16339231191E-01  0.15681863008E-01  0.10206648260E+01  0.10203996368E+01 0.  0.
     999903    2    3    3    0    0  0.70097443805E-01 -0.30691337388E-01  0.10660844649E+00  0.13265442380E+00  0.19396532463E-01 0.  0.
         14    1    1    2    0    0  0.53270081725E-02  0.16339231191E-01 -0.15681863008E-01  0.23265173960E-01  0.00000000000E+00 0. -1.
     999901    1    3    3    0    0 -0.75424451977E-01  0.14352106197E-01 -0.90926583480E-01  0.88801040224E+00  0.88000000000E+00 0. -1.
        -11    1    4    4    0    0  0.50721343086E-01 -0.12417864076E-01  0.73412645416E-01  0.90091817723E-01  0.51100000000E-03 0.  1.
         11    1    4    4    0    0  0.19376100718E-01 -0.18273473312E-01  0.33195801072E-01  0.42562606074E-01  0.51100000000E-03 0. -1.
</event>
<event>
 8    1  0.1103774E+005  0.1043930E+01  0.7957747E-01            NaN
         13   -1    0    0    0    0  0.00000000000E+00  0.00000000000E+00  0.74505805969E-08  0.10566000000E+00  0.10566000000E+00 0. -1.
     999900   -1    0    0    0    0 -0.00000000000E+00 -0.00000000000E+00 -0.74505805969E-08  0.93827000000E+00  0.93827000000E+00 0.  1.
     999902    2    1    2    0    0  0.98756757924E-02  0.19436224441E-01  0.85172668582E-02  0.10205240258E+01  0.10202555796E+01 0.  0.
     999903    2    3    3    0    0 -0.71179751599E-01  0.45855977134E-01  0.99048580277E-01  0.13178114716E+00  0.19655071002E-01 0.  0.
         14    1    1    2    0    0 -0.98756757924E-02 -0.19436224441E-01 -0.85172668582E-02  0.23405974187E-01  0.00000000000E+00 0.  1.
     999901    1    3    3    0    0  0.81055427392E-01 -0.26419752692E-01 -0.90531313419E-01  0.88874287865E+00  0.88000000000E+00 0.  1.
        -11    1    4    4    0    0 -0.18563058838E-01  0.16124138747E-01  0.17091087994E-01  0.29948980176E-01  0.51100000000E-03 0.  1.
         11    1    4    4    0    0 -0.52616692761E-01  0.29731838387E-01  0.81957492283E-01  0.10183216699E+00  0.51100000000E-03 0. -1.
</event>
<event>
 8    1  0.1103774E+005  0.1043930E+01  0.7957747E-01            NaN
         13   -1    0    0    0    0  0.00000000000E+00  0.00000000000E+00  0.74505805969E-08  0.10566000000E+00  0.10566000000E+00 0. -1.
     999900   -1    0    0    0    0 -0.00000000000E+00 -0.00000000000E+00 -0.74505805969E-08  0.93827000000E+00  0.93827000000E+00 0.  1.
     999902    2    1    2    0    0  0.13031825077E-02 -0.22657316248E-01 -0.59142411944E-02  0.10204772707E+01  0.10202077384E+01 0.  0.
     999903    2    3    3    0    0  0.18714677026E-01 -0.15820015203E-01  0.12651760797E+00  0.13037160082E+00  0.19736695645E-01 0.  0.
         14    1    1    2    0    0 -0.13031825077E-02  0.22657316248E-01  0.59142411944E-02  0.23452729332E-01  0.00000000000E+00 0.  1.
     999901    1    3    3    0    0 -0.17411494518E-01 -0.68373010447E-02 -0.13243184917E+00  0.89010566985E+00  0.88000000000E+00 0.  1.
        -11    1    4    4    0    0  0.16054158171E-01 -0.64975436406E-02  0.10877794804E+00  0.11014924952E+00  0.51100000000E-03 0. -1.
         11    1    4    4    0    0  0.26605188542E-02 -0.93224715628E-02  0.17739659933E-01  0.20222351302E-01  0.51100000000E-03 0.  1.
</event>
<event>
 8    1  0.1103774E+005  0.1043930E+01  0.7957747E-01            NaN
         13   -1    0    0    0    0  0.00000000000E+00  0.00000000000E+00  0.74505805969E-08  0.10566000000E+00  0.10566000000E+00 0. -1.
     999900   -1    0    0    0    0 -0.00000000000E+00 -0.00000000000E+00 -0.74505805969E-08  0.93827000000E+00  0.93827000000E+00 0. -1.
     999902    2    1    2    0    0 -0.12167950713E-02  0.17874904914E-01  0.17080489198E-01  0.10191764967E+01  0.10188758489E+01 0.  0.
     999903    2    3    3    0    0  0.96627316218E-01 -0.57017479477E-01 -0.56858344838E-01  0.12752113133E+00  0.20998484549E-01 0.  0.
         14    1    1    2    0    0  0.12167950713E-02 -0.17874904914E-01 -0.17080489198E-01  0.24753503331E-01  0.00000000000E+00 0. -1.
     999901    1    3    3    0    0 -0.97844111289E-01  0.74892384391E-01  0.73938834035E-01  0.89165536534E+00  0.88000000000E+00 0.  1.
        -11    1    4    4    0    0  0.39515029621E-01 -0.25841931477E-01 -0.35368478417E-01  0.58995197897E-01  0.51100000000E-03 0. -1.
         11    1    4    4    0    0  0.57112286597E-01 -0.31175548000E-01 -0.21489866421E-01  0.68525933435E-01  0.51100000000E-03 0.  1.
</event>
<event>
 8    1  0.1103774E+005  0.1043930E+01  0.7957747E-01            NaN
         13   -1    0    0    0    0  0.00000000000E+00  0.00000000000E+00  0.74505805969E-08  0.10566000000E+00  0.10566000000E+00 0.  1.
     999900   -1    0    0    0    0 -0.00000000000E+00 -0.00000000000E+00 -0.74505805969E-08  0.93827000000E+00  0.93827000000E+00 0.  1.
     999902    2    1    2    0    0  0.20985908087E-01 -0.13418451150E-01  0.52465276149E-03  0.10190153772E+01  0.10187107541E+01 0.  0.
     999903    2    3    3    0    0 -0.38317384925E-01 -0.66160692813E-01 -0.10243572338E+00  0.12946523038E+00  0.20559892806E-01 0.  0.
         14    1    1    2    0    0 -0.20985908087E-01  0.13418451150E-01 -0.52465276149E-03  0.24914622815E-01  0.00000000000E+00 0.  1.
     999901    1    3    3    0    0  0.59303293012E-01  0.52742241662E-01  0.10296037615E+00  0.88955014680E+00  0.88000000000E+00 0. -1.
        -11    1    4    4    0    0 -0.21881275096E-01 -0.18309884937E-01 -0.38885496323E-01  0.48232613774E-01  0.51100000000E-03 0. -1.
         11    1    4    4    0    0 -0.16436109829E-01 -0.47850807876E-01 -0.63550227062E-01  0.81232616610E-01  0.51100000000E-03 0.  1.
</event>
<event>
 8    1  0.1103774E+005  0.1043930E+01  0.7957747E-01            NaN
         13   -1    0    0    0    0  0.00000000000E+00  0.00000000000E+00  0.74505805969E-08  0.10566000000E+00  0.10566000000E+00 0.  1.
     999900   -1    0    0    0    0 -0.00000000000E+00 -0.00000000000E+00 -0.74505805969E-08  0.93827000000E+00  0.93827000000E+00 0. -1.
     999902    2    1    2    0    0 -0.92463980752E-02  0.45926535500E-02  0.21740794130E-01  0.10198623771E+01  0.10195783529E+01 0.  0.
     999903    2    3    3    0    0 -0.69892314681E-01  0.65021897316E-02 -0.10549768981E+00  0.12864343353E+00  0.22184596275E-01 0.  0.
         14    1    1    2    0    0  0.92463980752E-02 -0.45926535500E-02 -0.21740794130E-01  0.24067622928E-01  0.00000000000E+00 0. -1.
     999901    1    3    3    0    0  0.60645916606E-01 -0.19095361816E-02  0.12723848394E+00  0.89121894354E+00  0.88000000000E+00 0.  1.
        -11    1    4    4    0    0 -0.19089016841E-01 -0.65246162283E-03 -0.47554052689E-01  0.51249051877E-01  0.51100000000E-03 0. -1.
         11    1    4    4    0    0 -0.50803297840E-01  0.71546513544E-02 -0.57943637124E-01  0.77394381654E-01  0.51100000000E-03 0.  1.
</event>
<event>
 8    1  0.1103774E+005  0.1043930E+01  0.7957747E-01            NaN
         13   -1    0    0    0    0  0.00000000000E+00  0.00000000000E+00  0.74505805969E-08  0.10566000000E+00  0.10566000000E+00 0. -1.
     999900   -1    0    0    0    0 -0.00000000000E+00 -0.00000000000E+00 -0.74505805969E-08  0.93827000000E+00  0.93827000000E+00 0.  1.
     999902    2    1    2    0    0  0.19151009970E-01 -0.46099130468E-02  0.10836521355E-01  0.10214479477E+01  0.10212005029E+01 0.  0.
     999903    2    3    3    0    0 -0.71119924672E-01 -0.87214162122E-01  0.64838801941E-01  0.13134202707E+00  0.19552597727E-01 0.  0.
         14    1    1    2    0    0 -0.19151009970E-01  0.46099130468E-02 -0.10836521355E-01  0.22482052314E-01  0.00000000000E+00 0.  1.
     999901    1    3    3    0    0  0.90270934642E-01  0.82604249075E-01 -0.54002280586E-01  0.89010592062E+00  0.88000000000E+00 0.  1.
        -11    1    4    4    0    0 -0.51514370605E-01 -0.72460804282E-01  0.44265499677E-01  0.99317642535E-01  0.51100000000E-03 0.  1.
         11    1    4    4    0    0 -0.19605554067E-01 -0.14753357839E-01  0.20573302264E-01  0.32024384536E-01  0.51100000000E-03 0. -1.
</event>
<event>
 8    1  0.1103774E+005  0.1043930E+01  0.7957747E-01            NaN
         13   -1    0    0    0    0  0.00000000000E+00  0.00000000000E+00  0.74505805969E-08  0.10566000000E+00  0.10566000000E+00 0. -1.
     999900   -1    0    0    0    0 -0.00000000000E+00 -0.00000000000E+00 -0.74505805969E-08  0.93827000000E+00  0.93827000000E+00 0.  1.
     999902    2    1    2    0    0 -0.14649013801E-01 -0.17402130878E-01 -0.11429408409E-02  0.10211542656E+01  0.10209002400E+01 0.  0.
     999903    2    3    3    0    0  0.59351825933E-02 -0.91943916920E-01  0.93422670614E-01  0.13271583672E+00  0.19919530147E-01 0.  0.
         14    1    1    2    0    0  0.14649013801E-01  0.17402130878E-01  0.11429408409E-02  0.22775734416E-01  0.00000000000E+00 0.  1.
     999901    1    3    3    0    0 -0.20584196394E-01  0.74541786042E-01 -0.94565611455E-01  0.88843842886E+00  0.88000000000E+00 0. -1.
        -11    1    4    4    0    0  0.92352869965E-02 -0.43251985427E-01  0.33810616149E-01  0.55672647276E-01  0.51100000000E-03 0.  1.
         11    1    4    4    0    0 -0.33001044032E-02 -0.48691931492E-01  0.59612054466E-01  0.77043189447E-01  0.51100000000E-03 0. -1.
</event>
<event>
 8    1  0.1103774E+005  0.1043930E+01  0.7957747E-01            NaN
         13   -1    0    0    0    0  0.00000000000E+00  0.00000000000E+00  0.74505805969E-08  0.10566000000E+00  0.10566000000E+00 0. -1.
     999900   -1    0    0    0    0 -0.00000000000E+00 -0.00000000000E+00 -0.74505805969E-08  0.93827000000E+00  0.93827000000E+00 0. -1.
     999902    2    1    2    0    0 -0.93474217098E-02  0.21584849840E-01  0.46105453376E-02  0.10199604951E+01  0.10196788095E+01 0.  0.
     999903    2    3    3    0    0 -0.33717863161E-01 -0.68000926823E-01 -0.10270677677E+00  0.12859270492E+00  0.15045976874E-01 0.  0.
         14    1    1    2    0    0  0.93474217098E-02 -0.21584849840E-01 -0.46105453376E-02  0.23969504867E-01  0.00000000000E+00 0.  1.
     999901    1    3    3    0    0  0.24370441452E-01  0.89585776663E-01  0.10731732211E+00  0.89136779021E+00  0.88000000000E+00 0.  1.
        -11    1    4    4    0    0 -0.20872404582E-01 -0.56095962574E-01 -0.79105426498E-01  0.99198507613E-01  0.51100000000E-03 0.  1.
         11    1    4    4    0    0 -0.12845458580E-01 -0.11904964249E-01 -0.23601350273E-01  0.29394197312E-01  0.51100000000E-03 0. -1.
</event>
<event>
 8    1  0.1103774E+005  0.1043930E+01  0.7957747E-01            NaN
         13   -1    0    0    0    0  0.00000000000E+00  0.00000000000E+00  0.74505805969E-08  0.10566000000E+00  0.10566000000E+00 0. -1.
     999900   -1    0    0    0    0 -0.00000000000E+00 -0.00000000000E+00 -0.74505805969E-08  0.93827000000E+00  0.93827000000E+00 0. -1.
     999902    2    1    2    0    0 -0.22640871701E-01  0.60440455818E-02  0.17651548762E-02  0.10204298866E+01  0.10201592514E+01 0.  0.
     999903    2    3    3    0    0  0.37705811193E-01  0.11662199936E+00 -0.36723607048E-01  0.13062620555E+00  0.26308997156E-01 0.  0.
         14    1    1    2    0    0  0.22640871701E-01 -0.60440455818E-02 -0.17651548762E-02  0.23500113406E-01  0.00000000000E+00 0. -1.
     999901    1    3    3    0    0 -0.60346682894E-01 -0.11057795377E+00  0.38488761924E-01  0.88980368104E+00  0.88000000000E+00 0. -1.
        -11    1    4    4    0    0  0.24943136639E-01  0.52632099329E-01 -0.28542246092E-01  0.64863077927E-01  0.51100000000E-03 0. -1.
         11    1    4    4    0    0  0.12762674554E-01  0.63989900026E-01 -0.81813609559E-02  0.65763127627E-01  0.51100000000E-03 0.  1.
</event>
<event>
 8    1  0.1103774E+005  0.1043930E+01  0.7957747E-01            NaN
         13   -1    0    0    0    0  0.00000000000E+00  0.00000000000E+00  0.74505805969E-08  0.10566000000E+00  0.10566000000E+00 0.  1.
     999900   -1    0    0    0    0 -0.00000000000E+00 -0.00000000000E+00 -0.74505805969E-08  0.93827000000E+00  0.93827000000E+00 0. -1.
     999902    2    1    2    0    0  0.23028539520E-02 -0.23848178223E-01 -0.58376722245E-02  0.10192699684E+01  0.10189716146E+01 0.  0.
     999903    2    3    3    0    0 -0.12710885651E+00 -0.15343152239E-01 -0.84162846364E-02  0.12976090409E+00  0.19364520606E-01 0.  0.
         14    1    1    2    0    0 -0.23028539520E-02  0.23848178223E-01  0.58376722245E-02  0.24660031587E-01  0.00000000000E+00 0.  1.
     999901    1    3    3    0    0  0.12941171047E+00 -0.85050259840E-02  0.25786124119E-02  0.88950906432E+00  0.88000000000E+00 0.  1.
        -11    1    4    4    0    0 -0.93609635907E-01 -0.97396984788E-02 -0.14576256657E-01  0.95238406330E-01  0.51100000000E-03 0. -1.
         11    1    4    4    0    0 -0.33499220606E-01 -0.56034537599E-02  0.61599720210E-02  0.34522497759E-01  0.51100000000E-03 0.  1.
</event>
<event>
 8    1  0.1103774E+005  0.1043930E+01  0.7957747E-01            NaN
         13   -1    0    0    0    0  0.00000000000E+00  0.00000000000E+00  0.74505805969E-08  0.10566000000E+00  0.10566000000E+00 0.  1.
     999900   -1    0    0    0    0 -0.00000000000E+00 -0.00000000000E+00 -0.74505805969E-08  0.93827000000E+00  0.93827000000E+00 0.  1.
     999902    2    1    2    0    0 -0.82807993869E-02  0.22921387353E-01 -0.32339926817E-03  0.10195565262E+01  0.10192651490E+01 0.  0.
     999903    2    3    3    0    0 -0.92197365242E-01  0.93354312261E-01 -0.37335400938E-02  0.13275642700E+00  0.19873293933E-01 0.  0.
         14    1    1    2    0    0  0.82807993869E-02 -0.22921387353E-01  0.32339926817E-03  0.24373473773E-01  0.00000000000E+00 0. -1.
     999901    1    3    3    0    0  0.83916565855E-01 -0.70432924908E-01  0.34101408256E-02  0.88680009923E+00  0.88000000000E+00 0. -1.
        -11    1    4    4    0    0 -0.94379688403E-02  0.18202971729E-01  0.31649015669E-02  0.20753340901E-01  0.51100000000E-03 0.  1.
         11    1    4    4    0    0 -0.82759396402E-01  0.75151340532E-01 -0.68984416607E-02  0.11200308610E+00  0.51100000000E-03 0. -1.
</event>
<event>
 8    1  0.1103774E+005  0.1043930E+01  0.7957747E-01            NaN
         13   -1    0    0    0    0  0.00000000000E+00  0.00000000000E+00  0.74505805969E-08  0.10566000000E+00  0.10566000000E+00 0.  1.
     999900   -1    0    0    0    0 -0.00000000000E+00 -0.00000000000E+00 -0.74505805969E-08  0.93827000000E+00  0.93827000000E+00 0.  1.
     999902    2    1    2    0    0  0.35716847134E-02 -0.10698363821E-01  0.20031760678E-01  0.10209412341E+01  0.10206823797E+01 0.  0.
     999903    2    3    3    0    0  0.70648491580E-01 -0.64162144095E-02 -0.10636229889E+00  0.12937346155E+00  0.19803453195E-01 0.  0.
         14    1    1    2    0    0 -0.35716847134E-02  0.10698363821E-01 -0.20031760678E-01  0.22988765865E-01  0.00000000000E+00 0. -1.
     999901    1    3    3    0    0 -0.67076806867E-01 -0.42821494118E-02  0.12639405956E+00  0.89156777259E+00  0.88000000000E+00 0. -1.
        -11    1    4    4    0    0  0.20184641021E-02 -0.45383585561E-02 -0.70641982688E-02  0.86507175365E-02  0.51100000000E-03 0. -1.
         11    1    4    4    0    0  0.68630027478E-01 -0.18778558535E-02 -0.99298100617E-01  0.12072274401E+00  0.51100000000E-03 0.  1.
</event>
<event>
 8    1  0.1103774E+005  0.1043930E+01  0.7957747E-01            NaN
         13   -1    0    0    0    0  0.00000000000E+00  0.00000000000E+00  0.74505805969E-08  0.10566000000E+00  0.10566000000E+00 0. -1.
     999900   -1    0    0    0    0 -0.00000000000E+00 -0.00000000000E+00 -0.74505805969E-08  0.93827000000E+00  0.93827000000E+00 0. -1.
     999902    2    1    2    0    0 -0.30307662307E-02  0.18290397734E-01 -0.14758650690E-01  0.10202331233E+01  0.10199578834E+01 0.  0.
     999903    2    3    3    0    0  0.10003029495E+00 -0.74223953648E-01 -0.27853738464E-01  0.12930553433E+00  0.20708337894E-01 0.  0.
         14    1    1    2    0    0  0.30307662307E-02 -0.18290397734E-01  0.14758650690E-01  0.23696876659E-01  0.00000000000E+00 0. -1.
     999901    1    3    3    0    0 -0.10306106118E+00  0.92514351383E-01  0.13095087774E-01  0.89092758901E+00  0.88000000000E+00 0. -1.
        -11    1    4    4    0    0  0.71801925738E-01 -0.50285302118E-01 -0.10062746576E-01  0.88236319837E-01  0.51100000000E-03 0.  1.
         11    1    4    4    0    0  0.28228369211E-01 -0.23938651531E-01 -0.17790991888E-01  0.41069214489E-01  0.51100000000E-03 0. -1.
</event>
<event>
 8    1  0.1103774E+005  0.1043930E+01  0.7957747E-01            NaN
         13   -1    0    0    0    0  0.00000000000E+00  0.00000000000E+00  0.74505805969E-08  0.10566000000E+00  0.10566000000E+00 0.  1.
     999900   -1    0    0    0    0 -0.00000000000E+00 -0.00000000000E+00 -0.74505805969E-08  0.93827000000E+00  0.93827000000E+00 0. -1.
     999902    2    1    2    0    0  0.18713358720E-02  0.14111783024E-01  0.18492670286E-01  0.10205928371E+01  0.10203259851E+01 0.  0.
     999903    2    3    3    0    0 -0.60030077667E-02 -0.12579233272E+00 -0.17752686923E-01  0.12876948418E+00  0.20166186780E-01 0.  0.
         14    1    1    2    0    0 -0.18713358720E-02 -0.14111783024E-01 -0.18492670286E-01  0.23337162903E-01  0.00000000000E+00 0. -1.
     999901    1    3    3    0    0  0.78743436387E-02  0.13990411574E+00  0.36245357210E-01  0.89182335292E+00  0.88000000000E+00 0.  1.
        -11    1    4    4    0    0 -0.12518801068E-01 -0.10448533084E+00 -0.13800976398E-01  0.10613497450E+00  0.51100000000E-03 0. -1.
         11    1    4    4    0    0  0.65157933013E-02 -0.21307001881E-01 -0.39517105254E-02  0.22634509682E-01  0.51100000000E-03 0.  1.
</event>
<event>
 8    1  0.1103774E+005  0.1043930E+01  0.7957747E-01            NaN
         13   -1    0    0    0    0  0.00000000000E+00  0.00000000000E+00  0.74505805969E-08  0.10566000000E+00  0.10566000000E+00 0. -1.
     999900   -1    0    0    0    0 -0.00000000000E+00 -0.00000000000E+00 -0.74505805969E-08  0.93827000000E+00  0.93827000000E+00 0. -1.
     999902    2    1    2    0    0 -0.21318137611E-02  0.17358423134E-01 -0.16418126086E-01  0.10199422042E+01  0.10196600833E+01 0.  0.
     999903    2    3    3    0    0 -0.10190911577E-03 -0.12646516020E+00 -0.53981142985E-02  0.12819628505E+00  0.20290409884E-01 0.  0.
         14    1    1    2    0    0  0.21318137611E-02 -0.17358423134E-01  0.16418126086E-01  0.23987795809E-01  0.00000000000E+00 0. -1.
     999901    1    3    3    0    0 -0.20299046453E-02  0.14382358334E+00 -0.11020011787E-01  0.89174591914E+00  0.88000000000E+00 0. -1.
        -11    1    4    4    0    0 -0.83341428068E-02 -0.69983515289E-01  0.27691355523E-02  0.70534244032E-01  0.51100000000E-03 0. -1.
         11    1    4    4    0    0  0.82322336910E-02 -0.56481644914E-01 -0.81672498509E-02  0.57662041022E-01  0.51100000000E-03 0.  1.
</event>
<event>
 8    1  0.1103774E+005  0.1043930E+01  0.7957747E-01            NaN
         13   -1    0    0    0    0  0.00000000000E+00  0.00000000000E+00  0.74505805969E-08  0.10566000000E+00  0.10566000000E+00 0.  1.
     999900   -1    0    0    0    0 -0.00000000000E+00 -0.00000000000E+00 -0.74505805969E-08  0.93827000000E+00  0.93827000000E+00 0. -1.
     999902    2    1    2    0    0 -0.68648187408E-02 -0.12610643861E-01 -0.18822972793E-01  0.10202559978E+01  0.10199812953E+01 0.  0.
     999903    2    3    3    0    0 -0.11114195865E+00  0.63038835847E-01  0.15490417560E-01  0.13021444010E+00  0.19733666077E-01 0.  0.
         14    1    1    2    0    0  0.68648187408E-02  0.12610643861E-01  0.18822972793E-01  0.23674002191E-01  0.00000000000E+00 0.  1.
     999901    1    3    3    0    0  0.10427713991E+00 -0.75649479708E-01 -0.34313390354E-01  0.89004155771E+00  0.88000000000E+00 0. -1.
        -11    1    4    4    0    0 -0.69878436236E-01  0.30091998343E-01  0.41009775141E-02  0.76194509990E-01  0.51100000000E-03 0. -1.
         11    1    4    4    0    0 -0.41263522417E-01  0.32946837504E-01  0.11389440046E-01  0.54019930112E-01  0.51100000000E-03 0.  1.
</event>
<event>
 8    1  0.1103774E+005  0.1043930E+01  0.7957747E-01            NaN
         13   -1    0    0    0    0  0.00000000000E+00  0.00000000000E+00  0.74505805969E-08  0.10566000000E+00  0.10566000000E+00 0. -1.
     999900   -1    0    0    0    0 -0.00000000000E+00 -0.00000000000E+00 -0.74505805969E-08  0.93827000000E+00  0.93827000000E+00 0. -1.
     999902    2    1    2    0    0 -0.20120160728E-01  0.12241733584E-01 -0.76697247587E-02  0.10191609551E+01  0.10188599250E+01 0.  0.
     999903    2    3    3    0    0  0.80077027543E-01  0.82313456906E-01  0.54266518341E-01  0.12855126438E+00  0.19817594009E-01 0.  0.
         14    1    1    2    0    0  0.20120160728E-01 -0.12241733584E-01  0.76697247587E-02  0.24769044930E-01  0.00000000000E+00 0.  1.
     999901    1    3    3    0    0 -0.10019718827E+00 -0.70071723322E-01 -0.61936243100E-01  0.89060969069E+00  0.88000000000E+00 0. -1.
        -11    1    4    4    0    0  0.36036407267E-01  0.27517232574E-01  0.29106782697E-01  0.53882155276E-01  0.51100000000E-03 0. -1.
         11    1    4    4    0    0  0.44040620275E-01  0.54796224331E-01  0.25159735645E-01  0.74669109101E-01  0.51100000000E-03 0.  1.
</event>
<event>
 8    1  0.1103774E+005  0.1043930E+01  0.7957747E-01            NaN
         13   -1    0    0    0    0  0.00000000000E+00  0.00000000000E+00  0.74505805969E-08  0.10566000000E+00  0.10566000000E+00 0.  1.
     999900   -1    0    0    0    0 -0.00000000000E+00 -0.00000000000E+00 -0.74505805969E-08  0.93827000000E+00  0.93827000000E+00 0.  1.
     999902    2    1    2    0    0  0.17911343721E-01 -0.70865471564E-02  0.14130509310E-01  0.10200405321E+01  0.10197607466E+01 0.  0.
     999903    2    3    3    0    0 -0.55159447860E-01  0.75306188941E-01  0.88328956266E-01  0.13007799743E+00  0.20117010671E-01 0.  0.
         14    1    1    2    0    0 -0.17911343721E-01  0.70865471564E-02 -0.14130509310E-01  0.23889467927E-01  0.00000000000E+00 0.  1.
     999901    1    3    3    0    0  0.73070791581E-01 -0.82392736098E-01 -0.74198446956E-01  0.88996253465E+00  0.88000000000E+00 0.  1.
        -11    1    4    4    0    0 -0.30141079935E-01  0.36641180584E-01  0.57987528350E-01  0.74925799157E-01  0.51100000000E-03 0. -1.
         11    1    4    4    0    0 -0.25018367925E-01  0.38665008357E-01  0.30341427916E-01  0.55152198269E-01  0.51100000000E-03 0.  1.
</event>
<event>
 8    1  0.1103774E+005  0.1043930E+01  0.7957747E-01            NaN
         13   -1    0    0    0    0  0.00000000000E+00  0.00000000000E+00  0.74505805969E-08  0.10566000000E+00  0.10566000000E+00 0.  1.
     999900   -1    0    0    0    0 -0.00000000000E+00 -0.00000000000E+00 -0.74505805969E-08  0.93827000000E+00  0.93827000000E+00 0.  1.
     999902    2    1    2    0    0 -0.20636674500E-01  0.12487384988E-02 -0.14058282216E-01  0.10189286604E+01  0.10186218867E+01 0.  0.
     999903    2    3    3    0    0 -0.54416779031E-01  0.10497413757E+00  0.50205057905E-01  0.12986745287E+00  0.19085389096E-01 0.  0.
         14    1    1    2    0    0  0.20636674500E-01 -0.12487384988E-02  0.14058282216E-01  0.25001339586E-01  0.00000000000E+00 0.  1.
     999901    1    3    3    0    0  0.33780104531E-01 -0.10372539907E+00 -0.64263340121E-01  0.88906120754E+00  0.88000000000E+00 0.  1.
        -11    1    4    4    0    0 -0.39281322507E-02  0.24141082462E-01  0.10176957417E-01  0.26496295377E-01  0.51100000000E-03 0. -1.
         11    1    4    4    0    0 -0.50488646780E-01  0.80833055109E-01  0.40028100489E-01  0.10337115749E+00  0.51100000000E-03 0.  1.
</event>
<event>
 8    1  0.1103774E+005  0.1043930E+01  0.7957747E-01            NaN
         13   -1    0    0    0    0  0.00000000000E+00  0.00000000000E+00  0.74505805969E-08  0.10566000000E+00  0.10566000000E+00 0.  1.
     999900   -1    0    0    0    0 -0.00000000000E+00 -0.00000000000E+00 -0.74505805969E-08  0.93827000000E+00  0.93827000000E+00 0.  1.
     999902    2    1    2    0    0 -0.13140068170E-01 -0.15539945377E-01  0.13109846630E-01  0.10197221630E+01  0.10194347798E+01 0.  0.
     999903    2    3    3    0    0 -0.50041472666E-01 -0.64889086124E-01  0.10183212229E+00  0.13311701213E+00  0.25211412163E-01 0.  0.
         14    1    1    2    0    0  0.13140068170E-01  0.15539945377E-01 -0.13109846630E-01  0.24207837005E-01  0.00000000000E+00 0. -1.
     999901    1    3    3    0    0  0.36901404497E-01  0.49349140747E-01 -0.88722275659E-01  0.88660515087E+00  0.88000000000E+00 0.  1.
        -11    1    4    4    0    0 -0.37249526078E-01 -0.30633951579E-01  0.67473107705E-01  0.82938818214E-01  0.51100000000E-03 0.  1.
         11    1    4    4    0    0 -0.12791946588E-01 -0.34255134545E-01  0.34359014584E-01  0.50178193914E-01  0.51100000000E-03 0. -1.
</event>
<event>
 7    1  0.1103774E+005  0.1043930E+01  0.7957747E-01            NaN
         13   -1    0    0    0    0  0.00000000000E+00  0.00000000000E+00  0.74505805969E-08  0.10566000000E+00  0.10566000000E+00 0. -1.
     999900   -1    0    0    0    0 -0.00000000000E+00 -0.00000000000E+00 -0.74505805969E-08  0.93827000000E+00  0.93827000000E+00 0. -1.
     999903    2    1    2    0    0  0.91325993670E-01 -0.52220610641E-01  0.44081116802E-01  0.11573344494E+00  0.19587141815E-01 0.  0.
         14    1    1    2    0    0 -0.75747532303E-02  0.41380027523E-01 -0.11242581857E-01  0.43543991677E-01  0.00000000000E+00 0.  1.
     999901    1    1    2    0    0 -0.83751240440E-01  0.10840583118E-01 -0.32838534945E-01  0.88465256338E+00  0.88000000000E+00 0. -1.
        -11    1    3    3    0    0  0.54985938511E-01 -0.31380671250E-01  0.16014865177E-01  0.65306485051E-01  0.51100000000E-03 0.  1.
         11    1    3    3    0    0  0.36340055159E-01 -0.20839939391E-01  0.28066251625E-01  0.50426959893E-01  0.51100000000E-03 0. -1.
</event>
<event>
 8    1  0.1103774E+005  0.1043930E+01  0.7957747E-01            NaN
         13   -1    0    0    0    0  0.00000000000E+00  0.00000000000E+00  0.74505805969E-08  0.10566000000E+00  0.10566000000E+00 0. -1.
     999900   -1    0    0    0    0 -0.00000000000E+00 -0.00000000000E+00 -0.74505805969E-08  0.93827000000E+00  0.93827000000E+00 0. -1.
     999902    2    1    2    0    0  0.19293805073E-02  0.12590927403E-01  0.20946792034E-01  0.10194142488E+01  0.10191194182E+01 0.  0.
     999903    2    3    3    0    0 -0.55327274540E-01 -0.88390101605E-01 -0.69873774755E-01  0.12715651239E+00  0.20310511455E-01 0.  0.
         14    1    1    2    0    0 -0.19293805073E-02 -0.12590927403E-01 -0.20946792034E-01  0.24515751233E-01  0.00000000000E+00 0.  1.
     999901    1    3    3    0    0  0.57256655047E-01  0.10098102901E+00  0.90820566790E-01  0.89225773637E+00  0.88000000000E+00 0. -1.
        -11    1    4    4    0    0 -0.34486584244E-01 -0.40064403692E-01 -0.42513779476E-01  0.67839247507E-01  0.51100000000E-03 0. -1.
         11    1    4    4    0    0 -0.20840690296E-01 -0.48325697913E-01 -0.27359995279E-01  0.59317264886E-01  0.51100000000E-03 0.  1.
</event>
<event>
 8    1  0.1103774E+005  0.1043930E+01  0.7957747E-01            NaN
         13   -1    0    0    0    0  0.00000000000E+00  0.00000000000E+00  0.74505805969E-08  0.10566000000E+00  0.10566000000E+00 0. -1.
     999900   -1    0    0    0    0 -0.00000000000E+00 -0.00000000000E+00 -0.74505805969E-08  0.93827000000E+00  0.93827000000E+00 0.  1.
     999902    2    1    2    0    0 -0.42891249891E-02  0.17139841029E-01 -0.16479496819E-01  0.10197691937E+01  0.10194829395E+01 0.  0.
     999903    2    3    3    0    0 -0.10340350492E+00  0.72207708512E-01  0.30092430727E-01  0.13127323158E+00  0.20515090643E-01 0.  0.
         14    1    1    2    0    0  0.42891249891E-02 -0.17139841029E-01  0.16479496819E-01  0.24160806259E-01  0.00000000000E+00 0. -1.
     999901    1    3    3    0    0  0.99114379933E-01 -0.55067867482E-01 -0.46571927546E-01  0.88849596216E+00  0.88000000000E+00 0.  1.
        -11    1    4    4    0    0 -0.80445796709E-01  0.47749523612E-01  0.16113655547E-01  0.94928679699E-01  0.51100000000E-03 0. -1.
         11    1    4    4    0    0 -0.22957708212E-01  0.24458184900E-01  0.13978775180E-01  0.36344551882E-01  0.51100000000E-03 0.  1.
</event>
<event>
 7    1  0.1103774E+005  0.1043930E+01  0.7957747E-01            NaN
         13   -1    0    0    0    0  0.00000000000E+00  0.00000000000E+00  0.74505805969E-08  0.10566000000E+00  0.10566000000E+00 0. -1.
     999900   -1    0    0    0    0 -0.00000000000E+00 -0.00000000000E+00 -0.74505805969E-08  0.93827000000E+00  0.93827000000E+00 0. -1.
     999902    2    1    2    0    0  0.23363497837E-01 -0.18061122579E-02  0.78726617552E-02  0.10192096870E+01  0.10189098548E+01 0.  0.
         14    1    1    2    0    0 -0.23363497837E-01  0.18061122579E-02 -0.78726617552E-02  0.24720313019E-01  0.00000000000E+00 0.  1.
     999901    1    3    3    0    0  0.44824947653E-01 -0.35837397913E-01 -0.10691407441E+00  0.88832663718E+00  0.88000000000E+00 0. -1.
        -11    1    3    3    0    0 -0.19286379104E-01  0.37420010809E-01  0.47493203506E-01  0.63467213017E-01  0.51100000000E-03 0. -1.
         11    1    3    3    0    0 -0.21750707128E-02 -0.33887251541E-02  0.67293532655E-01  0.67415836781E-01  0.51100000000E-03 0.  1.
</event>
<event>
 8    1  0.1103774E+005  0.1043930E+01  0.7957747E-01            NaN
         13   -1    0    0    0    0  0.00000000000E+00  0.00000000000E+00  0.74505805969E-08  0.10566000000E+00  0.10566000000E+00 0.  1.
     999900   -1    0    0    0    0 -0.00000000000E+00 -0.00000000000E+00 -0.74505805969E-08  0.93827000000E+00  0.93827000000E+00 0. -1.
     999902    2    1    2    0    0  0.23456189652E-01  0.84195198248E-02  0.10315745825E-01  0.10169578707E+01  0.10166001254E+01 0.  0.
     999903    2    3    3    0    0 -0.41846186148E-01  0.32230973370E-01  0.11501763942E+00  0.12802937407E+00  0.19300888727E-01 0.  0.
         14    1    1    2    0    0 -0.23456189652E-01 -0.84195198248E-02 -0.10315745825E-01  0.26972129300E-01  0.00000000000E+00 0. -1.
     999901    1    3    3    0    0  0.65302375799E-01 -0.23811453545E-01 -0.10470189360E+00  0.88892849663E+00  0.88000000000E+00 0. -1.
        -11    1    4    4    0    0 -0.30068264069E-01  0.19043374574E-01  0.55457194697E-01  0.65897740355E-01  0.51100000000E-03 0.  1.
         11    1    4    4    0    0 -0.11777922079E-01  0.13187598795E-01  0.59560444727E-01  0.62131633711E-01  0.51100000000E-03 0. -1.
</event>
<event>
 8    1  0.1103774E+005  0.1043930E+01  0.7957747E-01            NaN
         13   -1    0    0    0    0  0.00000000000E+00  0.00000000000E+00  0.74505805969E-08  0.10566000000E+00  0.10566000000E+00 0. -1.
     999900   -1    0    0    0    0 -0.00000000000E+00 -0.00000000000E+00 -0.74505805969E-08  0.93827000000E+00  0.93827000000E+00 0. -1.
     999902    2    1    2    0    0  0.15806266785E-01 -0.14291766001E-01 -0.92914643237E-02  0.10206829797E+01  0.10204182089E+01 0.  0.
     999903    2    3    3    0    0  0.60928266530E-01 -0.11683336010E+00 -0.96358484797E-02  0.13358045347E+00  0.19712946978E-01 0.  0.
         14    1    1    2    0    0 -0.15806266785E-01  0.14291766001E-01  0.92914643237E-02  0.23247020333E-01  0.00000000000E+00 0. -1.
     999901    1    3    3    0    0 -0.45121999745E-01  0.10254159410E+00  0.34438415604E-03  0.88710252620E+00  0.88000000000E+00 0.  1.
        -11    1    4    4    0    0  0.31173504050E-01 -0.75423270528E-01 -0.12209271936E-01  0.82521418638E-01  0.51100000000E-03 0. -1.
         11    1    4    4    0    0  0.29754762480E-01 -0.41410089575E-01  0.25734234562E-02  0.51059034833E-01  0.51100000000E-03 0.  1.
</event>
<event>
 8    1  0.1103774E+005  0.1043930E+01  0.7957747E-01            NaN
         13   -1    0    0    0    0  0.00000000000E+00  0.00000000000E+00  0.74505805969E-08  0.10566000000E+00  0.10566000000E+00 0.  1.
     999900   -1    0    0    0    0 -0.00000000000E+00 -0.00000000000E+00 -0.74505805969E-08  0.93827000000E+00  0.93827000000E+00 0. -1.
     999902    2    1    2    0    0  0.23444681472E-01 -0.11820803409E-02 -0.28470585211E-02  0.10202835173E+01  0.10200094605E+01 0.  0.
     999903    2    3    3    0    0  0.12102923198E+00  0.39472714421E-01 -0.34569117077E-01  0.13338902195E+00  0.19784770462E-01 0.  0.
         14    1    1    2    0    0 -0.23444681472E-01  0.11820803409E-02  0.28470585211E-02  0.23646482730E-01  0.00000000000E+00 0. -1.
     999901    1    3    3    0    0 -0.97584550511E-01 -0.40654794761E-01  0.31722058556E-01  0.88689449532E+00  0.88000000000E+00 0.  1.
        -11    1    4    4    0    0  0.91311091953E-02  0.72130159367E-02  0.81355375821E-03  0.11675947274E-01  0.51100000000E-03 0. -1.
         11    1    4    4    0    0  0.11189812279E+00  0.32259698484E-01 -0.35382670835E-01  0.12171307467E+00  0.51100000000E-03 0.  1.
</event>
<event>
 8    1  0.1103774E+005  0.1043930E+01  0.7957747E-01            NaN
         13   -1    0    0    0    0  0.00000000000E+00  0.00000000000E+00  0.74505805969E-08  0.10566000000E+00  0.10566000000E+00 0.  1.
     999900   -1    0    0    0    0 -0.00000000000E+00 -0.00000000000E+00 -0.74505805969E-08  0.93827000000E+00  0.93827000000E+00 0.  1.
     999902    2    1    2    0    0 -0.12873165248E-01  0.19477197878E-01  0.34330266534E-02  0.10203320066E+01  0.10200590857E+01 0.  0.
     999903    2    3    3    0    0 -0.82638030021E-02 -0.10886056780E+00  0.65559434859E-01  0.12884363375E+00  0.19588996835E-01 0.  0.
         14    1    1    2    0    0  0.12873165248E-01 -0.19477197878E-01 -0.34330266534E-02  0.23597993404E-01  0.00000000000E+00 0.  1.
     999901    1    3    3    0    0 -0.46093622458E-02  0.12833776568E+00 -0.62126408205E-01  0.89148837284E+00  0.88000000000E+00 0.  1.
        -11    1    4    4    0    0  0.27616559717E-02 -0.70044549604E-01  0.47190861873E-01  0.84505054513E-01  0.51100000000E-03 0.  1.
         11    1    4    4    0    0 -0.11025458974E-01 -0.38816018199E-01  0.18368572985E-01  0.44338579239E-01  0.51100000000E-03 0. -1.
</event>
<event>
 8    1  0.1103774E+005  0.1043930E+01  0.7957747E-01            NaN
         13   -1    0    0    0    0  0.00000000000E+00  0.00000000000E+00  0.74505805969E-08  0.10566000000E+00  0.10566000000E+00 0.  1.
     999900   -1    0    0    0    0 -0.00000000000E+00 -0.00000000000E+00 -0.74505805969E-08  0.93827000000E+00  0.93827000000E+00 0.  1.
     999902    2    1    2    0    0 -0.27776974810E-02 -0.22154056684E-01  0.20831582696E-02  0.10215055183E+01  0.10212593532E+01 0.  0.
     999903    2    3    3    0    0  0.27499069905E-01  0.12127437993E+00  0.28539129027E-01  0.12898755352E+00  0.18963992332E-01 0.  0.
         14    1    1    2    0    0  0.27776974810E-02  0.22154056684E-01 -0.20831582696E-02  0.22424481694E-01  0.00000000000E+00 0. -1.
     999901    1    3    3    0    0 -0.30276767386E-01 -0.14342843661E+00 -0.26455970757E-01  0.89251796478E+00  0.88000000000E+00 0. -1.
        -11    1    4    4    0    0  0.16858237451E-01  0.60285767918E-01  0.23517071093E-01  0.66872174611E-01  0.51100000000E-03 0. -1.
         11    1    4    4    0    0  0.10640832455E-01  0.60988612012E-01  0.50220579336E-02  0.62115378912E-01  0.51100000000E-03 0.  1.
</event>
<event>
 7    1  0.1103774E+005  0.1043930E+01  0.7957747E-01            NaN
         13   -1    0    0    0    0  0.00000000000E+00  0.00000000000E+00  0.74505805969E-08  0.10566000000E+00  0.10566000000E+00 0.  1.
     999900   -1    0    0    0    0 -0.00000000000E+00 -0.00000000000E+00 -0.74505805969E-08  0.93827000000E+00  0.93827000000E+00 0.  1.
     999903    2    1    2    0    0 -0.43065231001E-01 -0.85580546492E-01 -0.27890343292E-01  0.10174794007E+00  0.19902964631E-01 0.  0.
         14    1    1    2    0    0 -0.26903122686E-01  0.86041837167E-02 -0.44926980251E-01  0.53068291306E-01  0.00000000000E+00 0. -1.
     999901    1    1    2    0    0  0.69968353686E-01  0.76976362775E-01  0.72817323543E-01  0.88911376862E+00  0.88000000000E+00 0. -1.
        -11    1    3    3    0    0 -0.15309838487E-01 -0.44146771894E-01 -0.54069018732E-02  0.47040666790E-01  0.51100000000E-03 0. -1.
         11    1    3    3    0    0 -0.27755392514E-01 -0.41433774598E-01 -0.22483441419E-01  0.54707273283E-01  0.51100000000E-03 0.  1.
</event>
<event>
 8    1  0.1103774E+005  0.1043930E+01  0.7957747E-01            NaN
         13   -1    0    0    0    0  0.00000000000E+00  0.00000000000E+00  0.74505805969E-08  0.10566000000E+00  0.10566000000E+00 0. -1.
     999900   -1    0    0    0    0 -0.00000000000E+00 -0.00000000000E+00 -0.74505805969E-08  0.93827000000E+00  0.93827000000E+00 0.  1.
     999902    2    1    2    0    0 -0.22447349763E-01 -0.39248197490E-02 -0.63995009424E-02  0.10202605823E+01  0.10199859874E+01 0.  0.
     999903    2    3    3    0    0 -0.11146485225E+00 -0.43880184844E-01  0.53580319787E-01  0.13283840215E+00  0.20622960713E-01 0.  0.
         14    1    1    2    0    0  0.22447349763E-01  0.39248197490E-02  0.63995009424E-02  0.23669417689E-01  0.00000000000E+00 0. -1.
     999901    1    3    3    0    0  0.89017502485E-01  0.39955365095E-01 -0.59979820729E-01  0.88742218016E+00  0.88000000000E+00 0.  1.
        -11    1    4    4    0    0 -0.63847986948E-01 -0.20273165061E-01  0.19776542278E-01  0.69849405183E-01  0.51100000000E-03 0. -1.
         11    1    4    4    0    0 -0.47616865299E-01 -0.23607019782E-01  0.33803777508E-01  0.62988996966E-01  0.51100000000E-03 0.  1.
</event>
<event>
 8    1  0.1103774E+005  0.1043930E+01  0.7957747E-01            NaN
         13   -1    0    0    0    0  0.00000000000E+00  0.00000000000E+00  0.74505805969E-08  0.10566000000E+00  0.10566000000E+00 0.  1.
     999900   -1    0    0    0    0 -0.00000000000E+00 -0.00000000000E+00 -0.74505805969E-08  0.93827000000E+00  0.93827000000E+00 0.  1.
     999902    2    1    2    0    0 -0.10228750658E-01 -0.21551183754E-01 -0.42164116198E-02  0.10197048274E+01  0.10194170275E+01 0.  0.
     999903    2    3    3    0    0  0.61079715306E-01 -0.10963603525E+00 -0.34996658275E-01  0.13190346336E+00  0.20566130122E-01 0.  0.
         14    1    1    2    0    0  0.10228750658E-01  0.21551183754E-01  0.42164116198E-02  0.24225172614E-01  0.00000000000E+00 0.  1.
     999901    1    3    3    0    0 -0.71308465964E-01  0.88084851499E-01  0.30780246655E-01  0.88780136403E+00  0.88000000000E+00 0.  1.
        -11    1    4    4    0    0  0.21624494617E-01 -0.49702259171E-01 -0.24111157934E-01  0.59325731281E-01  0.51100000000E-03 0.  1.
         11    1    4    4    0    0  0.39455220689E-01 -0.59933776082E-01 -0.10885500341E-01  0.72577732079E-01  0.51100000000E-03 0. -1.
</event>
<event>
 8    1  0.1103774E+005  0.1043930E+01  0.7957747E-01            NaN
         13   -1    0    0    0    0  0.00000000000E+00  0.00000000000E+00  0.74505805969E-08  0.10566000000E+00  0.10566000000E+00 0. -1.
     999900   -1    0    0    0    0 -0.00000000000E+00 -0.00000000000E+00 -0.74505805969E-08  0.93827000000E+00  0.93827000000E+00 0.  1.
     999902    2    1    2    0    0  0.10009561892E-01 -0.19022159781E-01 -0.87955165626E-02  0.10207051210E+01  0.10204408602E+01 0.  0.
     999903    2    3    3    0    0 -0.15926189527E-01 -0.12748738270E+00  0.27122943465E-01  0.13293966576E+00  0.20751491767E-01 0.  0.
         14    1    1    2    0    0 -0.10009561892E-01  0.19022159781E-01  0.87955165626E-02  0.23224878979E-01  0.00000000000E+00 0.  1.
     999901    1    3    3    0    0  0.25935751419E-01  0.10846522291E+00 -0.35918460028E-01  0.88776545526E+00  0.88000000000E+00 0. -1.
        -11    1    4    4    0    0 -0.13124761735E-01 -0.36596931219E-01  0.12458640368E-01  0.40829812467E-01  0.51100000000E-03 0.  1.
         11    1    4    4    0    0 -0.28014277925E-02 -0.90890451477E-01  0.14664303098E-01  0.92109853293E-01  0.51100000000E-03 0. -1.
</event>
<event>
 8    1  0.1103774E+005  0.1043930E+01  0.7957747E-01            NaN
         13   -1    0    0    0    0  0.00000000000E+00  0.00000000000E+00  0.74505805969E-08  0.10566000000E+00  0.10566000000E+00 0.  1.
     999900   -1    0    0    0    0 -0.00000000000E+00 -0.00000000000E+00 -0.74505805969E-08  0.93827000000E+00  0.93827000000E+00 0. -1.
     999902    2    1    2    0    0  0.11602205899E-01  0.10014874742E-01  0.16013025215E-01  0.10217641282E+01  0.10215236697E+01 0.  0.
     999903    2    3    3    0    0 -0.41235762079E-01  0.61947097549E-01  0.10923161344E+00  0.13374469604E+00  0.20451586155E-01 0.  0.
         14    1    1    2    0    0 -0.11602205899E-01 -0.10014874742E-01 -0.16013025215E-01  0.22165871839E-01  0.00000000000E+00 0. -1.
     999901    1    3    3    0    0  0.52837967978E-01 -0.51932222808E-01 -0.93218588225E-01  0.88801943212E+00  0.88000000000E+00 0. -1.
        -11    1    4    4    0    0 -0.27018807098E-01  0.24529470062E-01  0.60779386757E-01  0.70895033776E-01  0.51100000000E-03 0.  1.
         11    1    4    4    0    0 -0.14216954981E-01  0.37417627487E-01  0.48452226684E-01  0.62849662269E-01  0.51100000000E-03 0. -1.
</event>
<event>
 8    1  0.1103774E+005  0.1043930E+01  0.7957747E-01            NaN
         13   -1    0    0    0    0  0.00000000000E+00  0.00000000000E+00  0.74505805969E-08  0.10566000000E+00  0.10566000000E+00 0.  1.
     999900   -1    0    0    0    0 -0.00000000000E+00 -0.00000000000E+00 -0.74505805969E-08  0.93827000000E+00  0.93827000000E+00 0. -1.
     999902    2    1    2    0    0 -0.64729994215E-02  0.16782822236E-02  0.22217080742E-01  0.10207283830E+01  0.10204646574E+01 0.  0.
     999903    2    3    3    0    0  0.82696618855E-01  0.87386548621E-01  0.49865032759E-01  0.13164934437E+00  0.19232491564E-01 0.  0.
         14    1    1    2    0    0  0.64729994215E-02 -0.16782822236E-02 -0.22217080742E-01  0.23201616957E-01  0.00000000000E+00 0. -1.
     999901    1    3    3    0    0 -0.89169618276E-01 -0.85708266398E-01 -0.27647952017E-01  0.88907903867E+00  0.88000000000E+00 0.  1.
        -11    1    4    4    0    0  0.52678252652E-01  0.55295455282E-01  0.21488784038E-01  0.79338607485E-01  0.51100000000E-03 0.  1.
         11    1    4    4    0    0  0.30018366203E-01  0.32091093339E-01  0.28376248721E-01  0.52310736887E-01  0.51100000000E-03 0. -1.
</event>
<event>
 8    1  0.1103774E+005  0.1043930E+01  0.7957747E-01            NaN
         13   -1    0    0    0    0  0.00000000000E+00  0.00000000000E+00  0.74505805969E-08  0.10566000000E+00  0.10566000000E+00 0. -1.
     999900   -1    0    0    0    0 -0.00000000000E+00 -0.00000000000E+00 -0.74505805969E-08  0.93827000000E+00  0.93827000000E+00 0. -1.
     999902    2    1    2    0    0 -0.17067098278E-01  0.88228642753E-02 -0.13765877368E-01  0.10202946841E+01  0.10200208891E+01 0.  0.
     999903    2    3    3    0    0 -0.70655588826E-01  0.10946533300E+00 -0.17276716576E-01  0.13293176014E+00  0.19937315716E-01 0.  0.
         14    1    1    2    0    0  0.17067098278E-01 -0.88228642753E-02  0.13765877368E-01  0.23635315893E-01  0.00000000000E+00 0. -1.
     999901    1    3    3    0    0  0.53588490548E-01 -0.10064246873E+00  0.35108392086E-02  0.88736292396E+00  0.88000000000E+00 0. -1.
        -11    1    4    4    0    0 -0.26890619447E-01  0.38181954930E-01  0.32032345712E-02  0.46813341359E-01  0.51100000000E-03 0.  1.
         11    1    4    4    0    0 -0.43764969379E-01  0.71283378072E-01 -0.20479951148E-01  0.86118418785E-01  0.51100000000E-03 0. -1.
</event>
<event>
 8    1  0.1103774E+005  0.1043930E+01  0.7957747E-01            NaN
         13   -1    0    0    0    0  0.00000000000E+00  0.00000000000E+00  0.74505805969E-08  0.10566000000E+00  0.10566000000E+00 0.  1.
     999900   -1    0    0    0    0 -0.00000000000E+00 -0.00000000000E+00 -0.74505805969E-08  0.93827000000E+00  0.93827000000E+00 0. -1.
     999902    2    1    2    0    0 -0.12722591505E-02 -0.12300853650E-01 -0.20130669515E-01  0.10203043043E+01  0.10200307347E+01 0.  0.
     999903    2    3    3    0    0 -0.60001995620E-01  0.91850962290E-01 -0.68950378461E-01  0.13087744010E+00  0.18382352581E-01 0.  0.
         14    1    1    2    0    0  0.12722591505E-02  0.12300853650E-01  0.20130669515E-01  0.23625695735E-01  0.00000000000E+00 0.  1.
     999901    1    3    3    0    0  0.58729736469E-01 -0.10415181594E+00  0.48819708946E-01  0.88942686416E+00  0.88000000000E+00 0.  1.
        -11    1    4    4    0    0 -0.49064595876E-01  0.64128580589E-01 -0.56627187843E-01  0.98624078911E-01  0.51100000000E-03 0. -1.
         11    1    4    4    0    0 -0.10937399743E-01  0.27722381700E-01 -0.12323190618E-01  0.32253361193E-01  0.51100000000E-03 0.  1.
</event>
<event>
 8    1  0.1103774E+005  0.1043930E+01  0.7957747E-01            NaN
         13   -1    0    0    0    0  0.00000000000E+00  0.00000000000E+00  0.74505805969E-08  0.10566000000E+00  0.10566000000E+00 0.  1.
     999900   -1    0    0    0    0 -0.00000000000E+00 -0.00000000000E+00 -0.74505805969E-08  0.93827000000E+00  0.93827000000E+00 0.  1.
     999902    2    1    2    0    0  0.12427267846E-01 -0.16244657381E-01  0.12702533292E-01  0.10198534506E+01  0.10195692132E+01 0.  0.
     999903    2    3    3    0    0  0.34479391805E-01 -0.63069091302E-01 -0.10687097833E+00  0.13025992067E+00  0.19485948462E-01 0.  0.
         14    1    1    2    0    0 -0.12427267846E-01  0.16244657381E-01 -0.12702533292E-01  0.24076549412E-01  0.00000000000E+00 0. -1.
     999901    1    3    3    0    0 -0.22052123959E-01  0.46824433922E-01  0.11957351162E+00  0.88959352991E+00  0.88000000000E+00 0. -1.
        -11    1    4    4    0    0  0.96185782992E-02 -0.19377964596E-01 -0.49231851748E-01  0.53777866338E-01  0.51100000000E-03 0. -1.
         11    1    4    4    0    0  0.24860813506E-01 -0.43691126706E-01 -0.57639126584E-01  0.76482054336E-01  0.51100000000E-03 0.  1.
</event>
<event>
 8    1  0.1103774E+005  0.1043930E+01  0.7957747E-01            NaN
         13   -1    0    0    0    0  0.00000000000E+00  0.00000000000E+00  0.74505805969E-08  0.10566000000E+00  0.10566000000E+00 0.  1.
     999900   -1    0    0    0    0 -0.00000000000E+00 -0.00000000000E+00 -0.74505805969E-08  0.93827000000E+00  0.93827000000E+00 0.  1.
     999902    2    1    2    0    0 -0.11118711037E-01 -0.17707874254E-01  0.10173560767E-01  0.10206771317E+01  0.10204122262E+01 0.  0.
     999903    2    3    3    0    0  0.83477408482E-01 -0.33425920565E-01 -0.91411861066E-01  0.12965800691E+00  0.19217193328E-01 0.  0.
         14    1    1    2    0    0  0.11118711037E-01  0.17707874254E-01 -0.10173560767E-01  0.23252868305E-01  0.00000000000E+00 0. -1.
     999901    1    3    3    0    0 -0.94596119519E-01  0.15718046310E-01  0.10158542183E+00  0.89101912479E+00  0.88000000000E+00 0. -1.
        -11    1    4    4    0    0  0.63787897219E-01 -0.32601380858E-01 -0.77449797980E-01  0.10550108148E+00  0.51100000000E-03 0.  1.
         11    1    4    4    0    0  0.19689511262E-01 -0.82453970694E-03 -0.13962063086E-01  0.24156925427E-01  0.51100000000E-03 0. -1.
</event>
<event>
 8    1  0.1103774E+005  0.1043930E+01  0.7957747E-01            NaN
         13   -1    0    0    0    0  0.00000000000E+00  0.00000000000E+00  0.74505805969E-08  0.10566000000E+00  0.10566000000E+00 0. -1.
     999900   -1    0    0    0    0 -0.00000000000E+00 -0.00000000000E+00 -0.74505805969E-08  0.93827000000E+00  0.93827000000E+00 0.  1.
     999902    2    1    2    0    0  0.18185139755E-01 -0.11972549018E-01  0.68041483669E-02  0.10211190887E+01  0.10208642690E+01 0.  0.
     999903    2    3    3    0    0  0.89813944004E-01  0.73626442889E-01  0.60836571351E-01  0.13242489175E+00  0.18651163807E-01 0.  0.
         14    1    1    2    0    0 -0.18185139755E-01  0.11972549018E-01 -0.68041483669E-02  0.22810911268E-01  0.00000000000E+00 0.  1.
     999901    1    3    3    0    0 -0.71628804249E-01 -0.85598991908E-01 -0.54032422984E-01  0.88869419698E+00  0.88000000000E+00 0. -1.
        -11    1    4    4    0    0  0.51850411960E-01  0.37760662278E-01  0.23891232103E-01  0.68449871647E-01  0.51100000000E-03 0.  1.
         11    1    4    4    0    0  0.37963532044E-01  0.35865780612E-01  0.36945339249E-01  0.63975020104E-01  0.51100000000E-03 0. -1.
</event>
<event>
 8    1  0.1103774E+005  0.1043930E+01  0.7957747E-01            NaN
         13   -1    0    0    0    0  0.00000000000E+00  0.00000000000E+00  0.74505805969E-08  0.10566000000E+00  0.10566000000E+00 0. -1.
     999900   -1    0    0    0    0 -0.00000000000E+00 -0.00000000000E+00 -0.74505805969E-08  0.93827000000E+00  0.93827000000E+00 0.  1.
     999902    2    1    2    0    0  0.57205391947E-02 -0.19817630175E-01 -0.11798572586E-01  0.10201672277E+01  0.10198904368E+01 0.  0.
     999903    2    3    3    0    0  0.36386038601E-01  0.17127122105E-01  0.12051409979E+00  0.12898153946E+00  0.22255497215E-01 0.  0.
         14    1    1    2    0    0 -0.57205391947E-02  0.19817630175E-01  0.11798572586E-01  0.23762772345E-01  0.00000000000E+00 0. -1.
     999901    1    3    3    0    0 -0.30665499406E-01 -0.36944752280E-01 -0.13231267238E+00  0.89118568820E+00  0.88000000000E+00 0.  1.
        -11    1    4    4    0    0  0.19137936676E-01 -0.30574621500E-02  0.52762363959E-01  0.56211536774E-01  0.51100000000E-03 0.  1.
         11    1    4    4    0    0  0.17248101925E-01  0.20184584255E-01  0.67751735831E-01  0.72770002684E-01  0.51100000000E-03 0. -1.
</event>
<event>
 8    1  0.1103774E+005  0.1043930E+01  0.7957747E-01            NaN
         13   -1    0    0    0    0  0.00000000000E+00  0.00000000000E+00  0.74505805969E-08  0.10566000000E+00  0.10566000000E+00 0.  1.
     999900   -1    0    0    0    0 -0.00000000000E+00 -0.00000000000E+00 -0.74505805969E-08  0.93827000000E+00  0.93827000000E+00 0. -1.
     999902    2    1    2    0    0  0.15567303162E-01 -0.14408989055E-01 -0.11455631599E-01  0.10198220887E+01  0.10195371014E+01 0.  0.
     999903    2    3    3    0    0 -0.89218425064E-01 -0.88671027536E-01 -0.27251323068E-01  0.13035910289E+00  0.20697405710E-01 0.  0.
         14    1    1    2    0    0 -0.15567303162E-01  0.14408989055E-01  0.11455631599E-01  0.24107911329E-01  0.00000000000E+00 0. -1.
     999901    1    3    3    0    0  0.10478572823E+00  0.74262038481E-01  0.15795691469E-01  0.88946298578E+00  0.88000000000E+00 0. -1.
        -11    1    4    4    0    0 -0.32490023109E-01 -0.19431958908E-01 -0.10534751078E-01  0.39299424040E-01  0.51100000000E-03 0. -1.
         11    1    4    4    0    0 -0.56728401955E-01 -0.69239068628E-01 -0.16716571990E-01  0.91059678853E-01  0.51100000000E-03 0.  1.
</event>
<event>
 8    1  0.1103774E+005  0.1043930E+01  0.7957747E-01            NaN
         13   -1    0    0    0    0  0.00000000000E+00  0.00000000000E+00  0.74505805969E-08  0.10566000000E+00  0.10566000000E+00 0. -1.
     999900   -1    0    0    0    0 -0.00000000000E+00 -0.00000000000E+00 -0.74505805969E-08  0.93827000000E+00  0.93827000000E+00 0. -1.
     999902    2    1    2    0    0  0.12343455699E-01 -0.26646083798E-02 -0.20122767121E-01  0.10201731738E+01  0.10198965230E+01 0.  0.
     999903    2    3    3    0    0 -0.32419865098E-01 -0.12403420391E+00 -0.16474265391E-01  0.13070836548E+00  0.19435637210E-01 0.  0.
         14    1    1    2    0    0 -0.12343455699E-01  0.26646083798E-02  0.20122767121E-01  0.23756826241E-01  0.00000000000E+00 0. -1.
     999901    1    3    3    0    0  0.44763320797E-01  0.12136959553E+00 -0.36485017305E-02  0.88946480828E+00  0.88000000000E+00 0.  1.
        -11    1    4    4    0    0 -0.25702784508E-01 -0.65564756933E-01 -0.39565955472E-02  0.70535709059E-01  0.51100000000E-03 0. -1.
         11    1    4    4    0    0 -0.67170805900E-02 -0.58469446974E-01 -0.12517669844E-01  0.60172656418E-01  0.51100000000E-03 0.  1.
</event>
<event>
 8    1  0.1103774E+005  0.1043930E+01  0.7957747E-01            NaN
         13   -1    0    0    0    0  0.00000000000E+00  0.00000000000E+00  0.74505805969E-08  0.10566000000E+00  0.10566000000E+00 0. -1.
     999900   -1    0    0    0    0 -0.00000000000E+00 -0.00000000000E+00 -0.74505805969E-08  0.93827000000E+00  0.93827000000E+00 0. -1.
     999902    2    1    2    0    0  0.11515797334E-01  0.23116737804E-01  0.35668666873E-03  0.10181012490E+01  0.10177735646E+01 0.  0.
     999903    2    3    3    0    0  0.91760375054E-01 -0.37279512381E-01  0.79898101447E-01  0.12882416281E+00  0.20055668394E-01 0.  0.
         14    1    1    2    0    0 -0.11515797334E-01 -0.23116737804E-01 -0.35668666873E-03  0.25828751040E-01  0.00000000000E+00 0.  1.
     999901    1    3    3    0    0 -0.80244577721E-01  0.60396250185E-01 -0.79541414779E-01  0.88927708615E+00  0.88000000000E+00 0. -1.
        -11    1    4    4    0    0  0.55274528541E-01 -0.31139831277E-01  0.57144496500E-01  0.85385696686E-01  0.51100000000E-03 0.  1.
         11    1    4    4    0    0  0.36485846514E-01 -0.61396811037E-02  0.22753604947E-01  0.43438466121E-01  0.51100000000E-03 0. -1.
</event>
<event>
 8    1  0.1103774E+005  0.1043930E+01  0.7957747E-01            NaN
         13   -1    0    0    0    0  0.00000000000E+00  0.00000000000E+00  0.74505805969E-08  0.10566000000E+00  0.10566000000E+00 0.  1.
     999900   -1    0    0    0    0 -0.00000000000E+00 -0.00000000000E+00 -0.74505805969E-08  0.93827000000E+00  0.93827000000E+00 0.  1.
     999902    2    1    2    0    0  0.20486063605E-01 -0.89243959655E-02  0.16584891062E-02  0.10215229870E+01  0.10212772095E+01 0.  0.
     999903    2    3    3    0    0 -0.12415476327E-01 -0.48907692486E-01 -0.12012198466E+00  0.13162880278E+00  0.18728162896E-01 0.  0.
         14    1    1    2    0    0 -0.20486063605E-01  0.89243959655E-02 -0.16584891062E-02  0.22407012998E-01  0.00000000000E+00 0. -1.
     999901    1    3    3    0    0  0.32901539932E-01  0.39983296521E-01  0.12178047376E+00  0.88989418423E+00  0.88000000000E+00 0. -1.
        -11    1    4    4    0    0 -0.17251123994E-01 -0.41459097798E-01 -0.98926761339E-01  0.10864264034E+00  0.51100000000E-03 0.  1.
         11    1    4    4    0    0  0.48356476662E-02 -0.74485946882E-02 -0.21195223318E-01  0.22986162439E-01  0.51100000000E-03 0. -1.
</event>
<event>
 8    1  0.1103774E+005  0.1043930E+01  0.7957747E-01            NaN
         13   -1    0    0    0    0  0.00000000000E+00  0.00000000000E+00  0.74505805969E-08  0.10566000000E+00  0.10566000000E+00 0.  1.
     999900   -1    0    0    0    0 -0.00000000000E+00 -0.00000000000E+00 -0.74505805969E-08  0.93827000000E+00  0.93827000000E+00 0. -1.
     999902    2    1    2    0    0  0.11669620768E-01 -0.19830252456E-01 -0.78228410455E-03  0.10209075994E+01  0.10206479783E+01 0.  0.
     999903    2    3    3    0    0 -0.12245270507E+00 -0.38679203803E-01 -0.12137199625E-01  0.13047342700E+00  0.19627983917E-01 0.  0.
         14    1    1    2    0    0 -0.11669620768E-01  0.19830252456E-01  0.78228410455E-03  0.23022400608E-01  0.00000000000E+00 0.  1.
     999901    1    3    3    0    0  0.13412232584E+00  0.18848951347E-01  0.11354915520E-01  0.89043417239E+00  0.88000000000E+00 0. -1.
        -11    1    4    4    0    0 -0.48097540150E-01 -0.20773676556E-01 -0.13011892866E-01  0.53986011921E-01  0.51100000000E-03 0.  1.
         11    1    4    4    0    0 -0.74355164921E-01 -0.17905527247E-01  0.87469324134E-03  0.76487415081E-01  0.51100000000E-03 0. -1.
</event>
<event>
 8    1  0.1103774E+005  0.1043930E+01  0.7957747E-01            NaN
         13   -1    0    0    0    0  0.00000000000E+00  0.00000000000E+00  0.74505805969E-08  0.10566000000E+00  0.10566000000E+00 0.  1.
     999900   -1    0    0    0    0 -0.00000000000E+00 -0.00000000000E+00 -0.74505805969E-08  0.93827000000E+00  0.93827000000E+00 0.  1.
     999902    2    1    2    0    0  0.15221895745E-02 -0.11113093187E-01  0.20937615637E-01  0.10201770707E+01  0.10199005118E+01 0.  0.
     999903    2    3    3    0    0 -0.84308122763E-02 -0.11951379019E+00 -0.50026415345E-01  0.13063467878E+00  0.14427488528E-01 0.  0.
         14    1    1    2    0    0 -0.15221895745E-02  0.11113093187E-01 -0.20937615637E-01  0.23752929290E-01  0.00000000000E+00 0. -1.
     999901    1    3    3    0    0  0.99530018508E-02  0.10840069700E+00  0.70964030982E-01  0.88954239194E+00  0.88000000000E+00 0. -1.
        -11    1    4    4    0    0 -0.10301219420E-01 -0.52633748522E-01 -0.25317055612E-01  0.59309704356E-01  0.51100000000E-03 0.  1.
         11    1    4    4    0    0  0.18704071437E-02 -0.66880041668E-01 -0.24709359733E-01  0.71324974419E-01  0.51100000000E-03 0. -1.
</event>
<event>
 8    1  0.1103774E+005  0.1043930E+01  0.7957747E-01            NaN
         13   -1    0    0    0    0  0.00000000000E+00  0.00000000000E+00  0.74505805969E-08  0.10566000000E+00  0.10566000000E+00 0. -1.
     999900   -1    0    0    0    0 -0.00000000000E+00 -0.00000000000E+00 -0.74505805969E-08  0.93827000000E+00  0.93827000000E+00 0. -1.
     999902    2    1    2    0    0 -0.12686585972E-01 -0.16635617111E-01  0.12480866667E-01  0.10195688577E+01  0.10192777788E+01 0.  0.
     999903    2    3    3    0    0  0.25324183214E-01 -0.12053792816E+00  0.43429599791E-01  0.13210148768E+00  0.19848590053E-01 0.  0.
         14    1    1    2    0    0  0.12686585972E-01  0.16635617111E-01 -0.12480866667E-01  0.24361142277E-01  0.00000000000E+00 0.  1.
     999901    1    3    3    0    0 -0.38010769185E-01  0.10390231105E+00 -0.30948733124E-01  0.88746737005E+00  0.88000000000E+00 0.  1.
        -11    1    4    4    0    0  0.14372234072E-01 -0.10342655100E+00  0.37089773217E-01  0.11081301802E+00  0.51100000000E-03 0. -1.
         11    1    4    4    0    0  0.10951949141E-01 -0.17111377162E-01  0.63398265745E-02  0.21288469658E-01  0.51100000000E-03 0.  1.
</event>
<event>
 8    1  0.1103774E+005  0.1043930E+01  0.7957747E-01            NaN
         13   -1    0    0    0    0  0.00000000000E+00  0.00000000000E+00  0.74505805969E-08  0.10566000000E+00  0.10566000000E+00 0.  1.
     999900   -1    0    0    0    0 -0.00000000000E+00 -0.00000000000E+00 -0.74505805969E-08  0.93827000000E+00  0.93827000000E+00 0. -1.
     999902    2    1    2    0    0 -0.92631507639E-02 -0.64480789174E-03  0.21212699760E-01  0.10207739993E+01  0.10205113214E+01 0.  0.
     999903    2    3    3    0    0  0.20369810301E-01  0.89711333901E-01 -0.89619992386E-01  0.12873911743E+00  0.88862095599E-02 0.  0.
         14    1    1    2    0    0  0.92631507639E-02  0.64480789174E-03 -0.21212699760E-01  0.23156000743E-01  0.00000000000E+00 0. -1.
     999901    1    3    3    0    0 -0.29632961065E-01 -0.90356141793E-01  0.11083269215E+00  0.89203488182E+00  0.88000000000E+00 0.  1.
        -11    1    4    4    0    0  0.16572997550E-02  0.14216619404E-01 -0.18040964906E-01  0.23034679192E-01  0.51100000000E-03 0. -1.
         11    1    4    4    0    0  0.18712510546E-01  0.75494714498E-01 -0.71579027480E-01  0.10570443824E+00  0.51100000000E-03 0.  1.
</event>
<event>
 8    1  0.1162283E+005  0.1043930E+01  0.7957747E-01            NaN
         13   -1    0    0    0    0  0.00000000000E+00  0.00000000000E+00  0.74505805969E-08  0.10566000000E+00  0.10566000000E+00 0. -1.
     999900   -1    0    0    0    0 -0.00000000000E+00 -0.00000000000E+00 -0.74505805969E-08  0.93827000000E+00  0.93827000000E+00 0. -1.
     999902    2    1    2    0    0  0.19860326763E-01  0.12540839637E-01 -0.10043740523E-02  0.10204201296E+01  0.10201492670E+01 0.  0.
     999903    2    3    3    0    0  0.12321386695E-01 -0.12684145775E+00  0.10002801604E-01  0.12935031285E+00  0.19770569579E-01 0.  0.
         14    1    1    2    0    0 -0.19860326763E-01 -0.12540839637E-01  0.10043740523E-02  0.23509870378E-01  0.00000000000E+00 0.  1.
     999901    1    3    3    0    0  0.75389400677E-02  0.13938229738E+00 -0.11007175656E-01  0.89106981677E+00  0.88000000000E+00 0. -1.
        -11    1    4    4    0    0  0.86082672574E-02 -0.69700906748E-01  0.15177683945E-01  0.71853614228E-01  0.51100000000E-03 0.  1.
         11    1    4    4    0    0  0.37131194380E-02 -0.57140551000E-01 -0.51748823410E-02  0.57496698625E-01  0.51100000000E-03 0. -1.
</event>
<event>
 8    1  0.1103774E+005  0.1043930E+01  0.7957747E-01            NaN
         13   -1    0    0    0    0  0.00000000000E+00  0.00000000000E+00  0.74505805969E-08  0.10566000000E+00  0.10566000000E+00 0. -1.
     999900   -1    0    0    0    0 -0.00000000000E+00 -0.00000000000E+00 -0.74505805969E-08  0.93827000000E+00  0.93827000000E+00 0. -1.
     999902    2    1    2    0    0  0.75389733264E-02 -0.78590227860E-02 -0.21117182983E-01  0.10201700384E+01  0.10198933138E+01 0.  0.
     999903    2    3    3    0    0 -0.68505794748E-01  0.98640787073E-01  0.40192058176E-01  0.12838315842E+00  0.21066206060E-01 0.  0.
         14    1    1    2    0    0 -0.75389733264E-02  0.78590227860E-02  0.21117182983E-01  0.23759961598E-01  0.00000000000E+00 0. -1.
     999901    1    3    3    0    0  0.76044768074E-01 -0.10649980986E+00 -0.61309241159E-01  0.89178687998E+00  0.88000000000E+00 0.  1.
        -11    1    4    4    0    0 -0.52079983121E-01  0.78572448611E-01  0.40108122279E-01  0.10244450652E+00  0.51100000000E-03 0. -1.
         11    1    4    4    0    0 -0.16425811627E-01  0.20068338463E-01  0.83935896495E-04  0.25938651902E-01  0.51100000000E-03 0.  1.
</event>
<event>
 8    1  0.1360344E+005  0.1043930E+01  0.7957747E-01            NaN
         13   -1    0    0    0    0  0.00000000000E+00  0.00000000000E+00  0.74505805969E-08  0.10566000000E+00  0.10566000000E+00 0.  1.
     999900   -1    0    0    0    0 -0.00000000000E+00 -0.00000000000E+00 -0.74505805969E-08  0.93827000000E+00  0.93827000000E+00 0.  1.
     999902    2    1    2    0    0 -0.19422745203E-01 -0.12748258146E-01 -0.46621263747E-03  0.10206925632E+01  0.10204280131E+01 0.  0.
     999903    2    3    3    0    0  0.70148838479E-01  0.51769873398E-01 -0.92892419130E-01  0.12899291554E+00  0.20228479843E-01 0.  0.
         14    1    1    2    0    0  0.19422745203E-01  0.12748258146E-01  0.46621263747E-03  0.23237436847E-01  0.00000000000E+00 0.  1.
     999901    1    3    3    0    0 -0.89571583682E-01 -0.64518131544E-01  0.92426206493E-01  0.89169964761E+00  0.88000000000E+00 0.  1.
        -11    1    4    4    0    0  0.37125395409E-01  0.15163626377E-01 -0.38799332523E-01  0.55802149371E-01  0.51100000000E-03 0. -1.
         11    1    4    4    0    0  0.33023443071E-01  0.36606247021E-01 -0.54093086607E-01  0.73190766172E-01  0.51100000000E-03 0.  1.
</event>
<event>
 8    1  0.1103774E+005  0.1043930E+01  0.7957747E-01            NaN
         13   -1    0    0    0    0  0.00000000000E+00  0.00000000000E+00  0.74505805969E-08  0.10566000000E+00  0.10566000000E+00 0.  1.
     999900   -1    0    0    0    0 -0.00000000000E+00 -0.00000000000E+00 -0.74505805969E-08  0.93827000000E+00  0.93827000000E+00 0.  1.
     999902    2    1    2    0    0 -0.10500351753E-01  0.17407979183E-01 -0.11900109125E-01  0.10203735206E+01  0.10201015703E+01 0.  0.
     999903    2    3    3    0    0 -0.12920071059E+00  0.14889742808E-01  0.12298333594E-01  0.13207082366E+00  0.19414566570E-01 0.  0.
         14    1    1    2    0    0  0.10500351753E-01 -0.17407979183E-01  0.11900109125E-01  0.23556479434E-01  0.00000000000E+00 0. -1.
     999901    1    3    3    0    0  0.11870035884E+00  0.25182363751E-02 -0.24198442718E-01  0.88830269691E+00  0.88000000000E+00 0. -1.
        -11    1    4    4    0    0 -0.71581868128E-01  0.20955642608E-03  0.12715463558E-02  0.71595291114E-01  0.51100000000E-03 0.  1.
         11    1    4    4    0    0 -0.57618842461E-01  0.14680186382E-01  0.11026787238E-01  0.60475532544E-01  0.51100000000E-03 0. -1.
</event>
<event>
 8    1  0.1103774E+005  0.1043930E+01  0.7957747E-01            NaN
         13   -1    0    0    0    0  0.00000000000E+00  0.00000000000E+00  0.74505805969E-08  0.10566000000E+00  0.10566000000E+00 0.  1.
     999900   -1    0    0    0    0 -0.00000000000E+00 -0.00000000000E+00 -0.74505805969E-08  0.93827000000E+00  0.93827000000E+00 0.  1.
     999902    2    1    2    0    0  0.15120401683E-01 -0.13606798412E-01  0.12157505308E-01  0.10202323958E+01  0.10199571388E+01 0.  0.
     999903    2    3    3    0    0 -0.51592946943E-01  0.63511226489E-01  0.99156029970E-01  0.13008263089E+00  0.19851058315E-01 0.  0.
         14    1    1    2    0    0 -0.15120401683E-01  0.13606798412E-01 -0.12157505308E-01  0.23697604212E-01  0.00000000000E+00 0. -1.
     999901    1    3    3    0    0  0.66713348625E-01 -0.77118024901E-01 -0.86998524663E-01  0.89014976490E+00  0.88000000000E+00 0. -1.
        -11    1    4    4    0    0 -0.49303338998E-01  0.60946435694E-01  0.85534249112E-01  0.11602437741E+00  0.51100000000E-03 0.  1.
         11    1    4    4    0    0 -0.22896079443E-02  0.25647907942E-02  0.13621780859E-01  0.14058253487E-01  0.51100000000E-03 0. -1.
</event>
<event>
 8    1  0.1103774E+005  0.1043930E+01  0.7957747E-01            NaN
         13   -1    0    0    0    0  0.00000000000E+00  0.00000000000E+00  0.74505805969E-08  0.10566000000E+00  0.10566000000E+00 0. -1.
     999900   -1    0    0    0    0 -0.00000000000E+00 -0.00000000000E+00 -0.74505805969E-08  0.93827000000E+00  0.93827000000E+00 0. -1.
     999902    2    1    2    0    0  0.10438601291E-01  0.67913405132E-02 -0.17332344655E-01  0.10225876273E+01  0.10223648852E+01 0.  0.
     999903    2    3    3    0    0 -0.63359415333E-01  0.28800061207E-01  0.10867535580E+00  0.13028248236E+00  0.17869896905E-01 0.  0.
         14    1    1    2    0    0 -0.10438601291E-01 -0.67913405132E-02  0.17332344655E-01  0.21342372739E-01  0.00000000000E+00 0. -1.
     999901    1    3    3    0    0  0.73798016624E-01 -0.22008720693E-01 -0.12600770045E+00  0.89230514490E+00  0.88000000000E+00 0. -1.
        -11    1    4    4    0    0 -0.47799260496E-01  0.13159452614E-01  0.79645325827E-01  0.93816733817E-01  0.51100000000E-03 0. -1.
         11    1    4    4    0    0 -0.15560154837E-01  0.15640608593E-01  0.29030029969E-01  0.36465748542E-01  0.51100000000E-03 0.  1.
</event>
<event>
 8    1  0.1103774E+005  0.1043930E+01  0.7957747E-01            NaN
         13   -1    0    0    0    0  0.00000000000E+00  0.00000000000E+00  0.74505805969E-08  0.10566000000E+00  0.10566000000E+00 0. -1.
     999900   -1    0    0    0    0 -0.00000000000E+00 -0.00000000000E+00 -0.74505805969E-08  0.93827000000E+00  0.93827000000E+00 0.  1.
     999902    2    1    2    0    0  0.21400019588E-02 -0.19716339775E-01  0.11834098524E-01  0.10208354216E+01  0.10205741514E+01 0.  0.
     999903    2    3    3    0    0  0.17320145832E-01 -0.11978902887E+00  0.51992051017E-01  0.13412372044E+00  0.25230935892E-01 0.  0.
         14    1    1    2    0    0 -0.21400019588E-02  0.19716339775E-01 -0.11834098524E-01  0.23094578377E-01  0.00000000000E+00 0.  1.
     999901    1    3    3    0    0 -0.15180143874E-01  0.10007268909E+00 -0.40157952492E-01  0.88671170119E+00  0.88000000000E+00 0. -1.
        -11    1    4    4    0    0  0.16860904185E-01 -0.70133034573E-01  0.41993452416E-01  0.83466423160E-01  0.51100000000E-03 0.  1.
         11    1    4    4    0    0  0.45924164708E-03 -0.49655994297E-01  0.99985986005E-02  0.50657297278E-01  0.51100000000E-03 0. -1.
</event>
<event>
 8    1  0.1103774E+005  0.1043930E+01  0.7957747E-01            NaN
         13   -1    0    0    0    0  0.00000000000E+00  0.00000000000E+00  0.74505805969E-08  0.10566000000E+00  0.10566000000E+00 0.  1.
     999900   -1    0    0    0    0 -0.00000000000E+00 -0.00000000000E+00 -0.74505805969E-08  0.93827000000E+00  0.93827000000E+00 0.  1.
     999902    2    1    2    0    0  0.10476501271E-01  0.18819118331E-01 -0.10687007794E-01  0.10198856986E+01  0.10196022312E+01 0.  0.
     999903    2    3    3    0    0  0.91990684913E-01  0.94006000686E-01 -0.46177646949E-02  0.13290516606E+00  0.18521477783E-01 0.  0.
         14    1    1    2    0    0 -0.10476501271E-01 -0.18819118331E-01  0.10687007794E-01  0.24044301388E-01  0.00000000000E+00 0.  1.
     999901    1    3    3    0    0 -0.81514183642E-01 -0.75186882355E-01 -0.60692430991E-02  0.88698053255E+00  0.88000000000E+00 0.  1.
        -11    1    4    4    0    0  0.79424842014E-01  0.75404366264E-01 -0.94878571515E-02  0.10992908867E+00  0.51100000000E-03 0.  1.
         11    1    4    4    0    0  0.12565842898E-01  0.18601634422E-01  0.48700924566E-02  0.22976077395E-01  0.51100000000E-03 0. -1.
</event>
<event>
 8    1  0.1103774E+005  0.1043930E+01  0.7957747E-01            NaN
         13   -1    0    0    0    0  0.00000000000E+00  0.00000000000E+00  0.74505805969E-08  0.10566000000E+00  0.10566000000E+00 0.  1.
     999900   -1    0    0    0    0 -0.00000000000E+00 -0.00000000000E+00 -0.74505805969E-08  0.93827000000E+00  0.93827000000E+00 0.  1.
     999902    2    1    2    0    0  0.91983517540E-02  0.66604325529E-02  0.20322118443E-01  0.10206499756E+01  0.10203844438E+01 0.  0.
     999903    2    3    3    0    0 -0.11157147220E+00 -0.23460074282E-01  0.61094897536E-01  0.13095619976E+00  0.20454125637E-01 0.  0.
         14    1    1    2    0    0 -0.91983517540E-02 -0.66604325529E-02 -0.20322118443E-01  0.23280024373E-01  0.00000000000E+00 0. -1.
     999901    1    3    3    0    0  0.12076982395E+00  0.30120506835E-01 -0.40772779093E-01  0.88969377587E+00  0.88000000000E+00 0.  1.
        -11    1    4    4    0    0 -0.39009746457E-01  0.10819748257E-02  0.24312091412E-01  0.45981190698E-01  0.51100000000E-03 0. -1.
         11    1    4    4    0    0 -0.72561725742E-01 -0.24542049107E-01  0.36782806124E-01  0.84975009058E-01  0.51100000000E-03 0.  1.
</event>
<event>
 8    1  0.1103774E+005  0.1043930E+01  0.7957747E-01            NaN
         13   -1    0    0    0    0  0.00000000000E+00  0.00000000000E+00  0.74505805969E-08  0.10566000000E+00  0.10566000000E+00 0.  1.
     999900   -1    0    0    0    0 -0.00000000000E+00 -0.00000000000E+00 -0.74505805969E-08  0.93827000000E+00  0.93827000000E+00 0.  1.
     999902    2    1    2    0    0  0.19212799496E-01  0.82625375216E-03 -0.13794076753E-01  0.10202637601E+01  0.10199892397E+01 0.  0.
     999903    2    3    3    0    0  0.64416378217E-01  0.32662700907E-01 -0.11048310613E+00  0.13324307749E+00  0.18190083720E-01 0.  0.
         14    1    1    2    0    0 -0.19212799496E-01 -0.82625375216E-03  0.13794076753E-01  0.23666239946E-01  0.00000000000E+00 0.  1.
     999901    1    3    3    0    0 -0.45203578721E-01 -0.31836447155E-01  0.96689029376E-01  0.88702068257E+00  0.88000000000E+00 0. -1.
        -11    1    4    4    0    0  0.47608320579E-02  0.28479391831E-02 -0.20471664448E-01  0.21216183581E-01  0.51100000000E-03 0. -1.
         11    1    4    4    0    0  0.59655546159E-01  0.29814761724E-01 -0.90011441681E-01  0.11202689391E+00  0.51100000000E-03 0.  1.
</event>
<event>
 8    1  0.1103774E+005  0.1043930E+01  0.7957747E-01            NaN
         13   -1    0    0    0    0  0.00000000000E+00  0.00000000000E+00  0.74505805969E-08  0.10566000000E+00  0.10566000000E+00 0. -1.
     999900   -1    0    0    0    0 -0.00000000000E+00 -0.00000000000E+00 -0.74505805969E-08  0.93827000000E+00  0.93827000000E+00 0.  1.
     999902    2    1    2    0    0  0.20628038311E-01 -0.16589652045E-01  0.11418415670E-01  0.10151009741E+01  0.10146915171E+01 0.  0.
     999903    2    3    3    0    0 -0.94500792916E-01 -0.73747142061E-02 -0.76571707456E-01  0.12320309616E+00  0.18193137413E-01 0.  0.
         14    1    1    2    0    0 -0.20628038311E-01  0.16589652045E-01 -0.11418415670E-01  0.28829025928E-01  0.00000000000E+00 0. -1.
     999901    1    3    3    0    0  0.11512883123E+00 -0.92149378390E-02  0.87990123126E-01  0.89189787791E+00  0.88000000000E+00 0. -1.
        -11    1    4    4    0    0 -0.10789205979E-01 -0.34551139151E-02 -0.31114460813E-02  0.11759549121E-01  0.51100000000E-03 0.  1.
         11    1    4    4    0    0 -0.83711586937E-01 -0.39196002911E-02 -0.73460261375E-01  0.11144354704E+00  0.51100000000E-03 0. -1.
</event>
<event>
 8    1  0.1103774E+005  0.1043930E+01  0.7957747E-01            NaN
         13   -1    0    0    0    0  0.00000000000E+00  0.00000000000E+00  0.74505805969E-08  0.10566000000E+00  0.10566000000E+00 0.  1.
     999900   -1    0    0    0    0 -0.00000000000E+00 -0.00000000000E+00 -0.74505805969E-08  0.93827000000E+00  0.93827000000E+00 0. -1.
     999902    2    1    2    0    0  0.14917465857E-01  0.15694058146E-01 -0.89145090194E-02  0.10205141353E+01  0.10202454595E+01 0.  0.
     999903    2    3    3    0    0 -0.70258138711E-01  0.10814509222E+00  0.14893983617E-01  0.13126224655E+00  0.19400505023E-01 0.  0.
         14    1    1    2    0    0 -0.14917465857E-01 -0.15694058146E-01  0.89145090194E-02  0.23415864702E-01  0.00000000000E+00 0.  1.
     999901    1    3    3    0    0  0.85175604568E-01 -0.92451034077E-01 -0.23808492636E-01  0.88925188875E+00  0.88000000000E+00 0. -1.
        -11    1    4    4    0    0 -0.24260722664E-01  0.54076422075E-01  0.99547163370E-02  0.60101577242E-01  0.51100000000E-03 0. -1.
         11    1    4    4    0    0 -0.45997416047E-01  0.54068670148E-01  0.49392672797E-02  0.71160669311E-01  0.51100000000E-03 0.  1.
</event>
<event>
 8    1  0.1103774E+005  0.1043930E+01  0.7957747E-01            NaN
         13   -1    0    0    0    0  0.00000000000E+00  0.00000000000E+00  0.74505805969E-08  0.10566000000E+00  0.10566000000E+00 0. -1.
     999900   -1    0    0    0    0 -0.00000000000E+00 -0.00000000000E+00 -0.74505805969E-08  0.93827000000E+00  0.93827000000E+00 0. -1.
     999902    2    1    2    0    0  0.62860314681E-02 -0.18699876827E-01 -0.91359196551E-02  0.10221891488E+01  0.10219579205E+01 0.  0.
     999903    2    3    3    0    0  0.10032120394E+00 -0.11489356993E-01  0.82951804447E-01  0.13237188988E+00  0.21094219270E-01 0.  0.
         14    1    1    2    0    0 -0.62860314681E-02  0.18699876827E-01  0.91359196551E-02  0.21740851246E-01  0.00000000000E+00 0. -1.
     999901    1    3    3    0    0 -0.94035172467E-01 -0.72105198342E-02 -0.92087724102E-01  0.88981725887E+00  0.88000000000E+00 0. -1.
        -11    1    4    4    0    0  0.32260193615E-01 -0.13712714530E-01  0.28294266204E-01  0.45050918447E-01  0.51100000000E-03 0.  1.
         11    1    4    4    0    0  0.68061010320E-01  0.22233575370E-02  0.54657538243E-01  0.87320971435E-01  0.51100000000E-03 0. -1.
</event>
<event>
 8    1  0.1103774E+005  0.1043930E+01  0.7957747E-01            NaN
         13   -1    0    0    0    0  0.00000000000E+00  0.00000000000E+00  0.74505805969E-08  0.10566000000E+00  0.10566000000E+00 0.  1.
     999900   -1    0    0    0    0 -0.00000000000E+00 -0.00000000000E+00 -0.74505805969E-08  0.93827000000E+00  0.93827000000E+00 0.  1.
     999902    2    1    2    0    0 -0.12496434909E-01  0.54111441534E-02  0.18927968760E-01  0.10206124236E+01  0.10203460246E+01 0.  0.
     999903    2    3    3    0    0  0.74304374608E-01 -0.99842217036E-01  0.31591823204E-01  0.13000980529E+00  0.20369040001E-01 0.  0.
         14    1    1    2    0    0  0.12496434909E-01 -0.54111441534E-02 -0.18927968760E-01  0.23317576372E-01  0.00000000000E+00 0. -1.
     999901    1    3    3    0    0 -0.86800809517E-01  0.10525336119E+00 -0.12663854443E-01  0.89060261833E+00  0.88000000000E+00 0.  1.
        -11    1    4    4    0    0  0.58742190462E-01 -0.63482604656E-01  0.19701264204E-01  0.88707874320E-01  0.51100000000E-03 0. -1.
         11    1    4    4    0    0  0.15562184147E-01 -0.36359612379E-01  0.11890559000E-01  0.41301930973E-01  0.51100000000E-03 0.  1.
</event>
<event>
 8    1  0.1103774E+005  0.1043930E+01  0.7957747E-01            NaN
         13   -1    0    0    0    0  0.00000000000E+00  0.00000000000E+00  0.74505805969E-08  0.10566000000E+00  0.10566000000E+00 0. -1.
     999900   -1    0    0    0    0 -0.00000000000E+00 -0.00000000000E+00 -0.74505805969E-08  0.93827000000E+00  0.93827000000E+00 0. -1.
     999902    2    1    2    0    0 -0.24886067979E-01  0.16628764210E-01 -0.12784595153E-01  0.10113834479E+01  0.10108596345E+01 0.  0.
     999903    2    3    3    0    0  0.68275344400E-01  0.45706379208E-01  0.86261820962E-01  0.12046552298E+00  0.17895382572E-01 0.  0.
         14    1    1    2    0    0  0.24886067979E-01 -0.16628764210E-01  0.12784595153E-01  0.32546552073E-01  0.00000000000E+00 0. -1.
     999901    1    3    3    0    0 -0.93161412379E-01 -0.29077614998E-01 -0.99046416116E-01  0.89091792495E+00  0.88000000000E+00 0. -1.
        -11    1    4    4    0    0  0.15027931061E-01  0.19435110324E-01  0.28443665355E-01  0.37588102441E-01  0.51100000000E-03 0.  1.
         11    1    4    4    0    0  0.53247413338E-01  0.26271268884E-01  0.57818155607E-01  0.82877420537E-01  0.51100000000E-03 0. -1.
</event>
<event>
 8    1  0.1103774E+005  0.1043930E+01  0.7957747E-01            NaN
         13   -1    0    0    0    0  0.00000000000E+00  0.00000000000E+00  0.74505805969E-08  0.10566000000E+00  0.10566000000E+00 0. -1.
     999900   -1    0    0    0    0 -0.00000000000E+00 -0.00000000000E+00 -0.74505805969E-08  0.93827000000E+00  0.93827000000E+00 0.  1.
     999902    2    1    2    0    0  0.15955716419E-02  0.50334819373E-02  0.23101661035E-01  0.10202325628E+01  0.10199573097E+01 0.  0.
     999903    2    3    3    0    0  0.12083755323E+00  0.73225740439E-02  0.48267123254E-01  0.13183108223E+00  0.19859121166E-01 0.  0.
         14    1    1    2    0    0 -0.15955716419E-02 -0.50334819373E-02 -0.23101661035E-01  0.23697437242E-01  0.00000000000E+00 0.  1.
     999901    1    3    3    0    0 -0.11924198159E+00 -0.22890921066E-02 -0.25165462219E-01  0.88840148053E+00  0.88000000000E+00 0. -1.
        -11    1    4    4    0    0  0.46315732310E-02  0.41596349574E-02  0.94092367388E-03  0.63166836182E-02  0.51100000000E-03 0.  1.
         11    1    4    4    0    0  0.11620598000E+00  0.31629390864E-02  0.47326199580E-01  0.12551439861E+00  0.51100000000E-03 0. -1.
</event>
<event>
 8    1  0.1103774E+005  0.1043930E+01  0.7957747E-01            NaN
         13   -1    0    0    0    0  0.00000000000E+00  0.00000000000E+00  0.74505805969E-08  0.10566000000E+00  0.10566000000E+00 0. -1.
     999900   -1    0    0    0    0 -0.00000000000E+00 -0.00000000000E+00 -0.74505805969E-08  0.93827000000E+00  0.93827000000E+00 0.  1.
     999902    2    1    2    0    0 -0.34614719748E-02  0.60558653905E-03  0.23266403346E-01  0.10203997206E+01  0.10201283820E+01 0.  0.
     999903    2    3    3    0    0  0.12018704540E+00 -0.19596118805E-01  0.44761967476E-01  0.13126580268E+00  0.19953532680E-01 0.  0.
         14    1    1    2    0    0  0.34614719748E-02 -0.60558653905E-03 -0.23266403346E-01  0.23530279385E-01  0.00000000000E+00 0.  1.
     999901    1    3    3    0    0 -0.12364851737E+00  0.20201705344E-01 -0.21495564129E-01  0.88913391794E+00  0.88000000000E+00 0.  1.
        -11    1    4    4    0    0  0.82072482739E-01 -0.20718115794E-01  0.24714052523E-01  0.88182641478E-01  0.51100000000E-03 0. -1.
         11    1    4    4    0    0  0.38114562660E-01  0.11219969887E-02  0.20047914952E-01  0.43083161200E-01  0.51100000000E-03 0.  1.
</event>
<event>
 8    1  0.1103774E+005  0.1043930E+01  0.7957747E-01            NaN
         13   -1    0    0    0    0  0.00000000000E+00  0.00000000000E+00  0.74505805969E-08  0.10566000000E+00  0.10566000000E+00 0.  1.
     999900   -1    0    0    0    0 -0.00000000000E+00 -0.00000000000E+00 -0.74505805969E-08  0.93827000000E+00  0.93827000000E+00 0. -1.
     999902    2    1    2    0    0  0.21457295909E-01  0.90198739779E-02 -0.11224209606E-02  0.10206269207E+01  0.10203608567E+01 0.  0.
     999903    2    3    3    0    0 -0.44467575224E-01 -0.73058972456E-01  0.94698040511E-01  0.12918730612E+00  0.20165874251E-01 0.  0.
         14    1    1    2    0    0 -0.21457295909E-01 -0.90198739779E-02  0.11224209606E-02  0.23303079263E-01  0.00000000000E+00 0.  1.
     999901    1    3    3    0    0  0.65924871133E-01  0.82078846434E-01 -0.95820461472E-01  0.89143961461E+00  0.88000000000E+00 0. -1.
        -11    1    4    4    0    0 -0.45211617968E-01 -0.73902737467E-01  0.93406545431E-01  0.12739995626E+00  0.51100000000E-03 0. -1.
         11    1    4    4    0    0  0.74404274394E-03  0.84376501099E-03  0.12914950800E-02  0.17873498651E-02  0.51100000000E-03 0.  1.
</event>
<event>
 8    1  0.1103774E+005  0.1043930E+01  0.7957747E-01            NaN
         13   -1    0    0    0    0  0.00000000000E+00  0.00000000000E+00  0.74505805969E-08  0.10566000000E+00  0.10566000000E+00 0.  1.
     999900   -1    0    0    0    0 -0.00000000000E+00 -0.00000000000E+00 -0.74505805969E-08  0.93827000000E+00  0.93827000000E+00 0. -1.
     999902    2    1    2    0    0  0.75673863376E-02  0.22177640105E-01 -0.39012798132E-02  0.10201743051E+01  0.10198976810E+01 0.  0.
     999903    2    3    3    0    0  0.27308807195E-02 -0.61614499565E-01 -0.11219030518E+00  0.12957280752E+00  0.19966061362E-01 0.  0.
         14    1    1    2    0    0 -0.75673863376E-02 -0.22177640105E-01  0.39012798132E-02  0.23755694913E-01  0.00000000000E+00 0. -1.
     999901    1    3    3    0    0  0.48365056180E-02  0.83792139671E-01  0.10828902536E+00  0.89060149757E+00  0.88000000000E+00 0.  1.
        -11    1    4    4    0    0  0.31526979591E-02 -0.14371075533E-01 -0.45642152104E-01  0.47957632198E-01  0.51100000000E-03 0. -1.
         11    1    4    4    0    0 -0.42181723954E-03 -0.47243424033E-01 -0.66548153073E-01  0.81615175320E-01  0.51100000000E-03 0.  1.
</event>
<event>
 7    1  0.1103774E+005  0.1043930E+01  0.7957747E-01            NaN
         13   -1    0    0    0    0  0.00000000000E+00  0.00000000000E+00  0.74505805969E-08  0.10566000000E+00  0.10566000000E+00 0. -1.
     999900   -1    0    0    0    0 -0.00000000000E+00 -0.00000000000E+00 -0.74505805969E-08  0.93827000000E+00  0.93827000000E+00 0. -1.
     999903    2    1    2    0    0  0.34776577068E-01 -0.13724256907E-01 -0.90223475475E-01  0.99678121446E-01  0.19942086854E-01 0.  0.
         14    1    1    2    0    0 -0.37540689591E-01  0.38980979487E-01 -0.18508387906E-01  0.57195983771E-01  0.00000000000E+00 0.  1.
     999901    1    1    2    0    0  0.27641125229E-02 -0.25256722580E-01  0.10873186338E+00  0.88705589478E+00  0.88000000000E+00 0.  1.
        -11    1    3    3    0    0  0.14817252946E-01 -0.16062189642E-01 -0.40038706312E-01  0.45616927177E-01  0.51100000000E-03 0.  1.
         11    1    3    3    0    0  0.19959324122E-01  0.23379327344E-02 -0.50184769163E-01  0.54061194270E-01  0.51100000000E-03 0. -1.
</event>
<event>
 8    1  0.1103774E+005  0.1043930E+01  0.7957747E-01            NaN
         13   -1    0    0    0    0  0.00000000000E+00  0.00000000000E+00  0.74505805969E-08  0.10566000000E+00  0.10566000000E+00 0. -1.
     999900   -1    0    0    0    0 -0.00000000000E+00 -0.00000000000E+00 -0.74505805969E-08  0.93827000000E+00  0.93827000000E+00 0. -1.
     999902    2    1    2    0    0 -0.17654064712E-01  0.32324087558E-03 -0.13115483822E-01  0.10219348550E+01  0.10216981264E+01 0.  0.
     999903    2    3    3    0    0 -0.72741173130E-01  0.29516983846E-01 -0.10751826859E+00  0.13469263901E+00  0.20479216767E-01 0.  0.
         14    1    1    2    0    0  0.17654064712E-01 -0.32324087558E-03  0.13115483822E-01  0.21995144951E-01  0.00000000000E+00 0. -1.
     999901    1    3    3    0    0  0.55087108418E-01 -0.29193742970E-01  0.94402784771E-01  0.88724221604E+00  0.88000000000E+00 0.  1.
        -11    1    4    4    0    0 -0.19488111148E-01  0.15883178344E-02 -0.16427365182E-01  0.25542683443E-01  0.51100000000E-03 0. -1.
         11    1    4    4    0    0 -0.53253061982E-01  0.27928666012E-01 -0.91090903412E-01  0.10914995557E+00  0.51100000000E-03 0.  1.
</event>
<event>
 8    1  0.1103774E+005  0.1043930E+01  0.7957747E-01            NaN
         13   -1    0    0    0    0  0.00000000000E+00  0.00000000000E+00  0.74505805969E-08  0.10566000000E+00  0.10566000000E+00 0. -1.
     999900   -1    0    0    0    0 -0.00000000000E+00 -0.00000000000E+00 -0.74505805969E-08  0.93827000000E+00  0.93827000000E+00 0.  1.
     999902    2    1    2    0    0 -0.22297715610E-01 -0.87141734039E-02  0.10921278619E-02  0.10199650739E+01  0.10196834971E+01 0.  0.
     999903    2    3    3    0    0 -0.87194467961E-01 -0.55699157432E-01 -0.80701539645E-01  0.13254782073E+00  0.18732722627E-01 0.  0.
         14    1    1    2    0    0  0.22297715610E-01  0.87141734039E-02 -0.10921278619E-02  0.23964926096E-01  0.00000000000E+00 0. -1.
     999901    1    3    3    0    0  0.64896752351E-01  0.46984984028E-01  0.81793667507E-01  0.88741725318E+00  0.88000000000E+00 0. -1.
        -11    1    4    4    0    0 -0.60532027150E-01 -0.48290825441E-01 -0.57938014061E-01  0.96711967859E-01  0.51100000000E-03 0.  1.
         11    1    4    4    0    0 -0.26662440810E-01 -0.74083319907E-02 -0.22763525584E-01  0.35835852869E-01  0.51100000000E-03 0. -1.
</event>
<event>
 8    1  0.1103774E+005  0.1043930E+01  0.7957747E-01            NaN
         13   -1    0    0    0    0  0.00000000000E+00  0.00000000000E+00  0.74505805969E-08  0.10566000000E+00  0.10566000000E+00 0.  1.
     999900   -1    0    0    0    0 -0.00000000000E+00 -0.00000000000E+00 -0.74505805969E-08  0.93827000000E+00  0.93827000000E+00 0.  1.
     999902    2    1    2    0    0 -0.22382735150E-01 -0.13739783306E-02 -0.61930594933E-02  0.10206656789E+01  0.10204005094E+01 0.  0.
     999903    2    3    3    0    0  0.97822085023E-01  0.79968172364E-01 -0.15130031340E-01  0.12873204141E+00  0.19466682476E-01 0.  0.
         14    1    1    2    0    0  0.22382735150E-01  0.13739783306E-02  0.61930594933E-02  0.23264321076E-01  0.00000000000E+00 0. -1.
     999901    1    3    3    0    0 -0.12020482017E+00 -0.81342150694E-01  0.89369718467E-02  0.89193363752E+00  0.88000000000E+00 0. -1.
        -11    1    4    4    0    0  0.72184459314E-01  0.66112696953E-01 -0.17694663668E-01  0.99472846085E-01  0.51100000000E-03 0. -1.
         11    1    4    4    0    0  0.25637625708E-01  0.13855475411E-01  0.25646323281E-02  0.29259195321E-01  0.51100000000E-03 0.  1.
</event>
<event>
 8    1  0.1103774E+005  0.1043930E+01  0.7957747E-01            NaN
         13   -1    0    0    0    0  0.00000000000E+00  0.00000000000E+00  0.74505805969E-08  0.10566000000E+00  0.10566000000E+00 0. -1.
     999900   -1    0    0    0    0 -0.00000000000E+00 -0.00000000000E+00 -0.74505805969E-08  0.93827000000E+00  0.93827000000E+00 0.  1.
     999902    2    1    2    0    0 -0.29189096855E-01 -0.66957078736E-02 -0.17425672111E-01  0.10092819131E+01  0.10086870130E+01 0.  0.
     999903    2    3    3    0    0 -0.92631994479E-01  0.72426823555E-01 -0.30982973854E-01  0.12335348669E+00  0.20731783304E-01 0.  0.
         14    1    1    2    0    0  0.29189096855E-01  0.66957078736E-02  0.17425672111E-01  0.34648086927E-01  0.00000000000E+00 0. -1.
     999901    1    3    3    0    0  0.63442897624E-01 -0.79122531429E-01  0.13557301743E-01  0.88592842638E+00  0.88000000000E+00 0. -1.
        -11    1    4    4    0    0 -0.64625906943E-01  0.54807181809E-01 -0.13118839128E-01  0.85747886779E-01  0.51100000000E-03 0.  1.
         11    1    4    4    0    0 -0.28006087536E-01  0.17619641746E-01 -0.17864134726E-01  0.37605599913E-01  0.51100000000E-03 0. -1.
</event>
<event>
 8    1  0.1103774E+005  0.1043930E+01  0.7957747E-01            NaN
         13   -1    0    0    0    0  0.00000000000E+00  0.00000000000E+00  0.74505805969E-08  0.10566000000E+00  0.10566000000E+00 0.  1.
     999900   -1    0    0    0    0 -0.00000000000E+00 -0.00000000000E+00 -0.74505805969E-08  0.93827000000E+00  0.93827000000E+00 0. -1.
     999902    2    1    2    0    0 -0.19778896619E-02  0.19798862181E-01 -0.12405728138E-01  0.10204819919E+01  0.10202125694E+01 0.  0.
     999903    2    3    3    0    0 -0.67615410789E-02  0.45879844673E-01 -0.12304256358E+00  0.13315814445E+00  0.20998580805E-01 0.  0.
         14    1    1    2    0    0  0.19778896619E-02 -0.19798862181E-01  0.12405728138E-01  0.23448008056E-01  0.00000000000E+00 0. -1.
     999901    1    3    3    0    0  0.47836514170E-02 -0.26080982492E-01  0.11063683545E+00  0.88732384749E+00  0.88000000000E+00 0.  1.
        -11    1    4    4    0    0  0.57780703953E-03  0.13166801470E-01 -0.14718834305E-01  0.19763697180E-01  0.51100000000E-03 0.  1.
         11    1    4    4    0    0 -0.73393481185E-02  0.32713043203E-01 -0.10832372928E+00  0.11339444727E+00  0.51100000000E-03 0. -1.
</event>
<event>
 8    1  0.1103774E+005  0.1043930E+01  0.7957747E-01            NaN
         13   -1    0    0    0    0  0.00000000000E+00  0.00000000000E+00  0.74505805969E-08  0.10566000000E+00  0.10566000000E+00 0. -1.
     999900   -1    0    0    0    0 -0.00000000000E+00 -0.00000000000E+00 -0.74505805969E-08  0.93827000000E+00  0.93827000000E+00 0. -1.
     999902    2    1    2    0    0  0.16715334127E-01  0.15726091408E-01 -0.56989873138E-02  0.10202827845E+01  0.10200087105E+01 0.  0.
     999903    2    3    3    0    0  0.11812572126E+00 -0.35833775481E-01 -0.42000671859E-01  0.13221730333E+00  0.21900077033E-01 0.  0.
         14    1    1    2    0    0 -0.16715334127E-01 -0.15726091408E-01  0.56989873138E-02  0.23647215531E-01  0.00000000000E+00 0. -1.
     999901    1    3    3    0    0 -0.10141038713E+00  0.51559866888E-01  0.36301684545E-01  0.88806548114E+00  0.88000000000E+00 0. -1.
        -11    1    4    4    0    0  0.45960238136E-01 -0.20702051238E-01 -0.80834601928E-02  0.51054107226E-01  0.51100000000E-03 0.  1.
         11    1    4    4    0    0  0.72165483126E-01 -0.15131724243E-01 -0.33917211666E-01  0.81163196103E-01  0.51100000000E-03 0. -1.
</event>
<event>
 8    1  0.1103774E+005  0.1043930E+01  0.7957747E-01            NaN
         13   -1    0    0    0    0  0.00000000000E+00  0.00000000000E+00  0.74505805969E-08  0.10566000000E+00  0.10566000000E+00 0. -1.
     999900   -1    0    0    0    0 -0.00000000000E+00 -0.00000000000E+00 -0.74505805969E-08  0.93827000000E+00  0.93827000000E+00 0.  1.
     999902    2    1    2    0    0  0.18277590771E-01 -0.10421199785E-01 -0.12206030903E-01  0.10196059600E+01  0.10193157778E+01 0.  0.
     999903    2    3    3    0    0 -0.51236791463E-01  0.95274024396E-01  0.63517369151E-01  0.12734043731E+00  0.21881093787E-01 0.  0.
         14    1    1    2    0    0 -0.18277590771E-01  0.10421199785E-01  0.12206030903E-01  0.24324039955E-01  0.00000000000E+00 0. -1.
     999901    1    3    3    0    0  0.69514382234E-01 -0.10569522418E+00 -0.75723400054E-01  0.89226552274E+00  0.88000000000E+00 0. -1.
        -11    1    4    4    0    0 -0.53435007295E-01  0.91352679478E-01  0.60575442026E-01  0.12194366466E+00  0.51100000000E-03 0.  1.
         11    1    4    4    0    0  0.21982158319E-02  0.39213449181E-02  0.29419271251E-02  0.53967726485E-02  0.51100000000E-03 0. -1.
</event>
<event>
 8    1  0.1103774E+005  0.1043930E+01  0.7957747E-01            NaN
         13   -1    0    0    0    0  0.00000000000E+00  0.00000000000E+00  0.74505805969E-08  0.10566000000E+00  0.10566000000E+00 0.  1.
     999900   -1    0    0    0    0 -0.00000000000E+00 -0.00000000000E+00 -0.74505805969E-08  0.93827000000E+00  0.93827000000E+00 0. -1.
     999902    2    1    2    0    0 -0.24190486411E-01  0.42965441708E-02 -0.45084069137E-02  0.10189506954E+01  0.10186444689E+01 0.  0.
     999903    2    3    3    0    0  0.58799487954E-01 -0.10053804029E+00 -0.48835924347E-01  0.12774782584E+00  0.19216715883E-01 0.  0.
         14    1    1    2    0    0  0.24190486411E-01 -0.42965441708E-02  0.45084069137E-02  0.24979304584E-01  0.00000000000E+00 0. -1.
     999901    1    3    3    0    0 -0.82989974365E-01  0.10483458446E+00  0.44327517434E-01  0.89120286958E+00  0.88000000000E+00 0.  1.
        -11    1    4    4    0    0  0.25192919354E-01 -0.42373071205E-01 -0.10512787941E-01  0.50407739289E-01  0.51100000000E-03 0.  1.
         11    1    4    4    0    0  0.33606568601E-01 -0.58164969088E-01 -0.38323136407E-01  0.77340086548E-01  0.51100000000E-03 0. -1.
</event>
<event>
 8    1  0.1103774E+005  0.1043930E+01  0.7957747E-01            NaN
         13   -1    0    0    0    0  0.00000000000E+00  0.00000000000E+00  0.74505805969E-08  0.10566000000E+00  0.10566000000E+00 0.  1.
     999900   -1    0    0    0    0 -0.00000000000E+00 -0.00000000000E+00 -0.74505805969E-08  0.93827000000E+00  0.93827000000E+00 0.  1.
     999902    2    1    2    0    0  0.17839034621E-01  0.71304692107E-02 -0.14429132157E-01  0.10199034605E+01  0.10196204167E+01 0.  0.
     999903    2    3    3    0    0 -0.36368434041E-01 -0.11564724388E+00 -0.40373052305E-01  0.12934975434E+00  0.20110385019E-01 0.  0.
         14    1    1    2    0    0 -0.17839034621E-01 -0.71304692107E-02  0.14429132157E-01  0.24026539538E-01  0.00000000000E+00 0.  1.
     999901    1    3    3    0    0  0.54207468663E-01  0.12277771309E+00  0.25943920148E-01  0.89055370612E+00  0.88000000000E+00 0.  1.
        -11    1    4    4    0    0 -0.14009536702E-01 -0.74583713645E-01 -0.21045968615E-01  0.78753992760E-01  0.51100000000E-03 0. -1.
         11    1    4    4    0    0 -0.22358897340E-01 -0.41063530230E-01 -0.19327083690E-01  0.50595761583E-01  0.51100000000E-03 0.  1.
</event>
<event>
 8    1  0.1103774E+005  0.1043930E+01  0.7957747E-01            NaN
         13   -1    0    0    0    0  0.00000000000E+00  0.00000000000E+00  0.74505805969E-08  0.10566000000E+00  0.10566000000E+00 0.  1.
     999900   -1    0    0    0    0 -0.00000000000E+00 -0.00000000000E+00 -0.74505805969E-08  0.93827000000E+00  0.93827000000E+00 0.  1.
     999902    2    1    2    0    0 -0.41560377446E-02  0.15802360467E-01 -0.16597150435E-01  0.10206393871E+01  0.10203736109E+01 0.  0.
     999903    2    3    3    0    0 -0.90632214608E-01  0.17745207129E-01 -0.93604960490E-01  0.13305158491E+00  0.20291498635E-01 0.  0.
         14    1    1    2    0    0  0.41560377446E-02 -0.15802360467E-01  0.16597150435E-01  0.23290612886E-01  0.00000000000E+00 0.  1.
     999901    1    3    3    0    0  0.86476176864E-01 -0.19428466622E-02  0.77007810055E-01  0.88758780221E+00  0.88000000000E+00 0. -1.
        -11    1    4    4    0    0 -0.77579197416E-02  0.37471780812E-02 -0.22600786172E-02  0.89216443913E-02  0.51100000000E-03 0.  1.
         11    1    4    4    0    0 -0.82874294867E-01  0.13998029048E-01 -0.91344881873E-01  0.12412994051E+00  0.51100000000E-03 0. -1.
</event>
<event>
 8    1  0.1103774E+005  0.1043930E+01  0.7957747E-01            NaN
         13   -1    0    0    0    0  0.00000000000E+00  0.00000000000E+00  0.74505805969E-08  0.10566000000E+00  0.10566000000E+00 0. -1.
     999900   -1    0    0    0    0 -0.00000000000E+00 -0.00000000000E+00 -0.74505805969E-08  0.93827000000E+00  0.93827000000E+00 0. -1.
     999902    2    1    2    0    0  0.11896725053E-01  0.14511518854E-01 -0.11591112076E-01  0.10218739322E+01  0.10216358761E+01 0.  0.
     999903    2    3    3    0    0 -0.12735176784E-01  0.45840225411E-01  0.12058273773E+00  0.13111125619E+00  0.19658429961E-01 0.  0.
         14    1    1    2    0    0 -0.11896725053E-01 -0.14511518854E-01  0.11591112076E-01  0.22056067772E-01  0.00000000000E+00 0. -1.
     999901    1    3    3    0    0  0.24631901837E-01 -0.31328706557E-01 -0.13217384981E+00  0.89076267603E+00  0.88000000000E+00 0. -1.
        -11    1    4    4    0    0  0.13131263403E-02  0.30930848789E-01  0.70619519041E-01  0.77109138876E-01  0.51100000000E-03 0.  1.
         11    1    4    4    0    0 -0.14048303125E-01  0.14909376622E-01  0.49963218690E-01  0.54002117317E-01  0.51100000000E-03 0. -1.
</event>
<event>
 8    1  0.1103774E+005  0.1043930E+01  0.7957747E-01            NaN
         13   -1    0    0    0    0  0.00000000000E+00  0.00000000000E+00  0.74505805969E-08  0.10566000000E+00  0.10566000000E+00 0. -1.
     999900   -1    0    0    0    0 -0.00000000000E+00 -0.00000000000E+00 -0.74505805969E-08  0.93827000000E+00  0.93827000000E+00 0. -1.
     999902    2    1    2    0    0  0.22617898952E-02 -0.56642174090E-02 -0.23290260012E-01  0.10198543845E+01  0.10195701694E+01 0.  0.
     999903    2    3    3    0    0  0.38026595932E-01  0.10546869952E+00 -0.64864456018E-01  0.13117105483E+00  0.20706989054E-01 0.  0.
         14    1    1    2    0    0 -0.22617898952E-02  0.56642174090E-02  0.23290260012E-01  0.24075615543E-01  0.00000000000E+00 0. -1.
     999901    1    3    3    0    0 -0.35764806037E-01 -0.11113291693E+00  0.41574196006E-01  0.88868332962E+00  0.88000000000E+00 0. -1.
        -11    1    4    4    0    0  0.41909809239E-02  0.38489822581E-01 -0.26222417959E-01  0.46764378410E-01  0.51100000000E-03 0.  1.
         11    1    4    4    0    0  0.33835615008E-01  0.66978876937E-01 -0.38642038058E-01  0.84406676424E-01  0.51100000000E-03 0. -1.
</event>
<event>
 8    1  0.1103774E+005  0.1043930E+01  0.7957747E-01            NaN
         13   -1    0    0    0    0  0.00000000000E+00  0.00000000000E+00  0.74505805969E-08  0.10566000000E+00  0.10566000000E+00 0. -1.
     999900   -1    0    0    0    0 -0.00000000000E+00 -0.00000000000E+00 -0.74505805969E-08  0.93827000000E+00  0.93827000000E+00 0.  1.
     999902    2    1    2    0    0 -0.20523420966E-01  0.28797636790E-02 -0.12669224195E-01  0.10196398150E+01  0.10193504496E+01 0.  0.
     999903    2    3    3    0    0 -0.12178321960E+00 -0.34763345101E-01 -0.33535692417E-01  0.13278810248E+00  0.21642429485E-01 0.  0.
         14    1    1    2    0    0  0.20523420966E-01 -0.28797636790E-02  0.12669224195E-01  0.24290185028E-01  0.00000000000E+00 0.  1.
     999901    1    3    3    0    0  0.10125979864E+00  0.37643108780E-01  0.20866468223E-01  0.88685171249E+00  0.88000000000E+00 0.  1.
        -11    1    4    4    0    0 -0.85520890097E-01 -0.16734657932E-01 -0.15755957137E-01  0.88557228533E-01  0.51100000000E-03 0.  1.
         11    1    4    4    0    0 -0.36262329506E-01 -0.18028687169E-01 -0.17779735280E-01  0.44230873945E-01  0.51100000000E-03 0. -1.
</event>
<event>
 8    1  0.1103774E+005  0.1043930E+01  0.7957747E-01            NaN
         13   -1    0    0    0    0  0.00000000000E+00  0.00000000000E+00  0.74505805969E-08  0.10566000000E+00  0.10566000000E+00 0.  1.
     999900   -1    0    0    0    0 -0.00000000000E+00 -0.00000000000E+00 -0.74505805969E-08  0.93827000000E+00  0.93827000000E+00 0.  1.
     999902    2    1    2    0    0 -0.91748753138E-02 -0.12456747884E-02 -0.21479840124E-01  0.10205395410E+01  0.10202714546E+01 0.  0.
     999903    2    3    3    0    0  0.89597672720E-01 -0.26369472527E-02  0.88479385101E-01  0.12821169588E+00  0.23977925773E-01 0.  0.
         14    1    1    2    0    0  0.91748753138E-02  0.12456747884E-02  0.21479840124E-01  0.23390459047E-01  0.00000000000E+00 0.  1.
     999901    1    3    3    0    0 -0.98772548034E-01  0.13912724644E-02 -0.10995922522E+00  0.89232784507E+00  0.88000000000E+00 0.  1.
        -11    1    4    4    0    0  0.76028108885E-01 -0.24029985676E-02  0.60801811992E-01  0.97381565018E-01  0.51100000000E-03 0.  1.
         11    1    4    4    0    0  0.13569563835E-01 -0.23394868515E-03  0.27677573109E-01  0.30830130860E-01  0.51100000000E-03 0. -1.
</event>
<event>
 8    1  0.1103774E+005  0.1043930E+01  0.7957747E-01            NaN
         13   -1    0    0    0    0  0.00000000000E+00  0.00000000000E+00  0.74505805969E-08  0.10566000000E+00  0.10566000000E+00 0.  1.
     999900   -1    0    0    0    0 -0.00000000000E+00 -0.00000000000E+00 -0.74505805969E-08  0.93827000000E+00  0.93827000000E+00 0. -1.
     999902    2    1    2    0    0  0.10386926759E-01 -0.80364535810E-02 -0.19874484040E-01  0.10201084142E+01  0.10198302353E+01 0.  0.
     999903    2    3    3    0    0  0.65974661466E-01  0.80820959452E-01  0.73562376256E-01  0.12897650312E+00  0.18407382067E-01 0.  0.
         14    1    1    2    0    0 -0.10386926759E-01  0.80364535810E-02  0.19874484040E-01  0.23821585789E-01  0.00000000000E+00 0.  1.
     999901    1    3    3    0    0 -0.55587734706E-01 -0.88857413033E-01 -0.93436860296E-01  0.89113191109E+00  0.88000000000E+00 0. -1.
        -11    1    4    4    0    0  0.29347356161E-01  0.44063428209E-01  0.46423859248E-01  0.70415118033E-01  0.51100000000E-03 0. -1.
         11    1    4    4    0    0  0.36627305304E-01  0.36757531244E-01  0.27138517008E-01  0.58561385088E-01  0.51100000000E-03 0.  1.
</event>
<event>
 8    1  0.1103774E+005  0.1043930E+01  0.7957747E-01            NaN
         13   -1    0    0    0    0  0.00000000000E+00  0.00000000000E+00  0.74505805969E-08  0.10566000000E+00  0.10566000000E+00 0.  1.
     999900   -1    0    0    0    0 -0.00000000000E+00 -0.00000000000E+00 -0.74505805969E-08  0.93827000000E+00  0.93827000000E+00 0. -1.
     999902    2    1    2    0    0  0.28691248551E-03  0.59372696308E-02  0.22688848713E-01  0.10204754195E+01  0.10202058442E+01 0.  0.
     999903    2    3    3    0    0  0.10427952755E+00  0.52875152643E-01 -0.52848418072E-01  0.12990060092E+00  0.20278293694E-01 0.  0.
         14    1    1    2    0    0 -0.28691248551E-03 -0.59372696308E-02 -0.22688848713E-01  0.23454580478E-01  0.00000000000E+00 0. -1.
     999901    1    3    3    0    0 -0.10399261506E+00 -0.46937883012E-01  0.75537266785E-01  0.89057481860E+00  0.88000000000E+00 0.  1.
        -11    1    4    4    0    0  0.21781188806E-02  0.52573366831E-03 -0.51519457266E-02  0.56412998075E-02  0.51100000000E-03 0.  1.
         11    1    4    4    0    0  0.10210140867E+00  0.52349418975E-01 -0.47696472345E-01  0.12425930112E+00  0.51100000000E-03 0. -1.
</event>
<event>
 8    1  0.1103774E+005  0.1043930E+01  0.7957747E-01            NaN
         13   -1    0    0    0    0  0.00000000000E+00  0.00000000000E+00  0.74505805969E-08  0.10566000000E+00  0.10566000000E+00 0.  1.
     999900   -1    0    0    0    0 -0.00000000000E+00 -0.00000000000E+00 -0.74505805969E-08  0.93827000000E+00  0.93827000000E+00 0. -1.
     999902    2    1    2    0    0 -0.17493315085E-01  0.13442738548E-01  0.11154866665E-01  0.10192084640E+01  0.10189086018E+01 0.  0.
     999903    2    3    3    0    0 -0.32130483304E-01  0.11858932172E+00 -0.41260437086E-01  0.13127974235E+00  0.20884250036E-01 0.  0.
         14    1    1    2    0    0  0.17493315085E-01 -0.13442738548E-01 -0.11154866665E-01  0.24721536009E-01  0.00000000000E+00 0. -1.
     999901    1    3    3    0    0  0.14637168219E-01 -0.10514658317E+00  0.52415303751E-01  0.88792872164E+00  0.88000000000E+00 0.  1.
        -11    1    4    4    0    0 -0.25564843106E-01  0.10663255614E+00 -0.30275320347E-01  0.11375816180E+00  0.51100000000E-03 0. -1.
         11    1    4    4    0    0 -0.65656401984E-02  0.11956765580E-01 -0.10985116739E-01  0.17521580555E-01  0.51100000000E-03 0.  1.
</event>
<event>
 8    1  0.1103774E+005  0.1043930E+01  0.7957747E-01            NaN
         13   -1    0    0    0    0  0.00000000000E+00  0.00000000000E+00  0.74505805969E-08  0.10566000000E+00  0.10566000000E+00 0.  1.
     999900   -1    0    0    0    0 -0.00000000000E+00 -0.00000000000E+00 -0.74505805969E-08  0.93827000000E+00  0.93827000000E+00 0.  1.
     999902    2    1    2    0    0 -0.67285774664E-02 -0.17312561331E-01 -0.15255091766E-01  0.10198942691E+01  0.10196110061E+01 0.  0.
     999903    2    3    3    0    0 -0.48230162281E-01 -0.64524435578E-01  0.99944559010E-01  0.13016267916E+00  0.21537335748E-01 0.  0.
         14    1    1    2    0    0  0.67285774664E-02  0.17312561331E-01  0.15255091766E-01  0.24035730888E-01  0.00000000000E+00 0.  1.
     999901    1    3    3    0    0  0.41501584815E-01  0.47211874247E-01 -0.11519965078E+00  0.88973158995E+00  0.88000000000E+00 0.  1.
        -11    1    4    4    0    0 -0.21718155790E-02 -0.17000673129E-01  0.22569558207E-01  0.28344060197E-01  0.51100000000E-03 0.  1.
         11    1    4    4    0    0 -0.46058346702E-01 -0.47523762449E-01  0.77375000803E-01  0.10181861897E+00  0.51100000000E-03 0. -1.
</event>
<event>
 8    1  0.1103774E+005  0.1043930E+01  0.7957747E-01            NaN
         13   -1    0    0    0    0  0.00000000000E+00  0.00000000000E+00  0.74505805969E-08  0.10566000000E+00  0.10566000000E+00 0.  1.
     999900   -1    0    0    0    0 -0.00000000000E+00 -0.00000000000E+00 -0.74505805969E-08  0.93827000000E+00  0.93827000000E+00 0.  1.
     999902    2    1    2    0    0 -0.11384377509E-01  0.16599013595E-01 -0.11118491146E-01  0.10209353887E+01  0.10206764011E+01 0.  0.
     999903    2    3    3    0    0  0.54655063417E-01 -0.13197164219E-01 -0.11733669548E+00  0.13159218897E+00  0.19678998738E-01 0.  0.
         14    1    1    2    0    0  0.11384377509E-01 -0.16599013595E-01  0.11118491146E-01  0.22994611302E-01  0.00000000000E+00 0.  1.
     999901    1    3    3    0    0 -0.66039440926E-01  0.29796177814E-01  0.10621820433E+00  0.88934319973E+00  0.88000000000E+00 0. -1.
        -11    1    4    4    0    0  0.67035892821E-02 -0.49832282600E-02 -0.34719067717E-01  0.35713379248E-01  0.51100000000E-03 0. -1.
         11    1    4    4    0    0  0.47951474135E-01 -0.82139359591E-02 -0.82617627762E-01  0.95878809722E-01  0.51100000000E-03 0.  1.
</event>
<event>
 8    1  0.1103774E+005  0.1043930E+01  0.7957747E-01            NaN
         13   -1    0    0    0    0  0.00000000000E+00  0.00000000000E+00  0.74505805969E-08  0.10566000000E+00  0.10566000000E+00 0.  1.
     999900   -1    0    0    0    0 -0.00000000000E+00 -0.00000000000E+00 -0.74505805969E-08  0.93827000000E+00  0.93827000000E+00 0.  1.
     999902    2    1    2    0    0 -0.15419123369E-01  0.13429604141E-01 -0.11812771665E-01  0.10203154874E+01  0.10200421798E+01 0.  0.
     999903    2    3    3    0    0 -0.51890115116E-02  0.67018117370E-01 -0.11277694836E+00  0.13286399634E+00  0.20392340334E-01 0.  0.
         14    1    1    2    0    0  0.15419123369E-01 -0.13429604141E-01  0.11812771665E-01  0.23614512641E-01  0.00000000000E+00 0. -1.
     999901    1    3    3    0    0 -0.10230111857E-01 -0.53588513229E-01  0.10096417670E+00  0.88745149102E+00  0.88000000000E+00 0. -1.
        -11    1    4    4    0    0 -0.71764422646E-02  0.55512995919E-01 -0.76791140456E-01  0.95028071711E-01  0.51100000000E-03 0. -1.
         11    1    4    4    0    0  0.19874307530E-02  0.11505121450E-01 -0.35985807909E-01  0.37835924628E-01  0.51100000000E-03 0.  1.
</event>
<event>
 8    1  0.1103774E+005  0.1043930E+01  0.7957747E-01            NaN
         13   -1    0    0    0    0  0.00000000000E+00  0.00000000000E+00  0.74505805969E-08  0.10566000000E+00  0.10566000000E+00 0. -1.
     999900   -1    0    0    0    0 -0.00000000000E+00 -0.00000000000E+00 -0.74505805969E-08  0.93827000000E+00  0.93827000000E+00 0.  1.
     999902    2    1    2    0    0 -0.48290352251E-02  0.11875592226E-01  0.20565946152E-01  0.10196955738E+01  0.10194075514E+01 0.  0.
     999903    2    3    3    0    0 -0.11895637951E-01  0.11232350854E+00  0.67022332210E-01  0.13273564429E+00  0.19201080101E-01 0.  0.
         14    1    1    2    0    0  0.48290352251E-02 -0.11875592226E-01 -0.20565946152E-01  0.24234426196E-01  0.00000000000E+00 0.  1.
     999901    1    3    3    0    0  0.70666027263E-02 -0.10044791631E+00 -0.46456386058E-01  0.88695992952E+00  0.88000000000E+00 0.  1.
        -11    1    4    4    0    0 -0.16367175431E-01  0.77412772246E-01  0.42311311753E-01  0.89728089033E-01  0.51100000000E-03 0.  1.
         11    1    4    4    0    0  0.44715374796E-02  0.34910736290E-01  0.24711020457E-01  0.43007555253E-01  0.51100000000E-03 0. -1.
</event>
<event>
 8    1  0.1103774E+005  0.1043930E+01  0.7957747E-01            NaN
         13   -1    0    0    0    0  0.00000000000E+00  0.00000000000E+00  0.74505805969E-08  0.10566000000E+00  0.10566000000E+00 0. -1.
     999900   -1    0    0    0    0 -0.00000000000E+00 -0.00000000000E+00 -0.74505805969E-08  0.93827000000E+00  0.93827000000E+00 0.  1.
     999902    2    1    2    0    0  0.14222741275E-01  0.55368308285E-02 -0.16484340345E-01  0.10214649974E+01  0.10212179320E+01 0.  0.
     999903    2    3    3    0    0 -0.11410968199E+00 -0.24412612835E-01  0.50521716700E-01  0.12913322518E+00  0.22493350088E-01 0.  0.
         14    1    1    2    0    0 -0.14222741275E-01 -0.55368308285E-02  0.16484340345E-01  0.22465002595E-01  0.00000000000E+00 0. -1.
     999901    1    3    3    0    0  0.12833242327E+00  0.29949443664E-01 -0.67006057044E-01  0.89233177222E+00  0.88000000000E+00 0.  1.
        -11    1    4    4    0    0 -0.81426815181E-01 -0.68107115683E-02  0.34361260493E-01  0.88643495906E-01  0.51100000000E-03 0. -1.
         11    1    4    4    0    0 -0.32682866809E-01 -0.17601901267E-01  0.16160456206E-01  0.40489729277E-01  0.51100000000E-03 0.  1.
</event>
<event>
 8    1  0.1103774E+005  0.1043930E+01  0.7957747E-01            NaN
         13   -1    0    0    0    0  0.00000000000E+00  0.00000000000E+00  0.74505805969E-08  0.10566000000E+00  0.10566000000E+00 0. -1.
     999900   -1    0    0    0    0 -0.00000000000E+00 -0.00000000000E+00 -0.74505805969E-08  0.93827000000E+00  0.93827000000E+00 0. -1.
     999902    2    1    2    0    0  0.60597003318E-02 -0.19883697866E-01  0.10958866077E-01  0.10204315287E+01  0.10201609317E+01 0.  0.
     999903    2    3    3    0    0  0.21109323187E-01  0.72802271074E-01  0.10437807122E+00  0.13051898922E+00  0.19865814750E-01 0.  0.
         14    1    1    2    0    0 -0.60597003318E-02  0.19883697866E-01 -0.10958866077E-01  0.23498471325E-01  0.00000000000E+00 0.  1.
     999901    1    3    3    0    0 -0.15049622855E-01 -0.92685968940E-01 -0.93419205148E-01  0.88991253945E+00  0.88000000000E+00 0. -1.
        -11    1    4    4    0    0  0.31960391507E-02  0.45358414456E-01  0.57216075631E-01  0.73085845824E-01  0.51100000000E-03 0.  1.
         11    1    4    4    0    0  0.17913284036E-01  0.27443856617E-01  0.47161995594E-01  0.57433143397E-01  0.51100000000E-03 0. -1.
</event>
<event>
 8    1  0.1103774E+005  0.1043930E+01  0.7957747E-01            NaN
         13   -1    0    0    0    0  0.00000000000E+00  0.00000000000E+00  0.74505805969E-08  0.10566000000E+00  0.10566000000E+00 0.  1.
     999900   -1    0    0    0    0 -0.00000000000E+00 -0.00000000000E+00 -0.74505805969E-08  0.93827000000E+00  0.93827000000E+00 0. -1.
     999902    2    1    2    0    0  0.16364395778E-01 -0.11565440187E-01  0.12403991354E-01  0.10203628225E+01  0.10200906222E+01 0.  0.
     999903    2    3    3    0    0  0.73740313480E-01  0.36673282517E-01 -0.98788388589E-01  0.13020400760E+00  0.20282366568E-01 0.  0.
         14    1    1    2    0    0 -0.16364395778E-01  0.11565440187E-01 -0.12403991354E-01  0.23567177544E-01  0.00000000000E+00 0. -1.
     999901    1    3    3    0    0 -0.57375917702E-01 -0.48238722703E-01  0.11119237994E+00  0.89015881485E+00  0.88000000000E+00 0.  1.
        -11    1    4    4    0    0  0.22987143376E-01  0.15656124087E-02 -0.29002899631E-01  0.37044422128E-01  0.51100000000E-03 0. -1.
         11    1    4    4    0    0  0.50753170104E-01  0.35107670108E-01 -0.69785488958E-01  0.93159585476E-01  0.51100000000E-03 0.  1.
</event>
<event>
 8    1  0.1103774E+005  0.1043930E+01  0.7957747E-01            NaN
         13   -1    0    0    0    0  0.00000000000E+00  0.00000000000E+00  0.74505805969E-08  0.10566000000E+00  0.10566000000E+00 0. -1.
     999900   -1    0    0    0    0 -0.00000000000E+00 -0.00000000000E+00 -0.74505805969E-08  0.93827000000E+00  0.93827000000E+00 0.  1.
     999902    2    1    2    0    0 -0.50914133543E-02  0.21486501852E-01 -0.62258680639E-02  0.10209876007E+01  0.10207298012E+01 0.  0.
     999903    2    3    3    0    0 -0.62608954659E-01  0.11301069784E+00 -0.29734426502E-01  0.13406167465E+00  0.19927304424E-01 0.  0.
         14    1    1    2    0    0  0.50914133543E-02 -0.21486501852E-01  0.62258680639E-02  0.22942399284E-01  0.00000000000E+00 0. -1.
     999901    1    3    3    0    0  0.57517541304E-01 -0.91524195985E-01  0.23508558438E-01  0.88692592607E+00  0.88000000000E+00 0. -1.
        -11    1    4    4    0    0 -0.30696850982E-01  0.57997117548E-01 -0.49723019504E-02  0.65809932470E-01  0.51100000000E-03 0. -1.
         11    1    4    4    0    0 -0.31912103677E-01  0.55013580289E-01 -0.24762124551E-01  0.68251742180E-01  0.51100000000E-03 0.  1.
</event>
<event>
 8    1  0.1103774E+005  0.1043930E+01  0.7957747E-01            NaN
         13   -1    0    0    0    0  0.00000000000E+00  0.00000000000E+00  0.74505805969E-08  0.10566000000E+00  0.10566000000E+00 0.  1.
     999900   -1    0    0    0    0 -0.00000000000E+00 -0.00000000000E+00 -0.74505805969E-08  0.93827000000E+00  0.93827000000E+00 0. -1.
     999902    2    1    2    0    0  0.23128889895E-01 -0.92304989546E-03  0.73687074502E-02  0.10196381203E+01  0.10193487141E+01 0.  0.
     999903    2    3    3    0    0  0.81403137667E-01 -0.91546531305E-01  0.45738265147E-01  0.13223701242E+00  0.19682488167E-01 0.  0.
         14    1    1    2    0    0 -0.23128889895E-01  0.92304989546E-03 -0.73687074502E-02  0.24291879680E-01  0.00000000000E+00 0. -1.
     999901    1    3    3    0    0 -0.58274247772E-01  0.90623481410E-01 -0.38369557697E-01  0.88740110790E+00  0.88000000000E+00 0.  1.
        -11    1    4    4    0    0  0.11880941011E-01 -0.19462705241E-01  0.18155925064E-02  0.22880366076E-01  0.51100000000E-03 0. -1.
         11    1    4    4    0    0  0.69522196656E-01 -0.72083826064E-01  0.43922672640E-01  0.10935664635E+00  0.51100000000E-03 0.  1.
</event>
<event>
 8    1  0.1103774E+005  0.1043930E+01  0.7957747E-01            NaN
         13   -1    0    0    0    0  0.00000000000E+00  0.00000000000E+00  0.74505805969E-08  0.10566000000E+00  0.10566000000E+00 0. -1.
     999900   -1    0    0    0    0 -0.00000000000E+00 -0.00000000000E+00 -0.74505805969E-08  0.93827000000E+00  0.93827000000E+00 0.  1.
     999902    2    1    2    0    0 -0.71460954567E-02  0.18887252781E-01 -0.11640459693E-01  0.10206213042E+01  0.10203551104E+01 0.  0.
     999903    2    3    3    0    0  0.49556900219E-01  0.11447629439E+00  0.38561678094E-01  0.13221106719E+00  0.20785931122E-01 0.  0.
         14    1    1    2    0    0  0.71460954567E-02 -0.18887252781E-01  0.11640459693E-01  0.23308695797E-01  0.00000000000E+00 0. -1.
     999901    1    3    3    0    0 -0.56702995676E-01 -0.95589041610E-01 -0.50202137787E-01  0.88841023701E+00  0.88000000000E+00 0.  1.
        -11    1    4    4    0    0  0.27227374179E-01  0.69760689399E-01  0.33279519587E-01  0.81949199111E-01  0.51100000000E-03 0. -1.
         11    1    4    4    0    0  0.22329526041E-01  0.44715604992E-01  0.52821585070E-02  0.50261868076E-01  0.51100000000E-03 0.  1.
</event>
<event>
 8    1  0.1103774E+005  0.1043930E+01  0.7957747E-01            NaN
         13   -1    0    0    0    0  0.00000000000E+00  0.00000000000E+00  0.74505805969E-08  0.10566000000E+00  0.10566000000E+00 0.  1.
     999900   -1    0    0    0    0 -0.00000000000E+00 -0.00000000000E+00 -0.74505805969E-08  0.93827000000E+00  0.93827000000E+00 0.  1.
     999902    2    1    2    0    0 -0.27533343430E-02  0.14896537944E-01 -0.18549376254E-01  0.10199807401E+01  0.10196995357E+01 0.  0.
     999903    2    3    3    0    0 -0.61430935095E-01  0.57453115750E-01 -0.10126608782E+00  0.13313454283E+00  0.19883803868E-01 0.  0.
         14    1    1    2    0    0  0.27533343430E-02 -0.14896537944E-01  0.18549376254E-01  0.23949259950E-01  0.00000000000E+00 0. -1.
     999901    1    3    3    0    0  0.58677600752E-01 -0.42556577805E-01  0.82716711571E-01  0.88684619722E+00  0.88000000000E+00 0. -1.
        -11    1    4    4    0    0 -0.46537028539E-01  0.36104251891E-01 -0.58168592611E-01  0.82783200694E-01  0.51100000000E-03 0.  1.
         11    1    4    4    0    0 -0.14893906556E-01  0.21348863858E-01 -0.43097495214E-01  0.50351342140E-01  0.51100000000E-03 0. -1.
</event>
<event>
 8    1  0.1103774E+005  0.1043930E+01  0.7957747E-01            NaN
         13   -1    0    0    0    0  0.00000000000E+00  0.00000000000E+00  0.74505805969E-08  0.10566000000E+00  0.10566000000E+00 0. -1.
     999900   -1    0    0    0    0 -0.00000000000E+00 -0.00000000000E+00 -0.74505805969E-08  0.93827000000E+00  0.93827000000E+00 0. -1.
     999902    2    1    2    0    0 -0.23192730349E-01 -0.68955220136E-02  0.13666361436E-01  0.10161411461E+01  0.10157610981E+01 0.  0.
     999903    2    3    3    0    0 -0.74688571380E-01 -0.75978400742E-01 -0.68319185768E-01  0.12814007871E+00  0.20031688736E-01 0.  0.
         14    1    1    2    0    0  0.23192730349E-01  0.68955220136E-02 -0.13666361436E-01  0.27788853877E-01  0.00000000000E+00 0.  1.
     999901    1    3    3    0    0  0.51495841031E-01  0.69082878728E-01  0.81985547204E-01  0.88800106741E+00  0.88000000000E+00 0.  1.
        -11    1    4    4    0    0 -0.72023346249E-01 -0.66240281901E-01 -0.65101015432E-01  0.11753102009E+00  0.51100000000E-03 0.  1.
         11    1    4    4    0    0 -0.26652251307E-02 -0.97381188413E-02 -0.32181703363E-02  0.10609058624E-01  0.51100000000E-03 0. -1.
</event>
<event>
 8    1  0.1103774E+005  0.1043930E+01  0.7957747E-01            NaN
         13   -1    0    0    0    0  0.00000000000E+00  0.00000000000E+00  0.74505805969E-08  0.10566000000E+00  0.10566000000E+00 0.  1.
     999900   -1    0    0    0    0 -0.00000000000E+00 -0.00000000000E+00 -0.74505805969E-08  0.93827000000E+00  0.93827000000E+00 0. -1.
     999902    2    1    2    0    0 -0.16864965300E-01 -0.37057198041E-02  0.16384263260E-01  0.10201265654E+01  0.10198488153E+01 0.  0.
     999903    2    3    3    0    0  0.99819784591E-01  0.36822756359E-01 -0.67593588858E-01  0.12754034111E+00  0.19435549224E-01 0.  0.
         14    1    1    2    0    0  0.16864965300E-01  0.37057198041E-02 -0.16384263260E-01  0.23803434551E-01  0.00000000000E+00 0. -1.
     999901    1    3    3    0    0 -0.11668474989E+00 -0.40528476163E-01  0.83977852118E-01  0.89258622434E+00  0.88000000000E+00 0.  1.
        -11    1    4    4    0    0  0.56452302502E-01  0.10503134304E-01 -0.36072028540E-01  0.67813204113E-01  0.51100000000E-03 0. -1.
         11    1    4    4    0    0  0.43367482089E-01  0.26319622055E-01 -0.31521560318E-01  0.59727136996E-01  0.51100000000E-03 0.  1.
</event>
<event>
 8    1  0.1103774E+005  0.1043930E+01  0.7957747E-01            NaN
         13   -1    0    0    0    0  0.00000000000E+00  0.00000000000E+00  0.74505805969E-08  0.10566000000E+00  0.10566000000E+00 0.  1.
     999900   -1    0    0    0    0 -0.00000000000E+00 -0.00000000000E+00 -0.74505805969E-08  0.93827000000E+00  0.93827000000E+00 0.  1.
     999902    2    1    2    0    0  0.97415891749E-02  0.17480931588E-01  0.13064050202E-01  0.10200312357E+01  0.10197512299E+01 0.  0.
     999903    2    3    3    0    0 -0.60861416360E-01 -0.86781288990E-01  0.71004383789E-01  0.12918193456E+00  0.20279190800E-01 0.  0.
         14    1    1    2    0    0 -0.97415891749E-02 -0.17480931588E-01 -0.13064050202E-01  0.23898764330E-01  0.00000000000E+00 0. -1.
     999901    1    3    3    0    0  0.70603005535E-01  0.10426222058E+00 -0.57940333587E-01  0.89084930111E+00  0.88000000000E+00 0.  1.
        -11    1    4    4    0    0 -0.47409080905E-01 -0.78939494572E-01  0.63743353512E-01  0.11199348639E+00  0.51100000000E-03 0.  1.
         11    1    4    4    0    0 -0.13452335455E-01 -0.78417944178E-02  0.72610302772E-02  0.17188448172E-01  0.51100000000E-03 0. -1.
</event>
<event>
 8    1  0.1103774E+005  0.1043930E+01  0.7957747E-01            NaN
         13   -1    0    0    0    0  0.00000000000E+00  0.00000000000E+00  0.74505805969E-08  0.10566000000E+00  0.10566000000E+00 0.  1.
     999900   -1    0    0    0    0 -0.00000000000E+00 -0.00000000000E+00 -0.74505805969E-08  0.93827000000E+00  0.93827000000E+00 0.  1.
     999902    2    1    2    0    0  0.49271726440E-03 -0.24327601845E-02  0.23991155439E-01  0.10198107829E+01  0.10195255251E+01 0.  0.
     999903    2    3    3    0    0 -0.10675447591E+00 -0.71926973637E-01  0.13307860612E-01  0.13051581560E+00  0.16949079750E-01 0.  0.
         14    1    1    2    0    0 -0.49271726440E-03  0.24327601845E-02 -0.23991155439E-01  0.24119217063E-01  0.00000000000E+00 0. -1.
     999901    1    3    3    0    0  0.10724719317E+00  0.69494213453E-01  0.10683294827E-01  0.88929496734E+00  0.88000000000E+00 0. -1.
        -11    1    4    4    0    0 -0.33909808948E-01 -0.16505299427E-01 -0.17295557314E-02  0.37756489986E-01  0.51100000000E-03 0.  1.
         11    1    4    4    0    0 -0.72844666959E-01 -0.55421674211E-01  0.15037416343E-01  0.92759325612E-01  0.51100000000E-03 0. -1.
</event>
<event>
 8    1  0.1103774E+005  0.1043930E+01  0.7957747E-01            NaN
         13   -1    0    0    0    0  0.00000000000E+00  0.00000000000E+00  0.74505805969E-08  0.10566000000E+00  0.10566000000E+00 0.  1.
     999900   -1    0    0    0    0 -0.00000000000E+00 -0.00000000000E+00 -0.74505805969E-08  0.93827000000E+00  0.93827000000E+00 0. -1.
     999902    2    1    2    0    0 -0.29560942594E-02  0.18977594313E-01  0.17275560828E-01  0.10180972189E+01  0.10177694309E+01 0.  0.
     999903    2    3    3    0    0  0.57280921774E-01 -0.21496345228E-01 -0.10872201300E+00  0.12616559229E+00  0.18817112121E-01 0.  0.
         14    1    1    2    0    0  0.29560942594E-02 -0.18977594313E-01 -0.17275560828E-01  0.25832781133E-01  0.00000000000E+00 0.  1.
     999901    1    3    3    0    0 -0.60237016033E-01  0.40473939540E-01  0.12599757383E+00  0.89193162658E+00  0.88000000000E+00 0.  1.
        -11    1    4    4    0    0  0.38864306479E-01 -0.58461484557E-02 -0.74987627482E-01  0.84664143333E-01  0.51100000000E-03 0. -1.
         11    1    4    4    0    0  0.18416615295E-01 -0.15650196772E-01 -0.33734385519E-01  0.41501448954E-01  0.51100000000E-03 0.  1.
</event>
<event>
 8    1  0.1103774E+005  0.1043930E+01  0.7957747E-01            NaN
         13   -1    0    0    0    0  0.00000000000E+00  0.00000000000E+00  0.74505805969E-08  0.10566000000E+00  0.10566000000E+00 0.  1.
     999900   -1    0    0    0    0 -0.00000000000E+00 -0.00000000000E+00 -0.74505805969E-08  0.93827000000E+00  0.93827000000E+00 0. -1.
     999902    2    1    2    0    0  0.34519003889E-02  0.79311298978E-03 -0.23322746631E-01  0.10203398505E+01  0.10200671131E+01 0.  0.
     999903    2    3    3    0    0  0.93843230863E-01 -0.88768734813E-01  0.51040107110E-02  0.13073319709E+00  0.19459641218E-01 0.  0.
         14    1    1    2    0    0 -0.34519003889E-02 -0.79311298978E-03  0.23322746631E-01  0.23590149531E-01  0.00000000000E+00 0.  1.
     999901    1    3    3    0    0 -0.90391330475E-01  0.89561847802E-01 -0.28426757342E-01  0.88960665338E+00  0.88000000000E+00 0. -1.
        -11    1    4    4    0    0  0.62933021589E-01 -0.65198773292E-01 -0.43591063527E-02  0.90723250461E-01  0.51100000000E-03 0.  1.
         11    1    4    4    0    0  0.30910209275E-01 -0.23569961521E-01  0.94631170638E-02  0.40009946626E-01  0.51100000000E-03 0. -1.
</event>
<event>
 8    1  0.1103774E+005  0.1043930E+01  0.7957747E-01            NaN
         13   -1    0    0    0    0  0.00000000000E+00  0.00000000000E+00  0.74505805969E-08  0.10566000000E+00  0.10566000000E+00 0. -1.
     999900   -1    0    0    0    0 -0.00000000000E+00 -0.00000000000E+00 -0.74505805969E-08  0.93827000000E+00  0.93827000000E+00 0.  1.
     999902    2    1    2    0    0 -0.15637706292E-01 -0.20010120381E-02  0.18923782285E-01  0.10192997048E+01  0.10190020788E+01 0.  0.
     999903    2    3    3    0    0 -0.51874735409E-01 -0.58728379100E-01  0.10497668489E+00  0.13254369633E+00  0.20191988034E-01 0.  0.
         14    1    1    2    0    0  0.15637706292E-01  0.20010120381E-02 -0.18923782285E-01  0.24630295232E-01  0.00000000000E+00 0.  1.
     999901    1    3    3    0    0  0.36237029117E-01  0.56727367062E-01 -0.86052902606E-01  0.88675600844E+00  0.88000000000E+00 0.  1.
        -11    1    4    4    0    0 -0.19133112998E-01 -0.26395310048E-01  0.59488945704E-01  0.67837925879E-01  0.51100000000E-03 0. -1.
         11    1    4    4    0    0 -0.32741622411E-01 -0.32333069052E-01  0.45487739186E-01  0.64705770451E-01  0.51100000000E-03 0.  1.
</event>
<event>
 8    1  0.1103774E+005  0.1043930E+01  0.7957747E-01            NaN
         13   -1    0    0    0    0  0.00000000000E+00  0.00000000000E+00  0.74505805969E-08  0.10566000000E+00  0.10566000000E+00 0.  1.
     999900   -1    0    0    0    0 -0.00000000000E+00 -0.00000000000E+00 -0.74505805969E-08  0.93827000000E+00  0.93827000000E+00 0.  1.
     999902    2    1    2    0    0  0.93428683730E-02  0.16119180614E-01  0.14887035802E-01  0.10200817085E+01  0.10198028981E+01 0.  0.
     999903    2    3    3    0    0 -0.11207434912E+00 -0.19094833821E-01  0.60217427241E-01  0.12989239609E+00  0.17905965787E-01 0.  0.
         14    1    1    2    0    0 -0.93428683730E-02 -0.16119180614E-01 -0.14887035802E-01  0.23848291513E-01  0.00000000000E+00 0.  1.
     999901    1    3    3    0    0  0.12141721749E+00  0.35214014435E-01 -0.45330391439E-01  0.89018931240E+00  0.88000000000E+00 0.  1.
        -11    1    4    4    0    0 -0.49049614559E-01 -0.46226939088E-02  0.17028695028E-01  0.52129373320E-01  0.51100000000E-03 0.  1.
         11    1    4    4    0    0 -0.63024734556E-01 -0.14472139912E-01  0.43188732213E-01  0.77763022772E-01  0.51100000000E-03 0. -1.
</event>
<event>
 8    1  0.1103774E+005  0.1043930E+01  0.7957747E-01            NaN
         13   -1    0    0    0    0  0.00000000000E+00  0.00000000000E+00  0.74505805969E-08  0.10566000000E+00  0.10566000000E+00 0. -1.
     999900   -1    0    0    0    0 -0.00000000000E+00 -0.00000000000E+00 -0.74505805969E-08  0.93827000000E+00  0.93827000000E+00 0. -1.
     999902    2    1    2    0    0 -0.16789081713E-01 -0.12500304808E-01 -0.12337569497E-01  0.10196329527E+01  0.10193434219E+01 0.  0.
     999903    2    3    3    0    0 -0.23012091632E-01 -0.12786266061E+00  0.91969690756E-02  0.13182050894E+00  0.20338288944E-01 0.  0.
         14    1    1    2    0    0  0.16789081713E-01  0.12500304808E-01  0.12337569497E-01  0.24297047272E-01  0.00000000000E+00 0. -1.
     999901    1    3    3    0    0  0.62230099193E-02  0.11536235581E+00 -0.21534538573E-01  0.88781244379E+00  0.88000000000E+00 0.  1.
        -11    1    4    4    0    0  0.30100462141E-02 -0.15112742777E-01 -0.20782751761E-02  0.15557497265E-01  0.51100000000E-03 0.  1.
         11    1    4    4    0    0 -0.26022137846E-01 -0.11274991784E+00  0.11275244252E-01  0.11626301168E+00  0.51100000000E-03 0. -1.
</event>
<event>
 8    1  0.1103774E+005  0.1043930E+01  0.7957747E-01            NaN
         13   -1    0    0    0    0  0.00000000000E+00  0.00000000000E+00  0.74505805969E-08  0.10566000000E+00  0.10566000000E+00 0. -1.
     999900   -1    0    0    0    0 -0.00000000000E+00 -0.00000000000E+00 -0.74505805969E-08  0.93827000000E+00  0.93827000000E+00 0.  1.
     999902    2    1    2    0    0  0.25138411529E-03  0.26509971301E-01 -0.24717065433E-02  0.10173038642E+01  0.10169553585E+01 0.  0.
     999903    2    3    3    0    0  0.17531669188E-01  0.30674244697E-01  0.12194690941E+00  0.12837420368E+00  0.18989964277E-01 0.  0.
         14    1    1    2    0    0 -0.25138411529E-03 -0.26509971301E-01  0.24717065433E-02  0.26626135761E-01  0.00000000000E+00 0. -1.
     999901    1    3    3    0    0 -0.17280285073E-01 -0.41642733963E-02 -0.12441861595E+00  0.88892966056E+00  0.88000000000E+00 0.  1.
        -11    1    4    4    0    0  0.17693133143E-01  0.12469788139E-01  0.59087677424E-01  0.62929780876E-01  0.51100000000E-03 0.  1.
         11    1    4    4    0    0 -0.16146395522E-03  0.18204456558E-01  0.62859231987E-01  0.65444422804E-01  0.51100000000E-03 0. -1.
</event>
<event>
 8    1  0.1103774E+005  0.1043930E+01  0.7957747E-01            NaN
         13   -1    0    0    0    0  0.00000000000E+00  0.00000000000E+00  0.74505805969E-08  0.10566000000E+00  0.10566000000E+00 0.  1.
     999900   -1    0    0    0    0 -0.00000000000E+00 -0.00000000000E+00 -0.74505805969E-08  0.93827000000E+00  0.93827000000E+00 0.  1.
     999902    2    1    2    0    0 -0.11274984071E-01  0.62462583102E-02 -0.19672107561E-01  0.10204112240E+01  0.10201401537E+01 0.  0.
     999903    2    3    3    0    0 -0.59314142851E-01  0.11435242829E+00 -0.22167273938E-01  0.13249178474E+00  0.21634222661E-01 0.  0.
         14    1    1    2    0    0  0.11274984071E-01 -0.62462583102E-02  0.19672107561E-01  0.23518776001E-01  0.00000000000E+00 0.  1.
     999901    1    3    3    0    0  0.48039158781E-01 -0.10810616998E+00  0.24951663768E-02  0.88791943926E+00  0.88000000000E+00 0. -1.
        -11    1    4    4    0    0 -0.38573687630E-01  0.86348537511E-01 -0.81424695262E-02  0.94923970833E-01  0.51100000000E-03 0. -1.
         11    1    4    4    0    0 -0.20740455222E-01  0.28003890782E-01 -0.14024804412E-01  0.37567813904E-01  0.51100000000E-03 0.  1.
</event>
<event>
 8    1  0.1103774E+005  0.1043930E+01  0.7957747E-01            NaN
         13   -1    0    0    0    0  0.00000000000E+00  0.00000000000E+00  0.74505805969E-08  0.10566000000E+00  0.10566000000E+00 0. -1.
     999900   -1    0    0    0    0 -0.00000000000E+00 -0.00000000000E+00 -0.74505805969E-08  0.93827000000E+00  0.93827000000E+00 0. -1.
     999902    2    1    2    0    0  0.50072986383E-02  0.15693316722E-01 -0.16676605403E-01  0.10204893857E+01  0.10202201351E+01 0.  0.
     999903    2    3    3    0    0 -0.12785674785E+00  0.22179723320E-02 -0.17022334677E-01  0.13041379384E+00  0.19124078376E-01 0.  0.
         14    1    1    2    0    0 -0.50072986383E-02 -0.15693316722E-01  0.16676605403E-01  0.23440614266E-01  0.00000000000E+00 0. -1.
     999901    1    3    3    0    0  0.13286404649E+00  0.13475344390E-01  0.34572927407E-03  0.89007559189E+00  0.88000000000E+00 0.  1.
        -11    1    4    4    0    0 -0.70412873553E-01 -0.77762513297E-02 -0.12421149733E-01  0.71923493578E-01  0.51100000000E-03 0.  1.
         11    1    4    4    0    0 -0.57443874298E-01  0.99942236617E-02 -0.46011849449E-02  0.58490300263E-01  0.51100000000E-03 0. -1.
</event>
<event>
 8    1  0.1103774E+005  0.1043930E+01  0.7957747E-01            NaN
         13   -1    0    0    0    0  0.00000000000E+00  0.00000000000E+00  0.74505805969E-08  0.10566000000E+00  0.10566000000E+00 0.  1.
     999900   -1    0    0    0    0 -0.00000000000E+00 -0.00000000000E+00 -0.74505805969E-08  0.93827000000E+00  0.93827000000E+00 0. -1.
     999902    2    1    2    0    0  0.11555709918E-01  0.18449916307E-01  0.63865250093E-02  0.10212425245E+01  0.10209904859E+01 0.  0.
     999903    2    3    3    0    0  0.50324633221E-01  0.12125563043E+00 -0.17753372098E-01  0.13408144616E+00  0.20667737280E-01 0.  0.
         14    1    1    2    0    0 -0.11555709918E-01 -0.18449916307E-01 -0.63865250093E-02  0.22687475512E-01  0.00000000000E+00 0.  1.
     999901    1    3    3    0    0 -0.38768923303E-01 -0.10280571412E+00  0.24139897107E-01  0.88716107833E+00  0.88000000000E+00 0. -1.
        -11    1    4    4    0    0  0.20764432191E-01  0.64971182767E-01 -0.17838832310E-01  0.70504618952E-01  0.51100000000E-03 0. -1.
         11    1    4    4    0    0  0.29560201030E-01  0.56284447659E-01  0.85460212174E-04  0.63576827207E-01  0.51100000000E-03 0.  1.
</event>
<event>
 8    1  0.1103774E+005  0.1043930E+01  0.7957747E-01            NaN
         13   -1    0    0    0    0  0.00000000000E+00  0.00000000000E+00  0.74505805969E-08  0.10566000000E+00  0.10566000000E+00 0.  1.
     999900   -1    0    0    0    0 -0.00000000000E+00 -0.00000000000E+00 -0.74505805969E-08  0.93827000000E+00  0.93827000000E+00 0.  1.
     999902    2    1    2    0    0 -0.92313364557E-02  0.98757734750E-02 -0.18137969576E-01  0.10213084524E+01  0.10210578929E+01 0.  0.
     999903    2    3    3    0    0 -0.12825960285E+00  0.27791769491E-01  0.43188225314E-02  0.13283053000E+00  0.20059643487E-01 0.  0.
         14    1    1    2    0    0  0.92313364557E-02 -0.98757734750E-02  0.18137969576E-01  0.22621547578E-01  0.00000000000E+00 0.  1.
     999901    1    3    3    0    0  0.11902826640E+00 -0.17915996016E-01 -0.22456792107E-01  0.88847792242E+00  0.88000000000E+00 0.  1.
        -11    1    4    4    0    0 -0.55908839144E-01  0.48555835036E-02  0.87530596121E-02  0.56800107035E-01  0.51100000000E-03 0.  1.
         11    1    4    4    0    0 -0.72350763711E-01  0.22936185987E-01 -0.44342370807E-02  0.76030422968E-01  0.51100000000E-03 0. -1.
</event>
<event>
 8    1  0.1103774E+005  0.1043930E+01  0.7957747E-01            NaN
         13   -1    0    0    0    0  0.00000000000E+00  0.00000000000E+00  0.74505805969E-08  0.10566000000E+00  0.10566000000E+00 0.  1.
     999900   -1    0    0    0    0 -0.00000000000E+00 -0.00000000000E+00 -0.74505805969E-08  0.93827000000E+00  0.93827000000E+00 0. -1.
     999902    2    1    2    0    0  0.13353782367E-01  0.14315803253E-01  0.14315697382E-01  0.10196770637E+01  0.10193885959E+01 0.  0.
     999903    2    3    3    0    0  0.97841600032E-01 -0.31552692246E-01 -0.76448178573E-01  0.12980056028E+00  0.20864092518E-01 0.  0.
         14    1    1    2    0    0 -0.13353782367E-01 -0.14315803253E-01 -0.14315697382E-01  0.24252936272E-01  0.00000000000E+00 0.  1.
     999901    1    3    3    0    0 -0.84487817666E-01  0.45868495499E-01  0.90763875955E-01  0.88987650345E+00  0.88000000000E+00 0.  1.
        -11    1    4    4    0    0  0.14134365102E-01 -0.96737018689E-02 -0.20711629812E-01  0.26881099590E-01  0.51100000000E-03 0. -1.
         11    1    4    4    0    0  0.83707234931E-01 -0.21878990377E-01 -0.55736548761E-01  0.10291946069E+00  0.51100000000E-03 0.  1.
</event>
<event>
 8    1  0.1103774E+005  0.1043930E+01  0.7957747E-01            NaN
         13   -1    0    0    0    0  0.00000000000E+00  0.00000000000E+00  0.74505805969E-08  0.10566000000E+00  0.10566000000E+00 0. -1.
     999900   -1    0    0    0    0 -0.00000000000E+00 -0.00000000000E+00 -0.74505805969E-08  0.93827000000E+00  0.93827000000E+00 0.  1.
     999902    2    1    2    0    0  0.62996329765E-02 -0.36561416498E-02 -0.23485656774E-01  0.10193407987E+01  0.10190441772E+01 0.  0.
     999903    2    3    3    0    0  0.11914226209E-01  0.93600066225E-01  0.83448109069E-01  0.12753077188E+00  0.19939651083E-01 0.  0.
         14    1    1    2    0    0 -0.62996329765E-02  0.36561416498E-02  0.23485656774E-01  0.24589201319E-01  0.00000000000E+00 0. -1.
     999901    1    3    3    0    0 -0.56145932323E-02 -0.97256207874E-01 -0.10693376584E+00  0.89181002680E+00  0.88000000000E+00 0.  1.
        -11    1    4    4    0    0 -0.16366956931E-02  0.17512917351E-01  0.25278055230E-01  0.30799711754E-01  0.51100000000E-03 0.  1.
         11    1    4    4    0    0  0.13550921902E-01  0.76087148874E-01  0.58170053839E-01  0.96731060124E-01  0.51100000000E-03 0. -1.
</event>
<event>
 8    1  0.1103774E+005  0.1043930E+01  0.7957747E-01            NaN
         13   -1    0    0    0    0  0.00000000000E+00  0.00000000000E+00  0.74505805969E-08  0.10566000000E+00  0.10566000000E+00 0. -1.
     999900   -1    0    0    0    0 -0.00000000000E+00 -0.00000000000E+00 -0.74505805969E-08  0.93827000000E+00  0.93827000000E+00 0. -1.
     999902    2    1    2    0    0  0.90313706149E-02  0.20166436743E-01 -0.40137274276E-02  0.10214720207E+01  0.10212251114E+01 0.  0.
     999903    2    3    3    0    0 -0.12294046125E+00 -0.22876938027E-02 -0.39593908877E-01  0.13063718658E+00  0.19462947913E-01 0.  0.
         14    1    1    2    0    0 -0.90313706149E-02 -0.20166436743E-01  0.40137274276E-02  0.22457979293E-01  0.00000000000E+00 0.  1.
     999901    1    3    3    0    0  0.13197183187E+00  0.22454130545E-01  0.35580181449E-01  0.89083483413E+00  0.88000000000E+00 0.  1.
        -11    1    4    4    0    0 -0.55291959961E-01  0.82239631713E-02 -0.14858127231E-01  0.57843404744E-01  0.51100000000E-03 0. -1.
         11    1    4    4    0    0 -0.67648501290E-01 -0.10511656974E-01 -0.24735781647E-01  0.72793781834E-01  0.51100000000E-03 0.  1.
</event>
<event>
 8    1  0.1103774E+005  0.1043930E+01  0.7957747E-01            NaN
         13   -1    0    0    0    0  0.00000000000E+00  0.00000000000E+00  0.74505805969E-08  0.10566000000E+00  0.10566000000E+00 0. -1.
     999900   -1    0    0    0    0 -0.00000000000E+00 -0.00000000000E+00 -0.74505805969E-08  0.93827000000E+00  0.93827000000E+00 0.  1.
     999902    2    1    2    0    0  0.19102641726E-01 -0.74242563662E-02 -0.14967828896E-01  0.10185515366E+01  0.10182353197E+01 0.  0.
     999903    2    3    3    0    0 -0.39036551037E-01  0.77513092031E-01  0.89778971803E-01  0.12638203971E+00  0.19494215329E-01 0.  0.
         14    1    1    2    0    0 -0.19102641726E-01  0.74242563662E-02  0.14967828896E-01  0.25378463416E-01  0.00000000000E+00 0. -1.
     999901    1    3    3    0    0  0.58139192764E-01 -0.84937348397E-01 -0.10474680070E+00  0.89216949687E+00  0.88000000000E+00 0.  1.
        -11    1    4    4    0    0 -0.12599358700E-01  0.34010996136E-01  0.25281788674E-01  0.44214496009E-01  0.51100000000E-03 0.  1.
         11    1    4    4    0    0 -0.26437192338E-01  0.43502095895E-01  0.64497183129E-01  0.82167543705E-01  0.51100000000E-03 0. -1.
</event>
<event>
 8    1  0.1103774E+005  0.1043930E+01  0.7957747E-01            NaN
         13   -1    0    0    0    0  0.00000000000E+00  0.00000000000E+00  0.74505805969E-08  0.10566000000E+00  0.10566000000E+00 0. -1.
     999900   -1    0    0    0    0 -0.00000000000E+00 -0.00000000000E+00 -0.74505805969E-08  0.93827000000E+00  0.93827000000E+00 0.  1.
     999902    2    1    2    0    0 -0.36418421454E-02  0.97212096707E-02  0.21059303144E-01  0.10204510907E+01  0.10201809493E+01 0.  0.
     999903    2    3    3    0    0  0.11277165799E+00  0.35068261268E-01  0.55343095190E-01  0.13176106916E+00  0.18732094534E-01 0.  0.
         14    1    1    2    0    0  0.36418421454E-02 -0.97212096707E-02 -0.21059303144E-01  0.23478909271E-01  0.00000000000E+00 0.  1.
     999901    1    3    3    0    0 -0.11641350014E+00 -0.25347051597E-01 -0.34283792047E-01  0.88869002157E+00  0.88000000000E+00 0.  1.
        -11    1    4    4    0    0  0.21656996960E-01  0.11775862563E-01  0.52637200563E-02  0.25212384383E-01  0.51100000000E-03 0. -1.
         11    1    4    4    0    0  0.91114661034E-01  0.23292398705E-01  0.50079375134E-01  0.10654868478E+00  0.51100000000E-03 0.  1.
</event>
<event>
 8    1  0.1103774E+005  0.1043930E+01  0.7957747E-01            NaN
         13   -1    0    0    0    0  0.00000000000E+00  0.00000000000E+00  0.74505805969E-08  0.10566000000E+00  0.10566000000E+00 0. -1.
     999900   -1    0    0    0    0 -0.00000000000E+00 -0.00000000000E+00 -0.74505805969E-08  0.93827000000E+00  0.93827000000E+00 0. -1.
     999902    2    1    2    0    0 -0.17401572811E-01 -0.10053849989E-01  0.90623837754E-02  0.10218841062E+01  0.10216462719E+01 0.  0.
     999903    2    3    3    0    0  0.26314003694E-01 -0.24222118874E-01 -0.12432009529E+00  0.13064750614E+00  0.18279686403E-01 0.  0.
         14    1    1    2    0    0  0.17401572811E-01  0.10053849989E-01 -0.90623837754E-02  0.22045893849E-01  0.00000000000E+00 0.  1.
     999901    1    3    3    0    0 -0.43715576505E-01  0.14168268886E-01  0.13338247907E+00  0.89123660001E+00  0.88000000000E+00 0.  1.
        -11    1    4    4    0    0 -0.59811252717E-03  0.19724571360E-02 -0.12736231712E-01  0.12912050378E-01  0.51100000000E-03 0. -1.
         11    1    4    4    0    0  0.26912116221E-01 -0.26194576010E-01 -0.11158386358E+00  0.11773545576E+00  0.51100000000E-03 0.  1.
</event>
<event>
 8    1  0.1103774E+005  0.1043930E+01  0.7957747E-01            NaN
         13   -1    0    0    0    0  0.00000000000E+00  0.00000000000E+00  0.74505805969E-08  0.10566000000E+00  0.10566000000E+00 0. -1.
     999900   -1    0    0    0    0 -0.00000000000E+00 -0.00000000000E+00 -0.74505805969E-08  0.93827000000E+00  0.93827000000E+00 0. -1.
     999902    2    1    2    0    0  0.13955239630E-01 -0.61474244879E-02 -0.22050011914E-01  0.10171206254E+01  0.10167672418E+01 0.  0.
     999903    2    3    3    0    0  0.10226896859E+00 -0.70045840462E-01 -0.34703218173E-01  0.13030473362E+00  0.20239776400E-01 0.  0.
         14    1    1    2    0    0 -0.13955239630E-01  0.61474244879E-02  0.22050011914E-01  0.26809374598E-01  0.00000000000E+00 0. -1.
     999901    1    3    3    0    0 -0.88313728965E-01  0.63898415974E-01  0.12653206259E-01  0.88681589178E+00  0.88000000000E+00 0.  1.
        -11    1    4    4    0    0  0.31419645550E-01 -0.10777441415E-01 -0.97307205675E-02  0.34616403824E-01  0.51100000000E-03 0. -1.
         11    1    4    4    0    0  0.70849323045E-01 -0.59268399047E-01 -0.24972497606E-01  0.95688329796E-01  0.51100000000E-03 0.  1.
</event>
<event>
 8    1  0.1103774E+005  0.1043930E+01  0.7957747E-01            NaN
         13   -1    0    0    0    0  0.00000000000E+00  0.00000000000E+00  0.74505805969E-08  0.10566000000E+00  0.10566000000E+00 0. -1.
     999900   -1    0    0    0    0 -0.00000000000E+00 -0.00000000000E+00 -0.74505805969E-08  0.93827000000E+00  0.93827000000E+00 0.  1.
     999902    2    1    2    0    0 -0.71572503459E-02 -0.93545061574E-02  0.19192771345E-01  0.10214112192E+01  0.10211629562E+01 0.  0.
     999903    2    3    3    0    0  0.18738179040E-01  0.36980599063E-01  0.12534024169E+00  0.13344455274E+00  0.19457348426E-01 0.  0.
         14    1    1    2    0    0  0.71572503459E-02  0.93545061574E-02 -0.19192771345E-01  0.22518780826E-01  0.00000000000E+00 0.  1.
     999901    1    3    3    0    0 -0.25895429385E-01 -0.46335105221E-01 -0.10614747035E+00  0.88796666644E+00  0.88000000000E+00 0.  1.
        -11    1    4    4    0    0  0.19685399893E-01  0.19961230495E-01  0.88778817580E-01  0.93101585721E-01  0.51100000000E-03 0. -1.
         11    1    4    4    0    0 -0.94722085353E-03  0.17019368568E-01  0.36561424111E-01  0.40342967019E-01  0.51100000000E-03 0.  1.
</event>
<event>
 8    1  0.1103774E+005  0.1043930E+01  0.7957747E-01            NaN
         13   -1    0    0    0    0  0.00000000000E+00  0.00000000000E+00  0.74505805969E-08  0.10566000000E+00  0.10566000000E+00 0.  1.
     999900   -1    0    0    0    0 -0.00000000000E+00 -0.00000000000E+00 -0.74505805969E-08  0.93827000000E+00  0.93827000000E+00 0. -1.
     999902    2    1    2    0    0 -0.91325175692E-02  0.19105622281E-01  0.74026807770E-02  0.10214972703E+01  0.10212509221E+01 0.  0.
     999903    2    3    3    0    0 -0.92403089900E-01  0.95052420394E-01  0.86915462522E-02  0.13430869645E+00  0.19748147272E-01 0.  0.
         14    1    1    2    0    0  0.91325175692E-02 -0.19105622281E-01 -0.74026807770E-02  0.22432729718E-01  0.00000000000E+00 0.  1.
     999901    1    3    3    0    0  0.83270572331E-01 -0.75946798112E-01 -0.12888654752E-02  0.88718857383E+00  0.88000000000E+00 0.  1.
        -11    1    4    4    0    0 -0.46233604866E-01  0.45330797172E-01  0.14001736881E-01  0.66247544466E-01  0.51100000000E-03 0.  1.
         11    1    4    4    0    0 -0.46169485034E-01  0.49721623222E-01 -0.53101906291E-02  0.68061151986E-01  0.51100000000E-03 0. -1.
</event>
<event>
 8    1  0.1103774E+005  0.1043930E+01  0.7957747E-01            NaN
         13   -1    0    0    0    0  0.00000000000E+00  0.00000000000E+00  0.74505805969E-08  0.10566000000E+00  0.10566000000E+00 0.  1.
     999900   -1    0    0    0    0 -0.00000000000E+00 -0.00000000000E+00 -0.74505805969E-08  0.93827000000E+00  0.93827000000E+00 0.  1.
     999902    2    1    2    0    0 -0.24262377785E-01  0.86683591356E-02 -0.18680299291E-02  0.10180979857E+01  0.10177702175E+01 0.  0.
     999903    2    3    3    0    0  0.10542625533E+00 -0.63327372015E-01 -0.48984441059E-02  0.12567896403E+00  0.25419596485E-01 0.  0.
         14    1    1    2    0    0  0.24262377785E-01 -0.86683591356E-02  0.18680299291E-02  0.25832014279E-01  0.00000000000E+00 0.  1.
     999901    1    3    3    0    0 -0.12968863312E+00  0.71995731151E-01  0.30304141768E-02  0.89241902169E+00  0.88000000000E+00 0. -1.
        -11    1    4    4    0    0  0.30112526993E-01 -0.26540083450E-01 -0.11045797434E-01  0.41634253607E-01  0.51100000000E-03 0.  1.
         11    1    4    4    0    0  0.75313728339E-01 -0.36787288565E-01  0.61473533278E-02  0.84044710424E-01  0.51100000000E-03 0. -1.
</event>
<event>
 8    1  0.1103774E+005  0.1043930E+01  0.7957747E-01            NaN
         13   -1    0    0    0    0  0.00000000000E+00  0.00000000000E+00  0.74505805969E-08  0.10566000000E+00  0.10566000000E+00 0.  1.
     999900   -1    0    0    0    0 -0.00000000000E+00 -0.00000000000E+00 -0.74505805969E-08  0.93827000000E+00  0.93827000000E+00 0.  1.
     999902    2    1    2    0    0 -0.70115641368E-02  0.22510444787E-01 -0.27990708893E-02  0.10201872758E+01  0.10199109572E+01 0.  0.
     999903    2    3    3    0    0 -0.10472433588E+00  0.24455294115E-01  0.71916018980E-01  0.13163006722E+00  0.24275767244E-01 0.  0.
         14    1    1    2    0    0  0.70115641368E-02 -0.22510444787E-01  0.27990708893E-02  0.23742724232E-01  0.00000000000E+00 0.  1.
     999901    1    3    3    0    0  0.97712771745E-01 -0.19448493282E-02 -0.74715089870E-01  0.88855720854E+00  0.88000000000E+00 0.  1.
        -11    1    4    4    0    0 -0.65315415066E-01  0.24863092647E-01  0.54071597707E-01  0.88364447720E-01  0.51100000000E-03 0. -1.
         11    1    4    4    0    0 -0.39408920816E-01 -0.40779853217E-03  0.17844421273E-01  0.43265619504E-01  0.51100000000E-03 0.  1.
</event>
<event>
 8    1  0.1103774E+005  0.1043930E+01  0.7957747E-01            NaN
         13   -1    0    0    0    0  0.00000000000E+00  0.00000000000E+00  0.74505805969E-08  0.10566000000E+00  0.10566000000E+00 0.  1.
     999900   -1    0    0    0    0 -0.00000000000E+00 -0.00000000000E+00 -0.74505805969E-08  0.93827000000E+00  0.93827000000E+00 0. -1.
     999902    2    1    2    0    0  0.89580218615E-02  0.89452048341E-02 -0.19868333256E-01  0.10203712753E+01  0.10200992725E+01 0.  0.
     999903    2    3    3    0    0  0.11418870029E+00 -0.60312501267E-01 -0.13231047147E-01  0.13137511154E+00  0.20191637852E-01 0.  0.
         14    1    1    2    0    0 -0.89580218615E-02 -0.89452048341E-02  0.19868333256E-01  0.23558724744E-01  0.00000000000E+00 0.  1.
     999901    1    3    3    0    0 -0.10523067843E+00  0.69257706101E-01 -0.66372861092E-02  0.88899616372E+00  0.88000000000E+00 0.  1.
        -11    1    4    4    0    0  0.83950548380E-01 -0.34021390654E-01 -0.10857129910E-01  0.91232055694E-01  0.51100000000E-03 0.  1.
         11    1    4    4    0    0  0.30238151914E-01 -0.26291110613E-01 -0.23739172367E-02  0.40143055844E-01  0.51100000000E-03 0. -1.
</event>
<event>
 8    1  0.1103774E+005  0.1043930E+01  0.7957747E-01            NaN
         13   -1    0    0    0    0  0.00000000000E+00  0.00000000000E+00  0.74505805969E-08  0.10566000000E+00  0.10566000000E+00 0. -1.
     999900   -1    0    0    0    0 -0.00000000000E+00 -0.00000000000E+00 -0.74505805969E-08  0.93827000000E+00  0.93827000000E+00 0. -1.
     999902    2    1    2    0    0 -0.20295011746E-01 -0.12848318417E-01  0.16752167377E-02  0.10198515212E+01  0.10195672377E+01 0.  0.
     999903    2    3    3    0    0 -0.37416227421E-01 -0.91795068541E-01 -0.85542756799E-01  0.13185788372E+00  0.15576571364E-01 0.  0.
         14    1    1    2    0    0  0.20295011746E-01  0.12848318417E-01 -0.16752167377E-02  0.24078478752E-01  0.00000000000E+00 0. -1.
     999901    1    3    3    0    0  0.17121215676E-01  0.78946750124E-01  0.87217973537E-01  0.88799363753E+00  0.88000000000E+00 0.  1.
        -11    1    4    4    0    0 -0.64093792824E-02 -0.16289340003E-01 -0.23610032393E-01  0.29395875410E-01  0.51100000000E-03 0.  1.
         11    1    4    4    0    0 -0.31006848139E-01 -0.75505728539E-01 -0.61932724406E-01  0.10246200831E+00  0.51100000000E-03 0. -1.
</event>
<event>
 8    1  0.1103774E+005  0.1043930E+01  0.7957747E-01            NaN
         13   -1    0    0    0    0  0.00000000000E+00  0.00000000000E+00  0.74505805969E-08  0.10566000000E+00  0.10566000000E+00 0. -1.
     999900   -1    0    0    0    0 -0.00000000000E+00 -0.00000000000E+00 -0.74505805969E-08  0.93827000000E+00  0.93827000000E+00 0. -1.
     999902    2    1    2    0    0  0.78047049540E-02 -0.19284697456E-01  0.86291695348E-02  0.10214072217E+01  0.10211588696E+01 0.  0.
     999903    2    3    3    0    0  0.35386095479E-01 -0.11076800352E+00  0.64438984632E-01  0.13447731249E+00  0.20249406817E-01 0.  0.
         14    1    1    2    0    0 -0.78047049540E-02  0.19284697456E-01 -0.86291695348E-02  0.22522778298E-01  0.00000000000E+00 0. -1.
     999901    1    3    3    0    0 -0.27581390525E-01  0.91483306068E-01 -0.55809815097E-01  0.88692990921E+00  0.88000000000E+00 0. -1.
        -11    1    4    4    0    0  0.87269857863E-02 -0.52507860831E-01  0.36715261290E-01  0.64664575021E-01  0.51100000000E-03 0. -1.
         11    1    4    4    0    0  0.26659109693E-01 -0.58260142692E-01  0.27723723342E-01  0.69812737470E-01  0.51100000000E-03 0.  1.
</event>
<event>
 8    1  0.1103774E+005  0.1043930E+01  0.7957747E-01            NaN
         13   -1    0    0    0    0  0.00000000000E+00  0.00000000000E+00  0.74505805969E-08  0.10566000000E+00  0.10566000000E+00 0.  1.
     999900   -1    0    0    0    0 -0.00000000000E+00 -0.00000000000E+00 -0.74505805969E-08  0.93827000000E+00  0.93827000000E+00 0.  1.
     999902    2    1    2    0    0 -0.11677518834E-01  0.70275264007E-02  0.18991253029E-01  0.10205544088E+01  0.10202866671E+01 0.  0.
     999903    2    3    3    0    0  0.75905393643E-01 -0.10164575938E+00  0.15563594029E-01  0.12954801236E+00  0.21141732768E-01 0.  0.
         14    1    1    2    0    0  0.11677518834E-01 -0.70275264007E-02 -0.18991253029E-01  0.23375591223E-01  0.00000000000E+00 0. -1.
     999901    1    3    3    0    0 -0.87582912477E-01  0.10867328578E+00  0.34276589999E-02  0.89100639641E+00  0.88000000000E+00 0.  1.
        -11    1    4    4    0    0  0.22545400525E-01 -0.27938971329E-01  0.14003489560E-01  0.38538812185E-01  0.51100000000E-03 0.  1.
         11    1    4    4    0    0  0.53359993118E-01 -0.73706788051E-01  0.15601044686E-02  0.91009200180E-01  0.51100000000E-03 0. -1.
</event>
<event>
 8    1  0.1103774E+005  0.1043930E+01  0.7957747E-01            NaN
         13   -1    0    0    0    0  0.00000000000E+00  0.00000000000E+00  0.74505805969E-08  0.10566000000E+00  0.10566000000E+00 0. -1.
     999900   -1    0    0    0    0 -0.00000000000E+00 -0.00000000000E+00 -0.74505805969E-08  0.93827000000E+00  0.93827000000E+00 0. -1.
     999902    2    1    2    0    0  0.11479686831E-01  0.21643290763E-01 -0.46789599374E-03  0.10194262417E+01  0.10191317030E+01 0.  0.
     999903    2    3    3    0    0  0.11826241868E+00 -0.24628962632E-01 -0.46039860704E-01  0.13059528069E+00  0.18516832704E-01 0.  0.
         14    1    1    2    0    0 -0.11479686831E-01 -0.21643290763E-01  0.46789599374E-03  0.24503758313E-01  0.00000000000E+00 0.  1.
     999901    1    3    3    0    0 -0.10678273185E+00  0.46272253395E-01  0.45571964710E-01  0.88883096099E+00  0.88000000000E+00 0. -1.
        -11    1    4    4    0    0  0.52224004386E-01 -0.20243294101E-01 -0.20177960621E-01  0.59536113461E-01  0.51100000000E-03 0.  1.
         11    1    4    4    0    0  0.66038414293E-01 -0.43856685309E-02 -0.25861900083E-01  0.71059167232E-01  0.51100000000E-03 0. -1.
</event>
<event>
 8    1  0.1103774E+005  0.1043930E+01  0.7957747E-01            NaN
         13   -1    0    0    0    0  0.00000000000E+00  0.00000000000E+00  0.74505805969E-08  0.10566000000E+00  0.10566000000E+00 0. -1.
     999900   -1    0    0    0    0 -0.00000000000E+00 -0.00000000000E+00 -0.74505805969E-08  0.93827000000E+00  0.93827000000E+00 0.  1.
     999902    2    1    2    0    0  0.27574507403E-01  0.15365001597E-01 -0.18945188712E-01  0.10071148277E+01  0.10064417119E+01 0.  0.
     999903    2    3    3    0    0 -0.63469008465E-01  0.32471753883E-01 -0.93329280821E-01  0.11913140678E+00  0.19980179853E-01 0.  0.
         14    1    1    2    0    0 -0.27574507403E-01 -0.15365001597E-01  0.18945188712E-01  0.36815172252E-01  0.00000000000E+00 0. -1.
     999901    1    3    3    0    0  0.91043515869E-01 -0.17106752286E-01  0.74384092110E-01  0.88798342097E+00  0.88000000000E+00 0. -1.
        -11    1    4    4    0    0 -0.48736884401E-01  0.17423725283E-01 -0.75471569318E-01  0.91515512347E-01  0.51100000000E-03 0.  1.
         11    1    4    4    0    0 -0.14732124065E-01  0.15048028600E-01 -0.17857711504E-01  0.27615894433E-01  0.51100000000E-03 0. -1.
</event>
<event>
 8    1  0.1103774E+005  0.1043930E+01  0.7957747E-01            NaN
         13   -1    0    0    0    0  0.00000000000E+00  0.00000000000E+00  0.74505805969E-08  0.10566000000E+00  0.10566000000E+00 0.  1.
     999900   -1    0    0    0    0 -0.00000000000E+00 -0.00000000000E+00 -0.74505805969E-08  0.93827000000E+00  0.93827000000E+00 0. -1.
     999902    2    1    2    0    0  0.80969525938E-02 -0.33667387415E-02  0.22004384601E-01  0.10202426930E+01  0.10199676780E+01 0.  0.
     999903    2    3    3    0    0  0.37395114540E-01 -0.76942575806E-01  0.10013463442E+00  0.13323867834E+00  0.20175376882E-01 0.  0.
         14    1    1    2    0    0 -0.80969525938E-02  0.33667387415E-02 -0.22004384601E-01  0.23687306996E-01  0.00000000000E+00 0. -1.
     999901    1    3    3    0    0 -0.29298161946E-01  0.73575837064E-01 -0.78130249818E-01  0.88700401466E+00  0.88000000000E+00 0. -1.
        -11    1    4    4    0    0  0.15780902667E-01 -0.54452239592E-01  0.65138848214E-01  0.86356319707E-01  0.51100000000E-03 0. -1.
         11    1    4    4    0    0  0.21614211873E-01 -0.22490336214E-01  0.34995786205E-01  0.46882358633E-01  0.51100000000E-03 0.  1.
</event>
<event>
 8    1  0.1103774E+005  0.1043930E+01  0.7957747E-01            NaN
         13   -1    0    0    0    0  0.00000000000E+00  0.00000000000E+00  0.74505805969E-08  0.10566000000E+00  0.10566000000E+00 0.  1.
     999900   -1    0    0    0    0 -0.00000000000E+00 -0.00000000000E+00 -0.74505805969E-08  0.93827000000E+00  0.93827000000E+00 0. -1.
     999902    2    1    2    0    0 -0.93046816380E-02 -0.21757357401E-01  0.56588055648E-02  0.10195993243E+01  0.10193089817E+01 0.  0.
     999903    2    3    3    0    0 -0.12041337189E+00  0.27520801444E-01 -0.36351224260E-01  0.13025219260E+00  0.19683686926E-01 0.  0.
         14    1    1    2    0    0  0.93046816380E-02  0.21757357401E-01 -0.56588055648E-02  0.24330675738E-01  0.00000000000E+00 0.  1.
     999901    1    3    3    0    0  0.11110869025E+00 -0.49278158845E-01  0.42010029825E-01  0.88934713166E+00  0.88000000000E+00 0. -1.
        -11    1    4    4    0    0 -0.13218069388E-01  0.32276767158E-02  0.21594767935E-02  0.13786214722E-01  0.51100000000E-03 0.  1.
         11    1    4    4    0    0 -0.10719530250E+00  0.24293124728E-01 -0.38510701054E-01  0.11646597788E+00  0.51100000000E-03 0. -1.
</event>
<event>
 8    1  0.1103774E+005  0.1043930E+01  0.7957747E-01            NaN
         13   -1    0    0    0    0  0.00000000000E+00  0.00000000000E+00  0.74505805969E-08  0.10566000000E+00  0.10566000000E+00 0.  1.
     999900   -1    0    0    0    0 -0.00000000000E+00 -0.00000000000E+00 -0.74505805969E-08  0.93827000000E+00  0.93827000000E+00 0.  1.
     999902    2    1    2    0    0 -0.48396421317E-02  0.12609140833E-01  0.19704218264E-01  0.10200413252E+01  0.10197615585E+01 0.  0.
     999903    2    3    3    0    0  0.79506849268E-01 -0.41653191410E-01 -0.88726778798E-01  0.12773195479E+00  0.19664271253E-01 0.  0.
         14    1    1    2    0    0  0.48396421317E-02 -0.12609140833E-01 -0.19704218264E-01  0.23888674846E-01  0.00000000000E+00 0. -1.
     999901    1    3    3    0    0 -0.84346491399E-01  0.54262332243E-01  0.10843099706E+00  0.89230937036E+00  0.88000000000E+00 0. -1.
        -11    1    4    4    0    0  0.53302215182E-02 -0.93146693407E-02 -0.77067225044E-02  0.13222292506E-01  0.51100000000E-03 0. -1.
         11    1    4    4    0    0  0.74176627749E-01 -0.32338522069E-01 -0.81020056294E-01  0.11450966229E+00  0.51100000000E-03 0.  1.
</event>
<event>
 8    1  0.1103774E+005  0.1043930E+01  0.7957747E-01            NaN
         13   -1    0    0    0    0  0.00000000000E+00  0.00000000000E+00  0.74505805969E-08  0.10566000000E+00  0.10566000000E+00 0.  1.
     999900   -1    0    0    0    0 -0.00000000000E+00 -0.00000000000E+00 -0.74505805969E-08  0.93827000000E+00  0.93827000000E+00 0. -1.
     999902    2    1    2    0    0 -0.14096565049E-01  0.90975876240E-02  0.16492850577E-01  0.10204035603E+01  0.10201323112E+01 0.  0.
     999903    2    3    3    0    0 -0.28031405656E-01  0.11882112149E+00 -0.44949332904E-01  0.13135430652E+00  0.18146423818E-01 0.  0.
         14    1    1    2    0    0  0.14096565049E-01 -0.90975876240E-02 -0.16492850577E-01  0.23526439741E-01  0.00000000000E+00 0. -1.
     999901    1    3    3    0    0  0.13934840607E-01 -0.10972353386E+00  0.61442183480E-01  0.88904925374E+00  0.88000000000E+00 0.  1.
        -11    1    4    4    0    0 -0.21843332119E-02  0.47275958736E-01 -0.16026313790E-01  0.49968904738E-01  0.51100000000E-03 0.  1.
         11    1    4    4    0    0 -0.25847072444E-01  0.71545162753E-01 -0.28923019114E-01  0.81385401780E-01  0.51100000000E-03 0. -1.
</event>
<event>
 8    1  0.1103774E+005  0.1043930E+01  0.7957747E-01            NaN
         13   -1    0    0    0    0  0.00000000000E+00  0.00000000000E+00  0.74505805969E-08  0.10566000000E+00  0.10566000000E+00 0. -1.
     999900   -1    0    0    0    0 -0.00000000000E+00 -0.00000000000E+00 -0.74505805969E-08  0.93827000000E+00  0.93827000000E+00 0. -1.
     999902    2    1    2    0    0 -0.19082547657E-01  0.12366349071E-01  0.14378429096E-02  0.10211454086E+01  0.10208911832E+01 0.  0.
     999903    2    3    3    0    0 -0.10604092139E+00 -0.61985680071E-01  0.45651585277E-01  0.13263832474E+00  0.20541577572E-01 0.  0.
         14    1    1    2    0    0  0.19082547657E-01 -0.12366349071E-01 -0.14378429096E-02  0.22784591430E-01  0.00000000000E+00 0.  1.
     999901    1    3    3    0    0  0.86958373731E-01  0.74352029142E-01 -0.44213742368E-01  0.88850708383E+00  0.88000000000E+00 0. -1.
        -11    1    4    4    0    0 -0.72652044128E-01 -0.48292207062E-01  0.23723073848E-01  0.90407422996E-01  0.51100000000E-03 0.  1.
         11    1    4    4    0    0 -0.33388877260E-01 -0.13693473009E-01  0.21928511430E-01  0.42230901746E-01  0.51100000000E-03 0. -1.
</event>
<event>
 7    1  0.1103774E+005  0.1043930E+01  0.7957747E-01            NaN
         13   -1    0    0    0    0  0.00000000000E+00  0.00000000000E+00  0.74505805969E-08  0.10566000000E+00  0.10566000000E+00 0.  1.
     999900   -1    0    0    0    0 -0.00000000000E+00 -0.00000000000E+00 -0.74505805969E-08  0.93827000000E+00  0.93827000000E+00 0. -1.
     999903    2    1    2    0    0  0.10994055453E+00  0.18440023831E-01 -0.68938816705E-02  0.11330108556E+00  0.19043381436E-01 0.  0.
         14    1    1    2    0    0 -0.41497861541E-01  0.20565076630E-01  0.86135193379E-02  0.47108254103E-01  0.00000000000E+00 0.  1.
     999901    1    1    2    0    0 -0.68442692986E-01 -0.39005100461E-01 -0.17196376674E-02  0.88352066034E+00  0.88000000000E+00 0. -1.
        -11    1    3    3    0    0  0.69624054633E-01  0.95457595861E-02  0.46430714102E-02  0.70430460333E-01  0.51100000000E-03 0.  1.
         11    1    3    3    0    0  0.40316499894E-01  0.88942642447E-02 -0.11536953081E-01  0.42870625229E-01  0.51100000000E-03 0. -1.
</event>
<event>
 8    1  0.1103774E+005  0.1043930E+01  0.7957747E-01            NaN
         13   -1    0    0    0    0  0.00000000000E+00  0.00000000000E+00  0.74505805969E-08  0.10566000000E+00  0.10566000000E+00 0. -1.
     999900   -1    0    0    0    0 -0.00000000000E+00 -0.00000000000E+00 -0.74505805969E-08  0.93827000000E+00  0.93827000000E+00 0.  1.
     999902    2    1    2    0    0 -0.97040297247E-02 -0.98808473012E-02 -0.20445447777E-01  0.10192355538E+01  0.10189363565E+01 0.  0.
     999903    2    3    3    0    0 -0.20671245147E-01  0.12535326678E+00 -0.98798446434E-03  0.12862501140E+00  0.20066777919E-01 0.  0.
         14    1    1    2    0    0  0.97040297247E-02  0.98808473012E-02  0.20445447777E-01  0.24694446159E-01  0.00000000000E+00 0. -1.
     999901    1    3    3    0    0  0.10967215423E-01 -0.13523411408E+00 -0.19457463313E-01  0.89061054244E+00  0.88000000000E+00 0. -1.
        -11    1    4    4    0    0 -0.12829963734E-01  0.11401688634E+00 -0.23731135953E-02  0.11476215024E+00  0.51100000000E-03 0.  1.
         11    1    4    4    0    0 -0.78412814136E-02  0.11336380446E-01  0.13851291309E-02  0.13862861160E-01  0.51100000000E-03 0. -1.
</event>
<event>
 8    1  0.1103774E+005  0.1043930E+01  0.7957747E-01            NaN
         13   -1    0    0    0    0  0.00000000000E+00  0.00000000000E+00  0.74505805969E-08  0.10566000000E+00  0.10566000000E+00 0.  1.
     999900   -1    0    0    0    0 -0.00000000000E+00 -0.00000000000E+00 -0.74505805969E-08  0.93827000000E+00  0.93827000000E+00 0.  1.
     999902    2    1    2    0    0 -0.93864262034E-02 -0.20191961077E-01 -0.83890574095E-04  0.10216628195E+01  0.10214201337E+01 0.  0.
     999903    2    3    3    0    0  0.11481056544E+00  0.43319827387E-01 -0.36683331429E-01  0.12992397934E+00  0.21828885029E-01 0.  0.
         14    1    1    2    0    0  0.93864262034E-02  0.20191961077E-01  0.83890574095E-04  0.22267180482E-01  0.00000000000E+00 0.  1.
     999901    1    3    3    0    0 -0.12419699164E+00 -0.63511788464E-01  0.36599440855E-01  0.89173884018E+00  0.88000000000E+00 0. -1.
        -11    1    4    4    0    0  0.40006817891E-01  0.10586062610E-01 -0.22301933270E-01  0.47013269913E-01  0.51100000000E-03 0.  1.
         11    1    4    4    0    0  0.74803747550E-01  0.32733764777E-01 -0.14381398160E-01  0.82910709429E-01  0.51100000000E-03 0. -1.
</event>
<event>
 8    1  0.1103774E+005  0.1043930E+01  0.7957747E-01            NaN
         13   -1    0    0    0    0  0.00000000000E+00  0.00000000000E+00  0.74505805969E-08  0.10566000000E+00  0.10566000000E+00 0.  1.
     999900   -1    0    0    0    0 -0.00000000000E+00 -0.00000000000E+00 -0.74505805969E-08  0.93827000000E+00  0.93827000000E+00 0. -1.
     999902    2    1    2    0    0  0.97362995556E-02 -0.19844644714E-01 -0.50065794259E-02  0.10212656824E+01  0.10210141639E+01 0.  0.
     999903    2    3    3    0    0 -0.33946697553E-01  0.12165428257E+00 -0.14026274872E-01  0.12884677545E+00  0.21274689521E-01 0.  0.
         14    1    1    2    0    0 -0.97362995556E-02  0.19844644714E-01  0.50065794259E-02  0.22664317559E-01  0.00000000000E+00 0.  1.
     999901    1    3    3    0    0  0.43682997109E-01 -0.14149892728E+00  0.90196954463E-02  0.89241890700E+00  0.88000000000E+00 0.  1.
        -11    1    4    4    0    0 -0.19049522083E-01  0.54310385164E-01  0.35589216697E-02  0.57666535119E-01  0.51100000000E-03 0. -1.
         11    1    4    4    0    0 -0.14897175470E-01  0.67343897403E-01 -0.17585196542E-01  0.71180240326E-01  0.51100000000E-03 0.  1.
</event>
<event>
 8    1  0.1103774E+005  0.1043930E+01  0.7957747E-01            NaN
         13   -1    0    0    0    0  0.00000000000E+00  0.00000000000E+00  0.74505805969E-08  0.10566000000E+00  0.10566000000E+00 0.  1.
     999900   -1    0    0    0    0 -0.00000000000E+00 -0.00000000000E+00 -0.74505805969E-08  0.93827000000E+00  0.93827000000E+00 0. -1.
     999902    2    1    2    0    0  0.11492109692E-01 -0.19889094352E-01  0.67312112216E-02  0.10199935453E+01  0.10197126451E+01 0.  0.
     999903    2    3    3    0    0  0.29740598738E-02  0.28355936903E-01 -0.12368453105E+00  0.12903428358E+00  0.23218073287E-01 0.  0.
         14    1    1    2    0    0 -0.11492109692E-01  0.19889094352E-01 -0.67312112216E-02  0.23936454704E-01  0.00000000000E+00 0.  1.
     999901    1    3    3    0    0  0.85180498179E-02 -0.48245031254E-01  0.13041574227E+00  0.89095926172E+00  0.88000000000E+00 0.  1.
        -11    1    4    4    0    0 -0.88380744680E-02  0.15169003095E-01 -0.79812912994E-01  0.81722533103E-01  0.51100000000E-03 0. -1.
         11    1    4    4    0    0  0.11812134342E-01  0.13186933807E-01 -0.43871618055E-01  0.47311750472E-01  0.51100000000E-03 0.  1.
</event>
<event>
 8    1  0.1103774E+005  0.1043930E+01  0.7957747E-01            NaN
         13   -1    0    0    0    0  0.00000000000E+00  0.00000000000E+00  0.74505805969E-08  0.10566000000E+00  0.10566000000E+00 0. -1.
     999900   -1    0    0    0    0 -0.00000000000E+00 -0.00000000000E+00 -0.74505805969E-08  0.93827000000E+00  0.93827000000E+00 0. -1.
     999902    2    1    2    0    0 -0.17579696030E-01 -0.12692168800E-01 -0.87545366408E-02  0.10205466988E+01  0.10202787784E+01 0.  0.
     999903    2    3    3    0    0  0.94104924307E-01  0.82746642228E-01  0.16603376784E-01  0.12800815914E+00  0.20190916465E-01 0.  0.
         14    1    1    2    0    0  0.17579696030E-01  0.12692168800E-01  0.87545366408E-02  0.23383301161E-01  0.00000000000E+00 0.  1.
     999901    1    3    3    0    0 -0.11168462034E+00 -0.95438811028E-01 -0.25357913425E-01  0.89253853970E+00  0.88000000000E+00 0.  1.
        -11    1    4    4    0    0  0.31964588454E-01  0.40462566921E-01  0.10247567247E-01  0.52575925977E-01  0.51100000000E-03 0. -1.
         11    1    4    4    0    0  0.62140335853E-01  0.42284075306E-01  0.63558095369E-02  0.75432233166E-01  0.51100000000E-03 0.  1.
</event>
<event>
 8    1  0.1103774E+005  0.1043930E+01  0.7957747E-01            NaN
         13   -1    0    0    0    0  0.00000000000E+00  0.00000000000E+00  0.74505805969E-08  0.10566000000E+00  0.10566000000E+00 0. -1.
     999900   -1    0    0    0    0 -0.00000000000E+00 -0.00000000000E+00 -0.74505805969E-08  0.93827000000E+00  0.93827000000E+00 0. -1.
     999902    2    1    2    0    0  0.10488875980E-01  0.18491438818E-01 -0.95718570697E-02  0.10206154064E+01  0.10203490763E+01 0.  0.
     999903    2    3    3    0    0  0.10987601214E+00  0.72547154840E-01 -0.72339988411E-02  0.13336950535E+00  0.19981654109E-01 0.  0.
         14    1    1    2    0    0 -0.10488875980E-01 -0.18491438818E-01  0.95718570697E-02  0.23314593641E-01  0.00000000000E+00 0.  1.
     999901    1    3    3    0    0 -0.99387136157E-01 -0.54055716022E-01 -0.23378582287E-02  0.88724590100E+00  0.88000000000E+00 0. -1.
        -11    1    4    4    0    0  0.48010684126E-01  0.38385713348E-01 -0.11624035848E-01  0.62560915194E-01  0.51100000000E-03 0.  1.
         11    1    4    4    0    0  0.61865328011E-01  0.34161441491E-01  0.43900370070E-02  0.70808590161E-01  0.51100000000E-03 0. -1.
</event>
<event>
 8    1  0.1103774E+005  0.1043930E+01  0.7957747E-01            NaN
         13   -1    0    0    0    0  0.00000000000E+00  0.00000000000E+00  0.74505805969E-08  0.10566000000E+00  0.10566000000E+00 0. -1.
     999900   -1    0    0    0    0 -0.00000000000E+00 -0.00000000000E+00 -0.74505805969E-08  0.93827000000E+00  0.93827000000E+00 0.  1.
     999902    2    1    2    0    0 -0.12537207955E-01 -0.13949448943E-01  0.41537094705E-02  0.10247200544E+01  0.10245399786E+01 0.  0.
     999903    2    3    3    0    0  0.20940230760E-01 -0.45430690438E-01 -0.12329027660E+00  0.13435283964E+00  0.18648118332E-01 0.  0.
         14    1    1    2    0    0  0.12537207955E-01  0.13949448943E-01 -0.41537094705E-02  0.19209945640E-01  0.00000000000E+00 0.  1.
     999901    1    3    3    0    0 -0.33477438715E-01  0.31481241495E-01  0.12744398607E+00  0.89036721472E+00  0.88000000000E+00 0. -1.
        -11    1    4    4    0    0  0.12626798986E-01 -0.29618726271E-01 -0.99608333078E-01  0.10468422106E+00  0.51100000000E-03 0.  1.
         11    1    4    4    0    0  0.83134317740E-02 -0.15811964167E-01 -0.23681943519E-01  0.29668618581E-01  0.51100000000E-03 0. -1.
</event>
<event>
 8    1  0.1103774E+005  0.1043930E+01  0.7957747E-01            NaN
         13   -1    0    0    0    0  0.00000000000E+00  0.00000000000E+00  0.74505805969E-08  0.10566000000E+00  0.10566000000E+00 0.  1.
     999900   -1    0    0    0    0 -0.00000000000E+00 -0.00000000000E+00 -0.74505805969E-08  0.93827000000E+00  0.93827000000E+00 0. -1.
     999902    2    1    2    0    0  0.19589448006E-01 -0.83971906837E-02 -0.12860265388E-01  0.10190373161E+01  0.10187332359E+01 0.  0.
     999903    2    3    3    0    0 -0.36115579331E-02 -0.10730052914E+00  0.69404500779E-01  0.12938140018E+00  0.19902639968E-01 0.  0.
         14    1    1    2    0    0 -0.19589448006E-01  0.83971906837E-02  0.12860265388E-01  0.24892683873E-01  0.00000000000E+00 0.  1.
     999901    1    3    3    0    0  0.23201005939E-01  0.98903338460E-01 -0.82264766166E-01  0.88965591595E+00  0.88000000000E+00 0.  1.
        -11    1    4    4    0    0 -0.70186703855E-02 -0.16539177803E-01  0.75638578533E-02  0.19500748781E-01  0.51100000000E-03 0. -1.
         11    1    4    4    0    0  0.34071124525E-02 -0.90761351341E-01  0.61840642925E-01  0.10988065139E+00  0.51100000000E-03 0.  1.
</event>
<event>
 8    1  0.1103774E+005  0.1043930E+01  0.7957747E-01            NaN
         13   -1    0    0    0    0  0.00000000000E+00  0.00000000000E+00  0.74505805969E-08  0.10566000000E+00  0.10566000000E+00 0.  1.
     999900   -1    0    0    0    0 -0.00000000000E+00 -0.00000000000E+00 -0.74505805969E-08  0.93827000000E+00  0.93827000000E+00 0.  1.
     999902    2    1    2    0    0  0.10164588046E-01  0.18554486091E-01 -0.65044856816E-02  0.10217964025E+01  0.10215566514E+01 0.  0.
     999903    2    3    3    0    0  0.30498665244E-01 -0.11522717134E+00  0.46706767300E-01  0.12986454187E+00  0.21813012791E-01 0.  0.
         14    1    1    2    0    0 -0.10164588046E-01 -0.18554486091E-01  0.65044856816E-02  0.22133597498E-01  0.00000000000E+00 0. -1.
     999901    1    3    3    0    0 -0.20334077198E-01  0.13378165743E+00 -0.53211252982E-01  0.89193186063E+00  0.88000000000E+00 0.  1.
        -11    1    4    4    0    0  0.14975803285E-01 -0.87960665814E-01  0.39963203490E-01  0.97768462035E-01  0.51100000000E-03 0. -1.
         11    1    4    4    0    0  0.15522861959E-01 -0.27266505528E-01  0.67435638104E-02  0.32096079838E-01  0.51100000000E-03 0.  1.
</event>
<event>
 8    1  0.1103774E+005  0.1043930E+01  0.7957747E-01            NaN
         13   -1    0    0    0    0  0.00000000000E+00  0.00000000000E+00  0.74505805969E-08  0.10566000000E+00  0.10566000000E+00 0. -1.
     999900   -1    0    0    0    0 -0.00000000000E+00 -0.00000000000E+00 -0.74505805969E-08  0.93827000000E+00  0.93827000000E+00 0.  1.
     999902    2    1    2    0    0 -0.20685546469E-01  0.11075263389E-01  0.12478132239E-02  0.10204329719E+01  0.10201624085E+01 0.  0.
     999903    2    3    3    0    0  0.84068019760E-01 -0.66883727292E-01 -0.67070863133E-01  0.12817832472E+00  0.19756450188E-01 0.  0.
         14    1    1    2    0    0  0.20685546469E-01 -0.11075263389E-01 -0.12478132239E-02  0.23497028104E-01  0.00000000000E+00 0. -1.
     999901    1    3    3    0    0 -0.10475356623E+00  0.77958990681E-01  0.68318676357E-01  0.89225464717E+00  0.88000000000E+00 0. -1.
        -11    1    4    4    0    0  0.28497436282E-01 -0.32731013579E-01 -0.33443927709E-01  0.54792157706E-01  0.51100000000E-03 0. -1.
         11    1    4    4    0    0  0.55570583478E-01 -0.34152713713E-01 -0.33626935425E-01  0.73386167015E-01  0.51100000000E-03 0.  1.
</event>
<event>
 8    1  0.1103774E+005  0.1043930E+01  0.7957747E-01            NaN
         13   -1    0    0    0    0  0.00000000000E+00  0.00000000000E+00  0.74505805969E-08  0.10566000000E+00  0.10566000000E+00 0.  1.
     999900   -1    0    0    0    0 -0.00000000000E+00 -0.00000000000E+00 -0.74505805969E-08  0.93827000000E+00  0.93827000000E+00 0. -1.
     999902    2    1    2    0    0  0.11223167987E-01 -0.10844475425E-02  0.19247014325E-01  0.10216234295E+01  0.10213798748E+01 0.  0.
     999903    2    3    3    0    0 -0.87421884331E-02 -0.12980922537E+00  0.70137701395E-02  0.13195026698E+00  0.20852317253E-01 0.  0.
         14    1    1    2    0    0 -0.11223167987E-01  0.10844475425E-02 -0.19247014325E-01  0.22306570479E-01  0.00000000000E+00 0. -1.
     999901    1    3    3    0    0  0.19965356420E-01  0.12872477783E+00  0.12233244185E-01  0.88967316254E+00  0.88000000000E+00 0. -1.
        -11    1    4    4    0    0 -0.13792308686E-01 -0.53094322276E-01  0.41150645830E-02  0.55012995868E-01  0.51100000000E-03 0.  1.
         11    1    4    4    0    0  0.50501202531E-02 -0.76714903093E-01  0.28987055565E-02  0.76937271111E-01  0.51100000000E-03 0. -1.
</event>
<event>
 8    1  0.1103774E+005  0.1043930E+01  0.7957747E-01            NaN
         13   -1    0    0    0    0  0.00000000000E+00  0.00000000000E+00  0.74505805969E-08  0.10566000000E+00  0.10566000000E+00 0.  1.
     999900   -1    0    0    0    0 -0.00000000000E+00 -0.00000000000E+00 -0.74505805969E-08  0.93827000000E+00  0.93827000000E+00 0.  1.
     999902    2    1    2    0    0  0.20621180782E-01 -0.28461747661E-02  0.11043684593E-01  0.10203652641E+01  0.10200931210E+01 0.  0.
     999903    2    3    3    0    0 -0.11476721117E+00 -0.53262420545E-01  0.63558766613E-02  0.12857280505E+00  0.21958388551E-01 0.  0.
         14    1    1    2    0    0 -0.20621180782E-01  0.28461747661E-02 -0.11043684593E-01  0.23564735879E-01  0.00000000000E+00 0. -1.
     999901    1    3    3    0    0  0.13538839195E+00  0.50416245779E-01  0.46878079315E-02  0.89179245907E+00  0.88000000000E+00 0.  1.
        -11    1    4    4    0    0 -0.94633684780E-01 -0.52509090472E-01  0.42661995859E-02  0.10831066640E+00  0.51100000000E-03 0. -1.
         11    1    4    4    0    0 -0.20133526392E-01 -0.75333007288E-03  0.20896770754E-02  0.20262138644E-01  0.51100000000E-03 0.  1.
</event>
<event>
 8    1  0.1103774E+005  0.1043930E+01  0.7957747E-01            NaN
         13   -1    0    0    0    0  0.00000000000E+00  0.00000000000E+00  0.74505805969E-08  0.10566000000E+00  0.10566000000E+00 0. -1.
     999900   -1    0    0    0    0 -0.00000000000E+00 -0.00000000000E+00 -0.74505805969E-08  0.93827000000E+00  0.93827000000E+00 0.  1.
     999902    2    1    2    0    0  0.19402607458E-01 -0.10674933562E-01  0.52575606279E-02  0.10211691273E+01  0.10209154369E+01 0.  0.
     999903    2    3    3    0    0  0.51265932015E-02  0.10581942553E+00  0.73962041376E-01  0.13072258428E+00  0.19848871497E-01 0.  0.
         14    1    1    2    0    0 -0.19402607458E-01  0.10674933562E-01 -0.52575606279E-02  0.22760872709E-01  0.00000000000E+00 0.  1.
     999901    1    3    3    0    0  0.14276014257E-01 -0.11649435909E+00 -0.68704480748E-01  0.89044654301E+00  0.88000000000E+00 0. -1.
        -11    1    4    4    0    0 -0.55229468409E-02  0.66080652691E-01  0.40622984851E-01  0.77766597078E-01  0.51100000000E-03 0.  1.
         11    1    4    4    0    0  0.10649540042E-01  0.39738772838E-01  0.33339056524E-01  0.52955987203E-01  0.51100000000E-03 0. -1.
</event>
<event>
 8    1  0.1103774E+005  0.1043930E+01  0.7957747E-01            NaN
         13   -1    0    0    0    0  0.00000000000E+00  0.00000000000E+00  0.74505805969E-08  0.10566000000E+00  0.10566000000E+00 0.  1.
     999900   -1    0    0    0    0 -0.00000000000E+00 -0.00000000000E+00 -0.74505805969E-08  0.93827000000E+00  0.93827000000E+00 0.  1.
     999902    2    1    2    0    0 -0.20702357138E-01 -0.78333321991E-02 -0.72393648695E-02  0.10206414387E+01  0.10203757099E+01 0.  0.
     999903    2    3    3    0    0  0.12032077269E+00  0.31165722473E-02  0.39424054714E-01  0.12812538937E+00  0.19366412901E-01 0.  0.
         14    1    1    2    0    0  0.20702357138E-01  0.78333321991E-02  0.72393648695E-02  0.23288561315E-01  0.00000000000E+00 0.  1.
     999901    1    3    3    0    0 -0.14102312983E+00 -0.10949904446E-01 -0.46663419584E-01  0.89251604931E+00  0.88000000000E+00 0.  1.
        -11    1    4    4    0    0  0.78983604492E-01 -0.70165842029E-02  0.23920544806E-01  0.82825695392E-01  0.51100000000E-03 0. -1.
         11    1    4    4    0    0  0.41337168197E-01  0.10133156450E-01  0.15503509908E-01  0.45299693980E-01  0.51100000000E-03 0.  1.
</event>
<event>
 8    1  0.1103774E+005  0.1043930E+01  0.7957747E-01            NaN
         13   -1    0    0    0    0  0.00000000000E+00  0.00000000000E+00  0.74505805969E-08  0.10566000000E+00  0.10566000000E+00 0.  1.
     999900   -1    0    0    0    0 -0.00000000000E+00 -0.00000000000E+00 -0.74505805969E-08  0.93827000000E+00  0.93827000000E+00 0.  1.
     999902    2    1    2    0    0 -0.22989179966E-01  0.18023430803E-02  0.34792143670E-02  0.10206092846E+01  0.10203428130E+01 0.  0.
     999903    2    3    3    0    0 -0.44470782394E-01  0.12124675831E+00  0.19291162253E-01  0.13213956348E+00  0.20255577259E-01 0.  0.
         14    1    1    2    0    0  0.22989179966E-01 -0.18023430803E-02 -0.34792143670E-02  0.23320715442E-01  0.00000000000E+00 0. -1.
     999901    1    3    3    0    0  0.21481602428E-01 -0.11944441523E+00 -0.15811947886E-01  0.88846972108E+00  0.88000000000E+00 0.  1.
        -11    1    4    4    0    0 -0.31190133806E-01  0.65386222330E-01  0.18253635062E-01  0.74710366291E-01  0.51100000000E-03 0. -1.
         11    1    4    4    0    0 -0.13280648588E-01  0.55860535976E-01  0.10375271909E-02  0.57429197192E-01  0.51100000000E-03 0.  1.
</event>
<event>
 8    1  0.1103774E+005  0.1043930E+01  0.7957747E-01            NaN
         13   -1    0    0    0    0  0.00000000000E+00  0.00000000000E+00  0.74505805969E-08  0.10566000000E+00  0.10566000000E+00 0.  1.
     999900   -1    0    0    0    0 -0.00000000000E+00 -0.00000000000E+00 -0.74505805969E-08  0.93827000000E+00  0.93827000000E+00 0.  1.
     999902    2    1    2    0    0 -0.82369216305E-02 -0.14269685979E-01 -0.16760247121E-01  0.10204273044E+01  0.10201566090E+01 0.  0.
     999903    2    3    3    0    0  0.10469268789E+00 -0.48685481610E-01 -0.59961643414E-01  0.13149316494E+00  0.19084515381E-01 0.  0.
         14    1    1    2    0    0  0.82369216305E-02  0.14269685979E-01  0.16760247121E-01  0.23502695578E-01  0.00000000000E+00 0.  1.
     999901    1    3    3    0    0 -0.11292960952E+00  0.34415795632E-01  0.43201396293E-01  0.88893413948E+00  0.88000000000E+00 0.  1.
        -11    1    4    4    0    0  0.32855375349E-01 -0.25141437049E-01 -0.23105035931E-01  0.47388514986E-01  0.51100000000E-03 0. -1.
         11    1    4    4    0    0  0.71837312542E-01 -0.23544044561E-01 -0.36856607484E-01  0.84104649953E-01  0.51100000000E-03 0.  1.
</event>
<event>
 8    1  0.1103774E+005  0.1043930E+01  0.7957747E-01            NaN
         13   -1    0    0    0    0  0.00000000000E+00  0.00000000000E+00  0.74505805969E-08  0.10566000000E+00  0.10566000000E+00 0.  1.
     999900   -1    0    0    0    0 -0.00000000000E+00 -0.00000000000E+00 -0.74505805969E-08  0.93827000000E+00  0.93827000000E+00 0.  1.
     999902    2    1    2    0    0  0.28156511837E-02  0.29786022072E-03  0.14762928088E-01  0.10288980122E+01  0.10287881992E+01 0.  0.
     999903    2    3    3    0    0  0.10659091769E+00  0.86067149559E-01 -0.24389428165E-02  0.13849272170E+00  0.20127283874E-01 0.  0.
         14    1    1    2    0    0 -0.28156511837E-02 -0.29786022072E-03 -0.14762928088E-01  0.15031987827E-01  0.00000000000E+00 0. -1.
     999901    1    3    3    0    0 -0.10377526650E+00 -0.85769289338E-01  0.17201870905E-01  0.89040529047E+00  0.88000000000E+00 0. -1.
        -11    1    4    4    0    0  0.46147049062E-01  0.32305260592E-01 -0.10114124780E-01  0.57234051404E-01  0.51100000000E-03 0. -1.
         11    1    4    4    0    0  0.60443868626E-01  0.53761888966E-01  0.76751819630E-02  0.81258670300E-01  0.51100000000E-03 0.  1.
</event>
<event>
 8    1  0.1103774E+005  0.1043930E+01  0.7957747E-01            NaN
         13   -1    0    0    0    0  0.00000000000E+00  0.00000000000E+00  0.74505805969E-08  0.10566000000E+00  0.10566000000E+00 0.  1.
     999900   -1    0    0    0    0 -0.00000000000E+00 -0.00000000000E+00 -0.74505805969E-08  0.93827000000E+00  0.93827000000E+00 0.  1.
     999902    2    1    2    0    0  0.38250532015E-02 -0.18836914731E-01  0.16479339202E-01  0.10186114493E+01  0.10182967424E+01 0.  0.
     999903    2    3    3    0    0  0.79867204692E-01 -0.38078982865E-01 -0.91153430170E-01  0.12859039392E+00  0.19943977935E-01 0.  0.
         14    1    1    2    0    0 -0.38250532015E-02  0.18836914731E-01 -0.16479339202E-01  0.25318550692E-01  0.00000000000E+00 0.  1.
     999901    1    3    3    0    0 -0.76042151490E-01  0.19242068133E-01  0.10763276937E+00  0.89002105539E+00  0.88000000000E+00 0. -1.
        -11    1    4    4    0    0  0.41808853856E-01 -0.28830617330E-01 -0.43223504881E-01  0.66691208203E-01  0.51100000000E-03 0.  1.
         11    1    4    4    0    0  0.38058350836E-01 -0.92483655346E-02 -0.47929925289E-01  0.61899185718E-01  0.51100000000E-03 0. -1.
</event>
<event>
 7    1  0.1103774E+005  0.1043930E+01  0.7957747E-01            NaN
         13   -1    0    0    0    0  0.00000000000E+00  0.00000000000E+00  0.74505805969E-08  0.10566000000E+00  0.10566000000E+00 0. -1.
     999900   -1    0    0    0    0 -0.00000000000E+00 -0.00000000000E+00 -0.74505805969E-08  0.93827000000E+00  0.93827000000E+00 0.  1.
     999902    2    1    2    0    0 -0.21555646122E-01  0.85789633159E-03 -0.39409136776E-02  0.10220002789E+01  0.10217649717E+01 0.  0.
         14    1    1    2    0    0  0.21555646122E-01 -0.85789633159E-03  0.39409136776E-02  0.21929721076E-01  0.00000000000E+00 0. -1.
     999901    1    3    3    0    0 -0.72597739421E-01  0.11585060083E+00  0.27875383490E-02  0.89056137568E+00  0.88000000000E+00 0. -1.
        -11    1    3    3    0    0  0.37190571909E-01 -0.61895817194E-01  0.12511963124E-01  0.73287387505E-01  0.51100000000E-03 0.  1.
         11    1    3    3    0    0  0.13851521390E-01 -0.53096887308E-01 -0.19240415150E-01  0.58151515739E-01  0.51100000000E-03 0. -1.
</event>
<event>
 8    1  0.1103774E+005  0.1043930E+01  0.7957747E-01            NaN
         13   -1    0    0    0    0  0.00000000000E+00  0.00000000000E+00  0.74505805969E-08  0.10566000000E+00  0.10566000000E+00 0.  1.
     999900   -1    0    0    0    0 -0.00000000000E+00 -0.00000000000E+00 -0.74505805969E-08  0.93827000000E+00  0.93827000000E+00 0. -1.
     999902    2    1    2    0    0 -0.77924874867E-02 -0.28760526796E-02  0.22254568666E-01  0.10201758347E+01  0.10198992467E+01 0.  0.
     999903    2    3    3    0    0  0.92130482568E-01 -0.74986656243E-01 -0.46177067608E-01  0.12895901044E+00  0.19674358123E-01 0.  0.
         14    1    1    2    0    0  0.77924874867E-02  0.28760526796E-02 -0.22254568666E-01  0.23754165251E-01  0.00000000000E+00 0. -1.
     999901    1    3    3    0    0 -0.99922970055E-01  0.72110603564E-01  0.68431636275E-01  0.89121682431E+00  0.88000000000E+00 0.  1.
        -11    1    4    4    0    0  0.56610973686E-01 -0.36896791092E-01 -0.33160509219E-01  0.75273209226E-01  0.51100000000E-03 0. -1.
         11    1    4    4    0    0  0.35519508882E-01 -0.38089865151E-01 -0.13016558390E-01  0.53685801212E-01  0.51100000000E-03 0.  1.
</event>
<event>
 8    1  0.1103774E+005  0.1043930E+01  0.7957747E-01            NaN
         13   -1    0    0    0    0  0.00000000000E+00  0.00000000000E+00  0.74505805969E-08  0.10566000000E+00  0.10566000000E+00 0.  1.
     999900   -1    0    0    0    0 -0.00000000000E+00 -0.00000000000E+00 -0.74505805969E-08  0.93827000000E+00  0.93827000000E+00 0.  1.
     999902    2    1    2    0    0  0.39175835937E-03 -0.22020718806E-01 -0.40131675096E-02  0.10215431502E+01  0.10212978198E+01 0.  0.
     999903    2    3    3    0    0  0.68542943046E-01 -0.10512693971E+00  0.41898365250E-01  0.13381622327E+00  0.20037467547E-01 0.  0.
         14    1    1    2    0    0 -0.39175835937E-03  0.22020718806E-01  0.40131675096E-02  0.22386849819E-01  0.00000000000E+00 0.  1.
     999901    1    3    3    0    0 -0.68151184687E-01  0.83106220900E-01 -0.45911532760E-01  0.88772692691E+00  0.88000000000E+00 0.  1.
        -11    1    4    4    0    0  0.29490241997E-01 -0.41394133135E-01  0.27161490828E-01  0.57629474542E-01  0.51100000000E-03 0.  1.
         11    1    4    4    0    0  0.39052701049E-01 -0.63732806571E-01  0.14736874423E-01  0.76186748726E-01  0.51100000000E-03 0. -1.
</event>
<event>
 8    1  0.1103774E+005  0.1043930E+01  0.7957747E-01            NaN
         13   -1    0    0    0    0  0.00000000000E+00  0.00000000000E+00  0.74505805969E-08  0.10566000000E+00  0.10566000000E+00 0.  1.
     999900   -1    0    0    0    0 -0.00000000000E+00 -0.00000000000E+00 -0.74505805969E-08  0.93827000000E+00  0.93827000000E+00 0.  1.
     999902    2    1    2    0    0 -0.22471327123E-02 -0.48162145228E-02  0.23213097849E-01  0.10201162762E+01  0.10198382831E+01 0.  0.
     999903    2    3    3    0    0  0.70671139104E-01  0.10576511843E+00  0.18654621641E-01  0.13019151241E+00  0.20522300467E-01 0.  0.
         14    1    1    2    0    0  0.22471327123E-02  0.48162145228E-02 -0.23213097849E-01  0.23813723764E-01  0.00000000000E+00 0. -1.
     999901    1    3    3    0    0 -0.72918271816E-01 -0.11058133295E+00  0.45584762086E-02  0.88992476382E+00  0.88000000000E+00 0. -1.
        -11    1    4    4    0    0  0.95879235799E-02  0.28104736922E-01  0.83434913892E-02  0.30849302838E-01  0.51100000000E-03 0. -1.
         11    1    4    4    0    0  0.61083215524E-01  0.77660381509E-01  0.10311130252E-01  0.99342209574E-01  0.51100000000E-03 0.  1.
</event>
<event>
 8    1  0.1103774E+005  0.1043930E+01  0.7957747E-01            NaN
         13   -1    0    0    0    0  0.00000000000E+00  0.00000000000E+00  0.74505805969E-08  0.10566000000E+00  0.10566000000E+00 0.  1.
     999900   -1    0    0    0    0 -0.00000000000E+00 -0.00000000000E+00 -0.74505805969E-08  0.93827000000E+00  0.93827000000E+00 0. -1.
     999902    2    1    2    0    0 -0.12009362582E-01 -0.14880574286E-01  0.15125589928E-01  0.10195488648E+01  0.10192573022E+01 0.  0.
     999903    2    3    3    0    0 -0.70057613628E-01 -0.56161274784E-01  0.93504049354E-01  0.13319855115E+00  0.30605371600E-01 0.  0.
         14    1    1    2    0    0  0.12009362582E-01  0.14880574286E-01 -0.15125589928E-01  0.24381135154E-01  0.00000000000E+00 0. -1.
     999901    1    3    3    0    0  0.58048251046E-01  0.41280700497E-01 -0.78378459426E-01  0.88635031369E+00  0.88000000000E+00 0. -1.
        -11    1    4    4    0    0 -0.21978876972E-01 -0.36254188705E-01  0.35769325621E-01  0.55472002019E-01  0.51100000000E-03 0.  1.
         11    1    4    4    0    0 -0.48078736656E-01 -0.19907086079E-01  0.57734723734E-01  0.77726549133E-01  0.51100000000E-03 0. -1.
</event>
<event>
 8    1  0.1103774E+005  0.1043930E+01  0.7957747E-01            NaN
         13   -1    0    0    0    0  0.00000000000E+00  0.00000000000E+00  0.74505805969E-08  0.10566000000E+00  0.10566000000E+00 0.  1.
     999900   -1    0    0    0    0 -0.00000000000E+00 -0.00000000000E+00 -0.74505805969E-08  0.93827000000E+00  0.93827000000E+00 0. -1.
     999902    2    1    2    0    0 -0.91607308613E-02  0.22185006503E-01  0.29472924124E-03  0.10199262426E+01  0.10196437417E+01 0.  0.
     999903    2    3    3    0    0  0.94635163433E-01  0.88363722741E-01 -0.75721271163E-02  0.13132335179E+00  0.20603979237E-01 0.  0.
         14    1    1    2    0    0  0.91607308613E-02 -0.22185006503E-01 -0.29472924124E-03  0.24003757389E-01  0.00000000000E+00 0.  1.
     999901    1    3    3    0    0 -0.10379589429E+00 -0.66178716238E-01  0.78668563576E-02  0.88860289083E+00  0.88000000000E+00 0.  1.
        -11    1    4    4    0    0  0.30977526886E-01  0.17038164405E-01  0.68799637207E-03  0.35364398458E-01  0.51100000000E-03 0.  1.
         11    1    4    4    0    0  0.63657636546E-01  0.71325558336E-01 -0.82601234884E-02  0.95958953327E-01  0.51100000000E-03 0. -1.
</event>
<event>
 8    1  0.1103774E+005  0.1043930E+01  0.7957747E-01            NaN
         13   -1    0    0    0    0  0.00000000000E+00  0.00000000000E+00  0.74505805969E-08  0.10566000000E+00  0.10566000000E+00 0.  1.
     999900   -1    0    0    0    0 -0.00000000000E+00 -0.00000000000E+00 -0.74505805969E-08  0.93827000000E+00  0.93827000000E+00 0. -1.
     999902    2    1    2    0    0 -0.23041365318E-01  0.37888717674E-02  0.21592826950E-02  0.10204795721E+01  0.10202100934E+01 0.  0.
     999903    2    3    3    0    0  0.11819934087E+00 -0.41332882031E-01 -0.12298274246E-01  0.12795846275E+00  0.23294405355E-01 0.  0.
         14    1    1    2    0    0  0.23041365318E-01 -0.37888717674E-02 -0.21592826950E-02  0.23450427858E-01  0.00000000000E+00 0. -1.
     999901    1    3    3    0    0 -0.14124070619E+00  0.45121753799E-01  0.14457556941E-01  0.89252110939E+00  0.88000000000E+00 0. -1.
        -11    1    4    4    0    0  0.49459461422E-01 -0.28982586805E-01 -0.20171090848E-02  0.57363389999E-01  0.51100000000E-03 0. -1.
         11    1    4    4    0    0  0.68739879452E-01 -0.12350295226E-01 -0.10281165161E-01  0.70595072755E-01  0.51100000000E-03 0.  1.
</event>
<event>
 8    1  0.1103774E+005  0.1043930E+01  0.7957747E-01            NaN
         13   -1    0    0    0    0  0.00000000000E+00  0.00000000000E+00  0.74505805969E-08  0.10566000000E+00  0.10566000000E+00 0.  1.
     999900   -1    0    0    0    0 -0.00000000000E+00 -0.00000000000E+00 -0.74505805969E-08  0.93827000000E+00  0.93827000000E+00 0.  1.
     999902    2    1    2    0    0  0.15176843552E-01 -0.17935170496E-01 -0.56920187532E-02  0.10197555093E+01  0.10194689269E+01 0.  0.
     999903    2    3    3    0    0  0.44664743518E-02  0.82802107151E-01 -0.97482858797E-01  0.12920047487E+00  0.17712046896E-01 0.  0.
         14    1    1    2    0    0 -0.15176843552E-01  0.17935170496E-01  0.56920187532E-02  0.24174490654E-01  0.00000000000E+00 0.  1.
     999901    1    3    3    0    0  0.10710369200E-01 -0.10073727765E+00  0.91790840044E-01  0.89055503448E+00  0.88000000000E+00 0. -1.
        -11    1    4    4    0    0  0.94501964111E-02  0.74242130178E-01 -0.87186647841E-01  0.11490418960E+00  0.51100000000E-03 0. -1.
         11    1    4    4    0    0 -0.49837220593E-02  0.85599769728E-02 -0.10296210956E-01  0.14296285265E-01  0.51100000000E-03 0.  1.
</event>
<event>
 8    1  0.1103774E+005  0.1043930E+01  0.7957747E-01            NaN
         13   -1    0    0    0    0  0.00000000000E+00  0.00000000000E+00  0.74505805969E-08  0.10566000000E+00  0.10566000000E+00 0.  1.
     999900   -1    0    0    0    0 -0.00000000000E+00 -0.00000000000E+00 -0.74505805969E-08  0.93827000000E+00  0.93827000000E+00 0.  1.
     999902    2    1    2    0    0 -0.25642862079E-02 -0.23340327825E-02  0.23522043396E-01  0.10201537556E+01  0.10198766471E+01 0.  0.
     999903    2    3    3    0    0 -0.38067232188E-01  0.58908318008E-01 -0.10519993534E+00  0.12797640074E+00  0.19789609701E-01 0.  0.
         14    1    1    2    0    0  0.25642862079E-02  0.23340327825E-02 -0.23522043396E-01  0.23776244411E-01  0.00000000000E+00 0. -1.
     999901    1    3    3    0    0  0.35502945980E-01 -0.61242350791E-01  0.12872197874E+00  0.89217735485E+00  0.88000000000E+00 0. -1.
        -11    1    4    4    0    0 -0.19259537476E-01  0.45090719966E-01 -0.64025015920E-01  0.80644693535E-01  0.51100000000E-03 0. -1.
         11    1    4    4    0    0 -0.18807694712E-01  0.13817598043E-01 -0.41174919422E-01  0.47331707200E-01  0.51100000000E-03 0.  1.
</event>
<event>
 8    1  0.1186896E+005  0.1043930E+01  0.7957747E-01            NaN
         13   -1    0    0    0    0  0.00000000000E+00  0.00000000000E+00  0.74505805969E-08  0.10566000000E+00  0.10566000000E+00 0. -1.
     999900   -1    0    0    0    0 -0.00000000000E+00 -0.00000000000E+00 -0.74505805969E-08  0.93827000000E+00  0.93827000000E+00 0.  1.
     999902    2    1    2    0    0 -0.16979002813E-01 -0.99099269518E-02  0.13308829813E-01  0.10201893568E+01  0.10199130873E+01 0.  0.
     999903    2    3    3    0    0 -0.27045530509E-01  0.69224551771E-01 -0.10338253201E+00  0.12890911208E+00  0.20152219819E-01 0.  0.
         14    1    1    2    0    0  0.16979002813E-01  0.99099269518E-02 -0.13308829813E-01  0.23740643203E-01  0.00000000000E+00 0.  1.
     999901    1    3    3    0    0  0.10066527696E-01 -0.79134478723E-01  0.11669136182E+00  0.89128024472E+00  0.88000000000E+00 0. -1.
        -11    1    4    4    0    0 -0.24358289640E-01  0.36395565745E-01 -0.53676747515E-01  0.69277830688E-01  0.51100000000E-03 0. -1.
         11    1    4    4    0    0 -0.26872408693E-02  0.32828986026E-01 -0.49705784494E-01  0.59631281389E-01  0.51100000000E-03 0.  1.
</event>
<event>
 8    1  0.1103774E+005  0.1043930E+01  0.7957747E-01            NaN
         13   -1    0    0    0    0  0.00000000000E+00  0.00000000000E+00  0.74505805969E-08  0.10566000000E+00  0.10566000000E+00 0. -1.
     999900   -1    0    0    0    0 -0.00000000000E+00 -0.00000000000E+00 -0.74505805969E-08  0.93827000000E+00  0.93827000000E+00 0.  1.
     999902    2    1    2    0    0  0.20817881964E-02 -0.24226543102E-01 -0.12621505940E-02  0.10195814424E+01  0.10192906678E+01 0.  0.
     999903    2    3    3    0    0  0.10272684668E+00 -0.78630740285E-01 -0.16095635113E-01  0.13205156869E+00  0.21046353082E-01 0.  0.
         14    1    1    2    0    0 -0.20817881964E-02  0.24226543102E-01  0.12621505940E-02  0.24348557594E-01  0.00000000000E+00 0. -1.
     999901    1    3    3    0    0 -0.10064505849E+00  0.54404197183E-01  0.14833484519E-01  0.88752987371E+00  0.88000000000E+00 0.  1.
        -11    1    4    4    0    0  0.21545361889E-01 -0.68680909139E-02 -0.89923340912E-03  0.22637204630E-01  0.51100000000E-03 0.  1.
         11    1    4    4    0    0  0.81181484792E-01 -0.71762649371E-01 -0.15196401704E-01  0.10941436406E+00  0.51100000000E-03 0. -1.
</event>
<event>
 8    1  0.1103774E+005  0.1043930E+01  0.7957747E-01            NaN
         13   -1    0    0    0    0  0.00000000000E+00  0.00000000000E+00  0.74505805969E-08  0.10566000000E+00  0.10566000000E+00 0. -1.
     999900   -1    0    0    0    0 -0.00000000000E+00 -0.00000000000E+00 -0.74505805969E-08  0.93827000000E+00  0.93827000000E+00 0. -1.
     999902    2    1    2    0    0 -0.90680160057E-02  0.19697073777E-01  0.92608440986E-02  0.10203510504E+01  0.10200785750E+01 0.  0.
     999903    2    3    3    0    0  0.39686852477E-01 -0.27486080865E-01 -0.11773559526E+00  0.12864965259E+00  0.18934936485E-01 0.  0.
         14    1    1    2    0    0  0.90680160057E-02 -0.19697073777E-01 -0.92608440986E-02  0.23578949575E-01  0.00000000000E+00 0.  1.
     999901    1    3    3    0    0 -0.48754868482E-01  0.47183154642E-01  0.12699643936E+00  0.89170139783E+00  0.88000000000E+00 0.  1.
        -11    1    4    4    0    0  0.64767498580E-02 -0.15045357118E-01 -0.37471616134E-01  0.40898584281E-01  0.51100000000E-03 0.  1.
         11    1    4    4    0    0  0.33210102619E-01 -0.12440723747E-01 -0.80263979130E-01  0.87751068313E-01  0.51100000000E-03 0. -1.
</event>
<event>
 8    1  0.1103774E+005  0.1043930E+01  0.7957747E-01            NaN
         13   -1    0    0    0    0  0.00000000000E+00  0.00000000000E+00  0.74505805969E-08  0.10566000000E+00  0.10566000000E+00 0. -1.
     999900   -1    0    0    0    0 -0.00000000000E+00 -0.00000000000E+00 -0.74505805969E-08  0.93827000000E+00  0.93827000000E+00 0.  1.
     999902    2    1    2    0    0 -0.13153988983E-01 -0.11428357141E-01 -0.15005075737E-01  0.10209346294E+01  0.10206756245E+01 0.  0.
     999903    2    3    3    0    0  0.20561773362E-01  0.26373813201E-01 -0.12663444649E+00  0.13243765518E+00  0.19623580829E-01 0.  0.
         14    1    1    2    0    0  0.13153988983E-01  0.11428357141E-01  0.15005075737E-01  0.22995370643E-01  0.00000000000E+00 0. -1.
     999901    1    3    3    0    0 -0.33715762345E-01 -0.37802170342E-01  0.11162937075E+00  0.88849697418E+00  0.88000000000E+00 0.  1.
        -11    1    4    4    0    0  0.94105135574E-02  0.13800838342E-01 -0.29903939467E-01  0.34256789414E-01  0.51100000000E-03 0. -1.
         11    1    4    4    0    0  0.11151259805E-01  0.12572974859E-01 -0.96730507023E-01  0.98180865763E-01  0.51100000000E-03 0.  1.
</event>
<event>
 8    1  0.1103774E+005  0.1043930E+01  0.7957747E-01            NaN
         13   -1    0    0    0    0  0.00000000000E+00  0.00000000000E+00  0.74505805969E-08  0.10566000000E+00  0.10566000000E+00 0.  1.
     999900   -1    0    0    0    0 -0.00000000000E+00 -0.00000000000E+00 -0.74505805969E-08  0.93827000000E+00  0.93827000000E+00 0.  1.
     999902    2    1    2    0    0 -0.20624347569E-01  0.81132657004E-03 -0.11051221806E-01  0.10205173652E+01  0.10202487644E+01 0.  0.
     999903    2    3    3    0    0 -0.34494524344E-01 -0.83837311265E-01  0.91388468552E-01  0.13043216490E+00  0.21026899097E-01 0.  0.
         14    1    1    2    0    0  0.20624347569E-01 -0.81132657004E-03  0.11051221806E-01  0.23412634770E-01  0.00000000000E+00 0.  1.
     999901    1    3    3    0    0  0.13870176775E-01  0.84648637835E-01 -0.10243969036E+00  0.89008520033E+00  0.88000000000E+00 0.  1.
        -11    1    4    4    0    0 -0.17310171312E-01 -0.49547570624E-01  0.38477183808E-01  0.65079632608E-01  0.51100000000E-03 0. -1.
         11    1    4    4    0    0 -0.17184353032E-01 -0.34289740641E-01  0.52911284744E-01  0.65352532289E-01  0.51100000000E-03 0.  1.
</event>
<event>
 8    1  0.1103774E+005  0.1043930E+01  0.7957747E-01            NaN
         13   -1    0    0    0    0  0.00000000000E+00  0.00000000000E+00  0.74505805969E-08  0.10566000000E+00  0.10566000000E+00 0.  1.
     999900   -1    0    0    0    0 -0.00000000000E+00 -0.00000000000E+00 -0.74505805969E-08  0.93827000000E+00  0.93827000000E+00 0. -1.
     999902    2    1    2    0    0 -0.17202618695E-01 -0.16259183002E-01  0.52593785229E-02  0.10196822747E+01  0.10193939322E+01 0.  0.
     999903    2    3    3    0    0 -0.46641948853E-01 -0.12195913545E+00  0.13424608631E-01  0.13283063820E+00  0.20353285103E-01 0.  0.
         14    1    1    2    0    0  0.17202618695E-01  0.16259183002E-01 -0.52593785229E-02  0.24247725343E-01  0.00000000000E+00 0. -1.
     999901    1    3    3    0    0  0.29439330158E-01  0.10569995245E+00 -0.81652301083E-02  0.88685163646E+00  0.88000000000E+00 0.  1.
        -11    1    4    4    0    0 -0.16932481068E-01 -0.70231766221E-01  0.11417974192E-01  0.73142608357E-01  0.51100000000E-03 0.  1.
         11    1    4    4    0    0 -0.29709467785E-01 -0.51727369230E-01  0.20066344392E-02  0.59688029841E-01  0.51100000000E-03 0. -1.
</event>
<event>
 8    1  0.1103774E+005  0.1043930E+01  0.7957747E-01            NaN
         13   -1    0    0    0    0  0.00000000000E+00  0.00000000000E+00  0.74505805969E-08  0.10566000000E+00  0.10566000000E+00 0.  1.
     999900   -1    0    0    0    0 -0.00000000000E+00 -0.00000000000E+00 -0.74505805969E-08  0.93827000000E+00  0.93827000000E+00 0. -1.
     999902    2    1    2    0    0  0.44637575537E-02  0.20617713904E-01 -0.14060397720E-02  0.10227878098E+01  0.10225692699E+01 0.  0.
     999903    2    3    3    0    0 -0.98387580205E-01 -0.69652387344E-01 -0.47298216636E-01  0.13102933312E+00  0.19999845973E-01 0.  0.
         14    1    1    2    0    0 -0.44637575537E-02 -0.20617713904E-01  0.14060397720E-02  0.21142190189E-01  0.00000000000E+00 0.  1.
     999901    1    3    3    0    0  0.10285133776E+00  0.90270101249E-01  0.45892176864E-01  0.89175847669E+00  0.88000000000E+00 0. -1.
        -11    1    4    4    0    0 -0.73102176564E-01 -0.40475640318E-01 -0.33489942545E-01  0.90022458588E-01  0.51100000000E-03 0.  1.
         11    1    4    4    0    0 -0.25285403641E-01 -0.29176747026E-01 -0.13808274090E-01  0.41006874529E-01  0.51100000000E-03 0. -1.
</event>
<event>
 8    1  0.1103774E+005  0.1043930E+01  0.7957747E-01            NaN
         13   -1    0    0    0    0  0.00000000000E+00  0.00000000000E+00  0.74505805969E-08  0.10566000000E+00  0.10566000000E+00 0.  1.
     999900   -1    0    0    0    0 -0.00000000000E+00 -0.00000000000E+00 -0.74505805969E-08  0.93827000000E+00  0.93827000000E+00 0.  1.
     999902    2    1    2    0    0 -0.14601373233E-01  0.88245356725E-02 -0.16524494952E-01  0.10201785482E+01  0.10199020241E+01 0.  0.
     999903    2    3    3    0    0  0.10746585580E+00 -0.15363816096E-01  0.64587297816E-01  0.12772988988E+00  0.18932742062E-01 0.  0.
         14    1    1    2    0    0  0.14601373233E-01 -0.88245356725E-02  0.16524494952E-01  0.23751451820E-01  0.00000000000E+00 0.  1.
     999901    1    3    3    0    0 -0.12206722904E+00  0.24188351769E-01 -0.81111792769E-01  0.89244865829E+00  0.88000000000E+00 0.  1.
        -11    1    4    4    0    0  0.61172965321E-01 -0.10909068013E-01  0.26252662983E-01  0.67458156554E-01  0.51100000000E-03 0.  1.
         11    1    4    4    0    0  0.46292890484E-01 -0.44547480834E-02  0.38334634834E-01  0.60271733330E-01  0.51100000000E-03 0. -1.
</event>
<event>
 8    1  0.1103774E+005  0.1043930E+01  0.7957747E-01            NaN
         13   -1    0    0    0    0  0.00000000000E+00  0.00000000000E+00  0.74505805969E-08  0.10566000000E+00  0.10566000000E+00 0.  1.
     999900   -1    0    0    0    0 -0.00000000000E+00 -0.00000000000E+00 -0.74505805969E-08  0.93827000000E+00  0.93827000000E+00 0.  1.
     999902    2    1    2    0    0 -0.13877476394E-01 -0.19332024783E-01  0.34922965759E-03  0.10201301367E+01  0.10198524708E+01 0.  0.
     999903    2    3    3    0    0 -0.42810562107E-01 -0.62074059711E-01 -0.10685368998E+00  0.13212311475E+00  0.18784921377E-01 0.  0.
         14    1    1    2    0    0  0.13877476394E-01  0.19332024783E-01 -0.34922965759E-03  0.23799863332E-01  0.00000000000E+00 0. -1.
     999901    1    3    3    0    0  0.28933085713E-01  0.42742034928E-01  0.10720291964E+00  0.88800702192E+00  0.88000000000E+00 0. -1.
        -11    1    4    4    0    0 -0.12096101665E-02 -0.71912142342E-02 -0.19897818697E-01  0.21198137391E-01  0.51100000000E-03 0.  1.
         11    1    4    4    0    0 -0.41600951940E-01 -0.54882845476E-01 -0.86955871285E-01  0.11092497736E+00  0.51100000000E-03 0. -1.
</event>
<event>
 8    1  0.1103774E+005  0.1043930E+01  0.7957747E-01            NaN
         13   -1    0    0    0    0  0.00000000000E+00  0.00000000000E+00  0.74505805969E-08  0.10566000000E+00  0.10566000000E+00 0.  1.
     999900   -1    0    0    0    0 -0.00000000000E+00 -0.00000000000E+00 -0.74505805969E-08  0.93827000000E+00  0.93827000000E+00 0.  1.
     999902    2    1    2    0    0 -0.11945801333E-01  0.61482018257E-02 -0.95798449130E-02  0.10274292126E+01  0.10272967006E+01 0.  0.
     999903    2    3    3    0    0  0.66513507001E-01 -0.10760462471E+00  0.42955706807E-01  0.13509768635E+00  0.20084577094E-01 0.  0.
         14    1    1    2    0    0  0.11945801333E-01 -0.61482018257E-02  0.95798449130E-02  0.16500787367E-01  0.00000000000E+00 0.  1.
     999901    1    3    3    0    0 -0.78459308333E-01  0.11375282653E+00 -0.52535551720E-01  0.89233152629E+00  0.88000000000E+00 0.  1.
        -11    1    4    4    0    0  0.50532074068E-02 -0.50290087458E-02 -0.18765460719E-02  0.73897483192E-02  0.51100000000E-03 0.  1.
         11    1    4    4    0    0  0.61460299594E-01 -0.10257561596E+00  0.44832252879E-01  0.12770793803E+00  0.51100000000E-03 0. -1.
</event>
<event>
 8    1  0.1103774E+005  0.1043930E+01  0.7957747E-01            NaN
         13   -1    0    0    0    0  0.00000000000E+00  0.00000000000E+00  0.74505805969E-08  0.10566000000E+00  0.10566000000E+00 0. -1.
     999900   -1    0    0    0    0 -0.00000000000E+00 -0.00000000000E+00 -0.74505805969E-08  0.93827000000E+00  0.93827000000E+00 0. -1.
     999902    2    1    2    0    0  0.94627383513E-02 -0.19561225458E-02 -0.20974047288E-01  0.10208371333E+01  0.10205759022E+01 0.  0.
     999903    2    3    3    0    0 -0.98387477753E-01  0.77595844819E-01 -0.30935713203E-01  0.13063523519E+00  0.20182552105E-01 0.  0.
         14    1    1    2    0    0 -0.94627383513E-02  0.19561225458E-02  0.20974047288E-01  0.23092866695E-01  0.00000000000E+00 0. -1.
     999901    1    3    3    0    0  0.10785021610E+00 -0.79551967364E-01  0.99616659146E-02  0.89020189812E+00  0.88000000000E+00 0.  1.
        -11    1    4    4    0    0 -0.12032526134E-01  0.37838037032E-02  0.89964865280E-03  0.12655802793E-01  0.51100000000E-03 0.  1.
         11    1    4    4    0    0 -0.86354951618E-01  0.73812041115E-01 -0.31835361856E-01  0.11797943239E+00  0.51100000000E-03 0. -1.
</event>
<event>
 8    1  0.1103774E+005  0.1043930E+01  0.7957747E-01            NaN
         13   -1    0    0    0    0  0.00000000000E+00  0.00000000000E+00  0.74505805969E-08  0.10566000000E+00  0.10566000000E+00 0. -1.
     999900   -1    0    0    0    0 -0.00000000000E+00 -0.00000000000E+00 -0.74505805969E-08  0.93827000000E+00  0.93827000000E+00 0.  1.
     999902    2    1    2    0    0  0.19378431488E-01  0.11997990291E-01 -0.68457859173E-02  0.10201320975E+01  0.10198544780E+01 0.  0.
     999903    2    3    3    0    0 -0.33606811150E-02 -0.83081090209E-01 -0.97919851582E-01  0.13004694191E+00  0.20252111938E-01 0.  0.
         14    1    1    2    0    0 -0.19378431488E-01 -0.11997990291E-01  0.68457859173E-02  0.23797902487E-01  0.00000000000E+00 0. -1.
     999901    1    3    3    0    0  0.22739112603E-01  0.95079080500E-01  0.91074065665E-01  0.89008515560E+00  0.88000000000E+00 0. -1.
        -11    1    4    4    0    0 -0.67777142719E-02 -0.47368565192E-01 -0.68966133253E-01  0.83942283957E-01  0.51100000000E-03 0. -1.
         11    1    4    4    0    0  0.34170331570E-02 -0.35712525018E-01 -0.28953718329E-01  0.46104657952E-01  0.51100000000E-03 0.  1.
</event>
<event>
 8    1  0.1103774E+005  0.1043930E+01  0.7957747E-01            NaN
         13   -1    0    0    0    0  0.00000000000E+00  0.00000000000E+00  0.74505805969E-08  0.10566000000E+00  0.10566000000E+00 0.  1.
     999900   -1    0    0    0    0 -0.00000000000E+00 -0.00000000000E+00 -0.74505805969E-08  0.93827000000E+00  0.93827000000E+00 0.  1.
     999902    2    1    2    0    0 -0.11302523442E-01  0.66649295595E-02  0.18721265817E-01  0.10210683702E+01  0.10208124032E+01 0.  0.
     999903    2    3    3    0    0  0.50779480835E-02 -0.47690081149E-01  0.12219156720E+00  0.13318949881E+00  0.22550700681E-01 0.  0.
         14    1    1    2    0    0  0.11302523442E-01 -0.66649295595E-02 -0.18721265817E-01  0.22861629775E-01  0.00000000000E+00 0.  1.
     999901    1    3    3    0    0 -0.16380471526E-01  0.54355010708E-01 -0.10347030138E+00  0.88787887141E+00  0.88000000000E+00 0.  1.
        -11    1    4    4    0    0 -0.38968039458E-02 -0.12971911122E-01  0.58938712691E-01  0.60477173659E-01  0.51100000000E-03 0.  1.
         11    1    4    4    0    0  0.89747520293E-02 -0.34718170027E-01  0.63252854511E-01  0.72712325150E-01  0.51100000000E-03 0. -1.
</event>
<event>
 8    1  0.1103774E+005  0.1043930E+01  0.7957747E-01            NaN
         13   -1    0    0    0    0  0.00000000000E+00  0.00000000000E+00  0.74505805969E-08  0.10566000000E+00  0.10566000000E+00 0.  1.
     999900   -1    0    0    0    0 -0.00000000000E+00 -0.00000000000E+00 -0.74505805969E-08  0.93827000000E+00  0.93827000000E+00 0. -1.
     999902    2    1    2    0    0  0.22094681472E-01  0.39299496874E-02 -0.25259662226E-02  0.10213468213E+01  0.10210971205E+01 0.  0.
     999903    2    3    3    0    0 -0.29301847718E-01  0.10641656277E+00 -0.68694449993E-01  0.13144605308E+00  0.19392119467E-01 0.  0.
         14    1    1    2    0    0 -0.22094681472E-01 -0.39299496874E-02  0.25259662226E-02  0.22583178679E-01  0.00000000000E+00 0. -1.
     999901    1    3    3    0    0  0.51396529191E-01 -0.10248661309E+00  0.66168483771E-01  0.88990076824E+00  0.88000000000E+00 0.  1.
        -11    1    4    4    0    0 -0.19902362633E-02  0.18211943943E-01 -0.41647954243E-02  0.18794748855E-01  0.51100000000E-03 0. -1.
         11    1    4    4    0    0 -0.27311611455E-01  0.88204618831E-01 -0.64529654569E-01  0.11265130422E+00  0.51100000000E-03 0.  1.
</event>
<event>
 8    1  0.1103774E+005  0.1043930E+01  0.7957747E-01            NaN
         13   -1    0    0    0    0  0.00000000000E+00  0.00000000000E+00  0.74505805969E-08  0.10566000000E+00  0.10566000000E+00 0. -1.
     999900   -1    0    0    0    0 -0.00000000000E+00 -0.00000000000E+00 -0.74505805969E-08  0.93827000000E+00  0.93827000000E+00 0.  1.
     999902    2    1    2    0    0 -0.87463124332E-02 -0.19623765290E-01  0.10524899869E-01  0.10200058770E+01  0.10197252696E+01 0.  0.
     999903    2    3    3    0    0  0.84941954382E-01  0.93234858559E-01  0.90504456234E-02  0.12786422100E+00  0.18959799045E-01 0.  0.
         14    1    1    2    0    0  0.87463124332E-02  0.19623765290E-01 -0.10524899869E-01  0.23924123027E-01  0.00000000000E+00 0.  1.
     999901    1    3    3    0    0 -0.93688266816E-01 -0.11285862385E+00  0.14744542459E-02  0.89214165598E+00  0.88000000000E+00 0. -1.
        -11    1    4    4    0    0  0.71362851316E-01  0.84821398105E-01  0.12380156519E-01  0.11153858310E+00  0.51100000000E-03 0.  1.
         11    1    4    4    0    0  0.13579103066E-01  0.84134604546E-02 -0.33297108955E-02  0.16325637891E-01  0.51100000000E-03 0. -1.
</event>
<event>
 8    1  0.1103774E+005  0.1043930E+01  0.7957747E-01            NaN
         13   -1    0    0    0    0  0.00000000000E+00  0.00000000000E+00  0.74505805969E-08  0.10566000000E+00  0.10566000000E+00 0.  1.
     999900   -1    0    0    0    0 -0.00000000000E+00 -0.00000000000E+00 -0.74505805969E-08  0.93827000000E+00  0.93827000000E+00 0. -1.
     999902    2    1    2    0    0 -0.12857384348E-01 -0.15052430494E-01 -0.12152997571E-01  0.10207010666E+01  0.10204367124E+01 0.  0.
     999903    2    3    3    0    0  0.80814893968E-02 -0.22078618360E-01 -0.12914885475E+00  0.13268314206E+00  0.19303202933E-01 0.  0.
         14    1    1    2    0    0  0.12857384348E-01  0.15052430494E-01  0.12152997571E-01  0.23228933381E-01  0.00000000000E+00 0.  1.
     999901    1    3    3    0    0 -0.20938873745E-01  0.70261878659E-02  0.11699585718E+00  0.88801792456E+00  0.88000000000E+00 0.  1.
        -11    1    4    4    0    0 -0.11436789869E-02 -0.19284764017E-01 -0.10327197002E+00  0.10506460412E+00  0.51100000000E-03 0. -1.
         11    1    4    4    0    0  0.92251683837E-02 -0.27938543428E-02 -0.25876884725E-01  0.27618537939E-01  0.51100000000E-03 0.  1.
</event>
<event>
 8    1  0.1103774E+005  0.1043930E+01  0.7957747E-01            NaN
         13   -1    0    0    0    0  0.00000000000E+00  0.00000000000E+00  0.74505805969E-08  0.10566000000E+00  0.10566000000E+00 0. -1.
     999900   -1    0    0    0    0 -0.00000000000E+00 -0.00000000000E+00 -0.74505805969E-08  0.93827000000E+00  0.93827000000E+00 0. -1.
     999902    2    1    2    0    0 -0.13897428214E-01  0.19498665393E-01 -0.19774858280E-02  0.10199040367E+01  0.10196210066E+01 0.  0.
     999903    2    3    3    0    0 -0.22076489994E-01  0.11529849680E+00  0.58762351675E-01  0.13258569888E+00  0.18569835698E-01 0.  0.
         14    1    1    2    0    0  0.13897428214E-01 -0.19498665393E-01  0.19774858280E-02  0.24025963316E-01  0.00000000000E+00 0.  1.
     999901    1    3    3    0    0  0.81790617797E-02 -0.95799831406E-01 -0.60739837503E-01  0.88731833781E+00  0.88000000000E+00 0. -1.
        -11    1    4    4    0    0 -0.70775618639E-02  0.81594827282E-01  0.38621431394E-01  0.90552105470E-01  0.51100000000E-03 0. -1.
         11    1    4    4    0    0 -0.14998928130E-01  0.33703669516E-01  0.20140920282E-01  0.42033593407E-01  0.51100000000E-03 0.  1.
</event>
<event>
 8    1  0.1103774E+005  0.1043930E+01  0.7957747E-01            NaN
         13   -1    0    0    0    0  0.00000000000E+00  0.00000000000E+00  0.74505805969E-08  0.10566000000E+00  0.10566000000E+00 0.  1.
     999900   -1    0    0    0    0 -0.00000000000E+00 -0.00000000000E+00 -0.74505805969E-08  0.93827000000E+00  0.93827000000E+00 0. -1.
     999902    2    1    2    0    0  0.36746707044E-02  0.58186446123E-02  0.22764693492E-01  0.10201478407E+01  0.10198705927E+01 0.  0.
     999903    2    3    3    0    0  0.50833593803E-01  0.11399710437E-01  0.12118967039E+00  0.13338824061E+00  0.19785824882E-01 0.  0.
         14    1    1    2    0    0 -0.36746707044E-02 -0.58186446123E-02 -0.22764693492E-01  0.23782159273E-01  0.00000000000E+00 0. -1.
     999901    1    3    3    0    0 -0.47158923099E-01 -0.55810658243E-02 -0.98424976900E-01  0.88675960012E+00  0.88000000000E+00 0. -1.
        -11    1    4    4    0    0  0.23361330500E-01  0.34176086777E-02  0.78666782105E-01  0.82134983652E-01  0.51100000000E-03 0. -1.
         11    1    4    4    0    0  0.27472263303E-01  0.79821017590E-02  0.42522888286E-01  0.51253256957E-01  0.51100000000E-03 0.  1.
</event>
<event>
 8    1  0.1103774E+005  0.1043930E+01  0.7957747E-01            NaN
         13   -1    0    0    0    0  0.00000000000E+00  0.00000000000E+00  0.74505805969E-08  0.10566000000E+00  0.10566000000E+00 0. -1.
     999900   -1    0    0    0    0 -0.00000000000E+00 -0.00000000000E+00 -0.74505805969E-08  0.93827000000E+00  0.93827000000E+00 0. -1.
     999902    2    1    2    0    0 -0.17531022743E-01  0.77349129959E-02  0.14054166755E-01  0.10201668933E+01  0.10198900945E+01 0.  0.
     999903    2    3    3    0    0 -0.94905170417E-01  0.47638333968E-02  0.91606825051E-01  0.13336928343E+00  0.19127725575E-01 0.  0.
         14    1    1    2    0    0  0.17531022743E-01 -0.77349129959E-02 -0.14054166755E-01  0.23763106713E-01  0.00000000000E+00 0.  1.
     999901    1    3    3    0    0  0.77374147674E-01  0.29710795991E-02 -0.77552658295E-01  0.88679760986E+00  0.88000000000E+00 0. -1.
        -11    1    4    4    0    0 -0.93648751112E-01  0.61748391268E-02  0.85511003450E-01  0.12696696442E+00  0.51100000000E-03 0. -1.
         11    1    4    4    0    0 -0.12564193053E-02 -0.14110057300E-02  0.60958216005E-02  0.64023190038E-02  0.51100000000E-03 0.  1.
</event>
<event>
 8    1  0.1103774E+005  0.1043930E+01  0.7957747E-01            NaN
         13   -1    0    0    0    0  0.00000000000E+00  0.00000000000E+00  0.74505805969E-08  0.10566000000E+00  0.10566000000E+00 0. -1.
     999900   -1    0    0    0    0 -0.00000000000E+00 -0.00000000000E+00 -0.74505805969E-08  0.93827000000E+00  0.93827000000E+00 0.  1.
     999902    2    1    2    0    0  0.20483656670E-01  0.24593268471E-02 -0.11475137359E-01  0.10203226440E+01  0.10200495040E+01 0.  0.
     999903    2    3    3    0    0 -0.62671320150E-01 -0.94055155326E-01 -0.60724723748E-01  0.12978611069E+00  0.19567213389E-01 0.  0.
         14    1    1    2    0    0 -0.20483656670E-01 -0.24593268471E-02  0.11475137359E-01  0.23607355983E-01  0.00000000000E+00 0.  1.
     999901    1    3    3    0    0  0.83154976820E-01  0.96514482173E-01  0.49249586389E-01  0.89053653333E+00  0.88000000000E+00 0. -1.
        -11    1    4    4    0    0 -0.60034147768E-01 -0.78719417827E-01 -0.50269448036E-01  0.11103208621E+00  0.51100000000E-03 0. -1.
         11    1    4    4    0    0 -0.26371723817E-02 -0.15335737499E-01 -0.10455275712E-01  0.18754024475E-01  0.51100000000E-03 0.  1.
</event>
<event>
 8    1  0.1103774E+005  0.1043930E+01  0.7957747E-01            NaN
         13   -1    0    0    0    0  0.00000000000E+00  0.00000000000E+00  0.74505805969E-08  0.10566000000E+00  0.10566000000E+00 0.  1.
     999900   -1    0    0    0    0 -0.00000000000E+00 -0.00000000000E+00 -0.74505805969E-08  0.93827000000E+00  0.93827000000E+00 0.  1.
     999902    2    1    2    0    0  0.17385377293E-01 -0.19384653344E-02  0.16804087321E-01  0.10196733238E+01  0.10193847659E+01 0.  0.
     999903    2    3    3    0    0 -0.10693443916E+00 -0.68114141941E-01  0.57771003088E-02  0.12840667938E+00  0.19503584601E-01 0.  0.
         14    1    1    2    0    0 -0.17385377293E-01  0.19384653344E-02 -0.16804087321E-01  0.24256676239E-01  0.00000000000E+00 0. -1.
     999901    1    3    3    0    0  0.12431981645E+00  0.66175676607E-01  0.11026987012E-01  0.89126664438E+00  0.88000000000E+00 0. -1.
        -11    1    4    4    0    0 -0.64000700371E-01 -0.45855086259E-01  0.12004405225E-01  0.79643866366E-01  0.51100000000E-03 0. -1.
         11    1    4    4    0    0 -0.42933738786E-01 -0.22259055682E-01 -0.62273049157E-02  0.48762813018E-01  0.51100000000E-03 0.  1.
</event>
<event>
 8    1  0.1103774E+005  0.1043930E+01  0.7957747E-01            NaN
         13   -1    0    0    0    0  0.00000000000E+00  0.00000000000E+00  0.74505805969E-08  0.10566000000E+00  0.10566000000E+00 0. -1.
     999900   -1    0    0    0    0 -0.00000000000E+00 -0.00000000000E+00 -0.74505805969E-08  0.93827000000E+00  0.93827000000E+00 0.  1.
     999902    2    1    2    0    0 -0.84442513842E-02 -0.20188509944E-01  0.91936888395E-02  0.10201938413E+01  0.10199176774E+01 0.  0.
     999903    2    3    3    0    0 -0.10001773214E+00  0.36433303956E-01 -0.71844272893E-01  0.12993607895E+00  0.19769994606E-01 0.  0.
         14    1    1    2    0    0  0.84442513842E-02  0.20188509944E-01 -0.91936888395E-02  0.23736158697E-01  0.00000000000E+00 0.  1.
     999901    1    3    3    0    0  0.91573480753E-01 -0.56621813900E-01  0.81037961733E-01  0.89025776235E+00  0.88000000000E+00 0.  1.
        -11    1    4    4    0    0 -0.39671320338E-01  0.23822190702E-01 -0.35913634560E-01  0.58577817436E-01  0.51100000000E-03 0. -1.
         11    1    4    4    0    0 -0.60346411798E-01  0.12611113253E-01 -0.35930638333E-01  0.71358261515E-01  0.51100000000E-03 0.  1.
</event>
<event>
 8    1  0.1103774E+005  0.1043930E+01  0.7957747E-01            NaN
         13   -1    0    0    0    0  0.00000000000E+00  0.00000000000E+00  0.74505805969E-08  0.10566000000E+00  0.10566000000E+00 0.  1.
     999900   -1    0    0    0    0 -0.00000000000E+00 -0.00000000000E+00 -0.74505805969E-08  0.93827000000E+00  0.93827000000E+00 0. -1.
     999902    2    1    2    0    0 -0.97430276196E-02 -0.13336338462E-01 -0.16557325664E-01  0.10205434752E+01  0.10202754800E+01 0.  0.
     999903    2    3    3    0    0  0.15474260658E-01 -0.79800300265E-01 -0.10477933258E+00  0.13327998986E+00  0.13315648540E-01 0.  0.
         14    1    1    2    0    0  0.97430276196E-02  0.13336338462E-01  0.16557325664E-01  0.23386524836E-01  0.00000000000E+00 0.  1.
     999901    1    3    3    0    0 -0.25217288277E-01  0.66463961803E-01  0.88222006918E-01  0.88726348530E+00  0.88000000000E+00 0.  1.
        -11    1    4    4    0    0  0.49107964561E-02 -0.19042420065E-01 -0.35032637059E-01  0.40178059486E-01  0.51100000000E-03 0. -1.
         11    1    4    4    0    0  0.10563464202E-01 -0.60757880200E-01 -0.69746695522E-01  0.93101930375E-01  0.51100000000E-03 0.  1.
</event>
<event>
 8    1  0.1103774E+005  0.1043930E+01  0.7957747E-01            NaN
         13   -1    0    0    0    0  0.00000000000E+00  0.00000000000E+00  0.74505805969E-08  0.10566000000E+00  0.10566000000E+00 0. -1.
     999900   -1    0    0    0    0 -0.00000000000E+00 -0.00000000000E+00 -0.74505805969E-08  0.93827000000E+00  0.93827000000E+00 0.  1.
     999902    2    1    2    0    0  0.23708445957E-01  0.90286784780E-03 -0.76633259214E-03  0.10201919958E+01  0.10199157884E+01 0.  0.
     999903    2    3    3    0    0 -0.20860099035E-01 -0.65749428913E-01 -0.10746513660E+00  0.13012822352E+00  0.25029339543E-01 0.  0.
         14    1    1    2    0    0 -0.23708445957E-01 -0.90286784780E-03  0.76633259214E-03  0.23738004249E-01  0.00000000000E+00 0.  1.
     999901    1    3    3    0    0  0.44568544992E-01  0.66652296761E-01  0.10669880401E+00  0.89006377223E+00  0.88000000000E+00 0. -1.
        -11    1    4    4    0    0 -0.12517903659E-01 -0.38907293828E-01 -0.40683987245E-01  0.57670819000E-01  0.51100000000E-03 0.  1.
         11    1    4    4    0    0 -0.83421953759E-02 -0.26842135085E-01 -0.66781149352E-01  0.72457404518E-01  0.51100000000E-03 0. -1.
</event>
<event>
 8    1  0.1103774E+005  0.1043930E+01  0.7957747E-01            NaN
         13   -1    0    0    0    0  0.00000000000E+00  0.00000000000E+00  0.74505805969E-08  0.10566000000E+00  0.10566000000E+00 0. -1.
     999900   -1    0    0    0    0 -0.00000000000E+00 -0.00000000000E+00 -0.74505805969E-08  0.93827000000E+00  0.93827000000E+00 0.  1.
     999902    2    1    2    0    0 -0.19373637792E-01 -0.10498818473E-01  0.69817266992E-03  0.10218834475E+01  0.10216455990E+01 0.  0.
     999903    2    3    3    0    0  0.10677134273E+00 -0.61448397937E-01  0.38680349313E-01  0.13061970346E+00  0.19730997712E-01 0.  0.
         14    1    1    2    0    0  0.19373637792E-01  0.10498818473E-01 -0.69817266992E-03  0.22046552468E-01  0.00000000000E+00 0. -1.
     999901    1    3    3    0    0 -0.12614498052E+00  0.50949579463E-01 -0.37982176643E-01  0.89126374407E+00  0.88000000000E+00 0. -1.
        -11    1    4    4    0    0  0.71185703744E-01 -0.49868790950E-01  0.22080715417E-01  0.89677867073E-01  0.51100000000E-03 0.  1.
         11    1    4    4    0    0  0.35585638988E-01 -0.11579606987E-01  0.16599633896E-01  0.40941836385E-01  0.51100000000E-03 0. -1.
</event>
<event>
 8    1  0.1103774E+005  0.1043930E+01  0.7957747E-01            NaN
         13   -1    0    0    0    0  0.00000000000E+00  0.00000000000E+00  0.74505805969E-08  0.10566000000E+00  0.10566000000E+00 0. -1.
     999900   -1    0    0    0    0 -0.00000000000E+00 -0.00000000000E+00 -0.74505805969E-08  0.93827000000E+00  0.93827000000E+00 0. -1.
     999902    2    1    2    0    0  0.13606340532E-01 -0.15724265126E-01  0.11538955800E-01  0.10201490724E+01  0.10198718534E+01 0.  0.
     999903    2    3    3    0    0 -0.76416954829E-01  0.84307092737E-01  0.56880940279E-01  0.12876455278E+00  0.19940707482E-01 0.  0.
         14    1    1    2    0    0 -0.13606340532E-01  0.15724265126E-01 -0.11538955800E-01  0.23780927597E-01  0.00000000000E+00 0. -1.
     999901    1    3    3    0    0  0.90023295361E-01 -0.10003135786E+00 -0.45341984479E-01  0.89138451962E+00  0.88000000000E+00 0. -1.
        -11    1    4    4    0    0 -0.43472843256E-01  0.54197880645E-01  0.44263020245E-01  0.82381881803E-01  0.51100000000E-03 0.  1.
         11    1    4    4    0    0 -0.32944111572E-01  0.30109212092E-01  0.12617920034E-01  0.46382670979E-01  0.51100000000E-03 0. -1.
</event>
<event>
 8    1  0.1103774E+005  0.1043930E+01  0.7957747E-01            NaN
         13   -1    0    0    0    0  0.00000000000E+00  0.00000000000E+00  0.74505805969E-08  0.10566000000E+00  0.10566000000E+00 0.  1.
     999900   -1    0    0    0    0 -0.00000000000E+00 -0.00000000000E+00 -0.74505805969E-08  0.93827000000E+00  0.93827000000E+00 0. -1.
     999902    2    1    2    0    0  0.21617586378E-01 -0.69550962783E-02 -0.52167219165E-02  0.10206296225E+01  0.10203636208E+01 0.  0.
     999903    2    3    3    0    0 -0.29860001668E-01 -0.14900160570E-01 -0.12510859165E+00  0.13097400004E+00  0.19707726811E-01 0.  0.
         14    1    1    2    0    0 -0.21617586378E-01  0.69550962783E-02  0.52167219165E-02  0.23300377521E-01  0.00000000000E+00 0.  1.
     999901    1    3    3    0    0  0.51477588046E-01  0.79450642913E-02  0.11989186973E+00  0.88965562244E+00  0.88000000000E+00 0.  1.
        -11    1    4    4    0    0  0.12768701381E-02 -0.62696501210E-02 -0.19123984476E-01  0.20172427054E-01  0.51100000000E-03 0. -1.
         11    1    4    4    0    0 -0.31136871806E-01 -0.86305104486E-02 -0.10598460717E+00  0.11080157298E+00  0.51100000000E-03 0.  1.
</event>
<event>
 8    1  0.1103774E+005  0.1043930E+01  0.7957747E-01            NaN
         13   -1    0    0    0    0  0.00000000000E+00  0.00000000000E+00  0.74505805969E-08  0.10566000000E+00  0.10566000000E+00 0. -1.
     999900   -1    0    0    0    0 -0.00000000000E+00 -0.00000000000E+00 -0.74505805969E-08  0.93827000000E+00  0.93827000000E+00 0. -1.
     999902    2    1    2    0    0 -0.16023948386E-01  0.15026819645E-01  0.87866420570E-02  0.10202703865E+01  0.10199960217E+01 0.  0.
     999903    2    3    3    0    0  0.54573571881E-01  0.83035159370E-01 -0.81852314913E-01  0.13020040914E+00  0.19473896501E-01 0.  0.
         14    1    1    2    0    0  0.16023948386E-01 -0.15026819645E-01 -0.87866420570E-02  0.23659613462E-01  0.00000000000E+00 0. -1.
     999901    1    3    3    0    0 -0.70597520267E-01 -0.68008339725E-01  0.90638956970E-01  0.89006997740E+00  0.88000000000E+00 0.  1.
        -11    1    4    4    0    0  0.33619694356E-01  0.66604407188E-01 -0.61160961509E-01  0.96474635211E-01  0.51100000000E-03 0. -1.
         11    1    4    4    0    0  0.20953877525E-01  0.16430752182E-01 -0.20691353404E-01  0.33725773932E-01  0.51100000000E-03 0.  1.
</event>
<event>
 8    1  0.1103774E+005  0.1043930E+01  0.7957747E-01            NaN
         13   -1    0    0    0    0  0.00000000000E+00  0.00000000000E+00  0.74505805969E-08  0.10566000000E+00  0.10566000000E+00 0. -1.
     999900   -1    0    0    0    0 -0.00000000000E+00 -0.00000000000E+00 -0.74505805969E-08  0.93827000000E+00  0.93827000000E+00 0. -1.
     999902    2    1    2    0    0 -0.10770490289E-01  0.14740640022E-01  0.15362073490E-01  0.10200703430E+01  0.10197912637E+01 0.  0.
     999903    2    3    3    0    0  0.40471104984E-01 -0.10301760249E+00 -0.59874787680E-01  0.12757200126E+00  0.20954439715E-01 0.  0.
         14    1    1    2    0    0  0.10770490289E-01 -0.14740640022E-01 -0.15362073490E-01  0.23859656980E-01  0.00000000000E+00 0.  1.
     999901    1    3    3    0    0 -0.51241595273E-01  0.11775824251E+00  0.75236861170E-01  0.89249834176E+00  0.88000000000E+00 0.  1.
        -11    1    4    4    0    0  0.38719559299E-01 -0.85676470630E-01 -0.56858030626E-01  0.10987610595E+00  0.51100000000E-03 0.  1.
         11    1    4    4    0    0  0.17515456854E-02 -0.17341131862E-01 -0.30167570542E-02  0.17695895306E-01  0.51100000000E-03 0. -1.
</event>
<event>
 8    1  0.1103774E+005  0.1043930E+01  0.7957747E-01            NaN
         13   -1    0    0    0    0  0.00000000000E+00  0.00000000000E+00  0.74505805969E-08  0.10566000000E+00  0.10566000000E+00 0. -1.
     999900   -1    0    0    0    0 -0.00000000000E+00 -0.00000000000E+00 -0.74505805969E-08  0.93827000000E+00  0.93827000000E+00 0.  1.
     999902    2    1    2    0    0  0.84445603479E-02  0.14225643876E-01 -0.16545726859E-01  0.10205325510E+01  0.10202643025E+01 0.  0.
     999903    2    3    3    0    0 -0.10326910154E-01  0.11355824941E+00 -0.66095068715E-01  0.13336037384E+00  0.20354609293E-01 0.  0.
         14    1    1    2    0    0 -0.84445603479E-02 -0.14225643876E-01  0.16545726859E-01  0.23397449016E-01  0.00000000000E+00 0.  1.
     999901    1    3    3    0    0  0.18771470502E-01 -0.99332605532E-01  0.49549341856E-01  0.88717217715E+00  0.88000000000E+00 0. -1.
        -11    1    4    4    0    0 -0.48057926427E-02  0.86700299482E-01 -0.59161238991E-01  0.10507307406E+00  0.51100000000E-03 0. -1.
         11    1    4    4    0    0 -0.55211175110E-02  0.26857949927E-01 -0.69338297232E-02  0.28287299773E-01  0.51100000000E-03 0.  1.
</event>
<event>
 8    1  0.1103774E+005  0.1043930E+01  0.7957747E-01            NaN
         13   -1    0    0    0    0  0.00000000000E+00  0.00000000000E+00  0.74505805969E-08  0.10566000000E+00  0.10566000000E+00 0.  1.
     999900   -1    0    0    0    0 -0.00000000000E+00 -0.00000000000E+00 -0.74505805969E-08  0.93827000000E+00  0.93827000000E+00 0. -1.
     999902    2    1    2    0    0  0.45251250892E-02  0.20790354405E-01 -0.13350256529E-01  0.10188113825E+01  0.10185016879E+01 0.  0.
     999903    2    3    3    0    0 -0.26180883139E-01 -0.26140452877E-01  0.11984091319E+00  0.12702371314E+00  0.20110129463E-01 0.  0.
         14    1    1    2    0    0 -0.45251250892E-02 -0.20790354405E-01  0.13350256529E-01  0.25118617453E-01  0.00000000000E+00 0.  1.
     999901    1    3    3    0    0  0.30706008229E-01  0.46930807282E-01 -0.13319116972E+00  0.89178766941E+00  0.88000000000E+00 0. -1.
        -11    1    4    4    0    0  0.32085340463E-02 -0.14750774631E-02  0.13798661664E-01  0.14252534124E-01  0.51100000000E-03 0. -1.
         11    1    4    4    0    0 -0.29389417186E-01 -0.24665375413E-01  0.10604225153E+00  0.11277117902E+00  0.51100000000E-03 0.  1.
</event>
<event>
 8    1  0.1103774E+005  0.1043930E+01  0.7957747E-01            NaN
         13   -1    0    0    0    0  0.00000000000E+00  0.00000000000E+00  0.74505805969E-08  0.10566000000E+00  0.10566000000E+00 0. -1.
     999900   -1    0    0    0    0 -0.00000000000E+00 -0.00000000000E+00 -0.74505805969E-08  0.93827000000E+00  0.93827000000E+00 0.  1.
     999902    2    1    2    0    0 -0.18988809759E-01 -0.76438622870E-02 -0.45105702472E-02  0.10229693519E+01  0.10227545874E+01 0.  0.
     999903    2    3    3    0    0  0.84831210025E-01  0.96422536332E-01 -0.13880161771E-01  0.13072711957E+00  0.20081862288E-01 0.  0.
         14    1    1    2    0    0  0.18988809759E-01  0.76438622870E-02  0.45105702472E-02  0.20960648145E-01  0.00000000000E+00 0. -1.
     999901    1    3    3    0    0 -0.10382001978E+00 -0.10406639862E+00  0.93695915234E-02  0.89224223229E+00  0.88000000000E+00 0. -1.
        -11    1    4    4    0    0  0.61946063992E-01  0.77062264351E-01 -0.32825002251E-02  0.98928981394E-01  0.51100000000E-03 0. -1.
         11    1    4    4    0    0  0.22885146033E-01  0.19360271982E-01 -0.10597661545E-01  0.31798138175E-01  0.51100000000E-03 0.  1.
</event>
<event>
 8    1  0.1103774E+005  0.1043930E+01  0.7957747E-01            NaN
         13   -1    0    0    0    0  0.00000000000E+00  0.00000000000E+00  0.74505805969E-08  0.10566000000E+00  0.10566000000E+00 0. -1.
     999900   -1    0    0    0    0 -0.00000000000E+00 -0.00000000000E+00 -0.74505805969E-08  0.93827000000E+00  0.93827000000E+00 0. -1.
     999902    2    1    2    0    0  0.18969178209E-01 -0.13151966000E-01 -0.88826129169E-02  0.10191973345E+01  0.10188971989E+01 0.  0.
     999903    2    3    3    0    0 -0.84647826985E-01  0.84588200106E-01 -0.40152644877E-01  0.12719540694E+00  0.15684975139E-01 0.  0.
         14    1    1    2    0    0 -0.18969178209E-01  0.13151966000E-01  0.88826129169E-02  0.24732665522E-01  0.00000000000E+00 0. -1.
     999901    1    3    3    0    0  0.10361700519E+00 -0.97740166106E-01  0.31270031960E-01  0.89200192754E+00  0.88000000000E+00 0.  1.
        -11    1    4    4    0    0 -0.53284338501E-01  0.44511673225E-01 -0.28048646722E-01  0.74883225670E-01  0.51100000000E-03 0.  1.
         11    1    4    4    0    0 -0.31363488484E-01  0.40076526881E-01 -0.12103998155E-01  0.52312181268E-01  0.51100000000E-03 0. -1.
</event>
<event>
 8    1  0.1103774E+005  0.1043930E+01  0.7957747E-01            NaN
         13   -1    0    0    0    0  0.00000000000E+00  0.00000000000E+00  0.74505805969E-08  0.10566000000E+00  0.10566000000E+00 0.  1.
     999900   -1    0    0    0    0 -0.00000000000E+00 -0.00000000000E+00 -0.74505805969E-08  0.93827000000E+00  0.93827000000E+00 0.  1.
     999902    2    1    2    0    0  0.17199750877E-01  0.14733035229E-01  0.79694043259E-02  0.10199215606E+01  0.10196389482E+01 0.  0.
     999903    2    3    3    0    0  0.26206889635E-01  0.55544076092E-01 -0.11344451953E+00  0.13060271422E+00  0.20382946230E-01 0.  0.
         14    1    1    2    0    0 -0.17199750877E-01 -0.14733035229E-01 -0.79694043259E-02  0.24008439404E-01  0.00000000000E+00 0. -1.
     999901    1    3    3    0    0 -0.90071387585E-02 -0.40811040863E-01  0.12141392386E+00  0.88931884637E+00  0.88000000000E+00 0. -1.
        -11    1    4    4    0    0  0.10445722247E-01  0.47029068531E-02 -0.19137127209E-01  0.22309666177E-01  0.51100000000E-03 0. -1.
         11    1    4    4    0    0  0.15761167388E-01  0.50841169239E-01 -0.94307392326E-01  0.10829304805E+00  0.51100000000E-03 0.  1.
</event>
<event>
 8    1  0.1103774E+005  0.1043930E+01  0.7957747E-01            NaN
         13   -1    0    0    0    0  0.00000000000E+00  0.00000000000E+00  0.74505805969E-08  0.10566000000E+00  0.10566000000E+00 0.  1.
     999900   -1    0    0    0    0 -0.00000000000E+00 -0.00000000000E+00 -0.74505805969E-08  0.93827000000E+00  0.93827000000E+00 0. -1.
     999902    2    1    2    0    0 -0.20334662717E-02 -0.25414535899E-01  0.11579718946E-03  0.10184339801E+01  0.10181147896E+01 0.  0.
     999903    2    3    3    0    0  0.10434195897E+00 -0.44316667974E-01  0.60031338880E-01  0.12980419567E+00  0.19853365092E-01 0.  0.
         14    1    1    2    0    0  0.20334662717E-02  0.25414535899E-01 -0.11579718946E-03  0.25496019867E-01  0.00000000000E+00 0.  1.
     999901    1    3    3    0    0 -0.10637542524E+00  0.18902132075E-01 -0.59915541690E-01  0.88862978446E+00  0.88000000000E+00 0.  1.
        -11    1    4    4    0    0  0.76922972066E-01 -0.40911725654E-01  0.49671913586E-01  0.10029193910E+00  0.51100000000E-03 0.  1.
         11    1    4    4    0    0  0.27418986901E-01 -0.34049423200E-02  0.10359425294E-01  0.29512256578E-01  0.51100000000E-03 0. -1.
</event>
<event>
 8    1  0.1103774E+005  0.1043930E+01  0.7957747E-01            NaN
         13   -1    0    0    0    0  0.00000000000E+00  0.00000000000E+00  0.74505805969E-08  0.10566000000E+00  0.10566000000E+00 0. -1.
     999900   -1    0    0    0    0 -0.00000000000E+00 -0.00000000000E+00 -0.74505805969E-08  0.93827000000E+00  0.93827000000E+00 0.  1.
     999902    2    1    2    0    0 -0.30214293999E-02  0.20131733849E-01 -0.12244057634E-01  0.10201743125E+01  0.10198976885E+01 0.  0.
     999903    2    3    3    0    0 -0.10839750617E+00  0.72895115905E-01 -0.15104929329E-01  0.13231380729E+00  0.14665177950E-01 0.  0.
         14    1    1    2    0    0  0.30214293999E-02 -0.20131733849E-01  0.12244057634E-01  0.23755687545E-01  0.00000000000E+00 0.  1.
     999901    1    3    3    0    0  0.10537607677E+00 -0.52763382056E-01  0.28608716949E-02  0.88786050516E+00  0.88000000000E+00 0. -1.
        -11    1    4    4    0    0 -0.92667545993E-01  0.58031109600E-01 -0.84478596919E-02  0.10966545133E+00  0.51100000000E-03 0.  1.
         11    1    4    4    0    0 -0.15729960173E-01  0.14864006305E-01 -0.66570696374E-02  0.22648355959E-01  0.51100000000E-03 0. -1.
</event>
<event>
 8    1  0.1103774E+005  0.1043930E+01  0.7957747E-01            NaN
         13   -1    0    0    0    0  0.00000000000E+00  0.00000000000E+00  0.74505805969E-08  0.10566000000E+00  0.10566000000E+00 0.  1.
     999900   -1    0    0    0    0 -0.00000000000E+00 -0.00000000000E+00 -0.74505805969E-08  0.93827000000E+00  0.93827000000E+00 0.  1.
     999902    2    1    2    0    0 -0.11245021530E-01 -0.13555190004E-01  0.17273801203E-01  0.10192606284E+01  0.10189620458E+01 0.  0.
     999903    2    3    3    0    0  0.69338814864E-01 -0.10224320165E+00 -0.33685051415E-01  0.12967863516E+00  0.20501760845E-01 0.  0.
         14    1    1    2    0    0  0.11245021530E-01  0.13555190004E-01 -0.17273801203E-01  0.24669371562E-01  0.00000000000E+00 0.  1.
     999901    1    3    3    0    0 -0.80583836393E-01  0.88688011650E-01  0.50958852618E-01  0.88958199327E+00  0.88000000000E+00 0. -1.
        -11    1    4    4    0    0  0.82751835439E-02 -0.16675816908E-01  0.18437495623E-02  0.18714220948E-01  0.51100000000E-03 0. -1.
         11    1    4    4    0    0  0.61063631320E-01 -0.85567384746E-01 -0.35528800977E-01  0.11096441422E+00  0.51100000000E-03 0.  1.
</event>
<event>
 8    1  0.1103774E+005  0.1043930E+01  0.7957747E-01            NaN
         13   -1    0    0    0    0  0.00000000000E+00  0.00000000000E+00  0.74505805969E-08  0.10566000000E+00  0.10566000000E+00 0. -1.
     999900   -1    0    0    0    0 -0.00000000000E+00 -0.00000000000E+00 -0.74505805969E-08  0.93827000000E+00  0.93827000000E+00 0.  1.
     999902    2    1    2    0    0 -0.91952809484E-02  0.15875216578E-01 -0.14194337762E-01  0.10207339892E+01  0.10204703924E+01 0.  0.
     999903    2    3    3    0    0  0.81600905116E-01  0.10097082356E+00 -0.13375438132E-01  0.13197874711E+00  0.19638544123E-01 0.  0.
         14    1    1    2    0    0  0.91952809484E-02 -0.15875216578E-01  0.14194337762E-01  0.23196010812E-01  0.00000000000E+00 0.  1.
     999901    1    3    3    0    0 -0.90796186065E-01 -0.85095606986E-01 -0.81889962964E-03  0.88875524208E+00  0.88000000000E+00 0.  1.
        -11    1    4    4    0    0  0.23501360496E-01  0.16392466211E-01 -0.40606154131E-02  0.28944370993E-01  0.51100000000E-03 0. -1.
         11    1    4    4    0    0  0.58099544621E-01  0.84578357353E-01 -0.93148227190E-02  0.10303437611E+00  0.51100000000E-03 0.  1.
</event>
<event>
 8    1  0.1103774E+005  0.1043930E+01  0.7957747E-01            NaN
         13   -1    0    0    0    0  0.00000000000E+00  0.00000000000E+00  0.74505805969E-08  0.10566000000E+00  0.10566000000E+00 0.  1.
     999900   -1    0    0    0    0 -0.00000000000E+00 -0.00000000000E+00 -0.74505805969E-08  0.93827000000E+00  0.93827000000E+00 0.  1.
     999902    2    1    2    0    0 -0.11380712121E-01 -0.16994282734E-02  0.20462552974E-01  0.10204539539E+01  0.10201838792E+01 0.  0.
     999903    2    3    3    0    0  0.66001581664E-01  0.10826202106E+00  0.24502386008E-01  0.13023158846E+00  0.16823368500E-01 0.  0.
         14    1    1    2    0    0  0.11380712121E-01  0.16994282734E-02 -0.20462552974E-01  0.23476046070E-01  0.00000000000E+00 0. -1.
     999901    1    3    3    0    0 -0.77382293785E-01 -0.10996144933E+00 -0.40398330342E-02  0.89022236547E+00  0.88000000000E+00 0.  1.
        -11    1    4    4    0    0  0.22224437296E-01  0.27450662312E-01  0.87207192273E-03  0.35333922864E-01  0.51100000000E-03 0.  1.
         11    1    4    4    0    0  0.43777144369E-01  0.80811358744E-01  0.23630314086E-01  0.94897665598E-01  0.51100000000E-03 0. -1.
</event>
<event>
 8    1  0.1103774E+005  0.1043930E+01  0.7957747E-01            NaN
         13   -1    0    0    0    0  0.00000000000E+00  0.00000000000E+00  0.74505805969E-08  0.10566000000E+00  0.10566000000E+00 0.  1.
     999900   -1    0    0    0    0 -0.00000000000E+00 -0.00000000000E+00 -0.74505805969E-08  0.93827000000E+00  0.93827000000E+00 0.  1.
     999902    2    1    2    0    0 -0.90997955590E-02 -0.89494678023E-02  0.19749095573E-01  0.10204156208E+01  0.10201446530E+01 0.  0.
     999903    2    3    3    0    0 -0.70715284084E-01 -0.10475001855E+00 -0.30742015460E-01  0.13163917746E+00  0.20262865971E-01 0.  0.
         14    1    1    2    0    0  0.90997955590E-02  0.89494678023E-02 -0.19749095573E-01  0.23514379199E-01  0.00000000000E+00 0. -1.
     999901    1    3    3    0    0  0.61615488525E-01  0.95800550749E-01  0.50491111033E-01  0.88877644334E+00  0.88000000000E+00 0. -1.
        -11    1    4    4    0    0 -0.38461170880E-01 -0.41903067837E-01 -0.19365612821E-01  0.60086744300E-01  0.51100000000E-03 0.  1.
         11    1    4    4    0    0 -0.32254113204E-01 -0.62846950715E-01 -0.11376402639E-01  0.71552433157E-01  0.51100000000E-03 0. -1.
</event>
<event>
 8    1  0.1103774E+005  0.1043930E+01  0.7957747E-01            NaN
         13   -1    0    0    0    0  0.00000000000E+00  0.00000000000E+00  0.74505805969E-08  0.10566000000E+00  0.10566000000E+00 0. -1.
     999900   -1    0    0    0    0 -0.00000000000E+00 -0.00000000000E+00 -0.74505805969E-08  0.93827000000E+00  0.93827000000E+00 0.  1.
     999902    2    1    2    0    0 -0.94568505644E-02 -0.20383288127E-01 -0.52260704817E-02  0.10208600570E+01  0.10205993502E+01 0.  0.
     999903    2    3    3    0    0 -0.46969850382E-02 -0.10424063566E+00  0.79470837985E-01  0.13281260480E+00  0.20866291297E-01 0.  0.
         14    1    1    2    0    0  0.94568505644E-02  0.20383288127E-01  0.52260704817E-02  0.23069943002E-01  0.00000000000E+00 0. -1.
     999901    1    3    3    0    0 -0.47598655262E-02  0.83857347531E-01 -0.84696908466E-01  0.88804745220E+00  0.88000000000E+00 0. -1.
        -11    1    4    4    0    0  0.81145052685E-02 -0.36132841154E-01  0.25370127196E-01  0.44892447923E-01  0.51100000000E-03 0. -1.
         11    1    4    4    0    0 -0.12811490307E-01 -0.68107794503E-01  0.54100710789E-01  0.87920156874E-01  0.51100000000E-03 0.  1.
</event>
<event>
 8    1  0.1103774E+005  0.1043930E+01  0.7957747E-01            NaN
         13   -1    0    0    0    0  0.00000000000E+00  0.00000000000E+00  0.74505805969E-08  0.10566000000E+00  0.10566000000E+00 0. -1.
     999900   -1    0    0    0    0 -0.00000000000E+00 -0.00000000000E+00 -0.74505805969E-08  0.93827000000E+00  0.93827000000E+00 0. -1.
     999902    2    1    2    0    0  0.22118927417E-01 -0.78667399672E-02 -0.49866968989E-02  0.10199300064E+01  0.10196475951E+01 0.  0.
     999903    2    3    3    0    0  0.12253801658E+00 -0.17037398336E-01  0.43966896924E-01  0.13281978279E+00  0.20054132390E-01 0.  0.
         14    1    1    2    0    0 -0.22118927417E-01  0.78667399672E-02  0.49866968989E-02  0.23999993620E-01  0.00000000000E+00 0. -1.
     999901    1    3    3    0    0 -0.10041908917E+00  0.91706583693E-02 -0.48953593823E-01  0.88711022359E+00  0.88000000000E+00 0. -1.
        -11    1    4    4    0    0  0.37437221916E-01  0.22517704315E-02  0.75287828131E-02  0.38256499402E-01  0.51100000000E-03 0. -1.
         11    1    4    4    0    0  0.85100794667E-01 -0.19289168768E-01  0.36438114111E-01  0.94563283391E-01  0.51100000000E-03 0.  1.
</event>
<event>
 8    1  0.1103774E+005  0.1043930E+01  0.7957747E-01            NaN
         13   -1    0    0    0    0  0.00000000000E+00  0.00000000000E+00  0.74505805969E-08  0.10566000000E+00  0.10566000000E+00 0. -1.
     999900   -1    0    0    0    0 -0.00000000000E+00 -0.00000000000E+00 -0.74505805969E-08  0.93827000000E+00  0.93827000000E+00 0. -1.
     999902    2    1    2    0    0  0.12742167629E-01 -0.15519225167E-01 -0.15442854683E-01  0.10185983805E+01  0.10182833446E+01 0.  0.
     999903    2    3    3    0    0  0.10652020707E+00 -0.52540071514E-01 -0.54436309765E-01  0.13198383444E+00  0.18692434417E-01 0.  0.
         14    1    1    2    0    0 -0.12742167629E-01  0.15519225167E-01  0.15442854683E-01  0.25331619499E-01  0.00000000000E+00 0.  1.
     999901    1    3    3    0    0 -0.93778039439E-01  0.37020846348E-01  0.38993455082E-01  0.88661454606E+00  0.88000000000E+00 0. -1.
        -11    1    4    4    0    0  0.41138792646E-01 -0.30575186853E-01 -0.22889458356E-01  0.56137605366E-01  0.51100000000E-03 0.  1.
         11    1    4    4    0    0  0.65381414423E-01 -0.21964884662E-01 -0.31546851410E-01  0.75846229075E-01  0.51100000000E-03 0. -1.
</event>
<event>
 8    1  0.1103774E+005  0.1043930E+01  0.7957747E-01            NaN
         13   -1    0    0    0    0  0.00000000000E+00  0.00000000000E+00  0.74505805969E-08  0.10566000000E+00  0.10566000000E+00 0.  1.
     999900   -1    0    0    0    0 -0.00000000000E+00 -0.00000000000E+00 -0.74505805969E-08  0.93827000000E+00  0.93827000000E+00 0.  1.
     999902    2    1    2    0    0  0.22667384746E-01  0.12928715262E-01  0.40518112157E-02  0.10175220621E+01  0.10171793193E+01 0.  0.
     999903    2    3    3    0    0 -0.62628854021E-01 -0.99914147815E-01  0.38568388350E-01  0.12555773872E+00  0.19287687371E-01 0.  0.
         14    1    1    2    0    0 -0.22667384746E-01 -0.12928715262E-01 -0.40518112157E-02  0.26407937891E-01  0.00000000000E+00 0. -1.
     999901    1    3    3    0    0  0.85296238766E-01  0.11284286308E+00 -0.34516577134E-01  0.89196432339E+00  0.88000000000E+00 0.  1.
        -11    1    4    4    0    0 -0.17878814689E-01 -0.44583298261E-01  0.19819006049E-01  0.51965148131E-01  0.51100000000E-03 0.  1.
         11    1    4    4    0    0 -0.44750039332E-01 -0.55330849554E-01  0.18749382300E-01  0.73592590593E-01  0.51100000000E-03 0. -1.
</event>
<event>
 8    1  0.1103774E+005  0.1043930E+01  0.7957747E-01            NaN
         13   -1    0    0    0    0  0.00000000000E+00  0.00000000000E+00  0.74505805969E-08  0.10566000000E+00  0.10566000000E+00 0.  1.
     999900   -1    0    0    0    0 -0.00000000000E+00 -0.00000000000E+00 -0.74505805969E-08  0.93827000000E+00  0.93827000000E+00 0. -1.
     999902    2    1    2    0    0 -0.17171142343E-01  0.16158244336E-01  0.10488336950E-02  0.10203283678E+01  0.10200553618E+01 0.  0.
     999903    2    3    3    0    0 -0.52685847069E-01 -0.76532801644E-02  0.11857175007E+00  0.13148647028E+00  0.19876135808E-01 0.  0.
         14    1    1    2    0    0  0.17171142343E-01 -0.16158244336E-01 -0.10488336950E-02  0.23601632178E-01  0.00000000000E+00 0. -1.
     999901    1    3    3    0    0  0.35514704727E-01  0.23811524500E-01 -0.11752291637E+00  0.88884189754E+00  0.88000000000E+00 0. -1.
        -11    1    4    4    0    0 -0.11197398440E-01 -0.56301566481E-02  0.47850889769E-01  0.49467657802E-01  0.51100000000E-03 0. -1.
         11    1    4    4    0    0 -0.41488448629E-01 -0.20231235162E-02  0.70720860297E-01  0.82018812479E-01  0.51100000000E-03 0.  1.
</event>
<event>
 8    1  0.1103774E+005  0.1043930E+01  0.7957747E-01            NaN
         13   -1    0    0    0    0  0.00000000000E+00  0.00000000000E+00  0.74505805969E-08  0.10566000000E+00  0.10566000000E+00 0. -1.
     999900   -1    0    0    0    0 -0.00000000000E+00 -0.00000000000E+00 -0.74505805969E-08  0.93827000000E+00  0.93827000000E+00 0. -1.
     999902    2    1    2    0    0  0.15511385080E-01 -0.19560628436E-01  0.57008066726E-02  0.10183229610E+01  0.10180009491E+01 0.  0.
     999903    2    3    3    0    0  0.11817603276E+00  0.49183942798E-02 -0.51448336669E-01  0.13017585770E+00  0.17580024500E-01 0.  0.
         14    1    1    2    0    0 -0.15511385080E-01  0.19560628436E-01 -0.57008066726E-02  0.25607039045E-01  0.00000000000E+00 0.  1.
     999901    1    3    3    0    0 -0.10266464768E+00 -0.24479022716E-01  0.57149143342E-01  0.88814710326E+00  0.88000000000E+00 0. -1.
        -11    1    4    4    0    0  0.55518266555E-01  0.64071017574E-02 -0.15843597038E-01  0.58091389744E-01  0.51100000000E-03 0. -1.
         11    1    4    4    0    0  0.62657766202E-01 -0.14887074777E-02 -0.35604739632E-01  0.72084467957E-01  0.51100000000E-03 0.  1.
</event>
<event>
 8    1  0.1103774E+005  0.1043930E+01  0.7957747E-01            NaN
         13   -1    0    0    0    0  0.00000000000E+00  0.00000000000E+00  0.74505805969E-08  0.10566000000E+00  0.10566000000E+00 0. -1.
     999900   -1    0    0    0    0 -0.00000000000E+00 -0.00000000000E+00 -0.74505805969E-08  0.93827000000E+00  0.93827000000E+00 0. -1.
     999902    2    1    2    0    0  0.34399303876E-02 -0.16802661246E-01  0.17995945335E-01  0.10190700604E+01  0.10187667896E+01 0.  0.
     999903    2    3    3    0    0  0.10916211861E-01  0.73194807077E-01  0.10510106660E+00  0.13017032412E+00  0.20528897108E-01 0.  0.
         14    1    1    2    0    0 -0.34399303876E-02  0.16802661246E-01 -0.17995945335E-01  0.24859939551E-01  0.00000000000E+00 0.  1.
     999901    1    3    3    0    0 -0.74762814733E-02 -0.89997468322E-01 -0.87105121269E-01  0.88889973633E+00  0.88000000000E+00 0. -1.
        -11    1    4    4    0    0  0.26417796027E-02  0.62920707470E-01  0.80055717581E-01  0.10185859545E+00  0.51100000000E-03 0. -1.
         11    1    4    4    0    0  0.82744322581E-02  0.10274099607E-01  0.25045349023E-01  0.28311728676E-01  0.51100000000E-03 0.  1.
</event>
<event>
 8    1  0.1103774E+005  0.1043930E+01  0.7957747E-01            NaN
         13   -1    0    0    0    0  0.00000000000E+00  0.00000000000E+00  0.74505805969E-08  0.10566000000E+00  0.10566000000E+00 0.  1.
     999900   -1    0    0    0    0 -0.00000000000E+00 -0.00000000000E+00 -0.74505805969E-08  0.93827000000E+00  0.93827000000E+00 0. -1.
     999902    2    1    2    0    0  0.69505514633E-02 -0.43269322043E-02 -0.23430265321E-01  0.10191104545E+01  0.10188081804E+01 0.  0.
     999903    2    3    3    0    0 -0.12241116963E+00 -0.74852938177E-02 -0.36594951983E-01  0.12955003543E+00  0.20087237091E-01 0.  0.
         14    1    1    2    0    0 -0.69505514633E-02  0.43269322043E-02  0.23430265321E-01  0.24819545543E-01  0.00000000000E+00 0.  1.
     999901    1    3    3    0    0  0.12936172109E+00  0.31583616135E-02  0.13164686661E-01  0.88956041903E+00  0.88000000000E+00 0.  1.
        -11    1    4    4    0    0 -0.16648407114E-01  0.50255844203E-02 -0.17142208422E-02  0.17482151821E-01  0.51100000000E-03 0.  1.
         11    1    4    4    0    0 -0.10576276252E+00 -0.12510878238E-01 -0.34880731141E-01  0.11206788360E+00  0.51100000000E-03 0. -1.
</event>
<event>
 8    1  0.1103774E+005  0.1043930E+01  0.7957747E-01            NaN
         13   -1    0    0    0    0  0.00000000000E+00  0.00000000000E+00  0.74505805969E-08  0.10566000000E+00  0.10566000000E+00 0. -1.
     999900   -1    0    0    0    0 -0.00000000000E+00 -0.00000000000E+00 -0.74505805969E-08  0.93827000000E+00  0.93827000000E+00 0. -1.
     999902    2    1    2    0    0 -0.11194511124E-01  0.32150927386E-02 -0.22177054918E-01  0.10188805356E+01  0.10185725650E+01 0.  0.
     999903    2    3    3    0    0  0.15638559371E-02  0.78112038953E-01  0.98649242627E-01  0.12738105573E+00  0.19756619455E-01 0.  0.
         14    1    1    2    0    0  0.11194511124E-01 -0.32150927386E-02  0.22177054918E-01  0.25049464375E-01  0.00000000000E+00 0.  1.
     999901    1    3    3    0    0 -0.12758367061E-01 -0.74896946214E-01 -0.12082629754E+00  0.89149947990E+00  0.88000000000E+00 0. -1.
        -11    1    4    4    0    0 -0.45387774446E-02  0.36512012546E-02  0.63286919904E-02  0.86165674490E-02  0.51100000000E-03 0. -1.
         11    1    4    4    0    0  0.61026333817E-02  0.74460837698E-01  0.92320550636E-01  0.11876448828E+00  0.51100000000E-03 0.  1.
</event>
<event>
 8    1  0.1103774E+005  0.1043930E+01  0.7957747E-01            NaN
         13   -1    0    0    0    0  0.00000000000E+00  0.00000000000E+00  0.74505805969E-08  0.10566000000E+00  0.10566000000E+00 0.  1.
     999900   -1    0    0    0    0 -0.00000000000E+00 -0.00000000000E+00 -0.74505805969E-08  0.93827000000E+00  0.93827000000E+00 0. -1.
     999902    2    1    2    0    0  0.12211866667E-02  0.23257707343E-01 -0.67400452484E-02  0.10196845786E+01  0.10193962916E+01 0.  0.
     999903    2    3    3    0    0 -0.42406039108E-01  0.96434666874E-01  0.76696806888E-01  0.13164183724E+00  0.18688392026E-01 0.  0.
         14    1    1    2    0    0 -0.12211866667E-02 -0.23257707343E-01  0.67400452484E-02  0.24245421376E-01  0.00000000000E+00 0.  1.
     999901    1    3    3    0    0  0.43627225774E-01 -0.73176959531E-01 -0.83436852136E-01  0.88804274139E+00  0.88000000000E+00 0. -1.
        -11    1    4    4    0    0 -0.29732286081E-02  0.46717477442E-02 -0.24072909608E-03  0.55663620830E-02  0.51100000000E-03 0. -1.
         11    1    4    4    0    0 -0.39432810500E-01  0.91762919130E-01  0.76937535984E-01  0.12607547515E+00  0.51100000000E-03 0.  1.
</event>
<event>
 8    1  0.1103774E+005  0.1043930E+01  0.7957747E-01            NaN
         13   -1    0    0    0    0  0.00000000000E+00  0.00000000000E+00  0.74505805969E-08  0.10566000000E+00  0.10566000000E+00 0. -1.
     999900   -1    0    0    0    0 -0.00000000000E+00 -0.00000000000E+00 -0.74505805969E-08  0.93827000000E+00  0.93827000000E+00 0. -1.
     999902    2    1    2    0    0  0.72192341035E-03 -0.22183676305E-01 -0.94711212194E-03  0.10217143819E+01  0.10214728310E+01 0.  0.
     999903    2    3    3    0    0 -0.10677309465E+00 -0.50023921868E-01  0.56781859866E-01  0.13285956110E+00  0.22904079695E-01 0.  0.
         14    1    1    2    0    0 -0.72192341035E-03  0.22183676305E-01  0.94711212194E-03  0.22215618136E-01  0.00000000000E+00 0. -1.
     999901    1    3    3    0    0  0.10749501806E+00  0.27840245563E-01 -0.57728971988E-01  0.88885482076E+00  0.88000000000E+00 0.  1.
        -11    1    4    4    0    0 -0.76222080954E-01 -0.46481336096E-01  0.40145253473E-01  0.97888828411E-01  0.51100000000E-03 0.  1.
         11    1    4    4    0    0 -0.30551013696E-01 -0.35425857716E-02  0.16636606393E-01  0.34970732693E-01  0.51100000000E-03 0. -1.
</event>
<event>
 8    1  0.1103774E+005  0.1043930E+01  0.7957747E-01            NaN
         13   -1    0    0    0    0  0.00000000000E+00  0.00000000000E+00  0.74505805969E-08  0.10566000000E+00  0.10566000000E+00 0. -1.
     999900   -1    0    0    0    0 -0.00000000000E+00 -0.00000000000E+00 -0.74505805969E-08  0.93827000000E+00  0.93827000000E+00 0. -1.
     999902    2    1    2    0    0  0.57094556595E-02  0.15440105746E-01  0.16106745248E-01  0.10208991079E+01  0.10206392930E+01 0.  0.
     999903    2    3    3    0    0  0.79445402767E-01  0.77544436543E-01 -0.67689915390E-01  0.13167707816E+00  0.20789819822E-01 0.  0.
         14    1    1    2    0    0 -0.57094556595E-02 -0.15440105746E-01 -0.16106745248E-01  0.23030892121E-01  0.00000000000E+00 0.  1.
     999901    1    3    3    0    0 -0.73735947108E-01 -0.62104330797E-01  0.83796660639E-01  0.88922202972E+00  0.88000000000E+00 0.  1.
        -11    1    4    4    0    0  0.60987103866E-01  0.64879730440E-01 -0.62213552859E-01  0.10862593401E+00  0.51100000000E-03 0.  1.
         11    1    4    4    0    0  0.18458298901E-01  0.12664706103E-01 -0.54763625312E-02  0.23051144149E-01  0.51100000000E-03 0. -1.
</event>
<event>
 8    1  0.1103774E+005  0.1043930E+01  0.7957747E-01            NaN
         13   -1    0    0    0    0  0.00000000000E+00  0.00000000000E+00  0.74505805969E-08  0.10566000000E+00  0.10566000000E+00 0.  1.
     999900   -1    0    0    0    0 -0.00000000000E+00 -0.00000000000E+00 -0.74505805969E-08  0.93827000000E+00  0.93827000000E+00 0. -1.
     999902    2    1    2    0    0  0.47175882172E-02  0.11478115888E-01  0.19572408127E-01  0.10207549716E+01  0.10204918569E+01 0.  0.
     999903    2    3    3    0    0 -0.10982370177E+00 -0.63077718436E-01  0.22242690781E-01  0.13020154254E+00  0.20436740255E-01 0.  0.
         14    1    1    2    0    0 -0.47175882172E-02 -0.11478115888E-01 -0.19572408127E-01  0.23175028432E-01  0.00000000000E+00 0. -1.
     999901    1    3    3    0    0  0.11454128999E+00  0.74555834324E-01 -0.26702826534E-02  0.89055342903E+00  0.88000000000E+00 0.  1.
        -11    1    4    4    0    0 -0.90750442772E-01 -0.60279744176E-01  0.20265869601E-01  0.11081632106E+00  0.51100000000E-03 0. -1.
         11    1    4    4    0    0 -0.19073259001E-01 -0.27979742593E-02  0.19768211797E-02  0.19385221481E-01  0.51100000000E-03 0.  1.
</event>
<event>
 8    1  0.1103774E+005  0.1043930E+01  0.7957747E-01            NaN
         13   -1    0    0    0    0  0.00000000000E+00  0.00000000000E+00  0.74505805969E-08  0.10566000000E+00  0.10566000000E+00 0. -1.
     999900   -1    0    0    0    0 -0.00000000000E+00 -0.00000000000E+00 -0.74505805969E-08  0.93827000000E+00  0.93827000000E+00 0.  1.
     999902    2    1    2    0    0 -0.10016232194E-01 -0.22224376822E-01 -0.25680861576E-03  0.10195514483E+01  0.10192599482E+01 0.  0.
     999903    2    3    3    0    0 -0.10472602363E+00 -0.73813758644E-01 -0.28230940477E-01  0.13252610426E+00  0.18712865066E-01 0.  0.
         14    1    1    2    0    0  0.10016232194E-01  0.22224376822E-01  0.25680861576E-03  0.24378551703E-01  0.00000000000E+00 0.  1.
     999901    1    3    3    0    0  0.94709791439E-01  0.51589381821E-01  0.27974131862E-01  0.88702534404E+00  0.88000000000E+00 0. -1.
        -11    1    4    4    0    0 -0.81742858005E-01 -0.64455361831E-01 -0.27606425025E-01  0.10769755952E+00  0.51100000000E-03 0.  1.
         11    1    4    4    0    0 -0.22983165627E-01 -0.93583968121E-02 -0.62451545190E-03  0.24828544736E-01  0.51100000000E-03 0. -1.
</event>
<event>
 8    1  0.1103774E+005  0.1043930E+01  0.7957747E-01            NaN
         13   -1    0    0    0    0  0.00000000000E+00  0.00000000000E+00  0.74505805969E-08  0.10566000000E+00  0.10566000000E+00 0.  1.
     999900   -1    0    0    0    0 -0.00000000000E+00 -0.00000000000E+00 -0.74505805969E-08  0.93827000000E+00  0.93827000000E+00 0. -1.
     999902    2    1    2    0    0  0.19459906588E-01 -0.82610640942E-02  0.83178888778E-02  0.10212117162E+01  0.10209589849E+01 0.  0.
     999903    2    3    3    0    0 -0.10698372441E+00 -0.57915296345E-01  0.41565531167E-01  0.13016797970E+00  0.20403693753E-01 0.  0.
         14    1    1    2    0    0 -0.19459906588E-01  0.82610640942E-02 -0.83178888778E-02  0.22718283821E-01  0.00000000000E+00 0.  1.
     999901    1    3    3    0    0  0.12644363100E+00  0.49654232251E-01 -0.33247642289E-01  0.89104373648E+00  0.88000000000E+00 0. -1.
        -11    1    4    4    0    0 -0.43475581963E-01 -0.13495728239E-01  0.19974179446E-01  0.49714081237E-01  0.51100000000E-03 0.  1.
         11    1    4    4    0    0 -0.63508142447E-01 -0.44419568107E-01  0.21591351721E-01  0.80453898463E-01  0.51100000000E-03 0. -1.
</event>
<event>
 8    1  0.1103774E+005  0.1043930E+01  0.7957747E-01            NaN
         13   -1    0    0    0    0  0.00000000000E+00  0.00000000000E+00  0.74505805969E-08  0.10566000000E+00  0.10566000000E+00 0.  1.
     999900   -1    0    0    0    0 -0.00000000000E+00 -0.00000000000E+00 -0.74505805969E-08  0.93827000000E+00  0.93827000000E+00 0. -1.
     999902    2    1    2    0    0 -0.55446530886E-03 -0.81927390737E-02  0.21651049206E-01  0.10207740863E+01  0.10205114105E+01 0.  0.
     999903    2    3    3    0    0  0.12578632841E+00 -0.33226396720E-01 -0.65155634824E-02  0.13095273448E+00  0.13415373504E-01 0.  0.
         14    1    1    2    0    0  0.55446530886E-03  0.81927390737E-02 -0.21651049206E-01  0.23155913651E-01  0.00000000000E+00 0. -1.
     999901    1    3    3    0    0 -0.12634079372E+00  0.25033657646E-01  0.28166612688E-01  0.88982135187E+00  0.88000000000E+00 0. -1.
        -11    1    4    4    0    0  0.57914177026E-01 -0.84781839640E-02 -0.37868013765E-02  0.58656052454E-01  0.51100000000E-03 0. -1.
         11    1    4    4    0    0  0.67872151385E-01 -0.24748212756E-01 -0.27287621059E-02  0.72296682025E-01  0.51100000000E-03 0.  1.
</event>
<event>
 8    1  0.1103774E+005  0.1043930E+01  0.7957747E-01            NaN
         13   -1    0    0    0    0  0.00000000000E+00  0.00000000000E+00  0.74505805969E-08  0.10566000000E+00  0.10566000000E+00 0. -1.
     999900   -1    0    0    0    0 -0.00000000000E+00 -0.00000000000E+00 -0.74505805969E-08  0.93827000000E+00  0.93827000000E+00 0.  1.
     999902    2    1    2    0    0  0.19665552229E-01  0.13496353655E-01 -0.41444682759E-02  0.10197212800E+01  0.10194338756E+01 0.  0.
     999903    2    3    3    0    0 -0.11961240019E+00  0.28142558089E-01  0.29775503131E-01  0.12800191619E+00  0.19969479379E-01 0.  0.
         14    1    1    2    0    0 -0.19665552229E-01 -0.13496353655E-01  0.41444682759E-02  0.24208719994E-01  0.00000000000E+00 0. -1.
     999901    1    3    3    0    0  0.13927795242E+00 -0.14646204434E-01 -0.33919971407E-01  0.89171936381E+00  0.88000000000E+00 0.  1.
        -11    1    4    4    0    0 -0.15341193402E-01  0.10601069886E-02  0.10321154639E-01  0.18527368833E-01  0.51100000000E-03 0.  1.
         11    1    4    4    0    0 -0.10427120679E+00  0.27082451101E-01  0.19454348492E-01  0.10947454736E+00  0.51100000000E-03 0. -1.
</event>
<event>
 8    1  0.1103774E+005  0.1043930E+01  0.7957747E-01            NaN
         13   -1    0    0    0    0  0.00000000000E+00  0.00000000000E+00  0.74505805969E-08  0.10566000000E+00  0.10566000000E+00 0. -1.
     999900   -1    0    0    0    0 -0.00000000000E+00 -0.00000000000E+00 -0.74505805969E-08  0.93827000000E+00  0.93827000000E+00 0. -1.
     999902    2    1    2    0    0 -0.42531495460E-02 -0.18316001049E-01  0.13885149541E-01  0.10205556005E+01  0.10202878864E+01 0.  0.
     999903    2    3    3    0    0 -0.33508257846E-02 -0.13149432244E+00 -0.51857875104E-02  0.13310202577E+00  0.19679227719E-01 0.  0.
         14    1    1    2    0    0  0.42531495460E-02  0.18316001049E-01 -0.13885149541E-01  0.23374399527E-01  0.00000000000E+00 0.  1.
     999901    1    3    3    0    0 -0.90232376135E-03  0.11317832139E+00  0.19070937051E-01  0.88745357471E+00  0.88000000000E+00 0.  1.
        -11    1    4    4    0    0  0.83667000826E-03 -0.12616755069E+00 -0.42493518360E-02  0.12624289674E+00  0.51100000000E-03 0.  1.
         11    1    4    4    0    0 -0.41874957929E-02 -0.53267717447E-02 -0.93643567442E-03  0.68591290269E-02  0.51100000000E-03 0. -1.
</event>
<event>
 8    1  0.1103774E+005  0.1043930E+01  0.7957747E-01            NaN
         13   -1    0    0    0    0  0.00000000000E+00  0.00000000000E+00  0.74505805969E-08  0.10566000000E+00  0.10566000000E+00 0.  1.
     999900   -1    0    0    0    0 -0.00000000000E+00 -0.00000000000E+00 -0.74505805969E-08  0.93827000000E+00  0.93827000000E+00 0.  1.
     999902    2    1    2    0    0 -0.11887132793E-02  0.10770882384E-01  0.20877609250E-01  0.10204076805E+01  0.10201365276E+01 0.  0.
     999903    2    3    3    0    0 -0.10120125007E+00  0.44541700311E-01  0.70575009352E-01  0.13270682591E+00  0.20115009764E-01 0.  0.
         14    1    1    2    0    0  0.11887132793E-02 -0.10770882384E-01 -0.20877609250E-01  0.23522319498E-01  0.00000000000E+00 0. -1.
     999901    1    3    3    0    0  0.10001253679E+00 -0.33770817927E-01 -0.49697400102E-01  0.88770085459E+00  0.88000000000E+00 0.  1.
        -11    1    4    4    0    0 -0.45926883700E-01  0.17821276408E-01  0.20032862406E-01  0.53183204458E-01  0.51100000000E-03 0.  1.
         11    1    4    4    0    0 -0.55274366365E-01  0.26720423903E-01  0.50542146946E-01  0.79523621456E-01  0.51100000000E-03 0. -1.
</event>
<event>
 8    1  0.1103774E+005  0.1043930E+01  0.7957747E-01            NaN
         13   -1    0    0    0    0  0.00000000000E+00  0.00000000000E+00  0.74505805969E-08  0.10566000000E+00  0.10566000000E+00 0. -1.
     999900   -1    0    0    0    0 -0.00000000000E+00 -0.00000000000E+00 -0.74505805969E-08  0.93827000000E+00  0.93827000000E+00 0. -1.
     999902    2    1    2    0    0  0.96538738243E-02  0.78593831304E-02 -0.18495247225E-01  0.10216355757E+01  0.10213922891E+01 0.  0.
     999903    2    3    3    0    0  0.12193350194E+00 -0.18922505052E-01  0.42277221380E-01  0.13201921047E+00  0.20392851501E-01 0.  0.
         14    1    1    2    0    0 -0.96538738243E-02 -0.78593831304E-02  0.18495247225E-01  0.22294424256E-01  0.00000000000E+00 0.  1.
     999901    1    3    3    0    0 -0.11227962812E+00  0.26781888183E-01 -0.60772468605E-01  0.88961636527E+00  0.88000000000E+00 0. -1.
        -11    1    4    4    0    0  0.90374397685E-01 -0.49102554779E-02  0.29443466080E-01  0.95177839761E-01  0.51100000000E-03 0. -1.
         11    1    4    4    0    0  0.31559104255E-01 -0.14012249575E-01  0.12833755300E-01  0.36841370708E-01  0.51100000000E-03 0.  1.
</event>
<event>
 8    1  0.1103774E+005  0.1043930E+01  0.7957747E-01            NaN
         13   -1    0    0    0    0  0.00000000000E+00  0.00000000000E+00  0.74505805969E-08  0.10566000000E+00  0.10566000000E+00 0.  1.
     999900   -1    0    0    0    0 -0.00000000000E+00 -0.00000000000E+00 -0.74505805969E-08  0.93827000000E+00  0.93827000000E+00 0. -1.
     999902    2    1    2    0    0  0.66186364925E-02 -0.18413017390E-01  0.13307345132E-01  0.10202671390E+01  0.10199926979E+01 0.  0.
     999903    2    3    3    0    0 -0.76658479675E-01 -0.22711859347E-01 -0.98997910675E-01  0.12921942497E+00  0.22466027903E-01 0.  0.
         14    1    1    2    0    0 -0.66186364925E-02  0.18413017390E-01 -0.13307345132E-01  0.23662861046E-01  0.00000000000E+00 0.  1.
     999901    1    3    3    0    0  0.83277116168E-01  0.42988419565E-02  0.11230525581E+00  0.89104771399E+00  0.88000000000E+00 0.  1.
        -11    1    4    4    0    0 -0.14764136820E-01 -0.50857251513E-02 -0.74381384059E-02  0.17304085075E-01  0.51100000000E-03 0.  1.
         11    1    4    4    0    0 -0.61894342856E-01 -0.17626134196E-01 -0.91559772269E-01  0.11191533989E+00  0.51100000000E-03 0. -1.
</event>
<event>
 8    1  0.1103774E+005  0.1043930E+01  0.7957747E-01            NaN
         13   -1    0    0    0    0  0.00000000000E+00  0.00000000000E+00  0.74505805969E-08  0.10566000000E+00  0.10566000000E+00 0.  1.
     999900   -1    0    0    0    0 -0.00000000000E+00 -0.00000000000E+00 -0.74505805969E-08  0.93827000000E+00  0.93827000000E+00 0.  1.
     999902    2    1    2    0    0 -0.66152128282E-02  0.22588866126E-01  0.50905074191E-02  0.10198482397E+01  0.10195638778E+01 0.  0.
     999903    2    3    3    0    0 -0.71208554747E-02  0.28512873812E-01 -0.12536199871E+00  0.13021168138E+00  0.19384547703E-01 0.  0.
         14    1    1    2    0    0  0.66152128282E-02 -0.22588866126E-01 -0.50905074191E-02  0.24081760306E-01  0.00000000000E+00 0. -1.
     999901    1    3    3    0    0  0.50564264658E-03 -0.59240076861E-02  0.13045250613E+00  0.88963655832E+00  0.88000000000E+00 0. -1.
        -11    1    4    4    0    0 -0.34699499303E-02  0.21040655030E-01 -0.49592514214E-01  0.53985445295E-01  0.51100000000E-03 0. -1.
         11    1    4    4    0    0 -0.36509055445E-02  0.74722187820E-02 -0.75769484498E-01  0.76226236080E-01  0.51100000000E-03 0.  1.
</event>
<event>
 8    1  0.1103774E+005  0.1043930E+01  0.7957747E-01            NaN
         13   -1    0    0    0    0  0.00000000000E+00  0.00000000000E+00  0.74505805969E-08  0.10566000000E+00  0.10566000000E+00 0.  1.
     999900   -1    0    0    0    0 -0.00000000000E+00 -0.00000000000E+00 -0.74505805969E-08  0.93827000000E+00  0.93827000000E+00 0. -1.
     999902    2    1    2    0    0 -0.22712660468E-01 -0.43105666307E-02  0.16225513517E-02  0.10207550436E+01  0.10204919306E+01 0.  0.
     999903    2    3    3    0    0 -0.77891879340E-01  0.61251354029E-01  0.85882575684E-01  0.13258678066E+00  0.19610312635E-01 0.  0.
         14    1    1    2    0    0  0.22712660468E-01  0.43105666307E-02 -0.16225513517E-02  0.23174956378E-01  0.00000000000E+00 0.  1.
     999901    1    3    3    0    0  0.55179218871E-01 -0.65561920660E-01 -0.84260024333E-01  0.88816826296E+00  0.88000000000E+00 0. -1.
        -11    1    4    4    0    0 -0.52630609823E-01  0.29250591546E-01  0.52624451298E-01  0.79969820504E-01  0.51100000000E-03 0.  1.
         11    1    4    4    0    0 -0.25261269517E-01  0.32000762483E-01  0.33258124387E-01  0.52616960154E-01  0.51100000000E-03 0. -1.
</event>
<event>
 8    1  0.1103774E+005  0.1043930E+01  0.7957747E-01            NaN
         13   -1    0    0    0    0  0.00000000000E+00  0.00000000000E+00  0.74505805969E-08  0.10566000000E+00  0.10566000000E+00 0. -1.
     999900   -1    0    0    0    0 -0.00000000000E+00 -0.00000000000E+00 -0.74505805969E-08  0.93827000000E+00  0.93827000000E+00 0.  1.
     999902    2    1    2    0    0 -0.28809385073E-02  0.34971629852E-02 -0.84711431845E-02  0.10343232200E+01  0.10342786052E+01 0.  0.
     999903    2    3    3    0    0  0.13639545484E+00 -0.34682503121E-01 -0.11888622117E-01  0.14254562449E+00  0.19269654935E-01 0.  0.
         14    1    1    2    0    0  0.28809385073E-02 -0.34971629852E-02  0.84711431845E-02  0.96067800267E-02  0.00000000000E+00 0. -1.
     999901    1    3    3    0    0 -0.13927639335E+00  0.38179666106E-01  0.34174789322E-02  0.89177759549E+00  0.88000000000E+00 0. -1.
        -11    1    4    4    0    0  0.25597604010E-01 -0.14358707996E-01 -0.97233073654E-03  0.29370331535E-01  0.51100000000E-03 0.  1.
         11    1    4    4    0    0  0.11079785083E+00 -0.20323795125E-01 -0.10916291380E-01  0.11317529295E+00  0.51100000000E-03 0. -1.
</event>
<event>
 8    1  0.1103774E+005  0.1043930E+01  0.7957747E-01            NaN
         13   -1    0    0    0    0  0.00000000000E+00  0.00000000000E+00  0.74505805969E-08  0.10566000000E+00  0.10566000000E+00 0. -1.
     999900   -1    0    0    0    0 -0.00000000000E+00 -0.00000000000E+00 -0.74505805969E-08  0.93827000000E+00  0.93827000000E+00 0. -1.
     999902    2    1    2    0    0  0.43976326367E-02  0.23033960221E-01 -0.71899539414E-02  0.10194025066E+01  0.10191073901E+01 0.  0.
     999903    2    3    3    0    0 -0.10512155921E+00 -0.68208559341E-01 -0.15713797571E-01  0.12789125781E+00  0.20156899843E-01 0.  0.
         14    1    1    2    0    0 -0.43976326367E-02 -0.23033960221E-01  0.71899539414E-02  0.24527493429E-01  0.00000000000E+00 0.  1.
     999901    1    3    3    0    0  0.10951919185E+00  0.91242519561E-01  0.85238436297E-02  0.89151124876E+00  0.88000000000E+00 0.  1.
        -11    1    4    4    0    0 -0.50021561648E-01 -0.38933506533E-01 -0.16455254936E-01  0.65490542039E-01  0.51100000000E-03 0.  1.
         11    1    4    4    0    0 -0.55099997564E-01 -0.29275052808E-01  0.74145736496E-03  0.62400715769E-01  0.51100000000E-03 0. -1.
</event>
<event>
 8    1  0.1103774E+005  0.1043930E+01  0.7957747E-01            NaN
         13   -1    0    0    0    0  0.00000000000E+00  0.00000000000E+00  0.74505805969E-08  0.10566000000E+00  0.10566000000E+00 0.  1.
     999900   -1    0    0    0    0 -0.00000000000E+00 -0.00000000000E+00 -0.74505805969E-08  0.93827000000E+00  0.93827000000E+00 0.  1.
     999902    2    1    2    0    0  0.11079444676E-01  0.19058443853E-01  0.71264174348E-02  0.10207618278E+01  0.10204988706E+01 0.  0.
     999903    2    3    3    0    0  0.93411907694E-01  0.93511254863E-01 -0.60225096990E-02  0.13369094575E+00  0.19153565428E-01 0.  0.
         14    1    1    2    0    0 -0.11079444676E-01 -0.19058443853E-01 -0.71264174348E-02  0.23168172174E-01  0.00000000000E+00 0.  1.
     999901    1    3    3    0    0 -0.82332463018E-01 -0.74452811010E-01  0.13148927134E-01  0.88707088207E+00  0.88000000000E+00 0. -1.
        -11    1    4    4    0    0  0.45114893373E-01  0.31846349955E-01 -0.22059091344E-02  0.55269076034E-01  0.51100000000E-03 0.  1.
         11    1    4    4    0    0  0.48297014321E-01  0.61664904908E-01 -0.38166005646E-02  0.78421869721E-01  0.51100000000E-03 0. -1.
</event>
<event>
 8    1  0.1103774E+005  0.1043930E+01  0.7957747E-01            NaN
         13   -1    0    0    0    0  0.00000000000E+00  0.00000000000E+00  0.74505805969E-08  0.10566000000E+00  0.10566000000E+00 0. -1.
     999900   -1    0    0    0    0 -0.00000000000E+00 -0.00000000000E+00 -0.74505805969E-08  0.93827000000E+00  0.93827000000E+00 0.  1.
     999902    2    1    2    0    0 -0.10871484429E-01  0.18926991762E-01  0.33184931594E-02  0.10218521245E+01  0.10216135922E+01 0.  0.
     999903    2    3    3    0    0  0.67551954992E-01 -0.10761282767E+00 -0.11962764777E-01  0.12921777683E+00  0.20256821185E-01 0.  0.
         14    1    1    2    0    0  0.10871484429E-01 -0.18926991762E-01 -0.33184931594E-02  0.22077875525E-01  0.00000000000E+00 0.  1.
     999901    1    3    3    0    0 -0.78423439421E-01  0.12653981943E+00  0.15281257936E-01  0.89263434765E+00  0.88000000000E+00 0. -1.
        -11    1    4    4    0    0  0.10523850663E-01 -0.31545905759E-01  0.95365058076E-03  0.33272603946E-01  0.51100000000E-03 0. -1.
         11    1    4    4    0    0  0.57028104329E-01 -0.76066921914E-01 -0.12916415357E-01  0.95945172883E-01  0.51100000000E-03 0.  1.
</event>
<event>
 8    1  0.1103774E+005  0.1043930E+01  0.7957747E-01            NaN
         13   -1    0    0    0    0  0.00000000000E+00  0.00000000000E+00  0.74505805969E-08  0.10566000000E+00  0.10566000000E+00 0. -1.
     999900   -1    0    0    0    0 -0.00000000000E+00 -0.00000000000E+00 -0.74505805969E-08  0.93827000000E+00  0.93827000000E+00 0.  1.
     999902    2    1    2    0    0  0.23650230628E-02  0.59761101299E-02  0.20888639859E-01  0.10220749662E+01  0.10218412764E+01 0.  0.
     999903    2    3    3    0    0 -0.17121388898E-01  0.12053856056E+00  0.52063692737E-01  0.13388795932E+00  0.19815928202E-01 0.  0.
         14    1    1    2    0    0 -0.23650230628E-02 -0.59761101299E-02 -0.20888639859E-01  0.21855033780E-01  0.00000000000E+00 0.  1.
     999901    1    3    3    0    0  0.19486411961E-01 -0.11456245043E+00 -0.31175052879E-01  0.88818700690E+00  0.88000000000E+00 0. -1.
        -11    1    4    4    0    0 -0.14947005539E-01  0.44167370006E-01  0.15118157239E-01  0.49020295258E-01  0.51100000000E-03 0. -1.
         11    1    4    4    0    0 -0.21743833587E-02  0.76371190553E-01  0.36945535498E-01  0.84867664064E-01  0.51100000000E-03 0.  1.
</event>
<event>
 8    1  0.1103774E+005  0.1043930E+01  0.7957747E-01            NaN
         13   -1    0    0    0    0  0.00000000000E+00  0.00000000000E+00  0.74505805969E-08  0.10566000000E+00  0.10566000000E+00 0.  1.
     999900   -1    0    0    0    0 -0.00000000000E+00 -0.00000000000E+00 -0.74505805969E-08  0.93827000000E+00  0.93827000000E+00 0.  1.
     999902    2    1    2    0    0 -0.22523745394E-01  0.90470343243E-02  0.18729216905E-02  0.10195850668E+01  0.10192943798E+01 0.  0.
     999903    2    3    3    0    0 -0.60751944105E-01  0.10591533445E+00  0.46911925297E-01  0.13230079748E+00  0.19847304447E-01 0.  0.
         14    1    1    2    0    0  0.22523745394E-01 -0.90470343243E-02 -0.18729216905E-02  0.24344933195E-01  0.00000000000E+00 0. -1.
     999901    1    3    3    0    0  0.38228198712E-01 -0.96868300128E-01 -0.45039003607E-01  0.88728426933E+00  0.88000000000E+00 0.  1.
        -11    1    4    4    0    0 -0.90096315461E-02  0.16719124354E-01  0.15453237714E-01  0.24490125697E-01  0.51100000000E-03 0.  1.
         11    1    4    4    0    0 -0.51742312559E-01  0.89196210098E-01  0.31458687583E-01  0.10781067178E+00  0.51100000000E-03 0. -1.
</event>
<event>
 8    1  0.1103774E+005  0.1043930E+01  0.7957747E-01            NaN
         13   -1    0    0    0    0  0.00000000000E+00  0.00000000000E+00  0.74505805969E-08  0.10566000000E+00  0.10566000000E+00 0.  1.
     999900   -1    0    0    0    0 -0.00000000000E+00 -0.00000000000E+00 -0.74505805969E-08  0.93827000000E+00  0.93827000000E+00 0. -1.
     999902    2    1    2    0    0 -0.15020710505E-02 -0.25958440909E-01  0.95987584402E-02  0.10162129829E+01  0.10158349244E+01 0.  0.
     999903    2    3    3    0    0 -0.13368533020E-01 -0.12665939103E+00  0.21972102459E-01  0.13030407456E+00  0.16584919364E-01 0.  0.
         14    1    1    2    0    0  0.15020710505E-02  0.25958440909E-01 -0.95987584402E-02  0.27717017073E-01  0.00000000000E+00 0.  1.
     999901    1    3    3    0    0  0.11866461969E-01  0.10070095012E+00 -0.12373344019E-01  0.88590890836E+00  0.88000000000E+00 0. -1.
        -11    1    4    4    0    0 -0.32986046051E-02 -0.92854346207E-01  0.12295999582E-01  0.93724399857E-01  0.51100000000E-03 0. -1.
         11    1    4    4    0    0 -0.10069928415E-01 -0.33805044823E-01  0.96761028775E-02  0.36579674707E-01  0.51100000000E-03 0.  1.
</event>
<event>
 8    1  0.1103774E+005  0.1043930E+01  0.7957747E-01            NaN
         13   -1    0    0    0    0  0.00000000000E+00  0.00000000000E+00  0.74505805969E-08  0.10566000000E+00  0.10566000000E+00 0. -1.
     999900   -1    0    0    0    0 -0.00000000000E+00 -0.00000000000E+00 -0.74505805969E-08  0.93827000000E+00  0.93827000000E+00 0. -1.
     999902    2    1    2    0    0 -0.19775674464E-01 -0.92986839914E-02 -0.58764417772E-02  0.10213009171E+01  0.10210501887E+01 0.  0.
     999903    2    3    3    0    0  0.64497800131E-01 -0.88247559934E-01 -0.70181572698E-01  0.13143008750E+00  0.20020407021E-01 0.  0.
         14    1    1    2    0    0  0.19775674464E-01  0.92986839914E-02  0.58764417772E-02  0.22629082889E-01  0.00000000000E+00 0. -1.
     999901    1    3    3    0    0 -0.84273474594E-01  0.78948875942E-01  0.64305130921E-01  0.88987082961E+00  0.88000000000E+00 0. -1.
        -11    1    4    4    0    0  0.46086209102E-01 -0.46481060206E-01 -0.42523770544E-01  0.78057413547E-01  0.51100000000E-03 0. -1.
         11    1    4    4    0    0  0.18411591029E-01 -0.41766499727E-01 -0.27657802155E-01  0.53372673951E-01  0.51100000000E-03 0.  1.
</event>
<event>
 8    1  0.1103774E+005  0.1043930E+01  0.7957747E-01            NaN
         13   -1    0    0    0    0  0.00000000000E+00  0.00000000000E+00  0.74505805969E-08  0.10566000000E+00  0.10566000000E+00 0.  1.
     999900   -1    0    0    0    0 -0.00000000000E+00 -0.00000000000E+00 -0.74505805969E-08  0.93827000000E+00  0.93827000000E+00 0. -1.
     999902    2    1    2    0    0 -0.19021561065E-01 -0.11120454464E-01 -0.93034879594E-02  0.10200126594E+01  0.10197322130E+01 0.  0.
     999903    2    3    3    0    0 -0.11327482662E+00 -0.41504028611E-01 -0.53544662441E-01  0.13335369387E+00  0.19036965522E-01 0.  0.
         14    1    1    2    0    0  0.19021561065E-01  0.11120454464E-01  0.93034879594E-02  0.23917340593E-01  0.00000000000E+00 0.  1.
     999901    1    3    3    0    0  0.94253265555E-01  0.30383574147E-01  0.44241174482E-01  0.88665896554E+00  0.88000000000E+00 0.  1.
        -11    1    4    4    0    0 -0.33944808393E-01 -0.17863373404E-01 -0.25011025506E-01  0.45794788394E-01  0.51100000000E-03 0. -1.
         11    1    4    4    0    0 -0.79330018227E-01 -0.23640655208E-01 -0.28533636935E-01  0.87558905477E-01  0.51100000000E-03 0.  1.
</event>
<event>
 8    1  0.1103774E+005  0.1043930E+01  0.7957747E-01            NaN
         13   -1    0    0    0    0  0.00000000000E+00  0.00000000000E+00  0.74505805969E-08  0.10566000000E+00  0.10566000000E+00 0. -1.
     999900   -1    0    0    0    0 -0.00000000000E+00 -0.00000000000E+00 -0.74505805969E-08  0.93827000000E+00  0.93827000000E+00 0.  1.
     999902    2    1    2    0    0 -0.16662491816E-01 -0.11638162790E-01 -0.94601942785E-02  0.10215116873E+01  0.10212656592E+01 0.  0.
     999903    2    3    3    0    0 -0.63825983853E-01 -0.44322357016E-01 -0.10762532164E+00  0.13419604803E+00  0.19675921904E-01 0.  0.
         14    1    1    2    0    0  0.16662491816E-01  0.11638162790E-01  0.94601942785E-02  0.22418312658E-01  0.00000000000E+00 0. -1.
     999901    1    3    3    0    0  0.47163492038E-01  0.32684194226E-01  0.98165127363E-01  0.88731563931E+00  0.88000000000E+00 0. -1.
        -11    1    4    4    0    0 -0.48787440941E-01 -0.34936462523E-01 -0.67448530866E-01  0.90279212691E-01  0.51100000000E-03 0. -1.
         11    1    4    4    0    0 -0.15038542913E-01 -0.93858944933E-02 -0.40176790775E-01  0.43916835341E-01  0.51100000000E-03 0.  1.
</event>
<event>
 8    1  0.1103774E+005  0.1043930E+01  0.7957747E-01            NaN
         13   -1    0    0    0    0  0.00000000000E+00  0.00000000000E+00  0.74505805969E-08  0.10566000000E+00  0.10566000000E+00 0. -1.
     999900   -1    0    0    0    0 -0.00000000000E+00 -0.00000000000E+00 -0.74505805969E-08  0.93827000000E+00  0.93827000000E+00 0. -1.
     999902    2    1    2    0    0 -0.11555054459E-01 -0.13497950870E-02 -0.21186035747E-01  0.10197599909E+01  0.10194735159E+01 0.  0.
     999903    2    3    3    0    0 -0.10441889817E-01 -0.67488290905E-01 -0.11197963236E+00  0.13261906805E+00  0.19613176085E-01 0.  0.
         14    1    1    2    0    0  0.11555054459E-01  0.13497950870E-02  0.21186035747E-01  0.24170009123E-01  0.00000000000E+00 0. -1.
     999901    1    3    3    0    0 -0.11131646413E-02  0.66138495818E-01  0.90793596610E-01  0.88714092282E+00  0.88000000000E+00 0.  1.
        -11    1    4    4    0    0 -0.56528044943E-02 -0.53248741399E-01 -0.70725102545E-01  0.88711238917E-01  0.51100000000E-03 0.  1.
         11    1    4    4    0    0 -0.47890853232E-02 -0.14239549505E-01 -0.41254529813E-01  0.43907829136E-01  0.51100000000E-03 0. -1.
</event>
<event>
 8    1  0.1103774E+005  0.1043930E+01  0.7957747E-01            NaN
         13   -1    0    0    0    0  0.00000000000E+00  0.00000000000E+00  0.74505805969E-08  0.10566000000E+00  0.10566000000E+00 0.  1.
     999900   -1    0    0    0    0 -0.00000000000E+00 -0.00000000000E+00 -0.74505805969E-08  0.93827000000E+00  0.93827000000E+00 0.  1.
     999902    2    1    2    0    0 -0.26958052864E-03  0.12117267937E-01 -0.19795153171E-01  0.10207190339E+01  0.10204550932E+01 0.  0.
     999903    2    3    3    0    0  0.10204214031E+00  0.65520059595E-01 -0.50041066900E-01  0.13266815609E+00  0.19780158092E-01 0.  0.
         14    1    1    2    0    0  0.26958052864E-03 -0.12117267937E-01  0.19795153171E-01  0.23210966050E-01  0.00000000000E+00 0.  1.
     999901    1    3    3    0    0 -0.10231172084E+00 -0.53402791658E-01  0.30245913729E-01  0.88805087786E+00  0.88000000000E+00 0. -1.
        -11    1    4    4    0    0  0.83598968594E-01  0.52778097914E-01 -0.48688136973E-01  0.11020485911E+00  0.51100000000E-03 0.  1.
         11    1    4    4    0    0  0.18443171717E-01  0.12741961681E-01 -0.13529299267E-02  0.22463296972E-01  0.51100000000E-03 0. -1.
</event>
<event>
 8    1  0.1103774E+005  0.1043930E+01  0.7957747E-01            NaN
         13   -1    0    0    0    0  0.00000000000E+00  0.00000000000E+00  0.74505805969E-08  0.10566000000E+00  0.10566000000E+00 0. -1.
     999900   -1    0    0    0    0 -0.00000000000E+00 -0.00000000000E+00 -0.74505805969E-08  0.93827000000E+00  0.93827000000E+00 0.  1.
     999902    2    1    2    0    0 -0.20037460573E-01  0.10950122398E-01 -0.54789985919E-02  0.10204475718E+01  0.10201773485E+01 0.  0.
     999903    2    3    3    0    0 -0.42166759574E-01  0.78219568079E-01 -0.96711477865E-01  0.13290137616E+00  0.20330503927E-01 0.  0.
         14    1    1    2    0    0  0.20037460573E-01 -0.10950122398E-01  0.54789985919E-02  0.23482428161E-01  0.00000000000E+00 0.  1.
     999901    1    3    3    0    0  0.22129299001E-01 -0.67269445681E-01  0.91232479273E-01  0.88754619568E+00  0.88000000000E+00 0. -1.
        -11    1    4    4    0    0 -0.19960582324E-01  0.38945811270E-01 -0.32915216613E-01  0.54761972827E-01  0.51100000000E-03 0. -1.
         11    1    4    4    0    0 -0.22206177250E-01  0.39273756809E-01 -0.63796261252E-01  0.78139403330E-01  0.51100000000E-03 0.  1.
</event>
<event>
 8    1  0.1103774E+005  0.1043930E+01  0.7957747E-01            NaN
         13   -1    0    0    0    0  0.00000000000E+00  0.00000000000E+00  0.74505805969E-08  0.10566000000E+00  0.10566000000E+00 0. -1.
     999900   -1    0    0    0    0 -0.00000000000E+00 -0.00000000000E+00 -0.74505805969E-08  0.93827000000E+00  0.93827000000E+00 0. -1.
     999902    2    1    2    0    0 -0.22272633795E-01  0.10030274623E-01  0.89671787192E-03  0.10194865811E+01  0.10191935088E+01 0.  0.
     999903    2    3    3    0    0  0.27274344418E-02  0.67384609662E-01 -0.10976589054E+00  0.13035175663E+00  0.19872222146E-01 0.  0.
         14    1    1    2    0    0  0.22272633795E-01 -0.10030274623E-01 -0.89671787192E-03  0.24443418912E-01  0.00000000000E+00 0.  1.
     999901    1    3    3    0    0 -0.25000068237E-01 -0.57354335039E-01  0.11066260841E+00  0.88913482446E+00  0.88000000000E+00 0.  1.
        -11    1    4    4    0    0  0.93872376519E-02  0.17456090231E-01 -0.27840750590E-01  0.34178996932E-01  0.51100000000E-03 0. -1.
         11    1    4    4    0    0 -0.66598032101E-02  0.49928519431E-01 -0.81925139951E-01  0.96172759700E-01  0.51100000000E-03 0.  1.
</event>
<event>
 8    1  0.1103774E+005  0.1043930E+01  0.7957747E-01            NaN
         13   -1    0    0    0    0  0.00000000000E+00  0.00000000000E+00  0.74505805969E-08  0.10566000000E+00  0.10566000000E+00 0.  1.
     999900   -1    0    0    0    0 -0.00000000000E+00 -0.00000000000E+00 -0.74505805969E-08  0.93827000000E+00  0.93827000000E+00 0.  1.
     999902    2    1    2    0    0  0.89236519089E-02 -0.16851861810E-01  0.12131887269E-01  0.10213291262E+01  0.10210790295E+01 0.  0.
     999903    2    3    3    0    0 -0.93486547331E-01  0.75822089686E-01 -0.42189544960E-01  0.12890146623E+00  0.18625425555E-01 0.  0.
         14    1    1    2    0    0 -0.89236519089E-02  0.16851861810E-01 -0.12131887269E-01  0.22600873845E-01  0.00000000000E+00 0. -1.
     999901    1    3    3    0    0  0.10241019924E+00 -0.92673951495E-01  0.54321432229E-01  0.89242765992E+00  0.88000000000E+00 0. -1.
        -11    1    4    4    0    0 -0.79864697599E-01  0.65248333332E-01 -0.42751136851E-01  0.11164065455E+00  0.51100000000E-03 0. -1.
         11    1    4    4    0    0 -0.13621849731E-01  0.10573756354E-01  0.56159189113E-03  0.17260811684E-01  0.51100000000E-03 0.  1.
</event>
<event>
 8    1  0.1103774E+005  0.1043930E+01  0.7957747E-01            NaN
         13   -1    0    0    0    0  0.00000000000E+00  0.00000000000E+00  0.74505805969E-08  0.10566000000E+00  0.10566000000E+00 0. -1.
     999900   -1    0    0    0    0 -0.00000000000E+00 -0.00000000000E+00 -0.74505805969E-08  0.93827000000E+00  0.93827000000E+00 0.  1.
     999902    2    1    2    0    0 -0.33020448239E-02  0.18090816182E-01  0.14815850826E-01  0.10203145270E+01  0.10200411969E+01 0.  0.
     999903    2    3    3    0    0  0.12686771388E+00 -0.17906319388E-01  0.83064978429E-03  0.12990139495E+00  0.21392272679E-01 0.  0.
         14    1    1    2    0    0  0.33020448239E-02 -0.18090816182E-01 -0.14815850826E-01  0.23615473018E-01  0.00000000000E+00 0.  1.
     999901    1    3    3    0    0 -0.13016975871E+00  0.35997135570E-01  0.13985201042E-01  0.89041313203E+00  0.88000000000E+00 0. -1.
        -11    1    4    4    0    0  0.11456037739E+00 -0.14293209407E-01 -0.55156921995E-02  0.11558139938E+00  0.51100000000E-03 0.  1.
         11    1    4    4    0    0  0.12307336497E-01 -0.36131099814E-02  0.63463419838E-02  0.14319995564E-01  0.51100000000E-03 0. -1.
</event>
<event>
 8    1  0.1103774E+005  0.1043930E+01  0.7957747E-01            NaN
         13   -1    0    0    0    0  0.00000000000E+00  0.00000000000E+00  0.74505805969E-08  0.10566000000E+00  0.10566000000E+00 0. -1.
     999900   -1    0    0    0    0 -0.00000000000E+00 -0.00000000000E+00 -0.74505805969E-08  0.93827000000E+00  0.93827000000E+00 0.  1.
     999902    2    1    2    0    0  0.72685698384E-02  0.29291315370E-02  0.21825592665E-01  0.10207401657E+01  0.10204767109E+01 0.  0.
     999903    2    3    3    0    0  0.14424447651E-01  0.99946912875E-01 -0.78528656086E-01  0.12971006985E+00  0.21459317601E-01 0.  0.
         14    1    1    2    0    0 -0.72685698384E-02 -0.29291315370E-02 -0.21825592665E-01  0.23189834287E-01  0.00000000000E+00 0.  1.
     999901    1    3    3    0    0 -0.71558778128E-02 -0.97017781338E-01  0.10035424875E+00  0.89103009586E+00  0.88000000000E+00 0. -1.
        -11    1    4    4    0    0  0.16801396174E-01  0.73833107098E-01 -0.66817430711E-01  0.10098734963E+00  0.51100000000E-03 0.  1.
         11    1    4    4    0    0 -0.23769485233E-02  0.26113805777E-01 -0.11711225375E-01  0.28722720226E-01  0.51100000000E-03 0. -1.
</event>
<event>
 8    1  0.1103774E+005  0.1043930E+01  0.7957747E-01            NaN
         13   -1    0    0    0    0  0.00000000000E+00  0.00000000000E+00  0.74505805969E-08  0.10566000000E+00  0.10566000000E+00 0.  1.
     999900   -1    0    0    0    0 -0.00000000000E+00 -0.00000000000E+00 -0.74505805969E-08  0.93827000000E+00  0.93827000000E+00 0.  1.
     999902    2    1    2    0    0 -0.19059064022E-02 -0.13129368410E-01  0.18657304817E-01  0.10210365988E+01  0.10207799118E+01 0.  0.
     999903    2    3    3    0    0  0.46356264492E-01  0.96994977234E-01  0.72784226679E-01  0.13121283408E+00  0.19035107254E-01 0.  0.
         14    1    1    2    0    0  0.19059064022E-02  0.13129368410E-01 -0.18657304817E-01  0.22893401169E-01  0.00000000000E+00 0.  1.
     999901    1    3    3    0    0 -0.48262170894E-01 -0.11012434564E+00 -0.54126921862E-01  0.88982376475E+00  0.88000000000E+00 0.  1.
        -11    1    4    4    0    0  0.21429940686E-01  0.28224868310E-01  0.30245872630E-01  0.46593556218E-01  0.51100000000E-03 0. -1.
         11    1    4    4    0    0  0.24926323806E-01  0.68770108924E-01  0.42538354050E-01  0.84619277864E-01  0.51100000000E-03 0.  1.
</event>
<event>
 8    1  0.1103774E+005  0.1043930E+01  0.7957747E-01            NaN
         13   -1    0    0    0    0  0.00000000000E+00  0.00000000000E+00  0.74505805969E-08  0.10566000000E+00  0.10566000000E+00 0. -1.
     999900   -1    0    0    0    0 -0.00000000000E+00 -0.00000000000E+00 -0.74505805969E-08  0.93827000000E+00  0.93827000000E+00 0.  1.
     999902    2    1    2    0    0 -0.43658096679E-02 -0.24198098727E-02  0.22886273367E-01  0.10205057117E+01  0.10202368403E+01 0.  0.
     999903    2    3    3    0    0 -0.69701763075E-01 -0.96745094633E-01 -0.48463953691E-01  0.13019290091E+00  0.19582837597E-01 0.  0.
         14    1    1    2    0    0  0.43658096679E-02  0.24198098727E-02 -0.22886273367E-01  0.23424288303E-01  0.00000000000E+00 0. -1.
     999901    1    3    3    0    0  0.65335953407E-01  0.94325284760E-01  0.71350227058E-01  0.89031281079E+00  0.88000000000E+00 0. -1.
        -11    1    4    4    0    0 -0.44104420039E-01 -0.63424254029E-01 -0.21226546142E-01  0.80116560387E-01  0.51100000000E-03 0. -1.
         11    1    4    4    0    0 -0.25597343035E-01 -0.33320840604E-01 -0.27237407549E-01  0.50076340522E-01  0.51100000000E-03 0.  1.
</event>
<event>
 8    1  0.1103774E+005  0.1043930E+01  0.7957747E-01            NaN
         13   -1    0    0    0    0  0.00000000000E+00  0.00000000000E+00  0.74505805969E-08  0.10566000000E+00  0.10566000000E+00 0.  1.
     999900   -1    0    0    0    0 -0.00000000000E+00 -0.00000000000E+00 -0.74505805969E-08  0.93827000000E+00  0.93827000000E+00 0.  1.
     999902    2    1    2    0    0  0.42692222698E-02 -0.75120042371E-02  0.21986402842E-01  0.10203067408E+01  0.10200332283E+01 0.  0.
     999903    2    3    3    0    0 -0.10724993438E+00  0.25728378944E-02  0.73686853327E-01  0.13170606391E+00  0.20188288658E-01 0.  0.
         14    1    1    2    0    0 -0.42692222698E-02  0.75120042371E-02 -0.21986402842E-01  0.23623259225E-01  0.00000000000E+00 0. -1.
     999901    1    3    3    0    0  0.11151915665E+00 -0.10084842132E-01 -0.51700450485E-01  0.88860067686E+00  0.88000000000E+00 0.  1.
        -11    1    4    4    0    0 -0.87217735598E-01 -0.47335885846E-02  0.54077082932E-01  0.10273233319E+00  0.51100000000E-03 0. -1.
         11    1    4    4    0    0 -0.20032198782E-01  0.73064264790E-02  0.19609770395E-01  0.28973730721E-01  0.51100000000E-03 0.  1.
</event>
<event>
 8    1  0.1103774E+005  0.1043930E+01  0.7957747E-01            NaN
         13   -1    0    0    0    0  0.00000000000E+00  0.00000000000E+00  0.74505805969E-08  0.10566000000E+00  0.10566000000E+00 0.  1.
     999900   -1    0    0    0    0 -0.00000000000E+00 -0.00000000000E+00 -0.74505805969E-08  0.93827000000E+00  0.93827000000E+00 0.  1.
     999902    2    1    2    0    0 -0.18915118504E-01  0.14071672485E-01  0.57426612866E-02  0.10196653790E+01  0.10193766297E+01 0.  0.
     999903    2    3    3    0    0  0.36319468108E-01  0.28658510973E-01  0.12052280557E+00  0.13037458462E+00  0.18203616013E-01 0.  0.
         14    1    1    2    0    0  0.18915118504E-01 -0.14071672485E-01 -0.57426612866E-02  0.24264621019E-01  0.00000000000E+00 0. -1.
     999901    1    3    3    0    0 -0.55234586612E-01 -0.14586838487E-01 -0.11478014429E+00  0.88929079436E+00  0.88000000000E+00 0.  1.
        -11    1    4    4    0    0  0.29385180658E-01  0.18926959901E-01  0.10568692722E+00  0.11131804148E+00  0.51100000000E-03 0. -1.
         11    1    4    4    0    0  0.69342874504E-02  0.97315510713E-02  0.14835878353E-01  0.19056543133E-01  0.51100000000E-03 0.  1.
</event>
<event>
 8    1  0.1103774E+005  0.1043930E+01  0.7957747E-01            NaN
         13   -1    0    0    0    0  0.00000000000E+00  0.00000000000E+00  0.74505805969E-08  0.10566000000E+00  0.10566000000E+00 0.  1.
     999900   -1    0    0    0    0 -0.00000000000E+00 -0.00000000000E+00 -0.74505805969E-08  0.93827000000E+00  0.93827000000E+00 0.  1.
     999902    2    1    2    0    0  0.12868993045E-01 -0.91535333506E-02 -0.17675035754E-01  0.10202275730E+01  0.10199522027E+01 0.  0.
     999903    2    3    3    0    0  0.12929821411E+00 -0.11967827807E-01  0.14483934415E-01  0.13197204498E+00  0.18589761318E-01 0.  0.
         14    1    1    2    0    0 -0.12868993045E-01  0.91535333506E-02  0.17675035754E-01  0.23702426958E-01  0.00000000000E+00 0.  1.
     999901    1    3    3    0    0 -0.11642922106E+00  0.28142944562E-02 -0.32158970169E-01  0.88825552806E+00  0.88000000000E+00 0.  1.
        -11    1    4    4    0    0  0.30694404965E-01  0.41874664524E-02  0.70579785955E-02  0.31776682556E-01  0.51100000000E-03 0. -1.
         11    1    4    4    0    0  0.98603809144E-01 -0.16155294259E-01  0.74259558195E-02  0.10019536242E+00  0.51100000000E-03 0.  1.
</event>
<event>
 8    1  0.1103774E+005  0.1043930E+01  0.7957747E-01            NaN
         13   -1    0    0    0    0  0.00000000000E+00  0.00000000000E+00  0.74505805969E-08  0.10566000000E+00  0.10566000000E+00 0.  1.
     999900   -1    0    0    0    0 -0.00000000000E+00 -0.00000000000E+00 -0.74505805969E-08  0.93827000000E+00  0.93827000000E+00 0. -1.
     999902    2    1    2    0    0  0.11244521395E-01  0.22689823437E-01 -0.18932349555E-02  0.10185360699E+01  0.10182194626E+01 0.  0.
     999903    2    3    3    0    0 -0.34789731589E-01  0.87029446253E-01 -0.88860688635E-01  0.13071735103E+00  0.20158222577E-01 0.  0.
         14    1    1    2    0    0 -0.11244521395E-01 -0.22689823437E-01  0.18932349555E-02  0.25393930133E-01  0.00000000000E+00 0.  1.
     999901    1    3    3    0    0  0.46034252984E-01 -0.64339622816E-01  0.86967453679E-01  0.88781871883E+00  0.88000000000E+00 0. -1.
        -11    1    4    4    0    0 -0.24430613460E-01  0.60880309878E-01 -0.48779188864E-01  0.81749234811E-01  0.51100000000E-03 0.  1.
         11    1    4    4    0    0 -0.10359118129E-01  0.26149136375E-01 -0.40081499771E-01  0.48968116223E-01  0.51100000000E-03 0. -1.
</event>
<event>
 8    1  0.1103774E+005  0.1043930E+01  0.7957747E-01            NaN
         13   -1    0    0    0    0  0.00000000000E+00  0.00000000000E+00  0.74505805969E-08  0.10566000000E+00  0.10566000000E+00 0.  1.
     999900   -1    0    0    0    0 -0.00000000000E+00 -0.00000000000E+00 -0.74505805969E-08  0.93827000000E+00  0.93827000000E+00 0. -1.
     999902    2    1    2    0    0 -0.17978094973E-01 -0.10014687582E-01  0.11362455450E-01  0.10204223149E+01  0.10201515032E+01 0.  0.
     999903    2    3    3    0    0  0.12104657338E-01 -0.12775209436E+00 -0.20611976638E-01  0.13149631500E+00  0.19982665866E-01 0.  0.
         14    1    1    2    0    0  0.17978094973E-01  0.10014687582E-01 -0.11362455450E-01  0.23507685128E-01  0.00000000000E+00 0.  1.
     999901    1    3    3    0    0 -0.30082752311E-01  0.11773740678E+00  0.31974432088E-01  0.88892599987E+00  0.88000000000E+00 0.  1.
        -11    1    4    4    0    0  0.26264521332E-02 -0.65775624572E-01 -0.11283542314E-02  0.65839694281E-01  0.51100000000E-03 0.  1.
         11    1    4    4    0    0  0.94782052046E-02 -0.61976469787E-01 -0.19483622407E-01  0.65656620720E-01  0.51100000000E-03 0. -1.
</event>
<event>
 8    1  0.1103774E+005  0.1043930E+01  0.7957747E-01            NaN
         13   -1    0    0    0    0  0.00000000000E+00  0.00000000000E+00  0.74505805969E-08  0.10566000000E+00  0.10566000000E+00 0.  1.
     999900   -1    0    0    0    0 -0.00000000000E+00 -0.00000000000E+00 -0.74505805969E-08  0.93827000000E+00  0.93827000000E+00 0. -1.
     999902    2    1    2    0    0 -0.11127801366E-01  0.20363722022E-02 -0.21275095138E-01  0.10198342649E+01  0.10195495689E+01 0.  0.
     999903    2    3    3    0    0  0.10232236935E+00  0.66848495103E-01 -0.39357404623E-01  0.13000365048E+00  0.20331140458E-01 0.  0.
         14    1    1    2    0    0  0.11127801366E-01 -0.20363722022E-02  0.21275095138E-01  0.24095735061E-01  0.00000000000E+00 0.  1.
     999901    1    3    3    0    0 -0.11345017072E+00 -0.64812122901E-01  0.18082309485E-01  0.88983061446E+00  0.88000000000E+00 0. -1.
        -11    1    4    4    0    0  0.44689039800E-01  0.40827178773E-01 -0.16243162689E-01  0.62674318983E-01  0.51100000000E-03 0. -1.
         11    1    4    4    0    0  0.57633329552E-01  0.26021316330E-01 -0.23114241934E-01  0.67329331498E-01  0.51100000000E-03 0.  1.
</event>
<event>
 8    1  0.1103774E+005  0.1043930E+01  0.7957747E-01            NaN
         13   -1    0    0    0    0  0.00000000000E+00  0.00000000000E+00  0.74505805969E-08  0.10566000000E+00  0.10566000000E+00 0. -1.
     999900   -1    0    0    0    0 -0.00000000000E+00 -0.00000000000E+00 -0.74505805969E-08  0.93827000000E+00  0.93827000000E+00 0. -1.
     999902    2    1    2    0    0 -0.18664563584E-01 -0.87205760506E-02  0.10392367372E-01  0.10208558656E+01  0.10205950630E+01 0.  0.
     999903    2    3    3    0    0  0.65966579768E-01  0.97192163715E-01  0.50624239262E-01  0.12956548505E+00  0.20651754956E-01 0.  0.
         14    1    1    2    0    0  0.18664563584E-01  0.87205760506E-02 -0.10392367372E-01  0.23074134438E-01  0.00000000000E+00 0. -1.
     999901    1    3    3    0    0 -0.84631143352E-01 -0.10591273977E+00 -0.40231871890E-01  0.89129038051E+00  0.88000000000E+00 0. -1.
        -11    1    4    4    0    0  0.18347673952E-01  0.27430112563E-01  0.44533493697E-02  0.33303778409E-01  0.51100000000E-03 0.  1.
         11    1    4    4    0    0  0.47618905816E-01  0.69762051151E-01  0.46170889893E-01  0.96261706646E-01  0.51100000000E-03 0. -1.
</event>
<event>
 8    1  0.1276532E+005  0.1043930E+01  0.7957747E-01            NaN
         13   -1    0    0    0    0  0.00000000000E+00  0.00000000000E+00  0.74505805969E-08  0.10566000000E+00  0.10566000000E+00 0.  1.
     999900   -1    0    0    0    0 -0.00000000000E+00 -0.00000000000E+00 -0.74505805969E-08  0.93827000000E+00  0.93827000000E+00 0. -1.
     999902    2    1    2    0    0 -0.83909351181E-02 -0.98904701079E-02  0.20424845930E-01  0.10197348864E+01  0.10194478089E+01 0.  0.
     999903    2    3    3    0    0  0.92287611583E-01  0.71975775390E-01 -0.48021212727E-01  0.12758965446E+00  0.16600227670E-01 0.  0.
         14    1    1    2    0    0  0.83909351181E-02  0.98904701079E-02 -0.20424845930E-01  0.24195113605E-01  0.00000000000E+00 0. -1.
     999901    1    3    3    0    0 -0.10067854670E+00 -0.81866245498E-01  0.68446058657E-01  0.89214523193E+00  0.88000000000E+00 0.  1.
        -11    1    4    4    0    0  0.35195106573E-01  0.34418912683E-01 -0.13619421055E-01  0.51079416871E-01  0.51100000000E-03 0. -1.
         11    1    4    4    0    0  0.57092505010E-01  0.37556862707E-01 -0.34401791672E-01  0.76510237589E-01  0.51100000000E-03 0.  1.
</event>
<event>
 8    1  0.1103774E+005  0.1043930E+01  0.7957747E-01            NaN
         13   -1    0    0    0    0  0.00000000000E+00  0.00000000000E+00  0.74505805969E-08  0.10566000000E+00  0.10566000000E+00 0. -1.
     999900   -1    0    0    0    0 -0.00000000000E+00 -0.00000000000E+00 -0.74505805969E-08  0.93827000000E+00  0.93827000000E+00 0.  1.
     999902    2    1    2    0    0 -0.25204683545E-02  0.22737685666E-01  0.11089835102E-01  0.10185067911E+01  0.10181894440E+01 0.  0.
     999903    2    3    3    0    0 -0.12503484443E+00  0.26638529673E-01 -0.96021502692E-02  0.12976996433E+00  0.20117623325E-01 0.  0.
         14    1    1    2    0    0  0.25204683545E-02 -0.22737685666E-01 -0.11089835102E-01  0.25423208939E-01  0.00000000000E+00 0.  1.
     999901    1    3    3    0    0  0.12251437607E+00 -0.39008440076E-02  0.20691985371E-01  0.88873682673E+00  0.88000000000E+00 0.  1.
        -11    1    4    4    0    0 -0.31891983713E-02  0.38682374353E-02  0.16539782348E-02  0.53038676556E-02  0.51100000000E-03 0.  1.
         11    1    4    4    0    0 -0.12184564606E+00  0.22770292238E-01 -0.11256128504E-01  0.12446609667E+00  0.51100000000E-03 0. -1.
</event>
<event>
 8    1  0.1103774E+005  0.1043930E+01  0.7957747E-01            NaN
         13   -1    0    0    0    0  0.00000000000E+00  0.00000000000E+00  0.74505805969E-08  0.10566000000E+00  0.10566000000E+00 0.  1.
     999900   -1    0    0    0    0 -0.00000000000E+00 -0.00000000000E+00 -0.74505805969E-08  0.93827000000E+00  0.93827000000E+00 0. -1.
     999902    2    1    2    0    0  0.15350530155E-01 -0.51116294947E-02  0.18107291331E-01  0.10196474645E+01  0.10193582836E+01 0.  0.
     999903    2    3    3    0    0 -0.92339058733E-01  0.85953654067E-01  0.13989538821E-01  0.12840850140E+00  0.19455169479E-01 0.  0.
         14    1    1    2    0    0 -0.15350530155E-01  0.51116294947E-02 -0.18107291331E-01  0.24282535524E-01  0.00000000000E+00 0. -1.
     999901    1    3    3    0    0  0.10768958889E+00 -0.91065283561E-01  0.41177525099E-02  0.89123896308E+00  0.88000000000E+00 0.  1.
        -11    1    4    4    0    0 -0.26555536762E-01  0.17754275418E-01  0.10346237614E-01  0.33581491660E-01  0.51100000000E-03 0.  1.
         11    1    4    4    0    0 -0.65783521971E-01  0.68199378649E-01  0.36433012071E-02  0.94827009737E-01  0.51100000000E-03 0. -1.
</event>
<event>
 8    1  0.1103774E+005  0.1043930E+01  0.7957747E-01            NaN
         13   -1    0    0    0    0  0.00000000000E+00  0.00000000000E+00  0.74505805969E-08  0.10566000000E+00  0.10566000000E+00 0.  1.
     999900   -1    0    0    0    0 -0.00000000000E+00 -0.00000000000E+00 -0.74505805969E-08  0.93827000000E+00  0.93827000000E+00 0.  1.
     999902    2    1    2    0    0 -0.14133239317E-01 -0.16041897212E-01 -0.10087858118E-01  0.10202898688E+01  0.10200159610E+01 0.  0.
     999903    2    3    3    0    0 -0.89683850541E-01 -0.15739723771E-01  0.92265697068E-01  0.13114182919E+00  0.19856700499E-01 0.  0.
         14    1    1    2    0    0  0.14133239317E-01  0.16041897212E-01  0.10087858118E-01  0.23640131158E-01  0.00000000000E+00 0.  1.
     999901    1    3    3    0    0  0.75550611224E-01 -0.30217344082E-03 -0.10235355519E+00  0.88914803966E+00  0.88000000000E+00 0.  1.
        -11    1    4    4    0    0 -0.21066072912E-01  0.29683431569E-02  0.14469642139E-01  0.25733677422E-01  0.51100000000E-03 0. -1.
         11    1    4    4    0    0 -0.68617777629E-01 -0.18708066928E-01  0.77796054929E-01  0.10540815176E+00  0.51100000000E-03 0.  1.
</event>
<event>
 8    1  0.1103774E+005  0.1043930E+01  0.7957747E-01            NaN
         13   -1    0    0    0    0  0.00000000000E+00  0.00000000000E+00  0.74505805969E-08  0.10566000000E+00  0.10566000000E+00 0. -1.
     999900   -1    0    0    0    0 -0.00000000000E+00 -0.00000000000E+00 -0.74505805969E-08  0.93827000000E+00  0.93827000000E+00 0. -1.
     999902    2    1    2    0    0 -0.20068602517E-01  0.11212847933E-01  0.34771500208E-02  0.10206798960E+01  0.10204150541E+01 0.  0.
     999903    2    3    3    0    0  0.11125412515E+00  0.19856885736E-01 -0.58304723361E-01  0.12875087520E+00  0.20138789074E-01 0.  0.
         14    1    1    2    0    0  0.20068602517E-01 -0.11212847933E-01 -0.34771500208E-02  0.23250104043E-01  0.00000000000E+00 0. -1.
     999901    1    3    3    0    0 -0.13132272766E+00 -0.86440378036E-02  0.61781873382E-01  0.89192902076E+00  0.88000000000E+00 0.  1.
        -11    1    4    4    0    0  0.42232370723E-01 -0.18108196326E-03 -0.14894336438E-01  0.44785134883E-01  0.51100000000E-03 0.  1.
         11    1    4    4    0    0  0.69021754423E-01  0.20037967700E-01 -0.43410386923E-01  0.83965740317E-01  0.51100000000E-03 0. -1.
</event>
<event>
 8    1  0.1103774E+005  0.1043930E+01  0.7957747E-01            NaN
         13   -1    0    0    0    0  0.00000000000E+00  0.00000000000E+00  0.74505805969E-08  0.10566000000E+00  0.10566000000E+00 0. -1.
     999900   -1    0    0    0    0 -0.00000000000E+00 -0.00000000000E+00 -0.74505805969E-08  0.93827000000E+00  0.93827000000E+00 0.  1.
     999902    2    1    2    0    0 -0.89908059254E-02 -0.19398712358E-01 -0.11339305606E-01  0.10197282545E+01  0.10194410177E+01 0.  0.
     999903    2    3    3    0    0  0.13964952130E-01 -0.71663786801E-02 -0.12897673721E+00  0.13151929143E+00  0.20394813182E-01 0.  0.
         14    1    1    2    0    0  0.89908059254E-02  0.19398712358E-01  0.11339305606E-01  0.24201745474E-01  0.00000000000E+00 0. -1.
     999901    1    3    3    0    0 -0.22955758056E-01 -0.12232333678E-01  0.11763743160E+00  0.88820896310E+00  0.88000000000E+00 0. -1.
        -11    1    4    4    0    0  0.14477182114E-02  0.67514718167E-02 -0.39794441796E-01  0.40392288603E-01  0.51100000000E-03 0.  1.
         11    1    4    4    0    0  0.12517233919E-01 -0.13917850497E-01 -0.89182295414E-01  0.91127002824E-01  0.51100000000E-03 0. -1.
</event>
<event>
 8    1  0.1103774E+005  0.1043930E+01  0.7957747E-01            NaN
         13   -1    0    0    0    0  0.00000000000E+00  0.00000000000E+00  0.74505805969E-08  0.10566000000E+00  0.10566000000E+00 0. -1.
     999900   -1    0    0    0    0 -0.00000000000E+00 -0.00000000000E+00 -0.74505805969E-08  0.93827000000E+00  0.93827000000E+00 0. -1.
     999902    2    1    2    0    0 -0.13383931733E-01  0.19280031928E-01 -0.93193416932E-02  0.10186772895E+01  0.10183642377E+01 0.  0.
     999903    2    3    3    0    0  0.10695758619E+00 -0.55535919162E-01 -0.34545309830E-01  0.12698459748E+00  0.20187768705E-01 0.  0.
         14    1    1    2    0    0  0.13383931733E-01 -0.19280031928E-01  0.93193416932E-02  0.25252710535E-01  0.00000000000E+00 0. -1.
     999901    1    3    3    0    0 -0.12034151792E+00  0.74815951090E-01  0.25225968137E-01  0.89169269199E+00  0.88000000000E+00 0.  1.
        -11    1    4    4    0    0  0.83536792593E-01 -0.33696546487E-01 -0.27611691884E-01  0.94215283322E-01  0.51100000000E-03 0. -1.
         11    1    4    4    0    0  0.23420793595E-01 -0.21839372674E-01 -0.69336179464E-02  0.32769314156E-01  0.51100000000E-03 0.  1.
</event>
<event>
 8    1  0.1103774E+005  0.1043930E+01  0.7957747E-01            NaN
         13   -1    0    0    0    0  0.00000000000E+00  0.00000000000E+00  0.74505805969E-08  0.10566000000E+00  0.10566000000E+00 0.  1.
     999900   -1    0    0    0    0 -0.00000000000E+00 -0.00000000000E+00 -0.74505805969E-08  0.93827000000E+00  0.93827000000E+00 0. -1.
     999902    2    1    2    0    0  0.14105967659E-01  0.67175851754E-02  0.18396319009E-01  0.10197943660E+01  0.10195087151E+01 0.  0.
     999903    2    3    3    0    0 -0.23810119344E-01 -0.11179310011E+00  0.58227701091E-01  0.13014895847E+00  0.21992435104E-01 0.  0.
         14    1    1    2    0    0 -0.14105967659E-01 -0.67175851754E-02 -0.18396319009E-01  0.24135633973E-01  0.00000000000E+00 0. -1.
     999901    1    3    3    0    0  0.37916087003E-01  0.11851068529E+00 -0.39831382082E-01  0.88964540755E+00  0.88000000000E+00 0.  1.
        -11    1    4    4    0    0 -0.12740779769E-01 -0.19977555125E-01  0.87503077392E-02  0.25263791965E-01  0.51100000000E-03 0.  1.
         11    1    4    4    0    0 -0.11069339575E-01 -0.91815544987E-01  0.49477393352E-01  0.10488516651E+00  0.51100000000E-03 0. -1.
</event>
<event>
 8    1  0.1103774E+005  0.1043930E+01  0.7957747E-01            NaN
         13   -1    0    0    0    0  0.00000000000E+00  0.00000000000E+00  0.74505805969E-08  0.10566000000E+00  0.10566000000E+00 0. -1.
     999900   -1    0    0    0    0 -0.00000000000E+00 -0.00000000000E+00 -0.74505805969E-08  0.93827000000E+00  0.93827000000E+00 0. -1.
     999902    2    1    2    0    0 -0.23665209795E-01  0.10955201631E-03 -0.17198982205E-02  0.10202021218E+01  0.10199261527E+01 0.  0.
     999903    2    3    3    0    0  0.12208232617E+00 -0.76184110308E-02 -0.30281234646E-01  0.12772365389E+00  0.20838523057E-01 0.  0.
         14    1    1    2    0    0  0.23665209795E-01 -0.10955201631E-03  0.17198982205E-02  0.23727878248E-01  0.00000000000E+00 0. -1.
     999901    1    3    3    0    0 -0.14574753596E+00  0.77279630471E-02  0.28561336426E-01  0.89247846786E+00  0.88000000000E+00 0.  1.
        -11    1    4    4    0    0  0.62551490224E-01  0.39887615387E-02 -0.22384843467E-01  0.66557805597E-01  0.51100000000E-03 0.  1.
         11    1    4    4    0    0  0.59530835943E-01 -0.11607172569E-01 -0.78963911787E-02  0.61165848296E-01  0.51100000000E-03 0. -1.
</event>
<event>
 8    1  0.1103774E+005  0.1043930E+01  0.7957747E-01            NaN
         13   -1    0    0    0    0  0.00000000000E+00  0.00000000000E+00  0.74505805969E-08  0.10566000000E+00  0.10566000000E+00 0. -1.
     999900   -1    0    0    0    0 -0.00000000000E+00 -0.00000000000E+00 -0.74505805969E-08  0.93827000000E+00  0.93827000000E+00 0.  1.
     999902    2    1    2    0    0  0.16381513305E-02  0.20055403624E-01 -0.46078970985E-02  0.10232869510E+01  0.10230787109E+01 0.  0.
     999903    2    3    3    0    0 -0.62896168142E-01 -0.81436713863E-01  0.78992051080E-01  0.13118029844E+00  0.19510515941E-01 0.  0.
         14    1    1    2    0    0 -0.16381513305E-02 -0.20055403624E-01  0.46078970985E-02  0.20643048950E-01  0.00000000000E+00 0. -1.
     999901    1    3    3    0    0  0.64534319472E-01  0.10149211749E+00 -0.83599948179E-01  0.89210665261E+00  0.88000000000E+00 0.  1.
        -11    1    4    4    0    0 -0.29502500072E-01 -0.28271466601E-01  0.40506281207E-01  0.57538624180E-01  0.51100000000E-03 0.  1.
         11    1    4    4    0    0 -0.33393668069E-01 -0.53165247262E-01  0.38485769873E-01  0.73641674256E-01  0.51100000000E-03 0. -1.
</event>
<event>
 8    1  0.1103774E+005  0.1043930E+01  0.7957747E-01            NaN
         13   -1    0    0    0    0  0.00000000000E+00  0.00000000000E+00  0.74505805969E-08  0.10566000000E+00  0.10566000000E+00 0.  1.
     999900   -1    0    0    0    0 -0.00000000000E+00 -0.00000000000E+00 -0.74505805969E-08  0.93827000000E+00  0.93827000000E+00 0.  1.
     999902    2    1    2    0    0  0.14214600231E-01  0.13061268706E-01  0.17820114352E-01  0.10176581886E+01  0.10173190162E+01 0.  0.
     999903    2    3    3    0    0 -0.10567358265E-01  0.69116230447E-02  0.12913316342E+00  0.13027858632E+00  0.11734417896E-01 0.  0.
         14    1    1    2    0    0 -0.14214600231E-01 -0.13061268706E-01 -0.17820114352E-01  0.26271811424E-01  0.00000000000E+00 0. -1.
     999901    1    3    3    0    0  0.24781958496E-01  0.61496456614E-02 -0.11131304907E+00  0.88737960226E+00  0.88000000000E+00 0.  1.
        -11    1    4    4    0    0 -0.43150011884E-03 -0.23644603416E-02  0.41567241002E-01  0.41639806802E-01  0.51100000000E-03 0.  1.
         11    1    4    4    0    0 -0.10135858146E-01  0.92760833863E-02  0.87565922423E-01  0.88638779517E-01  0.51100000000E-03 0. -1.
</event>
<event>
 8    1  0.1103774E+005  0.1043930E+01  0.7957747E-01            NaN
         13   -1    0    0    0    0  0.00000000000E+00  0.00000000000E+00  0.74505805969E-08  0.10566000000E+00  0.10566000000E+00 0. -1.
     999900   -1    0    0    0    0 -0.00000000000E+00 -0.00000000000E+00 -0.74505805969E-08  0.93827000000E+00  0.93827000000E+00 0. -1.
     999902    2    1    2    0    0 -0.39919051916E-02 -0.16091323502E-01 -0.16125554009E-01  0.10208021058E+01  0.10205400725E+01 0.  0.
     999903    2    3    3    0    0 -0.12405488136E+00 -0.13526348274E-02  0.36959126291E-01  0.13094238061E+00  0.19710068807E-01 0.  0.
         14    1    1    2    0    0  0.39919051916E-02  0.16091323502E-01  0.16125554009E-01  0.23127894223E-01  0.00000000000E+00 0. -1.
     999901    1    3    3    0    0  0.12006297617E+00 -0.14738688674E-01 -0.53084680300E-01  0.88985972517E+00  0.88000000000E+00 0.  1.
        -11    1    4    4    0    0 -0.69338008677E-01 -0.59549085031E-02  0.11993216632E-01  0.70620951203E-01  0.51100000000E-03 0. -1.
         11    1    4    4    0    0 -0.54716872687E-01  0.46022736758E-02  0.24965909659E-01  0.60321429407E-01  0.51100000000E-03 0.  1.
</event>
<event>
 8    1  0.1103774E+005  0.1043930E+01  0.7957747E-01            NaN
         13   -1    0    0    0    0  0.00000000000E+00  0.00000000000E+00  0.74505805969E-08  0.10566000000E+00  0.10566000000E+00 0. -1.
     999900   -1    0    0    0    0 -0.00000000000E+00 -0.00000000000E+00 -0.74505805969E-08  0.93827000000E+00  0.93827000000E+00 0. -1.
     999902    2    1    2    0    0  0.16722727849E-01  0.12863578088E-01  0.14644388668E-01  0.10182477223E+01  0.10179237912E+01 0.  0.
     999903    2    3    3    0    0 -0.51696765189E-02  0.78009962593E-01 -0.99685452758E-01  0.12819455456E+00  0.19605471371E-01 0.  0.
         14    1    1    2    0    0 -0.16722727849E-01 -0.12863578088E-01 -0.14644388668E-01  0.25682277691E-01  0.00000000000E+00 0.  1.
     999901    1    3    3    0    0  0.21892404368E-01 -0.65146384505E-01  0.11432984143E+00  0.89005316775E+00  0.88000000000E+00 0.  1.
        -11    1    4    4    0    0 -0.36227420346E-02  0.15577479678E-01 -0.98736030727E-02  0.18802427812E-01  0.51100000000E-03 0. -1.
         11    1    4    4    0    0 -0.15469344842E-02  0.62432482915E-01 -0.89811849685E-01  0.10939212675E+00  0.51100000000E-03 0.  1.
</event>
<event>
 8    1  0.1103774E+005  0.1043930E+01  0.7957747E-01            NaN
         13   -1    0    0    0    0  0.00000000000E+00  0.00000000000E+00  0.74505805969E-08  0.10566000000E+00  0.10566000000E+00 0.  1.
     999900   -1    0    0    0    0 -0.00000000000E+00 -0.00000000000E+00 -0.74505805969E-08  0.93827000000E+00  0.93827000000E+00 0. -1.
     999902    2    1    2    0    0  0.25137043564E-01  0.45067807571E-02 -0.93852999742E-03  0.10183749052E+01  0.10180542150E+01 0.  0.
     999903    2    3    3    0    0 -0.43019997274E-01 -0.96114664343E-01  0.68787348989E-01  0.12729031009E+00  0.19554406027E-01 0.  0.
         14    1    1    2    0    0 -0.25137043564E-01 -0.45067807571E-02  0.93852999742E-03  0.25555094805E-01  0.00000000000E+00 0.  1.
     999901    1    3    3    0    0  0.68157040838E-01  0.10062144510E+00 -0.69725878987E-01  0.89108459510E+00  0.88000000000E+00 0.  1.
        -11    1    4    4    0    0 -0.44635466917E-01 -0.90616723287E-01  0.62588191077E-01  0.11883290045E+00  0.51100000000E-03 0.  1.
         11    1    4    4    0    0  0.16154696424E-02 -0.54979410554E-02  0.61991579127E-02  0.84574096414E-02  0.51100000000E-03 0. -1.
</event>
<event>
 8    1  0.1103774E+005  0.1043930E+01  0.7957747E-01            NaN
         13   -1    0    0    0    0  0.00000000000E+00  0.00000000000E+00  0.74505805969E-08  0.10566000000E+00  0.10566000000E+00 0.  1.
     999900   -1    0    0    0    0 -0.00000000000E+00 -0.00000000000E+00 -0.74505805969E-08  0.93827000000E+00  0.93827000000E+00 0.  1.
     999902    2    1    2    0    0  0.67563928301E-02  0.14655179628E-01 -0.19287492907E-01  0.10187818288E+01  0.10184713958E+01 0.  0.
     999903    2    3    3    0    0  0.25412662571E-01 -0.10179503661E+00  0.68013924842E-01  0.12663259976E+00  0.20047155708E-01 0.  0.
         14    1    1    2    0    0 -0.67563928301E-02 -0.14655179628E-01  0.19287492907E-01  0.25148171238E-01  0.00000000000E+00 0.  1.
     999901    1    3    3    0    0 -0.18656269741E-01  0.11645021624E+00 -0.87301417749E-01  0.89214922900E+00  0.88000000000E+00 0. -1.
        -11    1    4    4    0    0  0.22227714762E-01 -0.60793142082E-01  0.49702974449E-01  0.81612034761E-01  0.51100000000E-03 0.  1.
         11    1    4    4    0    0  0.31849478087E-02 -0.41001894531E-01  0.18310950393E-01  0.45020565001E-01  0.51100000000E-03 0. -1.
</event>
<event>
 8    1  0.1103774E+005  0.1043930E+01  0.7957747E-01            NaN
         13   -1    0    0    0    0  0.00000000000E+00  0.00000000000E+00  0.74505805969E-08  0.10566000000E+00  0.10566000000E+00 0.  1.
     999900   -1    0    0    0    0 -0.00000000000E+00 -0.00000000000E+00 -0.74505805969E-08  0.93827000000E+00  0.93827000000E+00 0. -1.
     999902    2    1    2    0    0 -0.89739720902E-02  0.14296133511E-01 -0.17194592230E-01  0.10198350709E+01  0.10195503941E+01 0.  0.
     999903    2    3    3    0    0 -0.89690520853E-01  0.32951747048E-01  0.85527285994E-01  0.12999521031E+00  0.21298612359E-01 0.  0.
         14    1    1    2    0    0  0.89739720902E-02 -0.14296133511E-01  0.17194592230E-01  0.24094929143E-01  0.00000000000E+00 0.  1.
     999901    1    3    3    0    0  0.80716548763E-01 -0.18655613537E-01 -0.10272187822E+00  0.88983986055E+00  0.88000000000E+00 0. -1.
        -11    1    4    4    0    0 -0.47516459778E-01  0.28440107350E-01  0.45514942304E-01  0.71683504028E-01  0.51100000000E-03 0.  1.
         11    1    4    4    0    0 -0.42174061075E-01  0.45116396985E-02  0.40012343690E-01  0.58311706277E-01  0.51100000000E-03 0. -1.
</event>
<event>
 8    1  0.1103774E+005  0.1043930E+01  0.7957747E-01            NaN
         13   -1    0    0    0    0  0.00000000000E+00  0.00000000000E+00  0.74505805969E-08  0.10566000000E+00  0.10566000000E+00 0.  1.
     999900   -1    0    0    0    0 -0.00000000000E+00 -0.00000000000E+00 -0.74505805969E-08  0.93827000000E+00  0.93827000000E+00 0. -1.
     999902    2    1    2    0    0 -0.21641323899E-01 -0.17896615786E-02  0.93180089838E-02  0.10203000385E+01  0.10200263690E+01 0.  0.
     999903    2    3    3    0    0 -0.11581546052E+00 -0.60036548753E-01 -0.16676031684E-01  0.13297982685E+00  0.19696096923E-01 0.  0.
         14    1    1    2    0    0  0.21641323899E-01  0.17896615786E-02 -0.93180089838E-02  0.23629961491E-01  0.00000000000E+00 0.  1.
     999901    1    3    3    0    0  0.94174136621E-01  0.58246887175E-01  0.25994040667E-01  0.88732021166E+00  0.88000000000E+00 0.  1.
        -11    1    4    4    0    0 -0.16015090993E-01 -0.59945157047E-02  0.41180714397E-02  0.17596505091E-01  0.51100000000E-03 0. -1.
         11    1    4    4    0    0 -0.99800369526E-01 -0.54042033049E-01 -0.20794103123E-01  0.11538332176E+00  0.51100000000E-03 0.  1.
</event>
<event>
 8    1  0.1103774E+005  0.1043930E+01  0.7957747E-01            NaN
         13   -1    0    0    0    0  0.00000000000E+00  0.00000000000E+00  0.74505805969E-08  0.10566000000E+00  0.10566000000E+00 0.  1.
     999900   -1    0    0    0    0 -0.00000000000E+00 -0.00000000000E+00 -0.74505805969E-08  0.93827000000E+00  0.93827000000E+00 0.  1.
     999902    2    1    2    0    0  0.79761932303E-02  0.13767507234E-02  0.22403322815E-01  0.10201093372E+01  0.10198311801E+01 0.  0.
     999903    2    3    3    0    0 -0.47498471352E-01  0.11198252310E+00  0.44965188168E-01  0.13116608086E+00  0.19659154627E-01 0.  0.
         14    1    1    2    0    0 -0.79761932303E-02 -0.13767507234E-02 -0.22403322815E-01  0.23820662757E-01  0.00000000000E+00 0. -1.
     999901    1    3    3    0    0  0.55474664582E-01 -0.11060577238E+00 -0.22561865353E-01  0.88894325638E+00  0.88000000000E+00 0. -1.
        -11    1    4    4    0    0 -0.32586877811E-01  0.91815642461E-01  0.29942204843E-01  0.10192552947E+00  0.51100000000E-03 0.  1.
         11    1    4    4    0    0 -0.14911593541E-01  0.20166880643E-01  0.15022983325E-01  0.29240551393E-01  0.51100000000E-03 0. -1.
</event>
<event>
 8    1  0.1103774E+005  0.1043930E+01  0.7957747E-01            NaN
         13   -1    0    0    0    0  0.00000000000E+00  0.00000000000E+00  0.74505805969E-08  0.10566000000E+00  0.10566000000E+00 0. -1.
     999900   -1    0    0    0    0 -0.00000000000E+00 -0.00000000000E+00 -0.74505805969E-08  0.93827000000E+00  0.93827000000E+00 0. -1.
     999902    2    1    2    0    0 -0.18944953872E-01  0.14207970802E-01  0.30265681694E-02  0.10200566293E+01  0.10197772253E+01 0.  0.
     999903    2    3    3    0    0 -0.63221185523E-01 -0.99813621611E-01  0.52768198002E-01  0.13020521593E+00  0.14465067448E-01 0.  0.
         14    1    1    2    0    0  0.18944953872E-01 -0.14207970802E-01 -0.30265681694E-02  0.23873370654E-01  0.00000000000E+00 0. -1.
     999901    1    3    3    0    0  0.44276231651E-01  0.11402159241E+00 -0.49741629832E-01  0.88985141342E+00  0.88000000000E+00 0. -1.
        -11    1    4    4    0    0 -0.15738365415E-01 -0.35178726408E-01  0.21411091711E-01  0.44090077192E-01  0.51100000000E-03 0.  1.
         11    1    4    4    0    0 -0.47482820108E-01 -0.64634895203E-01  0.31357106291E-01  0.86115138734E-01  0.51100000000E-03 0. -1.
</event>
<event>
 8    1  0.1103774E+005  0.1043930E+01  0.7957747E-01            NaN
         13   -1    0    0    0    0  0.00000000000E+00  0.00000000000E+00  0.74505805969E-08  0.10566000000E+00  0.10566000000E+00 0.  1.
     999900   -1    0    0    0    0 -0.00000000000E+00 -0.00000000000E+00 -0.74505805969E-08  0.93827000000E+00  0.93827000000E+00 0. -1.
     999902    2    1    2    0    0  0.37271340355E-02  0.22870131818E-01 -0.32373838977E-02  0.10205330961E+01  0.10202648603E+01 0.  0.
     999903    2    3    3    0    0 -0.89732570984E-01  0.53296572392E-01 -0.76944595972E-01  0.13199877608E+00  0.24713298304E-01 0.  0.
         14    1    1    2    0    0 -0.37271340355E-02 -0.22870131818E-01  0.32373838977E-02  0.23396903897E-01  0.00000000000E+00 0.  1.
     999901    1    3    3    0    0  0.93459705019E-01 -0.30426440574E-01  0.73707212074E-01  0.88853432002E+00  0.88000000000E+00 0.  1.
        -11    1    4    4    0    0 -0.64387759911E-01  0.45805887345E-01 -0.67510638464E-01  0.10393223931E+00  0.51100000000E-03 0.  1.
         11    1    4    4    0    0 -0.25344811072E-01  0.74906850466E-02 -0.94339575075E-02  0.28066536765E-01  0.51100000000E-03 0. -1.
</event>
<event>
 8    1  0.1103774E+005  0.1043930E+01  0.7957747E-01            NaN
         13   -1    0    0    0    0  0.00000000000E+00  0.00000000000E+00  0.74505805969E-08  0.10566000000E+00  0.10566000000E+00 0. -1.
     999900   -1    0    0    0    0 -0.00000000000E+00 -0.00000000000E+00 -0.74505805969E-08  0.93827000000E+00  0.93827000000E+00 0. -1.
     999902    2    1    2    0    0  0.76948158621E-02  0.13281177676E-01  0.19356586731E-01  0.10192262084E+01  0.10189267817E+01 0.  0.
     999903    2    3    3    0    0 -0.29369994938E-01  0.90206569278E-01 -0.84941794679E-01  0.12896250111E+00  0.20405794922E-01 0.  0.
         14    1    1    2    0    0 -0.76948158621E-02 -0.13281177676E-01 -0.19356586731E-01  0.24703791642E-01  0.00000000000E+00 0.  1.
     999901    1    3    3    0    0  0.37064810801E-01 -0.76925391602E-01  0.10429838141E+00  0.89026370725E+00  0.88000000000E+00 0.  1.
        -11    1    4    4    0    0 -0.31661947494E-01  0.76740764707E-01 -0.76545006959E-01  0.11292042817E+00  0.51100000000E-03 0. -1.
         11    1    4    4    0    0  0.22919525555E-02  0.13465804571E-01 -0.83967877201E-02  0.16042072942E-01  0.51100000000E-03 0.  1.
</event>
<event>
 8    1  0.1103774E+005  0.1043930E+01  0.7957747E-01            NaN
         13   -1    0    0    0    0  0.00000000000E+00  0.00000000000E+00  0.74505805969E-08  0.10566000000E+00  0.10566000000E+00 0.  1.
     999900   -1    0    0    0    0 -0.00000000000E+00 -0.00000000000E+00 -0.74505805969E-08  0.93827000000E+00  0.93827000000E+00 0.  1.
     999902    2    1    2    0    0  0.16354513017E-01 -0.54989241199E-03  0.16918124664E-01  0.10203928927E+01  0.10201213948E+01 0.  0.
     999903    2    3    3    0    0  0.52374749387E-01  0.80005945343E-01 -0.85928604918E-01  0.13001985279E+00  0.19426047260E-01 0.  0.
         14    1    1    2    0    0 -0.16354513017E-01  0.54989241199E-03 -0.16918124664E-01  0.23537107296E-01  0.00000000000E+00 0. -1.
     999901    1    3    3    0    0 -0.36020236370E-01 -0.80555837755E-01  0.10284672958E+00  0.89037303992E+00  0.88000000000E+00 0. -1.
        -11    1    4    4    0    0  0.40057800302E-01  0.62535960698E-01 -0.54980376563E-01  0.92403878022E-01  0.51100000000E-03 0. -1.
         11    1    4    4    0    0  0.12316949085E-01  0.17469984645E-01 -0.30948228355E-01  0.37615974765E-01  0.51100000000E-03 0.  1.
</event>
<event>
 8    1  0.1103774E+005  0.1043930E+01  0.7957747E-01            NaN
         13   -1    0    0    0    0  0.00000000000E+00  0.00000000000E+00  0.74505805969E-08  0.10566000000E+00  0.10566000000E+00 0. -1.
     999900   -1    0    0    0    0 -0.00000000000E+00 -0.00000000000E+00 -0.74505805969E-08  0.93827000000E+00  0.93827000000E+00 0. -1.
     999902    2    1    2    0    0 -0.10421756655E-01  0.29611680209E-02 -0.19409323958E-01  0.10217015636E+01  0.10214597308E+01 0.  0.
     999903    2    3    3    0    0  0.65103854749E-01 -0.76750138361E-01  0.78910371330E-01  0.12944332026E+00  0.19990768251E-01 0.  0.
         14    1    1    2    0    0  0.10421756655E-01 -0.29611680209E-02  0.19409323958E-01  0.22228436390E-01  0.00000000000E+00 0. -1.
     999901    1    3    3    0    0 -0.75525611404E-01  0.79711306382E-01 -0.98319695288E-01  0.89225824335E+00  0.88000000000E+00 0. -1.
        -11    1    4    4    0    0  0.62069542508E-01 -0.63799711601E-01  0.71741170606E-01  0.11432448552E+00  0.51100000000E-03 0.  1.
         11    1    4    4    0    0  0.30343122403E-02 -0.12950426760E-01  0.71692007236E-02  0.15118834745E-01  0.51100000000E-03 0. -1.
</event>
<event>
 8    1  0.1418440E+005  0.1043930E+01  0.7957747E-01            NaN
         13   -1    0    0    0    0  0.00000000000E+00  0.00000000000E+00  0.74505805969E-08  0.10566000000E+00  0.10566000000E+00 0. -1.
     999900   -1    0    0    0    0 -0.00000000000E+00 -0.00000000000E+00 -0.74505805969E-08  0.93827000000E+00  0.93827000000E+00 0. -1.
     999902    2    1    2    0    0 -0.14343532878E-01 -0.13729601521E-01 -0.13032152800E-01  0.10201797179E+01  0.10199032213E+01 0.  0.
     999903    2    3    3    0    0 -0.84070898842E-01 -0.73123490894E-01  0.67397983508E-01  0.13177747427E+00  0.20195385389E-01 0.  0.
         14    1    1    2    0    0  0.14343532878E-01  0.13729601521E-01  0.13032152800E-01  0.23750282102E-01  0.00000000000E+00 0. -1.
     999901    1    3    3    0    0  0.69727365964E-01  0.59393889373E-01 -0.80430136307E-01  0.88840224363E+00  0.88000000000E+00 0. -1.
        -11    1    4    4    0    0 -0.49508403939E-01 -0.30830086087E-01  0.30083181183E-01  0.65626482306E-01  0.51100000000E-03 0.  1.
         11    1    4    4    0    0 -0.34562494902E-01 -0.42293404808E-01  0.37314802325E-01  0.66150991963E-01  0.51100000000E-03 0. -1.
</event>
<event>
 8    1  0.1103774E+005  0.1043930E+01  0.7957747E-01            NaN
         13   -1    0    0    0    0  0.00000000000E+00  0.00000000000E+00  0.74505805969E-08  0.10566000000E+00  0.10566000000E+00 0. -1.
     999900   -1    0    0    0    0 -0.00000000000E+00 -0.00000000000E+00 -0.74505805969E-08  0.93827000000E+00  0.93827000000E+00 0.  1.
     999902    2    1    2    0    0  0.14107789757E-01 -0.14607611058E-01  0.10906181520E-01  0.10208788215E+01  0.10206185436E+01 0.  0.
     999903    2    3    3    0    0  0.79683486297E-01 -0.10482865160E+00 -0.95303242938E-02  0.13360340833E+00  0.20507058552E-01 0.  0.
         14    1    1    2    0    0 -0.14107789757E-01  0.14607611058E-01 -0.10906181520E-01  0.23051178451E-01  0.00000000000E+00 0.  1.
     999901    1    3    3    0    0 -0.65575696540E-01  0.90221040546E-01  0.20436505814E-01  0.88727541322E+00  0.88000000000E+00 0.  1.
        -11    1    4    4    0    0  0.70277136286E-01 -0.80045277028E-01 -0.10760710827E-01  0.10706155368E+00  0.51100000000E-03 0.  1.
         11    1    4    4    0    0  0.94063500114E-02 -0.24783374576E-01  0.12303865336E-02  0.26541854644E-01  0.51100000000E-03 0. -1.
</event>
<event>
 8    1  0.1103774E+005  0.1043930E+01  0.7957747E-01            NaN
         13   -1    0    0    0    0  0.00000000000E+00  0.00000000000E+00  0.74505805969E-08  0.10566000000E+00  0.10566000000E+00 0. -1.
     999900   -1    0    0    0    0 -0.00000000000E+00 -0.00000000000E+00 -0.74505805969E-08  0.93827000000E+00  0.93827000000E+00 0.  1.
     999902    2    1    2    0    0 -0.38726973723E-02  0.15807775878E-01 -0.52726986769E-03  0.10276462174E+01  0.10275171952E+01 0.  0.
     999903    2    3    3    0    0  0.37488979040E-01 -0.62066257150E-01  0.11314091352E+00  0.13596487900E+00  0.20686666753E-01 0.  0.
         14    1    1    2    0    0  0.38726973723E-02 -0.15807775878E-01  0.52726986769E-03  0.16283782627E-01  0.00000000000E+00 0.  1.
     999901    1    3    3    0    0 -0.41361676412E-01  0.77874033028E-01 -0.11366818339E+00  0.89168133838E+00  0.88000000000E+00 0.  1.
        -11    1    4    4    0    0  0.79374829337E-02 -0.26612813450E-01  0.30095820762E-01  0.40954426176E-01  0.51100000000E-03 0. -1.
         11    1    4    4    0    0  0.29551496106E-01 -0.35453443700E-01  0.83045092760E-01  0.95010452819E-01  0.51100000000E-03 0.  1.
</event>
<event>
 8    1  0.1103774E+005  0.1043930E+01  0.7957747E-01            NaN
         13   -1    0    0    0    0  0.00000000000E+00  0.00000000000E+00  0.74505805969E-08  0.10566000000E+00  0.10566000000E+00 0. -1.
     999900   -1    0    0    0    0 -0.00000000000E+00 -0.00000000000E+00 -0.74505805969E-08  0.93827000000E+00  0.93827000000E+00 0. -1.
     999902    2    1    2    0    0  0.12367826845E-02  0.23260233520E-01  0.11645147277E-03  0.10206366178E+01  0.10203707776E+01 0.  0.
     999903    2    3    3    0    0  0.96978244359E-01  0.89164508247E-01  0.65307859859E-03  0.13299362147E+00  0.18215033077E-01 0.  0.
         14    1    1    2    0    0 -0.12367826845E-02 -0.23260233520E-01 -0.11645147277E-03  0.23293382231E-01  0.00000000000E+00 0.  1.
     999901    1    3    3    0    0 -0.95741461675E-01 -0.65904274728E-01 -0.53662712582E-03  0.88764299630E+00  0.88000000000E+00 0.  1.
        -11    1    4    4    0    0  0.63076182572E-01  0.45906345249E-01 -0.60088219689E-03  0.78016790003E-01  0.51100000000E-03 0.  1.
         11    1    4    4    0    0  0.33902061787E-01  0.43258162999E-01  0.12539607955E-02  0.54976831467E-01  0.51100000000E-03 0. -1.
</event>
<event>
 8    1  0.1152887E+005  0.1043930E+01  0.7957747E-01            NaN
         13   -1    0    0    0    0  0.00000000000E+00  0.00000000000E+00  0.74505805969E-08  0.10566000000E+00  0.10566000000E+00 0.  1.
     999900   -1    0    0    0    0 -0.00000000000E+00 -0.00000000000E+00 -0.74505805969E-08  0.93827000000E+00  0.93827000000E+00 0. -1.
     999902    2    1    2    0    0 -0.76101278255E-02  0.23212508865E-01  0.46982770800E-02  0.10190541398E+01  0.10187504755E+01 0.  0.
     999903    2    3    3    0    0  0.10559497836E-01  0.74779888475E-01 -0.10460104389E+00  0.13060849064E+00  0.20338749463E-01 0.  0.
         14    1    1    2    0    0  0.76101278255E-02 -0.23212508865E-01 -0.46982770800E-02  0.24875860203E-01  0.00000000000E+00 0.  1.
     999901    1    3    3    0    0 -0.18169625662E-01 -0.51567379611E-01  0.10929932097E+00  0.88844564915E+00  0.88000000000E+00 0.  1.
        -11    1    4    4    0    0  0.24459342884E-02  0.18896175561E-01 -0.43024562601E-01  0.47057647130E-01  0.51100000000E-03 0. -1.
         11    1    4    4    0    0  0.81135635476E-02  0.55883712915E-01 -0.61576481291E-01  0.83550843513E-01  0.51100000000E-03 0.  1.
</event>
<event>
 8    1  0.1103774E+005  0.1043930E+01  0.7957747E-01            NaN
         13   -1    0    0    0    0  0.00000000000E+00  0.00000000000E+00  0.74505805969E-08  0.10566000000E+00  0.10566000000E+00 0. -1.
     999900   -1    0    0    0    0 -0.00000000000E+00 -0.00000000000E+00 -0.74505805969E-08  0.93827000000E+00  0.93827000000E+00 0. -1.
     999902    2    1    2    0    0 -0.10966812832E-01  0.18951362385E-01  0.16763608548E-01  0.10163538565E+01  0.10159796838E+01 0.  0.
     999903    2    3    3    0    0 -0.47218273291E-01  0.83344346739E-01 -0.82338504696E-01  0.12771340406E+00  0.18847778543E-01 0.  0.
         14    1    1    2    0    0  0.10966812832E-01 -0.18951362385E-01 -0.16763608548E-01  0.27576143521E-01  0.00000000000E+00 0. -1.
     999901    1    3    3    0    0  0.36251460459E-01 -0.64392984354E-01  0.99102113244E-01  0.88864045242E+00  0.88000000000E+00 0.  1.
        -11    1    4    4    0    0 -0.89644497743E-02  0.58118712725E-02 -0.13339433818E-01  0.17097977162E-01  0.51100000000E-03 0. -1.
         11    1    4    4    0    0 -0.38253823517E-01  0.77532475467E-01 -0.68999070878E-01  0.11061542690E+00  0.51100000000E-03 0.  1.
</event>
<event>
 8    1  0.1103774E+005  0.1043930E+01  0.7957747E-01            NaN
         13   -1    0    0    0    0  0.00000000000E+00  0.00000000000E+00  0.74505805969E-08  0.10566000000E+00  0.10566000000E+00 0.  1.
     999900   -1    0    0    0    0 -0.00000000000E+00 -0.00000000000E+00 -0.74505805969E-08  0.93827000000E+00  0.93827000000E+00 0.  1.
     999902    2    1    2    0    0  0.10896462233E-01  0.84133592709E-02  0.19689937122E-01  0.10199047814E+01  0.10196217691E+01 0.  0.
     999903    2    3    3    0    0 -0.17115829030E-02  0.86166917153E-01 -0.93661208927E-01  0.12914495921E+00  0.21870786570E-01 0.  0.
         14    1    1    2    0    0 -0.10896462233E-01 -0.84133592709E-02 -0.19689937122E-01  0.24025218569E-01  0.00000000000E+00 0. -1.
     999901    1    3    3    0    0  0.12608045136E-01 -0.77753557882E-01  0.11335114605E+00  0.89075982222E+00  0.88000000000E+00 0. -1.
        -11    1    4    4    0    0 -0.88574917849E-02  0.16550281378E-01 -0.23003074186E-01  0.29694604180E-01  0.51100000000E-03 0.  1.
         11    1    4    4    0    0  0.71459088819E-02  0.69616635775E-01 -0.70658134741E-01  0.99450355034E-01  0.51100000000E-03 0. -1.
</event>
<event>
 8    1  0.1103774E+005  0.1043930E+01  0.7957747E-01            NaN
         13   -1    0    0    0    0  0.00000000000E+00  0.00000000000E+00  0.74505805969E-08  0.10566000000E+00  0.10566000000E+00 0. -1.
     999900   -1    0    0    0    0 -0.00000000000E+00 -0.00000000000E+00 -0.74505805969E-08  0.93827000000E+00  0.93827000000E+00 0.  1.
     999902    2    1    2    0    0 -0.87719381644E-02 -0.19881555398E-01 -0.49469186879E-02  0.10216433415E+01  0.10214002262E+01 0.  0.
     999903    2    3    3    0    0 -0.57765463439E-01 -0.92959358509E-01  0.74019162482E-01  0.13373773116E+00  0.20703942175E-01 0.  0.
         14    1    1    2    0    0  0.87719381644E-02  0.19881555398E-01  0.49469186879E-02  0.22286658536E-01  0.00000000000E+00 0. -1.
     999901    1    3    3    0    0  0.48993525275E-01  0.73077803111E-01 -0.78966081170E-01  0.88790561030E+00  0.88000000000E+00 0.  1.
        -11    1    4    4    0    0 -0.42949452072E-01 -0.62968472804E-01  0.40228871279E-01  0.86187627917E-01  0.51100000000E-03 0. -1.
         11    1    4    4    0    0 -0.14816011367E-01 -0.29990885704E-01  0.33790291203E-01  0.47550103246E-01  0.51100000000E-03 0.  1.
</event>
<event>
 8    1  0.1103774E+005  0.1043930E+01  0.7957747E-01            NaN
         13   -1    0    0    0    0  0.00000000000E+00  0.00000000000E+00  0.74505805969E-08  0.10566000000E+00  0.10566000000E+00 0. -1.
     999900   -1    0    0    0    0 -0.00000000000E+00 -0.00000000000E+00 -0.74505805969E-08  0.93827000000E+00  0.93827000000E+00 0.  1.
     999902    2    1    2    0    0  0.16529921842E-01  0.17495227594E-01  0.20147143939E-02  0.10197767315E+01  0.10194906580E+01 0.  0.
     999903    2    3    3    0    0  0.85660399617E-02 -0.12594564545E+00 -0.89515813757E-02  0.12805986663E+00  0.19583564065E-01 0.  0.
         14    1    1    2    0    0 -0.16529921842E-01 -0.17495227594E-01 -0.20147143939E-02  0.24153268490E-01  0.00000000000E+00 0. -1.
     999901    1    3    3    0    0  0.79638818802E-02  0.14344087305E+00  0.10966295770E-01  0.89171686488E+00  0.88000000000E+00 0. -1.
        -11    1    4    4    0    0 -0.91232368272E-03 -0.80128867141E-01 -0.12633858261E-01  0.81125477992E-01  0.51100000000E-03 0.  1.
         11    1    4    4    0    0  0.94783636444E-02 -0.45816778314E-01  0.36822768851E-02  0.46934388634E-01  0.51100000000E-03 0. -1.
</event>
<event>
 8    1  0.1103774E+005  0.1043930E+01  0.7957747E-01            NaN
         13   -1    0    0    0    0  0.00000000000E+00  0.00000000000E+00  0.74505805969E-08  0.10566000000E+00  0.10566000000E+00 0.  1.
     999900   -1    0    0    0    0 -0.00000000000E+00 -0.00000000000E+00 -0.74505805969E-08  0.93827000000E+00  0.93827000000E+00 0. -1.
     999902    2    1    2    0    0  0.83998814363E-02 -0.88885067286E-02 -0.20499104150E-01  0.10200600014E+01  0.10197806773E+01 0.  0.
     999903    2    3    3    0    0 -0.72355748742E-01 -0.64221783069E-01  0.82217045732E-01  0.12869371830E+00  0.21038981092E-01 0.  0.
         14    1    1    2    0    0 -0.83998814363E-02  0.88885067286E-02  0.20499104150E-01  0.23869998554E-01  0.00000000000E+00 0.  1.
     999901    1    3    3    0    0  0.80755630178E-01  0.55333276340E-01 -0.10271614988E+00  0.89136628314E+00  0.88000000000E+00 0. -1.
        -11    1    4    4    0    0 -0.22550692231E-01 -0.21424834021E-01  0.39804652881E-01  0.50519587735E-01  0.51100000000E-03 0.  1.
         11    1    4    4    0    0 -0.49805056511E-01 -0.42796949048E-01  0.42412392852E-01  0.78174130569E-01  0.51100000000E-03 0. -1.
</event>
<event>
 8    1  0.1103774E+005  0.1043930E+01  0.7957747E-01            NaN
         13   -1    0    0    0    0  0.00000000000E+00  0.00000000000E+00  0.74505805969E-08  0.10566000000E+00  0.10566000000E+00 0.  1.
     999900   -1    0    0    0    0 -0.00000000000E+00 -0.00000000000E+00 -0.74505805969E-08  0.93827000000E+00  0.93827000000E+00 0.  1.
     999902    2    1    2    0    0  0.18857006696E-01  0.70226446593E-02 -0.12767885806E-01  0.10200988618E+01  0.10198204571E+01 0.  0.
     999903    2    3    3    0    0  0.40940604778E-01 -0.11640853427E+00 -0.38635630507E-01  0.13083395108E+00  0.19943190312E-01 0.  0.
         14    1    1    2    0    0 -0.18857006696E-01 -0.70226446593E-02  0.12767885806E-01  0.23831138191E-01  0.00000000000E+00 0.  1.
     999901    1    3    3    0    0 -0.22083598082E-01  0.12343117893E+00  0.25867744702E-01  0.88926491073E+00  0.88000000000E+00 0.  1.
        -11    1    4    4    0    0  0.22711752415E-01 -0.81103322101E-01 -0.33996578331E-01  0.90827314244E-01  0.51100000000E-03 0. -1.
         11    1    4    4    0    0  0.18228852363E-01 -0.35305212171E-01 -0.46390521764E-02  0.40006636837E-01  0.51100000000E-03 0.  1.
</event>
<event>
 8    1  0.1103774E+005  0.1043930E+01  0.7957747E-01            NaN
         13   -1    0    0    0    0  0.00000000000E+00  0.00000000000E+00  0.74505805969E-08  0.10566000000E+00  0.10566000000E+00 0. -1.
     999900   -1    0    0    0    0 -0.00000000000E+00 -0.00000000000E+00 -0.74505805969E-08  0.93827000000E+00  0.93827000000E+00 0.  1.
     999902    2    1    2    0    0 -0.81316616876E-02 -0.45130453974E-02  0.16946037452E-01  0.10245997210E+01  0.10244173606E+01 0.  0.
     999903    2    3    3    0    0  0.99211916483E-01  0.85398957671E-01 -0.11537494026E-01  0.13307399304E+00  0.20966342332E-01 0.  0.
         14    1    1    2    0    0  0.81316616876E-02  0.45130453974E-02 -0.16946037452E-01  0.19330278992E-01  0.00000000000E+00 0.  1.
     999901    1    3    3    0    0 -0.10734357817E+00 -0.89912003069E-01  0.28483531478E-01  0.89152572797E+00  0.88000000000E+00 0.  1.
        -11    1    4    4    0    0  0.26237635649E-01  0.30121940564E-01 -0.11330224990E-01  0.41525654084E-01  0.51100000000E-03 0.  1.
         11    1    4    4    0    0  0.72974280834E-01  0.55277017107E-01 -0.20726903577E-03  0.91548338952E-01  0.51100000000E-03 0. -1.
</event>
<event>
 8    1  0.1103774E+005  0.1043930E+01  0.7957747E-01            NaN
         13   -1    0    0    0    0  0.00000000000E+00  0.00000000000E+00  0.74505805969E-08  0.10566000000E+00  0.10566000000E+00 0. -1.
     999900   -1    0    0    0    0 -0.00000000000E+00 -0.00000000000E+00 -0.74505805969E-08  0.93827000000E+00  0.93827000000E+00 0. -1.
     999902    2    1    2    0    0  0.18569491288E-01 -0.78900588173E-02  0.11074083189E-01  0.10209144758E+01  0.10206550115E+01 0.  0.
     999903    2    3    3    0    0 -0.89298675828E-01  0.77707702408E-01 -0.45278237782E-01  0.12842464267E+00  0.20737152866E-01 0.  0.
         14    1    1    2    0    0 -0.18569491288E-01  0.78900588173E-02 -0.11074083189E-01  0.23015524180E-01  0.00000000000E+00 0. -1.
     999901    1    3    3    0    0  0.10786816712E+00 -0.85597761226E-01  0.56352320971E-01  0.89248983315E+00  0.88000000000E+00 0.  1.
        -11    1    4    4    0    0 -0.50793237839E-01  0.46238559713E-01 -0.15354785770E-01  0.70384572042E-01  0.51100000000E-03 0.  1.
         11    1    4    4    0    0 -0.38505437989E-01  0.31469142695E-01 -0.29923452012E-01  0.58040070624E-01  0.51100000000E-03 0. -1.
</event>
<event>
 8    1  0.1103774E+005  0.1043930E+01  0.7957747E-01            NaN
         13   -1    0    0    0    0  0.00000000000E+00  0.00000000000E+00  0.74505805969E-08  0.10566000000E+00  0.10566000000E+00 0. -1.
     999900   -1    0    0    0    0 -0.00000000000E+00 -0.00000000000E+00 -0.74505805969E-08  0.93827000000E+00  0.93827000000E+00 0. -1.
     999902    2    1    2    0    0  0.41260971923E-02 -0.18803958625E-01 -0.13597432497E-01  0.10203608738E+01  0.10200886281E+01 0.  0.
     999903    2    3    3    0    0 -0.71044429417E-01  0.10996408975E-01  0.10451543267E+00  0.12879521786E+00  0.22282291539E-01 0.  0.
         14    1    1    2    0    0 -0.41260971923E-02  0.18803958625E-01  0.13597432497E-01  0.23569126172E-01  0.00000000000E+00 0. -1.
     999901    1    3    3    0    0  0.75170526609E-01 -0.29800367599E-01 -0.11811286517E+00  0.89156565597E+00  0.88000000000E+00 0. -1.
        -11    1    4    4    0    0 -0.25611613697E-01  0.14810413714E-01  0.44038589864E-01  0.53056211971E-01  0.51100000000E-03 0. -1.
         11    1    4    4    0    0 -0.45432815721E-01 -0.38140047393E-02  0.60476842807E-01  0.75739005891E-01  0.51100000000E-03 0.  1.
</event>
<event>
 8    1  0.1103774E+005  0.1043930E+01  0.7957747E-01            NaN
         13   -1    0    0    0    0  0.00000000000E+00  0.00000000000E+00  0.74505805969E-08  0.10566000000E+00  0.10566000000E+00 0.  1.
     999900   -1    0    0    0    0 -0.00000000000E+00 -0.00000000000E+00 -0.74505805969E-08  0.93827000000E+00  0.93827000000E+00 0.  1.
     999902    2    1    2    0    0 -0.10384633948E-01 -0.19302472515E-01  0.96467469326E-02  0.10199824366E+01  0.10197012725E+01 0.  0.
     999903    2    3    3    0    0  0.11620903937E+00 -0.22756777896E-01 -0.47527403265E-01  0.12908021198E+00  0.19504750466E-01 0.  0.
         14    1    1    2    0    0  0.10384633948E-01  0.19302472515E-01 -0.96467469326E-02  0.23947563421E-01  0.00000000000E+00 0.  1.
     999901    1    3    3    0    0 -0.12659367332E+00  0.34543053817E-02  0.57174150197E-01  0.89090222460E+00  0.88000000000E+00 0. -1.
        -11    1    4    4    0    0  0.60737619232E-01 -0.16624525708E-01 -0.34354193013E-01  0.71734963188E-01  0.51100000000E-03 0.  1.
         11    1    4    4    0    0  0.55471420140E-01 -0.61322521883E-02 -0.13173210251E-01  0.57345248789E-01  0.51100000000E-03 0. -1.
</event>
<event>
 8    1  0.1103774E+005  0.1043930E+01  0.7957747E-01            NaN
         13   -1    0    0    0    0  0.00000000000E+00  0.00000000000E+00  0.74505805969E-08  0.10566000000E+00  0.10566000000E+00 0.  1.
     999900   -1    0    0    0    0 -0.00000000000E+00 -0.00000000000E+00 -0.74505805969E-08  0.93827000000E+00  0.93827000000E+00 0. -1.
     999902    2    1    2    0    0  0.20549122244E-01 -0.85943485612E-02  0.53854709481E-02  0.10210142292E+01  0.10207570346E+01 0.  0.
     999903    2    3    3    0    0  0.11397827204E+00 -0.11066062006E-01  0.66584487940E-01  0.13395141575E+00  0.19899334684E-01 0.  0.
         14    1    1    2    0    0 -0.20549122244E-01  0.85943485612E-02 -0.53854709481E-02  0.22915770760E-01  0.00000000000E+00 0.  1.
     999901    1    3    3    0    0 -0.93429149797E-01  0.24717134449E-02 -0.61199016992E-01  0.88706281349E+00  0.88000000000E+00 0.  1.
        -11    1    4    4    0    0  0.51598041329E-01  0.41320844687E-02  0.34167360364E-01  0.62025008072E-01  0.51100000000E-03 0.  1.
         11    1    4    4    0    0  0.62380230712E-01 -0.15198146475E-01  0.32417127577E-01  0.71926407677E-01  0.51100000000E-03 0. -1.
</event>
<event>
 8    1  0.1103774E+005  0.1043930E+01  0.7957747E-01            NaN
         13   -1    0    0    0    0  0.00000000000E+00  0.00000000000E+00  0.74505805969E-08  0.10566000000E+00  0.10566000000E+00 0.  1.
     999900   -1    0    0    0    0 -0.00000000000E+00 -0.00000000000E+00 -0.74505805969E-08  0.93827000000E+00  0.93827000000E+00 0.  1.
     999902    2    1    2    0    0  0.67443993997E-02  0.16387087884E-01 -0.16234921643E-01  0.10198967677E+01  0.10196135643E+01 0.  0.
     999903    2    3    3    0    0  0.11984197649E+00  0.26407554773E-01 -0.44549086931E-01  0.13215065332E+00  0.20486965316E-01 0.  0.
         14    1    1    2    0    0 -0.67443993997E-02 -0.16387087884E-01  0.16234921643E-01  0.24033232269E-01  0.00000000000E+00 0.  1.
     999901    1    3    3    0    0 -0.11309757709E+00 -0.10020466890E-01  0.28314165288E-01  0.88774611441E+00  0.88000000000E+00 0. -1.
        -11    1    4    4    0    0  0.79864151487E-01  0.22202800840E-01 -0.38850845220E-01  0.91547235640E-01  0.51100000000E-03 0. -1.
         11    1    4    4    0    0  0.39977825002E-01  0.42047539329E-02 -0.56982417110E-02  0.40603417678E-01  0.51100000000E-03 0.  1.
</event>
<event>
 8    1  0.1103774E+005  0.1043930E+01  0.7957747E-01            NaN
         13   -1    0    0    0    0  0.00000000000E+00  0.00000000000E+00  0.74505805969E-08  0.10566000000E+00  0.10566000000E+00 0.  1.
     999900   -1    0    0    0    0 -0.00000000000E+00 -0.00000000000E+00 -0.74505805969E-08  0.93827000000E+00  0.93827000000E+00 0. -1.
     999902    2    1    2    0    0  0.19479056136E-01  0.49198016952E-02 -0.11172833089E-01  0.10209415186E+01  0.10206826707E+01 0.  0.
     999903    2    3    3    0    0 -0.11208632254E+00 -0.59886789377E-01 -0.24958900448E-02  0.12876181002E+00  0.20581618258E-01 0.  0.
         14    1    1    2    0    0 -0.19479056136E-01 -0.49198016952E-02  0.11172833089E-01  0.22988481374E-01  0.00000000000E+00 0.  1.
     999901    1    3    3    0    0  0.13156537867E+00  0.64806591072E-01 -0.86769430437E-02  0.89217970861E+00  0.88000000000E+00 0.  1.
        -11    1    4    4    0    0 -0.10039553297E+00 -0.45687709811E-01 -0.31787946348E-02  0.11034942557E+00  0.51100000000E-03 0. -1.
         11    1    4    4    0    0 -0.11690789566E-01 -0.14199079566E-01  0.68290458994E-03  0.18412384444E-01  0.51100000000E-03 0.  1.
</event>
<event>
 7    1  0.1103774E+005  0.1043930E+01  0.7957747E-01            NaN
         13   -1    0    0    0    0  0.00000000000E+00  0.00000000000E+00  0.74505805969E-08  0.10566000000E+00  0.10566000000E+00 0. -1.
     999900   -1    0    0    0    0 -0.00000000000E+00 -0.00000000000E+00 -0.74505805969E-08  0.93827000000E+00  0.93827000000E+00 0. -1.
     999902    2    1    2    0    0 -0.85617302181E-02 -0.10583714763E-01  0.18430190020E-01  0.10210173365E+01  0.10207602125E+01 0.  0.
         14    1    1    2    0    0  0.85617302181E-02  0.10583714763E-01 -0.18430190020E-01  0.22912663457E-01  0.00000000000E+00 0.  1.
     999901    1    3    3    0    0 -0.10262172577E+00 -0.65048195879E-01 -0.42196540124E-01  0.88934978180E+00  0.88000000000E+00 0.  1.
        -11    1    3    3    0    0  0.93267597726E-01  0.49942418616E-01  0.65910174469E-01  0.12464951738E+00  0.51100000000E-03 0.  1.
         11    1    3    3    0    0  0.79239782263E-03  0.45220625001E-02 -0.52834443244E-02  0.70180373677E-02  0.51100000000E-03 0. -1.
</event>
<event>
 7    1  0.1439554E+005  0.1043930E+01  0.7957747E-01            NaN
         13   -1    0    0    0    0  0.00000000000E+00  0.00000000000E+00  0.74505805969E-08  0.10566000000E+00  0.10566000000E+00 0. -1.
     999900   -1    0    0    0    0 -0.00000000000E+00 -0.00000000000E+00 -0.74505805969E-08  0.93827000000E+00  0.93827000000E+00 0.  1.
     999903    2    1    2    0    0 -0.59949991845E-01 -0.11087377743E-01 -0.91063344149E-01  0.11143653743E+00  0.20214790635E-01 0.  0.
         14    1    1    2    0    0 -0.40355030597E-01  0.91348318118E-02  0.12950502622E-01  0.43355382190E-01  0.00000000000E+00 0.  1.
     999901    1    1    2    0    0  0.10030502244E+00  0.19525459314E-02  0.78112841527E-01  0.88913808038E+00  0.88000000000E+00 0.  1.
        -11    1    3    3    0    0 -0.44556495444E-01 -0.11582394839E-01 -0.52051122775E-01  0.69491104895E-01  0.51100000000E-03 0. -1.
         11    1    3    3    0    0 -0.15393496401E-01  0.49501709544E-03 -0.39012221374E-01  0.41945432539E-01  0.51100000000E-03 0.  1.
</event>
<event>
 8    1  0.1103774E+005  0.1043930E+01  0.7957747E-01            NaN
         13   -1    0    0    0    0  0.00000000000E+00  0.00000000000E+00  0.74505805969E-08  0.10566000000E+00  0.10566000000E+00 0. -1.
     999900   -1    0    0    0    0 -0.00000000000E+00 -0.00000000000E+00 -0.74505805969E-08  0.93827000000E+00  0.93827000000E+00 0. -1.
     999902    2    1    2    0    0  0.29440058243E-02 -0.16153746149E-01 -0.13050296677E-01  0.10229557079E+01  0.10227406609E+01 0.  0.
     999903    2    3    3    0    0 -0.83723283728E-01 -0.73987189592E-01  0.69251472782E-01  0.13299531132E+00  0.20206283401E-01 0.  0.
         14    1    1    2    0    0 -0.29440058243E-02  0.16153746149E-01  0.13050296677E-01  0.20974292081E-01  0.00000000000E+00 0. -1.
     999901    1    3    3    0    0  0.86667289552E-01  0.57833443443E-01 -0.82301769458E-01  0.88996039660E+00  0.88000000000E+00 0. -1.
        -11    1    4    4    0    0 -0.48950490427E-01 -0.48500548229E-01  0.31839712999E-01  0.75911014592E-01  0.51100000000E-03 0. -1.
         11    1    4    4    0    0 -0.34772793300E-01 -0.25486641363E-01  0.37411759783E-01  0.57084296728E-01  0.51100000000E-03 0.  1.
</event>
<event>
 8    1  0.1103774E+005  0.1043930E+01  0.7957747E-01            NaN
         13   -1    0    0    0    0  0.00000000000E+00  0.00000000000E+00  0.74505805969E-08  0.10566000000E+00  0.10566000000E+00 0.  1.
     999900   -1    0    0    0    0 -0.00000000000E+00 -0.00000000000E+00 -0.74505805969E-08  0.93827000000E+00  0.93827000000E+00 0.  1.
     999902    2    1    2    0    0  0.20531899499E-01 -0.17098373818E-02 -0.13189532950E-01  0.10194668395E+01  0.10191732879E+01 0.  0.
     999903    2    3    3    0    0  0.62785948778E-01  0.11028699300E+00 -0.26872772916E-01  0.13125744656E+00  0.20026861090E-01 0.  0.
         14    1    1    2    0    0 -0.20531899499E-01  0.17098373818E-02  0.13189532950E-01  0.24463160474E-01  0.00000000000E+00 0.  1.
     999901    1    3    3    0    0 -0.42254049279E-01 -0.11199683038E+00  0.13683239966E-01  0.88820939297E+00  0.88000000000E+00 0. -1.
        -11    1    4    4    0    0  0.33553669236E-01  0.78025640691E-01 -0.17346818638E-01  0.86689229795E-01  0.51100000000E-03 0.  1.
         11    1    4    4    0    0  0.29232279542E-01  0.32261352307E-01 -0.95259542782E-02  0.44568216767E-01  0.51100000000E-03 0. -1.
</event>
<event>
 8    1  0.1103774E+005  0.1043930E+01  0.7957747E-01            NaN
         13   -1    0    0    0    0  0.00000000000E+00  0.00000000000E+00  0.74505805969E-08  0.10566000000E+00  0.10566000000E+00 0. -1.
     999900   -1    0    0    0    0 -0.00000000000E+00 -0.00000000000E+00 -0.74505805969E-08  0.93827000000E+00  0.93827000000E+00 0. -1.
     999902    2    1    2    0    0 -0.78733117439E-03  0.19287183877E-01 -0.95706671956E-02  0.10223843967E+01  0.10221573468E+01 0.  0.
     999903    2    3    3    0    0  0.12394044899E+00  0.28120797647E-01 -0.34732963340E-01  0.13318914644E+00  0.19518089883E-01 0.  0.
         14    1    1    2    0    0  0.78733117439E-03 -0.19287183877E-01  0.95706671956E-02  0.21545603330E-01  0.00000000000E+00 0. -1.
     999901    1    3    3    0    0 -0.12472778016E+00 -0.88336137700E-02  0.25162296144E-01  0.88919525023E+00  0.88000000000E+00 0.  1.
        -11    1    4    4    0    0  0.87165226307E-01  0.13637033771E-01 -0.16928329613E-01  0.89836378109E-01  0.51100000000E-03 0.  1.
         11    1    4    4    0    0  0.36775222680E-01  0.14483763876E-01 -0.17804633726E-01  0.43352768335E-01  0.51100000000E-03 0. -1.
</event>
<event>
 8    1  0.1103774E+005  0.1043930E+01  0.7957747E-01            NaN
         13   -1    0    0    0    0  0.00000000000E+00  0.00000000000E+00  0.74505805969E-08  0.10566000000E+00  0.10566000000E+00 0. -1.
     999900   -1    0    0    0    0 -0.00000000000E+00 -0.00000000000E+00 -0.74505805969E-08  0.93827000000E+00  0.93827000000E+00 0. -1.
     999902    2    1    2    0    0 -0.36132536038E-02 -0.31739619145E-02 -0.20724404481E-01  0.10226548836E+01  0.10224335579E+01 0.  0.
     999903    2    3    3    0    0  0.82722937736E-01 -0.84159452485E-01  0.54225141415E-01  0.13157126126E+00  0.21088692629E-01 0.  0.
         14    1    1    2    0    0  0.36132536038E-02  0.31739619145E-02  0.20724404481E-01  0.21275116378E-01  0.00000000000E+00 0. -1.
     999901    1    3    3    0    0 -0.86336191340E-01  0.80985490571E-01 -0.74949545895E-01  0.89108362237E+00  0.88000000000E+00 0.  1.
        -11    1    4    4    0    0  0.57021072329E-01 -0.66943736255E-01  0.32435811011E-01  0.93729448255E-01  0.51100000000E-03 0.  1.
         11    1    4    4    0    0  0.25701865407E-01 -0.17215716230E-01  0.21789330404E-01  0.37841813001E-01  0.51100000000E-03 0. -1.
</event>
<event>
 8    1  0.1103774E+005  0.1043930E+01  0.7957747E-01            NaN
         13   -1    0    0    0    0  0.00000000000E+00  0.00000000000E+00  0.74505805969E-08  0.10566000000E+00  0.10566000000E+00 0. -1.
     999900   -1    0    0    0    0 -0.00000000000E+00 -0.00000000000E+00 -0.74505805969E-08  0.93827000000E+00  0.93827000000E+00 0.  1.
     999902    2    1    2    0    0 -0.20520020005E-01  0.11725702494E-01 -0.59583845431E-02  0.10195565377E+01  0.10192651607E+01 0.  0.
     999903    2    3    3    0    0  0.97301555266E-02 -0.12636699149E+00 -0.87642145421E-03  0.12825945386E+00  0.19657744631E-01 0.  0.
         14    1    1    2    0    0  0.20520020005E-01 -0.11725702494E-01  0.59583845431E-02  0.24373462338E-01  0.00000000000E+00 0. -1.
     999901    1    3    3    0    0 -0.30250175532E-01  0.13809269398E+00 -0.50819630889E-02  0.89129708381E+00  0.88000000000E+00 0. -1.
        -11    1    4    4    0    0  0.82559753016E-02 -0.11305649343E+00 -0.68954509635E-02  0.11356821827E+00  0.51100000000E-03 0.  1.
         11    1    4    4    0    0  0.14741802250E-02 -0.13310498058E-01  0.60190295093E-02  0.14691235588E-01  0.51100000000E-03 0. -1.
</event>
<event>
 8    1  0.1103774E+005  0.1043930E+01  0.7957747E-01            NaN
         13   -1    0    0    0    0  0.00000000000E+00  0.00000000000E+00  0.74505805969E-08  0.10566000000E+00  0.10566000000E+00 0.  1.
     999900   -1    0    0    0    0 -0.00000000000E+00 -0.00000000000E+00 -0.74505805969E-08  0.93827000000E+00  0.93827000000E+00 0.  1.
     999902    2    1    2    0    0 -0.12724386549E-01  0.11675434377E-01  0.14236383898E-01  0.10215491956E+01  0.10213039991E+01 0.  0.
     999903    2    3    3    0    0 -0.35759235201E-01  0.10637806901E+00  0.71450446264E-01  0.13432169250E+00  0.18496873627E-01 0.  0.
         14    1    1    2    0    0  0.12724386549E-01 -0.11675434377E-01 -0.14236383898E-01  0.22380804441E-01  0.00000000000E+00 0. -1.
     999901    1    3    3    0    0  0.23034848652E-01 -0.94702634638E-01 -0.57214062366E-01  0.88722750306E+00  0.88000000000E+00 0.  1.
        -11    1    4    4    0    0 -0.81638319039E-02  0.50858364359E-01  0.36669113932E-01  0.63230581321E-01  0.51100000000E-03 0. -1.
         11    1    4    4    0    0 -0.27595403297E-01  0.55519704656E-01  0.34781332332E-01  0.71091111175E-01  0.51100000000E-03 0.  1.
</event>
<event>
 8    1  0.1103774E+005  0.1043930E+01  0.7957747E-01            NaN
         13   -1    0    0    0    0  0.00000000000E+00  0.00000000000E+00  0.74505805969E-08  0.10566000000E+00  0.10566000000E+00 0. -1.
     999900   -1    0    0    0    0 -0.00000000000E+00 -0.00000000000E+00 -0.74505805969E-08  0.93827000000E+00  0.93827000000E+00 0.  1.
     999902    2    1    2    0    0  0.47951791074E-02  0.22269877612E-01  0.66004137333E-02  0.10202127773E+01  0.10199370590E+01 0.  0.
     999903    2    3    3    0    0  0.22927249452E-01 -0.42949086452E-01 -0.11773896442E+00  0.12889770045E+00  0.19541510766E-01 0.  0.
         14    1    1    2    0    0 -0.47951791074E-02 -0.22269877612E-01 -0.66004137333E-02  0.23717222708E-01  0.00000000000E+00 0.  1.
     999901    1    3    3    0    0 -0.18132070344E-01  0.65218964064E-01  0.12433937816E+00  0.89131507684E+00  0.88000000000E+00 0. -1.
        -11    1    4    4    0    0  0.46082773492E-02 -0.79845383330E-02 -0.78021663257E-02  0.12088175747E-01  0.51100000000E-03 0.  1.
         11    1    4    4    0    0  0.18318972103E-01 -0.34964548119E-01 -0.10993679810E+00  0.11680952470E+00  0.51100000000E-03 0. -1.
</event>
<event>
 8    1  0.1103774E+005  0.1043930E+01  0.7957747E-01            NaN
         13   -1    0    0    0    0  0.00000000000E+00  0.00000000000E+00  0.74505805969E-08  0.10566000000E+00  0.10566000000E+00 0. -1.
     999900   -1    0    0    0    0 -0.00000000000E+00 -0.00000000000E+00 -0.74505805969E-08  0.93827000000E+00  0.93827000000E+00 0. -1.
     999902    2    1    2    0    0  0.14287785209E-01  0.77414762749E-02 -0.14680434785E-01  0.10220305382E+01  0.10217958870E+01 0.  0.
     999903    2    3    3    0    0 -0.10975424601E+00 -0.65451576238E-01  0.11689666359E-01  0.12993243224E+00  0.20393266031E-01 0.  0.
         14    1    1    2    0    0 -0.14287785209E-01 -0.77414762749E-02  0.14680434785E-01  0.21899461788E-01  0.00000000000E+00 0. -1.
     999901    1    3    3    0    0  0.12404203122E+00  0.73193052513E-01 -0.26370101145E-01  0.89209810597E+00  0.88000000000E+00 0.  1.
        -11    1    4    4    0    0 -0.40539354266E-01 -0.24891297365E-01 -0.54858811100E-02  0.47889163089E-01  0.51100000000E-03 0.  1.
         11    1    4    4    0    0 -0.69214891742E-01 -0.40560278874E-01  0.17175547469E-01  0.82043269151E-01  0.51100000000E-03 0. -1.
</event>
<event>
 8    1  0.1103774E+005  0.1043930E+01  0.7957747E-01            NaN
         13   -1    0    0    0    0  0.00000000000E+00  0.00000000000E+00  0.74505805969E-08  0.10566000000E+00  0.10566000000E+00 0. -1.
     999900   -1    0    0    0    0 -0.00000000000E+00 -0.00000000000E+00 -0.74505805969E-08  0.93827000000E+00  0.93827000000E+00 0. -1.
     999902    2    1    2    0    0 -0.22549038224E-01  0.33445865685E-02 -0.29716325604E-02  0.10209413945E+01  0.10206825437E+01 0.  0.
     999903    2    3    3    0    0 -0.58677184730E-01  0.11728084638E+00 -0.75441142099E-02  0.13284926982E+00  0.19854619028E-01 0.  0.
         14    1    1    2    0    0  0.22549038224E-01 -0.33445865685E-02  0.29716325604E-02  0.22988605531E-01  0.00000000000E+00 0. -1.
     999901    1    3    3    0    0  0.36128146505E-01 -0.11393625982E+00  0.45724816494E-02  0.88809212465E+00  0.88000000000E+00 0.  1.
        -11    1    4    4    0    0 -0.39241937842E-01  0.78022224273E-01 -0.14372891229E-01  0.88511232561E-01  0.51100000000E-03 0. -1.
         11    1    4    4    0    0 -0.19435246888E-01  0.39258622112E-01  0.68287770194E-02  0.44338037262E-01  0.51100000000E-03 0.  1.
</event>
<event>
 8    1  0.1103774E+005  0.1043930E+01  0.7957747E-01            NaN
         13   -1    0    0    0    0  0.00000000000E+00  0.00000000000E+00  0.74505805969E-08  0.10566000000E+00  0.10566000000E+00 0. -1.
     999900   -1    0    0    0    0 -0.00000000000E+00 -0.00000000000E+00 -0.74505805969E-08  0.93827000000E+00  0.93827000000E+00 0.  1.
     999902    2    1    2    0    0 -0.31096182523E-02 -0.64601951300E-02  0.22843179781E-01  0.10199880972E+01  0.10197070676E+01 0.  0.
     999903    2    3    3    0    0 -0.32348800304E-01  0.11462469531E+00  0.50180254891E-01  0.13079531938E+00  0.20102038070E-01 0.  0.
         14    1    1    2    0    0  0.31096182523E-02  0.64601951300E-02 -0.22843179781E-01  0.23941902792E-01  0.00000000000E+00 0.  1.
     999901    1    3    3    0    0  0.29239182052E-01 -0.12108489044E+00 -0.27337075109E-01  0.88919277783E+00  0.88000000000E+00 0.  1.
        -11    1    4    4    0    0 -0.23370624161E-01  0.10116113552E+00  0.48248335494E-01  0.11448984414E+00  0.51100000000E-03 0.  1.
         11    1    4    4    0    0 -0.89781761431E-02  0.13463559798E-01  0.19319193969E-02  0.16305475242E-01  0.51100000000E-03 0. -1.
</event>
<event>
 8    1  0.1103774E+005  0.1043930E+01  0.7957747E-01            NaN
         13   -1    0    0    0    0  0.00000000000E+00  0.00000000000E+00  0.74505805969E-08  0.10566000000E+00  0.10566000000E+00 0. -1.
     999900   -1    0    0    0    0 -0.00000000000E+00 -0.00000000000E+00 -0.74505805969E-08  0.93827000000E+00  0.93827000000E+00 0.  1.
     999902    2    1    2    0    0  0.80476717546E-02 -0.12880062069E-01 -0.17758715369E-01  0.10205626512E+01  0.10202951004E+01 0.  0.
     999903    2    3    3    0    0 -0.34343263097E-01  0.11721069509E+00  0.34589933912E-01  0.12845224459E+00  0.19639471723E-01 0.  0.
         14    1    1    2    0    0 -0.80476717546E-02  0.12880062069E-01  0.17758715369E-01  0.23367348825E-01  0.00000000000E+00 0. -1.
     999901    1    3    3    0    0  0.42390934851E-01 -0.13009075715E+00 -0.52348649280E-01  0.89211040658E+00  0.88000000000E+00 0. -1.
        -11    1    4    4    0    0 -0.34250919738E-01  0.88167659090E-01  0.28304661393E-01  0.98732348245E-01  0.51100000000E-03 0. -1.
         11    1    4    4    0    0 -0.92343358668E-04  0.29043035996E-01  0.62852725191E-02  0.29719896346E-01  0.51100000000E-03 0.  1.
</event>
<event>
 8    1  0.1103774E+005  0.1043930E+01  0.7957747E-01            NaN
         13   -1    0    0    0    0  0.00000000000E+00  0.00000000000E+00  0.74505805969E-08  0.10566000000E+00  0.10566000000E+00 0. -1.
     999900   -1    0    0    0    0 -0.00000000000E+00 -0.00000000000E+00 -0.74505805969E-08  0.93827000000E+00  0.93827000000E+00 0. -1.
     999902    2    1    2    0    0 -0.10928618419E-01  0.37172129483E-03 -0.21789421397E-01  0.10195506694E+01  0.10192591504E+01 0.  0.
     999903    2    3    3    0    0 -0.55279164236E-01 -0.87037841956E-01 -0.80445065790E-01  0.13216806458E+00  0.19121107542E-01 0.  0.
         14    1    1    2    0    0  0.10928618419E-01 -0.37172129483E-03  0.21789421397E-01  0.24379330632E-01  0.00000000000E+00 0. -1.
     999901    1    3    3    0    0  0.44350545817E-01  0.87409563251E-01  0.58655644394E-01  0.88738260479E+00  0.88000000000E+00 0.  1.
        -11    1    4    4    0    0 -0.34560617448E-01 -0.37062059101E-01 -0.41577223868E-01  0.65551195022E-01  0.51100000000E-03 0. -1.
         11    1    4    4    0    0 -0.20718546789E-01 -0.49975782855E-01 -0.38867841923E-01  0.66616869558E-01  0.51100000000E-03 0.  1.
</event>
<event>
 8    1  0.1103774E+005  0.1043930E+01  0.7957747E-01            NaN
         13   -1    0    0    0    0  0.00000000000E+00  0.00000000000E+00  0.74505805969E-08  0.10566000000E+00  0.10566000000E+00 0. -1.
     999900   -1    0    0    0    0 -0.00000000000E+00 -0.00000000000E+00 -0.74505805969E-08  0.93827000000E+00  0.93827000000E+00 0.  1.
     999902    2    1    2    0    0 -0.19679388314E-01 -0.82737667709E-02 -0.86047924027E-02  0.10209131368E+01  0.10206536419E+01 0.  0.
     999903    2    3    3    0    0  0.10319064267E+00 -0.69846053165E-01 -0.31143807435E-01  0.12996072604E+00  0.19826086246E-01 0.  0.
         14    1    1    2    0    0  0.19679388314E-01  0.82737667709E-02  0.86047924027E-02  0.23016863238E-01  0.00000000000E+00 0. -1.
     999901    1    3    3    0    0 -0.12287003098E+00  0.61572286394E-01  0.22539015032E-01  0.89095241072E+00  0.88000000000E+00 0.  1.
        -11    1    4    4    0    0  0.10056184717E+00 -0.63488691116E-01 -0.27141340388E-01  0.12198529619E+00  0.51100000000E-03 0. -1.
         11    1    4    4    0    0  0.26287954933E-02 -0.63573620493E-02 -0.40024670465E-02  0.79754298586E-02  0.51100000000E-03 0.  1.
</event>
<event>
 8    1  0.1103774E+005  0.1043930E+01  0.7957747E-01            NaN
         13   -1    0    0    0    0  0.00000000000E+00  0.00000000000E+00  0.74505805969E-08  0.10566000000E+00  0.10566000000E+00 0.  1.
     999900   -1    0    0    0    0 -0.00000000000E+00 -0.00000000000E+00 -0.74505805969E-08  0.93827000000E+00  0.93827000000E+00 0.  1.
     999902    2    1    2    0    0 -0.74444399514E-02 -0.37179478090E-03 -0.25299793574E-01  0.10175550598E+01  0.10172131842E+01 0.  0.
     999903    2    3    3    0    0  0.94715018914E-02  0.89494424591E-01 -0.92132569337E-01  0.13029596210E+00  0.19739960123E-01 0.  0.
         14    1    1    2    0    0  0.74444399514E-02  0.37179478090E-03  0.25299793574E-01  0.26374940236E-01  0.00000000000E+00 0.  1.
     999901    1    3    3    0    0 -0.16915941843E-01 -0.89866219372E-01  0.66832775763E-01  0.88725909766E+00  0.88000000000E+00 0. -1.
        -11    1    4    4    0    0  0.20320002744E-02  0.80012818715E-01 -0.78905858841E-01  0.11239473237E+00  0.51100000000E-03 0.  1.
         11    1    4    4    0    0  0.74395016170E-02  0.94816058760E-02 -0.13226710497E-01  0.17901229730E-01  0.51100000000E-03 0. -1.
</event>
<event>
 8    1  0.1103774E+005  0.1043930E+01  0.7957747E-01            NaN
         13   -1    0    0    0    0  0.00000000000E+00  0.00000000000E+00  0.74505805969E-08  0.10566000000E+00  0.10566000000E+00 0. -1.
     999900   -1    0    0    0    0 -0.00000000000E+00 -0.00000000000E+00 -0.74505805969E-08  0.93827000000E+00  0.93827000000E+00 0.  1.
     999902    2    1    2    0    0  0.74747609052E-02 -0.15342975826E-01 -0.16039520394E-01  0.10205089588E+01  0.10202401628E+01 0.  0.
     999903    2    3    3    0    0 -0.12729234288E+00  0.13916008696E-01 -0.12522339473E-02  0.12964593660E+00  0.20236228245E-01 0.  0.
         14    1    1    2    0    0 -0.74747609052E-02  0.15342975826E-01  0.16039520394E-01  0.23421041229E-01  0.00000000000E+00 0. -1.
     999901    1    3    3    0    0  0.13476710378E+00 -0.29258984522E-01 -0.14787286447E-01  0.89086302217E+00  0.88000000000E+00 0.  1.
        -11    1    4    4    0    0 -0.58702576388E-01  0.42850624147E-02  0.92708902103E-02  0.59586615617E-01  0.51100000000E-03 0. -1.
         11    1    4    4    0    0 -0.68589766488E-01  0.96309462810E-02 -0.10523124158E-01  0.70059320980E-01  0.51100000000E-03 0.  1.
</event>
<event>
 8    1  0.1103774E+005  0.1043930E+01  0.7957747E-01            NaN
         13   -1    0    0    0    0  0.00000000000E+00  0.00000000000E+00  0.74505805969E-08  0.10566000000E+00  0.10566000000E+00 0.  1.
     999900   -1    0    0    0    0 -0.00000000000E+00 -0.00000000000E+00 -0.74505805969E-08  0.93827000000E+00  0.93827000000E+00 0.  1.
     999902    2    1    2    0    0  0.19389832942E-01 -0.12728220047E-01 -0.32766546666E-03  0.10207334362E+01  0.10204698267E+01 0.  0.
     999903    2    3    3    0    0  0.12000869004E+00  0.46972427647E-01  0.23838344624E-01  0.13266118814E+00  0.20548224258E-01 0.  0.
         14    1    1    2    0    0 -0.19389832942E-01  0.12728220047E-01  0.32766546666E-03  0.23196563792E-01  0.00000000000E+00 0. -1.
     999901    1    3    3    0    0 -0.10061885710E+00 -0.59700647694E-01 -0.24166010090E-01  0.88807224806E+00  0.88000000000E+00 0. -1.
        -11    1    4    4    0    0  0.28784771567E-01  0.20718076322E-01  0.88551292992E-02  0.36557847264E-01  0.51100000000E-03 0. -1.
         11    1    4    4    0    0  0.91223918477E-01  0.26254351324E-01  0.14983215324E-01  0.96103340880E-01  0.51100000000E-03 0.  1.
</event>
<event>
 8    1  0.1103774E+005  0.1043930E+01  0.7957747E-01            NaN
         13   -1    0    0    0    0  0.00000000000E+00  0.00000000000E+00  0.74505805969E-08  0.10566000000E+00  0.10566000000E+00 0.  1.
     999900   -1    0    0    0    0 -0.00000000000E+00 -0.00000000000E+00 -0.74505805969E-08  0.93827000000E+00  0.93827000000E+00 0. -1.
     999902    2    1    2    0    0 -0.59434986330E-02  0.23630794972E-02  0.21997941722E-01  0.10210210768E+01  0.10207640377E+01 0.  0.
     999903    2    3    3    0    0 -0.34429596993E-01 -0.56391433388E-02 -0.12224690095E+00  0.12878676455E+00  0.20604097779E-01 0.  0.
         14    1    1    2    0    0  0.59434986330E-02 -0.23630794972E-02 -0.21997941722E-01  0.22908923168E-01  0.00000000000E+00 0. -1.
     999901    1    3    3    0    0  0.28486098360E-01  0.80022228361E-02  0.14424484267E+00  0.89223431228E+00  0.88000000000E+00 0.  1.
        -11    1    4    4    0    0 -0.10299387543E-01 -0.17401380444E-02 -0.73626491607E-01  0.74365495033E-01  0.51100000000E-03 0. -1.
         11    1    4    4    0    0 -0.24130209451E-01 -0.38990052944E-02 -0.48620409344E-01  0.54421269521E-01  0.51100000000E-03 0.  1.
</event>
<event>
 8    1  0.1103774E+005  0.1043930E+01  0.7957747E-01            NaN
         13   -1    0    0    0    0  0.00000000000E+00  0.00000000000E+00  0.74505805969E-08  0.10566000000E+00  0.10566000000E+00 0. -1.
     999900   -1    0    0    0    0 -0.00000000000E+00 -0.00000000000E+00 -0.74505805969E-08  0.93827000000E+00  0.93827000000E+00 0. -1.
     999902    2    1    2    0    0  0.18227692919E-01 -0.47017585376E-02 -0.14240714383E-01  0.10203259057E+01  0.10200528420E+01 0.  0.
     999903    2    3    3    0    0 -0.56090118507E-01  0.77226569327E-01 -0.86451277758E-01  0.13046650473E+00  0.20919871547E-01 0.  0.
         14    1    1    2    0    0 -0.18227692919E-01  0.47017585376E-02  0.14240714383E-01  0.23604094319E-01  0.00000000000E+00 0. -1.
     999901    1    3    3    0    0  0.74317811426E-01 -0.81928327865E-01  0.72210563375E-01  0.88985940095E+00  0.88000000000E+00 0.  1.
        -11    1    4    4    0    0 -0.30908749468E-01  0.26530172701E-01 -0.30652927136E-01  0.50981015292E-01  0.51100000000E-03 0. -1.
         11    1    4    4    0    0 -0.25181369039E-01  0.50696396627E-01 -0.55798350622E-01  0.79485489435E-01  0.51100000000E-03 0.  1.
</event>
<event>
 8    1  0.1103774E+005  0.1043930E+01  0.7957747E-01            NaN
         13   -1    0    0    0    0  0.00000000000E+00  0.00000000000E+00  0.74505805969E-08  0.10566000000E+00  0.10566000000E+00 0. -1.
     999900   -1    0    0    0    0 -0.00000000000E+00 -0.00000000000E+00 -0.74505805969E-08  0.93827000000E+00  0.93827000000E+00 0. -1.
     999902    2    1    2    0    0  0.20656228097E-01  0.11856207348E-01 -0.19041071786E-02  0.10200370086E+01  0.10197571397E+01 0.  0.
     999903    2    3    3    0    0  0.45561679502E-01 -0.70895730869E-01 -0.97806301118E-01  0.13061843700E+00  0.19825040990E-01 0.  0.
         14    1    1    2    0    0 -0.20656228097E-01 -0.11856207348E-01  0.19041071786E-02  0.23892991358E-01  0.00000000000E+00 0. -1.
     999901    1    3    3    0    0 -0.24905451405E-01  0.82751938217E-01  0.95902193939E-01  0.88941857165E+00  0.88000000000E+00 0.  1.
        -11    1    4    4    0    0  0.28154708382E-01 -0.42231914077E-01 -0.43794939190E-01  0.67040882977E-01  0.51100000000E-03 0.  1.
         11    1    4    4    0    0  0.17406971120E-01 -0.28663816792E-01 -0.54011361927E-01  0.63577554018E-01  0.51100000000E-03 0. -1.
</event>
<event>
 8    1  0.1103774E+005  0.1043930E+01  0.7957747E-01            NaN
         13   -1    0    0    0    0  0.00000000000E+00  0.00000000000E+00  0.74505805969E-08  0.10566000000E+00  0.10566000000E+00 0.  1.
     999900   -1    0    0    0    0 -0.00000000000E+00 -0.00000000000E+00 -0.74505805969E-08  0.93827000000E+00  0.93827000000E+00 0.  1.
     999902    2    1    2    0    0  0.19372747709E-01 -0.13129561688E-01 -0.34777323217E-02  0.10202702585E+01  0.10199958907E+01 0.  0.
     999903    2    3    3    0    0 -0.10839028083E+00  0.62620197573E-01 -0.15350795389E-01  0.12774441179E+00  0.20328445626E-01 0.  0.
         14    1    1    2    0    0 -0.19372747709E-01  0.13129561688E-01  0.34777323217E-02  0.23659741461E-01  0.00000000000E+00 0.  1.
     999901    1    3    3    0    0  0.12776302854E+00 -0.75749759261E-01  0.11873063068E-01  0.89252584675E+00  0.88000000000E+00 0.  1.
        -11    1    4    4    0    0 -0.95565767001E-01  0.61134553794E-01 -0.17015552706E-01  0.11471721599E+00  0.51100000000E-03 0.  1.
         11    1    4    4    0    0 -0.12824513831E-01  0.14856437793E-02  0.16647573165E-02  0.13027195798E-01  0.51100000000E-03 0. -1.
</event>
<event>
 8    1  0.1103774E+005  0.1043930E+01  0.7957747E-01            NaN
         13   -1    0    0    0    0  0.00000000000E+00  0.00000000000E+00  0.74505805969E-08  0.10566000000E+00  0.10566000000E+00 0. -1.
     999900   -1    0    0    0    0 -0.00000000000E+00 -0.00000000000E+00 -0.74505805969E-08  0.93827000000E+00  0.93827000000E+00 0. -1.
     999902    2    1    2    0    0  0.19529172140E-01 -0.88072611652E-03 -0.13442504605E-01  0.10202052203E+01  0.10199293242E+01 0.  0.
     999903    2    3    3    0    0  0.10989735090E+00  0.34820032830E-01 -0.64169441898E-01  0.13340525744E+00  0.19732790400E-01 0.  0.
         14    1    1    2    0    0 -0.19529172140E-01  0.88072611652E-03  0.13442504605E-01  0.23724779725E-01  0.00000000000E+00 0.  1.
     999901    1    3    3    0    0 -0.90368178761E-01 -0.35700758946E-01  0.50726937293E-01  0.88679996284E+00  0.88000000000E+00 0.  1.
        -11    1    4    4    0    0  0.46163472417E-01  0.49534001149E-02 -0.22323462426E-01  0.51518932966E-01  0.51100000000E-03 0.  1.
         11    1    4    4    0    0  0.63733878484E-01  0.29866632715E-01 -0.41845979472E-01  0.81886324471E-01  0.51100000000E-03 0. -1.
</event>
<event>
 8    1  0.1103774E+005  0.1043930E+01  0.7957747E-01            NaN
         13   -1    0    0    0    0  0.00000000000E+00  0.00000000000E+00  0.74505805969E-08  0.10566000000E+00  0.10566000000E+00 0. -1.
     999900   -1    0    0    0    0 -0.00000000000E+00 -0.00000000000E+00 -0.74505805969E-08  0.93827000000E+00  0.93827000000E+00 0. -1.
     999902    2    1    2    0    0 -0.17011474650E-01 -0.11944562941E-01 -0.11179097448E-01  0.10203284095E+01  0.10200554045E+01 0.  0.
     999903    2    3    3    0    0 -0.84623348575E-02  0.13868715176E-01  0.12648813819E+00  0.12921019015E+00  0.20786336018E-01 0.  0.
         14    1    1    2    0    0  0.17011474650E-01  0.11944562941E-01  0.11179097448E-01  0.23601590484E-01  0.00000000000E+00 0. -1.
     999901    1    3    3    0    0 -0.85491397929E-02 -0.25813278117E-01 -0.13766723563E+00  0.89111821937E+00  0.88000000000E+00 0. -1.
        -11    1    4    4    0    0  0.60203248139E-02  0.56322368105E-02  0.64241888897E-01  0.64770732684E-01  0.51100000000E-03 0.  1.
         11    1    4    4    0    0 -0.14482659671E-01  0.82364783654E-02  0.62246249289E-01  0.64439457466E-01  0.51100000000E-03 0. -1.
</event>
<event>
 8    1  0.1103774E+005  0.1043930E+01  0.7957747E-01            NaN
         13   -1    0    0    0    0  0.00000000000E+00  0.00000000000E+00  0.74505805969E-08  0.10566000000E+00  0.10566000000E+00 0.  1.
     999900   -1    0    0    0    0 -0.00000000000E+00 -0.00000000000E+00 -0.74505805969E-08  0.93827000000E+00  0.93827000000E+00 0. -1.
     999902    2    1    2    0    0 -0.20080633999E-01  0.56658634816E-02 -0.11359209890E-01  0.10201736215E+01  0.10198969813E+01 0.  0.
     999903    2    3    3    0    0 -0.13096220146E+00 -0.31888577999E-02 -0.10874513840E-01  0.13317116206E+00  0.21331580514E-01 0.  0.
         14    1    1    2    0    0  0.20080633999E-01 -0.56658634816E-02  0.11359209890E-01  0.23756378514E-01  0.00000000000E+00 0.  1.
     999901    1    3    3    0    0  0.11088156747E+00  0.88547212815E-02 -0.48469604979E-03  0.88700245942E+00  0.88000000000E+00 0.  1.
        -11    1    4    4    0    0 -0.81702430568E-01  0.79840863447E-02 -0.39842899690E-02  0.82189831993E-01  0.51100000000E-03 0. -1.
         11    1    4    4    0    0 -0.49259770897E-01 -0.11172944145E-01 -0.68902238708E-02  0.50981330069E-01  0.51100000000E-03 0.  1.
</event>
<event>
 8    1  0.1103774E+005  0.1043930E+01  0.7957747E-01            NaN
         13   -1    0    0    0    0  0.00000000000E+00  0.00000000000E+00  0.74505805969E-08  0.10566000000E+00  0.10566000000E+00 0.  1.
     999900   -1    0    0    0    0 -0.00000000000E+00 -0.00000000000E+00 -0.74505805969E-08  0.93827000000E+00  0.93827000000E+00 0.  1.
     999902    2    1    2    0    0 -0.97624985795E-02  0.20704037900E-01 -0.32769145443E-02  0.10208063815E+01  0.10205444462E+01 0.  0.
     999903    2    3    3    0    0 -0.10639395979E+00  0.75341898781E-01  0.20165686941E-01  0.13352261026E+00  0.20629011793E-01 0.  0.
         14    1    1    2    0    0  0.97624985795E-02 -0.20704037900E-01  0.32769145443E-02  0.23123618506E-01  0.00000000000E+00 0.  1.
     999901    1    3    3    0    0  0.96631461213E-01 -0.54637860881E-01 -0.23442601485E-01  0.88728377124E+00  0.88000000000E+00 0.  1.
        -11    1    4    4    0    0 -0.85331763707E-01  0.49701759288E-01  0.16729552060E-01  0.10015944193E+00  0.51100000000E-03 0.  1.
         11    1    4    4    0    0 -0.21062196086E-01  0.25640139492E-01  0.34361348808E-02  0.33363168330E-01  0.51100000000E-03 0. -1.
</event>
<event>
 8    1  0.1103774E+005  0.1043930E+01  0.7957747E-01            NaN
         13   -1    0    0    0    0  0.00000000000E+00  0.00000000000E+00  0.74505805969E-08  0.10566000000E+00  0.10566000000E+00 0.  1.
     999900   -1    0    0    0    0 -0.00000000000E+00 -0.00000000000E+00 -0.74505805969E-08  0.93827000000E+00  0.93827000000E+00 0. -1.
     999902    2    1    2    0    0 -0.78430996706E-02  0.22256070860E-01 -0.82090067272E-02  0.10189453108E+01  0.10186389506E+01 0.  0.
     999903    2    3    3    0    0 -0.50769511075E-01  0.10981526856E+00 -0.50656587862E-01  0.13254185468E+00  0.19087086814E-01 0.  0.
         14    1    1    2    0    0  0.78430996706E-02 -0.22256070860E-01  0.82090067272E-02  0.24984689192E-01  0.00000000000E+00 0.  1.
     999901    1    3    3    0    0  0.42926411405E-01 -0.87559197703E-01  0.42447581135E-01  0.88640345613E+00  0.88000000000E+00 0. -1.
        -11    1    4    4    0    0 -0.27159076010E-01  0.67188241959E-01 -0.20825253511E-01  0.75404426740E-01  0.51100000000E-03 0.  1.
         11    1    4    4    0    0 -0.23610435065E-01  0.42627026604E-01 -0.29831334351E-01  0.57137427936E-01  0.51100000000E-03 0. -1.
</event>
<event>
 8    1  0.1103774E+005  0.1043930E+01  0.7957747E-01            NaN
         13   -1    0    0    0    0  0.00000000000E+00  0.00000000000E+00  0.74505805969E-08  0.10566000000E+00  0.10566000000E+00 0. -1.
     999900   -1    0    0    0    0 -0.00000000000E+00 -0.00000000000E+00 -0.74505805969E-08  0.93827000000E+00  0.93827000000E+00 0. -1.
     999902    2    1    2    0    0  0.20311354438E-01 -0.33334374740E-02  0.95627562860E-02  0.10212339820E+01  0.10209817514E+01 0.  0.
     999903    2    3    3    0    0 -0.96231581109E-01 -0.15400118634E-01 -0.81796039835E-01  0.12877989902E+00  0.19899482490E-01 0.  0.
         14    1    1    2    0    0 -0.20311354438E-01  0.33334374740E-02 -0.95627562860E-02  0.22696017983E-01  0.00000000000E+00 0. -1.
     999901    1    3    3    0    0  0.11654293555E+00  0.12066681160E-01  0.91358796121E-01  0.89245408299E+00  0.88000000000E+00 0.  1.
        -11    1    4    4    0    0 -0.63267739754E-01 -0.13387868092E-02 -0.47017334441E-01  0.78838379630E-01  0.51100000000E-03 0. -1.
         11    1    4    4    0    0 -0.32963841355E-01 -0.14061331825E-01 -0.34778705394E-01  0.49941519395E-01  0.51100000000E-03 0.  1.
</event>
<event>
 8    1  0.1103774E+005  0.1043930E+01  0.7957747E-01            NaN
         13   -1    0    0    0    0  0.00000000000E+00  0.00000000000E+00  0.74505805969E-08  0.10566000000E+00  0.10566000000E+00 0. -1.
     999900   -1    0    0    0    0 -0.00000000000E+00 -0.00000000000E+00 -0.74505805969E-08  0.93827000000E+00  0.93827000000E+00 0. -1.
     999902    2    1    2    0    0 -0.15124065858E-01  0.79562071098E-02  0.14954323427E-01  0.10212216229E+01  0.10209691145E+01 0.  0.
     999903    2    3    3    0    0 -0.10272920225E+00 -0.28330435795E-01 -0.74622448516E-01  0.13160632493E+00  0.19895033362E-01 0.  0.
         14    1    1    2    0    0  0.15124065858E-01 -0.79562071098E-02 -0.14954323427E-01  0.22708377062E-01  0.00000000000E+00 0.  1.
     999901    1    3    3    0    0  0.87605136390E-01  0.36286642905E-01  0.89576771943E-01  0.88961529801E+00  0.88000000000E+00 0.  1.
        -11    1    4    4    0    0 -0.70865760395E-01 -0.28349439718E-01 -0.56318994674E-01  0.94856402055E-01  0.51100000000E-03 0.  1.
         11    1    4    4    0    0 -0.31863441853E-01  0.19003922356E-04 -0.18303453842E-01  0.36749922876E-01  0.51100000000E-03 0. -1.
</event>
<event>
 8    1  0.1103774E+005  0.1043930E+01  0.7957747E-01            NaN
         13   -1    0    0    0    0  0.00000000000E+00  0.00000000000E+00  0.74505805969E-08  0.10566000000E+00  0.10566000000E+00 0. -1.
     999900   -1    0    0    0    0 -0.00000000000E+00 -0.00000000000E+00 -0.74505805969E-08  0.93827000000E+00  0.93827000000E+00 0.  1.
     999902    2    1    2    0    0 -0.92713136664E-03  0.22028431957E-01  0.58986519828E-02  0.10211066461E+01  0.10208515452E+01 0.  0.
     999903    2    3    3    0    0 -0.32094200596E-01  0.86567120609E-01 -0.93117709095E-01  0.13265807231E+00  0.20083633151E-01 0.  0.
         14    1    1    2    0    0  0.92713136664E-03 -0.22028431957E-01 -0.58986519828E-02  0.22823353879E-01  0.00000000000E+00 0.  1.
     999901    1    3    3    0    0  0.31167069229E-01 -0.64538688652E-01  0.99016361078E-01  0.88844857381E+00  0.88000000000E+00 0. -1.
        -11    1    4    4    0    0 -0.63171957275E-02  0.21018088019E-01 -0.35116493599E-01  0.41413720305E-01  0.51100000000E-03 0.  1.
         11    1    4    4    0    0 -0.25777004869E-01  0.65549032591E-01 -0.58001215497E-01  0.91244352010E-01  0.51100000000E-03 0. -1.
</event>
<event>
 8    1  0.1103774E+005  0.1043930E+01  0.7957747E-01            NaN
         13   -1    0    0    0    0  0.00000000000E+00  0.00000000000E+00  0.74505805969E-08  0.10566000000E+00  0.10566000000E+00 0.  1.
     999900   -1    0    0    0    0 -0.00000000000E+00 -0.00000000000E+00 -0.74505805969E-08  0.93827000000E+00  0.93827000000E+00 0. -1.
     999902    2    1    2    0    0  0.14026167521E-01  0.96060754941E-02 -0.15881816595E-01  0.10206653882E+01  0.10204002120E+01 0.  0.
     999903    2    3    3    0    0 -0.71423567943E-01 -0.12591443396E-01  0.10337651472E+00  0.12824343831E+00  0.22356322788E-01 0.  0.
         14    1    1    2    0    0 -0.14026167521E-01 -0.96060754941E-02  0.15881816595E-01  0.23264611755E-01  0.00000000000E+00 0.  1.
     999901    1    3    3    0    0  0.85449735464E-01  0.22197518891E-01 -0.11925833132E+00  0.89242194993E+00  0.88000000000E+00 0. -1.
        -11    1    4    4    0    0 -0.44470529790E-01  0.25403974220E-02  0.67641581432E-01  0.80992137263E-01  0.51100000000E-03 0. -1.
         11    1    4    4    0    0 -0.26953038153E-01 -0.15131840818E-01  0.35734933293E-01  0.47251301048E-01  0.51100000000E-03 0.  1.
</event>
<event>
 8    1  0.1103774E+005  0.1043930E+01  0.7957747E-01            NaN
         13   -1    0    0    0    0  0.00000000000E+00  0.00000000000E+00  0.74505805969E-08  0.10566000000E+00  0.10566000000E+00 0. -1.
     999900   -1    0    0    0    0 -0.00000000000E+00 -0.00000000000E+00 -0.74505805969E-08  0.93827000000E+00  0.93827000000E+00 0. -1.
     999902    2    1    2    0    0 -0.53939984696E-02 -0.57250946880E-02 -0.77087304994E-02  0.10329165330E+01  0.10328578158E+01 0.  0.
     999903    2    3    3    0    0 -0.65369775928E-01 -0.12234070599E+00  0.25846396393E-01  0.14256702794E+00  0.20417279472E-01 0.  0.
         14    1    1    2    0    0  0.53939984696E-02  0.57250946880E-02  0.77087304994E-02  0.11013466965E-01  0.00000000000E+00 0.  1.
     999901    1    3    3    0    0  0.59975777459E-01  0.11661561131E+00 -0.33555126893E-01  0.89034950509E+00  0.88000000000E+00 0. -1.
        -11    1    4    4    0    0 -0.12897924800E-01 -0.10502275340E-01  0.39737453888E-02  0.17108653508E-01  0.51100000000E-03 0.  1.
         11    1    4    4    0    0 -0.52471851129E-01 -0.11183843065E+00  0.21872651005E-01  0.12545837443E+00  0.51100000000E-03 0. -1.
</event>
<event>
 8    1  0.1103774E+005  0.1043930E+01  0.7957747E-01            NaN
         13   -1    0    0    0    0  0.00000000000E+00  0.00000000000E+00  0.74505805969E-08  0.10566000000E+00  0.10566000000E+00 0. -1.
     999900   -1    0    0    0    0 -0.00000000000E+00 -0.00000000000E+00 -0.74505805969E-08  0.93827000000E+00  0.93827000000E+00 0. -1.
     999902    2    1    2    0    0  0.61941359950E-02 -0.17802162643E-01 -0.14080110231E-01  0.10204027005E+01  0.10201314315E+01 0.  0.
     999903    2    3    3    0    0  0.12020576661E+00 -0.50033066428E-01  0.96025927281E-02  0.13214690772E+00  0.20441657709E-01 0.  0.
         14    1    1    2    0    0 -0.61941359950E-02  0.17802162643E-01  0.14080110231E-01  0.23527299454E-01  0.00000000000E+00 0. -1.
     999901    1    3    3    0    0 -0.11401163061E+00  0.32230903785E-01 -0.23682702959E-01  0.88825579283E+00  0.88000000000E+00 0.  1.
        -11    1    4    4    0    0  0.10392935945E+00 -0.35365249405E-01  0.60977996709E-02  0.10995206639E+00  0.51100000000E-03 0. -1.
         11    1    4    4    0    0  0.16276407156E-01 -0.14667817023E-01  0.35047930571E-02  0.22194841326E-01  0.51100000000E-03 0.  1.
</event>
<event>
 8    1  0.1103774E+005  0.1043930E+01  0.7957747E-01            NaN
         13   -1    0    0    0    0  0.00000000000E+00  0.00000000000E+00  0.74505805969E-08  0.10566000000E+00  0.10566000000E+00 0.  1.
     999900   -1    0    0    0    0 -0.00000000000E+00 -0.00000000000E+00 -0.74505805969E-08  0.93827000000E+00  0.93827000000E+00 0.  1.
     999902    2    1    2    0    0  0.76862710133E-02  0.19511667696E-01  0.38111150032E-02  0.10226154853E+01  0.10223933305E+01 0.  0.
     999903    2    3    3    0    0  0.55296123138E-01 -0.60030744626E-01  0.10304170616E+00  0.13219962540E+00  0.14064004172E-01 0.  0.
         14    1    1    2    0    0 -0.76862710133E-02 -0.19511667696E-01 -0.38111150032E-02  0.21314514678E-01  0.00000000000E+00 0. -1.
     999901    1    3    3    0    0 -0.47609852124E-01  0.79542412323E-01 -0.99230591157E-01  0.89041585992E+00  0.88000000000E+00 0.  1.
        -11    1    4    4    0    0  0.33673696384E-01 -0.26370105866E-01  0.51284875824E-01  0.66780984724E-01  0.51100000000E-03 0. -1.
         11    1    4    4    0    0  0.21622426754E-01 -0.33660638761E-01  0.51756830337E-01  0.65418640677E-01  0.51100000000E-03 0.  1.
</event>
<event>
 8    1  0.1103774E+005  0.1043930E+01  0.7957747E-01            NaN
         13   -1    0    0    0    0  0.00000000000E+00  0.00000000000E+00  0.74505805969E-08  0.10566000000E+00  0.10566000000E+00 0.  1.
     999900   -1    0    0    0    0 -0.00000000000E+00 -0.00000000000E+00 -0.74505805969E-08  0.93827000000E+00  0.93827000000E+00 0.  1.
     999902    2    1    2    0    0 -0.15292750309E-02 -0.11698336683E-01 -0.20742399359E-01  0.10200671231E+01  0.10197879675E+01 0.  0.
     999903    2    3    3    0    0  0.73493264178E-01 -0.28046162456E-01  0.99527660901E-01  0.12857370181E+00  0.20918757223E-01 0.  0.
         14    1    1    2    0    0  0.15292750309E-02  0.11698336683E-01  0.20742399359E-01  0.23862876910E-01  0.00000000000E+00 0.  1.
     999901    1    3    3    0    0 -0.75022539209E-01  0.16347825772E-01 -0.12027006026E+00  0.89149342128E+00  0.88000000000E+00 0.  1.
        -11    1    4    4    0    0  0.68230681823E-02  0.12450132781E-02  0.27983378335E-02  0.74964080141E-02  0.51100000000E-03 0.  1.
         11    1    4    4    0    0  0.66670195995E-01 -0.29291175734E-01  0.96729323068E-01  0.12107729379E+00  0.51100000000E-03 0. -1.
</event>
<event>
 8    1  0.1103774E+005  0.1043930E+01  0.7957747E-01            NaN
         13   -1    0    0    0    0  0.00000000000E+00  0.00000000000E+00  0.74505805969E-08  0.10566000000E+00  0.10566000000E+00 0. -1.
     999900   -1    0    0    0    0 -0.00000000000E+00 -0.00000000000E+00 -0.74505805969E-08  0.93827000000E+00  0.93827000000E+00 0.  1.
     999902    2    1    2    0    0 -0.13841498494E-01  0.55506824928E-02  0.11789660616E-01  0.10249196540E+01  0.10247433356E+01 0.  0.
     999903    2    3    3    0    0 -0.13172175998E+00  0.18435571334E-01 -0.22061226928E-01  0.13632094876E+00  0.20154676744E-01 0.  0.
         14    1    1    2    0    0  0.13841498494E-01 -0.55506824928E-02 -0.11789660616E-01  0.19010345976E-01  0.00000000000E+00 0.  1.
     999901    1    3    3    0    0  0.11788026149E+00 -0.12884888841E-01  0.33850887544E-01  0.88859870526E+00  0.88000000000E+00 0. -1.
        -11    1    4    4    0    0 -0.68448107583E-01  0.10919035984E-01 -0.21585250131E-01  0.72598573834E-01  0.51100000000E-03 0.  1.
         11    1    4    4    0    0 -0.63273652397E-01  0.75165353500E-02 -0.47597679756E-03  0.63722374926E-01  0.51100000000E-03 0. -1.
</event>
<event>
 8    1  0.1103774E+005  0.1043930E+01  0.7957747E-01            NaN
         13   -1    0    0    0    0  0.00000000000E+00  0.00000000000E+00  0.74505805969E-08  0.10566000000E+00  0.10566000000E+00 0. -1.
     999900   -1    0    0    0    0 -0.00000000000E+00 -0.00000000000E+00 -0.74505805969E-08  0.93827000000E+00  0.93827000000E+00 0. -1.
     999902    2    1    2    0    0  0.16256433147E-01  0.18630763468E-02 -0.16725039917E-01  0.10205319310E+01  0.10202636682E+01 0.  0.
     999903    2    3    3    0    0 -0.57915642680E-01 -0.53183044593E-01 -0.10345137742E+00  0.13145767659E+00  0.19906665823E-01 0.  0.
         14    1    1    2    0    0 -0.16256433147E-01 -0.18630763468E-02  0.16725039917E-01  0.23398068988E-01  0.00000000000E+00 0. -1.
     999901    1    3    3    0    0  0.74172075828E-01  0.55046120940E-01  0.86726337505E-01  0.88907425442E+00  0.88000000000E+00 0.  1.
        -11    1    4    4    0    0 -0.20081636539E-01 -0.24067313412E-01 -0.55802443432E-01  0.64005324114E-01  0.51100000000E-03 0.  1.
         11    1    4    4    0    0 -0.37834006141E-01 -0.29115731181E-01 -0.47648933990E-01  0.67452352474E-01  0.51100000000E-03 0. -1.
</event>
<event>
 8    1  0.1103774E+005  0.1043930E+01  0.7957747E-01            NaN
         13   -1    0    0    0    0  0.00000000000E+00  0.00000000000E+00  0.74505805969E-08  0.10566000000E+00  0.10566000000E+00 0. -1.
     999900   -1    0    0    0    0 -0.00000000000E+00 -0.00000000000E+00 -0.74505805969E-08  0.93827000000E+00  0.93827000000E+00 0.  1.
     999902    2    1    2    0    0 -0.25570815254E-01 -0.46651898488E-02 -0.83847358468E-02  0.10166182006E+01  0.10162512640E+01 0.  0.
     999903    2    3    3    0    0 -0.43833718438E-02 -0.98523193922E-01 -0.79850659825E-01  0.12849342845E+00  0.20208898808E-01 0.  0.
         14    1    1    2    0    0  0.25570815254E-01  0.46651898488E-02  0.83847358468E-02  0.27311799360E-01  0.00000000000E+00 0. -1.
     999901    1    3    3    0    0 -0.21187443410E-01  0.93858004074E-01  0.71465923978E-01  0.88812477219E+00  0.88000000000E+00 0. -1.
        -11    1    4    4    0    0  0.26148293472E-02 -0.38524118495E-01 -0.42719422485E-01  0.57586067905E-01  0.51100000000E-03 0.  1.
         11    1    4    4    0    0 -0.69982011910E-02 -0.59999075427E-01 -0.37131237340E-01  0.70907360545E-01  0.51100000000E-03 0. -1.
</event>
<event>
 7    1  0.1103774E+005  0.1043930E+01  0.7957747E-01            NaN
         13   -1    0    0    0    0  0.00000000000E+00  0.00000000000E+00  0.74505805969E-08  0.10566000000E+00  0.10566000000E+00 0.  1.
     999900   -1    0    0    0    0 -0.00000000000E+00 -0.00000000000E+00 -0.74505805969E-08  0.93827000000E+00  0.93827000000E+00 0.  1.
     999903    2    1    2    0    0  0.96316222992E-01  0.51315545741E-01  0.26299216728E-01  0.11400617847E+00  0.19891201153E-01 0.  0.
         14    1    1    2    0    0  0.25313964687E-01 -0.10233784320E-01  0.27797890036E-01  0.38964725588E-01  0.00000000000E+00 0.  1.
     999901    1    1    2    0    0 -0.12163018768E+00 -0.41081761421E-01 -0.54097106764E-01  0.89095909594E+00  0.88000000000E+00 0.  1.
        -11    1    3    3    0    0  0.78683464147E-01  0.48539084756E-01  0.26403636089E-01  0.96148548605E-01  0.51100000000E-03 0.  1.
         11    1    3    3    0    0  0.17632758846E-01  0.27764609852E-02 -0.10441936114E-03  0.17857629868E-01  0.51100000000E-03 0. -1.
</event>
<event>
 8    1  0.1103774E+005  0.1043930E+01  0.7957747E-01            NaN
         13   -1    0    0    0    0  0.00000000000E+00  0.00000000000E+00  0.74505805969E-08  0.10566000000E+00  0.10566000000E+00 0. -1.
     999900   -1    0    0    0    0 -0.00000000000E+00 -0.00000000000E+00 -0.74505805969E-08  0.93827000000E+00  0.93827000000E+00 0.  1.
     999902    2    1    2    0    0  0.92390258556E-02  0.19708532223E-01 -0.66698001333E-02  0.10211644103E+01  0.10209106135E+01 0.  0.
     999903    2    3    3    0    0  0.96169193094E-01 -0.30044009978E-01  0.80190006741E-01  0.13123362900E+00  0.25311498646E-01 0.  0.
         14    1    1    2    0    0 -0.92390258556E-02 -0.19708532223E-01  0.66698001333E-02  0.22765589713E-01  0.00000000000E+00 0.  1.
     999901    1    3    3    0    0 -0.86930167238E-01  0.49752542201E-01 -0.86859806874E-01  0.88993078129E+00  0.88000000000E+00 0.  1.
        -11    1    4    4    0    0  0.69891963713E-01 -0.10863692530E-01  0.48125976943E-01  0.85552774267E-01  0.51100000000E-03 0. -1.
         11    1    4    4    0    0  0.26277229381E-01 -0.19180317448E-01  0.32064029797E-01  0.45680854734E-01  0.51100000000E-03 0.  1.
</event>
<event>
 8    1  0.1103774E+005  0.1043930E+01  0.7957747E-01            NaN
         13   -1    0    0    0    0  0.00000000000E+00  0.00000000000E+00  0.74505805969E-08  0.10566000000E+00  0.10566000000E+00 0.  1.
     999900   -1    0    0    0    0 -0.00000000000E+00 -0.00000000000E+00 -0.74505805969E-08  0.93827000000E+00  0.93827000000E+00 0.  1.
     999902    2    1    2    0    0  0.18797457798E-01 -0.11200609876E-01 -0.83010773703E-02  0.10205268813E+01  0.10202585013E+01 0.  0.
     999903    2    3    3    0    0 -0.12109206717E+00  0.85212223415E-02 -0.38060849483E-01  0.12876252119E+00  0.19881112586E-01 0.  0.
         14    1    1    2    0    0 -0.18797457798E-01  0.11200609876E-01  0.83010773703E-02  0.23403118740E-01  0.00000000000E+00 0.  1.
     999901    1    3    3    0    0  0.13988952497E+00 -0.19721832217E-01  0.29759772113E-01  0.89176436007E+00  0.88000000000E+00 0. -1.
        -11    1    4    4    0    0 -0.16490521588E-01 -0.54534035931E-02 -0.35906506845E-02  0.17743472218E-01  0.51100000000E-03 0. -1.
         11    1    4    4    0    0 -0.10460154558E+00  0.13974625935E-01 -0.34470198799E-01  0.11101904897E+00  0.51100000000E-03 0.  1.
</event>
<event>
 8    1  0.1103774E+005  0.1043930E+01  0.7957747E-01            NaN
         13   -1    0    0    0    0  0.00000000000E+00  0.00000000000E+00  0.74505805969E-08  0.10566000000E+00  0.10566000000E+00 0.  1.
     999900   -1    0    0    0    0 -0.00000000000E+00 -0.00000000000E+00 -0.74505805969E-08  0.93827000000E+00  0.93827000000E+00 0.  1.
     999902    2    1    2    0    0 -0.21836805488E-03 -0.18254244730E-02 -0.92775458842E-02  0.10344720554E+01  0.10344288185E+01 0.  0.
     999903    2    3    3    0    0 -0.84274868275E-01 -0.10818539465E+00  0.35179908740E-01  0.14298206453E+00  0.19997793894E-01 0.  0.
         14    1    1    2    0    0  0.21836805488E-03  0.18254244730E-02  0.92775458842E-02  0.94579446365E-02  0.00000000000E+00 0.  1.
     999901    1    3    3    0    0  0.84056500221E-01  0.10635997017E+00 -0.44457454625E-01  0.89148999083E+00  0.88000000000E+00 0. -1.
        -11    1    4    4    0    0 -0.62595985433E-01 -0.68670766540E-01  0.29834560729E-01  0.97592487951E-01  0.51100000000E-03 0. -1.
         11    1    4    4    0    0 -0.21678882843E-01 -0.39514628106E-01  0.53453480111E-02  0.45389576579E-01  0.51100000000E-03 0.  1.
</event>
<event>
 8    1  0.1103774E+005  0.1043930E+01  0.7957747E-01            NaN
         13   -1    0    0    0    0  0.00000000000E+00  0.00000000000E+00  0.74505805969E-08  0.10566000000E+00  0.10566000000E+00 0.  1.
     999900   -1    0    0    0    0 -0.00000000000E+00 -0.00000000000E+00 -0.74505805969E-08  0.93827000000E+00  0.93827000000E+00 0.  1.
     999902    2    1    2    0    0 -0.19209546708E-01  0.14503766510E-01 -0.29429402664E-02  0.10196807356E+01  0.10193923561E+01 0.  0.
     999903    2    3    3    0    0  0.10398437542E+00 -0.27253794416E-01  0.65625215239E-01  0.12748006964E+00  0.19722566758E-01 0.  0.
         14    1    1    2    0    0  0.19209546708E-01 -0.14503766510E-01  0.29429402664E-02  0.24249264424E-01  0.00000000000E+00 0.  1.
     999901    1    3    3    0    0 -0.12319392213E+00  0.41757560926E-01 -0.68568155505E-01  0.89220066593E+00  0.88000000000E+00 0.  1.
        -11    1    4    4    0    0  0.82529728749E-01 -0.29296819125E-01  0.49890582873E-01  0.10079082854E+00  0.51100000000E-03 0. -1.
         11    1    4    4    0    0  0.21454646669E-01  0.20430247091E-02  0.15734632366E-01  0.26689241097E-01  0.51100000000E-03 0.  1.
</event>
<event>
 8    1  0.1103774E+005  0.1043930E+01  0.7957747E-01            NaN
         13   -1    0    0    0    0  0.00000000000E+00  0.00000000000E+00  0.74505805969E-08  0.10566000000E+00  0.10566000000E+00 0. -1.
     999900   -1    0    0    0    0 -0.00000000000E+00 -0.00000000000E+00 -0.74505805969E-08  0.93827000000E+00  0.93827000000E+00 0. -1.
     999902    2    1    2    0    0 -0.24383660082E-01  0.21786944234E-01  0.90128982181E-02  0.10100114777E+01  0.10094417858E+01 0.  0.
     999903    2    3    3    0    0  0.86370116233E-02 -0.44965867309E-01  0.11009136570E+00  0.12110025653E+00  0.21181032463E-01 0.  0.
         14    1    1    2    0    0  0.24383660082E-01 -0.21786944234E-01 -0.90128982181E-02  0.33918522260E-01  0.00000000000E+00 0. -1.
     999901    1    3    3    0    0 -0.33020671705E-01  0.66752811543E-01 -0.10107846748E+00  0.88891122121E+00  0.88000000000E+00 0. -1.
        -11    1    4    4    0    0 -0.47081384919E-03 -0.38187761100E-01  0.74208619305E-01  0.83460811545E-01  0.51100000000E-03 0. -1.
         11    1    4    4    0    0  0.91078254725E-02 -0.67781062089E-02  0.35882746397E-01  0.37639444982E-01  0.51100000000E-03 0.  1.
</event>
<event>
 8    1  0.1103774E+005  0.1043930E+01  0.7957747E-01            NaN
         13   -1    0    0    0    0  0.00000000000E+00  0.00000000000E+00  0.74505805969E-08  0.10566000000E+00  0.10566000000E+00 0. -1.
     999900   -1    0    0    0    0 -0.00000000000E+00 -0.00000000000E+00 -0.74505805969E-08  0.93827000000E+00  0.93827000000E+00 0.  1.
     999902    2    1    2    0    0 -0.71727824204E-02  0.48713307103E-02 -0.21567856436E-01  0.10206845466E+01  0.10204198120E+01 0.  0.
     999903    2    3    3    0    0  0.53577721852E-01 -0.17036834202E-01  0.11340544996E+00  0.12805450855E+00  0.19399357734E-01 0.  0.
         14    1    1    2    0    0  0.71727824204E-02 -0.48713307103E-02  0.21567856436E-01  0.23245453358E-01  0.00000000000E+00 0. -1.
     999901    1    3    3    0    0 -0.60750504272E-01  0.21908164913E-01 -0.13497330640E+00  0.89263003809E+00  0.88000000000E+00 0.  1.
        -11    1    4    4    0    0  0.16511163416E-01 -0.84962744738E-02  0.57561932598E-01  0.60485059334E-01  0.51100000000E-03 0. -1.
         11    1    4    4    0    0  0.37066558436E-01 -0.85405597286E-02  0.55843517367E-01  0.67569449219E-01  0.51100000000E-03 0.  1.
</event>
<event>
 8    1  0.1103774E+005  0.1043930E+01  0.7957747E-01            NaN
         13   -1    0    0    0    0  0.00000000000E+00  0.00000000000E+00  0.74505805969E-08  0.10566000000E+00  0.10566000000E+00 0. -1.
     999900   -1    0    0    0    0 -0.00000000000E+00 -0.00000000000E+00 -0.74505805969E-08  0.93827000000E+00  0.93827000000E+00 0. -1.
     999902    2    1    2    0    0  0.16036063143E-01 -0.16499863317E-01  0.64186042547E-02  0.10200427798E+01  0.10197630476E+01 0.  0.
     999903    2    3    3    0    0  0.72876386041E-01  0.98752437309E-01 -0.36665561665E-01  0.12966636471E+00  0.20149223515E-01 0.  0.
         14    1    1    2    0    0 -0.16036063143E-01  0.16499863317E-01 -0.64186042547E-02  0.23887220249E-01  0.00000000000E+00 0. -1.
     999901    1    3    3    0    0 -0.56840322898E-01 -0.11525230063E+00  0.43084165920E-01  0.89037641504E+00  0.88000000000E+00 0.  1.
        -11    1    4    4    0    0  0.21280032321E-01  0.15492758353E-01 -0.57118399795E-02  0.26939776798E-01  0.51100000000E-03 0. -1.
         11    1    4    4    0    0  0.51596353720E-01  0.83259678956E-01 -0.30953721685E-01  0.10272658791E+00  0.51100000000E-03 0.  1.
</event>
<event>
 8    1  0.1103774E+005  0.1043930E+01  0.7957747E-01            NaN
         13   -1    0    0    0    0  0.00000000000E+00  0.00000000000E+00  0.74505805969E-08  0.10566000000E+00  0.10566000000E+00 0. -1.
     999900   -1    0    0    0    0 -0.00000000000E+00 -0.00000000000E+00 -0.74505805969E-08  0.93827000000E+00  0.93827000000E+00 0. -1.
     999902    2    1    2    0    0  0.20434593499E-01 -0.15192891572E-01 -0.36805113028E-02  0.10182017523E+01  0.10178766456E+01 0.  0.
     999903    2    3    3    0    0  0.11081092204E+00  0.57882146167E-01 -0.30007173568E-01  0.13016969487E+00  0.20354746542E-01 0.  0.
         14    1    1    2    0    0 -0.20434593499E-01  0.15192891572E-01  0.36805113028E-02  0.25728247691E-01  0.00000000000E+00 0. -1.
     999901    1    3    3    0    0 -0.90376328545E-01 -0.73075037739E-01  0.26326662265E-01  0.88803205744E+00  0.88000000000E+00 0.  1.
        -11    1    4    4    0    0  0.63201492678E-01  0.41641737724E-01 -0.24542713368E-01  0.79568014289E-01  0.51100000000E-03 0. -1.
         11    1    4    4    0    0  0.47609429366E-01  0.16240408444E-01 -0.54644601995E-02  0.50601680577E-01  0.51100000000E-03 0.  1.
</event>
<event>
 8    1  0.1103774E+005  0.1043930E+01  0.7957747E-01            NaN
         13   -1    0    0    0    0  0.00000000000E+00  0.00000000000E+00  0.74505805969E-08  0.10566000000E+00  0.10566000000E+00 0. -1.
     999900   -1    0    0    0    0 -0.00000000000E+00 -0.00000000000E+00 -0.74505805969E-08  0.93827000000E+00  0.93827000000E+00 0. -1.
     999902    2    1    2    0    0 -0.48481440652E-02  0.16932431823E-01 -0.15190401887E-01  0.10206714519E+01  0.10204064155E+01 0.  0.
     999903    2    3    3    0    0 -0.59832104357E-01  0.88692050458E-01  0.74060805988E-01  0.13154915616E+00  0.19339518491E-01 0.  0.
         14    1    1    2    0    0  0.48481440652E-02 -0.16932431823E-01  0.15190401887E-01  0.23258548059E-01  0.00000000000E+00 0. -1.
     999901    1    3    3    0    0  0.54983960292E-01 -0.71759618636E-01 -0.89251207875E-01  0.88912229579E+00  0.88000000000E+00 0. -1.
        -11    1    4    4    0    0 -0.18935772374E-01  0.36210934913E-01  0.18470099058E-01  0.44846415273E-01  0.51100000000E-03 0.  1.
         11    1    4    4    0    0 -0.40896331983E-01  0.52481115546E-01  0.55590706930E-01  0.86702740883E-01  0.51100000000E-03 0. -1.
</event>
<event>
 8    1  0.1103774E+005  0.1043930E+01  0.7957747E-01            NaN
         13   -1    0    0    0    0  0.00000000000E+00  0.00000000000E+00  0.74505805969E-08  0.10566000000E+00  0.10566000000E+00 0. -1.
     999900   -1    0    0    0    0 -0.00000000000E+00 -0.00000000000E+00 -0.74505805969E-08  0.93827000000E+00  0.93827000000E+00 0. -1.
     999902    2    1    2    0    0  0.75396620103E-02  0.80470349545E-02  0.21301550775E-01  0.10199433925E+01  0.10196612999E+01 0.  0.
     999903    2    3    3    0    0 -0.92591145266E-01  0.25727581140E-01 -0.82335067926E-01  0.12804691362E+00  0.19542775215E-01 0.  0.
         14    1    1    2    0    0 -0.75396620103E-02 -0.80470349545E-02 -0.21301550775E-01  0.23986607518E-01  0.00000000000E+00 0. -1.
     999901    1    3    3    0    0  0.10013080728E+00 -0.17680546186E-01  0.10363661870E+00  0.89189647887E+00  0.88000000000E+00 0.  1.
        -11    1    4    4    0    0 -0.66641496673E-01  0.91609587636E-02 -0.55899576346E-01  0.87464484226E-01  0.51100000000E-03 0. -1.
         11    1    4    4    0    0 -0.25949648593E-01  0.16566622377E-01 -0.26435491580E-01  0.40582429389E-01  0.51100000000E-03 0.  1.
</event>
<event>
 8    1  0.1103774E+005  0.1043930E+01  0.7957747E-01            NaN
         13   -1    0    0    0    0  0.00000000000E+00  0.00000000000E+00  0.74505805969E-08  0.10566000000E+00  0.10566000000E+00 0.  1.
     999900   -1    0    0    0    0 -0.00000000000E+00 -0.00000000000E+00 -0.74505805969E-08  0.93827000000E+00  0.93827000000E+00 0.  1.
     999902    2    1    2    0    0  0.66811212248E-02  0.18885432195E-01  0.12991845866E-01  0.10200535474E+01  0.10197740704E+01 0.  0.
     999903    2    3    3    0    0 -0.94031880749E-01  0.88220184542E-01 -0.12488170461E-01  0.13123430375E+00  0.21016482108E-01 0.  0.
         14    1    1    2    0    0 -0.66811212248E-02 -0.18885432195E-01 -0.12991845866E-01  0.23876452605E-01  0.00000000000E+00 0. -1.
     999901    1    3    3    0    0  0.10071300197E+00 -0.69334752347E-01  0.25480016327E-01  0.88881924365E+00  0.88000000000E+00 0.  1.
        -11    1    4    4    0    0 -0.58461232975E-01  0.41876009196E-01 -0.24556820727E-02  0.71955593268E-01  0.51100000000E-03 0.  1.
         11    1    4    4    0    0 -0.35570647774E-01  0.46344175345E-01 -0.10032488388E-01  0.59278710477E-01  0.51100000000E-03 0. -1.
</event>
<event>
 8    1  0.1103774E+005  0.1043930E+01  0.7957747E-01            NaN
         13   -1    0    0    0    0  0.00000000000E+00  0.00000000000E+00  0.74505805969E-08  0.10566000000E+00  0.10566000000E+00 0. -1.
     999900   -1    0    0    0    0 -0.00000000000E+00 -0.00000000000E+00 -0.74505805969E-08  0.93827000000E+00  0.93827000000E+00 0. -1.
     999902    2    1    2    0    0 -0.47306584143E-02  0.12884125788E-01  0.16745388634E-01  0.10222784904E+01  0.10220491789E+01 0.  0.
     999903    2    3    3    0    0 -0.38451773609E-01 -0.51641300004E-01 -0.11123756609E+00  0.13004517964E+00  0.19813880933E-01 0.  0.
         14    1    1    2    0    0  0.47306584143E-02 -0.12884125788E-01 -0.16745388634E-01  0.21651509574E-01  0.00000000000E+00 0.  1.
     999901    1    3    3    0    0  0.33721115194E-01  0.64525425792E-01  0.12798295472E+00  0.89223331079E+00  0.88000000000E+00 0. -1.
        -11    1    4    4    0    0 -0.22169793965E-01 -0.43348517505E-01 -0.86844014161E-01  0.99562732239E-01  0.51100000000E-03 0.  1.
         11    1    4    4    0    0 -0.16281979643E-01 -0.82927824995E-02 -0.24393551927E-01  0.30482447397E-01  0.51100000000E-03 0. -1.
</event>
<event>
 8    1  0.1103774E+005  0.1043930E+01  0.7957747E-01            NaN
         13   -1    0    0    0    0  0.00000000000E+00  0.00000000000E+00  0.74505805969E-08  0.10566000000E+00  0.10566000000E+00 0.  1.
     999900   -1    0    0    0    0 -0.00000000000E+00 -0.00000000000E+00 -0.74505805969E-08  0.93827000000E+00  0.93827000000E+00 0.  1.
     999902    2    1    2    0    0  0.45991978626E-02 -0.21352960577E-01 -0.85849745370E-02  0.10204608003E+01  0.10201908849E+01 0.  0.
     999903    2    3    3    0    0  0.44150974757E-01 -0.95990418788E-01 -0.79087317104E-01  0.13360924930E+00  0.20812465005E-01 0.  0.
         14    1    1    2    0    0 -0.45991978626E-02  0.21352960577E-01  0.85849745370E-02  0.23469199692E-01  0.00000000000E+00 0. -1.
     999901    1    3    3    0    0 -0.39551776895E-01  0.74637458211E-01  0.70502342567E-01  0.88685155101E+00  0.88000000000E+00 0.  1.
        -11    1    4    4    0    0  0.30638500926E-01 -0.49192468967E-01 -0.33769251976E-01  0.67076376185E-01  0.51100000000E-03 0. -1.
         11    1    4    4    0    0  0.13512473831E-01 -0.46797949821E-01 -0.45318065128E-01  0.66532873111E-01  0.51100000000E-03 0.  1.
</event>
<event>
 8    1  0.1103774E+005  0.1043930E+01  0.7957747E-01            NaN
         13   -1    0    0    0    0  0.00000000000E+00  0.00000000000E+00  0.74505805969E-08  0.10566000000E+00  0.10566000000E+00 0.  1.
     999900   -1    0    0    0    0 -0.00000000000E+00 -0.00000000000E+00 -0.74505805969E-08  0.93827000000E+00  0.93827000000E+00 0. -1.
     999902    2    1    2    0    0 -0.22305410760E-01  0.24016242845E-02  0.66726094699E-02  0.10205243839E+01  0.10202559460E+01 0.  0.
     999903    2    3    3    0    0 -0.23082534439E-01 -0.10583377318E+00 -0.70290740829E-01  0.13055873148E+00  0.19266633764E-01 0.  0.
         14    1    1    2    0    0  0.22305410760E-01 -0.24016242845E-02 -0.66726094699E-02  0.23405616110E-01  0.00000000000E+00 0. -1.
     999901    1    3    3    0    0  0.77712367915E-03  0.10823539747E+00  0.76963350299E-01  0.88996565241E+00  0.88000000000E+00 0.  1.
        -11    1    4    4    0    0 -0.13390545024E-01 -0.39459785441E-01 -0.36741688718E-01  0.55557125321E-01  0.51100000000E-03 0. -1.
         11    1    4    4    0    0 -0.96919894153E-02 -0.66373987741E-01 -0.33549052111E-01  0.75001606156E-01  0.51100000000E-03 0.  1.
</event>
<event>
 8    1  0.1103774E+005  0.1043930E+01  0.7957747E-01            NaN
         13   -1    0    0    0    0  0.00000000000E+00  0.00000000000E+00  0.74505805969E-08  0.10566000000E+00  0.10566000000E+00 0.  1.
     999900   -1    0    0    0    0 -0.00000000000E+00 -0.00000000000E+00 -0.74505805969E-08  0.93827000000E+00  0.93827000000E+00 0. -1.
     999902    2    1    2    0    0  0.40146052582E-02 -0.23125227639E-01  0.95468331397E-02  0.10185915858E+01  0.10182763788E+01 0.  0.
     999903    2    3    3    0    0 -0.10158176375E+00 -0.23154162610E-01  0.74824867481E-01  0.12987801233E+00  0.20360926313E-01 0.  0.
         14    1    1    2    0    0 -0.40146052582E-02  0.23125227639E-01 -0.95468331397E-02  0.25338414152E-01  0.00000000000E+00 0. -1.
     999901    1    3    3    0    0  0.10559636901E+00  0.28934971546E-04 -0.65278034342E-01  0.88871357352E+00  0.88000000000E+00 0. -1.
        -11    1    4    4    0    0 -0.77738973126E-01 -0.97425617272E-02  0.50075181272E-01  0.92984140326E-01  0.51100000000E-03 0.  1.
         11    1    4    4    0    0 -0.23842790626E-01 -0.13411600883E-01  0.24749686209E-01  0.36893872005E-01  0.51100000000E-03 0. -1.
</event>
<event>
 8    1  0.1103774E+005  0.1043930E+01  0.7957747E-01            NaN
         13   -1    0    0    0    0  0.00000000000E+00  0.00000000000E+00  0.74505805969E-08  0.10566000000E+00  0.10566000000E+00 0. -1.
     999900   -1    0    0    0    0 -0.00000000000E+00 -0.00000000000E+00 -0.74505805969E-08  0.93827000000E+00  0.93827000000E+00 0.  1.
     999902    2    1    2    0    0 -0.18041696059E-01 -0.12883649492E-01  0.82456120619E-02  0.10202766421E+01  0.10200024241E+01 0.  0.
     999903    2    3    3    0    0 -0.12143938523E+00 -0.51081635058E-01  0.80850298483E-02  0.13339999116E+00  0.19321806577E-01 0.  0.
         14    1    1    2    0    0  0.18041696059E-01  0.12883649492E-01 -0.82456120619E-02  0.23653357884E-01  0.00000000000E+00 0. -1.
     999901    1    3    3    0    0  0.10339768917E+00  0.38197985565E-01  0.16058221359E-03  0.88687665096E+00  0.88000000000E+00 0.  1.
        -11    1    4    4    0    0 -0.38198240443E-01 -0.12889603053E-01  0.10919798718E-01  0.41770211453E-01  0.51100000000E-03 0. -1.
         11    1    4    4    0    0 -0.83241144783E-01 -0.38192032004E-01 -0.28347688697E-02  0.91629779705E-01  0.51100000000E-03 0.  1.
</event>
<event>
 8    1  0.1103774E+005  0.1043930E+01  0.7957747E-01            NaN
         13   -1    0    0    0    0  0.00000000000E+00  0.00000000000E+00  0.74505805969E-08  0.10566000000E+00  0.10566000000E+00 0.  1.
     999900   -1    0    0    0    0 -0.00000000000E+00 -0.00000000000E+00 -0.74505805969E-08  0.93827000000E+00  0.93827000000E+00 0. -1.
     999902    2    1    2    0    0 -0.18055936084E-01  0.16051011488E-01  0.22382772750E-02  0.10196676489E+01  0.10193789543E+01 0.  0.
     999903    2    3    3    0    0 -0.10415133423E+00  0.21916176609E-01  0.76244173944E-01  0.13235502611E+00  0.19412873493E-01 0.  0.
         14    1    1    2    0    0  0.18055936084E-01 -0.16051011488E-01 -0.22382772750E-02  0.24262351139E-01  0.00000000000E+00 0.  1.
     999901    1    3    3    0    0  0.86095398150E-01 -0.58651651204E-02 -0.74005896669E-01  0.88731262275E+00  0.88000000000E+00 0. -1.
        -11    1    4    4    0    0 -0.68166235585E-01  0.15128558444E-01  0.60878883229E-01  0.92639130494E-01  0.51100000000E-03 0. -1.
         11    1    4    4    0    0 -0.35985098649E-01  0.67876181645E-02  0.15365290715E-01  0.39715895620E-01  0.51100000000E-03 0.  1.
</event>
<event>
 8    1  0.1103774E+005  0.1043930E+01  0.7957747E-01            NaN
         13   -1    0    0    0    0  0.00000000000E+00  0.00000000000E+00  0.74505805969E-08  0.10566000000E+00  0.10566000000E+00 0.  1.
     999900   -1    0    0    0    0 -0.00000000000E+00 -0.00000000000E+00 -0.74505805969E-08  0.93827000000E+00  0.93827000000E+00 0. -1.
     999902    2    1    2    0    0  0.48087163322E-02  0.25129163382E-01 -0.64071055454E-03  0.10183368541E+01  0.10180151960E+01 0.  0.
     999903    2    3    3    0    0 -0.34269111438E-01 -0.12235495148E-01 -0.12158481552E+00  0.12842075087E+00  0.19619952796E-01 0.  0.
         14    1    1    2    0    0 -0.48087163322E-02 -0.25129163382E-01  0.64071055454E-03  0.25593145861E-01  0.00000000000E+00 0. -1.
     999901    1    3    3    0    0  0.39077827770E-01  0.37364658530E-01  0.12094410497E+00  0.88991610327E+00  0.88000000000E+00 0.  1.
        -11    1    4    4    0    0 -0.37561833654E-02 -0.29055650201E-02 -0.47706046836E-01  0.47944543457E-01  0.51100000000E-03 0. -1.
         11    1    4    4    0    0 -0.30512928072E-01 -0.93299301280E-02 -0.73878768688E-01  0.80476207413E-01  0.51100000000E-03 0.  1.
</event>
<event>
 8    1  0.1103774E+005  0.1043930E+01  0.7957747E-01            NaN
         13   -1    0    0    0    0  0.00000000000E+00  0.00000000000E+00  0.74505805969E-08  0.10566000000E+00  0.10566000000E+00 0.  1.
     999900   -1    0    0    0    0 -0.00000000000E+00 -0.00000000000E+00 -0.74505805969E-08  0.93827000000E+00  0.93827000000E+00 0. -1.
     999902    2    1    2    0    0  0.31745900368E-03  0.23349835701E-01 -0.48326804424E-02  0.10200831887E+01  0.10198044134E+01 0.  0.
     999903    2    3    3    0    0  0.11116412424E+00 -0.61621397967E-01 -0.84779463160E-02  0.12906108928E+00  0.20741986058E-01 0.  0.
         14    1    1    2    0    0 -0.31745900368E-03 -0.23349835701E-01  0.48326804424E-02  0.23846811270E-01  0.00000000000E+00 0.  1.
     999901    1    3    3    0    0 -0.11084666524E+00  0.84971233668E-01  0.36452658736E-02  0.89102209945E+00  0.88000000000E+00 0. -1.
        -11    1    4    4    0    0  0.10780804785E+00 -0.54510507921E-01 -0.91513002421E-02  0.12115270559E+00  0.51100000000E-03 0. -1.
         11    1    4    4    0    0  0.33560763913E-02 -0.71108900459E-02  0.67335392612E-03  0.79083836844E-02  0.51100000000E-03 0.  1.
</event>
<event>
 8    1  0.1103774E+005  0.1043930E+01  0.7957747E-01            NaN
         13   -1    0    0    0    0  0.00000000000E+00  0.00000000000E+00  0.74505805969E-08  0.10566000000E+00  0.10566000000E+00 0.  1.
     999900   -1    0    0    0    0 -0.00000000000E+00 -0.00000000000E+00 -0.74505805969E-08  0.93827000000E+00  0.93827000000E+00 0.  1.
     999902    2    1    2    0    0 -0.12731899978E-02  0.20374158571E-01 -0.10696372161E-01  0.10208835311E+01  0.10206233607E+01 0.  0.
     999903    2    3    3    0    0  0.63914073539E-01  0.99187144690E-01 -0.59657754134E-01  0.13360787890E+00  0.19207269645E-01 0.  0.
         14    1    1    2    0    0  0.12731899978E-02 -0.20374158571E-01  0.10696372161E-01  0.23046468876E-01  0.00000000000E+00 0. -1.
     999901    1    3    3    0    0 -0.65187263536E-01 -0.78812986120E-01  0.48961381974E-01  0.88727565223E+00  0.88000000000E+00 0. -1.
        -11    1    4    4    0    0  0.62573869136E-01  0.86635684103E-01 -0.54457536413E-01  0.11994630153E+00  0.51100000000E-03 0.  1.
         11    1    4    4    0    0  0.13402044029E-02  0.12551460588E-01 -0.52002177211E-02  0.13661577364E-01  0.51100000000E-03 0. -1.
</event>
<event>
 8    1  0.1103774E+005  0.1043930E+01  0.7957747E-01            NaN
         13   -1    0    0    0    0  0.00000000000E+00  0.00000000000E+00  0.74505805969E-08  0.10566000000E+00  0.10566000000E+00 0.  1.
     999900   -1    0    0    0    0 -0.00000000000E+00 -0.00000000000E+00 -0.74505805969E-08  0.93827000000E+00  0.93827000000E+00 0.  1.
     999902    2    1    2    0    0  0.12474677762E-01 -0.12156087539E-01 -0.15219274894E-01  0.10207996222E+01  0.10205375320E+01 0.  0.
     999903    2    3    3    0    0  0.51268309119E-01 -0.12147729328E+00 -0.15259889635E-02  0.13308143608E+00  0.17976865305E-01 0.  0.
         14    1    1    2    0    0 -0.12474677762E-01  0.12156087539E-01  0.15219274894E-01  0.23130377814E-01  0.00000000000E+00 0.  1.
     999901    1    3    3    0    0 -0.38793631358E-01  0.10932120574E+00 -0.13693285930E-01  0.88771818610E+00  0.88000000000E+00 0.  1.
        -11    1    4    4    0    0  0.24485367166E-01 -0.37591918644E-01 -0.34837813544E-02  0.45000926725E-01  0.51100000000E-03 0. -1.
         11    1    4    4    0    0  0.26782941953E-01 -0.83885374632E-01  0.19577923910E-02  0.88080509359E-01  0.51100000000E-03 0.  1.
</event>
<event>
 8    1  0.1103774E+005  0.1043930E+01  0.7957747E-01            NaN
         13   -1    0    0    0    0  0.00000000000E+00  0.00000000000E+00  0.74505805969E-08  0.10566000000E+00  0.10566000000E+00 0. -1.
     999900   -1    0    0    0    0 -0.00000000000E+00 -0.00000000000E+00 -0.74505805969E-08  0.93827000000E+00  0.93827000000E+00 0. -1.
     999902    2    1    2    0    0  0.32752861899E-02 -0.22600800943E-01 -0.59189457539E-02  0.10203385265E+01  0.10200657582E+01 0.  0.
     999903    2    3    3    0    0 -0.87807944602E-01 -0.97037816252E-01  0.27575498274E-02  0.13246899456E+00  0.20343488405E-01 0.  0.
         14    1    1    2    0    0 -0.32752861899E-02  0.22600800943E-01  0.59189457539E-02  0.23591473496E-01  0.00000000000E+00 0.  1.
     999901    1    3    3    0    0  0.91083230792E-01  0.74437015309E-01 -0.86764955813E-02  0.88786953194E+00  0.88000000000E+00 0. -1.
        -11    1    4    4    0    0 -0.39768880151E-01 -0.33645551417E-01 -0.60421398634E-02  0.52443832180E-01  0.51100000000E-03 0.  1.
         11    1    4    4    0    0 -0.48039064450E-01 -0.63392264835E-01  0.87996896908E-02  0.80025162379E-01  0.51100000000E-03 0. -1.
</event>
<event>
 8    1  0.1103774E+005  0.1043930E+01  0.7957747E-01            NaN
         13   -1    0    0    0    0  0.00000000000E+00  0.00000000000E+00  0.74505805969E-08  0.10566000000E+00  0.10566000000E+00 0.  1.
     999900   -1    0    0    0    0 -0.00000000000E+00 -0.00000000000E+00 -0.74505805969E-08  0.93827000000E+00  0.93827000000E+00 0. -1.
     999902    2    1    2    0    0  0.14826655027E-01  0.10041918764E-02  0.18180572368E-01  0.10204487029E+01  0.10201785059E+01 0.  0.
     999903    2    3    3    0    0 -0.57353410888E-01 -0.48823046310E-01  0.10606296124E+00  0.13173275851E+00  0.20762088681E-01 0.  0.
         14    1    1    2    0    0 -0.14826655027E-01 -0.10041918764E-02 -0.18180572368E-01  0.23481297074E-01  0.00000000000E+00 0. -1.
     999901    1    3    3    0    0  0.72180065915E-01  0.49827238186E-01 -0.87882388874E-01  0.88871594441E+00  0.88000000000E+00 0. -1.
        -11    1    4    4    0    0 -0.48814262745E-01 -0.38880588469E-01  0.98459569308E-01  0.11657221074E+00  0.51100000000E-03 0.  1.
         11    1    4    4    0    0 -0.85391481434E-02 -0.99424578407E-02  0.76033919347E-02  0.15160547775E-01  0.51100000000E-03 0. -1.
</event>
<event>
 8    1  0.1103774E+005  0.1043930E+01  0.7957747E-01            NaN
         13   -1    0    0    0    0  0.00000000000E+00  0.00000000000E+00  0.74505805969E-08  0.10566000000E+00  0.10566000000E+00 0. -1.
     999900   -1    0    0    0    0 -0.00000000000E+00 -0.00000000000E+00 -0.74505805969E-08  0.93827000000E+00  0.93827000000E+00 0. -1.
     999902    2    1    2    0    0 -0.19778784800E-01  0.48045090045E-02  0.14140747686E-01  0.10191460459E+01  0.10188446489E+01 0.  0.
     999903    2    3    3    0    0 -0.12161882847E+00  0.85804167214E-02  0.49233718172E-01  0.13256995299E+00  0.16913617001E-01 0.  0.
         14    1    1    2    0    0  0.19778784800E-01 -0.48045090045E-02 -0.14140747686E-01  0.24783954084E-01  0.00000000000E+00 0.  1.
     999901    1    3    3    0    0  0.10184004367E+00 -0.37759077168E-02 -0.35092970487E-01  0.88657609293E+00  0.88000000000E+00 0. -1.
        -11    1    4    4    0    0 -0.18072186880E-01 -0.47324136553E-02  0.74542931645E-02  0.20120320207E-01  0.51100000000E-03 0. -1.
         11    1    4    4    0    0 -0.10354664159E+00  0.13312830377E-01  0.41779425008E-01  0.11244963278E+00  0.51100000000E-03 0.  1.
</event>
<event>
 8    1  0.1103774E+005  0.1043930E+01  0.7957747E-01            NaN
         13   -1    0    0    0    0  0.00000000000E+00  0.00000000000E+00  0.74505805969E-08  0.10566000000E+00  0.10566000000E+00 0.  1.
     999900   -1    0    0    0    0 -0.00000000000E+00 -0.00000000000E+00 -0.74505805969E-08  0.93827000000E+00  0.93827000000E+00 0. -1.
     999902    2    1    2    0    0  0.14575669307E-01 -0.18974409420E-01  0.24753763862E-02  0.10198757730E+01  0.10195920687E+01 0.  0.
     999903    2    3    3    0    0 -0.48547887264E-01 -0.89263647391E-01  0.80691195999E-01  0.13136979394E+00  0.20544039185E-01 0.  0.
         14    1    1    2    0    0 -0.14575669307E-01  0.18974409420E-01 -0.24753763862E-02  0.24054227006E-01  0.00000000000E+00 0. -1.
     999901    1    3    3    0    0  0.63123556572E-01  0.70289237970E-01 -0.78215819613E-01  0.88850597905E+00  0.88000000000E+00 0.  1.
        -11    1    4    4    0    0 -0.47515141607E-01 -0.71971771321E-01  0.69231452917E-01  0.11059330786E+00  0.51100000000E-03 0.  1.
         11    1    4    4    0    0 -0.10327456574E-02 -0.17291876069E-01  0.11459743082E-01  0.20776486086E-01  0.51100000000E-03 0. -1.
</event>
<event>
 8    1  0.1103774E+005  0.1043930E+01  0.7957747E-01            NaN
         13   -1    0    0    0    0  0.00000000000E+00  0.00000000000E+00  0.74505805969E-08  0.10566000000E+00  0.10566000000E+00 0. -1.
     999900   -1    0    0    0    0 -0.00000000000E+00 -0.00000000000E+00 -0.74505805969E-08  0.93827000000E+00  0.93827000000E+00 0. -1.
     999902    2    1    2    0    0  0.18443308035E-01  0.11412938992E-01 -0.14981127208E-01  0.10175700880E+01  0.10172286071E+01 0.  0.
     999903    2    3    3    0    0  0.40069267379E-01  0.11522473424E+00 -0.42605782746E-01  0.13077377964E+00  0.20105798881E-01 0.  0.
         14    1    1    2    0    0 -0.18443308035E-01 -0.11412938992E-01  0.14981127208E-01  0.26359911990E-01  0.00000000000E+00 0.  1.
     999901    1    3    3    0    0 -0.21625959345E-01 -0.10381179525E+00  0.27624655538E-01  0.88679630837E+00  0.88000000000E+00 0. -1.
        -11    1    4    4    0    0  0.26913068390E-01  0.75153269129E-01 -0.17620744188E-01  0.81750100047E-01  0.51100000000E-03 0. -1.
         11    1    4    4    0    0  0.13156198989E-01  0.40071465109E-01 -0.24985038558E-01  0.49023679590E-01  0.51100000000E-03 0.  1.
</event>
<event>
 8    1  0.1103774E+005  0.1043930E+01  0.7957747E-01            NaN
         13   -1    0    0    0    0  0.00000000000E+00  0.00000000000E+00  0.74505805969E-08  0.10566000000E+00  0.10566000000E+00 0.  1.
     999900   -1    0    0    0    0 -0.00000000000E+00 -0.00000000000E+00 -0.74505805969E-08  0.93827000000E+00  0.93827000000E+00 0. -1.
     999902    2    1    2    0    0  0.46791974443E-02 -0.18190144486E-01 -0.91815730097E-02  0.10230236008E+01  0.10228099580E+01 0.  0.
     999903    2    3    3    0    0  0.49827554525E-01  0.18550504360E-01  0.11743033939E+00  0.13205849160E+00  0.28681948892E-01 0.  0.
         14    1    1    2    0    0 -0.46791974443E-02  0.18190144486E-01  0.91815730097E-02  0.20906399213E-01  0.00000000000E+00 0. -1.
     999901    1    3    3    0    0 -0.45148357081E-01 -0.36740648846E-01 -0.12661191240E+00  0.89096510919E+00  0.88000000000E+00 0. -1.
        -11    1    4    4    0    0  0.10548899419E-01  0.82375399918E-02  0.61478799454E-01  0.62920904693E-01  0.51100000000E-03 0.  1.
         11    1    4    4    0    0  0.39278655106E-01  0.10312964369E-01  0.55951539938E-01  0.69137586908E-01  0.51100000000E-03 0. -1.
</event>
<event>
 8    1  0.1103774E+005  0.1043930E+01  0.7957747E-01            NaN
         13   -1    0    0    0    0  0.00000000000E+00  0.00000000000E+00  0.74505805969E-08  0.10566000000E+00  0.10566000000E+00 0. -1.
     999900   -1    0    0    0    0 -0.00000000000E+00 -0.00000000000E+00 -0.74505805969E-08  0.93827000000E+00  0.93827000000E+00 0. -1.
     999902    2    1    2    0    0  0.25187029025E-01  0.95760524965E-02  0.20890664148E-01  0.10098344422E+01  0.10092586852E+01 0.  0.
     999903    2    3    3    0    0  0.36785652921E-01  0.97970808727E-01 -0.58898940202E-01  0.12173842152E+00  0.19992360874E-01 0.  0.
         14    1    1    2    0    0 -0.25187029025E-01 -0.95760524965E-02 -0.20890664148E-01  0.34095557791E-01  0.00000000000E+00 0.  1.
     999901    1    3    3    0    0 -0.11598623896E-01 -0.88394756230E-01  0.79789604350E-01  0.88809602069E+00  0.88000000000E+00 0.  1.
        -11    1    4    4    0    0  0.10093272020E-01  0.41333764722E-01 -0.33554340116E-01  0.54189566411E-01  0.51100000000E-03 0. -1.
         11    1    4    4    0    0  0.26692380901E-01  0.56637044005E-01 -0.25344600086E-01  0.67548855107E-01  0.51100000000E-03 0.  1.
</event>
<event>
 8    1  0.1103774E+005  0.1043930E+01  0.7957747E-01            NaN
         13   -1    0    0    0    0  0.00000000000E+00  0.00000000000E+00  0.74505805969E-08  0.10566000000E+00  0.10566000000E+00 0.  1.
     999900   -1    0    0    0    0 -0.00000000000E+00 -0.00000000000E+00 -0.74505805969E-08  0.93827000000E+00  0.93827000000E+00 0. -1.
     999902    2    1    2    0    0 -0.13600135774E-02  0.23083697549E-01  0.46131759726E-02  0.10203505996E+01  0.10200781137E+01 0.  0.
     999903    2    3    3    0    0 -0.49102216334E-02 -0.12386102318E+00 -0.23589923369E-01  0.12771362429E+00  0.19713498053E-01 0.  0.
         14    1    1    2    0    0  0.13600135774E-02 -0.23083697549E-01 -0.46131759726E-02  0.23579400375E-01  0.00000000000E+00 0. -1.
     999901    1    3    3    0    0  0.35502080560E-02  0.14694472073E+00  0.28203099342E-01  0.89263697534E+00  0.88000000000E+00 0.  1.
        -11    1    4    4    0    0  0.73686461412E-02 -0.59276453545E-01 -0.12795075025E-01  0.61089851504E-01  0.51100000000E-03 0.  1.
         11    1    4    4    0    0 -0.12278867775E-01 -0.64584569631E-01 -0.10794848345E-01  0.66623772785E-01  0.51100000000E-03 0. -1.
</event>
<event>
 8    1  0.1103774E+005  0.1043930E+01  0.7957747E-01            NaN
         13   -1    0    0    0    0  0.00000000000E+00  0.00000000000E+00  0.74505805969E-08  0.10566000000E+00  0.10566000000E+00 0.  1.
     999900   -1    0    0    0    0 -0.00000000000E+00 -0.00000000000E+00 -0.74505805969E-08  0.93827000000E+00  0.93827000000E+00 0. -1.
     999902    2    1    2    0    0 -0.12249742524E-01 -0.13392682559E-01 -0.15255388919E-01  0.10202203600E+01  0.10199448200E+01 0.  0.
     999903    2    3    3    0    0 -0.57321913068E-02  0.77907760611E-01 -0.10348990925E+00  0.13108393628E+00  0.19244735752E-01 0.  0.
         14    1    1    2    0    0  0.12249742524E-01  0.13392682559E-01  0.15255388919E-01  0.23709640004E-01  0.00000000000E+00 0. -1.
     999901    1    3    3    0    0 -0.65175512175E-02 -0.91300443170E-01  0.88234520330E-01  0.88913642371E+00  0.88000000000E+00 0.  1.
        -11    1    4    4    0    0 -0.11974459764E-01  0.33418950542E-01 -0.47250485065E-01  0.59102313000E-01  0.51100000000E-03 0.  1.
         11    1    4    4    0    0  0.62422684577E-02  0.44488810069E-01 -0.56239424184E-01  0.71981623282E-01  0.51100000000E-03 0. -1.
</event>
<event>
 7    1  0.1103774E+005  0.1043930E+01  0.7957747E-01            NaN
         13   -1    0    0    0    0  0.00000000000E+00  0.00000000000E+00  0.74505805969E-08  0.10566000000E+00  0.10566000000E+00 0.  1.
     999900   -1    0    0    0    0 -0.00000000000E+00 -0.00000000000E+00 -0.74505805969E-08  0.93827000000E+00  0.93827000000E+00 0. -1.
     999903    2    1    2    0    0  0.17098282138E-01 -0.10173375920E+00 -0.29550011055E-01  0.10919044684E+00  0.20180225878E-01 0.  0.
         14    1    1    2    0    0  0.36684424403E-01  0.25447856806E-01  0.21995928910E-01  0.49771088982E-01  0.00000000000E+00 0.  1.
     999901    1    1    2    0    0 -0.53782706541E-01  0.76285902389E-01  0.75540821453E-02  0.88496846417E+00  0.88000000000E+00 0.  1.
        -11    1    3    3    0    0  0.13778519341E-01 -0.91546331661E-01 -0.32411537608E-01  0.98088466839E-01  0.51100000000E-03 0.  1.
         11    1    3    3    0    0  0.33197627978E-02 -0.10187427535E-01  0.28615265531E-02  0.11101980005E-01  0.51100000000E-03 0. -1.
</event>
<event>
 8    1  0.1103774E+005  0.1043930E+01  0.7957747E-01            NaN
         13   -1    0    0    0    0  0.00000000000E+00  0.00000000000E+00  0.74505805969E-08  0.10566000000E+00  0.10566000000E+00 0.  1.
     999900   -1    0    0    0    0 -0.00000000000E+00 -0.00000000000E+00 -0.74505805969E-08  0.93827000000E+00  0.93827000000E+00 0. -1.
     999902    2    1    2    0    0 -0.13638589404E-02  0.59660054158E-02  0.26276566792E-01  0.10169501688E+01  0.10165922164E+01 0.  0.
     999903    2    3    3    0    0 -0.31005159249E-01  0.65301352060E-01 -0.10035011043E+00  0.12541575807E+00  0.20817810353E-01 0.  0.
         14    1    1    2    0    0  0.13638589404E-02 -0.59660054158E-02 -0.26276566792E-01  0.26979831249E-01  0.00000000000E+00 0. -1.
     999901    1    3    3    0    0  0.29641300309E-01 -0.59335346644E-01  0.12662667722E+00  0.89153441068E+00  0.88000000000E+00 0.  1.
        -11    1    4    4    0    0 -0.18197028049E-01  0.46307588337E-01 -0.82606724255E-01  0.96434727047E-01  0.51100000000E-03 0.  1.
         11    1    4    4    0    0 -0.12808131200E-01  0.18993763723E-01 -0.17743386175E-01  0.28981031023E-01  0.51100000000E-03 0. -1.
</event>
<event>
 8    1  0.1103774E+005  0.1043930E+01  0.7957747E-01            NaN
         13   -1    0    0    0    0  0.00000000000E+00  0.00000000000E+00  0.74505805969E-08  0.10566000000E+00  0.10566000000E+00 0. -1.
     999900   -1    0    0    0    0 -0.00000000000E+00 -0.00000000000E+00 -0.74505805969E-08  0.93827000000E+00  0.93827000000E+00 0.  1.
     999902    2    1    2    0    0 -0.12238563956E-01  0.13190186570E-02 -0.20111108455E-01  0.10203507943E+01  0.10200783129E+01 0.  0.
     999903    2    3    3    0    0  0.20582475213E-01  0.10432072760E+00 -0.75741151860E-01  0.13199204110E+00  0.19460841118E-01 0.  0.
         14    1    1    2    0    0  0.12238563956E-01 -0.13190186570E-02  0.20111108455E-01  0.23579205695E-01  0.00000000000E+00 0. -1.
     999901    1    3    3    0    0 -0.32821039169E-01 -0.10300170894E+00  0.55630043405E-01  0.88835875320E+00  0.88000000000E+00 0. -1.
        -11    1    4    4    0    0 -0.14217226862E-02  0.40964535800E-01 -0.27105330487E-01  0.49143408007E-01  0.51100000000E-03 0.  1.
         11    1    4    4    0    0  0.22004197899E-01  0.63356191800E-01 -0.48635821373E-01  0.82848633098E-01  0.51100000000E-03 0. -1.
</event>
<event>
 8    1  0.1103774E+005  0.1043930E+01  0.7957747E-01            NaN
         13   -1    0    0    0    0  0.00000000000E+00  0.00000000000E+00  0.74505805969E-08  0.10566000000E+00  0.10566000000E+00 0. -1.
     999900   -1    0    0    0    0 -0.00000000000E+00 -0.00000000000E+00 -0.74505805969E-08  0.93827000000E+00  0.93827000000E+00 0.  1.
     999902    2    1    2    0    0  0.13785731757E-01  0.12743115833E-01  0.13010746587E-01  0.10210889639E+01  0.10208334631E+01 0.  0.
     999903    2    3    3    0    0 -0.96309504460E-01  0.80038654903E-01  0.25637113733E-01  0.13158962400E+00  0.31254769496E-01 0.  0.
         14    1    1    2    0    0 -0.13785731757E-01 -0.12743115833E-01 -0.13010746587E-01  0.22841036053E-01  0.00000000000E+00 0. -1.
     999901    1    3    3    0    0  0.11009523622E+00 -0.67295539069E-01 -0.12626367146E-01  0.88949933995E+00  0.88000000000E+00 0.  1.
        -11    1    4    4    0    0 -0.10520982944E-01  0.21780590654E-01  0.11965567864E-01  0.26991130889E-01  0.51100000000E-03 0. -1.
         11    1    4    4    0    0 -0.85788521516E-01  0.58258064248E-01  0.13671545869E-01  0.10459849311E+00  0.51100000000E-03 0.  1.
</event>
<event>
 8    1  0.1103774E+005  0.1043930E+01  0.7957747E-01            NaN
         13   -1    0    0    0    0  0.00000000000E+00  0.00000000000E+00  0.74505805969E-08  0.10566000000E+00  0.10566000000E+00 0.  1.
     999900   -1    0    0    0    0 -0.00000000000E+00 -0.00000000000E+00 -0.74505805969E-08  0.93827000000E+00  0.93827000000E+00 0. -1.
     999902    2    1    2    0    0 -0.14569763161E-01  0.40459732258E-02  0.43066510271E-02  0.10282075593E+01  0.10280873455E+01 0.  0.
     999903    2    3    3    0    0 -0.50431506938E-01 -0.65571530356E-01 -0.10810247944E+00  0.13760749527E+00  0.20167156654E-01 0.  0.
         14    1    1    2    0    0  0.14569763161E-01 -0.40459732258E-02 -0.43066510271E-02  0.15722440681E-01  0.00000000000E+00 0. -1.
     999901    1    3    3    0    0  0.35861743777E-01  0.69617503582E-01  0.11240913047E+00  0.89060006405E+00  0.88000000000E+00 0.  1.
        -11    1    4    4    0    0 -0.26214949893E-01 -0.30113761517E-01 -0.36402261599E-01  0.54031916504E-01  0.51100000000E-03 0. -1.
         11    1    4    4    0    0 -0.24216557045E-01 -0.35457768839E-01 -0.71700217844E-01  0.83575578765E-01  0.51100000000E-03 0.  1.
</event>
<event>
 8    1  0.1103774E+005  0.1043930E+01  0.7957747E-01            NaN
         13   -1    0    0    0    0  0.00000000000E+00  0.00000000000E+00  0.74505805969E-08  0.10566000000E+00  0.10566000000E+00 0. -1.
     999900   -1    0    0    0    0 -0.00000000000E+00 -0.00000000000E+00 -0.74505805969E-08  0.93827000000E+00  0.93827000000E+00 0. -1.
     999902    2    1    2    0    0 -0.18058501151E-01 -0.69870169327E-02  0.19316839074E-01  0.10165791656E+01  0.10162111650E+01 0.  0.
     999903    2    3    3    0    0  0.98940418697E-01 -0.31782214064E-01  0.70227069834E-01  0.12703130258E+00  0.20144351930E-01 0.  0.
         14    1    1    2    0    0  0.18058501151E-01  0.69870169327E-02 -0.19316839074E-01  0.27350834380E-01  0.00000000000E+00 0. -1.
     999901    1    3    3    0    0 -0.11699891985E+00  0.24795197131E-01 -0.50910230760E-01  0.88954786304E+00  0.88000000000E+00 0.  1.
        -11    1    4    4    0    0  0.58961921555E-02 -0.45075714372E-02  0.11424452889E-01  0.13633140761E-01  0.51100000000E-03 0. -1.
         11    1    4    4    0    0  0.93044226541E-01 -0.27274642626E-01  0.58802616945E-01  0.11339816182E+00  0.51100000000E-03 0.  1.
</event>
<event>
 8    1  0.1103774E+005  0.1043930E+01  0.7957747E-01            NaN
         13   -1    0    0    0    0  0.00000000000E+00  0.00000000000E+00  0.74505805969E-08  0.10566000000E+00  0.10566000000E+00 0.  1.
     999900   -1    0    0    0    0 -0.00000000000E+00 -0.00000000000E+00 -0.74505805969E-08  0.93827000000E+00  0.93827000000E+00 0. -1.
     999902    2    1    2    0    0 -0.74376343990E-02 -0.19840017010E-02 -0.23167891650E-01  0.10195167685E+01  0.10192244284E+01 0.  0.
     999903    2    3    3    0    0 -0.87055008103E-01  0.34089447978E-01  0.84342920591E-01  0.12867514694E+00  0.26512266749E-01 0.  0.
         14    1    1    2    0    0  0.74376343990E-02  0.19840017010E-02  0.23167891650E-01  0.24413231488E-01  0.00000000000E+00 0.  1.
     999901    1    3    3    0    0  0.79617373704E-01 -0.36073449679E-01 -0.10751081224E+00  0.89084162157E+00  0.88000000000E+00 0. -1.
        -11    1    4    4    0    0 -0.53402458734E-01  0.21718789287E-01  0.34209432476E-01  0.67037860931E-01  0.51100000000E-03 0. -1.
         11    1    4    4    0    0 -0.33652549369E-01  0.12370658691E-01  0.50133488116E-01  0.61637286013E-01  0.51100000000E-03 0.  1.
</event>
<event>
 8    1  0.1103774E+005  0.1043930E+01  0.7957747E-01            NaN
         13   -1    0    0    0    0  0.00000000000E+00  0.00000000000E+00  0.74505805969E-08  0.10566000000E+00  0.10566000000E+00 0.  1.
     999900   -1    0    0    0    0 -0.00000000000E+00 -0.00000000000E+00 -0.74505805969E-08  0.93827000000E+00  0.93827000000E+00 0. -1.
     999902    2    1    2    0    0  0.19659814126E-01  0.55788175560E-02 -0.21774738186E-01  0.10140674696E+01  0.10136276744E+01 0.  0.
     999903    2    3    3    0    0 -0.54576213650E-01 -0.87486549554E-01 -0.67556540519E-01  0.12487225833E+00  0.19918214911E-01 0.  0.
         14    1    1    2    0    0 -0.19659814126E-01 -0.55788175560E-02  0.21774738186E-01  0.29862530366E-01  0.00000000000E+00 0.  1.
     999901    1    3    3    0    0  0.74236027776E-01  0.93065367110E-01  0.45781802333E-01  0.88919521130E+00  0.88000000000E+00 0.  1.
        -11    1    4    4    0    0 -0.26048808021E-01 -0.37118866227E-01 -0.41186655321E-01  0.61261344475E-01  0.51100000000E-03 0.  1.
         11    1    4    4    0    0 -0.28527405629E-01 -0.50367683326E-01 -0.26369885198E-01  0.63610913858E-01  0.51100000000E-03 0. -1.
</event>
<event>
 8    1  0.1103774E+005  0.1043930E+01  0.7957747E-01            NaN
         13   -1    0    0    0    0  0.00000000000E+00  0.00000000000E+00  0.74505805969E-08  0.10566000000E+00  0.10566000000E+00 0. -1.
     999900   -1    0    0    0    0 -0.00000000000E+00 -0.00000000000E+00 -0.74505805969E-08  0.93827000000E+00  0.93827000000E+00 0.  1.
     999902    2    1    2    0    0  0.11857285637E-01 -0.71970410057E-02 -0.19492423815E-01  0.10200062209E+01  0.10197256216E+01 0.  0.
     999903    2    3    3    0    0 -0.95871036452E-01 -0.76062401157E-01  0.35865241424E-01  0.12904477371E+00  0.19735591715E-01 0.  0.
         14    1    1    2    0    0 -0.11857285637E-01  0.71970410057E-02  0.19492423815E-01  0.23923779135E-01  0.00000000000E+00 0. -1.
     999901    1    3    3    0    0  0.10772832209E+00  0.68865360151E-01 -0.55357665239E-01  0.89096144715E+00  0.88000000000E+00 0.  1.
        -11    1    4    4    0    0 -0.28467648822E-01 -0.17036396373E-01  0.19269511990E-02  0.33235825441E-01  0.51100000000E-03 0.  1.
         11    1    4    4    0    0 -0.67403387630E-01 -0.59026004784E-01  0.33938290225E-01  0.95808948273E-01  0.51100000000E-03 0. -1.
</event>
<event>
 8    1  0.1103774E+005  0.1043930E+01  0.7957747E-01            NaN
         13   -1    0    0    0    0  0.00000000000E+00  0.00000000000E+00  0.74505805969E-08  0.10566000000E+00  0.10566000000E+00 0.  1.
     999900   -1    0    0    0    0 -0.00000000000E+00 -0.00000000000E+00 -0.74505805969E-08  0.93827000000E+00  0.93827000000E+00 0. -1.
     999902    2    1    2    0    0 -0.69829268358E-02  0.54230310833E-02  0.21930025925E-01  0.10202847770E+01  0.10200107498E+01 0.  0.
     999903    2    3    3    0    0  0.36657848927E-01  0.24411177183E-01 -0.11828231853E+00  0.12791457998E+00  0.20778099931E-01 0.  0.
         14    1    1    2    0    0  0.69829268358E-02 -0.54230310833E-02 -0.21930025925E-01  0.23645222993E-01  0.00000000000E+00 0. -1.
     999901    1    3    3    0    0 -0.43640775763E-01 -0.18988146100E-01  0.14021234445E+00  0.89237019702E+00  0.88000000000E+00 0.  1.
        -11    1    4    4    0    0  0.12306050570E-01  0.85530934986E-03 -0.16284145778E-01  0.20435384984E-01  0.51100000000E-03 0. -1.
         11    1    4    4    0    0  0.24351798356E-01  0.23555867834E-01 -0.10199817275E+00  0.10747919500E+00  0.51100000000E-03 0.  1.
</event>
<event>
 8    1  0.1103774E+005  0.1043930E+01  0.7957747E-01            NaN
         13   -1    0    0    0    0  0.00000000000E+00  0.00000000000E+00  0.74505805969E-08  0.10566000000E+00  0.10566000000E+00 0.  1.
     999900   -1    0    0    0    0 -0.00000000000E+00 -0.00000000000E+00 -0.74505805969E-08  0.93827000000E+00  0.93827000000E+00 0. -1.
     999902    2    1    2    0    0 -0.17122733321E-01 -0.10243494322E-01 -0.13151515548E-01  0.10200327296E+01  0.10197527592E+01 0.  0.
     999903    2    3    3    0    0  0.10206174620E-02 -0.10893835545E+00 -0.72365421349E-01  0.13235252622E+00  0.20293596126E-01 0.  0.
         14    1    1    2    0    0  0.17122733321E-01  0.10243494322E-01  0.13151515548E-01  0.23897270420E-01  0.00000000000E+00 0. -1.
     999901    1    3    3    0    0 -0.18143350783E-01  0.98694861123E-01  0.59213905801E-01  0.88768020336E+00  0.88000000000E+00 0. -1.
        -11    1    4    4    0    0  0.22385004652E-02 -0.36594423205E-01 -0.35948310569E-01  0.51348854396E-01  0.51100000000E-03 0. -1.
         11    1    4    4    0    0 -0.12178830033E-02 -0.72343932241E-01 -0.36417110780E-01  0.81003671828E-01  0.51100000000E-03 0.  1.
</event>
<event>
 8    1  0.1103774E+005  0.1043930E+01  0.7957747E-01            NaN
         13   -1    0    0    0    0  0.00000000000E+00  0.00000000000E+00  0.74505805969E-08  0.10566000000E+00  0.10566000000E+00 0. -1.
     999900   -1    0    0    0    0 -0.00000000000E+00 -0.00000000000E+00 -0.74505805969E-08  0.93827000000E+00  0.93827000000E+00 0.  1.
     999902    2    1    2    0    0 -0.12419659202E-01 -0.15920304101E-01  0.11653797551E-01  0.10206165915E+01  0.10203502888E+01 0.  0.
     999903    2    3    3    0    0 -0.97787786585E-01 -0.54346105080E-01 -0.67166906353E-01  0.13214770478E+00  0.20872762788E-01 0.  0.
         14    1    1    2    0    0  0.12419659202E-01  0.15920304101E-01 -0.11653797551E-01  0.23313408475E-01  0.00000000000E+00 0. -1.
     999901    1    3    3    0    0  0.85368127383E-01  0.38425800978E-01  0.78820703904E-01  0.88846888675E+00  0.88000000000E+00 0. -1.
        -11    1    4    4    0    0 -0.46598153258E-01 -0.23039650945E-01 -0.42974443265E-01  0.67448330578E-01  0.51100000000E-03 0.  1.
         11    1    4    4    0    0 -0.51189633327E-01 -0.31306454134E-01 -0.24192463088E-01  0.64699374200E-01  0.51100000000E-03 0. -1.
</event>
<event>
 8    1  0.1103774E+005  0.1043930E+01  0.7957747E-01            NaN
         13   -1    0    0    0    0  0.00000000000E+00  0.00000000000E+00  0.74505805969E-08  0.10566000000E+00  0.10566000000E+00 0. -1.
     999900   -1    0    0    0    0 -0.00000000000E+00 -0.00000000000E+00 -0.74505805969E-08  0.93827000000E+00  0.93827000000E+00 0.  1.
     999902    2    1    2    0    0  0.11734658951E-01  0.19000824009E-01 -0.32614862506E-02  0.10213607549E+01  0.10211113655E+01 0.  0.
     999903    2    3    3    0    0  0.11025530225E+00 -0.35048806174E-01 -0.61352109666E-01  0.13231508662E+00  0.18935424452E-01 0.  0.
         14    1    1    2    0    0 -0.11734658951E-01 -0.19000824009E-01  0.32614862506E-02  0.22569245142E-01  0.00000000000E+00 0.  1.
     999901    1    3    3    0    0 -0.98520643299E-01  0.54049630183E-01  0.58090623415E-01  0.88904566824E+00  0.88000000000E+00 0. -1.
        -11    1    4    4    0    0  0.71064070678E-01 -0.31566180112E-01 -0.43559979487E-01  0.89130571647E-01  0.51100000000E-03 0.  1.
         11    1    4    4    0    0  0.39191231572E-01 -0.34826260611E-02 -0.17792130179E-01  0.43184514976E-01  0.51100000000E-03 0. -1.
</event>
<event>
 8    1  0.1145748E+005  0.1043930E+01  0.7957747E-01            NaN
         13   -1    0    0    0    0  0.00000000000E+00  0.00000000000E+00  0.74505805969E-08  0.10566000000E+00  0.10566000000E+00 0. -1.
     999900   -1    0    0    0    0 -0.00000000000E+00 -0.00000000000E+00 -0.74505805969E-08  0.93827000000E+00  0.93827000000E+00 0.  1.
     999902    2    1    2    0    0  0.14842180168E-01 -0.31409807656E-02  0.19662629107E-01  0.10190950437E+01  0.10187923895E+01 0.  0.
     999903    2    3    3    0    0  0.50188807987E-01  0.51345526726E-01 -0.10409501894E+00  0.12806523550E+00  0.20239862017E-01 0.  0.
         14    1    1    2    0    0 -0.14842180168E-01  0.31409807656E-02 -0.19662629107E-01  0.24834956325E-01  0.00000000000E+00 0.  1.
     999901    1    3    3    0    0 -0.35346627819E-01 -0.54486507492E-01  0.12375764805E+00  0.89102980817E+00  0.88000000000E+00 0. -1.
        -11    1    4    4    0    0  0.23351377130E-01  0.36072060162E-01 -0.51513578006E-01  0.67084947479E-01  0.51100000000E-03 0. -1.
         11    1    4    4    0    0  0.26837430857E-01  0.15273466564E-01 -0.52581440935E-01  0.60980288026E-01  0.51100000000E-03 0.  1.
</event>
<event>
 8    1  0.1103774E+005  0.1043930E+01  0.7957747E-01            NaN
         13   -1    0    0    0    0  0.00000000000E+00  0.00000000000E+00  0.74505805969E-08  0.10566000000E+00  0.10566000000E+00 0. -1.
     999900   -1    0    0    0    0 -0.00000000000E+00 -0.00000000000E+00 -0.74505805969E-08  0.93827000000E+00  0.93827000000E+00 0.  1.
     999902    2    1    2    0    0 -0.46960875265E-02 -0.22709975053E-01  0.45916023952E-02  0.10202893778E+01  0.10200154584E+01 0.  0.
     999903    2    3    3    0    0  0.56672014637E-01  0.43046924533E-01  0.10669708536E+00  0.12983132520E+00  0.20177958849E-01 0.  0.
         14    1    1    2    0    0  0.46960875265E-02  0.22709975053E-01 -0.45916023952E-02  0.23640622190E-01  0.00000000000E+00 0. -1.
     999901    1    3    3    0    0 -0.61368102163E-01 -0.65756899586E-01 -0.10210548297E+00  0.89045805261E+00  0.88000000000E+00 0.  1.
        -11    1    4    4    0    0  0.47132921628E-01  0.43859065553E-01  0.92727573585E-01  0.11288841374E+00  0.51100000000E-03 0. -1.
         11    1    4    4    0    0  0.95390930093E-02 -0.81214101950E-03  0.13969511779E-01  0.16942911462E-01  0.51100000000E-03 0.  1.
</event>
<event>
 8    1  0.1103774E+005  0.1043930E+01  0.7957747E-01            NaN
         13   -1    0    0    0    0  0.00000000000E+00  0.00000000000E+00  0.74505805969E-08  0.10566000000E+00  0.10566000000E+00 0.  1.
     999900   -1    0    0    0    0 -0.00000000000E+00 -0.00000000000E+00 -0.74505805969E-08  0.93827000000E+00  0.93827000000E+00 0. -1.
     999902    2    1    2    0    0  0.18698360090E-01 -0.11236901232E-01 -0.11062209768E-01  0.10194704599E+01  0.10191769961E+01 0.  0.
     999903    2    3    3    0    0  0.50128588323E-01 -0.10484134382E+00  0.57390261958E-01  0.13130640304E+00  0.21051046794E-01 0.  0.
         14    1    1    2    0    0 -0.18698360090E-01  0.11236901232E-01  0.11062209768E-01  0.24459540149E-01  0.00000000000E+00 0.  1.
     999901    1    3    3    0    0 -0.31430228233E-01  0.93604442589E-01 -0.68452471726E-01  0.88816405681E+00  0.88000000000E+00 0. -1.
        -11    1    4    4    0    0  0.47742903652E-01 -0.90582310263E-01  0.56167268425E-01  0.11678853944E+00  0.51100000000E-03 0.  1.
         11    1    4    4    0    0  0.23856846709E-02 -0.14259033558E-01  0.12229935327E-02  0.14517863601E-01  0.51100000000E-03 0. -1.
</event>
<event>
 8    1  0.1103774E+005  0.1043930E+01  0.7957747E-01            NaN
         13   -1    0    0    0    0  0.00000000000E+00  0.00000000000E+00  0.74505805969E-08  0.10566000000E+00  0.10566000000E+00 0.  1.
     999900   -1    0    0    0    0 -0.00000000000E+00 -0.00000000000E+00 -0.74505805969E-08  0.93827000000E+00  0.93827000000E+00 0.  1.
     999902    2    1    2    0    0  0.32175076737E-02 -0.23462091829E-01  0.23842527333E-02  0.10201285973E+01  0.10198508951E+01 0.  0.
     999903    2    3    3    0    0  0.89053015765E-01 -0.24746643394E-01 -0.90884125126E-01  0.13104571320E+00  0.19241069919E-01 0.  0.
         14    1    1    2    0    0 -0.32175076737E-02  0.23462091829E-01 -0.23842527333E-02  0.23801402684E-01  0.00000000000E+00 0. -1.
     999901    1    3    3    0    0 -0.85835508091E-01  0.12845515652E-02  0.93268377859E-01  0.88908288412E+00  0.88000000000E+00 0.  1.
        -11    1    4    4    0    0  0.58620417866E-01 -0.73568536139E-02 -0.52166473850E-01  0.78816741882E-01  0.51100000000E-03 0. -1.
         11    1    4    4    0    0  0.30432597899E-01 -0.17389789780E-01 -0.38717651276E-01  0.52228971317E-01  0.51100000000E-03 0.  1.
</event>
<event>
 8    1  0.1103774E+005  0.1043930E+01  0.7957747E-01            NaN
         13   -1    0    0    0    0  0.00000000000E+00  0.00000000000E+00  0.74505805969E-08  0.10566000000E+00  0.10566000000E+00 0.  1.
     999900   -1    0    0    0    0 -0.00000000000E+00 -0.00000000000E+00 -0.74505805969E-08  0.93827000000E+00  0.93827000000E+00 0.  1.
     999902    2    1    2    0    0  0.11892598875E-01 -0.15484149344E-01  0.11689679242E-01  0.10211738714E+01  0.10209202879E+01 0.  0.
     999903    2    3    3    0    0  0.10722823597E+00  0.47013220883E-01 -0.55816985010E-01  0.13125704678E+00  0.20118125836E-01 0.  0.
         14    1    1    2    0    0 -0.11892598875E-01  0.15484149344E-01 -0.11689679242E-01  0.22756128619E-01  0.00000000000E+00 0. -1.
     999901    1    3    3    0    0 -0.95335637096E-01 -0.62497370228E-01  0.67506664252E-01  0.88991682460E+00  0.88000000000E+00 0. -1.
        -11    1    4    4    0    0  0.70942240933E-01  0.30446676235E-01 -0.47063117775E-01  0.90415705594E-01  0.51100000000E-03 0.  1.
         11    1    4    4    0    0  0.36285995038E-01  0.16566544648E-01 -0.87538672345E-02  0.40841341188E-01  0.51100000000E-03 0. -1.
</event>
<event>
 8    1  0.1103774E+005  0.1043930E+01  0.7957747E-01            NaN
         13   -1    0    0    0    0  0.00000000000E+00  0.00000000000E+00  0.74505805969E-08  0.10566000000E+00  0.10566000000E+00 0.  1.
     999900   -1    0    0    0    0 -0.00000000000E+00 -0.00000000000E+00 -0.74505805969E-08  0.93827000000E+00  0.93827000000E+00 0. -1.
     999902    2    1    2    0    0 -0.22966221157E-01  0.29468483742E-02 -0.35263820251E-02  0.10205085013E+01  0.10202396947E+01 0.  0.
     999903    2    3    3    0    0  0.12608579976E+00 -0.62686969900E-02  0.46512018814E-02  0.12788971143E+00  0.19930357382E-01 0.  0.
         14    1    1    2    0    0  0.22966221157E-01 -0.29468483742E-02  0.35263820251E-02  0.23421498666E-01  0.00000000000E+00 0. -1.
     999901    1    3    3    0    0 -0.14905202092E+00  0.92155453642E-02 -0.81775839065E-02  0.89261878991E+00  0.88000000000E+00 0. -1.
        -11    1    4    4    0    0  0.76660898604E-01  0.43759453969E-02  0.80886445704E-02  0.77212237145E-01  0.51100000000E-03 0.  1.
         11    1    4    4    0    0  0.49424901161E-01 -0.10644642387E-01 -0.34374426890E-02  0.50677474281E-01  0.51100000000E-03 0. -1.
</event>
<event>
 8    1  0.1103774E+005  0.1043930E+01  0.7957747E-01            NaN
         13   -1    0    0    0    0  0.00000000000E+00  0.00000000000E+00  0.74505805969E-08  0.10566000000E+00  0.10566000000E+00 0. -1.
     999900   -1    0    0    0    0 -0.00000000000E+00 -0.00000000000E+00 -0.74505805969E-08  0.93827000000E+00  0.93827000000E+00 0.  1.
     999902    2    1    2    0    0 -0.19667590414E-01 -0.16744412709E-02  0.15176824225E-01  0.10190311273E+01  0.10187268940E+01 0.  0.
     999903    2    3    3    0    0  0.54199037329E-01 -0.55965757871E-01  0.10218393047E+00  0.13000128403E+00  0.19725022207E-01 0.  0.
         14    1    1    2    0    0  0.19667590414E-01  0.16744412709E-02 -0.15176824225E-01  0.24898872662E-01  0.00000000000E+00 0.  1.
     999901    1    3    3    0    0 -0.73866627743E-01  0.54291316600E-01 -0.87007106249E-01  0.88902984331E+00  0.88000000000E+00 0. -1.
        -11    1    4    4    0    0  0.36582038434E-01 -0.40358426816E-01  0.55773257523E-01  0.77961307883E-01  0.51100000000E-03 0. -1.
         11    1    4    4    0    0  0.17616998895E-01 -0.15607331055E-01  0.46410672951E-01  0.52039976148E-01  0.51100000000E-03 0.  1.
</event>
<event>
 8    1  0.1103774E+005  0.1043930E+01  0.7957747E-01            NaN
         13   -1    0    0    0    0  0.00000000000E+00  0.00000000000E+00  0.74505805969E-08  0.10566000000E+00  0.10566000000E+00 0. -1.
     999900   -1    0    0    0    0 -0.00000000000E+00 -0.00000000000E+00 -0.74505805969E-08  0.93827000000E+00  0.93827000000E+00 0. -1.
     999902    2    1    2    0    0 -0.16868263668E-01 -0.16865978143E-01  0.46381956789E-04  0.10200762437E+01  0.10197973040E+01 0.  0.
     999903    2    3    3    0    0 -0.12733305917E+00  0.96527667572E-03  0.26398637876E-01  0.13259955890E+00  0.25905891646E-01 0.  0.
         14    1    1    2    0    0  0.16868263668E-01  0.16865978143E-01 -0.46381956789E-04  0.23853756291E-01  0.00000000000E+00 0. -1.
     999901    1    3    3    0    0  0.11046479550E+00 -0.17831254819E-01 -0.26352255919E-01  0.88747668481E+00  0.88000000000E+00 0. -1.
        -11    1    4    4    0    0 -0.67417435485E-01  0.24520493105E-02  0.91357361948E-03  0.67470133326E-01  0.51100000000E-03 0.  1.
         11    1    4    4    0    0 -0.59915623682E-01 -0.14867726348E-02  0.25485064256E-01  0.65129425571E-01  0.51100000000E-03 0. -1.
</event>
<event>
 8    1  0.1103774E+005  0.1043930E+01  0.7957747E-01            NaN
         13   -1    0    0    0    0  0.00000000000E+00  0.00000000000E+00  0.74505805969E-08  0.10566000000E+00  0.10566000000E+00 0. -1.
     999900   -1    0    0    0    0 -0.00000000000E+00 -0.00000000000E+00 -0.74505805969E-08  0.93827000000E+00  0.93827000000E+00 0.  1.
     999902    2    1    2    0    0  0.20991092147E-01 -0.10772580328E-01  0.36282170688E-02  0.10200587119E+01  0.10197793572E+01 0.  0.
     999903    2    3    3    0    0 -0.82865762066E-01 -0.96297485875E-01 -0.16042710891E-01  0.12961629319E+00  0.20076717319E-01 0.  0.
         14    1    1    2    0    0 -0.20991092147E-01  0.10772580328E-01 -0.36282170688E-02  0.23871288100E-01  0.00000000000E+00 0. -1.
     999901    1    3    3    0    0  0.10385685421E+00  0.85524905547E-01  0.19670927960E-01  0.89044241871E+00  0.88000000000E+00 0. -1.
        -11    1    4    4    0    0 -0.71853193092E-01 -0.79847334595E-01 -0.64485684747E-02  0.10761191085E+00  0.51100000000E-03 0.  1.
         11    1    4    4    0    0 -0.11012568974E-01 -0.16450151280E-01 -0.95941424167E-02  0.22004382342E-01  0.51100000000E-03 0. -1.
</event>
<event>
 8    1  0.1103774E+005  0.1043930E+01  0.7957747E-01            NaN
         13   -1    0    0    0    0  0.00000000000E+00  0.00000000000E+00  0.74505805969E-08  0.10566000000E+00  0.10566000000E+00 0.  1.
     999900   -1    0    0    0    0 -0.00000000000E+00 -0.00000000000E+00 -0.74505805969E-08  0.93827000000E+00  0.93827000000E+00 0.  1.
     999902    2    1    2    0    0  0.18968498950E-01  0.55024084268E-02  0.21325656236E-01  0.10148634545E+01  0.10144471240E+01 0.  0.
     999903    2    3    3    0    0  0.14728098791E-02 -0.11853807487E+00 -0.25570376241E-01  0.12475594503E+00  0.29270417097E-01 0.  0.
         14    1    1    2    0    0 -0.18968498950E-01 -0.55024084268E-02 -0.21325656236E-01  0.29066545457E-01  0.00000000000E+00 0. -1.
     999901    1    3    3    0    0  0.17495689071E-01  0.12404048329E+00  0.46896032477E-01  0.89010750951E+00  0.88000000000E+00 0.  1.
        -11    1    4    4    0    0  0.60286290451E-02 -0.86071494874E-01 -0.30670837698E-01  0.91572965465E-01  0.51100000000E-03 0.  1.
         11    1    4    4    0    0 -0.45558191660E-02 -0.32466579991E-01  0.51004614566E-02  0.33182979563E-01  0.51100000000E-03 0. -1.
</event>
<event>
 8    1  0.1103774E+005  0.1043930E+01  0.7957747E-01            NaN
         13   -1    0    0    0    0  0.00000000000E+00  0.00000000000E+00  0.74505805969E-08  0.10566000000E+00  0.10566000000E+00 0. -1.
     999900   -1    0    0    0    0 -0.00000000000E+00 -0.00000000000E+00 -0.74505805969E-08  0.93827000000E+00  0.93827000000E+00 0.  1.
     999902    2    1    2    0    0  0.11144901237E-01  0.12433060081E-01  0.16789629706E-01  0.10202512865E+01  0.10199764733E+01 0.  0.
     999903    2    3    3    0    0  0.81357688162E-01  0.58584731370E-01 -0.81566438020E-01  0.13079430146E+00  0.20070408809E-01 0.  0.
         14    1    1    2    0    0 -0.11144901237E-01 -0.12433060081E-01 -0.16789629706E-01  0.23678713483E-01  0.00000000000E+00 0. -1.
     999901    1    3    3    0    0 -0.70212786925E-01 -0.46151671289E-01  0.98356067726E-01  0.88945698506E+00  0.88000000000E+00 0. -1.
        -11    1    4    4    0    0  0.48075879813E-02  0.10792243142E-01 -0.71115802933E-02  0.13799315545E-01  0.51100000000E-03 0. -1.
         11    1    4    4    0    0  0.76550100181E-01  0.47792488228E-01 -0.74454857727E-01  0.11699498591E+00  0.51100000000E-03 0.  1.
</event>
<event>
 8    1  0.1103774E+005  0.1043930E+01  0.7957747E-01            NaN
         13   -1    0    0    0    0  0.00000000000E+00  0.00000000000E+00  0.74505805969E-08  0.10566000000E+00  0.10566000000E+00 0. -1.
     999900   -1    0    0    0    0 -0.00000000000E+00 -0.00000000000E+00 -0.74505805969E-08  0.93827000000E+00  0.93827000000E+00 0.  1.
     999902    2    1    2    0    0 -0.19818130237E-01  0.19285275796E-01 -0.68172783599E-02  0.10154492094E+01  0.10150497236E+01 0.  0.
     999903    2    3    3    0    0  0.12579656924E-01 -0.10833056743E-01  0.12212509481E+00  0.12495335531E+00  0.20571809218E-01 0.  0.
         14    1    1    2    0    0  0.19818130237E-01 -0.19285275796E-01  0.68172783599E-02  0.28480790594E-01  0.00000000000E+00 0. -1.
     999901    1    3    3    0    0 -0.32397787161E-01  0.30118332539E-01 -0.12894237317E+00  0.89049585410E+00  0.88000000000E+00 0.  1.
        -11    1    4    4    0    0  0.98161336815E-02 -0.49620216582E-02  0.21853222485E-01  0.24470443260E-01  0.51100000000E-03 0.  1.
         11    1    4    4    0    0  0.27635232424E-02 -0.58710350851E-02  0.10027187232E+00  0.10048291205E+00  0.51100000000E-03 0. -1.
</event>
<event>
 8    1  0.1103774E+005  0.1043930E+01  0.7957747E-01            NaN
         13   -1    0    0    0    0  0.00000000000E+00  0.00000000000E+00  0.74505805969E-08  0.10566000000E+00  0.10566000000E+00 0.  1.
     999900   -1    0    0    0    0 -0.00000000000E+00 -0.00000000000E+00 -0.74505805969E-08  0.93827000000E+00  0.93827000000E+00 0. -1.
     999902    2    1    2    0    0 -0.10898387083E-01  0.20878100702E-01  0.21965404777E-02  0.10202763593E+01  0.10200021346E+01 0.  0.
     999903    2    3    3    0    0 -0.38282635003E-01  0.55998963442E-01  0.11179085794E+00  0.13236066143E+00  0.20511087921E-01 0.  0.
         14    1    1    2    0    0  0.10898387083E-01 -0.20878100702E-01 -0.21965404777E-02  0.23653640735E-01  0.00000000000E+00 0. -1.
     999901    1    3    3    0    0  0.27384247920E-01 -0.35120862740E-01 -0.10959431746E+00  0.88791569783E+00  0.88000000000E+00 0. -1.
        -11    1    4    4    0    0 -0.10605253404E-01  0.18090581067E-01  0.18684604328E-01  0.28091210067E-01  0.51100000000E-03 0.  1.
         11    1    4    4    0    0 -0.27677381599E-01  0.37908382375E-01  0.93106253609E-01  0.10426945137E+00  0.51100000000E-03 0. -1.
</event>
<event>
 8    1  0.1103774E+005  0.1043930E+01  0.7957747E-01            NaN
         13   -1    0    0    0    0  0.00000000000E+00  0.00000000000E+00  0.74505805969E-08  0.10566000000E+00  0.10566000000E+00 0. -1.
     999900   -1    0    0    0    0 -0.00000000000E+00 -0.00000000000E+00 -0.74505805969E-08  0.93827000000E+00  0.93827000000E+00 0. -1.
     999902    2    1    2    0    0  0.16992038784E-01 -0.12546040521E-01  0.12224829842E-01  0.10195255131E+01  0.10192333849E+01 0.  0.
     999903    2    3    3    0    0 -0.12509275049E+00  0.45743195269E-02 -0.14137187838E-01  0.12757475773E+00  0.20157829882E-01 0.  0.
         14    1    1    2    0    0 -0.16992038784E-01  0.12546040521E-01 -0.12224829842E-01  0.24404486871E-01  0.00000000000E+00 0.  1.
     999901    1    3    3    0    0  0.14208478928E+00 -0.17120360048E-01  0.26362017680E-01  0.89195075539E+00  0.88000000000E+00 0. -1.
        -11    1    4    4    0    0 -0.38117928671E-01 -0.15262975168E-02  0.44961432339E-02  0.38415914609E-01  0.51100000000E-03 0.  1.
         11    1    4    4    0    0 -0.86974821824E-01  0.61006170437E-02 -0.18633331072E-01  0.89158843126E-01  0.51100000000E-03 0. -1.
</event>
<event>
 8    1  0.1103774E+005  0.1043930E+01  0.7957747E-01            NaN
         13   -1    0    0    0    0  0.00000000000E+00  0.00000000000E+00  0.74505805969E-08  0.10566000000E+00  0.10566000000E+00 0. -1.
     999900   -1    0    0    0    0 -0.00000000000E+00 -0.00000000000E+00 -0.74505805969E-08  0.93827000000E+00  0.93827000000E+00 0. -1.
     999902    2    1    2    0    0  0.31191307972E-02 -0.19831630964E-02  0.23929932489E-01  0.10197162935E+01  0.10194287693E+01 0.  0.
     999903    2    3    3    0    0 -0.41451038143E-02  0.75150770521E-01  0.10711085224E+00  0.13240491737E+00  0.19837017965E-01 0.  0.
         14    1    1    2    0    0 -0.31191307972E-02  0.19831630964E-02 -0.23929932489E-01  0.24213706485E-01  0.00000000000E+00 0.  1.
     999901    1    3    3    0    0  0.72642346115E-02 -0.77133933618E-01 -0.83180919749E-01  0.88731137614E+00  0.88000000000E+00 0. -1.
        -11    1    4    4    0    0 -0.20556342503E-03  0.36437082482E-01  0.68466350529E-01  0.77560334656E-01  0.51100000000E-03 0. -1.
         11    1    4    4    0    0 -0.39395403893E-02  0.38713688039E-01  0.38644501709E-01  0.54844582718E-01  0.51100000000E-03 0.  1.
</event>
<event>
 8    1  0.1103774E+005  0.1043930E+01  0.7957747E-01            NaN
         13   -1    0    0    0    0  0.00000000000E+00  0.00000000000E+00  0.74505805969E-08  0.10566000000E+00  0.10566000000E+00 0.  1.
     999900   -1    0    0    0    0 -0.00000000000E+00 -0.00000000000E+00 -0.74505805969E-08  0.93827000000E+00  0.93827000000E+00 0. -1.
     999902    2    1    2    0    0  0.54830003398E-02 -0.70450546519E-02  0.25722155027E-01  0.10167027095E+01  0.10163380708E+01 0.  0.
     999903    2    3    3    0    0 -0.40603084666E-02 -0.12641789426E+00  0.81924095385E-02  0.12841883510E+00  0.20647313115E-01 0.  0.
         14    1    1    2    0    0 -0.54830003398E-02  0.70450546519E-02 -0.25722155027E-01  0.27227290482E-01  0.00000000000E+00 0. -1.
     999901    1    3    3    0    0  0.95433088064E-02  0.11937283961E+00  0.17529745489E-01  0.88828387442E+00  0.88000000000E+00 0.  1.
        -11    1    4    4    0    0  0.66534899318E-02 -0.49343826969E-01  0.89892768393E-02  0.50597928883E-01  0.51100000000E-03 0. -1.
         11    1    4    4    0    0 -0.10713798398E-01 -0.77074067294E-01 -0.79686730083E-03  0.77820906213E-01  0.51100000000E-03 0.  1.
</event>
<event>
 8    1  0.1103774E+005  0.1043930E+01  0.7957747E-01            NaN
         13   -1    0    0    0    0  0.00000000000E+00  0.00000000000E+00  0.74505805969E-08  0.10566000000E+00  0.10566000000E+00 0. -1.
     999900   -1    0    0    0    0 -0.00000000000E+00 -0.00000000000E+00 -0.74505805969E-08  0.93827000000E+00  0.93827000000E+00 0.  1.
     999902    2    1    2    0    0 -0.48109572868E-02 -0.15813614177E-01  0.16510108473E-01  0.10205676503E+01  0.10203002153E+01 0.  0.
     999903    2    3    3    0    0  0.80102550463E-01 -0.10251603880E+00  0.12610743032E-01  0.13223054123E+00  0.19998209729E-01 0.  0.
         14    1    1    2    0    0  0.48109572868E-02  0.15813614177E-01 -0.16510108473E-01  0.23362349735E-01  0.00000000000E+00 0.  1.
     999901    1    3    3    0    0 -0.84913507750E-01  0.86702424625E-01  0.38993654409E-02  0.88833710903E+00  0.88000000000E+00 0.  1.
        -11    1    4    4    0    0  0.26122482023E-01 -0.31064498462E-01  0.13180161950E-01  0.42677452147E-01  0.51100000000E-03 0.  1.
         11    1    4    4    0    0  0.53980068441E-01 -0.71451540340E-01 -0.56941891803E-03  0.89553089085E-01  0.51100000000E-03 0. -1.
</event>
<event>
 8    1  0.1103774E+005  0.1043930E+01  0.7957747E-01            NaN
         13   -1    0    0    0    0  0.00000000000E+00  0.00000000000E+00  0.74505805969E-08  0.10566000000E+00  0.10566000000E+00 0.  1.
     999900   -1    0    0    0    0 -0.00000000000E+00 -0.00000000000E+00 -0.74505805969E-08  0.93827000000E+00  0.93827000000E+00 0. -1.
     999902    2    1    2    0    0 -0.14069286756E-01 -0.15196317882E-01 -0.11108373710E-01  0.10204295984E+01  0.10201589565E+01 0.  0.
     999903    2    3    3    0    0  0.41428911353E-02 -0.11628904581E+00 -0.61298184228E-01  0.13303428622E+00  0.20008703052E-01 0.  0.
         14    1    1    2    0    0  0.14069286756E-01  0.15196317882E-01  0.11108373710E-01  0.23500401560E-01  0.00000000000E+00 0.  1.
     999901    1    3    3    0    0 -0.18212177892E-01  0.10109272793E+00  0.50189810517E-01  0.88739531222E+00  0.88000000000E+00 0.  1.
        -11    1    4    4    0    0  0.59174653569E-02 -0.10737128147E+00 -0.50193632689E-01  0.11867295549E+00  0.51100000000E-03 0.  1.
         11    1    4    4    0    0 -0.17745742216E-02 -0.89177643407E-02 -0.11104551538E-01  0.14361330731E-01  0.51100000000E-03 0. -1.
</event>
<event>
 8    1  0.1103774E+005  0.1043930E+01  0.7957747E-01            NaN
         13   -1    0    0    0    0  0.00000000000E+00  0.00000000000E+00  0.74505805969E-08  0.10566000000E+00  0.10566000000E+00 0. -1.
     999900   -1    0    0    0    0 -0.00000000000E+00 -0.00000000000E+00 -0.74505805969E-08  0.93827000000E+00  0.93827000000E+00 0. -1.
     999902    2    1    2    0    0  0.10396180614E-01  0.13195514377E-01  0.20916526871E-01  0.10171027141E+01  0.10167488519E+01 0.  0.
     999903    2    3    3    0    0 -0.12141336792E+00 -0.25554762355E-01  0.16959256354E-01  0.12643386375E+00  0.17425663223E-01 0.  0.
         14    1    1    2    0    0 -0.10396180614E-01 -0.13195514377E-01 -0.20916526871E-01  0.26827285874E-01  0.00000000000E+00 0.  1.
     999901    1    3    3    0    0  0.13180954854E+00  0.38750276733E-01  0.39572705166E-02  0.89066885037E+00  0.88000000000E+00 0. -1.
        -11    1    4    4    0    0 -0.37777273057E-01 -0.15838183777E-01  0.82050194526E-02  0.41779826355E-01  0.51100000000E-03 0. -1.
         11    1    4    4    0    0 -0.83636094864E-01 -0.97165785784E-02  0.87542369014E-02  0.84654037400E-01  0.51100000000E-03 0.  1.
</event>
<event>
 8    1  0.1103774E+005  0.1043930E+01  0.7957747E-01            NaN
         13   -1    0    0    0    0  0.00000000000E+00  0.00000000000E+00  0.74505805969E-08  0.10566000000E+00  0.10566000000E+00 0.  1.
     999900   -1    0    0    0    0 -0.00000000000E+00 -0.00000000000E+00 -0.74505805969E-08  0.93827000000E+00  0.93827000000E+00 0. -1.
     999902    2    1    2    0    0  0.75904408166E-02 -0.16649615020E-01 -0.14500197662E-01  0.10205830472E+01  0.10203159687E+01 0.  0.
     999903    2    3    3    0    0 -0.11448423990E+00 -0.27129185245E-01  0.50903490013E-01  0.12969040979E+00  0.19641874076E-01 0.  0.
         14    1    1    2    0    0 -0.75904408166E-02  0.16649615020E-01  0.14500197662E-01  0.23346952785E-01  0.00000000000E+00 0.  1.
     999901    1    3    3    0    0  0.12207468072E+00  0.10479570225E-01 -0.65403687675E-01  0.89089263743E+00  0.88000000000E+00 0. -1.
        -11    1    4    4    0    0 -0.44852046889E-01 -0.19306563666E-01  0.15862309891E-01  0.51345141024E-01  0.51100000000E-03 0.  1.
         11    1    4    4    0    0 -0.69632193012E-01 -0.78226215791E-02  0.35041180121E-01  0.78345268761E-01  0.51100000000E-03 0. -1.
</event>
<event>
 8    1  0.1103774E+005  0.1043930E+01  0.7957747E-01            NaN
         13   -1    0    0    0    0  0.00000000000E+00  0.00000000000E+00  0.74505805969E-08  0.10566000000E+00  0.10566000000E+00 0.  1.
     999900   -1    0    0    0    0 -0.00000000000E+00 -0.00000000000E+00 -0.74505805969E-08  0.93827000000E+00  0.93827000000E+00 0. -1.
     999902    2    1    2    0    0  0.19296811027E-01  0.11955623025E-01  0.13504809572E-03  0.10212292935E+01  0.10209769575E+01 0.  0.
     999903    2    3    3    0    0 -0.49696687707E-01 -0.86212694072E-01  0.80261548516E-01  0.12947967762E+00  0.20510518230E-01 0.  0.
         14    1    1    2    0    0 -0.19296811027E-01 -0.11955623025E-01 -0.13504809572E-03  0.22700706503E-01  0.00000000000E+00 0.  1.
     999901    1    3    3    0    0  0.68993498734E-01  0.98168317096E-01 -0.80126500420E-01  0.89174961588E+00  0.88000000000E+00 0. -1.
        -11    1    4    4    0    0 -0.29177835859E-01 -0.68621236522E-01  0.58584645040E-01  0.94829541614E-01  0.51100000000E-03 0. -1.
         11    1    4    4    0    0 -0.20518851848E-01 -0.17591457549E-01  0.21676903476E-01  0.34650136005E-01  0.51100000000E-03 0.  1.
</event>
<event>
 8    1  0.1103774E+005  0.1043930E+01  0.7957747E-01            NaN
         13   -1    0    0    0    0  0.00000000000E+00  0.00000000000E+00  0.74505805969E-08  0.10566000000E+00  0.10566000000E+00 0.  1.
     999900   -1    0    0    0    0 -0.00000000000E+00 -0.00000000000E+00 -0.74505805969E-08  0.93827000000E+00  0.93827000000E+00 0. -1.
     999902    2    1    2    0    0 -0.50116789605E-02 -0.13707249485E-01  0.18515107131E-01  0.10203542751E+01  0.10200818751E+01 0.  0.
     999903    2    3    3    0    0  0.38160931853E-01 -0.95161547729E-01 -0.77839281750E-01  0.13030773398E+00  0.20228071234E-01 0.  0.
         14    1    1    2    0    0  0.50116789605E-02  0.13707249485E-01 -0.18515107131E-01  0.23575724942E-01  0.00000000000E+00 0. -1.
     999901    1    3    3    0    0 -0.43172610813E-01  0.81454298244E-01  0.96354388881E-01  0.89004654108E+00  0.88000000000E+00 0.  1.
        -11    1    4    4    0    0  0.14333059367E-01 -0.57252954933E-01 -0.36708794709E-01  0.69506360640E-01  0.51100000000E-03 0.  1.
         11    1    4    4    0    0  0.23827872486E-01 -0.37908592796E-01 -0.41130487041E-01  0.60801373341E-01  0.51100000000E-03 0. -1.
</event>
<event>
 8    1  0.1103774E+005  0.1043930E+01  0.7957747E-01            NaN
         13   -1    0    0    0    0  0.00000000000E+00  0.00000000000E+00  0.74505805969E-08  0.10566000000E+00  0.10566000000E+00 0. -1.
     999900   -1    0    0    0    0 -0.00000000000E+00 -0.00000000000E+00 -0.74505805969E-08  0.93827000000E+00  0.93827000000E+00 0. -1.
     999902    2    1    2    0    0  0.15035524370E-01  0.11058499542E-01  0.16491989219E-01  0.10190233119E+01  0.10187188852E+01 0.  0.
     999903    2    3    3    0    0  0.84925271099E-01  0.72939816873E-01 -0.63073128217E-01  0.13051642836E+00  0.22886677613E-01 0.  0.
         14    1    1    2    0    0 -0.15035524370E-01 -0.11058499542E-01 -0.16491989219E-01  0.24906688129E-01  0.00000000000E+00 0.  1.
     999901    1    3    3    0    0 -0.69889746730E-01 -0.61881317331E-01  0.79565117435E-01  0.88850688351E+00  0.88000000000E+00 0. -1.
        -11    1    4    4    0    0  0.45627582927E-01  0.45963585802E-01 -0.47677283430E-01  0.80423330071E-01  0.51100000000E-03 0. -1.
         11    1    4    4    0    0  0.39297688173E-01  0.26976231071E-01 -0.15395844787E-01  0.50093098289E-01  0.51100000000E-03 0.  1.
</event>
<event>
 8    1  0.1103774E+005  0.1043930E+01  0.7957747E-01            NaN
         13   -1    0    0    0    0  0.00000000000E+00  0.00000000000E+00  0.74505805969E-08  0.10566000000E+00  0.10566000000E+00 0.  1.
     999900   -1    0    0    0    0 -0.00000000000E+00 -0.00000000000E+00 -0.74505805969E-08  0.93827000000E+00  0.93827000000E+00 0.  1.
     999902    2    1    2    0    0  0.94523806604E-02  0.21300811113E-01 -0.40504261724E-02  0.10202767126E+01  0.10200024962E+01 0.  0.
     999903    2    3    3    0    0 -0.97943594404E-01  0.58418213664E-01  0.61125488740E-01  0.13058041780E+00  0.17586493887E-01 0.  0.
         14    1    1    2    0    0 -0.94523806604E-02 -0.21300811113E-01  0.40504261724E-02  0.23653287433E-01  0.00000000000E+00 0.  1.
     999901    1    3    3    0    0  0.10739597506E+00 -0.37117402551E-01 -0.65175914913E-01  0.88969629476E+00  0.88000000000E+00 0.  1.
        -11    1    4    4    0    0 -0.50985555600E-01  0.29155164975E-01  0.21599290374E-01  0.62580675852E-01  0.51100000000E-03 0. -1.
         11    1    4    4    0    0 -0.46958038805E-01  0.29263048690E-01  0.39526198366E-01  0.67999741950E-01  0.51100000000E-03 0.  1.
</event>
<event>
 8    1  0.1103774E+005  0.1043930E+01  0.7957747E-01            NaN
         13   -1    0    0    0    0  0.00000000000E+00  0.00000000000E+00  0.74505805969E-08  0.10566000000E+00  0.10566000000E+00 0. -1.
     999900   -1    0    0    0    0 -0.00000000000E+00 -0.00000000000E+00 -0.74505805969E-08  0.93827000000E+00  0.93827000000E+00 0. -1.
     999902    2    1    2    0    0  0.54232963238E-02 -0.21020540866E-02  0.23100136975E-01  0.10201088518E+01  0.10198306832E+01 0.  0.
     999903    2    3    3    0    0  0.56167556560E-01  0.20405341210E-01 -0.11177014385E+00  0.12810461668E+00  0.18629422920E-01 0.  0.
         14    1    1    2    0    0 -0.54232963238E-02  0.21020540866E-02 -0.23100136975E-01  0.23821148223E-01  0.00000000000E+00 0.  1.
     999901    1    3    3    0    0 -0.50744260237E-01 -0.22507395296E-01  0.13487028082E+00  0.89200423510E+00  0.88000000000E+00 0.  1.
        -11    1    4    4    0    0  0.21887933270E-01  0.17794132552E-01 -0.50341447434E-01  0.57708190293E-01  0.51100000000E-03 0.  1.
         11    1    4    4    0    0  0.34279623290E-01  0.26112086579E-02 -0.61428696412E-01  0.70396426383E-01  0.51100000000E-03 0. -1.
</event>
<event>
 8    1  0.1103774E+005  0.1043930E+01  0.7957747E-01            NaN
         13   -1    0    0    0    0  0.00000000000E+00  0.00000000000E+00  0.74505805969E-08  0.10566000000E+00  0.10566000000E+00 0. -1.
     999900   -1    0    0    0    0 -0.00000000000E+00 -0.00000000000E+00 -0.74505805969E-08  0.93827000000E+00  0.93827000000E+00 0.  1.
     999902    2    1    2    0    0 -0.11973997896E-01 -0.15256363148E-02  0.21131653459E-01  0.10195937930E+01  0.10193033169E+01 0.  0.
     999903    2    3    3    0    0  0.10595534903E+00 -0.63443688349E-01 -0.28129496016E-01  0.12820844601E+00  0.19862011547E-01 0.  0.
         14    1    1    2    0    0  0.11973997896E-01  0.15256363148E-02 -0.21131653459E-01  0.24336206970E-01  0.00000000000E+00 0.  1.
     999901    1    3    3    0    0 -0.11792934693E+00  0.61918052035E-01  0.49261149475E-01  0.89138534702E+00  0.88000000000E+00 0. -1.
        -11    1    4    4    0    0  0.49249147019E-01 -0.39688611888E-01 -0.19045694857E-01  0.66058035161E-01  0.51100000000E-03 0.  1.
         11    1    4    4    0    0  0.56706202012E-01 -0.23755076461E-01 -0.90838011587E-02  0.62150410850E-01  0.51100000000E-03 0. -1.
</event>
<event>
 8    1  0.1103774E+005  0.1043930E+01  0.7957747E-01            NaN
         13   -1    0    0    0    0  0.00000000000E+00  0.00000000000E+00  0.74505805969E-08  0.10566000000E+00  0.10566000000E+00 0. -1.
     999900   -1    0    0    0    0 -0.00000000000E+00 -0.00000000000E+00 -0.74505805969E-08  0.93827000000E+00  0.93827000000E+00 0.  1.
     999902    2    1    2    0    0 -0.41945442713E-02  0.19661356676E-01  0.11995055865E-01  0.10205196494E+01  0.10202511016E+01 0.  0.
     999903    2    3    3    0    0  0.85678421869E-01 -0.68474725464E-01 -0.63678453463E-01  0.12834724512E+00  0.19710146975E-01 0.  0.
         14    1    1    2    0    0  0.41945442713E-02 -0.19661356676E-01 -0.11995055865E-01  0.23410350556E-01  0.00000000000E+00 0. -1.
     999901    1    3    3    0    0 -0.89872966141E-01  0.88136082140E-01  0.75673509327E-01  0.89217240432E+00  0.88000000000E+00 0. -1.
        -11    1    4    4    0    0  0.29517344510E-01 -0.29962843180E-01 -0.15076652395E-01  0.44683466370E-01  0.51100000000E-03 0. -1.
         11    1    4    4    0    0  0.56161077359E-01 -0.38511882284E-01 -0.48601801068E-01  0.83663778753E-01  0.51100000000E-03 0.  1.
</event>
<event>
 8    1  0.1103774E+005  0.1043930E+01  0.7957747E-01            NaN
         13   -1    0    0    0    0  0.00000000000E+00  0.00000000000E+00  0.74505805969E-08  0.10566000000E+00  0.10566000000E+00 0.  1.
     999900   -1    0    0    0    0 -0.00000000000E+00 -0.00000000000E+00 -0.74505805969E-08  0.93827000000E+00  0.93827000000E+00 0. -1.
     999902    2    1    2    0    0 -0.15827944071E-02 -0.99701730071E-02 -0.21883819515E-01  0.10198299763E+01  0.10195451777E+01 0.  0.
     999903    2    3    3    0    0  0.13900697317E-01 -0.25516604486E-01 -0.12841995033E+00  0.13313308486E+00  0.19708073237E-01 0.  0.
         14    1    1    2    0    0  0.15827944071E-02  0.99701730071E-02  0.21883819515E-01  0.24100023744E-01  0.00000000000E+00 0.  1.
     999901    1    3    3    0    0 -0.15483491724E-01  0.15546431478E-01  0.10653613081E+00  0.88669689140E+00  0.88000000000E+00 0.  1.
        -11    1    4    4    0    0 -0.27029863622E-02 -0.11556667086E-01 -0.65711381727E-01  0.66776563994E-01  0.51100000000E-03 0.  1.
         11    1    4    4    0    0  0.16603683679E-01 -0.13959937399E-01 -0.62708568602E-01  0.66356520863E-01  0.51100000000E-03 0. -1.
</event>
<event>
 8    1  0.1103774E+005  0.1043930E+01  0.7957747E-01            NaN
         13   -1    0    0    0    0  0.00000000000E+00  0.00000000000E+00  0.74505805969E-08  0.10566000000E+00  0.10566000000E+00 0.  1.
     999900   -1    0    0    0    0 -0.00000000000E+00 -0.00000000000E+00 -0.74505805969E-08  0.93827000000E+00  0.93827000000E+00 0. -1.
     999902    2    1    2    0    0  0.17962133520E-01  0.12438906243E-01 -0.61868287950E-02  0.10212222595E+01  0.10209697654E+01 0.  0.
     999903    2    3    3    0    0  0.67604858043E-01 -0.93010392623E-01 -0.61343689359E-01  0.13182570338E+00  0.19839805460E-01 0.  0.
         14    1    1    2    0    0 -0.17962133520E-01 -0.12438906243E-01  0.61868287950E-02  0.22707740522E-01  0.00000000000E+00 0. -1.
     999901    1    3    3    0    0 -0.49642724523E-01  0.10544929887E+00  0.55156860564E-01  0.88939655610E+00  0.88000000000E+00 0.  1.
        -11    1    4    4    0    0  0.94302939296E-02 -0.21954904724E-01 -0.61370100500E-02  0.24675337858E-01  0.51100000000E-03 0. -1.
         11    1    4    4    0    0  0.58174564114E-01 -0.71055487899E-01 -0.55206679309E-01  0.10715036552E+00  0.51100000000E-03 0.  1.
</event>
<event>
 8    1  0.1103774E+005  0.1043930E+01  0.7957747E-01            NaN
         13   -1    0    0    0    0  0.00000000000E+00  0.00000000000E+00  0.74505805969E-08  0.10566000000E+00  0.10566000000E+00 0.  1.
     999900   -1    0    0    0    0 -0.00000000000E+00 -0.00000000000E+00 -0.74505805969E-08  0.93827000000E+00  0.93827000000E+00 0.  1.
     999902    2    1    2    0    0  0.16643066099E-01 -0.32349469659E-02  0.16644814769E-01  0.10201706568E+01  0.10198939467E+01 0.  0.
     999903    2    3    3    0    0 -0.92985419454E-01  0.86043750137E-01 -0.11280708163E-01  0.12844820814E+00  0.17940809021E-01 0.  0.
         14    1    1    2    0    0 -0.16643066099E-01  0.32349469659E-02 -0.16644814769E-01  0.23759343210E-01  0.00000000000E+00 0. -1.
     999901    1    3    3    0    0  0.10962848555E+00 -0.89278697103E-01  0.27925522932E-01  0.89172244865E+00  0.88000000000E+00 0.  1.
        -11    1    4    4    0    0 -0.17370930113E-01  0.15210506164E-01  0.48245711019E-02  0.23593353260E-01  0.51100000000E-03 0.  1.
         11    1    4    4    0    0 -0.75614489341E-01  0.70833243973E-01 -0.16105279265E-01  0.10485485488E+00  0.51100000000E-03 0. -1.
</event>
<event>
 8    1  0.1103774E+005  0.1043930E+01  0.7957747E-01            NaN
         13   -1    0    0    0    0  0.00000000000E+00  0.00000000000E+00  0.74505805969E-08  0.10566000000E+00  0.10566000000E+00 0. -1.
     999900   -1    0    0    0    0 -0.00000000000E+00 -0.00000000000E+00 -0.74505805969E-08  0.93827000000E+00  0.93827000000E+00 0.  1.
     999902    2    1    2    0    0  0.22006822440E-01  0.54600064002E-02 -0.78242326923E-02  0.10199439515E+01  0.10196618723E+01 0.  0.
     999903    2    3    3    0    0  0.12446139666E+00 -0.13456735746E-01 -0.37417221534E-01  0.13330392994E+00  0.26422836222E-01 0.  0.
         14    1    1    2    0    0 -0.22006822440E-01 -0.54600064002E-02  0.78242326923E-02  0.23986048466E-01  0.00000000000E+00 0. -1.
     999901    1    3    3    0    0 -0.10245457422E+00  0.18916742146E-01  0.29592988842E-01  0.88664002160E+00  0.88000000000E+00 0.  1.
        -11    1    4    4    0    0  0.53524513230E-01 -0.17814602825E-01 -0.10970415863E-01  0.57470381376E-01  0.51100000000E-03 0. -1.
         11    1    4    4    0    0  0.70936883428E-01  0.43578670788E-02 -0.26446805671E-01  0.75833548559E-01  0.51100000000E-03 0.  1.
</event>
<event>
 8    1  0.1103774E+005  0.1043930E+01  0.7957747E-01            NaN
         13   -1    0    0    0    0  0.00000000000E+00  0.00000000000E+00  0.74505805969E-08  0.10566000000E+00  0.10566000000E+00 0.  1.
     999900   -1    0    0    0    0 -0.00000000000E+00 -0.00000000000E+00 -0.74505805969E-08  0.93827000000E+00  0.93827000000E+00 0. -1.
     999902    2    1    2    0    0  0.17337887821E-01  0.12222567766E-01  0.12417651565E-01  0.10193496911E+01  0.10190532867E+01 0.  0.
     999903    2    3    3    0    0  0.84136092033E-02  0.12894831633E+00 -0.12060503146E-01  0.13125976139E+00  0.19626821475E-01 0.  0.
         14    1    1    2    0    0 -0.17337887821E-01 -0.12222567766E-01 -0.12417651565E-01  0.24580308933E-01  0.00000000000E+00 0.  1.
     999901    1    3    3    0    0  0.89242786176E-02 -0.11672574856E+00  0.24478154711E-01  0.88808992967E+00  0.88000000000E+00 0. -1.
        -11    1    4    4    0    0  0.30078530530E-02  0.48785502833E-01 -0.14144787652E-01  0.50886231983E-01  0.51100000000E-03 0. -1.
         11    1    4    4    0    0  0.54057561503E-02  0.80162813496E-01  0.20842845068E-02  0.80373529412E-01  0.51100000000E-03 0.  1.
</event>
<event>
 8    1  0.1103774E+005  0.1043930E+01  0.7957747E-01            NaN
         13   -1    0    0    0    0  0.00000000000E+00  0.00000000000E+00  0.74505805969E-08  0.10566000000E+00  0.10566000000E+00 0.  1.
     999900   -1    0    0    0    0 -0.00000000000E+00 -0.00000000000E+00 -0.74505805969E-08  0.93827000000E+00  0.93827000000E+00 0. -1.
     999902    2    1    2    0    0 -0.95587210037E-02  0.99124119229E-02 -0.19189139310E-01  0.10203111913E+01  0.10200377831E+01 0.  0.
     999903    2    3    3    0    0 -0.19357555955E-01  0.98494908176E-01 -0.85529681951E-01  0.13332531575E+00  0.19604882461E-01 0.  0.
         14    1    1    2    0    0  0.95587210037E-02 -0.99124119229E-02  0.19189139310E-01  0.23618808709E-01  0.00000000000E+00 0. -1.
     999901    1    3    3    0    0  0.97988349515E-02 -0.88582496253E-01  0.66340542641E-01  0.88698587554E+00  0.88000000000E+00 0.  1.
        -11    1    4    4    0    0  0.14939251255E-02  0.14953078526E-01 -0.20493882733E-01  0.25418235977E-01  0.51100000000E-03 0. -1.
         11    1    4    4    0    0 -0.20851481081E-01  0.83541829650E-01 -0.65035799218E-01  0.10790707977E+00  0.51100000000E-03 0.  1.
</event>
<event>
 8    1  0.1103774E+005  0.1043930E+01  0.7957747E-01            NaN
         13   -1    0    0    0    0  0.00000000000E+00  0.00000000000E+00  0.74505805969E-08  0.10566000000E+00  0.10566000000E+00 0. -1.
     999900   -1    0    0    0    0 -0.00000000000E+00 -0.00000000000E+00 -0.74505805969E-08  0.93827000000E+00  0.93827000000E+00 0.  1.
     999902    2    1    2    0    0 -0.97408157127E-02 -0.18179395269E-01  0.11185337163E-01  0.10204675690E+01  0.10201978110E+01 0.  0.
     999903    2    3    3    0    0  0.16218471952E-01 -0.39216749369E-01  0.12399674398E+00  0.13263714123E+00  0.20406529656E-01 0.  0.
         14    1    1    2    0    0  0.97408157127E-02  0.18179395269E-01 -0.11185337163E-01  0.23462431045E-01  0.00000000000E+00 0. -1.
     999901    1    3    3    0    0 -0.25959287665E-01  0.21037354101E-01 -0.11281140682E+00  0.88783042772E+00  0.88000000000E+00 0.  1.
        -11    1    4    4    0    0  0.11013540391E-01 -0.33570863676E-01  0.73445144551E-01  0.81503075642E-01  0.51100000000E-03 0.  1.
         11    1    4    4    0    0  0.52049315609E-02 -0.56458856931E-02  0.50551599430E-01  0.51134065590E-01  0.51100000000E-03 0. -1.
</event>
<event>
 8    1  0.1103774E+005  0.1043930E+01  0.7957747E-01            NaN
         13   -1    0    0    0    0  0.00000000000E+00  0.00000000000E+00  0.74505805969E-08  0.10566000000E+00  0.10566000000E+00 0.  1.
     999900   -1    0    0    0    0 -0.00000000000E+00 -0.00000000000E+00 -0.74505805969E-08  0.93827000000E+00  0.93827000000E+00 0.  1.
     999902    2    1    2    0    0  0.20182994605E-01  0.24967912299E-02 -0.47924906627E-02  0.10230360965E+01  0.10228227117E+01 0.  0.
     999903    2    3    3    0    0 -0.71292959020E-01  0.14274034481E-01  0.10727783921E+00  0.13114691480E+00  0.20113289403E-01 0.  0.
         14    1    1    2    0    0 -0.20182994605E-01 -0.24967912299E-02  0.47924906627E-02  0.20893903522E-01  0.00000000000E+00 0. -1.
     999901    1    3    3    0    0  0.91475953624E-01 -0.11777243251E-01 -0.11207032987E+00  0.89188918167E+00  0.88000000000E+00 0.  1.
        -11    1    4    4    0    0 -0.25915182092E-01 -0.41188082364E-02  0.42377601845E-01  0.49846599716E-01  0.51100000000E-03 0. -1.
         11    1    4    4    0    0 -0.45377776928E-01  0.18392842718E-01  0.64900237365E-01  0.81300315087E-01  0.51100000000E-03 0.  1.
</event>
<event>
 8    1  0.1103774E+005  0.1043930E+01  0.7957747E-01            NaN
         13   -1    0    0    0    0  0.00000000000E+00  0.00000000000E+00  0.74505805969E-08  0.10566000000E+00  0.10566000000E+00 0.  1.
     999900   -1    0    0    0    0 -0.00000000000E+00 -0.00000000000E+00 -0.74505805969E-08  0.93827000000E+00  0.93827000000E+00 0.  1.
     999902    2    1    2    0    0  0.75143783333E-02 -0.14018865947E-01  0.16911142512E-01  0.10207140308E+01  0.10204499750E+01 0.  0.
     999903    2    3    3    0    0  0.92042509632E-01 -0.25405777511E-01  0.91207823822E-01  0.13347411761E+00  0.19472951346E-01 0.  0.
         14    1    1    2    0    0 -0.75143783333E-02  0.14018865947E-01 -0.16911142512E-01  0.23215969186E-01  0.00000000000E+00 0. -1.
     999901    1    3    3    0    0 -0.84528131298E-01  0.11386911564E-01 -0.74296681309E-01  0.88723991321E+00  0.88000000000E+00 0.  1.
        -11    1    4    4    0    0  0.67895684055E-01 -0.17148596637E-01  0.77678706042E-01  0.10458556675E+00  0.51100000000E-03 0. -1.
         11    1    4    4    0    0  0.24146825576E-01 -0.82571808742E-02  0.13529117779E-01  0.28888550851E-01  0.51100000000E-03 0.  1.
</event>
<event>
 8    1  0.1103774E+005  0.1043930E+01  0.7957747E-01            NaN
         13   -1    0    0    0    0  0.00000000000E+00  0.00000000000E+00  0.74505805969E-08  0.10566000000E+00  0.10566000000E+00 0. -1.
     999900   -1    0    0    0    0 -0.00000000000E+00 -0.00000000000E+00 -0.74505805969E-08  0.93827000000E+00  0.93827000000E+00 0.  1.
     999902    2    1    2    0    0 -0.21818483623E-02 -0.23636190147E-01  0.18661829966E-02  0.10201200738E+01  0.10198421703E+01 0.  0.
     999903    2    3    3    0    0 -0.45217331457E-02 -0.84238333217E-01  0.10027720804E+00  0.13256003377E+00  0.20002530981E-01 0.  0.
         14    1    1    2    0    0  0.21818483623E-02  0.23636190147E-01 -0.18661829966E-02  0.23809926205E-01  0.00000000000E+00 0. -1.
     999901    1    3    3    0    0  0.23398847834E-02  0.60602143070E-01 -0.98411025045E-01  0.88756004003E+00  0.88000000000E+00 0.  1.
        -11    1    4    4    0    0 -0.26742016554E-02 -0.37803215708E-01  0.60477981572E-01  0.71372836909E-01  0.51100000000E-03 0.  1.
         11    1    4    4    0    0 -0.18475314903E-02 -0.46435117509E-01  0.39799226469E-01  0.61187196857E-01  0.51100000000E-03 0. -1.
</event>
<event>
 8    1  0.1103774E+005  0.1043930E+01  0.7957747E-01            NaN
         13   -1    0    0    0    0  0.00000000000E+00  0.00000000000E+00  0.74505805969E-08  0.10566000000E+00  0.10566000000E+00 0.  1.
     999900   -1    0    0    0    0 -0.00000000000E+00 -0.00000000000E+00 -0.74505805969E-08  0.93827000000E+00  0.93827000000E+00 0.  1.
     999902    2    1    2    0    0 -0.17860596747E-01 -0.15308218109E-01  0.98758446126E-02  0.10184177527E+01  0.10180981506E+01 0.  0.
     999903    2    3    3    0    0 -0.37456806759E-01  0.56843448506E-01 -0.10623307543E+00  0.12764777350E+00  0.19346776342E-01 0.  0.
         14    1    1    2    0    0  0.17860596747E-01  0.15308218109E-01 -0.98758446126E-02  0.25512247346E-01  0.00000000000E+00 0. -1.
     999901    1    3    3    0    0  0.19596210011E-01 -0.72151666614E-01  0.11610892004E+00  0.89076997915E+00  0.88000000000E+00 0.  1.
        -11    1    4    4    0    0 -0.21165279549E-01  0.38353829446E-01 -0.82607355057E-01  0.93505195161E-01  0.51100000000E-03 0. -1.
         11    1    4    4    0    0 -0.16291527210E-01  0.18489619060E-01 -0.23625720372E-01  0.34142578343E-01  0.51100000000E-03 0.  1.
</event>
<event>
 8    1  0.1103774E+005  0.1043930E+01  0.7957747E-01            NaN
         13   -1    0    0    0    0  0.00000000000E+00  0.00000000000E+00  0.74505805969E-08  0.10566000000E+00  0.10566000000E+00 0. -1.
     999900   -1    0    0    0    0 -0.00000000000E+00 -0.00000000000E+00 -0.74505805969E-08  0.93827000000E+00  0.93827000000E+00 0. -1.
     999902    2    1    2    0    0  0.19221286304E-01  0.12461604348E-01 -0.75947556057E-02  0.10197964188E+01  0.10195108170E+01 0.  0.
     999903    2    3    3    0    0  0.93405613651E-01 -0.68995259345E-01 -0.58404940430E-01  0.13147203548E+00  0.19718128048E-01 0.  0.
         14    1    1    2    0    0 -0.19221286304E-01 -0.12461604348E-01  0.75947556057E-02  0.24133581227E-01  0.00000000000E+00 0. -1.
     999901    1    3    3    0    0 -0.74184327347E-01  0.81456863693E-01  0.50810184824E-01  0.88832438329E+00  0.88000000000E+00 0.  1.
        -11    1    4    4    0    0  0.44529422669E-01 -0.44166414648E-01 -0.35370510787E-01  0.72006081830E-01  0.51100000000E-03 0. -1.
         11    1    4    4    0    0  0.48876190982E-01 -0.24828844697E-01 -0.23034429643E-01  0.59465953653E-01  0.51100000000E-03 0.  1.
</event>
<event>
 8    1  0.1103774E+005  0.1043930E+01  0.7957747E-01            NaN
         13   -1    0    0    0    0  0.00000000000E+00  0.00000000000E+00  0.74505805969E-08  0.10566000000E+00  0.10566000000E+00 0.  1.
     999900   -1    0    0    0    0 -0.00000000000E+00 -0.00000000000E+00 -0.74505805969E-08  0.93827000000E+00  0.93827000000E+00 0.  1.
     999902    2    1    2    0    0 -0.53837563589E-02 -0.21931414026E-01 -0.49403206861E-02  0.10208133713E+01  0.10205515962E+01 0.  0.
     999903    2    3    3    0    0 -0.11948704774E+00 -0.51576634235E-01 -0.14517715713E-01  0.13290001591E+00  0.22679205970E-01 0.  0.
         14    1    1    2    0    0  0.53837563589E-02  0.21931414026E-01  0.49403206861E-02  0.23116628694E-01  0.00000000000E+00 0. -1.
     999901    1    3    3    0    0  0.11410329138E+00  0.29645220209E-01  0.95773950266E-02  0.88791335539E+00  0.88000000000E+00 0.  1.
        -11    1    4    4    0    0 -0.69835920911E-01 -0.40594395914E-01 -0.34304808060E-02  0.80851655200E-01  0.51100000000E-03 0. -1.
         11    1    4    4    0    0 -0.49651126831E-01 -0.10982238321E-01 -0.11087234907E-01  0.52048360714E-01  0.51100000000E-03 0.  1.
</event>
<event>
 8    1  0.1103774E+005  0.1043930E+01  0.7957747E-01            NaN
         13   -1    0    0    0    0  0.00000000000E+00  0.00000000000E+00  0.74505805969E-08  0.10566000000E+00  0.10566000000E+00 0.  1.
     999900   -1    0    0    0    0 -0.00000000000E+00 -0.00000000000E+00 -0.74505805969E-08  0.93827000000E+00  0.93827000000E+00 0. -1.
     999902    2    1    2    0    0 -0.20071387100E-01 -0.91711507148E-02 -0.64323903753E-02  0.10209442168E+01  0.10206854302E+01 0.  0.
     999903    2    3    3    0    0  0.73821012414E-01  0.20268603928E-01 -0.10334410566E+00  0.13017243768E+00  0.20112214630E-01 0.  0.
         14    1    1    2    0    0  0.20071387100E-01  0.91711507148E-02  0.64323903753E-02  0.22985783247E-01  0.00000000000E+00 0. -1.
     999901    1    3    3    0    0 -0.93892399514E-01 -0.29439754643E-01  0.96911715282E-01  0.89077177908E+00  0.88000000000E+00 0.  1.
        -11    1    4    4    0    0  0.21937841328E-01 -0.31629661219E-02 -0.26934508152E-01  0.34885557000E-01  0.51100000000E-03 0. -1.
         11    1    4    4    0    0  0.51883171086E-01  0.23431570050E-01 -0.76409597506E-01  0.95286880676E-01  0.51100000000E-03 0.  1.
</event>
<event>
 8    1  0.1258293E+005  0.1043930E+01  0.7957747E-01            NaN
         13   -1    0    0    0    0  0.00000000000E+00  0.00000000000E+00  0.74505805969E-08  0.10566000000E+00  0.10566000000E+00 0.  1.
     999900   -1    0    0    0    0 -0.00000000000E+00 -0.00000000000E+00 -0.74505805969E-08  0.93827000000E+00  0.93827000000E+00 0.  1.
     999902    2    1    2    0    0  0.16736003252E-01  0.41290360391E-02 -0.16357902305E-01  0.10201660838E+01  0.10198892660E+01 0.  0.
     999903    2    3    3    0    0 -0.14859046054E-01 -0.17991463451E-01  0.12459315166E+00  0.12811520903E+00  0.18589495355E-01 0.  0.
         14    1    1    2    0    0 -0.16736003252E-01 -0.41290360391E-02  0.16357902305E-01  0.23763916161E-01  0.00000000000E+00 0.  1.
     999901    1    3    3    0    0  0.31595049306E-01  0.22120499490E-01 -0.14095105396E+00  0.89205087481E+00  0.88000000000E+00 0.  1.
        -11    1    4    4    0    0 -0.44892833113E-02  0.28878125022E-02  0.40338009695E-01  0.40692865135E-01  0.51100000000E-03 0. -1.
         11    1    4    4    0    0 -0.10369762743E-01 -0.20879275954E-01  0.84255141962E-01  0.87422343893E-01  0.51100000000E-03 0.  1.
</event>
<event>
 8    1  0.1103774E+005  0.1043930E+01  0.7957747E-01            NaN
         13   -1    0    0    0    0  0.00000000000E+00  0.00000000000E+00  0.74505805969E-08  0.10566000000E+00  0.10566000000E+00 0. -1.
     999900   -1    0    0    0    0 -0.00000000000E+00 -0.00000000000E+00 -0.74505805969E-08  0.93827000000E+00  0.93827000000E+00 0. -1.
     999902    2    1    2    0    0 -0.17906486589E-01  0.16138980792E-01 -0.25312977928E-02  0.10196912618E+01  0.10194031356E+01 0.  0.
     999903    2    3    3    0    0 -0.56058857199E-02 -0.11227858912E+00 -0.58835210838E-01  0.12850524994E+00  0.20349685438E-01 0.  0.
         14    1    1    2    0    0  0.17906486589E-01 -0.16138980792E-01  0.25312977928E-02  0.24238738240E-01  0.00000000000E+00 0. -1.
     999901    1    3    3    0    0 -0.12300600870E-01  0.12841756991E+00  0.56303913046E-01  0.89118601182E+00  0.88000000000E+00 0. -1.
        -11    1    4    4    0    0  0.71860734658E-03 -0.69145593353E-01 -0.46016181296E-01  0.83062503807E-01  0.51100000000E-03 0.  1.
         11    1    4    4    0    0 -0.63244930665E-02 -0.43132995768E-01 -0.12819029543E-01  0.45442746130E-01  0.51100000000E-03 0. -1.
</event>
<event>
 8    1  0.1103774E+005  0.1043930E+01  0.7957747E-01            NaN
         13   -1    0    0    0    0  0.00000000000E+00  0.00000000000E+00  0.74505805969E-08  0.10566000000E+00  0.10566000000E+00 0. -1.
     999900   -1    0    0    0    0 -0.00000000000E+00 -0.00000000000E+00 -0.74505805969E-08  0.93827000000E+00  0.93827000000E+00 0.  1.
     999902    2    1    2    0    0 -0.34342897133E-02 -0.15801009042E-01 -0.15436622580E-01  0.10215747870E+01  0.10213301571E+01 0.  0.
     999903    2    3    3    0    0 -0.37283730967E-01 -0.95184503134E-01 -0.85112345253E-01  0.13461242580E+00  0.20645281175E-01 0.  0.
         14    1    1    2    0    0  0.34342897133E-02  0.15801009042E-01  0.15436622580E-01  0.22355213022E-01  0.00000000000E+00 0.  1.
     999901    1    3    3    0    0  0.33849441254E-01  0.79383494092E-01  0.69675722673E-01  0.88696236117E+00  0.88000000000E+00 0. -1.
        -11    1    4    4    0    0 -0.20949612329E-01 -0.46130595634E-01 -0.54989587308E-01  0.74773216753E-01  0.51100000000E-03 0. -1.
         11    1    4    4    0    0 -0.16334118639E-01 -0.49053907500E-01 -0.30122757946E-01  0.59839209052E-01  0.51100000000E-03 0.  1.
</event>
<event>
 8    1  0.1103774E+005  0.1043930E+01  0.7957747E-01            NaN
         13   -1    0    0    0    0  0.00000000000E+00  0.00000000000E+00  0.74505805969E-08  0.10566000000E+00  0.10566000000E+00 0. -1.
     999900   -1    0    0    0    0 -0.00000000000E+00 -0.00000000000E+00 -0.74505805969E-08  0.93827000000E+00  0.93827000000E+00 0. -1.
     999902    2    1    2    0    0  0.15485433391E-01  0.60033769159E-03  0.17999145855E-01  0.10201786147E+01  0.10199020921E+01 0.  0.
     999903    2    3    3    0    0  0.76901368279E-01  0.61908374995E-02 -0.10241872939E+00  0.12983955825E+00  0.20409993709E-01 0.  0.
         14    1    1    2    0    0 -0.15485433391E-01 -0.60033769159E-03 -0.17999145855E-01  0.23751385310E-01  0.00000000000E+00 0.  1.
     999901    1    3    3    0    0 -0.61415934888E-01 -0.55904998079E-02  0.12041787525E+00  0.89033905644E+00  0.88000000000E+00 0.  1.
        -11    1    4    4    0    0  0.38644173718E-01 -0.29423877758E-02 -0.64211319412E-01  0.75002563088E-01  0.51100000000E-03 0.  1.
         11    1    4    4    0    0  0.38257194561E-01  0.91332252753E-02 -0.38207409982E-01  0.54836995160E-01  0.51100000000E-03 0. -1.
</event>
<event>
 8    1  0.1103774E+005  0.1043930E+01  0.7957747E-01            NaN
         13   -1    0    0    0    0  0.00000000000E+00  0.00000000000E+00  0.74505805969E-08  0.10566000000E+00  0.10566000000E+00 0.  1.
     999900   -1    0    0    0    0 -0.00000000000E+00 -0.00000000000E+00 -0.74505805969E-08  0.93827000000E+00  0.93827000000E+00 0.  1.
     999902    2    1    2    0    0  0.22648476721E-01  0.28637325608E-02  0.70560767626E-02  0.10200355931E+01  0.10197556906E+01 0.  0.
     999903    2    3    3    0    0 -0.21357635490E-01  0.11735702673E+00  0.49063022001E-01  0.13053582594E+00  0.20089833476E-01 0.  0.
         14    1    1    2    0    0 -0.22648476721E-01 -0.28637325608E-02 -0.70560767626E-02  0.23894406903E-01  0.00000000000E+00 0.  1.
     999901    1    3    3    0    0  0.44006112212E-01 -0.11449329417E+00 -0.42006945239E-01  0.88949976716E+00  0.88000000000E+00 0. -1.
        -11    1    4    4    0    0 -0.91015079522E-02  0.88899179562E-01  0.30576166306E-01  0.94451387713E-01  0.51100000000E-03 0.  1.
         11    1    4    4    0    0 -0.12256127538E-01  0.28457847169E-01  0.18486855695E-01  0.36084438228E-01  0.51100000000E-03 0. -1.
</event>
<event>
 8    1  0.1103774E+005  0.1043930E+01  0.7957747E-01            NaN
         13   -1    0    0    0    0  0.00000000000E+00  0.00000000000E+00  0.74505805969E-08  0.10566000000E+00  0.10566000000E+00 0.  1.
     999900   -1    0    0    0    0 -0.00000000000E+00 -0.00000000000E+00 -0.74505805969E-08  0.93827000000E+00  0.93827000000E+00 0.  1.
     999902    2    1    2    0    0 -0.21395954004E-01 -0.13831927382E-01 -0.14427931969E-01  0.10146507534E+01  0.10142282174E+01 0.  0.
     999903    2    3    3    0    0 -0.84917319558E-02 -0.74359718114E-01  0.98388969168E-01  0.12529267835E+00  0.20405607218E-01 0.  0.
         14    1    1    2    0    0  0.21395954004E-01  0.13831927382E-01  0.14427931969E-01  0.29279246639E-01  0.00000000000E+00 0.  1.
     999901    1    3    3    0    0 -0.12904222048E-01  0.60527790732E-01 -0.11281690114E+00  0.88935807501E+00  0.88000000000E+00 0.  1.
        -11    1    4    4    0    0 -0.54672934482E-02 -0.56316751386E-01  0.86851766903E-01  0.10365789077E+00  0.51100000000E-03 0.  1.
         11    1    4    4    0    0 -0.30244385077E-02 -0.18042966727E-01  0.11537202265E-01  0.21634787582E-01  0.51100000000E-03 0. -1.
</event>
<event>
 8    1  0.1103774E+005  0.1043930E+01  0.7957747E-01            NaN
         13   -1    0    0    0    0  0.00000000000E+00  0.00000000000E+00  0.74505805969E-08  0.10566000000E+00  0.10566000000E+00 0.  1.
     999900   -1    0    0    0    0 -0.00000000000E+00 -0.00000000000E+00 -0.74505805969E-08  0.93827000000E+00  0.93827000000E+00 0.  1.
     999902    2    1    2    0    0  0.21713571985E-01 -0.94713011827E-02  0.78272233805E-03  0.10202277341E+01  0.10199523675E+01 0.  0.
     999903    2    3    3    0    0 -0.29770789591E-01  0.35183020309E-01  0.11948741141E+00  0.12964620997E+00  0.20168129437E-01 0.  0.
         14    1    1    2    0    0 -0.21713571985E-01  0.94713011827E-02 -0.78272233805E-03  0.23702265898E-01  0.00000000000E+00 0. -1.
     999901    1    3    3    0    0  0.51484361576E-01 -0.44654321491E-01 -0.11870468907E+00  0.89058152413E+00  0.88000000000E+00 0. -1.
        -11    1    4    4    0    0 -0.50722224276E-02  0.20409569792E-01  0.41740301045E-01  0.46741756832E-01  0.51100000000E-03 0.  1.
         11    1    4    4    0    0 -0.24698567163E-01  0.14773450516E-01  0.77747110360E-01  0.82904453140E-01  0.51100000000E-03 0. -1.
</event>
<event>
 8    1  0.1103774E+005  0.1043930E+01  0.7957747E-01            NaN
         13   -1    0    0    0    0  0.00000000000E+00  0.00000000000E+00  0.74505805969E-08  0.10566000000E+00  0.10566000000E+00 0. -1.
     999900   -1    0    0    0    0 -0.00000000000E+00 -0.00000000000E+00 -0.74505805969E-08  0.93827000000E+00  0.93827000000E+00 0.  1.
     999902    2    1    2    0    0  0.12387604103E-01 -0.17009453652E-01 -0.14474139185E-02  0.10228380760E+01  0.10226205848E+01 0.  0.
     999903    2    3    3    0    0  0.11205638508E+00 -0.68939155896E-01  0.24865406942E-01  0.13530051379E+00  0.19460213675E-01 0.  0.
         14    1    1    2    0    0 -0.12387604103E-01  0.17009453652E-01  0.14474139185E-02  0.21091923952E-01  0.00000000000E+00 0. -1.
     999901    1    3    3    0    0 -0.99668780979E-01  0.51929702244E-01 -0.26312820860E-01  0.88753756226E+00  0.88000000000E+00 0.  1.
        -11    1    4    4    0    0  0.79916571168E-01 -0.58576044817E-01  0.15860573858E-01  0.10034754754E+00  0.51100000000E-03 0. -1.
         11    1    4    4    0    0  0.32139813914E-01 -0.10363111078E-01  0.90048330839E-02  0.34952966247E-01  0.51100000000E-03 0.  1.
</event>
<event>
 8    1  0.1103774E+005  0.1043930E+01  0.7957747E-01            NaN
         13   -1    0    0    0    0  0.00000000000E+00  0.00000000000E+00  0.74505805969E-08  0.10566000000E+00  0.10566000000E+00 0. -1.
     999900   -1    0    0    0    0 -0.00000000000E+00 -0.00000000000E+00 -0.74505805969E-08  0.93827000000E+00  0.93827000000E+00 0.  1.
     999902    2    1    2    0    0 -0.15044708893E-01  0.19769906751E-02  0.19305596980E-01  0.10193748003E+01  0.10190790085E+01 0.  0.
     999903    2    3    3    0    0 -0.41488065577E-01 -0.93325795018E-01  0.80209023672E-01  0.13174250060E+00  0.22172852448E-01 0.  0.
         14    1    1    2    0    0  0.15044708893E-01 -0.19769906751E-02 -0.19305596980E-01  0.24555199705E-01  0.00000000000E+00 0. -1.
     999901    1    3    3    0    0  0.26443356684E-01  0.95302785693E-01 -0.60903426692E-01  0.88763229969E+00  0.88000000000E+00 0.  1.
        -11    1    4    4    0    0 -0.21262818009E-01 -0.24954161091E-01  0.19896331703E-01  0.38352871101E-01  0.51100000000E-03 0.  1.
         11    1    4    4    0    0 -0.20225247568E-01 -0.68371633927E-01  0.60312691969E-01  0.93389629502E-01  0.51100000000E-03 0. -1.
</event>
<event>
 8    1  0.1103774E+005  0.1043930E+01  0.7957747E-01            NaN
         13   -1    0    0    0    0  0.00000000000E+00  0.00000000000E+00  0.74505805969E-08  0.10566000000E+00  0.10566000000E+00 0.  1.
     999900   -1    0    0    0    0 -0.00000000000E+00 -0.00000000000E+00 -0.74505805969E-08  0.93827000000E+00  0.93827000000E+00 0. -1.
     999902    2    1    2    0    0  0.27248755235E-02 -0.18072164172E-01  0.15220388336E-01  0.10201457976E+01  0.10198685013E+01 0.  0.
     999903    2    3    3    0    0 -0.73159988963E-01  0.10320177228E+00 -0.67895975529E-02  0.12832164460E+00  0.20429293982E-01 0.  0.
         14    1    1    2    0    0 -0.27248755235E-02  0.18072164172E-01 -0.15220388336E-01  0.23784202437E-01  0.00000000000E+00 0. -1.
     999901    1    3    3    0    0  0.75884864487E-01 -0.12127393645E+00  0.22009985889E-01  0.89182415296E+00  0.88000000000E+00 0.  1.
        -11    1    4    4    0    0 -0.41738496137E-01  0.51405794521E-01 -0.12786003164E-01  0.67441832478E-01  0.51100000000E-03 0.  1.
         11    1    4    4    0    0 -0.31421492826E-01  0.51795977758E-01  0.59964056113E-02  0.60879812127E-01  0.51100000000E-03 0. -1.
</event>
<event>
 8    1  0.1310759E+005  0.1043930E+01  0.7957747E-01            NaN
         13   -1    0    0    0    0  0.00000000000E+00  0.00000000000E+00  0.74505805969E-08  0.10566000000E+00  0.10566000000E+00 0. -1.
     999900   -1    0    0    0    0 -0.00000000000E+00 -0.00000000000E+00 -0.74505805969E-08  0.93827000000E+00  0.93827000000E+00 0.  1.
     999902    2    1    2    0    0  0.15461710106E-01 -0.28881522891E-02  0.18332247528E-01  0.10197747272E+01  0.10194886057E+01 0.  0.
     999903    2    3    3    0    0  0.99958470515E-01 -0.76858362567E-01  0.35531177295E-01  0.13247145455E+00  0.19680395990E-01 0.  0.
         14    1    1    2    0    0 -0.15461710106E-01  0.28881522891E-02 -0.18332247528E-01  0.24155272768E-01  0.00000000000E+00 0.  1.
     999901    1    3    3    0    0 -0.84496760410E-01  0.73970210278E-01 -0.17198929767E-01  0.88730327268E+00  0.88000000000E+00 0. -1.
        -11    1    4    4    0    0  0.56381447604E-01 -0.38575492904E-01  0.28562962387E-01  0.74047553829E-01  0.51100000000E-03 0.  1.
         11    1    4    4    0    0  0.43577022911E-01 -0.38282869663E-01  0.69682149084E-02  0.58423900721E-01  0.51100000000E-03 0. -1.
</event>
<event>
 8    1  0.1103774E+005  0.1043930E+01  0.7957747E-01            NaN
         13   -1    0    0    0    0  0.00000000000E+00  0.00000000000E+00  0.74505805969E-08  0.10566000000E+00  0.10566000000E+00 0.  1.
     999900   -1    0    0    0    0 -0.00000000000E+00 -0.00000000000E+00 -0.74505805969E-08  0.93827000000E+00  0.93827000000E+00 0. -1.
     999902    2    1    2    0    0 -0.54844043665E-02  0.22865379661E-01 -0.36545217371E-02  0.10201337859E+01  0.10198562062E+01 0.  0.
     999903    2    3    3    0    0  0.14482764346E-01  0.13037005226E+00 -0.11500264599E-01  0.13333194884E+00  0.20953555913E-01 0.  0.
         14    1    1    2    0    0  0.54844043665E-02 -0.22865379661E-01  0.36545217371E-02  0.23796214141E-01  0.00000000000E+00 0.  1.
     999901    1    3    3    0    0 -0.19967168712E-01 -0.10750467260E+00  0.78457428620E-02  0.88680183702E+00  0.88000000000E+00 0.  1.
        -11    1    4    4    0    0  0.10931541964E-02  0.54067239614E-01  0.43547908637E-02  0.54255752783E-01  0.51100000000E-03 0. -1.
         11    1    4    4    0    0  0.13389610149E-01  0.76302812650E-01 -0.15855055463E-01  0.79076196058E-01  0.51100000000E-03 0.  1.
</event>
<event>
 8    1  0.1103774E+005  0.1043930E+01  0.7957747E-01            NaN
         13   -1    0    0    0    0  0.00000000000E+00  0.00000000000E+00  0.74505805969E-08  0.10566000000E+00  0.10566000000E+00 0.  1.
     999900   -1    0    0    0    0 -0.00000000000E+00 -0.00000000000E+00 -0.74505805969E-08  0.93827000000E+00  0.93827000000E+00 0.  1.
     999902    2    1    2    0    0  0.13035013365E-01  0.18545535606E-01 -0.48545231230E-03  0.10212565766E+01  0.10210048536E+01 0.  0.
     999903    2    3    3    0    0 -0.90166922920E-01 -0.83825395302E-01  0.32092193424E-01  0.12873668879E+00  0.19658465755E-01 0.  0.
         14    1    1    2    0    0 -0.13035013365E-01 -0.18545535606E-01  0.48545231230E-03  0.22673423392E-01  0.00000000000E+00 0. -1.
     999901    1    3    3    0    0  0.10320193628E+00  0.10237093091E+00 -0.32577645736E-01  0.89251988782E+00  0.88000000000E+00 0. -1.
        -11    1    4    4    0    0 -0.20515868162E-01 -0.97902187541E-02  0.92776881223E-02  0.24557806245E-01  0.51100000000E-03 0. -1.
         11    1    4    4    0    0 -0.69651054758E-01 -0.74035176548E-01  0.22814505301E-01  0.10417888255E+00  0.51100000000E-03 0.  1.
</event>
<event>
 8    1  0.1103774E+005  0.1043930E+01  0.7957747E-01            NaN
         13   -1    0    0    0    0  0.00000000000E+00  0.00000000000E+00  0.74505805969E-08  0.10566000000E+00  0.10566000000E+00 0. -1.
     999900   -1    0    0    0    0 -0.00000000000E+00 -0.00000000000E+00 -0.74505805969E-08  0.93827000000E+00  0.93827000000E+00 0.  1.
     999902    2    1    2    0    0  0.72313113179E-03 -0.49043096737E-02  0.22409596409E-01  0.10209786344E+01  0.10207206311E+01 0.  0.
     999903    2    3    3    0    0  0.10204954334E+00 -0.25090447003E-01 -0.73442922056E-01  0.12976472783E+00  0.20034519251E-01 0.  0.
         14    1    1    2    0    0 -0.72313113179E-03  0.49043096737E-02 -0.22409596409E-01  0.22951365607E-01  0.00000000000E+00 0.  1.
     999901    1    3    3    0    0 -0.10132641221E+00  0.20186137329E-01  0.95852518465E-01  0.89121390656E+00  0.88000000000E+00 0.  1.
        -11    1    4    4    0    0  0.64973784533E-01 -0.24844400546E-01 -0.52744185407E-01  0.87298608983E-01  0.51100000000E-03 0. -1.
         11    1    4    4    0    0  0.37075758811E-01 -0.24604645756E-03 -0.20698736649E-01  0.42466118849E-01  0.51100000000E-03 0.  1.
</event>
<event>
 8    1  0.1103774E+005  0.1043930E+01  0.7957747E-01            NaN
         13   -1    0    0    0    0  0.00000000000E+00  0.00000000000E+00  0.74505805969E-08  0.10566000000E+00  0.10566000000E+00 0.  1.
     999900   -1    0    0    0    0 -0.00000000000E+00 -0.00000000000E+00 -0.74505805969E-08  0.93827000000E+00  0.93827000000E+00 0.  1.
     999902    2    1    2    0    0 -0.14311766275E-01  0.31283655647E-02 -0.19351710576E-01  0.10196585759E+01  0.10193696628E+01 0.  0.
     999903    2    3    3    0    0  0.93835111394E-01  0.83973257560E-01 -0.21733294912E-01  0.12935676436E+00  0.20107219155E-01 0.  0.
         14    1    1    2    0    0  0.14311766275E-01 -0.31283655647E-02  0.19351710576E-01  0.24271424088E-01  0.00000000000E+00 0.  1.
     999901    1    3    3    0    0 -0.10814687767E+00 -0.80844891995E-01  0.23815843360E-02  0.89030181155E+00  0.88000000000E+00 0. -1.
        -11    1    4    4    0    0  0.21031556727E-01  0.21367999217E-01 -0.13797604532E-01  0.33008374403E-01  0.51100000000E-03 0.  1.
         11    1    4    4    0    0  0.72803554667E-01  0.62605258342E-01 -0.79356903804E-02  0.96348389956E-01  0.51100000000E-03 0. -1.
</event>
<event>
 8    1  0.1103774E+005  0.1043930E+01  0.7957747E-01            NaN
         13   -1    0    0    0    0  0.00000000000E+00  0.00000000000E+00  0.74505805969E-08  0.10566000000E+00  0.10566000000E+00 0. -1.
     999900   -1    0    0    0    0 -0.00000000000E+00 -0.00000000000E+00 -0.74505805969E-08  0.93827000000E+00  0.93827000000E+00 0. -1.
     999902    2    1    2    0    0 -0.16172088258E-01  0.10511629897E-01 -0.13835138689E-01  0.10201930696E+01  0.10199168875E+01 0.  0.
     999903    2    3    3    0    0  0.92945915299E-01 -0.50158525429E-01  0.68526860835E-01  0.12757271055E+00  0.20592352390E-01 0.  0.
         14    1    1    2    0    0  0.16172088258E-01 -0.10511629897E-01  0.13835138689E-01  0.23736930388E-01  0.00000000000E+00 0. -1.
     999901    1    3    3    0    0 -0.10911800356E+00  0.60670155326E-01 -0.82361999523E-01  0.89262035906E+00  0.88000000000E+00 0. -1.
        -11    1    4    4    0    0  0.33182869668E-01 -0.22771663563E-01  0.15569331547E-01  0.43154567622E-01  0.51100000000E-03 0.  1.
         11    1    4    4    0    0  0.59763045631E-01 -0.27386861866E-01  0.52957529287E-01  0.84418142926E-01  0.51100000000E-03 0. -1.
</event>
<event>
 8    1  0.1103774E+005  0.1043930E+01  0.7957747E-01            NaN
         13   -1    0    0    0    0  0.00000000000E+00  0.00000000000E+00  0.74505805969E-08  0.10566000000E+00  0.10566000000E+00 0. -1.
     999900   -1    0    0    0    0 -0.00000000000E+00 -0.00000000000E+00 -0.74505805969E-08  0.93827000000E+00  0.93827000000E+00 0.  1.
     999902    2    1    2    0    0  0.17902857811E-01  0.11895118036E-01 -0.10771268253E-01  0.10198878210E+01  0.10196044042E+01 0.  0.
     999903    2    3    3    0    0 -0.27178817436E-01  0.10400536814E+00  0.70775019886E-01  0.13018761716E+00  0.19593557695E-01 0.  0.
         14    1    1    2    0    0 -0.17902857811E-01 -0.11895118036E-01  0.10771268253E-01  0.24042178992E-01  0.00000000000E+00 0. -1.
     999901    1    3    3    0    0  0.45081675246E-01 -0.92110250103E-01 -0.81546288139E-01  0.88970020385E+00  0.88000000000E+00 0.  1.
        -11    1    4    4    0    0 -0.15249975861E-01  0.58730394252E-01  0.51364231113E-01  0.79500731642E-01  0.51100000000E-03 0. -1.
         11    1    4    4    0    0 -0.11928841575E-01  0.45274973888E-01  0.19410788773E-01  0.50686885519E-01  0.51100000000E-03 0.  1.
</event>
<event>
 8    1  0.1103774E+005  0.1043930E+01  0.7957747E-01            NaN
         13   -1    0    0    0    0  0.00000000000E+00  0.00000000000E+00  0.74505805969E-08  0.10566000000E+00  0.10566000000E+00 0. -1.
     999900   -1    0    0    0    0 -0.00000000000E+00 -0.00000000000E+00 -0.74505805969E-08  0.93827000000E+00  0.93827000000E+00 0. -1.
     999902    2    1    2    0    0  0.18235441142E-01 -0.15018179151E-01  0.14072338243E-02  0.10202644697E+01  0.10199899660E+01 0.  0.
     999903    2    3    3    0    0 -0.75195050921E-01 -0.81950085909E-01 -0.64924173588E-01  0.13031559889E+00  0.19922217133E-01 0.  0.
         14    1    1    2    0    0 -0.18235441142E-01  0.15018179151E-01 -0.14072338243E-02  0.23665530328E-01  0.00000000000E+00 0.  1.
     999901    1    3    3    0    0  0.93430492064E-01  0.66931906758E-01  0.66331407412E-01  0.88994887078E+00  0.88000000000E+00 0.  1.
        -11    1    4    4    0    0 -0.38511814480E-01 -0.31835121436E-01 -0.37225798991E-01  0.62310962462E-01  0.51100000000E-03 0. -1.
         11    1    4    4    0    0 -0.36683236441E-01 -0.50114964474E-01 -0.27698374596E-01  0.68004636432E-01  0.51100000000E-03 0.  1.
</event>
<event>
 8    1  0.1103774E+005  0.1043930E+01  0.7957747E-01            NaN
         13   -1    0    0    0    0  0.00000000000E+00  0.00000000000E+00  0.74505805969E-08  0.10566000000E+00  0.10566000000E+00 0. -1.
     999900   -1    0    0    0    0 -0.00000000000E+00 -0.00000000000E+00 -0.74505805969E-08  0.93827000000E+00  0.93827000000E+00 0. -1.
     999902    2    1    2    0    0  0.17822552297E-01 -0.15767369573E-01 -0.23049268644E-02  0.10200225534E+01  0.10197423417E+01 0.  0.
     999903    2    3    3    0    0 -0.21355525048E-01 -0.77987450388E-01  0.10104149478E+00  0.13092933949E+00  0.19874793194E-01 0.  0.
         14    1    1    2    0    0 -0.17822552297E-01  0.15767369573E-01  0.23049268644E-02  0.23907446570E-01  0.00000000000E+00 0.  1.
     999901    1    3    3    0    0  0.39178077345E-01  0.62220080815E-01 -0.10334642165E+00  0.88909321394E+00  0.88000000000E+00 0. -1.
        -11    1    4    4    0    0 -0.19198445852E-01 -0.74086421678E-01  0.85492154835E-01  0.11474557882E+00  0.51100000000E-03 0.  1.
         11    1    4    4    0    0 -0.21570791958E-02 -0.39010287094E-02  0.15549339947E-01  0.16183760670E-01  0.51100000000E-03 0. -1.
</event>
<event>
 8    1  0.1170122E+005  0.1043930E+01  0.7957747E-01            NaN
         13   -1    0    0    0    0  0.00000000000E+00  0.00000000000E+00  0.74505805969E-08  0.10566000000E+00  0.10566000000E+00 0.  1.
     999900   -1    0    0    0    0 -0.00000000000E+00 -0.00000000000E+00 -0.74505805969E-08  0.93827000000E+00  0.93827000000E+00 0. -1.
     999902    2    1    2    0    0  0.10210472581E-01  0.12886783054E-01 -0.17657345983E-01  0.10198031520E+01  0.10195177115E+01 0.  0.
     999903    2    3    3    0    0  0.26669330246E-02  0.37383379147E-01  0.12131136973E+00  0.12852918055E+00  0.19966778927E-01 0.  0.
         14    1    1    2    0    0 -0.10210472581E-01 -0.12886783054E-01  0.17657345983E-01  0.24126848011E-01  0.00000000000E+00 0. -1.
     999901    1    3    3    0    0  0.75435395563E-02 -0.24496596093E-01 -0.13896871571E+00  0.89127397143E+00  0.88000000000E+00 0. -1.
        -11    1    4    4    0    0  0.10358320427E-01  0.22255853200E-01  0.58052636011E-01  0.63031638663E-01  0.51100000000E-03 0.  1.
         11    1    4    4    0    0 -0.76913874021E-02  0.15127525947E-01  0.63258733717E-01  0.65497541892E-01  0.51100000000E-03 0. -1.
</event>
<event>
 8    1  0.1103774E+005  0.1043930E+01  0.7957747E-01            NaN
         13   -1    0    0    0    0  0.00000000000E+00  0.00000000000E+00  0.74505805969E-08  0.10566000000E+00  0.10566000000E+00 0.  1.
     999900   -1    0    0    0    0 -0.00000000000E+00 -0.00000000000E+00 -0.74505805969E-08  0.93827000000E+00  0.93827000000E+00 0. -1.
     999902    2    1    2    0    0  0.18159717178E-01 -0.76461187953E-02  0.29103706575E-01  0.10087836745E+01  0.10081712343E+01 0.  0.
     999903    2    3    3    0    0  0.53691051117E-02 -0.10264864079E+00 -0.56780424062E-01  0.11942145197E+00  0.21723164796E-01 0.  0.
         14    1    1    2    0    0 -0.18159717178E-01  0.76461187953E-02 -0.29103706575E-01  0.35146325512E-01  0.00000000000E+00 0. -1.
     999901    1    3    3    0    0  0.12790612066E-01  0.95002521995E-01  0.85884130637E-01  0.88936222252E+00  0.88000000000E+00 0. -1.
        -11    1    4    4    0    0  0.13467452307E-01 -0.64168386930E-01 -0.32236823194E-01  0.73064547104E-01  0.51100000000E-03 0.  1.
         11    1    4    4    0    0 -0.80983471951E-02 -0.38480253860E-01 -0.24543600867E-01  0.46356904868E-01  0.51100000000E-03 0. -1.
</event>
<event>
 8    1  0.1103774E+005  0.1043930E+01  0.7957747E-01            NaN
         13   -1    0    0    0    0  0.00000000000E+00  0.00000000000E+00  0.74505805969E-08  0.10566000000E+00  0.10566000000E+00 0. -1.
     999900   -1    0    0    0    0 -0.00000000000E+00 -0.00000000000E+00 -0.74505805969E-08  0.93827000000E+00  0.93827000000E+00 0.  1.
     999902    2    1    2    0    0 -0.10331263639E-01 -0.20351398683E-01  0.45415821792E-02  0.10206589793E+01  0.10203936552E+01 0.  0.
     999903    2    3    3    0    0  0.51040512089E-01 -0.10900492265E+00 -0.51092038359E-01  0.13233412772E+00  0.20364624719E-01 0.  0.
         14    1    1    2    0    0  0.10331263639E-01  0.20351398683E-01 -0.45415821792E-02  0.23271020721E-01  0.00000000000E+00 0.  1.
     999901    1    3    3    0    0 -0.61371775728E-01  0.88653523963E-01  0.55633620538E-01  0.88832485156E+00  0.88000000000E+00 0. -1.
        -11    1    4    4    0    0  0.23355827346E-01 -0.49986305360E-01 -0.34466326386E-01  0.65056238518E-01  0.51100000000E-03 0. -1.
         11    1    4    4    0    0  0.27684684743E-01 -0.59018617285E-01 -0.16625711973E-01  0.67277889200E-01  0.51100000000E-03 0.  1.
</event>
<event>
 8    1  0.1103774E+005  0.1043930E+01  0.7957747E-01            NaN
         13   -1    0    0    0    0  0.00000000000E+00  0.00000000000E+00  0.74505805969E-08  0.10566000000E+00  0.10566000000E+00 0. -1.
     999900   -1    0    0    0    0 -0.00000000000E+00 -0.00000000000E+00 -0.74505805969E-08  0.93827000000E+00  0.93827000000E+00 0. -1.
     999902    2    1    2    0    0  0.15665898493E-01  0.18266924134E-01  0.22987826976E-02  0.10197559376E+01  0.10194693654E+01 0.  0.
     999903    2    3    3    0    0  0.11085746396E+00 -0.27562401538E-01 -0.61041108168E-01  0.13117633899E+00  0.20788259442E-01 0.  0.
         14    1    1    2    0    0 -0.15665898493E-01 -0.18266924134E-01 -0.22987826976E-02  0.24174062439E-01  0.00000000000E+00 0.  1.
     999901    1    3    3    0    0 -0.95191565462E-01  0.45829325672E-01  0.63339890866E-01  0.88857959857E+00  0.88000000000E+00 0.  1.
        -11    1    4    4    0    0  0.78232583620E-01 -0.29027300257E-01 -0.43601445711E-01  0.94150244233E-01  0.51100000000E-03 0. -1.
         11    1    4    4    0    0  0.32624880335E-01  0.14648987186E-02 -0.17439662457E-01  0.37026094754E-01  0.51100000000E-03 0.  1.
</event>
<event>
 8    1  0.1103774E+005  0.1043930E+01  0.7957747E-01            NaN
         13   -1    0    0    0    0  0.00000000000E+00  0.00000000000E+00  0.74505805969E-08  0.10566000000E+00  0.10566000000E+00 0. -1.
     999900   -1    0    0    0    0 -0.00000000000E+00 -0.00000000000E+00 -0.74505805969E-08  0.93827000000E+00  0.93827000000E+00 0.  1.
     999902    2    1    2    0    0 -0.17710670881E-01  0.11206230689E-01  0.12707414526E-01  0.10194202906E+01  0.10191256071E+01 0.  0.
     999903    2    3    3    0    0  0.52380860374E-01  0.95143282187E-01  0.70666110398E-01  0.13075980327E+00  0.17562127270E-01 0.  0.
         14    1    1    2    0    0  0.17710670881E-01 -0.11206230689E-01 -0.12707414526E-01  0.24509709367E-01  0.00000000000E+00 0.  1.
     999901    1    3    3    0    0 -0.70091531255E-01 -0.83937051499E-01 -0.57958695872E-01  0.88866048736E+00  0.88000000000E+00 0.  1.
        -11    1    4    4    0    0  0.37751105592E-01  0.80708054122E-01  0.61402498771E-01  0.10821027655E+00  0.51100000000E-03 0. -1.
         11    1    4    4    0    0  0.14629754782E-01  0.14435228065E-01  0.92636116270E-02  0.22549526727E-01  0.51100000000E-03 0.  1.
</event>
<event>
 8    1  0.1103774E+005  0.1043930E+01  0.7957747E-01            NaN
         13   -1    0    0    0    0  0.00000000000E+00  0.00000000000E+00  0.74505805969E-08  0.10566000000E+00  0.10566000000E+00 0. -1.
     999900   -1    0    0    0    0 -0.00000000000E+00 -0.00000000000E+00 -0.74505805969E-08  0.93827000000E+00  0.93827000000E+00 0. -1.
     999902    2    1    2    0    0 -0.62713851972E-02 -0.18033828284E-01  0.87209936162E-02  0.10229394077E+01  0.10227240228E+01 0.  0.
     999903    2    3    3    0    0  0.78544562207E-01 -0.22311405671E-01  0.10398062849E+00  0.13373389680E+00  0.20142913838E-01 0.  0.
         14    1    1    2    0    0  0.62713851972E-02  0.18033828284E-01 -0.87209936162E-02  0.20990592286E-01  0.00000000000E+00 0.  1.
     999901    1    3    3    0    0 -0.84815947404E-01  0.42775773878E-02 -0.95259634870E-01  0.88920551091E+00  0.88000000000E+00 0. -1.
        -11    1    4    4    0    0  0.55271930738E-01 -0.23994376680E-01  0.81239487445E-01  0.10114757477E+00  0.51100000000E-03 0.  1.
         11    1    4    4    0    0  0.23272631469E-01  0.16829710082E-02  0.22741141041E-01  0.32586322035E-01  0.51100000000E-03 0. -1.
</event>
<event>
 8    1  0.1103774E+005  0.1043930E+01  0.7957747E-01            NaN
         13   -1    0    0    0    0  0.00000000000E+00  0.00000000000E+00  0.74505805969E-08  0.10566000000E+00  0.10566000000E+00 0.  1.
     999900   -1    0    0    0    0 -0.00000000000E+00 -0.00000000000E+00 -0.74505805969E-08  0.93827000000E+00  0.93827000000E+00 0.  1.
     999902    2    1    2    0    0 -0.13284501213E-01 -0.14405219076E-01  0.13305676812E-01  0.10202439420E+01  0.10199689563E+01 0.  0.
     999903    2    3    3    0    0 -0.73300786193E-01 -0.57706341136E-01 -0.90052959554E-01  0.13110955993E+00  0.19420456134E-01 0.  0.
         14    1    1    2    0    0  0.13284501213E-01  0.14405219076E-01 -0.13305676812E-01  0.23686058020E-01  0.00000000000E+00 0. -1.
     999901    1    3    3    0    0  0.60016284979E-01  0.43301122060E-01  0.10335863637E+00  0.88913438205E+00  0.88000000000E+00 0. -1.
        -11    1    4    4    0    0 -0.45791321772E-01 -0.47107320572E-01 -0.64991915263E-01  0.92412958895E-01  0.51100000000E-03 0.  1.
         11    1    4    4    0    0 -0.27509464421E-01 -0.10599020564E-01 -0.25061044291E-01  0.38696601034E-01  0.51100000000E-03 0. -1.
</event>
<event>
 8    1  0.1103774E+005  0.1043930E+01  0.7957747E-01            NaN
         13   -1    0    0    0    0  0.00000000000E+00  0.00000000000E+00  0.74505805969E-08  0.10566000000E+00  0.10566000000E+00 0. -1.
     999900   -1    0    0    0    0 -0.00000000000E+00 -0.00000000000E+00 -0.74505805969E-08  0.93827000000E+00  0.93827000000E+00 0. -1.
     999902    2    1    2    0    0  0.15184291712E-01 -0.15848129324E-01  0.87165894829E-02  0.10203142246E+01  0.10200408874E+01 0.  0.
     999903    2    3    3    0    0  0.73375135777E-01  0.59346448977E-01  0.89538367481E-01  0.13151021987E+00  0.19284893634E-01 0.  0.
         14    1    1    2    0    0 -0.15184291712E-01  0.15848129324E-01 -0.87165894829E-02  0.23615775449E-01  0.00000000000E+00 0.  1.
     999901    1    3    3    0    0 -0.58190844065E-01 -0.75194578301E-01 -0.80821777998E-01  0.88880400468E+00  0.88000000000E+00 0. -1.
        -11    1    4    4    0    0  0.62993501494E-01  0.44044443690E-01  0.78984117523E-01  0.11021273153E+00  0.51100000000E-03 0. -1.
         11    1    4    4    0    0  0.10381634282E-01  0.15302005287E-01  0.10554249958E-01  0.21297488334E-01  0.51100000000E-03 0.  1.
</event>
<event>
 8    1  0.1103774E+005  0.1043930E+01  0.7957747E-01            NaN
         13   -1    0    0    0    0  0.00000000000E+00  0.00000000000E+00  0.74505805969E-08  0.10566000000E+00  0.10566000000E+00 0. -1.
     999900   -1    0    0    0    0 -0.00000000000E+00 -0.00000000000E+00 -0.74505805969E-08  0.93827000000E+00  0.93827000000E+00 0.  1.
     999902    2    1    2    0    0  0.47854398076E-02  0.19140005866E-01  0.14166967717E-01  0.10196412530E+01  0.10193519223E+01 0.  0.
     999903    2    3    3    0    0 -0.28198387445E-01  0.15259451256E-01  0.12648356517E+00  0.13188114480E+00  0.19145343827E-01 0.  0.
         14    1    1    2    0    0 -0.47854398076E-02 -0.19140005866E-01 -0.14166967717E-01  0.24288747044E-01  0.00000000000E+00 0.  1.
     999901    1    3    3    0    0  0.32983827253E-01  0.38805546099E-02 -0.11231659745E+00  0.88776010815E+00  0.88000000000E+00 0.  1.
        -11    1    4    4    0    0 -0.16856290564E-01 -0.11730539689E-02  0.47765536671E-01  0.50668710283E-01  0.51100000000E-03 0. -1.
         11    1    4    4    0    0 -0.11342096882E-01  0.16432505225E-01  0.78718028495E-01  0.81212434521E-01  0.51100000000E-03 0.  1.
</event>
<event>
 8    1  0.1103774E+005  0.1043930E+01  0.7957747E-01            NaN
         13   -1    0    0    0    0  0.00000000000E+00  0.00000000000E+00  0.74505805969E-08  0.10566000000E+00  0.10566000000E+00 0. -1.
     999900   -1    0    0    0    0 -0.00000000000E+00 -0.00000000000E+00 -0.74505805969E-08  0.93827000000E+00  0.93827000000E+00 0.  1.
     999902    2    1    2    0    0 -0.14284556245E-01 -0.17454377532E-01  0.45640171895E-02  0.10209183922E+01  0.10206590172E+01 0.  0.
     999903    2    3    3    0    0  0.60453949950E-01 -0.10060337297E+00 -0.56517382952E-01  0.13174431630E+00  0.19662949542E-01 0.  0.
         14    1    1    2    0    0  0.14284556245E-01  0.17454377532E-01 -0.45640171895E-02  0.23011607833E-01  0.00000000000E+00 0.  1.
     999901    1    3    3    0    0 -0.74738506195E-01  0.83148995436E-01  0.61081400142E-01  0.88917407587E+00  0.88000000000E+00 0. -1.
        -11    1    4    4    0    0  0.29783772725E-01 -0.36622648468E-01 -0.14985092019E-01  0.49528836069E-01  0.51100000000E-03 0.  1.
         11    1    4    4    0    0  0.30670177225E-01 -0.63980724500E-01 -0.41532290933E-01  0.82215480231E-01  0.51100000000E-03 0. -1.
</event>
<event>
 8    1  0.1103774E+005  0.1043930E+01  0.7957747E-01            NaN
         13   -1    0    0    0    0  0.00000000000E+00  0.00000000000E+00  0.74505805969E-08  0.10566000000E+00  0.10566000000E+00 0.  1.
     999900   -1    0    0    0    0 -0.00000000000E+00 -0.00000000000E+00 -0.74505805969E-08  0.93827000000E+00  0.93827000000E+00 0.  1.
     999902    2    1    2    0    0  0.19122991349E-02  0.91717548869E-02 -0.21522008810E-01  0.10204571468E+01  0.10201871463E+01 0.  0.
     999903    2    3    3    0    0 -0.90483343553E-01  0.54526598529E-01 -0.77818606850E-01  0.13267151747E+00  0.19636969446E-01 0.  0.
         14    1    1    2    0    0 -0.19122991349E-02 -0.91717548869E-02  0.21522008810E-01  0.23472853233E-01  0.00000000000E+00 0.  1.
     999901    1    3    3    0    0  0.92395642688E-01 -0.45354843642E-01  0.56296598040E-01  0.88778562929E+00  0.88000000000E+00 0. -1.
        -11    1    4    4    0    0 -0.68600528999E-01  0.46386213641E-01 -0.51659638208E-01  0.97604778242E-01  0.51100000000E-03 0. -1.
         11    1    4    4    0    0 -0.21882814554E-01  0.81403848879E-02 -0.26158968642E-01  0.35066739231E-01  0.51100000000E-03 0.  1.
</event>
<event>
 8    1  0.1103774E+005  0.1043930E+01  0.7957747E-01            NaN
         13   -1    0    0    0    0  0.00000000000E+00  0.00000000000E+00  0.74505805969E-08  0.10566000000E+00  0.10566000000E+00 0. -1.
     999900   -1    0    0    0    0 -0.00000000000E+00 -0.00000000000E+00 -0.74505805969E-08  0.93827000000E+00  0.93827000000E+00 0.  1.
     999902    2    1    2    0    0  0.81685037180E-02  0.17674057958E-01  0.11502476301E-01  0.10213157625E+01  0.10210653666E+01 0.  0.
     999903    2    3    3    0    0 -0.81744405720E-02 -0.12611333400E+00  0.14642026107E-01  0.12949080057E+00  0.24126417282E-01 0.  0.
         14    1    1    2    0    0 -0.81685037180E-02 -0.17674057958E-01 -0.11502476301E-01  0.22614237523E-01  0.00000000000E+00 0. -1.
     999901    1    3    3    0    0  0.16342944290E-01  0.14378739196E+00 -0.31395498065E-02  0.89182496191E+00  0.88000000000E+00 0.  1.
        -11    1    4    4    0    0 -0.16133219945E-01 -0.99976421311E-01  0.13180417401E-01  0.10212516892E+00  0.51100000000E-03 0.  1.
         11    1    4    4    0    0  0.79587793731E-02 -0.26136912692E-01  0.14616087064E-02  0.27365631642E-01  0.51100000000E-03 0. -1.
</event>
<event>
 8    1  0.1103774E+005  0.1043930E+01  0.7957747E-01            NaN
         13   -1    0    0    0    0  0.00000000000E+00  0.00000000000E+00  0.74505805969E-08  0.10566000000E+00  0.10566000000E+00 0. -1.
     999900   -1    0    0    0    0 -0.00000000000E+00 -0.00000000000E+00 -0.74505805969E-08  0.93827000000E+00  0.93827000000E+00 0. -1.
     999902    2    1    2    0    0  0.10418744815E-01 -0.16165800217E-01  0.15428396679E-01  0.10192739913E+01  0.10189757360E+01 0.  0.
     999903    2    3    3    0    0  0.86893866728E-01 -0.48785639583E-01 -0.81282063224E-01  0.13008030530E+00  0.19583904640E-01 0.  0.
         14    1    1    2    0    0 -0.10418744815E-01  0.16165800217E-01 -0.15428396679E-01  0.24656008685E-01  0.00000000000E+00 0.  1.
     999901    1    3    3    0    0 -0.76475121913E-01  0.32619839366E-01  0.96710459902E-01  0.88919368601E+00  0.88000000000E+00 0.  1.
        -11    1    4    4    0    0  0.51887494121E-01 -0.35787450962E-01 -0.41241319854E-01  0.75327028860E-01  0.51100000000E-03 0. -1.
         11    1    4    4    0    0  0.35006372608E-01 -0.12998188621E-01 -0.40040743369E-01  0.54753276442E-01  0.51100000000E-03 0.  1.
</event>
<event>
 8    1  0.1103774E+005  0.1043930E+01  0.7957747E-01            NaN
         13   -1    0    0    0    0  0.00000000000E+00  0.00000000000E+00  0.74505805969E-08  0.10566000000E+00  0.10566000000E+00 0.  1.
     999900   -1    0    0    0    0 -0.00000000000E+00 -0.00000000000E+00 -0.74505805969E-08  0.93827000000E+00  0.93827000000E+00 0. -1.
     999902    2    1    2    0    0 -0.48262988346E-02  0.73816696601E-02 -0.22060070748E-01  0.10201722870E+01  0.10198956153E+01 0.  0.
     999903    2    3    3    0    0 -0.77745493123E-02  0.11849755568E+00 -0.55169032508E-01  0.13256221736E+00  0.20664099440E-01 0.  0.
         14    1    1    2    0    0  0.48262988346E-02 -0.73816696601E-02  0.22060070748E-01  0.23757713038E-01  0.00000000000E+00 0.  1.
     999901    1    3    3    0    0  0.29482504777E-02 -0.11111588602E+00  0.33108961760E-01  0.88761006960E+00  0.88000000000E+00 0. -1.
        -11    1    4    4    0    0  0.48327199665E-02  0.51027787290E-01 -0.30370946562E-01  0.59580582190E-01  0.51100000000E-03 0. -1.
         11    1    4    4    0    0 -0.12607269279E-01  0.67469768387E-01 -0.24798085946E-01  0.72981635172E-01  0.51100000000E-03 0.  1.
</event>
<event>
 8    1  0.1103774E+005  0.1043930E+01  0.7957747E-01            NaN
         13   -1    0    0    0    0  0.00000000000E+00  0.00000000000E+00  0.74505805969E-08  0.10566000000E+00  0.10566000000E+00 0. -1.
     999900   -1    0    0    0    0 -0.00000000000E+00 -0.00000000000E+00 -0.74505805969E-08  0.93827000000E+00  0.93827000000E+00 0.  1.
     999902    2    1    2    0    0  0.42018483358E-02 -0.21878666405E-01 -0.10222489772E-01  0.10194181484E+01  0.10191234127E+01 0.  0.
     999903    2    3    3    0    0 -0.68734884897E-02 -0.20635895560E-01  0.12543052901E+00  0.12895425294E+00  0.20574175899E-01 0.  0.
         14    1    1    2    0    0 -0.42018483358E-02  0.21878666405E-01  0.10222489772E-01  0.24511851629E-01  0.00000000000E+00 0. -1.
     999901    1    3    3    0    0  0.11075336826E-01 -0.12427708457E-02 -0.13565301878E+00  0.89046389543E+00  0.88000000000E+00 0.  1.
        -11    1    4    4    0    0  0.56974436272E-02 -0.60969645071E-02  0.18396886403E-01  0.20207434038E-01  0.51100000000E-03 0.  1.
         11    1    4    4    0    0 -0.12570932117E-01 -0.14538931053E-01  0.10703364261E+00  0.10874681890E+00  0.51100000000E-03 0. -1.
</event>
<event>
 8    1  0.1103774E+005  0.1043930E+01  0.7957747E-01            NaN
         13   -1    0    0    0    0  0.00000000000E+00  0.00000000000E+00  0.74505805969E-08  0.10566000000E+00  0.10566000000E+00 0. -1.
     999900   -1    0    0    0    0 -0.00000000000E+00 -0.00000000000E+00 -0.74505805969E-08  0.93827000000E+00  0.93827000000E+00 0.  1.
     999902    2    1    2    0    0  0.52071460267E-03  0.14583300018E-01 -0.18938523272E-01  0.10200216030E+01  0.10197413688E+01 0.  0.
     999903    2    3    3    0    0  0.98502394206E-01  0.85062978103E-01 -0.31196389906E-02  0.13164216174E+00  0.19531889120E-01 0.  0.
         14    1    1    2    0    0 -0.52071460267E-03 -0.14583300018E-01  0.18938523272E-01  0.23908396994E-01  0.00000000000E+00 0. -1.
     999901    1    3    3    0    0 -0.97981679603E-01 -0.70479678085E-01 -0.15818884281E-01  0.88837944126E+00  0.88000000000E+00 0.  1.
        -11    1    4    4    0    0  0.43472328027E-01  0.38701851288E-01  0.82632451248E-02  0.58789615904E-01  0.51100000000E-03 0. -1.
         11    1    4    4    0    0  0.55030066179E-01  0.46361126815E-01 -0.11382884115E-01  0.72852545838E-01  0.51100000000E-03 0.  1.
</event>
<event>
 8    1  0.1103774E+005  0.1043930E+01  0.7957747E-01            NaN
         13   -1    0    0    0    0  0.00000000000E+00  0.00000000000E+00  0.74505805969E-08  0.10566000000E+00  0.10566000000E+00 0.  1.
     999900   -1    0    0    0    0 -0.00000000000E+00 -0.00000000000E+00 -0.74505805969E-08  0.93827000000E+00  0.93827000000E+00 0.  1.
     999902    2    1    2    0    0 -0.83234770580E-02  0.21564658171E-01  0.43521348507E-02  0.10204086091E+01  0.10201374778E+01 0.  0.
     999903    2    3    3    0    0  0.11040461023E+00  0.38053274676E-01 -0.54579835735E-01  0.13032928098E+00  0.19223249930E-01 0.  0.
         14    1    1    2    0    0  0.83234770580E-02 -0.21564658171E-01 -0.43521348507E-02  0.23521390906E-01  0.00000000000E+00 0. -1.
     999901    1    3    3    0    0 -0.11872808729E+00 -0.16488616505E-01  0.58931970586E-01  0.89007932812E+00  0.88000000000E+00 0. -1.
        -11    1    4    4    0    0  0.28200277532E-01  0.44277286163E-02 -0.20720660034E-01  0.35277008190E-01  0.51100000000E-03 0.  1.
         11    1    4    4    0    0  0.82204332696E-01  0.33625546060E-01 -0.33859175701E-01  0.95052272787E-01  0.51100000000E-03 0. -1.
</event>
<event>
 8    1  0.1103774E+005  0.1043930E+01  0.7957747E-01            NaN
         13   -1    0    0    0    0  0.00000000000E+00  0.00000000000E+00  0.74505805969E-08  0.10566000000E+00  0.10566000000E+00 0. -1.
     999900   -1    0    0    0    0 -0.00000000000E+00 -0.00000000000E+00 -0.74505805969E-08  0.93827000000E+00  0.93827000000E+00 0. -1.
     999902    2    1    2    0    0  0.83272202927E-02  0.13869509131E-01  0.16448718954E-01  0.10208591041E+01  0.10205983756E+01 0.  0.
     999903    2    3    3    0    0  0.54862528439E-01 -0.11679976337E+00 -0.63523125014E-02  0.12970261915E+00  0.11416470134E-01 0.  0.
         14    1    1    2    0    0 -0.83272202927E-02 -0.13869509131E-01 -0.16448718954E-01  0.23070895877E-01  0.00000000000E+00 0.  1.
     999901    1    3    3    0    0 -0.46535308146E-01  0.13066927250E+00  0.22801031456E-01  0.89115648498E+00  0.88000000000E+00 0.  1.
        -11    1    4    4    0    0  0.43101020370E-01 -0.81107785664E-01 -0.69702228006E-02  0.92114146466E-01  0.51100000000E-03 0. -1.
         11    1    4    4    0    0  0.11761508069E-01 -0.35691977702E-01  0.61791029917E-03  0.37588472681E-01  0.51100000000E-03 0.  1.
</event>
<event>
 8    1  0.1103774E+005  0.1043930E+01  0.7957747E-01            NaN
         13   -1    0    0    0    0  0.00000000000E+00  0.00000000000E+00  0.74505805969E-08  0.10566000000E+00  0.10566000000E+00 0.  1.
     999900   -1    0    0    0    0 -0.00000000000E+00 -0.00000000000E+00 -0.74505805969E-08  0.93827000000E+00  0.93827000000E+00 0. -1.
     999902    2    1    2    0    0  0.16039439494E-01 -0.19711888092E-01  0.36445182457E-02  0.10182569662E+01  0.10179332712E+01 0.  0.
     999903    2    3    3    0    0 -0.33826508463E-01  0.11938114525E+00  0.85197543792E-02  0.12592448745E+00  0.19705324399E-01 0.  0.
         14    1    1    2    0    0 -0.16039439494E-01  0.19711888092E-01 -0.36445182457E-02  0.25673033803E-01  0.00000000000E+00 0.  1.
     999901    1    3    3    0    0  0.49865947958E-01 -0.13909303334E+00 -0.48752361335E-02  0.89233247874E+00  0.88000000000E+00 0. -1.
        -11    1    4    4    0    0 -0.17010887741E-01  0.70911734741E-01 -0.42636255301E-02  0.73049873712E-01  0.51100000000E-03 0.  1.
         11    1    4    4    0    0 -0.16815620722E-01  0.48469410511E-01  0.12783379909E-01  0.52874613743E-01  0.51100000000E-03 0. -1.
</event>
<event>
 8    1  0.1103774E+005  0.1043930E+01  0.7957747E-01            NaN
         13   -1    0    0    0    0  0.00000000000E+00  0.00000000000E+00  0.74505805969E-08  0.10566000000E+00  0.10566000000E+00 0.  1.
     999900   -1    0    0    0    0 -0.00000000000E+00 -0.00000000000E+00 -0.74505805969E-08  0.93827000000E+00  0.93827000000E+00 0. -1.
     999902    2    1    2    0    0  0.54286236901E-02 -0.29650883415E-02 -0.22778552307E-01  0.10203265225E+01  0.10200534733E+01 0.  0.
     999903    2    3    3    0    0  0.11767944542E+00 -0.46622054227E-01 -0.30010370050E-01  0.13209317658E+00  0.22932884108E-01 0.  0.
         14    1    1    2    0    0 -0.54286236901E-02  0.29650883415E-02  0.22778552307E-01  0.23603477482E-01  0.00000000000E+00 0.  1.
     999901    1    3    3    0    0 -0.11225082173E+00  0.43656965885E-01  0.72318177426E-02  0.88823334594E+00  0.88000000000E+00 0.  1.
        -11    1    4    4    0    0  0.19159643645E-01 -0.46044538273E-02 -0.13079258623E-01  0.23656311352E-01  0.51100000000E-03 0.  1.
         11    1    4    4    0    0  0.98519801775E-01 -0.42017600400E-01 -0.16931111427E-01  0.10843686523E+00  0.51100000000E-03 0. -1.
</event>
<event>
 8    1  0.1103774E+005  0.1043930E+01  0.7957747E-01            NaN
         13   -1    0    0    0    0  0.00000000000E+00  0.00000000000E+00  0.74505805969E-08  0.10566000000E+00  0.10566000000E+00 0.  1.
     999900   -1    0    0    0    0 -0.00000000000E+00 -0.00000000000E+00 -0.74505805969E-08  0.93827000000E+00  0.93827000000E+00 0. -1.
     999902    2    1    2    0    0 -0.15665462546E-01 -0.12743756521E-01  0.12328241174E-01  0.10202700005E+01  0.10199956266E+01 0.  0.
     999903    2    3    3    0    0 -0.66401663784E-01 -0.79771605893E-01 -0.78412135890E-01  0.13161893806E+00  0.20059704398E-01 0.  0.
         14    1    1    2    0    0  0.15665462546E-01  0.12743756521E-01 -0.12328241174E-01  0.23659999524E-01  0.00000000000E+00 0.  1.
     999901    1    3    3    0    0  0.50736201238E-01  0.67027849371E-01  0.90740377064E-01  0.88865106242E+00  0.88000000000E+00 0.  1.
        -11    1    4    4    0    0 -0.24677350800E-01 -0.16856045288E-01 -0.27016143416E-01  0.40289341411E-01  0.51100000000E-03 0.  1.
         11    1    4    4    0    0 -0.41724312984E-01 -0.62915560605E-01 -0.51395992474E-01  0.91329596647E-01  0.51100000000E-03 0. -1.
</event>
<event>
 8    1  0.1103774E+005  0.1043930E+01  0.7957747E-01            NaN
         13   -1    0    0    0    0  0.00000000000E+00  0.00000000000E+00  0.74505805969E-08  0.10566000000E+00  0.10566000000E+00 0.  1.
     999900   -1    0    0    0    0 -0.00000000000E+00 -0.00000000000E+00 -0.74505805969E-08  0.93827000000E+00  0.93827000000E+00 0.  1.
     999902    2    1    2    0    0 -0.92704120016E-02 -0.21754188532E-01 -0.14927588821E-02  0.10202358322E+01  0.10199606560E+01 0.  0.
     999903    2    3    3    0    0  0.12359266791E+00 -0.16351065068E-01  0.30394440112E-01  0.12967500600E+00  0.18689042289E-01 0.  0.
         14    1    1    2    0    0  0.92704120016E-02  0.21754188532E-01  0.14927588821E-02  0.23694167773E-01  0.00000000000E+00 0. -1.
     999901    1    3    3    0    0 -0.13286307991E+00 -0.54031234645E-02 -0.31887198994E-01  0.89056082623E+00  0.88000000000E+00 0.  1.
        -11    1    4    4    0    0  0.19006512424E-01 -0.27159494325E-02 -0.20742248760E-02  0.19318059573E-01  0.51100000000E-03 0.  1.
         11    1    4    4    0    0  0.10458615549E+00 -0.13635115635E-01  0.32468664988E-01  0.11035694643E+00  0.51100000000E-03 0. -1.
</event>
<event>
 8    1  0.1103774E+005  0.1043930E+01  0.7957747E-01            NaN
         13   -1    0    0    0    0  0.00000000000E+00  0.00000000000E+00  0.74505805969E-08  0.10566000000E+00  0.10566000000E+00 0.  1.
     999900   -1    0    0    0    0 -0.00000000000E+00 -0.00000000000E+00 -0.74505805969E-08  0.93827000000E+00  0.93827000000E+00 0.  1.
     999902    2    1    2    0    0  0.23572474005E-01 -0.26858701016E-02  0.52661245724E-02  0.10196275825E+01  0.10193379221E+01 0.  0.
     999903    2    3    3    0    0  0.10538330530E+00  0.68510320182E-01  0.27302323324E-01  0.13269607234E+00  0.32611742492E-01 0.  0.
         14    1    1    2    0    0 -0.23572474005E-01  0.26858701016E-02 -0.52661245724E-02  0.24302417512E-01  0.00000000000E+00 0. -1.
     999901    1    3    3    0    0 -0.81810831300E-01 -0.71196190284E-01 -0.22036198751E-01  0.88693151014E+00  0.88000000000E+00 0.  1.
        -11    1    4    4    0    0  0.73605837987E-02  0.12576561582E-01  0.11838600037E-01  0.18781950562E-01  0.51100000000E-03 0.  1.
         11    1    4    4    0    0  0.98022721506E-01  0.55933758600E-01  0.15463723287E-01  0.11391412178E+00  0.51100000000E-03 0. -1.
</event>
<event>
 8    1  0.1103774E+005  0.1043930E+01  0.7957747E-01            NaN
         13   -1    0    0    0    0  0.00000000000E+00  0.00000000000E+00  0.74505805969E-08  0.10566000000E+00  0.10566000000E+00 0. -1.
     999900   -1    0    0    0    0 -0.00000000000E+00 -0.00000000000E+00 -0.74505805969E-08  0.93827000000E+00  0.93827000000E+00 0.  1.
     999902    2    1    2    0    0 -0.12154047296E-01 -0.10415916917E-01  0.16715946170E-01  0.10207862093E+01  0.10205238116E+01 0.  0.
     999903    2    3    3    0    0  0.76428446978E-01  0.10170033555E+00  0.11888873128E-01  0.12924809292E+00  0.19479693504E-01 0.  0.
         14    1    1    2    0    0  0.12154047296E-01  0.10415916917E-01 -0.16715946170E-01  0.23143790684E-01  0.00000000000E+00 0.  1.
     999901    1    3    3    0    0 -0.88582494274E-01 -0.11211625247E+00  0.48270730416E-02  0.89153811640E+00  0.88000000000E+00 0. -1.
        -11    1    4    4    0    0  0.55676709152E-01  0.84837586931E-01  0.48480936219E-02  0.10159270265E+00  0.51100000000E-03 0. -1.
         11    1    4    4    0    0  0.20751737825E-01  0.16862748622E-01  0.70407795063E-02  0.27655390269E-01  0.51100000000E-03 0.  1.
</event>
<event>
 8    1  0.1103774E+005  0.1043930E+01  0.7957747E-01            NaN
         13   -1    0    0    0    0  0.00000000000E+00  0.00000000000E+00  0.74505805969E-08  0.10566000000E+00  0.10566000000E+00 0. -1.
     999900   -1    0    0    0    0 -0.00000000000E+00 -0.00000000000E+00 -0.74505805969E-08  0.93827000000E+00  0.93827000000E+00 0.  1.
     999902    2    1    2    0    0  0.81105735498E-02  0.12932384872E-01  0.17161115444E-01  0.10209619382E+01  0.10207035550E+01 0.  0.
     999903    2    3    3    0    0 -0.76765537095E-01 -0.56301699993E-01 -0.83824137282E-01  0.12844004266E+00  0.20187358910E-01 0.  0.
         14    1    1    2    0    0 -0.81105735498E-02 -0.12932384872E-01 -0.17161115444E-01  0.22968061848E-01  0.00000000000E+00 0. -1.
     999901    1    3    3    0    0  0.84876110644E-01  0.69234084864E-01  0.10098525273E+00  0.89252189549E+00  0.88000000000E+00 0. -1.
        -11    1    4    4    0    0 -0.13168008259E-01 -0.22368636638E-02 -0.16262262117E-01  0.21050470083E-01  0.51100000000E-03 0.  1.
         11    1    4    4    0    0 -0.63597528836E-01 -0.54064836329E-01 -0.67561875164E-01  0.10738957258E+00  0.51100000000E-03 0. -1.
</event>
<event>
 8    1  0.1103774E+005  0.1043930E+01  0.7957747E-01            NaN
         13   -1    0    0    0    0  0.00000000000E+00  0.00000000000E+00  0.74505805969E-08  0.10566000000E+00  0.10566000000E+00 0.  1.
     999900   -1    0    0    0    0 -0.00000000000E+00 -0.00000000000E+00 -0.74505805969E-08  0.93827000000E+00  0.93827000000E+00 0.  1.
     999902    2    1    2    0    0 -0.15866715896E-01  0.17605213614E-01  0.38277228074E-02  0.10199227577E+01  0.10196401738E+01 0.  0.
     999903    2    3    3    0    0 -0.62413182619E-01  0.11421428072E+00  0.19915694603E-01  0.13326684462E+00  0.20569630509E-01 0.  0.
         14    1    1    2    0    0  0.15866715896E-01 -0.17605213614E-01 -0.38277228074E-02  0.24007242274E-01  0.00000000000E+00 0. -1.
     999901    1    3    3    0    0  0.46546466724E-01 -0.96609067101E-01 -0.16087971796E-01  0.88665591311E+00  0.88000000000E+00 0. -1.
        -11    1    4    4    0    0 -0.18085237502E-01  0.16738337119E-01  0.24567515841E-02  0.24769830326E-01  0.51100000000E-03 0. -1.
         11    1    4    4    0    0 -0.44327945117E-01  0.97475943596E-01  0.17458943019E-01  0.10849701429E+00  0.51100000000E-03 0.  1.
</event>
<event>
 8    1  0.1103774E+005  0.1043930E+01  0.7957747E-01            NaN
         13   -1    0    0    0    0  0.00000000000E+00  0.00000000000E+00  0.74505805969E-08  0.10566000000E+00  0.10566000000E+00 0. -1.
     999900   -1    0    0    0    0 -0.00000000000E+00 -0.00000000000E+00 -0.74505805969E-08  0.93827000000E+00  0.93827000000E+00 0.  1.
     999902    2    1    2    0    0 -0.23565107911E-01  0.36203216201E-02  0.71419844975E-03  0.10200777230E+01  0.10197988183E+01 0.  0.
     999903    2    3    3    0    0 -0.76026570273E-01  0.10316127743E+00 -0.26624186585E-01  0.13249223740E+00  0.20568352214E-01 0.  0.
         14    1    1    2    0    0  0.23565107911E-01 -0.36203216201E-02 -0.71419844975E-03  0.23852277018E-01  0.00000000000E+00 0.  1.
     999901    1    3    3    0    0  0.52461462362E-01 -0.99540955807E-01  0.27338385035E-01  0.88758548558E+00  0.88000000000E+00 0. -1.
        -11    1    4    4    0    0 -0.97594623110E-02  0.23906563009E-01 -0.80759810550E-04  0.25827088544E-01  0.51100000000E-03 0.  1.
         11    1    4    4    0    0 -0.66267107962E-01  0.79254714418E-01 -0.26543426775E-01  0.10666514886E+00  0.51100000000E-03 0. -1.
</event>
<event>
 8    1  0.1103774E+005  0.1043930E+01  0.7957747E-01            NaN
         13   -1    0    0    0    0  0.00000000000E+00  0.00000000000E+00  0.74505805969E-08  0.10566000000E+00  0.10566000000E+00 0. -1.
     999900   -1    0    0    0    0 -0.00000000000E+00 -0.00000000000E+00 -0.74505805969E-08  0.93827000000E+00  0.93827000000E+00 0.  1.
     999902    2    1    2    0    0 -0.24548343861E-02 -0.22525020220E-01  0.65241478936E-02  0.10203510421E+01  0.10200785666E+01 0.  0.
     999903    2    3    3    0    0  0.10162379437E+00 -0.73487038560E-01  0.35658242122E-01  0.13227543516E+00  0.22305606870E-01 0.  0.
         14    1    1    2    0    0  0.24548343861E-02  0.22525020220E-01 -0.65241478936E-02  0.23578957854E-01  0.00000000000E+00 0.  1.
     999901    1    3    3    0    0 -0.10407862875E+00  0.50962018341E-01 -0.29134094228E-01  0.88807560699E+00  0.88000000000E+00 0.  1.
        -11    1    4    4    0    0  0.26669590634E-01 -0.30967808536E-01  0.70546723815E-02  0.41476520508E-01  0.51100000000E-03 0.  1.
         11    1    4    4    0    0  0.74954203733E-01 -0.42519230025E-01  0.28603569740E-01  0.90798914652E-01  0.51100000000E-03 0. -1.
</event>
<event>
 8    1  0.1103774E+005  0.1043930E+01  0.7957747E-01            NaN
         13   -1    0    0    0    0  0.00000000000E+00  0.00000000000E+00  0.74505805969E-08  0.10566000000E+00  0.10566000000E+00 0.  1.
     999900   -1    0    0    0    0 -0.00000000000E+00 -0.00000000000E+00 -0.74505805969E-08  0.93827000000E+00  0.93827000000E+00 0.  1.
     999902    2    1    2    0    0  0.30386136037E-01  0.93382078741E-02  0.44941019082E-02  0.10118252287E+01  0.10113157653E+01 0.  0.
     999903    2    3    3    0    0 -0.20804820486E-02  0.10772615073E+00  0.58227812854E-01  0.12411943266E+00  0.20147044897E-01 0.  0.
         14    1    1    2    0    0 -0.30386136037E-01 -0.93382078741E-02 -0.44941019082E-02  0.32104771320E-01  0.00000000000E+00 0.  1.
     999901    1    3    3    0    0  0.32466618086E-01 -0.98387942856E-01 -0.53733710946E-01  0.88770579602E+00  0.88000000000E+00 0.  1.
        -11    1    4    4    0    0  0.90359125783E-02  0.49086813556E-01  0.27492207518E-01  0.56984608241E-01  0.51100000000E-03 0.  1.
         11    1    4    4    0    0 -0.11116394627E-01  0.58639337175E-01  0.30735605336E-01  0.67134824422E-01  0.51100000000E-03 0. -1.
</event>
<event>
 8    1  0.1103774E+005  0.1043930E+01  0.7957747E-01            NaN
         13   -1    0    0    0    0  0.00000000000E+00  0.00000000000E+00  0.74505805969E-08  0.10566000000E+00  0.10566000000E+00 0. -1.
     999900   -1    0    0    0    0 -0.00000000000E+00 -0.00000000000E+00 -0.74505805969E-08  0.93827000000E+00  0.93827000000E+00 0.  1.
     999902    2    1    2    0    0  0.11263927900E-01  0.10048381291E-01  0.17887975860E-01  0.10205243229E+01  0.10202558836E+01 0.  0.
     999903    2    3    3    0    0 -0.42416069790E-01  0.10834385710E+00  0.59875761810E-01  0.13243282040E+00  0.20391927789E-01 0.  0.
         14    1    1    2    0    0 -0.11263927900E-01 -0.10048381291E-01 -0.17887975860E-01  0.23405677061E-01  0.00000000000E+00 0.  1.
     999901    1    3    3    0    0  0.53679997690E-01 -0.98295475807E-01 -0.41987785950E-01  0.88809150254E+00  0.88000000000E+00 0.  1.
        -11    1    4    4    0    0 -0.30696865870E-01  0.56480299754E-01  0.39726172725E-01  0.75569516043E-01  0.51100000000E-03 0. -1.
         11    1    4    4    0    0 -0.11719203920E-01  0.51863557345E-01  0.20149589085E-01  0.56863304355E-01  0.51100000000E-03 0.  1.
</event>
<event>
 8    1  0.1103774E+005  0.1043930E+01  0.7957747E-01            NaN
         13   -1    0    0    0    0  0.00000000000E+00  0.00000000000E+00  0.74505805969E-08  0.10566000000E+00  0.10566000000E+00 0.  1.
     999900   -1    0    0    0    0 -0.00000000000E+00 -0.00000000000E+00 -0.74505805969E-08  0.93827000000E+00  0.93827000000E+00 0.  1.
     999902    2    1    2    0    0  0.95521260699E-02  0.81808566099E-02  0.19791831872E-01  0.10204803489E+01  0.10202108882E+01 0.  0.
     999903    2    3    3    0    0  0.71407416874E-01 -0.68299591702E-01  0.86223384259E-01  0.13251160671E+00  0.19000013383E-01 0.  0.
         14    1    1    2    0    0 -0.95521260699E-02 -0.81808566099E-02 -0.19791831872E-01  0.23449651088E-01  0.00000000000E+00 0. -1.
     999901    1    3    3    0    0 -0.61855290805E-01  0.76480448312E-01 -0.66431552387E-01  0.88796874220E+00  0.88000000000E+00 0.  1.
        -11    1    4    4    0    0  0.29521702272E-01 -0.35786075203E-01  0.30117781354E-01  0.55312891429E-01  0.51100000000E-03 0.  1.
         11    1    4    4    0    0  0.41885714602E-01 -0.32513516499E-01  0.56105602905E-01  0.77198715282E-01  0.51100000000E-03 0. -1.
</event>
<event>
 8    1  0.1103774E+005  0.1043930E+01  0.7957747E-01            NaN
         13   -1    0    0    0    0  0.00000000000E+00  0.00000000000E+00  0.74505805969E-08  0.10566000000E+00  0.10566000000E+00 0.  1.
     999900   -1    0    0    0    0 -0.00000000000E+00 -0.00000000000E+00 -0.74505805969E-08  0.93827000000E+00  0.93827000000E+00 0.  1.
     999902    2    1    2    0    0  0.27240673297E-02  0.17744944848E-01  0.14157502836E-01  0.10210665248E+01  0.10208105160E+01 0.  0.
     999903    2    3    3    0    0 -0.65820925402E-01 -0.10294539063E+00  0.38855484007E-01  0.12984569732E+00  0.20494116306E-01 0.  0.
         14    1    1    2    0    0 -0.27240673297E-02 -0.17744944848E-01 -0.14157502836E-01  0.22863475174E-01  0.00000000000E+00 0.  1.
     999901    1    3    3    0    0  0.68544992732E-01  0.12069033548E+00 -0.24697981171E-01  0.89122082751E+00  0.88000000000E+00 0.  1.
        -11    1    4    4    0    0 -0.12233797964E-01 -0.13643043148E-01 -0.93471127904E-03  0.18355741476E-01  0.51100000000E-03 0. -1.
         11    1    4    4    0    0 -0.53587127438E-01 -0.89302347479E-01  0.39790195286E-01  0.11148995584E+00  0.51100000000E-03 0.  1.
</event>
<event>
 8    1  0.1103774E+005  0.1043930E+01  0.7957747E-01            NaN
         13   -1    0    0    0    0  0.00000000000E+00  0.00000000000E+00  0.74505805969E-08  0.10566000000E+00  0.10566000000E+00 0. -1.
     999900   -1    0    0    0    0 -0.00000000000E+00 -0.00000000000E+00 -0.74505805969E-08  0.93827000000E+00  0.93827000000E+00 0.  1.
     999902    2    1    2    0    0 -0.16574541883E-01 -0.17040628065E-01  0.38150537822E-02  0.10198540145E+01  0.10195697905E+01 0.  0.
     999903    2    3    3    0    0  0.59190384405E-01  0.64447534365E-01 -0.90874017989E-01  0.12780767881E+00  0.20487296674E-01 0.  0.
         14    1    1    2    0    0  0.16574541883E-01  0.17040628065E-01 -0.38150537822E-02  0.24075985522E-01  0.00000000000E+00 0.  1.
     999901    1    3    3    0    0 -0.75764926288E-01 -0.81488162429E-01  0.94689071771E-01  0.89204633567E+00  0.88000000000E+00 0. -1.
        -11    1    4    4    0    0  0.40875270927E-01  0.35906249220E-01 -0.44129588514E-01  0.70055179751E-01  0.51100000000E-03 0. -1.
         11    1    4    4    0    0  0.18315113477E-01  0.28541285144E-01 -0.46744429475E-01  0.57752499057E-01  0.51100000000E-03 0.  1.
</event>
<event>
 8    1  0.1103774E+005  0.1043930E+01  0.7957747E-01            NaN
         13   -1    0    0    0    0  0.00000000000E+00  0.00000000000E+00  0.74505805969E-08  0.10566000000E+00  0.10566000000E+00 0. -1.
     999900   -1    0    0    0    0 -0.00000000000E+00 -0.00000000000E+00 -0.74505805969E-08  0.93827000000E+00  0.93827000000E+00 0. -1.
     999902    2    1    2    0    0 -0.18842500097E-01  0.96313886161E-03  0.11183773622E-01  0.10219972793E+01  0.10217619070E+01 0.  0.
     999903    2    3    3    0    0 -0.10626999235E+00  0.41999132151E-01 -0.65716634200E-01  0.13337970580E+00  0.20352678778E-01 0.  0.
         14    1    1    2    0    0  0.18842500097E-01 -0.96313886161E-03 -0.11183773622E-01  0.21932720734E-01  0.00000000000E+00 0. -1.
     999901    1    3    3    0    0  0.87427492254E-01 -0.41035993289E-01  0.76900407822E-01  0.88861757346E+00  0.88000000000E+00 0.  1.
        -11    1    4    4    0    0 -0.78433391119E-01  0.28197797988E-01 -0.57429945757E-01  0.10121942721E+00  0.51100000000E-03 0. -1.
         11    1    4    4    0    0 -0.27836601232E-01  0.13801334163E-01 -0.82866884432E-02  0.32160278593E-01  0.51100000000E-03 0.  1.
</event>
<event>
 8    1  0.1103774E+005  0.1043930E+01  0.7957747E-01            NaN
         13   -1    0    0    0    0  0.00000000000E+00  0.00000000000E+00  0.74505805969E-08  0.10566000000E+00  0.10566000000E+00 0. -1.
     999900   -1    0    0    0    0 -0.00000000000E+00 -0.00000000000E+00 -0.74505805969E-08  0.93827000000E+00  0.93827000000E+00 0. -1.
     999902    2    1    2    0    0  0.13562455663E-02 -0.24048105460E-01  0.33571264046E-02  0.10196108496E+01  0.10193207854E+01 0.  0.
     999903    2    3    3    0    0  0.67166167245E-01 -0.21002240424E-01 -0.10759562380E+00  0.13020051918E+00  0.20566205527E-01 0.  0.
         14    1    1    2    0    0 -0.13562455663E-02  0.24048105460E-01 -0.33571264046E-02  0.24319150396E-01  0.00000000000E+00 0.  1.
     999901    1    3    3    0    0 -0.65809921678E-01 -0.30458650364E-02  0.11095275020E+00  0.88941033042E+00  0.88000000000E+00 0.  1.
        -11    1    4    4    0    0  0.28666921792E-01 -0.84952962037E-02 -0.28315263213E-01  0.41182249992E-01  0.51100000000E-03 0.  1.
         11    1    4    4    0    0  0.38499245453E-01 -0.12506944220E-01 -0.79280360584E-01  0.89018269190E-01  0.51100000000E-03 0. -1.
</event>
<event>
 8    1  0.1103774E+005  0.1043930E+01  0.7957747E-01            NaN
         13   -1    0    0    0    0  0.00000000000E+00  0.00000000000E+00  0.74505805969E-08  0.10566000000E+00  0.10566000000E+00 0.  1.
     999900   -1    0    0    0    0 -0.00000000000E+00 -0.00000000000E+00 -0.74505805969E-08  0.93827000000E+00  0.93827000000E+00 0.  1.
     999902    2    1    2    0    0 -0.13668299176E-02  0.17489791340E-01  0.24576369691E-01  0.10137346531E+01  0.10132848504E+01 0.  0.
     999903    2    3    3    0    0  0.12261531692E+00 -0.39436769193E-02 -0.37844695857E-02  0.12433299837E+00  0.19857082938E-01 0.  0.
         14    1    1    2    0    0  0.13668299176E-02 -0.17489791340E-01 -0.24576369691E-01  0.30195346866E-01  0.00000000000E+00 0. -1.
     999901    1    3    3    0    0 -0.12398214684E+00  0.21433468259E-01  0.28360839277E-01  0.88940165477E+00  0.88000000000E+00 0. -1.
        -11    1    4    4    0    0  0.11288479310E-01 -0.24752919038E-02  0.50980942027E-02  0.12641539489E-01  0.51100000000E-03 0.  1.
         11    1    4    4    0    0  0.11132683761E+00 -0.14683850156E-02 -0.88825637884E-02  0.11169145888E+00  0.51100000000E-03 0. -1.
</event>
<event>
 8    1  0.1103774E+005  0.1043930E+01  0.7957747E-01            NaN
         13   -1    0    0    0    0  0.00000000000E+00  0.00000000000E+00  0.74505805969E-08  0.10566000000E+00  0.10566000000E+00 0. -1.
     999900   -1    0    0    0    0 -0.00000000000E+00 -0.00000000000E+00 -0.74505805969E-08  0.93827000000E+00  0.93827000000E+00 0. -1.
     999902    2    1    2    0    0  0.28373025105E-02 -0.18157789369E-01 -0.15563411559E-01  0.10198473220E+01  0.10195629381E+01 0.  0.
     999903    2    3    3    0    0 -0.82325625784E-02 -0.73140378842E-02 -0.13038524450E+00  0.13225271736E+00  0.19214552522E-01 0.  0.
         14    1    1    2    0    0 -0.28373025105E-02  0.18157789369E-01  0.15563411559E-01  0.24082678000E-01  0.00000000000E+00 0. -1.
     999901    1    3    3    0    0  0.11069865089E-01 -0.10843751485E-01  0.11482183295E+00  0.88759460464E+00  0.88000000000E+00 0.  1.
        -11    1    4    4    0    0 -0.33005006360E-02 -0.12195081943E-01 -0.50264921392E-01  0.51830847684E-01  0.51100000000E-03 0.  1.
         11    1    4    4    0    0 -0.49320619424E-02  0.48810440584E-02 -0.80120323112E-01  0.80421869679E-01  0.51100000000E-03 0. -1.
</event>
<event>
 8    1  0.1103774E+005  0.1043930E+01  0.7957747E-01            NaN
         13   -1    0    0    0    0  0.00000000000E+00  0.00000000000E+00  0.74505805969E-08  0.10566000000E+00  0.10566000000E+00 0. -1.
     999900   -1    0    0    0    0 -0.00000000000E+00 -0.00000000000E+00 -0.74505805969E-08  0.93827000000E+00  0.93827000000E+00 0.  1.
     999902    2    1    2    0    0  0.18483883931E-01 -0.10853494086E-01  0.83187304825E-02  0.10209375322E+01  0.10206785934E+01 0.  0.
     999903    2    3    3    0    0  0.11393731999E+00  0.16721101505E-01 -0.64056020009E-01  0.13239388032E+00  0.12792877830E-01 0.  0.
         14    1    1    2    0    0 -0.18483883931E-01  0.10853494086E-01 -0.83187304825E-02  0.22992467808E-01  0.00000000000E+00 0. -1.
     999901    1    3    3    0    0 -0.95453436064E-01 -0.27574595591E-01  0.72374750491E-01  0.88854365187E+00  0.88000000000E+00 0. -1.
        -11    1    4    4    0    0  0.67475919973E-01  0.15404111535E-01 -0.34792360889E-01  0.77466482595E-01  0.51100000000E-03 0. -1.
         11    1    4    4    0    0  0.46461400022E-01  0.13169899698E-02 -0.29263659119E-01  0.54927397723E-01  0.51100000000E-03 0.  1.
</event>
<event>
 8    1  0.1103774E+005  0.1043930E+01  0.7957747E-01            NaN
         13   -1    0    0    0    0  0.00000000000E+00  0.00000000000E+00  0.74505805969E-08  0.10566000000E+00  0.10566000000E+00 0.  1.
     999900   -1    0    0    0    0 -0.00000000000E+00 -0.00000000000E+00 -0.74505805969E-08  0.93827000000E+00  0.93827000000E+00 0.  1.
     999902    2    1    2    0    0  0.23376756671E-01  0.73140600002E-03  0.60657850043E-02  0.10197680163E+01  0.10194817339E+01 0.  0.
     999903    2    3    3    0    0 -0.11779448740E-01 -0.56602455450E-01 -0.11405477089E+00  0.12906487925E+00  0.17511679501E-01 0.  0.
         14    1    1    2    0    0 -0.23376756671E-01 -0.73140600002E-03 -0.60657850043E-02  0.24161983671E-01  0.00000000000E+00 0.  1.
     999901    1    3    3    0    0  0.35156205411E-01  0.57333861450E-01  0.12012055589E+00  0.89070313708E+00  0.88000000000E+00 0. -1.
        -11    1    4    4    0    0 -0.36115717853E-02 -0.48461960603E-01 -0.96640059050E-01  0.10817193356E+00  0.51100000000E-03 0.  1.
         11    1    4    4    0    0 -0.81678769549E-02 -0.81404948465E-02 -0.17414711838E-01  0.20892945692E-01  0.51100000000E-03 0. -1.
</event>
<event>
 8    1  0.1103774E+005  0.1043930E+01  0.7957747E-01            NaN
         13   -1    0    0    0    0  0.00000000000E+00  0.00000000000E+00  0.74505805969E-08  0.10566000000E+00  0.10566000000E+00 0.  1.
     999900   -1    0    0    0    0 -0.00000000000E+00 -0.00000000000E+00 -0.74505805969E-08  0.93827000000E+00  0.93827000000E+00 0.  1.
     999902    2    1    2    0    0 -0.11405148129E-01 -0.13643085935E-01  0.10226378621E-01  0.10234168331E+01  0.10232112315E+01 0.  0.
     999903    2    3    3    0    0 -0.66303498973E-01 -0.18504461231E-01  0.11490846665E+00  0.13550028212E+00  0.20440197829E-01 0.  0.
         14    1    1    2    0    0  0.11405148129E-01  0.13643085935E-01 -0.10226378621E-01  0.20513166927E-01  0.00000000000E+00 0. -1.
     999901    1    3    3    0    0  0.54898350844E-01  0.48613752958E-02 -0.10468208803E+00  0.88791655095E+00  0.88000000000E+00 0.  1.
        -11    1    4    4    0    0 -0.15181417512E-01 -0.10552005970E-01  0.43938618851E-01  0.47672671576E-01  0.51100000000E-03 0. -1.
         11    1    4    4    0    0 -0.51122081460E-01 -0.79524552610E-02  0.70969847796E-01  0.87827610549E-01  0.51100000000E-03 0.  1.
</event>
<event>
 8    1  0.1103774E+005  0.1043930E+01  0.7957747E-01            NaN
         13   -1    0    0    0    0  0.00000000000E+00  0.00000000000E+00  0.74505805969E-08  0.10566000000E+00  0.10566000000E+00 0.  1.
     999900   -1    0    0    0    0 -0.00000000000E+00 -0.00000000000E+00 -0.74505805969E-08  0.93827000000E+00  0.93827000000E+00 0. -1.
     999902    2    1    2    0    0 -0.44091007207E-02  0.11941655162E-02  0.23140935328E-01  0.10203425226E+01  0.10200698478E+01 0.  0.
     999903    2    3    3    0    0 -0.12674823926E+00  0.25600642652E-01  0.13091841689E-01  0.13148734589E+00  0.19925279205E-01 0.  0.
         14    1    1    2    0    0  0.44091007207E-02 -0.11941655162E-02 -0.23140935328E-01  0.23587477361E-01  0.00000000000E+00 0. -1.
     999901    1    3    3    0    0  0.12233913854E+00 -0.24406477136E-01  0.10049093639E-01  0.88885517675E+00  0.88000000000E+00 0. -1.
        -11    1    4    4    0    0 -0.97556979769E-01  0.12122838465E-01  0.14102184499E-01  0.99314954779E-01  0.51100000000E-03 0.  1.
         11    1    4    4    0    0 -0.29191259491E-01  0.13477804188E-01 -0.10103428101E-02  0.32172391114E-01  0.51100000000E-03 0. -1.
</event>
<event>
 8    1  0.1103774E+005  0.1043930E+01  0.7957747E-01            NaN
         13   -1    0    0    0    0  0.00000000000E+00  0.00000000000E+00  0.74505805969E-08  0.10566000000E+00  0.10566000000E+00 0.  1.
     999900   -1    0    0    0    0 -0.00000000000E+00 -0.00000000000E+00 -0.74505805969E-08  0.93827000000E+00  0.93827000000E+00 0. -1.
     999902    2    1    2    0    0  0.14117366273E-01  0.14674298304E-01 -0.12404071040E-01  0.10200868450E+01  0.10198081561E+01 0.  0.
     999903    2    3    3    0    0  0.10882841704E+00 -0.62419068937E-01  0.29863792916E-01  0.13064873996E+00  0.20916084771E-01 0.  0.
         14    1    1    2    0    0 -0.14117366273E-01 -0.14674298304E-01  0.12404071040E-01  0.23843154983E-01  0.00000000000E+00 0.  1.
     999901    1    3    3    0    0 -0.94711050769E-01  0.77093367241E-01 -0.42267863955E-01  0.88943810506E+00  0.88000000000E+00 0.  1.
        -11    1    4    4    0    0  0.66879507319E-01 -0.26436870983E-01  0.16394274818E-01  0.73761846604E-01  0.51100000000E-03 0. -1.
         11    1    4    4    0    0  0.41948909722E-01 -0.35982197954E-01  0.13469518098E-01  0.56886893352E-01  0.51100000000E-03 0.  1.
</event>
<event>
 8    1  0.1103774E+005  0.1043930E+01  0.7957747E-01            NaN
         13   -1    0    0    0    0  0.00000000000E+00  0.00000000000E+00  0.74505805969E-08  0.10566000000E+00  0.10566000000E+00 0. -1.
     999900   -1    0    0    0    0 -0.00000000000E+00 -0.00000000000E+00 -0.74505805969E-08  0.93827000000E+00  0.93827000000E+00 0. -1.
     999902    2    1    2    0    0  0.20759512017E-02 -0.13779319312E-01  0.13973125416E-01  0.10241960838E+01  0.10240059525E+01 0.  0.
     999903    2    3    3    0    0  0.39719470286E-01  0.47031441732E-02 -0.12438944466E+00  0.13239855254E+00  0.21374912562E-01 0.  0.
         14    1    1    2    0    0 -0.20759512017E-02  0.13779319312E-01 -0.13973125416E-01  0.19733916185E-01  0.00000000000E+00 0.  1.
     999901    1    3    3    0    0 -0.37643519084E-01 -0.18482463485E-01  0.13836257008E+00  0.89179753127E+00  0.88000000000E+00 0.  1.
        -11    1    4    4    0    0  0.39426904178E-01  0.67817876789E-03 -0.12042775026E+00  0.12672034112E+00  0.51100000000E-03 0. -1.
         11    1    4    4    0    0  0.29256610708E-03  0.40249654053E-02 -0.39616944045E-02  0.56782114257E-02  0.51100000000E-03 0.  1.
</event>
<event>
 8    1  0.1103774E+005  0.1043930E+01  0.7957747E-01            NaN
         13   -1    0    0    0    0  0.00000000000E+00  0.00000000000E+00  0.74505805969E-08  0.10566000000E+00  0.10566000000E+00 0. -1.
     999900   -1    0    0    0    0 -0.00000000000E+00 -0.00000000000E+00 -0.74505805969E-08  0.93827000000E+00  0.93827000000E+00 0. -1.
     999902    2    1    2    0    0  0.85108173522E-02 -0.13914850573E-01 -0.16987481932E-01  0.10203793817E+01  0.10201075684E+01 0.  0.
     999903    2    3    3    0    0  0.28679917666E-01  0.10487514865E+00 -0.69436913362E-01  0.13062166225E+00  0.20474355388E-01 0.  0.
         14    1    1    2    0    0 -0.85108173522E-02  0.13914850573E-01  0.16987481932E-01  0.23550618269E-01  0.00000000000E+00 0. -1.
     999901    1    3    3    0    0 -0.20169100314E-01 -0.11878999923E+00  0.52449431430E-01  0.88975771948E+00  0.88000000000E+00 0.  1.
        -11    1    4    4    0    0  0.15618798915E-01  0.65624296250E-01 -0.31345648133E-01  0.74386194389E-01  0.51100000000E-03 0. -1.
         11    1    4    4    0    0  0.13061118752E-01  0.39250852403E-01 -0.38091265229E-01  0.56235467858E-01  0.51100000000E-03 0.  1.
</event>
<event>
 8    1  0.1103774E+005  0.1043930E+01  0.7957747E-01            NaN
         13   -1    0    0    0    0  0.00000000000E+00  0.00000000000E+00  0.74505805969E-08  0.10566000000E+00  0.10566000000E+00 0.  1.
     999900   -1    0    0    0    0 -0.00000000000E+00 -0.00000000000E+00 -0.74505805969E-08  0.93827000000E+00  0.93827000000E+00 0. -1.
     999902    2    1    2    0    0  0.16513691711E-01 -0.77591777219E-02  0.12531604934E-01  0.10217952315E+01  0.10215554548E+01 0.  0.
     999903    2    3    3    0    0  0.85092065406E-01 -0.29793241663E-01  0.98023772142E-01  0.13472285345E+00  0.20329547265E-01 0.  0.
         14    1    1    2    0    0 -0.16513691711E-01  0.77591777219E-02 -0.12531604934E-01  0.22134768466E-01  0.00000000000E+00 0.  1.
     999901    1    3    3    0    0 -0.68578373695E-01  0.22034063941E-01 -0.85492167208E-01  0.88707237809E+00  0.88000000000E+00 0. -1.
        -11    1    4    4    0    0  0.27779238574E-01 -0.11734668778E-01  0.47232387930E-01  0.56040593659E-01  0.51100000000E-03 0.  1.
         11    1    4    4    0    0  0.57312826832E-01 -0.18058572885E-01  0.50791384212E-01  0.78682259787E-01  0.51100000000E-03 0. -1.
</event>
<event>
 7    1  0.1103774E+005  0.1043930E+01  0.7957747E-01            NaN
         13   -1    0    0    0    0  0.00000000000E+00  0.00000000000E+00  0.74505805969E-08  0.10566000000E+00  0.10566000000E+00 0.  1.
     999900   -1    0    0    0    0 -0.00000000000E+00 -0.00000000000E+00 -0.74505805969E-08  0.93827000000E+00  0.93827000000E+00 0.  1.
     999902    2    1    2    0    0  0.19993786064E-01  0.11402354573E-01  0.18602394940E-02  0.10208383205E+01  0.10205771166E+01 0.  0.
         14    1    1    2    0    0 -0.19993786064E-01 -0.11402354573E-01 -0.18602394940E-02  0.23091679496E-01  0.00000000000E+00 0.  1.
     999901    1    3    3    0    0 -0.39257940321E-01  0.29814353681E-01  0.10906828539E+00  0.88810245605E+00  0.88000000000E+00 0. -1.
        -11    1    3    3    0    0  0.23991914861E-02 -0.17126226889E-01 -0.96442541114E-02  0.19807486605E-01  0.51100000000E-03 0. -1.
         11    1    3    3    0    0  0.56852534899E-01 -0.12857722189E-02 -0.97563791787E-01  0.11292837785E+00  0.51100000000E-03 0.  1.
</event>
<event>
 7    1  0.1197803E+005  0.1043930E+01  0.7957747E-01            NaN
         13   -1    0    0    0    0  0.00000000000E+00  0.00000000000E+00  0.74505805969E-08  0.10566000000E+00  0.10566000000E+00 0. -1.
     999900   -1    0    0    0    0 -0.00000000000E+00 -0.00000000000E+00 -0.74505805969E-08  0.93827000000E+00  0.93827000000E+00 0. -1.
     999903    2    1    2    0    0 -0.44720425762E-01 -0.88269817478E-01 -0.19739046690E-01  0.10284266127E+00  0.19887329005E-01 0.  0.
         14    1    1    2    0    0 -0.45199539958E-02 -0.14958348852E-01  0.50793714849E-01  0.53143048959E-01  0.00000000000E+00 0. -1.
     999901    1    1    2    0    0  0.49240379758E-01  0.10322816633E+00 -0.31054668159E-01  0.88794428977E+00  0.88000000000E+00 0. -1.
        -11    1    3    3    0    0 -0.11503383639E-01 -0.31553216379E-01  0.19006979751E-02  0.33642340478E-01  0.51100000000E-03 0.  1.
         11    1    3    3    0    0 -0.33217042123E-01 -0.56716601098E-01 -0.21639744666E-01  0.69200320792E-01  0.51100000000E-03 0. -1.
</event>
<event>
 8    1  0.1103774E+005  0.1043930E+01  0.7957747E-01            NaN
         13   -1    0    0    0    0  0.00000000000E+00  0.00000000000E+00  0.74505805969E-08  0.10566000000E+00  0.10566000000E+00 0.  1.
     999900   -1    0    0    0    0 -0.00000000000E+00 -0.00000000000E+00 -0.74505805969E-08  0.93827000000E+00  0.93827000000E+00 0.  1.
     999902    2    1    2    0    0 -0.23041994016E-01 -0.23669328685E-02  0.54561485260E-02  0.10201328276E+01  0.10198552252E+01 0.  0.
     999903    2    3    3    0    0  0.67448302390E-01 -0.30812474664E-01  0.10440586409E+00  0.12952141465E+00  0.19404388849E-01 0.  0.
         14    1    1    2    0    0  0.23041994016E-01  0.23669328685E-02 -0.54561485260E-02  0.23797172441E-01  0.00000000000E+00 0. -1.
     999901    1    3    3    0    0 -0.90490296406E-01  0.28445541796E-01 -0.98949715564E-01  0.89061141291E+00  0.88000000000E+00 0.  1.
        -11    1    4    4    0    0  0.30884721108E-01 -0.22315986460E-01  0.42147088972E-01  0.56819956700E-01  0.51100000000E-03 0. -1.
         11    1    4    4    0    0  0.36563581282E-01 -0.84964882041E-02  0.62258775119E-01  0.72701457951E-01  0.51100000000E-03 0.  1.
</event>
<event>
 8    1  0.1103774E+005  0.1043930E+01  0.7957747E-01            NaN
         13   -1    0    0    0    0  0.00000000000E+00  0.00000000000E+00  0.74505805969E-08  0.10566000000E+00  0.10566000000E+00 0.  1.
     999900   -1    0    0    0    0 -0.00000000000E+00 -0.00000000000E+00 -0.74505805969E-08  0.93827000000E+00  0.93827000000E+00 0. -1.
     999902    2    1    2    0    0 -0.21052646692E-01 -0.59301292739E-02 -0.10748321572E-01  0.10195597972E+01  0.10192684992E+01 0.  0.
     999903    2    3    3    0    0 -0.51808247268E-01  0.11032767269E-02 -0.12017679684E+00  0.13222109811E+00  0.18832009519E-01 0.  0.
         14    1    1    2    0    0  0.21052646692E-01  0.59301292739E-02  0.10748321572E-01  0.24370202760E-01  0.00000000000E+00 0.  1.
     999901    1    3    3    0    0  0.30755600575E-01 -0.70334060008E-02  0.10942847527E+00  0.88733869913E+00  0.88000000000E+00 0.  1.
        -11    1    4    4    0    0 -0.42748879901E-01  0.89362873147E-04 -0.76835442879E-01  0.87928500055E-01  0.51100000000E-03 0. -1.
         11    1    4    4    0    0 -0.90593673669E-02  0.10139138537E-02 -0.43341353964E-01  0.44292598059E-01  0.51100000000E-03 0.  1.
</event>
<event>
 8    1  0.1103774E+005  0.1043930E+01  0.7957747E-01            NaN
         13   -1    0    0    0    0  0.00000000000E+00  0.00000000000E+00  0.74505805969E-08  0.10566000000E+00  0.10566000000E+00 0.  1.
     999900   -1    0    0    0    0 -0.00000000000E+00 -0.00000000000E+00 -0.74505805969E-08  0.93827000000E+00  0.93827000000E+00 0.  1.
     999902    2    1    2    0    0  0.27445817271E-01 -0.66315604669E-02 -0.23458438334E-02  0.10155970958E+01  0.10152018063E+01 0.  0.
     999903    2    3    3    0    0  0.61131783345E-02 -0.12200717407E+00 -0.29895821122E-01  0.12738224846E+00  0.20232538867E-01 0.  0.
         14    1    1    2    0    0 -0.27445817271E-01  0.66315604669E-02  0.23458438334E-02  0.28332904250E-01  0.00000000000E+00 0. -1.
     999901    1    3    3    0    0  0.21332638937E-01  0.11537561360E+00  0.27549977289E-01  0.88821484729E+00  0.88000000000E+00 0. -1.
        -11    1    4    4    0    0  0.91106108428E-02 -0.75710246150E-01 -0.10043258445E-01  0.76916661154E-01  0.51100000000E-03 0. -1.
         11    1    4    4    0    0 -0.29974325083E-02 -0.46296927918E-01 -0.19852562678E-01  0.50465587306E-01  0.51100000000E-03 0.  1.
</event>
<event>
 8    1  0.1103774E+005  0.1043930E+01  0.7957747E-01            NaN
         13   -1    0    0    0    0  0.00000000000E+00  0.00000000000E+00  0.74505805969E-08  0.10566000000E+00  0.10566000000E+00 0. -1.
     999900   -1    0    0    0    0 -0.00000000000E+00 -0.00000000000E+00 -0.74505805969E-08  0.93827000000E+00  0.93827000000E+00 0. -1.
     999902    2    1    2    0    0 -0.70789328203E-03 -0.21767273622E-01  0.84804649158E-02  0.10205583591E+01  0.10202907089E+01 0.  0.
     999903    2    3    3    0    0  0.44654056277E-01 -0.40932498115E-01  0.11626054513E+00  0.13261604227E+00  0.20026137181E-01 0.  0.
         14    1    1    2    0    0  0.70789328203E-03  0.21767273622E-01 -0.84804649158E-02  0.23371640914E-01  0.00000000000E+00 0.  1.
     999901    1    3    3    0    0 -0.45361949559E-01  0.19165224493E-01 -0.10778008021E+00  0.88794231681E+00  0.88000000000E+00 0. -1.
        -11    1    4    4    0    0  0.36837744336E-01 -0.28130277092E-01  0.69780673272E-01  0.83773118483E-01  0.51100000000E-03 0. -1.
         11    1    4    4    0    0  0.78163119409E-02 -0.12802221022E-01  0.46479871857E-01  0.48842923789E-01  0.51100000000E-03 0.  1.
</event>
<event>
 8    1  0.1103774E+005  0.1043930E+01  0.7957747E-01            NaN
         13   -1    0    0    0    0  0.00000000000E+00  0.00000000000E+00  0.74505805969E-08  0.10566000000E+00  0.10566000000E+00 0. -1.
     999900   -1    0    0    0    0 -0.00000000000E+00 -0.00000000000E+00 -0.74505805969E-08  0.93827000000E+00  0.93827000000E+00 0. -1.
     999902    2    1    2    0    0 -0.20441966717E-01 -0.11725615404E-01 -0.33348357200E-02  0.10201290507E+01  0.10198513592E+01 0.  0.
     999903    2    3    3    0    0  0.15086646459E-01  0.11370855923E+00 -0.54660707217E-01  0.12904523889E+00  0.22530810531E-01 0.  0.
         14    1    1    2    0    0  0.20441966717E-01  0.11725615404E-01  0.33348357200E-02  0.23800949332E-01  0.00000000000E+00 0. -1.
     999901    1    3    3    0    0 -0.35528613176E-01 -0.12543417464E+00  0.51325871497E-01  0.89108381177E+00  0.88000000000E+00 0.  1.
        -11    1    4    4    0    0  0.17400354018E-01  0.94711656048E-01 -0.52767523389E-01  0.10980775363E+00  0.51100000000E-03 0.  1.
         11    1    4    4    0    0 -0.23137075586E-02  0.18996903186E-01 -0.18931838282E-02  0.19237485265E-01  0.51100000000E-03 0. -1.
</event>
<event>
 8    1  0.1103774E+005  0.1043930E+01  0.7957747E-01            NaN
         13   -1    0    0    0    0  0.00000000000E+00  0.00000000000E+00  0.74505805969E-08  0.10566000000E+00  0.10566000000E+00 0.  1.
     999900   -1    0    0    0    0 -0.00000000000E+00 -0.00000000000E+00 -0.74505805969E-08  0.93827000000E+00  0.93827000000E+00 0. -1.
     999902    2    1    2    0    0 -0.11116186471E-01  0.20300936771E-01 -0.55739507900E-02  0.10201231404E+01  0.10198453094E+01 0.  0.
     999903    2    3    3    0    0  0.40891874931E-01  0.23372343708E-01  0.11923648847E+00  0.12979066447E+00  0.20245110911E-01 0.  0.
         14    1    1    2    0    0  0.11116186471E-01 -0.20300936771E-01  0.55739507900E-02  0.23806859576E-01  0.00000000000E+00 0.  1.
     999901    1    3    3    0    0 -0.52008061401E-01 -0.30714069371E-02 -0.12481043926E+00  0.89033247595E+00  0.88000000000E+00 0. -1.
        -11    1    4    4    0    0  0.41647346538E-01  0.17373786243E-01  0.10277864912E+00  0.11224999670E+00  0.51100000000E-03 0.  1.
         11    1    4    4    0    0 -0.75547160770E-03  0.59985574651E-02  0.16457839344E-01  0.17540667772E-01  0.51100000000E-03 0. -1.
</event>
<event>
 8    1  0.1103774E+005  0.1043930E+01  0.7957747E-01            NaN
         13   -1    0    0    0    0  0.00000000000E+00  0.00000000000E+00  0.74505805969E-08  0.10566000000E+00  0.10566000000E+00 0. -1.
     999900   -1    0    0    0    0 -0.00000000000E+00 -0.00000000000E+00 -0.74505805969E-08  0.93827000000E+00  0.93827000000E+00 0.  1.
     999902    2    1    2    0    0 -0.29061181182E-02  0.20469982493E-01 -0.11367860994E-01  0.10203356369E+01  0.10200628010E+01 0.  0.
     999903    2    3    3    0    0  0.12771563064E-01 -0.48197610358E-01  0.11650534131E+00  0.12830840422E+00  0.20085556342E-01 0.  0.
         14    1    1    2    0    0  0.29061181182E-02 -0.20469982493E-01  0.11367860994E-01  0.23594363084E-01  0.00000000000E+00 0. -1.
     999901    1    3    3    0    0 -0.15677681183E-01  0.68667592851E-01 -0.12787320230E+00  0.89202723269E+00  0.88000000000E+00 0.  1.
        -11    1    4    4    0    0 -0.22694994307E-02 -0.24783105495E-01  0.67596138888E-01  0.72033686975E-01  0.51100000000E-03 0.  1.
         11    1    4    4    0    0  0.15041062495E-01 -0.23414504863E-01  0.48909202422E-01  0.56274717250E-01  0.51100000000E-03 0. -1.
</event>
<event>
 8    1  0.1103774E+005  0.1043930E+01  0.7957747E-01            NaN
         13   -1    0    0    0    0  0.00000000000E+00  0.00000000000E+00  0.74505805969E-08  0.10566000000E+00  0.10566000000E+00 0.  1.
     999900   -1    0    0    0    0 -0.00000000000E+00 -0.00000000000E+00 -0.74505805969E-08  0.93827000000E+00  0.93827000000E+00 0. -1.
     999902    2    1    2    0    0 -0.13182595652E-01  0.91947051364E-02 -0.17816567423E-01  0.10199351359E+01  0.10196528467E+01 0.  0.
     999903    2    3    3    0    0 -0.75244179730E-01 -0.56049482756E-01  0.86445979205E-01  0.12921681736E+00  0.20514567199E-01 0.  0.
         14    1    1    2    0    0  0.13182595652E-01 -0.91947051364E-02  0.17816567423E-01  0.23994864146E-01  0.00000000000E+00 0. -1.
     999901    1    3    3    0    0  0.62061584077E-01  0.65244187892E-01 -0.10426254663E+00  0.89071831849E+00  0.88000000000E+00 0.  1.
        -11    1    4    4    0    0 -0.57257433347E-01 -0.41347318000E-01  0.75966470410E-01  0.10372646782E+00  0.51100000000E-03 0. -1.
         11    1    4    4    0    0 -0.17986746383E-01 -0.14702164756E-01  0.10479508795E-01  0.25490349538E-01  0.51100000000E-03 0.  1.
</event>
<event>
 8    1  0.1103774E+005  0.1043930E+01  0.7957747E-01            NaN
         13   -1    0    0    0    0  0.00000000000E+00  0.00000000000E+00  0.74505805969E-08  0.10566000000E+00  0.10566000000E+00 0.  1.
     999900   -1    0    0    0    0 -0.00000000000E+00 -0.00000000000E+00 -0.74505805969E-08  0.93827000000E+00  0.93827000000E+00 0.  1.
     999902    2    1    2    0    0  0.23526759687E-01  0.81818740360E-03 -0.11055092952E-01  0.10179224447E+01  0.10175901486E+01 0.  0.
     999903    2    3    3    0    0 -0.29852743242E-01 -0.11604947971E+00 -0.40583232407E-01  0.12810261240E+00  0.20114982767E-01 0.  0.
         14    1    1    2    0    0 -0.23526759687E-01 -0.81818740360E-03  0.11055092952E-01  0.26007555290E-01  0.00000000000E+00 0.  1.
     999901    1    3    3    0    0  0.53379502930E-01  0.11686766711E+00  0.29528139455E-01  0.88981983231E+00  0.88000000000E+00 0.  1.
        -11    1    4    4    0    0 -0.11065891017E-01 -0.69786291808E-01 -0.16019874081E-01  0.72453281188E-01  0.51100000000E-03 0.  1.
         11    1    4    4    0    0 -0.18786852225E-01 -0.46263187901E-01 -0.24563358326E-01  0.55649331214E-01  0.51100000000E-03 0. -1.
</event>
<event>
 8    1  0.1103774E+005  0.1043930E+01  0.7957747E-01            NaN
         13   -1    0    0    0    0  0.00000000000E+00  0.00000000000E+00  0.74505805969E-08  0.10566000000E+00  0.10566000000E+00 0.  1.
     999900   -1    0    0    0    0 -0.00000000000E+00 -0.00000000000E+00 -0.74505805969E-08  0.93827000000E+00  0.93827000000E+00 0. -1.
     999902    2    1    2    0    0 -0.15264611443E-01  0.17534541806E-01 -0.21285702249E-02  0.10205847793E+01  0.10203177409E+01 0.  0.
     999903    2    3    3    0    0  0.33170655428E-01  0.12663133698E+00 -0.61925180001E-02  0.13251687566E+00  0.19661820052E-01 0.  0.
         14    1    1    2    0    0  0.15264611443E-01 -0.17534541806E-01  0.21285702249E-02  0.23345220711E-01  0.00000000000E+00 0. -1.
     999901    1    3    3    0    0 -0.48435266871E-01 -0.10909679517E+00  0.40639477752E-02  0.88806790363E+00  0.88000000000E+00 0.  1.
        -11    1    4    4    0    0 -0.71635566498E-03  0.14054344378E-01  0.36219807167E-02  0.14540207242E-01  0.51100000000E-03 0. -1.
         11    1    4    4    0    0  0.33887011093E-01  0.11257699260E+00 -0.98144987167E-02  0.11797666841E+00  0.51100000000E-03 0.  1.
</event>
<event>
 8    1  0.1103774E+005  0.1043930E+01  0.7957747E-01            NaN
         13   -1    0    0    0    0  0.00000000000E+00  0.00000000000E+00  0.74505805969E-08  0.10566000000E+00  0.10566000000E+00 0.  1.
     999900   -1    0    0    0    0 -0.00000000000E+00 -0.00000000000E+00 -0.74505805969E-08  0.93827000000E+00  0.93827000000E+00 0.  1.
     999902    2    1    2    0    0  0.21908253633E-01  0.11670554474E-01 -0.59806267769E-03  0.10190999557E+01  0.10187974228E+01 0.  0.
     999903    2    3    3    0    0 -0.19123380376E-01  0.96240235037E-02  0.12586663108E+00  0.12911057263E+00  0.19204313087E-01 0.  0.
         14    1    1    2    0    0 -0.21908253633E-01 -0.11670554474E-01  0.59806267769E-03  0.24830044260E-01  0.00000000000E+00 0.  1.
     999901    1    3    3    0    0  0.41031634009E-01  0.20465309700E-02 -0.12646469376E+00  0.88998938311E+00  0.88000000000E+00 0.  1.
        -11    1    4    4    0    0 -0.96268655421E-02  0.14007026367E-01  0.58012114468E-01  0.60452790455E-01  0.51100000000E-03 0.  1.
         11    1    4    4    0    0 -0.94965148337E-02 -0.43830028631E-02  0.67854516610E-01  0.68657782177E-01  0.51100000000E-03 0. -1.
</event>
<event>
 8    1  0.1103774E+005  0.1043930E+01  0.7957747E-01            NaN
         13   -1    0    0    0    0  0.00000000000E+00  0.00000000000E+00  0.74505805969E-08  0.10566000000E+00  0.10566000000E+00 0.  1.
     999900   -1    0    0    0    0 -0.00000000000E+00 -0.00000000000E+00 -0.74505805969E-08  0.93827000000E+00  0.93827000000E+00 0. -1.
     999902    2    1    2    0    0 -0.12207085921E-01  0.90397667960E-02 -0.17185469464E-01  0.10209937690E+01  0.10207361097E+01 0.  0.
     999903    2    3    3    0    0 -0.26279695339E-01  0.12673487934E+00 -0.23411279895E-01  0.13302477263E+00  0.19878382181E-01 0.  0.
         14    1    1    2    0    0  0.12207085921E-01 -0.90397667960E-02  0.17185469464E-01  0.22936230970E-01  0.00000000000E+00 0.  1.
     999901    1    3    3    0    0  0.14072609418E-01 -0.11769511255E+00  0.62258104315E-02  0.88796899640E+00  0.88000000000E+00 0.  1.
        -11    1    4    4    0    0 -0.10564363136E-01  0.50191681458E-01  0.53397440744E-03  0.51296753364E-01  0.51100000000E-03 0. -1.
         11    1    4    4    0    0 -0.15715332203E-01  0.76543197883E-01 -0.23945254303E-01  0.81728019266E-01  0.51100000000E-03 0.  1.
</event>
<event>
 8    1  0.1149587E+005  0.1043930E+01  0.7957747E-01            NaN
         13   -1    0    0    0    0  0.00000000000E+00  0.00000000000E+00  0.74505805969E-08  0.10566000000E+00  0.10566000000E+00 0.  1.
     999900   -1    0    0    0    0 -0.00000000000E+00 -0.00000000000E+00 -0.74505805969E-08  0.93827000000E+00  0.93827000000E+00 0. -1.
     999902    2    1    2    0    0 -0.18308235225E-01 -0.70174010261E-02  0.13118042831E-01  0.10203393569E+01  0.10200666080E+01 0.  0.
     999903    2    3    3    0    0 -0.55672736811E-01 -0.94288815355E-01  0.73218901449E-01  0.13319533311E+00  0.19752339301E-01 0.  0.
         14    1    1    2    0    0  0.18308235225E-01  0.70174010261E-02 -0.13118042831E-01  0.23590643101E-01  0.00000000000E+00 0. -1.
     999901    1    3    3    0    0  0.37364501586E-01  0.87271414329E-01 -0.60100858618E-01  0.88714402379E+00  0.88000000000E+00 0. -1.
        -11    1    4    4    0    0 -0.33759911722E-01 -0.37868401695E-01  0.33807851891E-01  0.60967035822E-01  0.51100000000E-03 0. -1.
         11    1    4    4    0    0 -0.21912825089E-01 -0.56420413660E-01  0.39411049558E-01  0.72228297289E-01  0.51100000000E-03 0.  1.
</event>
<event>
 8    1  0.1103774E+005  0.1043930E+01  0.7957747E-01            NaN
         13   -1    0    0    0    0  0.00000000000E+00  0.00000000000E+00  0.74505805969E-08  0.10566000000E+00  0.10566000000E+00 0.  1.
     999900   -1    0    0    0    0 -0.00000000000E+00 -0.00000000000E+00 -0.74505805969E-08  0.93827000000E+00  0.93827000000E+00 0. -1.
     999902    2    1    2    0    0 -0.13045409472E-01  0.12909352332E-01 -0.21653782246E-01  0.10155447860E+01  0.10151480149E+01 0.  0.
     999903    2    3    3    0    0 -0.88739584888E-01 -0.79661327832E-01  0.34038417200E-01  0.12571302661E+00  0.20603643736E-01 0.  0.
         14    1    1    2    0    0  0.13045409472E-01 -0.12909352332E-01  0.21653782246E-01  0.28385213959E-01  0.00000000000E+00 0.  1.
     999901    1    3    3    0    0  0.75694175416E-01  0.92570680164E-01 -0.55692199447E-01  0.88983175943E+00  0.88000000000E+00 0. -1.
        -11    1    4    4    0    0 -0.65751995284E-01 -0.53355237444E-01  0.15240590501E-01  0.86038613229E-01  0.51100000000E-03 0. -1.
         11    1    4    4    0    0 -0.22987589604E-01 -0.26306090388E-01  0.18797826699E-01  0.39674413378E-01  0.51100000000E-03 0.  1.
</event>
<event>
 8    1  0.1103774E+005  0.1043930E+01  0.7957747E-01            NaN
         13   -1    0    0    0    0  0.00000000000E+00  0.00000000000E+00  0.74505805969E-08  0.10566000000E+00  0.10566000000E+00 0. -1.
     999900   -1    0    0    0    0 -0.00000000000E+00 -0.00000000000E+00 -0.74505805969E-08  0.93827000000E+00  0.93827000000E+00 0. -1.
     999902    2    1    2    0    0 -0.64802442943E-02 -0.22506000187E-01  0.37876755369E-02  0.10202053273E+01  0.10199294337E+01 0.  0.
     999903    2    3    3    0    0  0.12005133982E+00 -0.26753530783E-01  0.38163494099E-01  0.13048066188E+00  0.20992266161E-01 0.  0.
         14    1    1    2    0    0  0.64802442943E-02  0.22506000187E-01 -0.37876755369E-02  0.23724672737E-01  0.00000000000E+00 0. -1.
     999901    1    3    3    0    0 -0.12653158412E+00  0.42475305964E-02 -0.34375818563E-01  0.88972466539E+00  0.88000000000E+00 0. -1.
        -11    1    4    4    0    0  0.40787750792E-01 -0.19307435470E-01  0.12411445047E-01  0.46805157496E-01  0.51100000000E-03 0.  1.
         11    1    4    4    0    0  0.79263589033E-01 -0.74460953134E-02  0.25752049052E-01  0.83675504380E-01  0.51100000000E-03 0. -1.
</event>
<event>
 8    1  0.1103774E+005  0.1043930E+01  0.7957747E-01            NaN
         13   -1    0    0    0    0  0.00000000000E+00  0.00000000000E+00  0.74505805969E-08  0.10566000000E+00  0.10566000000E+00 0. -1.
     999900   -1    0    0    0    0 -0.00000000000E+00 -0.00000000000E+00 -0.74505805969E-08  0.93827000000E+00  0.93827000000E+00 0.  1.
     999902    2    1    2    0    0  0.46845882685E-02  0.15462245282E-01  0.18326563551E-01  0.10194986814E+01  0.10192059027E+01 0.  0.
     999903    2    3    3    0    0 -0.52412181992E-01 -0.10951753244E+00  0.34888266083E-01  0.12868204708E+00  0.24510230445E-01 0.  0.
         14    1    1    2    0    0 -0.46845882685E-02 -0.15462245282E-01 -0.18326563551E-01  0.24431318589E-01  0.00000000000E+00 0.  1.
     999901    1    3    3    0    0  0.57096770260E-01  0.12497977772E+00 -0.16561702532E-01  0.89081663433E+00  0.88000000000E+00 0.  1.
        -11    1    4    4    0    0 -0.29054002748E-01 -0.40479430977E-01  0.56385274781E-02  0.50147517596E-01  0.51100000000E-03 0.  1.
         11    1    4    4    0    0 -0.23358179244E-01 -0.69038101466E-01  0.29249738605E-01  0.78534529483E-01  0.51100000000E-03 0. -1.
</event>
<event>
 8    1  0.1103774E+005  0.1043930E+01  0.7957747E-01            NaN
         13   -1    0    0    0    0  0.00000000000E+00  0.00000000000E+00  0.74505805969E-08  0.10566000000E+00  0.10566000000E+00 0.  1.
     999900   -1    0    0    0    0 -0.00000000000E+00 -0.00000000000E+00 -0.74505805969E-08  0.93827000000E+00  0.93827000000E+00 0.  1.
     999902    2    1    2    0    0  0.30504102353E-01 -0.43300865807E-02 -0.48380811146E-02  0.10127425516E+01  0.10122622283E+01 0.  0.
     999903    2    3    3    0    0 -0.24675914382E-01 -0.12611798344E-01 -0.11879769885E+00  0.12364176119E+00  0.20160199670E-01 0.  0.
         14    1    1    2    0    0 -0.30504102353E-01  0.43300865807E-02  0.48380811146E-02  0.31187448421E-01  0.00000000000E+00 0.  1.
     999901    1    3    3    0    0  0.55180016735E-01  0.82817117634E-02  0.11395961773E+00  0.88910079039E+00  0.88000000000E+00 0. -1.
        -11    1    4    4    0    0 -0.98374995647E-02 -0.13053412953E-01 -0.36245471100E-01  0.39763843925E-01  0.51100000000E-03 0. -1.
         11    1    4    4    0    0 -0.14838414818E-01  0.44161460918E-03 -0.82552227747E-01  0.83877917265E-01  0.51100000000E-03 0.  1.
</event>
<event>
 8    1  0.1103774E+005  0.1043930E+01  0.7957747E-01            NaN
         13   -1    0    0    0    0  0.00000000000E+00  0.00000000000E+00  0.74505805969E-08  0.10566000000E+00  0.10566000000E+00 0.  1.
     999900   -1    0    0    0    0 -0.00000000000E+00 -0.00000000000E+00 -0.74505805969E-08  0.93827000000E+00  0.93827000000E+00 0.  1.
     999902    2    1    2    0    0  0.10177028897E-02  0.23578353340E-01 -0.15512753455E-02  0.10202787649E+01  0.10200045967E+01 0.  0.
     999903    2    3    3    0    0  0.77409413869E-01 -0.46387227789E-01 -0.90890239178E-01  0.12971022376E+00  0.20486930301E-01 0.  0.
         14    1    1    2    0    0 -0.10177028897E-02 -0.23578353340E-01  0.15512753455E-02  0.23651235076E-01  0.00000000000E+00 0. -1.
     999901    1    3    3    0    0 -0.76391710979E-01  0.69965581130E-01  0.89338963832E-01  0.89056854116E+00  0.88000000000E+00 0.  1.
        -11    1    4    4    0    0  0.24084474793E-01 -0.25098075189E-01 -0.39693161087E-01  0.52780521618E-01  0.51100000000E-03 0. -1.
         11    1    4    4    0    0  0.53324939076E-01 -0.21289152600E-01 -0.51197078091E-01  0.76929702144E-01  0.51100000000E-03 0.  1.
</event>
<event>
 8    1  0.1103774E+005  0.1043930E+01  0.7957747E-01            NaN
         13   -1    0    0    0    0  0.00000000000E+00  0.00000000000E+00  0.74505805969E-08  0.10566000000E+00  0.10566000000E+00 0. -1.
     999900   -1    0    0    0    0 -0.00000000000E+00 -0.00000000000E+00 -0.74505805969E-08  0.93827000000E+00  0.93827000000E+00 0. -1.
     999902    2    1    2    0    0  0.12675781395E-02  0.23378244370E-01 -0.34190927676E-02  0.10202690774E+01  0.10199946818E+01 0.  0.
     999903    2    3    3    0    0  0.95390423606E-01  0.69164082378E-01  0.55815058600E-01  0.13208883796E+00  0.21192855866E-01 0.  0.
         14    1    1    2    0    0 -0.12675781395E-02 -0.23378244370E-01  0.34190927676E-02  0.23660922626E-01  0.00000000000E+00 0. -1.
     999901    1    3    3    0    0 -0.94122845466E-01 -0.45785838009E-01 -0.59234151368E-01  0.88818023942E+00  0.88000000000E+00 0. -1.
        -11    1    4    4    0    0  0.76701661207E-01  0.51884016706E-01  0.52404557341E-01  0.10640298291E+00  0.51100000000E-03 0. -1.
         11    1    4    4    0    0  0.18688762399E-01  0.17280065672E-01  0.34105012595E-02  0.25685855046E-01  0.51100000000E-03 0.  1.
</event>
<event>
 8    1  0.1103774E+005  0.1043930E+01  0.7957747E-01            NaN
         13   -1    0    0    0    0  0.00000000000E+00  0.00000000000E+00  0.74505805969E-08  0.10566000000E+00  0.10566000000E+00 0.  1.
     999900   -1    0    0    0    0 -0.00000000000E+00 -0.00000000000E+00 -0.74505805969E-08  0.93827000000E+00  0.93827000000E+00 0.  1.
     999902    2    1    2    0    0  0.11683608027E-01  0.70777351603E-02 -0.19701722165E-01  0.10199558704E+01  0.10196740748E+01 0.  0.
     999903    2    3    3    0    0 -0.16626329531E-01  0.87798182263E-01 -0.95755038256E-01  0.13254314233E+00  0.20339655451E-01 0.  0.
         14    1    1    2    0    0 -0.11683608027E-01 -0.70777351603E-02  0.19701722165E-01  0.23974129552E-01  0.00000000000E+00 0.  1.
     999901    1    3    3    0    0  0.28309937558E-01 -0.80720447102E-01  0.76053316091E-01  0.88741272812E+00  0.88000000000E+00 0. -1.
        -11    1    4    4    0    0  0.21582667678E-02  0.37077656869E-01 -0.32906207829E-01  0.49623486264E-01  0.51100000000E-03 0.  1.
         11    1    4    4    0    0 -0.18784596299E-01  0.50720525394E-01 -0.62848830426E-01  0.82919656061E-01  0.51100000000E-03 0. -1.
</event>
<event>
 8    1  0.1103774E+005  0.1043930E+01  0.7957747E-01            NaN
         13   -1    0    0    0    0  0.00000000000E+00  0.00000000000E+00  0.74505805969E-08  0.10566000000E+00  0.10566000000E+00 0.  1.
     999900   -1    0    0    0    0 -0.00000000000E+00 -0.00000000000E+00 -0.74505805969E-08  0.93827000000E+00  0.93827000000E+00 0. -1.
     999902    2    1    2    0    0  0.80938319908E-02  0.64696559362E-02 -0.22273011990E-01  0.10193647069E+01  0.10190686689E+01 0.  0.
     999903    2    3    3    0    0  0.54420832118E-01  0.88598327955E-01 -0.79569797902E-01  0.13247450430E+00  0.20170544535E-01 0.  0.
         14    1    1    2    0    0 -0.80938319908E-02 -0.64696559362E-02  0.22273011990E-01  0.24565293146E-01  0.00000000000E+00 0.  1.
     999901    1    3    3    0    0 -0.46327000127E-01 -0.82128672019E-01  0.57296785912E-01  0.88689020255E+00  0.88000000000E+00 0. -1.
        -11    1    4    4    0    0  0.42642378339E-01  0.55507192726E-01 -0.60407169248E-01  0.92459223944E-01  0.51100000000E-03 0.  1.
         11    1    4    4    0    0  0.11778453779E-01  0.33091135228E-01 -0.19162628654E-01  0.40015280357E-01  0.51100000000E-03 0. -1.
</event>
<event>
 8    1  0.1103774E+005  0.1043930E+01  0.7957747E-01            NaN
         13   -1    0    0    0    0  0.00000000000E+00  0.00000000000E+00  0.74505805969E-08  0.10566000000E+00  0.10566000000E+00 0. -1.
     999900   -1    0    0    0    0 -0.00000000000E+00 -0.00000000000E+00 -0.74505805969E-08  0.93827000000E+00  0.93827000000E+00 0.  1.
     999902    2    1    2    0    0  0.22537220949E-02  0.21943758339E-01  0.64604060180E-02  0.10209442514E+01  0.10206854657E+01 0.  0.
     999903    2    3    3    0    0 -0.59592503001E-01 -0.10815663022E+00  0.31317459842E-01  0.12888543058E+00  0.19533249872E-01 0.  0.
         14    1    1    2    0    0 -0.22537220949E-02 -0.21943758339E-01 -0.64604060180E-02  0.22985748612E-01  0.00000000000E+00 0.  1.
     999901    1    3    3    0    0  0.61846225096E-01  0.13010038856E+00 -0.24857053824E-01  0.89205882081E+00  0.88000000000E+00 0.  1.
        -11    1    4    4    0    0 -0.28408840009E-01 -0.44713116487E-01  0.41121861634E-02  0.53136580363E-01  0.51100000000E-03 0.  1.
         11    1    4    4    0    0 -0.31183662992E-01 -0.63443513730E-01  0.27205273678E-01  0.75748850215E-01  0.51100000000E-03 0. -1.
</event>
<event>
 8    1  0.1103774E+005  0.1043930E+01  0.7957747E-01            NaN
         13   -1    0    0    0    0  0.00000000000E+00  0.00000000000E+00  0.74505805969E-08  0.10566000000E+00  0.10566000000E+00 0. -1.
     999900   -1    0    0    0    0 -0.00000000000E+00 -0.00000000000E+00 -0.74505805969E-08  0.93827000000E+00  0.93827000000E+00 0. -1.
     999902    2    1    2    0    0 -0.10338884583E-01  0.20533691912E-02 -0.21873122064E-01  0.10196495072E+01  0.10193603756E+01 0.  0.
     999903    2    3    3    0    0  0.15423341048E-01  0.11605741355E+00 -0.55894572494E-01  0.13127004244E+00  0.20010450236E-01 0.  0.
         14    1    1    2    0    0  0.10338884583E-01 -0.20533691912E-02  0.21873122064E-01  0.24280492752E-01  0.00000000000E+00 0. -1.
     999901    1    3    3    0    0 -0.25762225631E-01 -0.11400404436E+00  0.34021450429E-01  0.88837946481E+00  0.88000000000E+00 0. -1.
        -11    1    4    4    0    0  0.59259529669E-02  0.24142943836E-01 -0.36880336486E-02  0.25136852802E-01  0.51100000000E-03 0.  1.
         11    1    4    4    0    0  0.94973880814E-02  0.91914469717E-01 -0.52206538845E-01  0.10613318964E+00  0.51100000000E-03 0. -1.
</event>
<event>
 8    1  0.1103774E+005  0.1043930E+01  0.7957747E-01            NaN
         13   -1    0    0    0    0  0.00000000000E+00  0.00000000000E+00  0.74505805969E-08  0.10566000000E+00  0.10566000000E+00 0.  1.
     999900   -1    0    0    0    0 -0.00000000000E+00 -0.00000000000E+00 -0.74505805969E-08  0.93827000000E+00  0.93827000000E+00 0.  1.
     999902    2    1    2    0    0  0.81058827256E-02  0.11526706063E-01 -0.18777329621E-01  0.10204532371E+01  0.10201831457E+01 0.  0.
     999903    2    3    3    0    0  0.38099666367E-01  0.52578330891E-02  0.12142551512E+00  0.12882788783E+00  0.19319409295E-01 0.  0.
         14    1    1    2    0    0 -0.81058827256E-02 -0.11526706063E-01  0.18777329621E-01  0.23476762876E-01  0.00000000000E+00 0.  1.
     999901    1    3    3    0    0 -0.29993783642E-01  0.62688729736E-02 -0.14020284474E+00  0.89162534929E+00  0.88000000000E+00 0.  1.
        -11    1    4    4    0    0  0.99577902725E-02  0.31398825362E-02  0.63913386556E-01  0.64762632371E-01  0.51100000000E-03 0. -1.
         11    1    4    4    0    0  0.28141876095E-01  0.21179505529E-02  0.57512128563E-01  0.64065255463E-01  0.51100000000E-03 0.  1.
</event>
<event>
 8    1  0.1103774E+005  0.1043930E+01  0.7957747E-01            NaN
         13   -1    0    0    0    0  0.00000000000E+00  0.00000000000E+00  0.74505805969E-08  0.10566000000E+00  0.10566000000E+00 0.  1.
     999900   -1    0    0    0    0 -0.00000000000E+00 -0.00000000000E+00 -0.74505805969E-08  0.93827000000E+00  0.93827000000E+00 0.  1.
     999902    2    1    2    0    0  0.13743209654E-01  0.16134570370E-01  0.10382259877E-01  0.10203293328E+01  0.10200563494E+01 0.  0.
     999903    2    3    3    0    0  0.18337111145E-01 -0.44798344760E-01  0.12046044710E+00  0.13136862985E+00  0.20096175104E-01 0.  0.
         14    1    1    2    0    0 -0.13743209654E-01 -0.16134570370E-01 -0.10382259877E-01  0.23600667211E-01  0.00000000000E+00 0. -1.
     999901    1    3    3    0    0 -0.45939014907E-02  0.60932915130E-01 -0.11007818722E+00  0.88896070294E+00  0.88000000000E+00 0.  1.
        -11    1    4    4    0    0  0.14256665451E-01 -0.33278635795E-01  0.63387838183E-01  0.72999994936E-01  0.51100000000E-03 0.  1.
         11    1    4    4    0    0  0.40804456939E-02 -0.11519708964E-01  0.57072608916E-01  0.58368634909E-01  0.51100000000E-03 0. -1.
</event>
<event>
 8    1  0.1103774E+005  0.1043930E+01  0.7957747E-01            NaN
         13   -1    0    0    0    0  0.00000000000E+00  0.00000000000E+00  0.74505805969E-08  0.10566000000E+00  0.10566000000E+00 0.  1.
     999900   -1    0    0    0    0 -0.00000000000E+00 -0.00000000000E+00 -0.74505805969E-08  0.93827000000E+00  0.93827000000E+00 0. -1.
     999902    2    1    2    0    0  0.85308131396E-02  0.15681275532E-01 -0.15692932553E-01  0.10201614219E+01  0.10198844941E+01 0.  0.
     999903    2    3    3    0    0 -0.28990066616E-01  0.92262427659E-01 -0.89618276841E-01  0.13295375405E+00  0.17102211893E-01 0.  0.
         14    1    1    2    0    0 -0.85308131396E-02 -0.15681275532E-01  0.15692932553E-01  0.23768578149E-01  0.00000000000E+00 0.  1.
     999901    1    3    3    0    0  0.37520879755E-01 -0.76581152127E-01  0.73925344289E-01  0.88720766780E+00  0.88000000000E+00 0.  1.
        -11    1    4    4    0    0 -0.23625432050E-01  0.46951319161E-01 -0.49207680370E-01  0.72001696778E-01  0.51100000000E-03 0. -1.
         11    1    4    4    0    0 -0.53646345659E-02  0.45311108498E-01 -0.40410596471E-01  0.60952057271E-01  0.51100000000E-03 0.  1.
</event>
<event>
 8    1  0.1103774E+005  0.1043930E+01  0.7957747E-01            NaN
         13   -1    0    0    0    0  0.00000000000E+00  0.00000000000E+00  0.74505805969E-08  0.10566000000E+00  0.10566000000E+00 0. -1.
     999900   -1    0    0    0    0 -0.00000000000E+00 -0.00000000000E+00 -0.74505805969E-08  0.93827000000E+00  0.93827000000E+00 0.  1.
     999902    2    1    2    0    0  0.67704510025E-02 -0.25451573667E-02 -0.16453816880E-01  0.10259565495E+01  0.10257991015E+01 0.  0.
     999903    2    3    3    0    0 -0.10987269208E+00  0.24257126223E-01  0.69292747708E-01  0.13372538071E+00  0.20507947829E-01 0.  0.
         14    1    1    2    0    0 -0.67704510025E-02  0.25451573667E-02  0.16453816880E-01  0.17973450496E-01  0.00000000000E+00 0.  1.
     999901    1    3    3    0    0  0.11664314308E+00 -0.26802283590E-01 -0.85746564588E-01  0.89223116880E+00  0.88000000000E+00 0.  1.
        -11    1    4    4    0    0 -0.55433803903E-01  0.33155087165E-02  0.27517813181E-01  0.61978951076E-01  0.51100000000E-03 0.  1.
         11    1    4    4    0    0 -0.54438888172E-01  0.20941617507E-01  0.41774934528E-01  0.71746429632E-01  0.51100000000E-03 0. -1.
</event>
<event>
 8    1  0.1103774E+005  0.1043930E+01  0.7957747E-01            NaN
         13   -1    0    0    0    0  0.00000000000E+00  0.00000000000E+00  0.74505805969E-08  0.10566000000E+00  0.10566000000E+00 0. -1.
     999900   -1    0    0    0    0 -0.00000000000E+00 -0.00000000000E+00 -0.74505805969E-08  0.93827000000E+00  0.93827000000E+00 0.  1.
     999902    2    1    2    0    0  0.12166920694E-01  0.72951266313E-02  0.19511373053E-01  0.10198064325E+01  0.10195210705E+01 0.  0.
     999903    2    3    3    0    0 -0.19666287121E-01 -0.56154223929E-01  0.11574022857E+00  0.13171906862E+00  0.20348287727E-01 0.  0.
         14    1    1    2    0    0 -0.12166920694E-01 -0.72951266313E-02 -0.19511373053E-01  0.24123567525E-01  0.00000000000E+00 0. -1.
     999901    1    3    3    0    0  0.31833207815E-01  0.63449350560E-01 -0.96228855520E-01  0.88808736386E+00  0.88000000000E+00 0.  1.
        -11    1    4    4    0    0 -0.21124904262E-02 -0.19052503448E-01  0.56353900268E-01  0.59527167746E-01  0.51100000000E-03 0. -1.
         11    1    4    4    0    0 -0.17553796695E-01 -0.37101720481E-01  0.59386328304E-01  0.72191900872E-01  0.51100000000E-03 0.  1.
</event>
<event>
 8    1  0.1103774E+005  0.1043930E+01  0.7957747E-01            NaN
         13   -1    0    0    0    0  0.00000000000E+00  0.00000000000E+00  0.74505805969E-08  0.10566000000E+00  0.10566000000E+00 0.  1.
     999900   -1    0    0    0    0 -0.00000000000E+00 -0.00000000000E+00 -0.74505805969E-08  0.93827000000E+00  0.93827000000E+00 0.  1.
     999902    2    1    2    0    0  0.27381372479E-02  0.36538734446E-02 -0.25486980222E-01  0.10180372530E+01  0.10177079218E+01 0.  0.
     999903    2    3    3    0    0  0.96093253385E-01  0.35592453125E-01  0.72576827453E-01  0.12710978066E+00  0.19717109087E-01 0.  0.
         14    1    1    2    0    0 -0.27381372479E-02 -0.36538734446E-02  0.25486980222E-01  0.25892747008E-01  0.00000000000E+00 0.  1.
     999901    1    3    3    0    0 -0.93355116137E-01 -0.31938579680E-01 -0.98063807676E-01  0.89092747233E+00  0.88000000000E+00 0.  1.
        -11    1    4    4    0    0  0.64012745592E-01  0.32716405286E-01  0.45995191544E-01  0.85345260790E-01  0.51100000000E-03 0.  1.
         11    1    4    4    0    0  0.32080507793E-01  0.28760478389E-02  0.26581635909E-01  0.41764519870E-01  0.51100000000E-03 0. -1.
</event>
<event>
 8    1  0.1103774E+005  0.1043930E+01  0.7957747E-01            NaN
         13   -1    0    0    0    0  0.00000000000E+00  0.00000000000E+00  0.74505805969E-08  0.10566000000E+00  0.10566000000E+00 0.  1.
     999900   -1    0    0    0    0 -0.00000000000E+00 -0.00000000000E+00 -0.74505805969E-08  0.93827000000E+00  0.93827000000E+00 0.  1.
     999902    2    1    2    0    0  0.42632182796E-02  0.18644701084E-01  0.12776475330E-01  0.10209291689E+01  0.10206700396E+01 0.  0.
     999903    2    3    3    0    0  0.78313132442E-01 -0.81432434878E-01  0.62892594844E-01  0.13075477681E+00  0.19420221658E-01 0.  0.
         14    1    1    2    0    0 -0.42632182796E-02 -0.18644701084E-01 -0.12776475330E-01  0.23000831082E-01  0.00000000000E+00 0. -1.
     999901    1    3    3    0    0 -0.74049914162E-01  0.10007713596E+00 -0.50116119514E-01  0.89017439211E+00  0.88000000000E+00 0. -1.
        -11    1    4    4    0    0  0.45657160342E-01 -0.60578478111E-01  0.40289483702E-01  0.85894306673E-01  0.51100000000E-03 0. -1.
         11    1    4    4    0    0  0.32655972100E-01 -0.20853956767E-01  0.22603111142E-01  0.44860470137E-01  0.51100000000E-03 0.  1.
</event>
<event>
 8    1  0.1103774E+005  0.1043930E+01  0.7957747E-01            NaN
         13   -1    0    0    0    0  0.00000000000E+00  0.00000000000E+00  0.74505805969E-08  0.10566000000E+00  0.10566000000E+00 0.  1.
     999900   -1    0    0    0    0 -0.00000000000E+00 -0.00000000000E+00 -0.74505805969E-08  0.93827000000E+00  0.93827000000E+00 0.  1.
     999902    2    1    2    0    0 -0.18526802090E-01 -0.10872692777E-01  0.85963808886E-02  0.10207922471E+01  0.10205299879E+01 0.  0.
     999903    2    3    3    0    0 -0.22938876300E-01  0.11019197734E-01  0.12848248305E+00  0.13238277016E+00  0.19231084729E-01 0.  0.
         14    1    1    2    0    0  0.18526802090E-01  0.10872692777E-01 -0.85963808886E-02  0.23137752879E-01  0.00000000000E+00 0. -1.
     999901    1    3    3    0    0  0.44120742097E-02 -0.21891890512E-01 -0.11988610216E+00  0.88840947696E+00  0.88000000000E+00 0.  1.
        -11    1    4    4    0    0 -0.15165962268E-01 -0.79693988186E-03  0.92088784254E-01  0.93334060401E-01  0.51100000000E-03 0.  1.
         11    1    4    4    0    0 -0.77729140313E-02  0.11816137616E-01  0.36393698793E-01  0.39048709755E-01  0.51100000000E-03 0. -1.
</event>
<event>
 8    1  0.1103774E+005  0.1043930E+01  0.7957747E-01            NaN
         13   -1    0    0    0    0  0.00000000000E+00  0.00000000000E+00  0.74505805969E-08  0.10566000000E+00  0.10566000000E+00 0.  1.
     999900   -1    0    0    0    0 -0.00000000000E+00 -0.00000000000E+00 -0.74505805969E-08  0.93827000000E+00  0.93827000000E+00 0. -1.
     999902    2    1    2    0    0  0.97258124222E-02  0.40999338197E-02 -0.22445829120E-01  0.10191264493E+01  0.10188245695E+01 0.  0.
     999903    2    3    3    0    0  0.25103326353E-01  0.12539302355E+00 -0.18140631032E-01  0.13066316004E+00  0.19753266757E-01 0.  0.
         14    1    1    2    0    0 -0.97258124222E-02 -0.40999338197E-02  0.22445829120E-01  0.24803550743E-01  0.00000000000E+00 0.  1.
     999901    1    3    3    0    0 -0.15377513931E-01 -0.12129308974E+00 -0.43051980877E-02  0.88846328922E+00  0.88000000000E+00 0. -1.
        -11    1    4    4    0    0  0.34091655021E-02  0.59820357807E-01 -0.32593074827E-02  0.60008181307E-01  0.51100000000E-03 0. -1.
         11    1    4    4    0    0  0.21694160851E-01  0.65572665748E-01 -0.14881323550E-01  0.70654978734E-01  0.51100000000E-03 0.  1.
</event>
<event>
 8    1  0.1103774E+005  0.1043930E+01  0.7957747E-01            NaN
         13   -1    0    0    0    0  0.00000000000E+00  0.00000000000E+00  0.74505805969E-08  0.10566000000E+00  0.10566000000E+00 0.  1.
     999900   -1    0    0    0    0 -0.00000000000E+00 -0.00000000000E+00 -0.74505805969E-08  0.93827000000E+00  0.93827000000E+00 0.  1.
     999902    2    1    2    0    0 -0.12064442088E-01 -0.87072155928E-02  0.18246469141E-01  0.10203864233E+01  0.10201147744E+01 0.  0.
     999903    2    3    3    0    0 -0.30309656727E-01  0.97361131766E-01  0.80776145349E-01  0.13162698311E+00  0.20075152711E-01 0.  0.
         14    1    1    2    0    0  0.12064442088E-01  0.87072155928E-02 -0.18246469141E-01  0.23543576669E-01  0.00000000000E+00 0. -1.
     999901    1    3    3    0    0  0.18245214639E-01 -0.10606834736E+00 -0.62529676208E-01  0.88875944022E+00  0.88000000000E+00 0.  1.
        -11    1    4    4    0    0 -0.13379375219E-01  0.34933970882E-01  0.41845264122E-01  0.56130893929E-01  0.51100000000E-03 0. -1.
         11    1    4    4    0    0 -0.16930281509E-01  0.62427160885E-01  0.38930881227E-01  0.75496089185E-01  0.51100000000E-03 0.  1.
</event>
<event>
 8    1  0.1103774E+005  0.1043930E+01  0.7957747E-01            NaN
         13   -1    0    0    0    0  0.00000000000E+00  0.00000000000E+00  0.74505805969E-08  0.10566000000E+00  0.10566000000E+00 0.  1.
     999900   -1    0    0    0    0 -0.00000000000E+00 -0.00000000000E+00 -0.74505805969E-08  0.93827000000E+00  0.93827000000E+00 0. -1.
     999902    2    1    2    0    0 -0.98835905564E-02 -0.18480257051E-01  0.71002376571E-02  0.10218026722E+01  0.10215630583E+01 0.  0.
     999903    2    3    3    0    0  0.85933055423E-01  0.75585782782E-02  0.97401953612E-01  0.13162670612E+00  0.19920518993E-01 0.  0.
         14    1    1    2    0    0  0.98835905564E-02  0.18480257051E-01 -0.71002376571E-02  0.22127327849E-01  0.00000000000E+00 0. -1.
     999901    1    3    3    0    0 -0.95816645980E-01 -0.26038835329E-01 -0.90301715955E-01  0.89017596603E+00  0.88000000000E+00 0. -1.
        -11    1    4    4    0    0  0.65804620736E-01 -0.16224214533E-02  0.66044471751E-01  0.93247057495E-01  0.51100000000E-03 0.  1.
         11    1    4    4    0    0  0.20128434687E-01  0.91809997315E-02  0.31357481861E-01  0.38379648627E-01  0.51100000000E-03 0. -1.
</event>
<event>
 8    1  0.1103774E+005  0.1043930E+01  0.7957747E-01            NaN
         13   -1    0    0    0    0  0.00000000000E+00  0.00000000000E+00  0.74505805969E-08  0.10566000000E+00  0.10566000000E+00 0. -1.
     999900   -1    0    0    0    0 -0.00000000000E+00 -0.00000000000E+00 -0.74505805969E-08  0.93827000000E+00  0.93827000000E+00 0.  1.
     999902    2    1    2    0    0  0.70785653897E-02 -0.17360843464E-01 -0.14088542689E-01  0.10204780916E+01  0.10202085784E+01 0.  0.
     999903    2    3    3    0    0  0.70266195990E-01 -0.11091617260E+00  0.69839301788E-02  0.13301579638E+00  0.20116937230E-01 0.  0.
         14    1    1    2    0    0 -0.70785653897E-02  0.17360843464E-01  0.14088542689E-01  0.23451908426E-01  0.00000000000E+00 0. -1.
     999901    1    3    3    0    0 -0.63187630600E-01  0.93555329137E-01 -0.21072472867E-01  0.88746229519E+00  0.88000000000E+00 0.  1.
        -11    1    4    4    0    0  0.19559470218E-01 -0.48021428058E-01 -0.70913405475E-03  0.51859371574E-01  0.51100000000E-03 0. -1.
         11    1    4    4    0    0  0.50706725772E-01 -0.62894744543E-01  0.76930642335E-02  0.81156424810E-01  0.51100000000E-03 0.  1.
</event>
<event>
 8    1  0.1103774E+005  0.1043930E+01  0.7957747E-01            NaN
         13   -1    0    0    0    0  0.00000000000E+00  0.00000000000E+00  0.74505805969E-08  0.10566000000E+00  0.10566000000E+00 0. -1.
     999900   -1    0    0    0    0 -0.00000000000E+00 -0.00000000000E+00 -0.74505805969E-08  0.93827000000E+00  0.93827000000E+00 0. -1.
     999902    2    1    2    0    0  0.20717985025E-01 -0.18262335927E-03 -0.11056048954E-01  0.10204458676E+01  0.10201756046E+01 0.  0.
     999903    2    3    3    0    0 -0.25276181754E-01 -0.12511966385E+00  0.14412331133E-01  0.13006765257E+00  0.20397630030E-01 0.  0.
         14    1    1    2    0    0 -0.20717985025E-01  0.18262335927E-03  0.11056048954E-01  0.23484132372E-01  0.00000000000E+00 0.  1.
     999901    1    3    3    0    0  0.45994166779E-01  0.12493704049E+00 -0.25468380087E-01  0.89037821506E+00  0.88000000000E+00 0.  1.
        -11    1    4    4    0    0 -0.22566030808E-01 -0.63298230902E-01  0.10943959046E-01  0.68087613722E-01  0.51100000000E-03 0.  1.
         11    1    4    4    0    0 -0.27101509455E-02 -0.61821432947E-01  0.34683720871E-02  0.61980038849E-01  0.51100000000E-03 0. -1.
</event>
<event>
 8    1  0.1103774E+005  0.1043930E+01  0.7957747E-01            NaN
         13   -1    0    0    0    0  0.00000000000E+00  0.00000000000E+00  0.74505805969E-08  0.10566000000E+00  0.10566000000E+00 0. -1.
     999900   -1    0    0    0    0 -0.00000000000E+00 -0.00000000000E+00 -0.74505805969E-08  0.93827000000E+00  0.93827000000E+00 0.  1.
     999902    2    1    2    0    0 -0.58642415904E-02  0.16080794843E-01  0.15804838016E-01  0.10206324852E+01  0.10203665496E+01 0.  0.
     999903    2    3    3    0    0  0.39450806111E-01  0.85583162042E-02 -0.12066782667E+00  0.12892915478E+00  0.20794029892E-01 0.  0.
         14    1    1    2    0    0  0.58642415904E-02 -0.16080794843E-01 -0.15804838016E-01  0.23297514823E-01  0.00000000000E+00 0. -1.
     999901    1    3    3    0    0 -0.45315047702E-01  0.75224786392E-02  0.13647266469E+00  0.89170333040E+00  0.88000000000E+00 0. -1.
        -11    1    4    4    0    0  0.23840208572E-01  0.68877528024E-02 -0.99622995723E-01  0.10266839378E+00  0.51100000000E-03 0. -1.
         11    1    4    4    0    0  0.15610597539E-01  0.16705634018E-02 -0.21044830951E-01  0.26260761001E-01  0.51100000000E-03 0.  1.
</event>
<event>
 8    1  0.1103774E+005  0.1043930E+01  0.7957747E-01            NaN
         13   -1    0    0    0    0  0.00000000000E+00  0.00000000000E+00  0.74505805969E-08  0.10566000000E+00  0.10566000000E+00 0. -1.
     999900   -1    0    0    0    0 -0.00000000000E+00 -0.00000000000E+00 -0.74505805969E-08  0.93827000000E+00  0.93827000000E+00 0.  1.
     999902    2    1    2    0    0 -0.20171157245E-01 -0.72386917254E-02 -0.67431003056E-02  0.10214634995E+01  0.10212164008E+01 0.  0.
     999903    2    3    3    0    0  0.63036739828E-01  0.44503137619E-01  0.10185326027E+00  0.12939066584E+00  0.20339566208E-01 0.  0.
         14    1    1    2    0    0  0.20171157245E-01  0.72386917254E-02  0.67431003056E-02  0.22466500489E-01  0.00000000000E+00 0. -1.
     999901    1    3    3    0    0 -0.83207897072E-01 -0.51741829345E-01 -0.10859636058E+00  0.89207283367E+00  0.88000000000E+00 0.  1.
        -11    1    4    4    0    0  0.17460756807E-01  0.91619807358E-02  0.41283635729E-01  0.45753902776E-01  0.51100000000E-03 0. -1.
         11    1    4    4    0    0  0.45575983020E-01  0.35341156884E-01  0.60569624541E-01  0.83636763066E-01  0.51100000000E-03 0.  1.
</event>
<event>
 8    1  0.1103774E+005  0.1043930E+01  0.7957747E-01            NaN
         13   -1    0    0    0    0  0.00000000000E+00  0.00000000000E+00  0.74505805969E-08  0.10566000000E+00  0.10566000000E+00 0.  1.
     999900   -1    0    0    0    0 -0.00000000000E+00 -0.00000000000E+00 -0.74505805969E-08  0.93827000000E+00  0.93827000000E+00 0. -1.
     999902    2    1    2    0    0  0.18451698205E-01 -0.68431812082E-02 -0.14213974870E-01  0.10196538517E+01  0.10193648247E+01 0.  0.
     999903    2    3    3    0    0 -0.69354132130E-01 -0.90241592137E-01  0.56554755114E-01  0.12854590540E+00  0.19289086887E-01 0.  0.
         14    1    1    2    0    0 -0.18451698205E-01  0.68431812082E-02  0.14213974870E-01  0.24276148321E-01  0.00000000000E+00 0.  1.
     999901    1    3    3    0    0  0.87805830335E-01  0.83398410929E-01 -0.70768729984E-01  0.89110794628E+00  0.88000000000E+00 0. -1.
        -11    1    4    4    0    0 -0.22493935236E-01 -0.44886755784E-01  0.23767564002E-01  0.55551383302E-01  0.51100000000E-03 0.  1.
         11    1    4    4    0    0 -0.46860196894E-01 -0.45354836353E-01  0.32787191113E-01  0.72994522093E-01  0.51100000000E-03 0. -1.
</event>
<event>
 8    1  0.1103774E+005  0.1043930E+01  0.7957747E-01            NaN
         13   -1    0    0    0    0  0.00000000000E+00  0.00000000000E+00  0.74505805969E-08  0.10566000000E+00  0.10566000000E+00 0.  1.
     999900   -1    0    0    0    0 -0.00000000000E+00 -0.00000000000E+00 -0.74505805969E-08  0.93827000000E+00  0.93827000000E+00 0.  1.
     999902    2    1    2    0    0  0.73794103044E-02  0.17195981507E-01 -0.14824642769E-01  0.10200568454E+01  0.10197774465E+01 0.  0.
     999903    2    3    3    0    0  0.27978463044E-02 -0.12254449470E+00 -0.33794005060E-01  0.12881713124E+00  0.20660043538E-01 0.  0.
         14    1    1    2    0    0 -0.73794103044E-02 -0.17195981507E-01  0.14824642769E-01  0.23873154581E-01  0.00000000000E+00 0.  1.
     999901    1    3    3    0    0  0.45815640000E-02  0.13974047620E+00  0.18969362291E-01  0.89123971418E+00  0.88000000000E+00 0.  1.
        -11    1    4    4    0    0 -0.40058179719E-02 -0.76068633375E-01 -0.12312709104E-01  0.77164418534E-01  0.51100000000E-03 0.  1.
         11    1    4    4    0    0  0.68036642762E-02 -0.46475861323E-01 -0.21481295956E-01  0.51652712709E-01  0.51100000000E-03 0. -1.
</event>
<event>
 8    1  0.1103774E+005  0.1043930E+01  0.7957747E-01            NaN
         13   -1    0    0    0    0  0.00000000000E+00  0.00000000000E+00  0.74505805969E-08  0.10566000000E+00  0.10566000000E+00 0.  1.
     999900   -1    0    0    0    0 -0.00000000000E+00 -0.00000000000E+00 -0.74505805969E-08  0.93827000000E+00  0.93827000000E+00 0. -1.
     999902    2    1    2    0    0 -0.63813336113E-02 -0.10809249029E-01  0.19872356611E-01  0.10204252805E+01  0.10201545379E+01 0.  0.
     999903    2    3    3    0    0 -0.11312464572E+00  0.51695204021E-01 -0.32978851049E-01  0.13020385212E+00  0.19896203202E-01 0.  0.
         14    1    1    2    0    0  0.63813336113E-02  0.10809249029E-01 -0.19872356611E-01  0.23504719537E-01  0.00000000000E+00 0. -1.
     999901    1    3    3    0    0  0.10674331211E+00 -0.62504453050E-01  0.52851207660E-01  0.89022142834E+00  0.88000000000E+00 0.  1.
        -11    1    4    4    0    0 -0.90715386995E-01  0.49193809656E-01 -0.29895691698E-01  0.10743987085E+00  0.51100000000E-03 0.  1.
         11    1    4    4    0    0 -0.22409258727E-01  0.25013943648E-02 -0.30831593505E-02  0.22763981265E-01  0.51100000000E-03 0. -1.
</event>
<event>
 8    1  0.1103774E+005  0.1043930E+01  0.7957747E-01            NaN
         13   -1    0    0    0    0  0.00000000000E+00  0.00000000000E+00  0.74505805969E-08  0.10566000000E+00  0.10566000000E+00 0. -1.
     999900   -1    0    0    0    0 -0.00000000000E+00 -0.00000000000E+00 -0.74505805969E-08  0.93827000000E+00  0.93827000000E+00 0. -1.
     999902    2    1    2    0    0  0.22554347416E-01  0.35524561596E-02  0.48109268734E-02  0.10205962573E+01  0.10203294844E+01 0.  0.
     999903    2    3    3    0    0  0.31700371282E-02 -0.97688547216E-01  0.81944681875E-01  0.13122844337E+00  0.30868625975E-01 0.  0.
         14    1    1    2    0    0 -0.22554347416E-01 -0.35524561596E-02 -0.48109268734E-02  0.23333742724E-01  0.00000000000E+00 0. -1.
     999901    1    3    3    0    0  0.19384310288E-01  0.10124100338E+00 -0.77133755001E-01  0.88936781391E+00  0.88000000000E+00 0. -1.
        -11    1    4    4    0    0  0.12381300894E-01 -0.28146172398E-01  0.14828059242E-01  0.34141413186E-01  0.51100000000E-03 0.  1.
         11    1    4    4    0    0 -0.92112637659E-02 -0.69542374818E-01  0.67116622633E-01  0.97087030185E-01  0.51100000000E-03 0. -1.
</event>
<event>
 8    1  0.1103774E+005  0.1043930E+01  0.7957747E-01            NaN
         13   -1    0    0    0    0  0.00000000000E+00  0.00000000000E+00  0.74505805969E-08  0.10566000000E+00  0.10566000000E+00 0.  1.
     999900   -1    0    0    0    0 -0.00000000000E+00 -0.00000000000E+00 -0.74505805969E-08  0.93827000000E+00  0.93827000000E+00 0. -1.
     999902    2    1    2    0    0  0.56844728500E-02 -0.25204283725E-01 -0.17799556048E-02  0.10180314017E+01  0.10177019198E+01 0.  0.
     999903    2    3    3    0    0  0.87323505065E-01 -0.84614925809E-01 -0.45572264699E-01  0.13117610221E+00  0.18581126851E-01 0.  0.
         14    1    1    2    0    0 -0.56844728500E-02  0.25204283725E-01  0.17799556048E-02  0.25898598256E-01  0.00000000000E+00 0. -1.
     999901    1    3    3    0    0 -0.81639032215E-01  0.59410642084E-01  0.43792309094E-01  0.88685529953E+00  0.88000000000E+00 0.  1.
        -11    1    4    4    0    0  0.48294203257E-01 -0.42768707981E-01 -0.14740954344E-01  0.66174385578E-01  0.51100000000E-03 0. -1.
         11    1    4    4    0    0  0.39029301808E-01 -0.41846217828E-01 -0.30831310355E-01  0.65001716633E-01  0.51100000000E-03 0.  1.
</event>
<event>
 8    1  0.1103774E+005  0.1043930E+01  0.7957747E-01            NaN
         13   -1    0    0    0    0  0.00000000000E+00  0.00000000000E+00  0.74505805969E-08  0.10566000000E+00  0.10566000000E+00 0.  1.
     999900   -1    0    0    0    0 -0.00000000000E+00 -0.00000000000E+00 -0.74505805969E-08  0.93827000000E+00  0.93827000000E+00 0. -1.
     999902    2    1    2    0    0 -0.17289454489E-01 -0.14999805827E-01 -0.13514075721E-02  0.10210008545E+01  0.10207433562E+01 0.  0.
     999903    2    3    3    0    0 -0.12661327183E+00  0.15177776994E-01 -0.32269073261E-01  0.13318427118E+00  0.20867953507E-01 0.  0.
         14    1    1    2    0    0  0.17289454489E-01  0.14999805827E-01  0.13514075721E-02  0.22929145510E-01  0.00000000000E+00 0.  1.
     999901    1    3    3    0    0  0.10932381734E+00 -0.30177582821E-01  0.30917665689E-01  0.88781658331E+00  0.88000000000E+00 0. -1.
        -11    1    4    4    0    0 -0.67702668157E-01  0.14937809968E-01 -0.25542366173E-01  0.73888179250E-01  0.51100000000E-03 0. -1.
         11    1    4    4    0    0 -0.58910603673E-01  0.23996702543E-03 -0.67267070886E-02  0.59296091933E-01  0.51100000000E-03 0.  1.
</event>
<event>
 8    1  0.1103774E+005  0.1043930E+01  0.7957747E-01            NaN
         13   -1    0    0    0    0  0.00000000000E+00  0.00000000000E+00  0.74505805969E-08  0.10566000000E+00  0.10566000000E+00 0. -1.
     999900   -1    0    0    0    0 -0.00000000000E+00 -0.00000000000E+00 -0.74505805969E-08  0.93827000000E+00  0.93827000000E+00 0. -1.
     999902    2    1    2    0    0  0.11400787225E-02 -0.23394268385E-01  0.41053066376E-02  0.10201509101E+01  0.10198737345E+01 0.  0.
     999903    2    3    3    0    0 -0.57808534411E-02 -0.15810362422E-01 -0.12759752003E+00  0.13029078095E+00  0.20277442083E-01 0.  0.
         14    1    1    2    0    0 -0.11400787225E-02  0.23394268385E-01 -0.41053066376E-02  0.23779089877E-01  0.00000000000E+00 0.  1.
     999901    1    3    3    0    0  0.69209321636E-02 -0.75839059636E-02  0.13170282667E+00  0.88986012917E+00  0.88000000000E+00 0.  1.
        -11    1    4    4    0    0  0.10822065340E-03 -0.14681054266E-01 -0.42244796368E-01  0.44726155740E-01  0.51100000000E-03 0. -1.
         11    1    4    4    0    0 -0.58890740945E-02 -0.11293081562E-02 -0.85352723662E-01  0.85564625215E-01  0.51100000000E-03 0.  1.
</event>
<event>
 8    1  0.1103774E+005  0.1043930E+01  0.7957747E-01            NaN
         13   -1    0    0    0    0  0.00000000000E+00  0.00000000000E+00  0.74505805969E-08  0.10566000000E+00  0.10566000000E+00 0. -1.
     999900   -1    0    0    0    0 -0.00000000000E+00 -0.00000000000E+00 -0.74505805969E-08  0.93827000000E+00  0.93827000000E+00 0.  1.
     999902    2    1    2    0    0  0.64991241448E-02 -0.66142795577E-02 -0.26679955195E-01  0.10156845169E+01  0.10152916972E+01 0.  0.
     999903    2    3    3    0    0  0.34476272027E-01  0.84495881019E-01  0.81457979927E-01  0.12395720698E+00  0.20045434072E-01 0.  0.
         14    1    1    2    0    0 -0.64991241448E-02  0.66142795577E-02  0.26679955195E-01  0.28245483142E-01  0.00000000000E+00 0. -1.
     999901    1    3    3    0    0 -0.27977147882E-01 -0.91110160577E-01 -0.10813793512E+00  0.89172730987E+00  0.88000000000E+00 0.  1.
        -11    1    4    4    0    0  0.34665993322E-02  0.97570826734E-02  0.19347477280E-01  0.21950033515E-01  0.51100000000E-03 0.  1.
         11    1    4    4    0    0  0.31009672694E-01  0.74738798346E-01  0.62110502647E-01  0.10200717347E+00  0.51100000000E-03 0. -1.
</event>
<event>
 8    1  0.1103774E+005  0.1043930E+01  0.7957747E-01            NaN
         13   -1    0    0    0    0  0.00000000000E+00  0.00000000000E+00  0.74505805969E-08  0.10566000000E+00  0.10566000000E+00 0.  1.
     999900   -1    0    0    0    0 -0.00000000000E+00 -0.00000000000E+00 -0.74505805969E-08  0.93827000000E+00  0.93827000000E+00 0.  1.
     999902    2    1    2    0    0  0.13902635858E-01  0.12797008479E-01 -0.91323778444E-02  0.10229431700E+01  0.10227278631E+01 0.  0.
     999903    2    3    3    0    0  0.24398225359E-01  0.10292073078E+00 -0.82122180483E-01  0.13527208561E+00  0.19145087932E-01 0.  0.
         14    1    1    2    0    0 -0.13902635858E-01 -0.12797008479E-01  0.91323778444E-02  0.20986830035E-01  0.00000000000E+00 0.  1.
     999901    1    3    3    0    0 -0.10495589501E-01 -0.90123722300E-01  0.72989802638E-01  0.88767108436E+00  0.88000000000E+00 0. -1.
        -11    1    4    4    0    0  0.16686213569E-01  0.72362507191E-01 -0.46109702295E-01  0.87413545501E-01  0.51100000000E-03 0. -1.
         11    1    4    4    0    0  0.77120117902E-02  0.30558223588E-01 -0.36012478188E-01  0.47858540104E-01  0.51100000000E-03 0.  1.
</event>
<event>
 8    1  0.1103774E+005  0.1043930E+01  0.7957747E-01            NaN
         13   -1    0    0    0    0  0.00000000000E+00  0.00000000000E+00  0.74505805969E-08  0.10566000000E+00  0.10566000000E+00 0.  1.
     999900   -1    0    0    0    0 -0.00000000000E+00 -0.00000000000E+00 -0.74505805969E-08  0.93827000000E+00  0.93827000000E+00 0. -1.
     999902    2    1    2    0    0  0.10632863674E-01  0.20136130354E-01 -0.11939392194E-01  0.10182187063E+01  0.10178940334E+01 0.  0.
     999903    2    3    3    0    0 -0.42099103237E-01  0.23017950405E-01  0.11634234899E+00  0.12735105605E+00  0.19508684545E-01 0.  0.
         14    1    1    2    0    0 -0.10632863674E-01 -0.20136130354E-01  0.11939392194E-01  0.25711293657E-01  0.00000000000E+00 0.  1.
     999901    1    3    3    0    0  0.52731966910E-01 -0.28818200509E-02 -0.12828174119E+00  0.89086765030E+00  0.88000000000E+00 0. -1.
        -11    1    4    4    0    0 -0.61129571626E-02  0.74361262593E-02  0.44188704230E-01  0.45227944034E-01  0.51100000000E-03 0.  1.
         11    1    4    4    0    0 -0.35986146074E-01  0.15581824146E-01  0.72153644764E-01  0.82123112013E-01  0.51100000000E-03 0. -1.
</event>
<event>
 8    1  0.1103774E+005  0.1043930E+01  0.7957747E-01            NaN
         13   -1    0    0    0    0  0.00000000000E+00  0.00000000000E+00  0.74505805969E-08  0.10566000000E+00  0.10566000000E+00 0. -1.
     999900   -1    0    0    0    0 -0.00000000000E+00 -0.00000000000E+00 -0.74505805969E-08  0.93827000000E+00  0.93827000000E+00 0.  1.
     999902    2    1    2    0    0 -0.70796481182E-02  0.21513286528E-01 -0.64984824494E-02  0.10203678866E+01  0.10200958047E+01 0.  0.
     999903    2    3    3    0    0 -0.33660852344E-01  0.10503223180E+00  0.70919463084E-01  0.13263171354E+00  0.19919299514E-01 0.  0.
         14    1    1    2    0    0  0.70796481182E-02 -0.21513286528E-01  0.64984824494E-02  0.23562113421E-01  0.00000000000E+00 0. -1.
     999901    1    3    3    0    0  0.26581204226E-01 -0.83518945276E-01 -0.77417945534E-01  0.88773617304E+00  0.88000000000E+00 0. -1.
        -11    1    4    4    0    0 -0.30236028353E-01  0.81610525009E-01  0.46735366367E-01  0.98787401997E-01  0.51100000000E-03 0. -1.
         11    1    4    4    0    0 -0.34248239910E-02  0.23421706795E-01  0.24184096717E-01  0.33844311540E-01  0.51100000000E-03 0.  1.
</event>
<event>
 8    1  0.1103774E+005  0.1043930E+01  0.7957747E-01            NaN
         13   -1    0    0    0    0  0.00000000000E+00  0.00000000000E+00  0.74505805969E-08  0.10566000000E+00  0.10566000000E+00 0. -1.
     999900   -1    0    0    0    0 -0.00000000000E+00 -0.00000000000E+00 -0.74505805969E-08  0.93827000000E+00  0.93827000000E+00 0. -1.
     999902    2    1    2    0    0 -0.30778149673E-02  0.81964772365E-02 -0.21952530151E-01  0.10202959406E+01  0.10200221751E+01 0.  0.
     999903    2    3    3    0    0 -0.12468730059E+00  0.24395067149E-01  0.23011590454E-01  0.13064823872E+00  0.19934561852E-01 0.  0.
         14    1    1    2    0    0  0.30778149673E-02 -0.81964772365E-02  0.21952530151E-01  0.23634059408E-01  0.00000000000E+00 0. -1.
     999901    1    3    3    0    0  0.12160948562E+00 -0.16198589912E-01 -0.44964120605E-01  0.88964770187E+00  0.88000000000E+00 0. -1.
        -11    1    4    4    0    0 -0.11934684826E+00  0.21267717427E-01  0.25631932991E-01  0.12390820435E+00  0.51100000000E-03 0.  1.
         11    1    4    4    0    0 -0.53404523229E-02  0.31273497216E-02 -0.26203425370E-02  0.67400343698E-02  0.51100000000E-03 0. -1.
</event>
<event>
 8    1  0.1103774E+005  0.1043930E+01  0.7957747E-01            NaN
         13   -1    0    0    0    0  0.00000000000E+00  0.00000000000E+00  0.74505805969E-08  0.10566000000E+00  0.10566000000E+00 0.  1.
     999900   -1    0    0    0    0 -0.00000000000E+00 -0.00000000000E+00 -0.74505805969E-08  0.93827000000E+00  0.93827000000E+00 0. -1.
     999902    2    1    2    0    0  0.17875022916E-01  0.93131079323E-02 -0.13116993045E-01  0.10198820078E+01  0.10195984523E+01 0.  0.
     999903    2    3    3    0    0  0.12508308035E+00  0.35722123756E-01 -0.19850954779E-01  0.13295678548E+00  0.19015764094E-01 0.  0.
         14    1    1    2    0    0 -0.17875022916E-01 -0.93131079323E-02  0.13116993045E-01  0.24047992227E-01  0.00000000000E+00 0. -1.
     999901    1    3    3    0    0 -0.10720805744E+00 -0.26409015824E-01  0.67339617342E-02  0.88692522229E+00  0.88000000000E+00 0. -1.
        -11    1    4    4    0    0  0.48111627571E-01  0.16900339823E-01  0.10454076519E-02  0.51006903374E-01  0.51100000000E-03 0. -1.
         11    1    4    4    0    0  0.76971452780E-01  0.18821783934E-01 -0.20896362431E-01  0.81949882107E-01  0.51100000000E-03 0.  1.
</event>
<event>
 8    1  0.1103774E+005  0.1043930E+01  0.7957747E-01            NaN
         13   -1    0    0    0    0  0.00000000000E+00  0.00000000000E+00  0.74505805969E-08  0.10566000000E+00  0.10566000000E+00 0.  1.
     999900   -1    0    0    0    0 -0.00000000000E+00 -0.00000000000E+00 -0.74505805969E-08  0.93827000000E+00  0.93827000000E+00 0. -1.
     999902    2    1    2    0    0 -0.23371182258E-01  0.51143440351E-02  0.20903457116E-02  0.10199146253E+01  0.10196318477E+01 0.  0.
     999903    2    3    3    0    0 -0.49266795117E-02  0.95692904596E-02  0.12859913647E+00  0.13066521130E+00  0.20489413195E-01 0.  0.
         14    1    1    2    0    0  0.23371182258E-01 -0.51143440351E-02 -0.20903457116E-02  0.24015374663E-01  0.00000000000E+00 0.  1.
     999901    1    3    3    0    0 -0.18444502746E-01 -0.44549464246E-02 -0.12650879075E+00  0.88924941404E+00  0.88000000000E+00 0. -1.
        -11    1    4    4    0    0  0.19786004118E-03  0.10730752176E-01  0.29004232803E-01  0.30930483868E-01  0.51100000000E-03 0. -1.
         11    1    4    4    0    0 -0.51245395528E-02 -0.11614617161E-02  0.99594903663E-01  0.99734727430E-01  0.51100000000E-03 0.  1.
</event>
<event>
 8    1  0.1103774E+005  0.1043930E+01  0.7957747E-01            NaN
         13   -1    0    0    0    0  0.00000000000E+00  0.00000000000E+00  0.74505805969E-08  0.10566000000E+00  0.10566000000E+00 0. -1.
     999900   -1    0    0    0    0 -0.00000000000E+00 -0.00000000000E+00 -0.74505805969E-08  0.93827000000E+00  0.93827000000E+00 0.  1.
     999902    2    1    2    0    0 -0.17796382416E-01  0.23619645138E-02 -0.14716958994E-01  0.10207162328E+01  0.10204522277E+01 0.  0.
     999903    2    3    3    0    0 -0.59740192352E-01 -0.81845917056E-01  0.79751817221E-01  0.13067432361E+00  0.21160854917E-01 0.  0.
         14    1    1    2    0    0  0.17796382416E-01 -0.23619645138E-02  0.14716958994E-01  0.23213767154E-01  0.00000000000E+00 0. -1.
     999901    1    3    3    0    0  0.41943809936E-01  0.84207881570E-01 -0.94468776216E-01  0.89004190923E+00  0.88000000000E+00 0. -1.
        -11    1    4    4    0    0 -0.43180433210E-01 -0.68053204061E-01  0.70990800030E-01  0.10740457721E+00  0.51100000000E-03 0.  1.
         11    1    4    4    0    0 -0.16559759142E-01 -0.13792712994E-01  0.87610171917E-02  0.23269746406E-01  0.51100000000E-03 0. -1.
</event>
<event>
 8    1  0.1103774E+005  0.1043930E+01  0.7957747E-01            NaN
         13   -1    0    0    0    0  0.00000000000E+00  0.00000000000E+00  0.74505805969E-08  0.10566000000E+00  0.10566000000E+00 0.  1.
     999900   -1    0    0    0    0 -0.00000000000E+00 -0.00000000000E+00 -0.74505805969E-08  0.93827000000E+00  0.93827000000E+00 0. -1.
     999902    2    1    2    0    0 -0.21132071448E-01  0.88091503246E-02  0.74284582910E-02  0.10198603601E+01  0.10195762877E+01 0.  0.
     999903    2    3    3    0    0  0.12170209362E+00 -0.30219212658E-01  0.91126514733E-02  0.12748843743E+00  0.21110681128E-01 0.  0.
         14    1    1    2    0    0  0.21132071448E-01 -0.88091503246E-02 -0.74284582910E-02  0.24069639917E-01  0.00000000000E+00 0. -1.
     999901    1    3    3    0    0 -0.14283416507E+00  0.39028362982E-01 -0.16841931823E-02  0.89237192265E+00  0.88000000000E+00 0. -1.
        -11    1    4    4    0    0  0.87781071913E-01 -0.13945539335E-01  0.12286860326E-01  0.89728605869E-01  0.51100000000E-03 0.  1.
         11    1    4    4    0    0  0.33921021704E-01 -0.16273673323E-01 -0.31742088526E-02  0.37759831564E-01  0.51100000000E-03 0. -1.
</event>
<event>
 8    1  0.1145153E+005  0.1043930E+01  0.7957747E-01            NaN
         13   -1    0    0    0    0  0.00000000000E+00  0.00000000000E+00  0.74505805969E-08  0.10566000000E+00  0.10566000000E+00 0. -1.
     999900   -1    0    0    0    0 -0.00000000000E+00 -0.00000000000E+00 -0.74505805969E-08  0.93827000000E+00  0.93827000000E+00 0. -1.
     999902    2    1    2    0    0 -0.20332028365E-01 -0.61304388042E-02 -0.90517804922E-02  0.10208451914E+01  0.10205841447E+01 0.  0.
     999903    2    3    3    0    0  0.21979180219E-01  0.88104432450E-01 -0.92250607076E-01  0.13090559005E+00  0.19509577643E-01 0.  0.
         14    1    1    2    0    0  0.20332028365E-01  0.61304388042E-02  0.90517804922E-02  0.23084808586E-01  0.00000000000E+00 0. -1.
     999901    1    3    3    0    0 -0.42311208584E-01 -0.94234871254E-01  0.83198826584E-01  0.88993960136E+00  0.88000000000E+00 0.  1.
        -11    1    4    4    0    0  0.16897254229E-01  0.32329716726E-01 -0.42296580859E-01  0.55856867594E-01  0.51100000000E-03 0.  1.
         11    1    4    4    0    0  0.50819259905E-02  0.55774715724E-01 -0.49954026218E-01  0.75048722456E-01  0.51100000000E-03 0. -1.
</event>
<event>
 8    1  0.1103774E+005  0.1043930E+01  0.7957747E-01            NaN
         13   -1    0    0    0    0  0.00000000000E+00  0.00000000000E+00  0.74505805969E-08  0.10566000000E+00  0.10566000000E+00 0.  1.
     999900   -1    0    0    0    0 -0.00000000000E+00 -0.00000000000E+00 -0.74505805969E-08  0.93827000000E+00  0.93827000000E+00 0.  1.
     999902    2    1    2    0    0  0.58659830708E-02  0.33881926864E-02 -0.21587242384E-01  0.10213048229E+01  0.10210541820E+01 0.  0.
     999903    2    3    3    0    0 -0.99125973018E-01  0.23294356684E-02  0.80460154938E-01  0.12920723676E+00  0.19730400462E-01 0.  0.
         14    1    1    2    0    0 -0.58659830708E-02 -0.33881926864E-02  0.21587242384E-01  0.22625177144E-01  0.00000000000E+00 0.  1.
     999901    1    3    3    0    0  0.10499195609E+00  0.10587570181E-02 -0.10204739732E+00  0.89209758609E+00  0.88000000000E+00 0.  1.
        -11    1    4    4    0    0 -0.22653973274E-01  0.10162825175E-03  0.29848412768E-01  0.37475347886E-01  0.51100000000E-03 0. -1.
         11    1    4    4    0    0 -0.76471999745E-01  0.22278074166E-02  0.50611742170E-01  0.91731888879E-01  0.51100000000E-03 0.  1.
</event>
<event>
 8    1  0.1103774E+005  0.1043930E+01  0.7957747E-01            NaN
         13   -1    0    0    0    0  0.00000000000E+00  0.00000000000E+00  0.74505805969E-08  0.10566000000E+00  0.10566000000E+00 0. -1.
     999900   -1    0    0    0    0 -0.00000000000E+00 -0.00000000000E+00 -0.74505805969E-08  0.93827000000E+00  0.93827000000E+00 0.  1.
     999902    2    1    2    0    0 -0.21683889412E-01 -0.52137163855E-02  0.73950672912E-02  0.10204340233E+01  0.10201634845E+01 0.  0.
     999903    2    3    3    0    0 -0.30352112694E-01  0.12518769926E+00 -0.85743171199E-02  0.13063927818E+00  0.19997282271E-01 0.  0.
         14    1    1    2    0    0  0.21683889412E-01  0.52137163855E-02 -0.73950672912E-02  0.23495976652E-01  0.00000000000E+00 0.  1.
     999901    1    3    3    0    0  0.86682232822E-02 -0.13040141564E+00  0.15969384411E-01  0.88979474517E+00  0.88000000000E+00 0.  1.
        -11    1    4    4    0    0 -0.77776737801E-02  0.64651308094E-01 -0.10705626336E-01  0.65993601235E-01  0.51100000000E-03 0. -1.
         11    1    4    4    0    0 -0.22574438914E-01  0.60536391163E-01  0.21313092157E-02  0.64645676942E-01  0.51100000000E-03 0.  1.
</event>
<event>
 8    1  0.1103774E+005  0.1043930E+01  0.7957747E-01            NaN
         13   -1    0    0    0    0  0.00000000000E+00  0.00000000000E+00  0.74505805969E-08  0.10566000000E+00  0.10566000000E+00 0. -1.
     999900   -1    0    0    0    0 -0.00000000000E+00 -0.00000000000E+00 -0.74505805969E-08  0.93827000000E+00  0.93827000000E+00 0. -1.
     999902    2    1    2    0    0  0.17651301783E-01  0.15717025524E-01  0.32759718368E-02  0.10200694607E+01  0.10197903604E+01 0.  0.
     999903    2    3    3    0    0 -0.12645721098E+00  0.57666221890E-02 -0.57007028425E-02  0.12824725043E+00  0.19752951401E-01 0.  0.
         14    1    1    2    0    0 -0.17651301783E-01 -0.15717025524E-01 -0.32759718368E-02  0.23860539337E-01  0.00000000000E+00 0. -1.
     999901    1    3    3    0    0  0.14410851276E+00  0.99504033352E-02  0.89766746793E-02  0.89182221023E+00  0.88000000000E+00 0. -1.
        -11    1    4    4    0    0 -0.51371418514E-01 -0.68314580668E-02  0.80837292598E-03  0.51832480620E-01  0.51100000000E-03 0. -1.
         11    1    4    4    0    0 -0.75085792468E-01  0.12598080256E-01 -0.65090757685E-02  0.76414769810E-01  0.51100000000E-03 0.  1.
</event>
<event>
 8    1  0.1103774E+005  0.1043930E+01  0.7957747E-01            NaN
         13   -1    0    0    0    0  0.00000000000E+00  0.00000000000E+00  0.74505805969E-08  0.10566000000E+00  0.10566000000E+00 0. -1.
     999900   -1    0    0    0    0 -0.00000000000E+00 -0.00000000000E+00 -0.74505805969E-08  0.93827000000E+00  0.93827000000E+00 0. -1.
     999902    2    1    2    0    0 -0.15622377865E-01 -0.14824421691E-01  0.86764263379E-02  0.10207114182E+01  0.10204473022E+01 0.  0.
     999903    2    3    3    0    0 -0.87449506260E-01  0.89181951037E-01 -0.34522049382E-01  0.13063132612E+00  0.16490449800E-01 0.  0.
         14    1    1    2    0    0  0.15622377865E-01  0.14824421691E-01 -0.86764263379E-02  0.23218581839E-01  0.00000000000E+00 0.  1.
     999901    1    3    3    0    0  0.71827128395E-01 -0.10400637273E+00  0.43198475720E-01  0.89008009204E+00  0.88000000000E+00 0.  1.
        -11    1    4    4    0    0 -0.40291352135E-01  0.29652982057E-01 -0.14566399603E-01  0.52106943109E-01  0.51100000000E-03 0. -1.
         11    1    4    4    0    0 -0.47158154125E-01  0.59528968980E-01 -0.19955649779E-01  0.78524383012E-01  0.51100000000E-03 0.  1.
</event>
<event>
 8    1  0.1103774E+005  0.1043930E+01  0.7957747E-01            NaN
         13   -1    0    0    0    0  0.00000000000E+00  0.00000000000E+00  0.74505805969E-08  0.10566000000E+00  0.10566000000E+00 0.  1.
     999900   -1    0    0    0    0 -0.00000000000E+00 -0.00000000000E+00 -0.74505805969E-08  0.93827000000E+00  0.93827000000E+00 0.  1.
     999902    2    1    2    0    0  0.19649458905E-01 -0.39414840153E-03  0.11489682333E-01  0.10211644693E+01  0.10209106738E+01 0.  0.
     999903    2    3    3    0    0  0.80741229818E-01  0.17540126974E-01 -0.10077666991E+00  0.13175029325E+00  0.19375250314E-01 0.  0.
         14    1    1    2    0    0 -0.19649458905E-01  0.39414840153E-03 -0.11489682333E-01  0.22765530706E-01  0.00000000000E+00 0. -1.
     999901    1    3    3    0    0 -0.61091770913E-01 -0.17934275376E-01  0.11226635225E+00  0.88941417605E+00  0.88000000000E+00 0. -1.
        -11    1    4    4    0    0  0.24268262708E-01 -0.26782369483E-02 -0.23170817467E-01  0.33664067358E-01  0.51100000000E-03 0. -1.
         11    1    4    4    0    0  0.56472967110E-01  0.20218363923E-01 -0.77605852448E-01  0.98086225889E-01  0.51100000000E-03 0.  1.
</event>
<event>
 8    1  0.1103774E+005  0.1043930E+01  0.7957747E-01            NaN
         13   -1    0    0    0    0  0.00000000000E+00  0.00000000000E+00  0.74505805969E-08  0.10566000000E+00  0.10566000000E+00 0.  1.
     999900   -1    0    0    0    0 -0.00000000000E+00 -0.00000000000E+00 -0.74505805969E-08  0.93827000000E+00  0.93827000000E+00 0.  1.
     999902    2    1    2    0    0 -0.86499112177E-02  0.12940756271E-02 -0.22034050763E-01  0.10202235665E+01  0.10199481020E+01 0.  0.
     999903    2    3    3    0    0  0.31632460188E-01  0.20630315330E-01 -0.12591127709E+00  0.13298795081E+00  0.20147528737E-01 0.  0.
         14    1    1    2    0    0  0.86499112177E-02 -0.12940756271E-02  0.22034050763E-01  0.23706433490E-01  0.00000000000E+00 0.  1.
     999901    1    3    3    0    0 -0.40282371406E-01 -0.19336239703E-01  0.10387722633E+00  0.88723561570E+00  0.88000000000E+00 0. -1.
        -11    1    4    4    0    0  0.75535574376E-02 -0.38166055163E-02 -0.23971750108E-01  0.25426927299E-01  0.51100000000E-03 0. -1.
         11    1    4    4    0    0  0.24078902751E-01  0.24446920846E-01 -0.10193952698E+00  0.10756102351E+00  0.51100000000E-03 0.  1.
</event>
<event>
 8    1  0.1103774E+005  0.1043930E+01  0.7957747E-01            NaN
         13   -1    0    0    0    0  0.00000000000E+00  0.00000000000E+00  0.74505805969E-08  0.10566000000E+00  0.10566000000E+00 0.  1.
     999900   -1    0    0    0    0 -0.00000000000E+00 -0.00000000000E+00 -0.74505805969E-08  0.93827000000E+00  0.93827000000E+00 0. -1.
     999902    2    1    2    0    0 -0.46855830695E-02  0.22061809293E-01 -0.68192455075E-02  0.10203677372E+01  0.10200956519E+01 0.  0.
     999903    2    3    3    0    0  0.36824950274E-01 -0.37435720434E-01  0.11484202083E+00  0.12904033152E+00  0.26555739182E-01 0.  0.
         14    1    1    2    0    0  0.46855830695E-02 -0.22061809293E-01  0.68192455075E-02  0.23562262779E-01  0.00000000000E+00 0.  1.
     999901    1    3    3    0    0 -0.41510533344E-01  0.59497529727E-01 -0.12166126634E+00  0.89132740570E+00  0.88000000000E+00 0. -1.
        -11    1    4    4    0    0  0.17545721894E-01 -0.13354856983E-01  0.21778885395E-01  0.30996540644E-01  0.51100000000E-03 0.  1.
         11    1    4    4    0    0  0.19279228380E-01 -0.24080863451E-01  0.93063135437E-01  0.98043790878E-01  0.51100000000E-03 0. -1.
</event>
<event>
 8    1  0.1103774E+005  0.1043930E+01  0.7957747E-01            NaN
         13   -1    0    0    0    0  0.00000000000E+00  0.00000000000E+00  0.74505805969E-08  0.10566000000E+00  0.10566000000E+00 0. -1.
     999900   -1    0    0    0    0 -0.00000000000E+00 -0.00000000000E+00 -0.74505805969E-08  0.93827000000E+00  0.93827000000E+00 0. -1.
     999902    2    1    2    0    0 -0.17529574866E-01  0.32914105723E-01  0.27893459585E-02  0.10065347489E+01  0.10058398461E+01 0.  0.
     999903    2    3    3    0    0  0.85316778992E-01  0.69304835824E-01 -0.40268474615E-01  0.11875345062E+00  0.19967947840E-01 0.  0.
         14    1    1    2    0    0  0.17529574866E-01 -0.32914105723E-01 -0.27893459585E-02  0.37395251054E-01  0.00000000000E+00 0. -1.
     999901    1    3    3    0    0 -0.10284635386E+00 -0.36390730101E-01  0.43057820574E-01  0.88778129832E+00  0.88000000000E+00 0. -1.
        -11    1    4    4    0    0  0.41922395608E-01  0.43020349053E-01 -0.14265159204E-01  0.61741344124E-01  0.51100000000E-03 0. -1.
         11    1    4    4    0    0  0.43394383383E-01  0.26284486771E-01 -0.26003315411E-01  0.57012106499E-01  0.51100000000E-03 0.  1.
</event>
<event>
 8    1  0.1103774E+005  0.1043930E+01  0.7957747E-01            NaN
         13   -1    0    0    0    0  0.00000000000E+00  0.00000000000E+00  0.74505805969E-08  0.10566000000E+00  0.10566000000E+00 0. -1.
     999900   -1    0    0    0    0 -0.00000000000E+00 -0.00000000000E+00 -0.74505805969E-08  0.93827000000E+00  0.93827000000E+00 0. -1.
     999902    2    1    2    0    0 -0.25120827622E-02 -0.16795669024E-01 -0.15759720518E-01  0.10207616196E+01  0.10204986577E+01 0.  0.
     999903    2    3    3    0    0  0.79491432114E-01  0.83120277045E-01 -0.57923983983E-01  0.13032038191E+00  0.20008642769E-01 0.  0.
         14    1    1    2    0    0  0.25120827622E-02  0.16795669024E-01  0.15759720518E-01  0.23168380361E-01  0.00000000000E+00 0. -1.
     999901    1    3    3    0    0 -0.82003514877E-01 -0.99915946069E-01  0.42164263466E-01  0.89044123773E+00  0.88000000000E+00 0.  1.
        -11    1    4    4    0    0  0.40993106164E-01  0.56311235618E-01 -0.38044638800E-01  0.79366527405E-01  0.51100000000E-03 0.  1.
         11    1    4    4    0    0  0.38498325951E-01  0.26809041427E-01 -0.19879345183E-01  0.50953854507E-01  0.51100000000E-03 0. -1.
</event>
<event>
 8    1  0.1103774E+005  0.1043930E+01  0.7957747E-01            NaN
         13   -1    0    0    0    0  0.00000000000E+00  0.00000000000E+00  0.74505805969E-08  0.10566000000E+00  0.10566000000E+00 0. -1.
     999900   -1    0    0    0    0 -0.00000000000E+00 -0.00000000000E+00 -0.74505805969E-08  0.93827000000E+00  0.93827000000E+00 0. -1.
     999902    2    1    2    0    0  0.48805186499E-02 -0.83922582232E-02 -0.21738515383E-01  0.10201221754E+01  0.10198443216E+01 0.  0.
     999903    2    3    3    0    0  0.57783403727E-01 -0.60182751663E-01 -0.10203294727E+00  0.13337070727E+00  0.20399457969E-01 0.  0.
         14    1    1    2    0    0 -0.48805186499E-02  0.83922582232E-02  0.21738515383E-01  0.23807824585E-01  0.00000000000E+00 0. -1.
     999901    1    3    3    0    0 -0.52902885078E-01  0.51790493440E-01  0.80294431889E-01  0.88675146814E+00  0.88000000000E+00 0.  1.
        -11    1    4    4    0    0  0.31933583871E-01 -0.32281136703E-01 -0.39545628757E-01  0.60215807231E-01  0.51100000000E-03 0. -1.
         11    1    4    4    0    0  0.25849819856E-01 -0.27901614960E-01 -0.62487318515E-01  0.73154900042E-01  0.51100000000E-03 0.  1.
</event>
<event>
 8    1  0.1103774E+005  0.1043930E+01  0.7957747E-01            NaN
         13   -1    0    0    0    0  0.00000000000E+00  0.00000000000E+00  0.74505805969E-08  0.10566000000E+00  0.10566000000E+00 0. -1.
     999900   -1    0    0    0    0 -0.00000000000E+00 -0.00000000000E+00 -0.74505805969E-08  0.93827000000E+00  0.93827000000E+00 0.  1.
     999902    2    1    2    0    0  0.14286547309E-01  0.17163203696E-01  0.76566431461E-02  0.10203226880E+01  0.10200495490E+01 0.  0.
     999903    2    3    3    0    0 -0.12313568990E+00 -0.30899980733E-01 -0.11007016090E-01  0.12816615850E+00  0.13718704220E-01 0.  0.
         14    1    1    2    0    0 -0.14286547309E-01 -0.17163203696E-01 -0.76566431461E-02  0.23607311990E-01  0.00000000000E+00 0.  1.
     999901    1    3    3    0    0  0.13742223720E+00  0.48063184429E-01  0.18663659236E-01  0.89215652951E+00  0.88000000000E+00 0. -1.
        -11    1    4    4    0    0 -0.78071921606E-01 -0.14208107286E-01 -0.27504800389E-02  0.79403535925E-01  0.51100000000E-03 0. -1.
         11    1    4    4    0    0 -0.45063768289E-01 -0.16691873447E-01 -0.82565360510E-02  0.48762622573E-01  0.51100000000E-03 0.  1.
</event>
<event>
 8    1  0.1103774E+005  0.1043930E+01  0.7957747E-01            NaN
         13   -1    0    0    0    0  0.00000000000E+00  0.00000000000E+00  0.74505805969E-08  0.10566000000E+00  0.10566000000E+00 0.  1.
     999900   -1    0    0    0    0 -0.00000000000E+00 -0.00000000000E+00 -0.74505805969E-08  0.93827000000E+00  0.93827000000E+00 0.  1.
     999902    2    1    2    0    0  0.44947400224E-02 -0.21365358101E-01 -0.90369810338E-02  0.10203006064E+01  0.10200269502E+01 0.  0.
     999903    2    3    3    0    0  0.40037624647E-01 -0.54770341898E-01  0.11053779236E+00  0.13087533355E+00  0.17519921625E-01 0.  0.
         14    1    1    2    0    0 -0.44947400224E-02  0.21365358101E-01  0.90369810338E-02  0.23629393578E-01  0.00000000000E+00 0. -1.
     999901    1    3    3    0    0 -0.35542884624E-01  0.33404983797E-01 -0.11957477339E+00  0.88942527287E+00  0.88000000000E+00 0. -1.
        -11    1    4    4    0    0  0.34167704035E-01 -0.35254416369E-01  0.70021915704E-01  0.85519796962E-01  0.51100000000E-03 0.  1.
         11    1    4    4    0    0  0.58699206113E-02 -0.19515925529E-01  0.40515876654E-01  0.45355536589E-01  0.51100000000E-03 0. -1.
</event>
<event>
 8    1  0.1103774E+005  0.1043930E+01  0.7957747E-01            NaN
         13   -1    0    0    0    0  0.00000000000E+00  0.00000000000E+00  0.74505805969E-08  0.10566000000E+00  0.10566000000E+00 0.  1.
     999900   -1    0    0    0    0 -0.00000000000E+00 -0.00000000000E+00 -0.74505805969E-08  0.93827000000E+00  0.93827000000E+00 0.  1.
     999902    2    1    2    0    0  0.20776520560E-01 -0.78819335099E-02  0.82673813831E-02  0.10202205446E+01  0.10199450089E+01 0.  0.
     999903    2    3    3    0    0 -0.63651612024E-01  0.65320830796E-01 -0.85383220031E-01  0.12822436216E+00  0.28859212366E-01 0.  0.
         14    1    1    2    0    0 -0.20776520560E-01  0.78819335099E-02 -0.82673813831E-02  0.23709455443E-01  0.00000000000E+00 0. -1.
     999901    1    3    3    0    0  0.84428132584E-01 -0.73202764306E-01  0.93650601414E-01  0.89199618240E+00  0.88000000000E+00 0. -1.
        -11    1    4    4    0    0 -0.31565390794E-01  0.51791584046E-01 -0.57996589181E-01  0.83920245183E-01  0.51100000000E-03 0.  1.
         11    1    4    4    0    0 -0.32086221230E-01  0.13529246750E-01 -0.27386630850E-01  0.44304116973E-01  0.51100000000E-03 0. -1.
</event>
<event>
 8    1  0.1103774E+005  0.1043930E+01  0.7957747E-01            NaN
         13   -1    0    0    0    0  0.00000000000E+00  0.00000000000E+00  0.74505805969E-08  0.10566000000E+00  0.10566000000E+00 0. -1.
     999900   -1    0    0    0    0 -0.00000000000E+00 -0.00000000000E+00 -0.74505805969E-08  0.93827000000E+00  0.93827000000E+00 0.  1.
     999902    2    1    2    0    0 -0.41831076152E-02  0.17419962801E-01  0.14154738213E-01  0.10210977836E+01  0.10208424822E+01 0.  0.
     999903    2    3    3    0    0 -0.26410828195E-01 -0.24739525794E-01  0.12645753692E+00  0.13268154518E+00  0.17415734401E-01 0.  0.
         14    1    1    2    0    0  0.41831076152E-02 -0.17419962801E-01 -0.14154738213E-01  0.22832216432E-01  0.00000000000E+00 0.  1.
     999901    1    3    3    0    0  0.22227720579E-01  0.42159488595E-01 -0.11230279870E+00  0.88841623839E+00  0.88000000000E+00 0.  1.
        -11    1    4    4    0    0  0.32341950883E-03 -0.44990198320E-03  0.24535100356E-01  0.24546675588E-01  0.51100000000E-03 0.  1.
         11    1    4    4    0    0 -0.26734247704E-01 -0.24289623811E-01  0.10192243656E+00  0.10813486959E+00  0.51100000000E-03 0. -1.
</event>
<event>
 8    1  0.1103774E+005  0.1043930E+01  0.7957747E-01            NaN
         13   -1    0    0    0    0  0.00000000000E+00  0.00000000000E+00  0.74505805969E-08  0.10566000000E+00  0.10566000000E+00 0. -1.
     999900   -1    0    0    0    0 -0.00000000000E+00 -0.00000000000E+00 -0.74505805969E-08  0.93827000000E+00  0.93827000000E+00 0. -1.
     999902    2    1    2    0    0  0.16532707143E-02 -0.35051210649E-02  0.23698444219E-01  0.10199167654E+01  0.10196340387E+01 0.  0.
     999903    2    3    3    0    0 -0.42634817044E-01  0.64374268060E-01 -0.99490009076E-01  0.12764750043E+00  0.20829028934E-01 0.  0.
         14    1    1    2    0    0 -0.16532707143E-02  0.35051210649E-02 -0.23698444219E-01  0.24013234604E-01  0.00000000000E+00 0.  1.
     999901    1    3    3    0    0  0.44288087759E-01 -0.67879389125E-01  0.12318845330E+00  0.89226926497E+00  0.88000000000E+00 0.  1.
        -11    1    4    4    0    0 -0.30104080043E-01  0.27865678868E-01 -0.57168894046E-01  0.70365440818E-01  0.51100000000E-03 0. -1.
         11    1    4    4    0    0 -0.12530737001E-01  0.36508589191E-01 -0.42321115030E-01  0.57282059608E-01  0.51100000000E-03 0.  1.
</event>
<event>
 8    1  0.1103774E+005  0.1043930E+01  0.7957747E-01            NaN
         13   -1    0    0    0    0  0.00000000000E+00  0.00000000000E+00  0.74505805969E-08  0.10566000000E+00  0.10566000000E+00 0. -1.
     999900   -1    0    0    0    0 -0.00000000000E+00 -0.00000000000E+00 -0.74505805969E-08  0.93827000000E+00  0.93827000000E+00 0.  1.
     999902    2    1    2    0    0 -0.77798046657E-02  0.13832028416E-01 -0.17702802772E-01  0.10201552319E+01  0.10198781582E+01 0.  0.
     999903    2    3    3    0    0 -0.12186671477E+00 -0.76770074331E-02  0.41676892997E-01  0.13054609869E+00  0.19871785575E-01 0.  0.
         14    1    1    2    0    0  0.77798046657E-02 -0.13832028416E-01  0.17702802772E-01  0.23774768069E-01  0.00000000000E+00 0. -1.
     999901    1    3    3    0    0  0.11408691010E+00  0.21509035849E-01 -0.59379695770E-01  0.88960913324E+00  0.88000000000E+00 0. -1.
        -11    1    4    4    0    0 -0.70069188739E-01 -0.10611840641E-01  0.32037632437E-01  0.77775146323E-01  0.51100000000E-03 0. -1.
         11    1    4    4    0    0 -0.51797526027E-01  0.29348332075E-02  0.96392605600E-02  0.52770952366E-01  0.51100000000E-03 0.  1.
</event>
<event>
 8    1  0.1103774E+005  0.1043930E+01  0.7957747E-01            NaN
         13   -1    0    0    0    0  0.00000000000E+00  0.00000000000E+00  0.74505805969E-08  0.10566000000E+00  0.10566000000E+00 0. -1.
     999900   -1    0    0    0    0 -0.00000000000E+00 -0.00000000000E+00 -0.74505805969E-08  0.93827000000E+00  0.93827000000E+00 0.  1.
     999902    2    1    2    0    0 -0.13411037091E-01 -0.18625495833E-01  0.59218046448E-02  0.10202269879E+01  0.10199516038E+01 0.  0.
     999903    2    3    3    0    0 -0.51669352109E-01  0.72462103618E-01 -0.91725556463E-01  0.12933100266E+00  0.19810404649E-01 0.  0.
         14    1    1    2    0    0  0.13411037091E-01  0.18625495833E-01 -0.59218046448E-02  0.23703012069E-01  0.00000000000E+00 0.  1.
     999901    1    3    3    0    0  0.38258315018E-01 -0.91087599451E-01  0.97647361108E-01  0.89089598527E+00  0.88000000000E+00 0. -1.
        -11    1    4    4    0    0 -0.15761147070E-01  0.38194658118E-01 -0.46113635848E-01  0.61919093968E-01  0.51100000000E-03 0.  1.
         11    1    4    4    0    0 -0.35908205039E-01  0.34267445500E-01 -0.45611920615E-01  0.67411908692E-01  0.51100000000E-03 0. -1.
</event>
<event>
 8    1  0.1103774E+005  0.1043930E+01  0.7957747E-01            NaN
         13   -1    0    0    0    0  0.00000000000E+00  0.00000000000E+00  0.74505805969E-08  0.10566000000E+00  0.10566000000E+00 0.  1.
     999900   -1    0    0    0    0 -0.00000000000E+00 -0.00000000000E+00 -0.74505805969E-08  0.93827000000E+00  0.93827000000E+00 0. -1.
     999902    2    1    2    0    0  0.37099203899E-02 -0.17606192803E-01 -0.14863539756E-01  0.10205919121E+01  0.10203250387E+01 0.  0.
     999903    2    3    3    0    0 -0.11783441806E+00 -0.52804631574E-01 -0.17230854268E-01  0.13153760524E+00  0.18219771128E-01 0.  0.
         14    1    1    2    0    0 -0.37099203899E-02  0.17606192803E-01  0.14863539756E-01  0.23338087934E-01  0.00000000000E+00 0.  1.
     999901    1    3    3    0    0  0.12154433845E+00  0.35198438770E-01  0.23673145119E-02  0.88905430682E+00  0.88000000000E+00 0. -1.
        -11    1    4    4    0    0 -0.22145062824E-01 -0.26432073462E-02 -0.43918119543E-02  0.22736303257E-01  0.51100000000E-03 0.  1.
         11    1    4    4    0    0 -0.95689355234E-01 -0.50161424227E-01 -0.12839042314E-01  0.10880130199E+00  0.51100000000E-03 0. -1.
</event>
<event>
 8    1  0.1103774E+005  0.1043930E+01  0.7957747E-01            NaN
         13   -1    0    0    0    0  0.00000000000E+00  0.00000000000E+00  0.74505805969E-08  0.10566000000E+00  0.10566000000E+00 0.  1.
     999900   -1    0    0    0    0 -0.00000000000E+00 -0.00000000000E+00 -0.74505805969E-08  0.93827000000E+00  0.93827000000E+00 0.  1.
     999902    2    1    2    0    0 -0.12922348090E-01 -0.17216172041E-03 -0.21041286710E-01  0.10192368336E+01  0.10189376676E+01 0.  0.
     999903    2    3    3    0    0  0.25721957910E-01 -0.12197775648E+00  0.24659939416E-01  0.12883322436E+00  0.21206010733E-01 0.  0.
         14    1    1    2    0    0  0.12922348090E-01  0.17216172041E-03  0.21041286710E-01  0.24693166387E-01  0.00000000000E+00 0.  1.
     999901    1    3    3    0    0 -0.38644306000E-01  0.12180559476E+00 -0.45701226126E-01  0.89040360925E+00  0.88000000000E+00 0. -1.
        -11    1    4    4    0    0  0.14320708177E-01 -0.93972757144E-01  0.11147356891E-01  0.95710430229E-01  0.51100000000E-03 0. -1.
         11    1    4    4    0    0  0.11401249733E-01 -0.28004999340E-01  0.13512582525E-01  0.33122794130E-01  0.51100000000E-03 0.  1.
</event>
<event>
 8    1  0.1103774E+005  0.1043930E+01  0.7957747E-01            NaN
         13   -1    0    0    0    0  0.00000000000E+00  0.00000000000E+00  0.74505805969E-08  0.10566000000E+00  0.10566000000E+00 0. -1.
     999900   -1    0    0    0    0 -0.00000000000E+00 -0.00000000000E+00 -0.74505805969E-08  0.93827000000E+00  0.93827000000E+00 0. -1.
     999902    2    1    2    0    0 -0.61412270653E-02  0.24336358593E-01  0.24047547757E-02  0.10187158003E+01  0.10184037146E+01 0.  0.
     999903    2    3    3    0    0  0.69444030262E-01 -0.42576364135E-01  0.96662311930E-01  0.12794370228E+00  0.19767859850E-01 0.  0.
         14    1    1    2    0    0  0.61412270653E-02 -0.24336358593E-01 -0.24047547757E-02  0.25214199669E-01  0.00000000000E+00 0. -1.
     999901    1    3    3    0    0 -0.75585257327E-01  0.66912722727E-01 -0.94257557155E-01  0.89077209805E+00  0.88000000000E+00 0. -1.
        -11    1    4    4    0    0  0.27805275356E-01 -0.25648589877E-01  0.34275367897E-01  0.51049441386E-01  0.51100000000E-03 0. -1.
         11    1    4    4    0    0  0.41638754906E-01 -0.16927774257E-01  0.62386944034E-01  0.76894260893E-01  0.51100000000E-03 0.  1.
</event>
<event>
 8    1  0.1103774E+005  0.1043930E+01  0.7957747E-01            NaN
         13   -1    0    0    0    0  0.00000000000E+00  0.00000000000E+00  0.74505805969E-08  0.10566000000E+00  0.10566000000E+00 0.  1.
     999900   -1    0    0    0    0 -0.00000000000E+00 -0.00000000000E+00 -0.74505805969E-08  0.93827000000E+00  0.93827000000E+00 0. -1.
     999902    2    1    2    0    0 -0.89208467802E-02 -0.54836940923E-02 -0.21676157770E-01  0.10198570230E+01  0.10195728709E+01 0.  0.
     999903    2    3    3    0    0  0.64711377910E-01  0.55646722282E-01 -0.97962912987E-01  0.13138738288E+00  0.19539496577E-01 0.  0.
         14    1    1    2    0    0  0.89208467802E-02  0.54836940923E-02  0.21676157770E-01  0.24072977046E-01  0.00000000000E+00 0.  1.
     999901    1    3    3    0    0 -0.73632224690E-01 -0.61130416374E-01  0.76286755217E-01  0.88846964008E+00  0.88000000000E+00 0. -1.
        -11    1    4    4    0    0  0.22123069170E-01  0.29772530780E-01 -0.49656006270E-01  0.61982367317E-01  0.51100000000E-03 0.  1.
         11    1    4    4    0    0  0.42588308740E-01  0.25874191501E-01 -0.48306906717E-01  0.69405015559E-01  0.51100000000E-03 0. -1.
</event>
<event>
 8    1  0.1103774E+005  0.1043930E+01  0.7957747E-01            NaN
         13   -1    0    0    0    0  0.00000000000E+00  0.00000000000E+00  0.74505805969E-08  0.10566000000E+00  0.10566000000E+00 0.  1.
     999900   -1    0    0    0    0 -0.00000000000E+00 -0.00000000000E+00 -0.74505805969E-08  0.93827000000E+00  0.93827000000E+00 0. -1.
     999902    2    1    2    0    0  0.10941969670E-01 -0.17471444185E-01 -0.95048140794E-02  0.10212293491E+01  0.10209770144E+01 0.  0.
     999903    2    3    3    0    0 -0.12362663408E+00 -0.35544286157E-01  0.93068442632E-02  0.13061764062E+00  0.20673890770E-01 0.  0.
         14    1    1    2    0    0 -0.10941969670E-01  0.17471444185E-01  0.95048140794E-02  0.22700650935E-01  0.00000000000E+00 0. -1.
     999901    1    3    3    0    0  0.13456860375E+00  0.18072841971E-01 -0.18811658343E-01  0.89061170845E+00  0.88000000000E+00 0.  1.
        -11    1    4    4    0    0 -0.71016363188E-01 -0.30565760057E-01  0.82940981773E-02  0.77760161483E-01  0.51100000000E-03 0. -1.
         11    1    4    4    0    0 -0.52610270888E-01 -0.49785260998E-02  0.10127460859E-02  0.52857479136E-01  0.51100000000E-03 0.  1.
</event>
<event>
 8    1  0.1103774E+005  0.1043930E+01  0.7957747E-01            NaN
         13   -1    0    0    0    0  0.00000000000E+00  0.00000000000E+00  0.74505805969E-08  0.10566000000E+00  0.10566000000E+00 0.  1.
     999900   -1    0    0    0    0 -0.00000000000E+00 -0.00000000000E+00 -0.74505805969E-08  0.93827000000E+00  0.93827000000E+00 0.  1.
     999902    2    1    2    0    0  0.12541306537E-01  0.53020070006E-02  0.11748613546E-01  0.10259459635E+01  0.10257883283E+01 0.  0.
     999903    2    3    3    0    0  0.26609453189E-01  0.10396021584E+00  0.83482792142E-01  0.13742069809E+00  0.19982047015E-01 0.  0.
         14    1    1    2    0    0 -0.12541306537E-01 -0.53020070006E-02 -0.11748613546E-01  0.17984036481E-01  0.00000000000E+00 0.  1.
     999901    1    3    3    0    0 -0.14068146652E-01 -0.98658208844E-01 -0.71734178596E-01  0.88852526543E+00  0.88000000000E+00 0.  1.
        -11    1    4    4    0    0  0.12890692707E-01  0.70788565930E-01  0.65349182854E-01  0.97200657640E-01  0.51100000000E-03 0.  1.
         11    1    4    4    0    0  0.13718760482E-01  0.33171649914E-01  0.18133609288E-01  0.40220040453E-01  0.51100000000E-03 0. -1.
</event>
<event>
 8    1  0.1103774E+005  0.1043930E+01  0.7957747E-01            NaN
         13   -1    0    0    0    0  0.00000000000E+00  0.00000000000E+00  0.74505805969E-08  0.10566000000E+00  0.10566000000E+00 0.  1.
     999900   -1    0    0    0    0 -0.00000000000E+00 -0.00000000000E+00 -0.74505805969E-08  0.93827000000E+00  0.93827000000E+00 0.  1.
     999902    2    1    2    0    0 -0.19380415574E-01  0.84910201386E-02 -0.69606261132E-02  0.10216556146E+01  0.10214127699E+01 0.  0.
     999903    2    3    3    0    0 -0.29006205875E-01 -0.62842685307E-01 -0.11114831939E+00  0.13259080882E+00  0.20876077338E-01 0.  0.
         14    1    1    2    0    0  0.19380415574E-01 -0.84910201386E-02  0.69606261132E-02  0.22274385439E-01  0.00000000000E+00 0.  1.
     999901    1    3    3    0    0  0.96257903015E-02  0.71333705445E-01  0.10418769328E+00  0.88906480574E+00  0.88000000000E+00 0. -1.
        -11    1    4    4    0    0 -0.11335165579E-01 -0.47654851580E-01 -0.75355028757E-01  0.89878319620E-01  0.51100000000E-03 0.  1.
         11    1    4    4    0    0 -0.17671040296E-01 -0.15187833726E-01 -0.35793290634E-01  0.42712489203E-01  0.51100000000E-03 0. -1.
</event>
<event>
 8    1  0.1103774E+005  0.1043930E+01  0.7957747E-01            NaN
         13   -1    0    0    0    0  0.00000000000E+00  0.00000000000E+00  0.74505805969E-08  0.10566000000E+00  0.10566000000E+00 0.  1.
     999900   -1    0    0    0    0 -0.00000000000E+00 -0.00000000000E+00 -0.74505805969E-08  0.93827000000E+00  0.93827000000E+00 0. -1.
     999902    2    1    2    0    0  0.13085997195E-01  0.19151335326E-01  0.73874648721E-02  0.10195867955E+01  0.10192961503E+01 0.  0.
     999903    2    3    3    0    0 -0.55562441864E-01  0.80077040082E-02 -0.11391636222E+00  0.12854728619E+00  0.19903741803E-01 0.  0.
         14    1    1    2    0    0 -0.13085997195E-01 -0.19151335326E-01 -0.73874648721E-02  0.24343204485E-01  0.00000000000E+00 0.  1.
     999901    1    3    3    0    0  0.68648439059E-01  0.11143631318E-01  0.12130382709E+00  0.89103950932E+00  0.88000000000E+00 0. -1.
        -11    1    4    4    0    0 -0.56895788751E-02 -0.54517602589E-02 -0.14574838131E-01  0.16576490136E-01  0.51100000000E-03 0. -1.
         11    1    4    4    0    0 -0.49872862989E-01  0.13459464267E-01 -0.99341524086E-01  0.11197079606E+00  0.51100000000E-03 0.  1.
</event>
<event>
 8    1  0.1103774E+005  0.1043930E+01  0.7957747E-01            NaN
         13   -1    0    0    0    0  0.00000000000E+00  0.00000000000E+00  0.74505805969E-08  0.10566000000E+00  0.10566000000E+00 0.  1.
     999900   -1    0    0    0    0 -0.00000000000E+00 -0.00000000000E+00 -0.74505805969E-08  0.93827000000E+00  0.93827000000E+00 0.  1.
     999902    2    1    2    0    0 -0.45647108676E-02 -0.21241159534E-01  0.93346498011E-02  0.10202834542E+01  0.10200093959E+01 0.  0.
     999903    2    3    3    0    0 -0.64020604404E-01 -0.12094468621E-01 -0.11077838197E+00  0.13008920252E+00  0.20160276360E-01 0.  0.
         14    1    1    2    0    0  0.45647108676E-02  0.21241159534E-01 -0.93346498011E-02  0.23646545848E-01  0.00000000000E+00 0.  1.
     999901    1    3    3    0    0  0.59455893536E-01 -0.91466909134E-02  0.12011303177E+00  0.89019425163E+00  0.88000000000E+00 0. -1.
        -11    1    4    4    0    0 -0.16684160752E-01 -0.17558343445E-02 -0.13993050168E-01  0.21852019318E-01  0.51100000000E-03 0.  1.
         11    1    4    4    0    0 -0.47336443652E-01 -0.10338634276E-01 -0.96785331797E-01  0.10823718321E+00  0.51100000000E-03 0. -1.
</event>
<event>
 8    1  0.1103774E+005  0.1043930E+01  0.7957747E-01            NaN
         13   -1    0    0    0    0  0.00000000000E+00  0.00000000000E+00  0.74505805969E-08  0.10566000000E+00  0.10566000000E+00 0.  1.
     999900   -1    0    0    0    0 -0.00000000000E+00 -0.00000000000E+00 -0.74505805969E-08  0.93827000000E+00  0.93827000000E+00 0. -1.
     999902    2    1    2    0    0 -0.11450852216E-01  0.16062527534E-01  0.13312169206E-01  0.10201320871E+01  0.10198544673E+01 0.  0.
     999903    2    3    3    0    0 -0.10534436999E+00 -0.61882943428E-01  0.43332076353E-01  0.13120425883E+00  0.20247313884E-01 0.  0.
         14    1    1    2    0    0  0.11450852216E-01 -0.16062527534E-01 -0.13312169206E-01  0.23797912854E-01  0.00000000000E+00 0.  1.
     999901    1    3    3    0    0  0.93893517772E-01  0.77945470962E-01 -0.30019907147E-01  0.88892782831E+00  0.88000000000E+00 0. -1.
        -11    1    4    4    0    0 -0.20393628264E-01 -0.34337504278E-02  0.84588617082E-02  0.22349590112E-01  0.51100000000E-03 0. -1.
         11    1    4    4    0    0 -0.84950741724E-01 -0.58449193001E-01  0.34873214645E-01  0.10885466872E+00  0.51100000000E-03 0.  1.
</event>
<event>
 8    1  0.1103774E+005  0.1043930E+01  0.7957747E-01            NaN
         13   -1    0    0    0    0  0.00000000000E+00  0.00000000000E+00  0.74505805969E-08  0.10566000000E+00  0.10566000000E+00 0.  1.
     999900   -1    0    0    0    0 -0.00000000000E+00 -0.00000000000E+00 -0.74505805969E-08  0.93827000000E+00  0.93827000000E+00 0. -1.
     999902    2    1    2    0    0  0.31831123932E-02 -0.14236006420E-01  0.18756370152E-01  0.10201687394E+01  0.10198919842E+01 0.  0.
     999903    2    3    3    0    0  0.37944995125E-01 -0.60536629177E-01 -0.10604590403E+00  0.12947926277E+00  0.20362701177E-01 0.  0.
         14    1    1    2    0    0 -0.31831123932E-02  0.14236006420E-01 -0.18756370152E-01  0.23761260585E-01  0.00000000000E+00 0. -1.
     999901    1    3    3    0    0 -0.34761882732E-01  0.46300622757E-01  0.12480227418E+00  0.89068947664E+00  0.88000000000E+00 0.  1.
        -11    1    4    4    0    0  0.17883854312E-01 -0.44808792102E-01 -0.76599198123E-01  0.90528218632E-01  0.51100000000E-03 0.  1.
         11    1    4    4    0    0  0.20061140813E-01 -0.15727837075E-01 -0.29446705909E-01  0.38951044141E-01  0.51100000000E-03 0. -1.
</event>
<event>
 8    1  0.1103774E+005  0.1043930E+01  0.7957747E-01            NaN
         13   -1    0    0    0    0  0.00000000000E+00  0.00000000000E+00  0.74505805969E-08  0.10566000000E+00  0.10566000000E+00 0.  1.
     999900   -1    0    0    0    0 -0.00000000000E+00 -0.00000000000E+00 -0.74505805969E-08  0.93827000000E+00  0.93827000000E+00 0.  1.
     999902    2    1    2    0    0 -0.11295979907E-01 -0.15795652937E-01  0.11789583757E-01  0.10212122515E+01  0.10209595322E+01 0.  0.
     999903    2    3    3    0    0  0.67279376579E-01  0.45493153235E-01 -0.98651509299E-01  0.12872827992E+00  0.15579096911E-01 0.  0.
         14    1    1    2    0    0  0.11295979907E-01  0.15795652937E-01 -0.11789583757E-01  0.22717748545E-01  0.00000000000E+00 0. -1.
     999901    1    3    3    0    0 -0.78575356487E-01 -0.61288806172E-01  0.11044109306E+00  0.89248397153E+00  0.88000000000E+00 0. -1.
        -11    1    4    4    0    0  0.52023764132E-01  0.34283523643E-01 -0.64511440477E-01  0.89687340808E-01  0.51100000000E-03 0. -1.
         11    1    4    4    0    0  0.15255612448E-01  0.11209629592E-01 -0.34140068821E-01  0.39040939113E-01  0.51100000000E-03 0.  1.
</event>
<event>
 8    1  0.1103774E+005  0.1043930E+01  0.7957747E-01            NaN
         13   -1    0    0    0    0  0.00000000000E+00  0.00000000000E+00  0.74505805969E-08  0.10566000000E+00  0.10566000000E+00 0. -1.
     999900   -1    0    0    0    0 -0.00000000000E+00 -0.00000000000E+00 -0.74505805969E-08  0.93827000000E+00  0.93827000000E+00 0. -1.
     999902    2    1    2    0    0 -0.14278592179E-01 -0.18169788869E-01  0.51090467330E-02  0.10202631079E+01  0.10199885723E+01 0.  0.
     999903    2    3    3    0    0  0.32948527628E-01 -0.71206404088E-01  0.10392527401E+00  0.13188935202E+00  0.20937553415E-01 0.  0.
         14    1    1    2    0    0  0.14278592179E-01  0.18169788869E-01 -0.51090467330E-02  0.23666892079E-01  0.00000000000E+00 0.  1.
     999901    1    3    3    0    0 -0.47227119807E-01  0.53036615218E-01 -0.98816227274E-01  0.88837375590E+00  0.88000000000E+00 0. -1.
        -11    1    4    4    0    0  0.27352792955E-01 -0.57090229245E-01  0.68125792530E-01  0.92999216591E-01  0.51100000000E-03 0. -1.
         11    1    4    4    0    0  0.55957346731E-02 -0.14116174843E-01  0.35799481477E-01  0.38890135430E-01  0.51100000000E-03 0.  1.
</event>
<event>
 7    1  0.1103774E+005  0.1043930E+01  0.7957747E-01            NaN
         13   -1    0    0    0    0  0.00000000000E+00  0.00000000000E+00  0.74505805969E-08  0.10566000000E+00  0.10566000000E+00 0. -1.
     999900   -1    0    0    0    0 -0.00000000000E+00 -0.00000000000E+00 -0.74505805969E-08  0.93827000000E+00  0.93827000000E+00 0.  1.
     999903    2    1    2    0    0 -0.11829697881E-01 -0.10746995899E+00 -0.91732011405E-01  0.14373187167E+00  0.23544748467E-01 0.  0.
         14    1    1    2    0    0 -0.66648244082E-03 -0.63798112475E-02 -0.41058056959E-02  0.76160246067E-02  0.00000000000E+00 0. -1.
     999901    1    1    2    0    0  0.12496180321E-01  0.11384977023E+00  0.95837817100E-01  0.89258210373E+00  0.88000000000E+00 0. -1.
        -11    1    3    3    0    0 -0.25894886001E-03 -0.19310446263E-01 -0.60338516092E-02  0.20239290394E-01  0.51100000000E-03 0.  1.
         11    1    3    3    0    0 -0.11570749021E-01 -0.88159512723E-01 -0.85698159795E-01  0.12349258127E+00  0.51100000000E-03 0. -1.
</event>
<event>
 8    1  0.1103774E+005  0.1043930E+01  0.7957747E-01            NaN
         13   -1    0    0    0    0  0.00000000000E+00  0.00000000000E+00  0.74505805969E-08  0.10566000000E+00  0.10566000000E+00 0. -1.
     999900   -1    0    0    0    0 -0.00000000000E+00 -0.00000000000E+00 -0.74505805969E-08  0.93827000000E+00  0.93827000000E+00 0.  1.
     999902    2    1    2    0    0  0.16002430135E-02  0.21686326207E-01 -0.11645335986E-01  0.10192627875E+01  0.10189642578E+01 0.  0.
     999903    2    3    3    0    0  0.79289471533E-01  0.20728143393E-01 -0.10056013445E+00  0.13137632194E+00  0.20758639211E-01 0.  0.
         14    1    1    2    0    0 -0.16002430135E-02 -0.21686326207E-01  0.11645335986E-01  0.24667212495E-01  0.00000000000E+00 0. -1.
     999901    1    3    3    0    0 -0.77689228520E-01  0.95818281359E-03  0.88914798465E-01  0.88788646556E+00  0.88000000000E+00 0. -1.
        -11    1    4    4    0    0  0.23513295939E-01  0.35103458840E-02 -0.44428824465E-01  0.50392253159E-01  0.51100000000E-03 0.  1.
         11    1    4    4    0    0  0.55776175595E-01  0.17217797509E-01 -0.56131309986E-01  0.80984068784E-01  0.51100000000E-03 0. -1.
</event>
<event>
 8    1  0.1103774E+005  0.1043930E+01  0.7957747E-01            NaN
         13   -1    0    0    0    0  0.00000000000E+00  0.00000000000E+00  0.74505805969E-08  0.10566000000E+00  0.10566000000E+00 0. -1.
     999900   -1    0    0    0    0 -0.00000000000E+00 -0.00000000000E+00 -0.74505805969E-08  0.93827000000E+00  0.93827000000E+00 0.  1.
     999902    2    1    2    0    0  0.11131574359E-01  0.61124123627E-02  0.23059262065E-01  0.10176050480E+01  0.10172644841E+01 0.  0.
     999903    2    3    3    0    0  0.11352666172E+00  0.44632665678E-01 -0.36570849793E-01  0.12882818392E+00  0.19465254952E-01 0.  0.
         14    1    1    2    0    0 -0.11131574359E-01 -0.61124123627E-02 -0.23059262065E-01  0.26324952034E-01  0.00000000000E+00 0.  1.
     999901    1    3    3    0    0 -0.10239508736E+00 -0.38520253315E-01  0.59630111858E-01  0.88877686405E+00  0.88000000000E+00 0.  1.
        -11    1    4    4    0    0  0.45788452364E-01  0.81202290246E-02 -0.11695518715E-01  0.47953798268E-01  0.51100000000E-03 0. -1.
         11    1    4    4    0    0  0.67738209353E-01  0.36512436653E-01 -0.24875331077E-01  0.80874385648E-01  0.51100000000E-03 0.  1.
</event>
<event>
 8    1  0.1103774E+005  0.1043930E+01  0.7957747E-01            NaN
         13   -1    0    0    0    0  0.00000000000E+00  0.00000000000E+00  0.74505805969E-08  0.10566000000E+00  0.10566000000E+00 0. -1.
     999900   -1    0    0    0    0 -0.00000000000E+00 -0.00000000000E+00 -0.74505805969E-08  0.93827000000E+00  0.93827000000E+00 0. -1.
     999902    2    1    2    0    0  0.14920479258E-01  0.12669383603E-01 -0.12689698313E-01  0.10206027107E+01  0.10203360871E+01 0.  0.
     999903    2    3    3    0    0 -0.78167234108E-01 -0.93063039828E-01  0.34968519043E-01  0.12812527491E+00  0.20553415185E-01 0.  0.
         14    1    1    2    0    0 -0.14920479258E-01 -0.12669383603E-01  0.12689698313E-01  0.23327289286E-01  0.00000000000E+00 0. -1.
     999901    1    3    3    0    0  0.93087713365E-01  0.10573242343E+00 -0.47658217356E-01  0.89247743581E+00  0.88000000000E+00 0. -1.
        -11    1    4    4    0    0 -0.21023543406E-01 -0.15544484396E-01  0.15906347911E-02  0.26199458249E-01  0.51100000000E-03 0.  1.
         11    1    4    4    0    0 -0.57143690701E-01 -0.77518555431E-01  0.33377884252E-01  0.10192581666E+00  0.51100000000E-03 0. -1.
</event>
<event>
 8    1  0.1103774E+005  0.1043930E+01  0.7957747E-01            NaN
         13   -1    0    0    0    0  0.00000000000E+00  0.00000000000E+00  0.74505805969E-08  0.10566000000E+00  0.10566000000E+00 0.  1.
     999900   -1    0    0    0    0 -0.00000000000E+00 -0.00000000000E+00 -0.74505805969E-08  0.93827000000E+00  0.93827000000E+00 0. -1.
     999902    2    1    2    0    0 -0.39127153978E-02 -0.16803446034E-01  0.15344122139E-01  0.10208408851E+01  0.10205797399E+01 0.  0.
     999903    2    3    3    0    0  0.97323786084E-01  0.52846134357E-01 -0.62519135210E-01  0.12889773667E+00  0.21008355380E-01 0.  0.
         14    1    1    2    0    0  0.39127153978E-02  0.16803446034E-01 -0.15344122139E-01  0.23089114851E-01  0.00000000000E+00 0. -1.
     999901    1    3    3    0    0 -0.10123650148E+00 -0.69649580391E-01  0.77863257349E-01  0.89194314848E+00  0.88000000000E+00 0.  1.
        -11    1    4    4    0    0  0.35579193890E-02  0.77619927932E-02 -0.64157943772E-02  0.10692561012E-01  0.51100000000E-03 0.  1.
         11    1    4    4    0    0  0.93765866696E-01  0.45084141564E-01 -0.56103340833E-01  0.11820517565E+00  0.51100000000E-03 0. -1.
</event>
<event>
 8    1  0.1103774E+005  0.1043930E+01  0.7957747E-01            NaN
         13   -1    0    0    0    0  0.00000000000E+00  0.00000000000E+00  0.74505805969E-08  0.10566000000E+00  0.10566000000E+00 0. -1.
     999900   -1    0    0    0    0 -0.00000000000E+00 -0.00000000000E+00 -0.74505805969E-08  0.93827000000E+00  0.93827000000E+00 0.  1.
     999902    2    1    2    0    0  0.57244361310E-03  0.22415816701E-01 -0.72062076112E-02  0.10203773790E+01  0.10201055188E+01 0.  0.
     999903    2    3    3    0    0 -0.72830963687E-02  0.28882370823E-01 -0.12734130087E+00  0.13215670453E+00  0.19035566946E-01 0.  0.
         14    1    1    2    0    0 -0.57244361310E-03 -0.22415816701E-01  0.72062076112E-02  0.23552621048E-01  0.00000000000E+00 0. -1.
     999901    1    3    3    0    0  0.78555399818E-02 -0.64665541213E-02  0.12013509326E+00  0.88822067442E+00  0.88000000000E+00 0. -1.
        -11    1    4    4    0    0  0.43642019802E-02  0.17550843140E-01 -0.51304815131E-01  0.54401503017E-01  0.51100000000E-03 0.  1.
         11    1    4    4    0    0 -0.11647298349E-01  0.11331527682E-01 -0.76036485739E-01  0.77755201518E-01  0.51100000000E-03 0. -1.
</event>
<event>
 8    1  0.1103774E+005  0.1043930E+01  0.7957747E-01            NaN
         13   -1    0    0    0    0  0.00000000000E+00  0.00000000000E+00  0.74505805969E-08  0.10566000000E+00  0.10566000000E+00 0.  1.
     999900   -1    0    0    0    0 -0.00000000000E+00 -0.00000000000E+00 -0.74505805969E-08  0.93827000000E+00  0.93827000000E+00 0. -1.
     999902    2    1    2    0    0  0.12642272225E-01 -0.10400346532E-01 -0.15794212187E-01  0.10211824420E+01  0.10209290517E+01 0.  0.
     999903    2    3    3    0    0 -0.30870866979E-01 -0.11727906707E+00 -0.50672548032E-01  0.13296346424E+00  0.20104370126E-01 0.  0.
         14    1    1    2    0    0 -0.12642272225E-01  0.10400346532E-01  0.15794212187E-01  0.22747557970E-01  0.00000000000E+00 0.  1.
     999901    1    3    3    0    0  0.43513139203E-01  0.10687872054E+00  0.34878335846E-01  0.88821897779E+00  0.88000000000E+00 0. -1.
        -11    1    4    4    0    0 -0.24214508134E-01 -0.61316211955E-01 -0.34068900275E-01  0.74208970749E-01  0.51100000000E-03 0.  1.
         11    1    4    4    0    0 -0.66563588452E-02 -0.55962855118E-01 -0.16603647758E-01  0.58754493495E-01  0.51100000000E-03 0. -1.
</event>
<event>
 8    1  0.1103774E+005  0.1043930E+01  0.7957747E-01            NaN
         13   -1    0    0    0    0  0.00000000000E+00  0.00000000000E+00  0.74505805969E-08  0.10566000000E+00  0.10566000000E+00 0.  1.
     999900   -1    0    0    0    0 -0.00000000000E+00 -0.00000000000E+00 -0.74505805969E-08  0.93827000000E+00  0.93827000000E+00 0.  1.
     999902    2    1    2    0    0  0.22500748262E-01  0.56543122376E-03 -0.74978180572E-02  0.10202061584E+01  0.10199302844E+01 0.  0.
     999903    2    3    3    0    0  0.69907830542E-01  0.84261216264E-01 -0.73802897408E-01  0.13248504260E+00  0.10879407585E-01 0.  0.
         14    1    1    2    0    0 -0.22500748262E-01 -0.56543122376E-03  0.74978180572E-02  0.23723841604E-01  0.00000000000E+00 0.  1.
     999901    1    3    3    0    0 -0.47407082280E-01 -0.83695785040E-01  0.66305079351E-01  0.88772111580E+00  0.88000000000E+00 0. -1.
        -11    1    4    4    0    0  0.29340460238E-01  0.33673921567E-01 -0.23888321569E-01  0.50652824492E-01  0.51100000000E-03 0. -1.
         11    1    4    4    0    0  0.40567370304E-01  0.50587294697E-01 -0.49914575839E-01  0.81832218107E-01  0.51100000000E-03 0.  1.
</event>
<event>
 8    1  0.1103774E+005  0.1043930E+01  0.7957747E-01            NaN
         13   -1    0    0    0    0  0.00000000000E+00  0.00000000000E+00  0.74505805969E-08  0.10566000000E+00  0.10566000000E+00 0. -1.
     999900   -1    0    0    0    0 -0.00000000000E+00 -0.00000000000E+00 -0.74505805969E-08  0.93827000000E+00  0.93827000000E+00 0. -1.
     999902    2    1    2    0    0 -0.20021785015E-01  0.11943378118E-01 -0.52710746057E-03  0.10206106090E+01  0.10203441680E+01 0.  0.
     999903    2    3    3    0    0 -0.29126348469E-01 -0.33208497334E-01  0.12146671707E+00  0.13100166220E+00  0.21357052083E-01 0.  0.
         14    1    1    2    0    0  0.20021785015E-01 -0.11943378118E-01  0.52710746057E-03  0.23319391037E-01  0.00000000000E+00 0.  1.
     999901    1    3    3    0    0  0.91045634543E-02  0.45151875453E-01 -0.12199382453E+00  0.88960894676E+00  0.88000000000E+00 0.  1.
        -11    1    4    4    0    0 -0.94346671339E-02 -0.25751339553E-01  0.58640658007E-01  0.64738955237E-01  0.51100000000E-03 0.  1.
         11    1    4    4    0    0 -0.19691681335E-01 -0.74571577816E-02  0.62826059064E-01  0.66262706966E-01  0.51100000000E-03 0. -1.
</event>
<event>
 8    1  0.1103774E+005  0.1043930E+01  0.7957747E-01            NaN
         13   -1    0    0    0    0  0.00000000000E+00  0.00000000000E+00  0.74505805969E-08  0.10566000000E+00  0.10566000000E+00 0. -1.
     999900   -1    0    0    0    0 -0.00000000000E+00 -0.00000000000E+00 -0.74505805969E-08  0.93827000000E+00  0.93827000000E+00 0.  1.
     999902    2    1    2    0    0  0.15221170037E-01  0.18211280410E-01 -0.45329444364E-02  0.10197663426E+01  0.10194800200E+01 0.  0.
     999903    2    3    3    0    0 -0.75169329966E-01 -0.94652221952E-01  0.34054384219E-01  0.12713114583E+00  0.19828158472E-01 0.  0.
         14    1    1    2    0    0 -0.15221170037E-01 -0.18211280410E-01  0.45329444364E-02  0.24163657354E-01  0.00000000000E+00 0.  1.
     999901    1    3    3    0    0  0.90390500003E-01  0.11286350236E+00 -0.38587328655E-01  0.89263519681E+00  0.88000000000E+00 0.  1.
        -11    1    4    4    0    0 -0.52100669247E-01 -0.49985530140E-01  0.19385828511E-01  0.74760313184E-01  0.51100000000E-03 0. -1.
         11    1    4    4    0    0 -0.23068660719E-01 -0.44666691812E-01  0.14668555707E-01  0.52370832649E-01  0.51100000000E-03 0.  1.
</event>
<event>
 8    1  0.1103774E+005  0.1043930E+01  0.7957747E-01            NaN
         13   -1    0    0    0    0  0.00000000000E+00  0.00000000000E+00  0.74505805969E-08  0.10566000000E+00  0.10566000000E+00 0. -1.
     999900   -1    0    0    0    0 -0.00000000000E+00 -0.00000000000E+00 -0.74505805969E-08  0.93827000000E+00  0.93827000000E+00 0.  1.
     999902    2    1    2    0    0  0.11045613205E-01 -0.14285813383E-01  0.15189173292E-01  0.10203333685E+01  0.10200604795E+01 0.  0.
     999903    2    3    3    0    0  0.30046370276E-01 -0.15461621297E-01  0.12712782172E+00  0.13303822460E+00  0.19895729398E-01 0.  0.
         14    1    1    2    0    0 -0.11045613205E-01  0.14285813383E-01 -0.15189173292E-01  0.23596631547E-01  0.00000000000E+00 0.  1.
     999901    1    3    3    0    0 -0.19000757071E-01  0.11758079142E-02 -0.11193864843E+00  0.88729514385E+00  0.88000000000E+00 0.  1.
        -11    1    4    4    0    0  0.18893396760E-01 -0.17716840699E-01  0.66856270988E-01  0.71699853395E-01  0.51100000000E-03 0. -1.
         11    1    4    4    0    0  0.11152973515E-01  0.22552194020E-02  0.60271550736E-01  0.61338371204E-01  0.51100000000E-03 0.  1.
</event>
<event>
 8    1  0.1103774E+005  0.1043930E+01  0.7957747E-01            NaN
         13   -1    0    0    0    0  0.00000000000E+00  0.00000000000E+00  0.74505805969E-08  0.10566000000E+00  0.10566000000E+00 0.  1.
     999900   -1    0    0    0    0 -0.00000000000E+00 -0.00000000000E+00 -0.74505805969E-08  0.93827000000E+00  0.93827000000E+00 0.  1.
     999902    2    1    2    0    0  0.20401542241E-02 -0.21760503089E-01 -0.11833282950E-01  0.10190762617E+01  0.10187731439E+01 0.  0.
     999903    2    3    3    0    0  0.59430328320E-01 -0.91410786380E-01  0.69253322766E-01  0.13075209129E+00  0.20302484364E-01 0.  0.
         14    1    1    2    0    0 -0.20401542241E-02  0.21760503089E-01  0.11833282950E-01  0.24853738337E-01  0.00000000000E+00 0. -1.
     999901    1    3    3    0    0 -0.57390174096E-01  0.69650283290E-01 -0.81086605716E-01  0.88832417037E+00  0.88000000000E+00 0.  1.
        -11    1    4    4    0    0  0.33827178174E-01 -0.33801770594E-01  0.28184323774E-01  0.55510853949E-01  0.51100000000E-03 0.  1.
         11    1    4    4    0    0  0.25603150146E-01 -0.57609015785E-01  0.41068998992E-01  0.75241237339E-01  0.51100000000E-03 0. -1.
</event>
<event>
 8    1  0.1103774E+005  0.1043930E+01  0.7957747E-01            NaN
         13   -1    0    0    0    0  0.00000000000E+00  0.00000000000E+00  0.74505805969E-08  0.10566000000E+00  0.10566000000E+00 0.  1.
     999900   -1    0    0    0    0 -0.00000000000E+00 -0.00000000000E+00 -0.74505805969E-08  0.93827000000E+00  0.93827000000E+00 0.  1.
     999902    2    1    2    0    0 -0.25764909259E-01  0.14919725006E-01 -0.15901916645E-01  0.10101764862E+01  0.10096124175E+01 0.  0.
     999903    2    3    3    0    0 -0.78022320930E-01 -0.88589158847E-01  0.22220555360E-01  0.12175189793E+00  0.19855728133E-01 0.  0.
         14    1    1    2    0    0  0.25764909259E-01 -0.14919725006E-01  0.15901916645E-01  0.33753513837E-01  0.00000000000E+00 0.  1.
     999901    1    3    3    0    0  0.52257411670E-01  0.10350888385E+00 -0.38122472005E-01  0.88842458824E+00  0.88000000000E+00 0.  1.
        -11    1    4    4    0    0 -0.51675996007E-01 -0.71466390195E-01  0.18425550767E-01  0.90097810922E-01  0.51100000000E-03 0. -1.
         11    1    4    4    0    0 -0.26346324923E-01 -0.17122768652E-01  0.37950045927E-02  0.31654087005E-01  0.51100000000E-03 0.  1.
</event>
<event>
 8    1  0.1103774E+005  0.1043930E+01  0.7957747E-01            NaN
         13   -1    0    0    0    0  0.00000000000E+00  0.00000000000E+00  0.74505805969E-08  0.10566000000E+00  0.10566000000E+00 0.  1.
     999900   -1    0    0    0    0 -0.00000000000E+00 -0.00000000000E+00 -0.74505805969E-08  0.93827000000E+00  0.93827000000E+00 0.  1.
     999902    2    1    2    0    0  0.18555861549E-01  0.16706586663E-01  0.58955965584E-02  0.10182748232E+01  0.10179515841E+01 0.  0.
     999903    2    3    3    0    0 -0.30117524711E-01  0.11394226189E+00 -0.52613555051E-01  0.12965387149E+00  0.12330282985E-01 0.  0.
         14    1    1    2    0    0 -0.18555861549E-01 -0.16706586663E-01 -0.58955965584E-02  0.25655176759E-01  0.00000000000E+00 0. -1.
     999901    1    3    3    0    0  0.48673386260E-01 -0.97235675226E-01  0.58509151610E-01  0.88862095175E+00  0.88000000000E+00 0. -1.
        -11    1    4    4    0    0 -0.15813996837E-01  0.38349493297E-01 -0.16203349144E-01  0.44537352600E-01  0.51100000000E-03 0.  1.
         11    1    4    4    0    0 -0.14303527873E-01  0.75592768592E-01 -0.36410205907E-01  0.85116518892E-01  0.51100000000E-03 0. -1.
</event>
<event>
 8    1  0.1136813E+005  0.1043930E+01  0.7957747E-01            NaN
         13   -1    0    0    0    0  0.00000000000E+00  0.00000000000E+00  0.74505805969E-08  0.10566000000E+00  0.10566000000E+00 0.  1.
     999900   -1    0    0    0    0 -0.00000000000E+00 -0.00000000000E+00 -0.74505805969E-08  0.93827000000E+00  0.93827000000E+00 0.  1.
     999902    2    1    2    0    0 -0.13034813917E-02 -0.22228037723E-01  0.93504673324E-02  0.10197801353E+01  0.10194941434E+01 0.  0.
     999903    2    3    3    0    0  0.69591759073E-02 -0.90377397621E-02 -0.12700120466E+00  0.12914326548E+00  0.20458889585E-01 0.  0.
         14    1    1    2    0    0  0.13034813917E-02  0.22228037723E-01 -0.93504673324E-02  0.24149864681E-01  0.00000000000E+00 0. -1.
     999901    1    3    3    0    0 -0.82626572990E-02 -0.13190297961E-01  0.13635167200E+00  0.89063686984E+00  0.88000000000E+00 0. -1.
        -11    1    4    4    0    0  0.10822258379E-01  0.16864276615E-02 -0.43244409846E-01  0.44612839168E-01  0.51100000000E-03 0. -1.
         11    1    4    4    0    0 -0.38630824719E-02 -0.10724167424E-01 -0.83756794817E-01  0.84530426310E-01  0.51100000000E-03 0.  1.
</event>
<event>
 8    1  0.1103774E+005  0.1043930E+01  0.7957747E-01            NaN
         13   -1    0    0    0    0  0.00000000000E+00  0.00000000000E+00  0.74505805969E-08  0.10566000000E+00  0.10566000000E+00 0.  1.
     999900   -1    0    0    0    0 -0.00000000000E+00 -0.00000000000E+00 -0.74505805969E-08  0.93827000000E+00  0.93827000000E+00 0.  1.
     999902    2    1    2    0    0  0.19384192753E-01  0.13646078014E-02  0.14087253617E-01  0.10199287542E+01  0.10196463132E+01 0.  0.
     999903    2    3    3    0    0  0.91496701798E-01  0.84067058949E-01  0.41991026677E-01  0.13267539137E+00  0.20014902296E-01 0.  0.
         14    1    1    2    0    0 -0.19384192753E-01 -0.13646078014E-02 -0.14087253617E-01  0.24001245752E-01  0.00000000000E+00 0. -1.
     999901    1    3    3    0    0 -0.72112509044E-01 -0.82702451147E-01 -0.27903773059E-01  0.88725336288E+00  0.88000000000E+00 0.  1.
        -11    1    4    4    0    0  0.85354747980E-01  0.69843160981E-01  0.38191173877E-01  0.11671472496E+00  0.51100000000E-03 0. -1.
         11    1    4    4    0    0  0.61419538178E-02  0.14223897968E-01  0.37998527995E-02  0.15960666414E-01  0.51100000000E-03 0.  1.
</event>
<event>
 8    1  0.1103774E+005  0.1043930E+01  0.7957747E-01            NaN
         13   -1    0    0    0    0  0.00000000000E+00  0.00000000000E+00  0.74505805969E-08  0.10566000000E+00  0.10566000000E+00 0. -1.
     999900   -1    0    0    0    0 -0.00000000000E+00 -0.00000000000E+00 -0.74505805969E-08  0.93827000000E+00  0.93827000000E+00 0. -1.
     999902    2    1    2    0    0  0.85883297621E-02 -0.52483779670E-02  0.20975447562E-01  0.10206646979E+01  0.10203995058E+01 0.  0.
     999903    2    3    3    0    0  0.34189138005E-01 -0.27606243556E-01 -0.11937338641E+00  0.12889506921E+00  0.20807009436E-01 0.  0.
         14    1    1    2    0    0 -0.85883297621E-02  0.52483779670E-02 -0.20975447562E-01  0.23265302057E-01  0.00000000000E+00 0.  1.
     999901    1    3    3    0    0 -0.25600808243E-01  0.22357865589E-01  0.14034883397E+00  0.89176962874E+00  0.88000000000E+00 0.  1.
        -11    1    4    4    0    0  0.74957884673E-02 -0.14346602494E-01 -0.63892254000E-01  0.65912768794E-01  0.51100000000E-03 0.  1.
         11    1    4    4    0    0  0.26693349538E-01 -0.13259641063E-01 -0.55481132413E-01  0.62982300414E-01  0.51100000000E-03 0. -1.
</event>
<event>
 8    1  0.1103774E+005  0.1043930E+01  0.7957747E-01            NaN
         13   -1    0    0    0    0  0.00000000000E+00  0.00000000000E+00  0.74505805969E-08  0.10566000000E+00  0.10566000000E+00 0. -1.
     999900   -1    0    0    0    0 -0.00000000000E+00 -0.00000000000E+00 -0.74505805969E-08  0.93827000000E+00  0.93827000000E+00 0. -1.
     999902    2    1    2    0    0  0.73260243237E-02 -0.92660188440E-02  0.20314035386E-01  0.10204312815E+01  0.10201606788E+01 0.  0.
     999903    2    3    3    0    0  0.87083909687E-02 -0.11138539330E+00  0.70109034092E-01  0.13312647509E+00  0.18023312512E-01 0.  0.
         14    1    1    2    0    0 -0.73260243237E-02  0.92660188440E-02 -0.20314035386E-01  0.23498718503E-01  0.00000000000E+00 0.  1.
     999901    1    3    3    0    0 -0.13823666449E-02  0.10211937446E+00 -0.49794998706E-01  0.88730480641E+00  0.88000000000E+00 0. -1.
        -11    1    4    4    0    0  0.12055372637E-01 -0.73105222884E-01  0.52777659758E-01  0.90969490011E-01  0.51100000000E-03 0.  1.
         11    1    4    4    0    0 -0.33469816685E-02 -0.38280170420E-01  0.17331374334E-01  0.42156985079E-01  0.51100000000E-03 0. -1.
</event>
<event>
 8    1  0.1103774E+005  0.1043930E+01  0.7957747E-01            NaN
         13   -1    0    0    0    0  0.00000000000E+00  0.00000000000E+00  0.74505805969E-08  0.10566000000E+00  0.10566000000E+00 0.  1.
     999900   -1    0    0    0    0 -0.00000000000E+00 -0.00000000000E+00 -0.74505805969E-08  0.93827000000E+00  0.93827000000E+00 0. -1.
     999902    2    1    2    0    0  0.42978672322E-02 -0.42654965600E-02 -0.23142379834E-01  0.10200085480E+01  0.10197280039E+01 0.  0.
     999903    2    3    3    0    0  0.43062230405E-01 -0.67997177849E-01 -0.10414896097E+00  0.13314527256E+00  0.20067028940E-01 0.  0.
         14    1    1    2    0    0 -0.42978672322E-02  0.42654965600E-02  0.23142379834E-01  0.23921452047E-01  0.00000000000E+00 0.  1.
     999901    1    3    3    0    0 -0.38764363173E-01  0.63731681289E-01  0.81006581139E-01  0.88686327539E+00  0.88000000000E+00 0.  1.
        -11    1    4    4    0    0  0.34922032002E-02 -0.15536996166E-01 -0.11908062070E-01  0.19891123556E-01  0.51100000000E-03 0. -1.
         11    1    4    4    0    0  0.39570027205E-01 -0.52460181683E-01 -0.92240898903E-01  0.11325414900E+00  0.51100000000E-03 0.  1.
</event>
<event>
 8    1  0.1103774E+005  0.1043930E+01  0.7957747E-01            NaN
         13   -1    0    0    0    0  0.00000000000E+00  0.00000000000E+00  0.74505805969E-08  0.10566000000E+00  0.10566000000E+00 0. -1.
     999900   -1    0    0    0    0 -0.00000000000E+00 -0.00000000000E+00 -0.74505805969E-08  0.93827000000E+00  0.93827000000E+00 0.  1.
     999902    2    1    2    0    0  0.22580632182E-01 -0.11170562341E-01 -0.11320115565E-01  0.10163109589E+01  0.10159356052E+01 0.  0.
     999903    2    3    3    0    0 -0.10617776200E+00  0.60615702050E-01 -0.62429227020E-02  0.12403422512E+00  0.19938265677E-01 0.  0.
         14    1    1    2    0    0 -0.22580632182E-01  0.11170562341E-01  0.11320115565E-01  0.27619041061E-01  0.00000000000E+00 0. -1.
     999901    1    3    3    0    0  0.12875839418E+00 -0.71786264390E-01 -0.50771928626E-02  0.89227673382E+00  0.88000000000E+00 0.  1.
        -11    1    4    4    0    0 -0.28777066648E-01  0.14827580305E-01  0.70231977209E-02  0.33129490334E-01  0.51100000000E-03 0.  1.
         11    1    4    4    0    0 -0.77400695354E-01  0.45788121745E-01 -0.13266120423E-01  0.90904734785E-01  0.51100000000E-03 0. -1.
</event>
<event>
 8    1  0.1103774E+005  0.1043930E+01  0.7957747E-01            NaN
         13   -1    0    0    0    0  0.00000000000E+00  0.00000000000E+00  0.74505805969E-08  0.10566000000E+00  0.10566000000E+00 0. -1.
     999900   -1    0    0    0    0 -0.00000000000E+00 -0.00000000000E+00 -0.74505805969E-08  0.93827000000E+00  0.93827000000E+00 0.  1.
     999902    2    1    2    0    0 -0.10475166502E-02 -0.17101793683E-01 -0.16720680981E-01  0.10199894526E+01  0.10197084552E+01 0.  0.
     999903    2    3    3    0    0  0.42762048612E-01  0.11784510654E+00  0.16666122680E-01  0.12800031445E+00  0.19754971966E-01 0.  0.
         14    1    1    2    0    0  0.10475166502E-02  0.17101793683E-01  0.16720680981E-01  0.23940547420E-01  0.00000000000E+00 0. -1.
     999901    1    3    3    0    0 -0.43809565262E-01 -0.13494690022E+00 -0.33386803661E-01  0.89198913813E+00  0.88000000000E+00 0.  1.
        -11    1    4    4    0    0  0.42852847295E-01  0.97730444081E-01  0.15627715975E-01  0.10785218055E+00  0.51100000000E-03 0.  1.
         11    1    4    4    0    0 -0.90798683813E-04  0.20114662456E-01  0.10384067050E-02  0.20148133898E-01  0.51100000000E-03 0. -1.
</event>
<event>
 8    1  0.1103774E+005  0.1043930E+01  0.7957747E-01            NaN
         13   -1    0    0    0    0  0.00000000000E+00  0.00000000000E+00  0.74505805969E-08  0.10566000000E+00  0.10566000000E+00 0. -1.
     999900   -1    0    0    0    0 -0.00000000000E+00 -0.00000000000E+00 -0.74505805969E-08  0.93827000000E+00  0.93827000000E+00 0.  1.
     999902    2    1    2    0    0  0.62507391679E-02 -0.61485895616E-02  0.21678935153E-01  0.10205451091E+01  0.10202771518E+01 0.  0.
     999903    2    3    3    0    0  0.92759122784E-01  0.72946242596E-01  0.56092836643E-01  0.13210602309E+00  0.19498354931E-01 0.  0.
         14    1    1    2    0    0 -0.62507391679E-02  0.61485895616E-02 -0.21678935153E-01  0.23384890915E-01  0.00000000000E+00 0.  1.
     999901    1    3    3    0    0 -0.86508383617E-01 -0.79094832158E-01 -0.34413901490E-01  0.88843908600E+00  0.88000000000E+00 0.  1.
        -11    1    4    4    0    0  0.39869920129E-01  0.35614078171E-01  0.15387276211E-01  0.55632746519E-01  0.51100000000E-03 0. -1.
         11    1    4    4    0    0  0.52889202655E-01  0.37332164425E-01  0.40705560432E-01  0.76473276569E-01  0.51100000000E-03 0.  1.
</event>
<event>
 8    1  0.1103774E+005  0.1043930E+01  0.7957747E-01            NaN
         13   -1    0    0    0    0  0.00000000000E+00  0.00000000000E+00  0.74505805969E-08  0.10566000000E+00  0.10566000000E+00 0. -1.
     999900   -1    0    0    0    0 -0.00000000000E+00 -0.00000000000E+00 -0.74505805969E-08  0.93827000000E+00  0.93827000000E+00 0. -1.
     999902    2    1    2    0    0 -0.89427116420E-03  0.22773566561E-01  0.10337819416E-01  0.10189039023E+01  0.10185965131E+01 0.  0.
     999903    2    3    3    0    0 -0.82321332410E-01 -0.16794988351E-01  0.97231606499E-01  0.13000201399E+00  0.19689208609E-01 0.  0.
         14    1    1    2    0    0  0.89427116420E-03 -0.22773566561E-01 -0.10337819416E-01  0.25026097680E-01  0.00000000000E+00 0. -1.
     999901    1    3    3    0    0  0.81427061246E-01  0.39568554912E-01 -0.86893787084E-01  0.88890188833E+00  0.88000000000E+00 0.  1.
        -11    1    4    4    0    0 -0.52753150547E-01 -0.18292113650E-01  0.54596406949E-01  0.78093054027E-01  0.51100000000E-03 0.  1.
         11    1    4    4    0    0 -0.29568181863E-01  0.14971252992E-02  0.42635199550E-01  0.51908959964E-01  0.51100000000E-03 0. -1.
</event>
<event>
 8    1  0.1103774E+005  0.1043930E+01  0.7957747E-01            NaN
         13   -1    0    0    0    0  0.00000000000E+00  0.00000000000E+00  0.74505805969E-08  0.10566000000E+00  0.10566000000E+00 0. -1.
     999900   -1    0    0    0    0 -0.00000000000E+00 -0.00000000000E+00 -0.74505805969E-08  0.93827000000E+00  0.93827000000E+00 0.  1.
     999902    2    1    2    0    0 -0.15782696915E-01  0.98156397116E-02 -0.14452761200E-01  0.10203859432E+01  0.10201142830E+01 0.  0.
     999903    2    3    3    0    0 -0.97370074305E-01 -0.14286670287E-01 -0.87583556257E-01  0.13326389145E+00  0.20083453874E-01 0.  0.
         14    1    1    2    0    0  0.15782696915E-01 -0.98156397116E-02  0.14452761200E-01  0.23544056812E-01  0.00000000000E+00 0. -1.
     999901    1    3    3    0    0  0.81587377389E-01  0.24102309999E-01  0.73130795057E-01  0.88712205174E+00  0.88000000000E+00 0. -1.
        -11    1    4    4    0    0 -0.23386830531E-01 -0.12462712462E-02 -0.32704886000E-01  0.40228941367E-01  0.51100000000E-03 0.  1.
         11    1    4    4    0    0 -0.73983243774E-01 -0.13040399041E-01 -0.54878670257E-01  0.93034950081E-01  0.51100000000E-03 0. -1.
</event>
<event>
 8    1  0.1103774E+005  0.1043930E+01  0.7957747E-01            NaN
         13   -1    0    0    0    0  0.00000000000E+00  0.00000000000E+00  0.74505805969E-08  0.10566000000E+00  0.10566000000E+00 0. -1.
     999900   -1    0    0    0    0 -0.00000000000E+00 -0.00000000000E+00 -0.74505805969E-08  0.93827000000E+00  0.93827000000E+00 0. -1.
     999902    2    1    2    0    0 -0.87943974810E-02  0.20786119510E-01 -0.38494682980E-03  0.10213567332E+01  0.10211072539E+01 0.  0.
     999903    2    3    3    0    0  0.12336750506E+00 -0.19362207014E-01  0.30325097947E-01  0.13005332610E+00  0.19995491965E-01 0.  0.
         14    1    1    2    0    0  0.87943974810E-02 -0.20786119510E-01  0.38494682980E-03  0.22573266830E-01  0.00000000000E+00 0.  1.
     999901    1    3    3    0    0 -0.13216190254E+00  0.40148326523E-01 -0.30710044777E-01  0.89130340707E+00  0.88000000000E+00 0. -1.
        -11    1    4    4    0    0  0.66675965440E-01 -0.13381760878E-01  0.26255991480E-01  0.72899890954E-01  0.51100000000E-03 0. -1.
         11    1    4    4    0    0  0.56691539620E-01 -0.59804461361E-02  0.40691064668E-02  0.57153435145E-01  0.51100000000E-03 0.  1.
</event>
<event>
 8    1  0.1103774E+005  0.1043930E+01  0.7957747E-01            NaN
         13   -1    0    0    0    0  0.00000000000E+00  0.00000000000E+00  0.74505805969E-08  0.10566000000E+00  0.10566000000E+00 0. -1.
     999900   -1    0    0    0    0 -0.00000000000E+00 -0.00000000000E+00 -0.74505805969E-08  0.93827000000E+00  0.93827000000E+00 0. -1.
     999902    2    1    2    0    0 -0.20757693599E-01  0.61511497433E-02  0.10217610402E-01  0.10199901159E+01  0.10197091343E+01 0.  0.
     999903    2    3    3    0    0 -0.10654417059E+00 -0.61524159128E-01 -0.42266044650E-01  0.13168059718E+00  0.20407809775E-01 0.  0.
         14    1    1    2    0    0  0.20757693599E-01 -0.61511497433E-02 -0.10217610402E-01  0.23939884065E-01  0.00000000000E+00 0.  1.
     999901    1    3    3    0    0  0.85786476991E-01  0.67675308871E-01  0.52483655052E-01  0.88830951876E+00  0.88000000000E+00 0. -1.
        -11    1    4    4    0    0 -0.80217979571E-01 -0.38604650851E-01 -0.36865172525E-01  0.96356345822E-01  0.51100000000E-03 0.  1.
         11    1    4    4    0    0 -0.26326191019E-01 -0.22919508277E-01 -0.54008721252E-02  0.35324251357E-01  0.51100000000E-03 0. -1.
</event>
<event>
 8    1  0.1103774E+005  0.1043930E+01  0.7957747E-01            NaN
         13   -1    0    0    0    0  0.00000000000E+00  0.00000000000E+00  0.74505805969E-08  0.10566000000E+00  0.10566000000E+00 0. -1.
     999900   -1    0    0    0    0 -0.00000000000E+00 -0.00000000000E+00 -0.74505805969E-08  0.93827000000E+00  0.93827000000E+00 0.  1.
     999902    2    1    2    0    0  0.85254701737E-02  0.17878492176E-01 -0.13524162802E-01  0.10199461074E+01  0.10196640795E+01 0.  0.
     999903    2    3    3    0    0 -0.60412362265E-02 -0.71033153144E-01  0.10396601200E+00  0.12757767970E+00  0.19619564843E-01 0.  0.
         14    1    1    2    0    0 -0.85254701737E-02 -0.17878492176E-01  0.13524162802E-01  0.23983892588E-01  0.00000000000E+00 0. -1.
     999901    1    3    3    0    0  0.14566706400E-01  0.88911645320E-01 -0.11749017480E+00  0.89236842772E+00  0.88000000000E+00 0. -1.
        -11    1    4    4    0    0  0.67489920958E-02 -0.17544246501E-01  0.29959414491E-01  0.35371982094E-01  0.51100000000E-03 0.  1.
         11    1    4    4    0    0 -0.12790228322E-01 -0.53488906643E-01  0.74006597510E-01  0.92205697603E-01  0.51100000000E-03 0. -1.
</event>
<event>
 7    1  0.1103774E+005  0.1043930E+01  0.7957747E-01            NaN
         13   -1    0    0    0    0  0.00000000000E+00  0.00000000000E+00  0.74505805969E-08  0.10566000000E+00  0.10566000000E+00 0.  1.
     999900   -1    0    0    0    0 -0.00000000000E+00 -0.00000000000E+00 -0.74505805969E-08  0.93827000000E+00  0.93827000000E+00 0.  1.
     999903    2    1    2    0    0  0.36413712839E-01 -0.53173781208E-01  0.93032914574E-01  0.11491727678E+00  0.19936093346E-01 0.  0.
         14    1    1    2    0    0  0.38701926236E-01  0.61123205426E-02 -0.11368282158E-01  0.40797517033E-01  0.00000000000E+00 0. -1.
     999901    1    1    2    0    0 -0.75115639075E-01  0.47061460665E-01 -0.81664632416E-01  0.88821520619E+00  0.88000000000E+00 0.  1.
        -11    1    3    3    0    0  0.95695322462E-02 -0.17997982194E-01  0.46121966026E-01  0.50428168532E-01  0.51100000000E-03 0. -1.
         11    1    3    3    0    0  0.26844180593E-01 -0.35175799014E-01  0.46910948549E-01  0.64489108248E-01  0.51100000000E-03 0.  1.
</event>
<event>
 8    1  0.1103774E+005  0.1043930E+01  0.7957747E-01            NaN
         13   -1    0    0    0    0  0.00000000000E+00  0.00000000000E+00  0.74505805969E-08  0.10566000000E+00  0.10566000000E+00 0.  1.
     999900   -1    0    0    0    0 -0.00000000000E+00 -0.00000000000E+00 -0.74505805969E-08  0.93827000000E+00  0.93827000000E+00 0. -1.
     999902    2    1    2    0    0 -0.21691322558E-01  0.91075700463E-02 -0.61233724273E-02  0.10196203929E+01  0.10193305591E+01 0.  0.
     999903    2    3    3    0    0 -0.55443162135E-01 -0.83008741110E-01  0.80887189931E-01  0.12990389908E+00  0.19180463300E-01 0.  0.
         14    1    1    2    0    0  0.21691322558E-01 -0.91075700463E-02  0.61233724273E-02  0.24309607079E-01  0.00000000000E+00 0.  1.
     999901    1    3    3    0    0  0.33751839577E-01  0.92116311156E-01 -0.87010562358E-01  0.88971649384E+00  0.88000000000E+00 0. -1.
        -11    1    4    4    0    0 -0.11188398649E-01 -0.20907648063E-01  0.98417120452E-02  0.25679377501E-01  0.51100000000E-03 0.  1.
         11    1    4    4    0    0 -0.44254763487E-01 -0.62101093046E-01  0.71045477885E-01  0.10422452158E+00  0.51100000000E-03 0. -1.
</event>
<event>
 8    1  0.1103774E+005  0.1043930E+01  0.7957747E-01            NaN
         13   -1    0    0    0    0  0.00000000000E+00  0.00000000000E+00  0.74505805969E-08  0.10566000000E+00  0.10566000000E+00 0. -1.
     999900   -1    0    0    0    0 -0.00000000000E+00 -0.00000000000E+00 -0.74505805969E-08  0.93827000000E+00  0.93827000000E+00 0. -1.
     999902    2    1    2    0    0 -0.23207999944E-01 -0.50652755974E-02  0.21740358307E-02  0.10200763900E+01  0.10197974538E+01 0.  0.
     999903    2    3    3    0    0 -0.10693325268E+00  0.70484947211E-01 -0.27050461818E-01  0.13239861886E+00  0.19870039749E-01 0.  0.
         14    1    1    2    0    0  0.23207999944E-01  0.50652755974E-02 -0.21740358307E-02  0.23853610001E-01  0.00000000000E+00 0.  1.
     999901    1    3    3    0    0  0.83725252734E-01 -0.75550222809E-01  0.29224497649E-01  0.88767777114E+00  0.88000000000E+00 0.  1.
        -11    1    4    4    0    0 -0.21144688803E-01  0.84149063648E-02 -0.11061361276E-01  0.25308562741E-01  0.51100000000E-03 0.  1.
         11    1    4    4    0    0 -0.85788563875E-01  0.62070040847E-01 -0.15989100542E-01  0.10709005612E+00  0.51100000000E-03 0. -1.
</event>
<event>
 8    1  0.1103774E+005  0.1043930E+01  0.7957747E-01            NaN
         13   -1    0    0    0    0  0.00000000000E+00  0.00000000000E+00  0.74505805969E-08  0.10566000000E+00  0.10566000000E+00 0.  1.
     999900   -1    0    0    0    0 -0.00000000000E+00 -0.00000000000E+00 -0.74505805969E-08  0.93827000000E+00  0.93827000000E+00 0.  1.
     999902    2    1    2    0    0  0.51238138949E-02  0.10800792685E-01 -0.20233591707E-01  0.10204287484E+01  0.10201580867E+01 0.  0.
     999903    2    3    3    0    0 -0.24322401934E-01  0.12801886331E+00 -0.24475427725E-02  0.13198994962E+00  0.20855400701E-01 0.  0.
         14    1    1    2    0    0 -0.51238138949E-02 -0.10800792685E-01  0.20233591707E-01  0.23501251558E-01  0.00000000000E+00 0.  1.
     999901    1    3    3    0    0  0.29446215829E-01 -0.11721807062E+00 -0.17786048934E-01  0.88843879882E+00  0.88000000000E+00 0.  1.
        -11    1    4    4    0    0 -0.25020247044E-01  0.12254336061E+00 -0.63131929588E-02  0.12523180713E+00  0.51100000000E-03 0.  1.
         11    1    4    4    0    0  0.69784510948E-03  0.54755026983E-02  0.38656501864E-02  0.67581424933E-02  0.51100000000E-03 0. -1.
</event>
<event>
 8    1  0.1103774E+005  0.1043930E+01  0.7957747E-01            NaN
         13   -1    0    0    0    0  0.00000000000E+00  0.00000000000E+00  0.74505805969E-08  0.10566000000E+00  0.10566000000E+00 0. -1.
     999900   -1    0    0    0    0 -0.00000000000E+00 -0.00000000000E+00 -0.74505805969E-08  0.93827000000E+00  0.93827000000E+00 0.  1.
     999902    2    1    2    0    0  0.91896436557E-03  0.29571896477E-02 -0.23225111437E-01  0.10204993520E+01  0.10202303329E+01 0.  0.
     999903    2    3    3    0    0  0.14131683878E-02 -0.12169522994E+00  0.38813790955E-01  0.12955193749E+00  0.21574709851E-01 0.  0.
         14    1    1    2    0    0 -0.91896436557E-03 -0.29571896477E-02  0.23225111437E-01  0.23430648036E-01  0.00000000000E+00 0. -1.
     999901    1    3    3    0    0 -0.49420402224E-03  0.12465241958E+00 -0.62038902393E-01  0.89094741447E+00  0.88000000000E+00 0.  1.
        -11    1    4    4    0    0 -0.55590648185E-02 -0.70445535988E-01  0.13416197593E-01  0.71928660637E-01  0.51100000000E-03 0. -1.
         11    1    4    4    0    0  0.69722332063E-02 -0.51249693949E-01  0.25397593363E-01  0.57623276854E-01  0.51100000000E-03 0.  1.
</event>
<event>
 8    1  0.1103774E+005  0.1043930E+01  0.7957747E-01            NaN
         13   -1    0    0    0    0  0.00000000000E+00  0.00000000000E+00  0.74505805969E-08  0.10566000000E+00  0.10566000000E+00 0.  1.
     999900   -1    0    0    0    0 -0.00000000000E+00 -0.00000000000E+00 -0.74505805969E-08  0.93827000000E+00  0.93827000000E+00 0. -1.
     999902    2    1    2    0    0  0.16668933025E-01 -0.13607394093E-01 -0.67955463276E-02  0.10213646737E+01  0.10211153719E+01 0.  0.
     999903    2    3    3    0    0 -0.71915946723E-01 -0.31152405273E-01  0.10125904331E+00  0.13016834139E+00  0.23409987232E-01 0.  0.
         14    1    1    2    0    0 -0.16668933025E-01  0.13607394093E-01  0.67955463276E-02  0.22565326324E-01  0.00000000000E+00 0.  1.
     999901    1    3    3    0    0  0.88584879748E-01  0.17545011179E-01 -0.10805458963E+00  0.89119633228E+00  0.88000000000E+00 0. -1.
        -11    1    4    4    0    0 -0.18303995290E-01  0.11886304789E-02  0.15724353198E-01  0.24165377929E-01  0.51100000000E-03 0. -1.
         11    1    4    4    0    0 -0.53611951433E-01 -0.32341035752E-01  0.85534690107E-01  0.10600296346E+00  0.51100000000E-03 0.  1.
</event>
<event>
 8    1  0.1103774E+005  0.1043930E+01  0.7957747E-01            NaN
         13   -1    0    0    0    0  0.00000000000E+00  0.00000000000E+00  0.74505805969E-08  0.10566000000E+00  0.10566000000E+00 0. -1.
     999900   -1    0    0    0    0 -0.00000000000E+00 -0.00000000000E+00 -0.74505805969E-08  0.93827000000E+00  0.93827000000E+00 0. -1.
     999902    2    1    2    0    0 -0.29205092809E-02 -0.21253674669E-01 -0.12559191641E-01  0.10190707692E+01  0.10187675158E+01 0.  0.
     999903    2    3    3    0    0  0.80910465325E-01  0.89303224573E-01 -0.37837937873E-01  0.12784157573E+00  0.19753218098E-01 0.  0.
         14    1    1    2    0    0  0.29205092809E-02  0.21253674669E-01  0.12559191641E-01  0.24859230802E-01  0.00000000000E+00 0. -1.
     999901    1    3    3    0    0 -0.83830974605E-01 -0.11055689924E+00  0.25278746232E-01  0.89122919347E+00  0.88000000000E+00 0.  1.
        -11    1    4    4    0    0  0.23242767498E-01  0.36763464781E-01 -0.75184257978E-02  0.44142569376E-01  0.51100000000E-03 0. -1.
         11    1    4    4    0    0  0.57667697827E-01  0.52539759793E-01 -0.30319512075E-01  0.83699006357E-01  0.51100000000E-03 0.  1.
</event>
<event>
 8    1  0.1103774E+005  0.1043930E+01  0.7957747E-01            NaN
         13   -1    0    0    0    0  0.00000000000E+00  0.00000000000E+00  0.74505805969E-08  0.10566000000E+00  0.10566000000E+00 0. -1.
     999900   -1    0    0    0    0 -0.00000000000E+00 -0.00000000000E+00 -0.74505805969E-08  0.93827000000E+00  0.93827000000E+00 0. -1.
     999902    2    1    2    0    0  0.11192534109E-01 -0.13433831623E-01  0.13826419979E-01  0.10216385097E+01  0.10213952878E+01 0.  0.
     999903    2    3    3    0    0  0.10023933279E+00 -0.81050365848E-01  0.32293531394E-01  0.13437171650E+00  0.19894732548E-01 0.  0.
         14    1    1    2    0    0 -0.11192534109E-01  0.13433831623E-01 -0.13826419979E-01  0.22291490333E-01  0.00000000000E+00 0.  1.
     999901    1    3    3    0    0 -0.89046798678E-01  0.67616534225E-01 -0.18467111416E-01  0.88726679317E+00  0.88000000000E+00 0. -1.
        -11    1    4    4    0    0  0.22436919343E-01 -0.29110691798E-01  0.11803742945E-01  0.38606180789E-01  0.51100000000E-03 0. -1.
         11    1    4    4    0    0  0.77802413444E-01 -0.51939674050E-01  0.20489788449E-01  0.95765535710E-01  0.51100000000E-03 0.  1.
</event>
<event>
 8    1  0.1103774E+005  0.1043930E+01  0.7957747E-01            NaN
         13   -1    0    0    0    0  0.00000000000E+00  0.00000000000E+00  0.74505805969E-08  0.10566000000E+00  0.10566000000E+00 0. -1.
     999900   -1    0    0    0    0 -0.00000000000E+00 -0.00000000000E+00 -0.74505805969E-08  0.93827000000E+00  0.93827000000E+00 0.  1.
     999902    2    1    2    0    0  0.21384582177E-01 -0.41988280142E-02 -0.56355270028E-02  0.10214202315E+01  0.10211721695E+01 0.  0.
     999903    2    3    3    0    0  0.60046765047E-01  0.11073240100E+00 -0.36930186308E-01  0.13255392692E+00  0.18423524524E-01 0.  0.
         14    1    1    2    0    0 -0.21384582177E-01  0.41988280142E-02  0.56355270028E-02  0.22509768461E-01  0.00000000000E+00 0. -1.
     999901    1    3    3    0    0 -0.38662182870E-01 -0.11493122902E+00  0.31294659305E-01  0.88886630462E+00  0.88000000000E+00 0.  1.
        -11    1    4    4    0    0  0.29589874692E-01  0.68985591538E-01 -0.15730621065E-01  0.76696063030E-01  0.51100000000E-03 0. -1.
         11    1    4    4    0    0  0.30456890355E-01  0.41746809467E-01 -0.21199565243E-01  0.55857863889E-01  0.51100000000E-03 0.  1.
</event>
<event>
 8    1  0.1103774E+005  0.1043930E+01  0.7957747E-01            NaN
         13   -1    0    0    0    0  0.00000000000E+00  0.00000000000E+00  0.74505805969E-08  0.10566000000E+00  0.10566000000E+00 0. -1.
     999900   -1    0    0    0    0 -0.00000000000E+00 -0.00000000000E+00 -0.74505805969E-08  0.93827000000E+00  0.93827000000E+00 0. -1.
     999902    2    1    2    0    0  0.16654495341E-01 -0.83253401860E-02 -0.13708768035E-01  0.10208082824E+01  0.10205463907E+01 0.  0.
     999903    2    3    3    0    0 -0.11398703389E+00  0.55150740274E-01  0.11067188972E-01  0.12855816611E+00  0.19237238752E-01 0.  0.
         14    1    1    2    0    0 -0.16654495341E-01  0.83253401860E-02  0.13708768035E-01  0.23121717611E-01  0.00000000000E+00 0. -1.
     999901    1    3    3    0    0  0.13064152923E+00 -0.63476080460E-01 -0.24775957007E-01  0.89225011628E+00  0.88000000000E+00 0.  1.
        -11    1    4    4    0    0 -0.22188881135E-01  0.28428495646E-02  0.59436348835E-03  0.22383981519E-01  0.51100000000E-03 0.  1.
         11    1    4    4    0    0 -0.91798152754E-01  0.52307890709E-01  0.10472825484E-01  0.10617418459E+00  0.51100000000E-03 0. -1.
</event>
<event>
 8    1  0.1103774E+005  0.1043930E+01  0.7957747E-01            NaN
         13   -1    0    0    0    0  0.00000000000E+00  0.00000000000E+00  0.74505805969E-08  0.10566000000E+00  0.10566000000E+00 0.  1.
     999900   -1    0    0    0    0 -0.00000000000E+00 -0.00000000000E+00 -0.74505805969E-08  0.93827000000E+00  0.93827000000E+00 0. -1.
     999902    2    1    2    0    0  0.67860714562E-02  0.16888565901E-01 -0.16013029070E-01  0.10196876502E+01  0.10193994371E+01 0.  0.
     999903    2    3    3    0    0  0.53265679743E-01 -0.43604393937E-01 -0.11017759401E+00  0.13138211860E+00  0.19585276512E-01 0.  0.
         14    1    1    2    0    0 -0.67860714562E-02 -0.16888565901E-01  0.16013029070E-01  0.24242349803E-01  0.00000000000E+00 0.  1.
     999901    1    3    3    0    0 -0.46479608287E-01  0.60492959838E-01  0.94164564943E-01  0.88830553160E+00  0.88000000000E+00 0.  1.
        -11    1    4    4    0    0  0.16824161581E-01 -0.10772543709E-01 -0.49332700850E-01  0.53226653145E-01  0.51100000000E-03 0.  1.
         11    1    4    4    0    0  0.36441518162E-01 -0.32831850228E-01 -0.60844893162E-01  0.78155465454E-01  0.51100000000E-03 0. -1.
</event>
<event>
 8    1  0.1103774E+005  0.1043930E+01  0.7957747E-01            NaN
         13   -1    0    0    0    0  0.00000000000E+00  0.00000000000E+00  0.74505805969E-08  0.10566000000E+00  0.10566000000E+00 0.  1.
     999900   -1    0    0    0    0 -0.00000000000E+00 -0.00000000000E+00 -0.74505805969E-08  0.93827000000E+00  0.93827000000E+00 0.  1.
     999902    2    1    2    0    0 -0.36860142745E-02 -0.14541443762E-01 -0.19656286178E-01  0.10192032963E+01  0.10189033072E+01 0.  0.
     999903    2    3    3    0    0 -0.11784528320E+00 -0.33400149388E-01  0.37979554194E-01  0.12975971771E+00  0.19800430556E-01 0.  0.
         14    1    1    2    0    0  0.36860142745E-02  0.14541443762E-01  0.19656286178E-01  0.24726703667E-01  0.00000000000E+00 0.  1.
     999901    1    3    3    0    0  0.11415926893E+00  0.18858705626E-01 -0.57635840372E-01  0.88944357862E+00  0.88000000000E+00 0.  1.
        -11    1    4    4    0    0 -0.97525261384E-01 -0.33260248080E-01  0.36736064405E-01  0.10939479082E+00  0.51100000000E-03 0. -1.
         11    1    4    4    0    0 -0.20320021821E-01 -0.13990130839E-03  0.12434897893E-02  0.20364926885E-01  0.51100000000E-03 0.  1.
</event>
<event>
 8    1  0.1103774E+005  0.1043930E+01  0.7957747E-01            NaN
         13   -1    0    0    0    0  0.00000000000E+00  0.00000000000E+00  0.74505805969E-08  0.10566000000E+00  0.10566000000E+00 0. -1.
     999900   -1    0    0    0    0 -0.00000000000E+00 -0.00000000000E+00 -0.74505805969E-08  0.93827000000E+00  0.93827000000E+00 0. -1.
     999902    2    1    2    0    0 -0.35020220777E-02  0.86926914388E-02 -0.22467897136E-01  0.10195859361E+01  0.10192952701E+01 0.  0.
     999903    2    3    3    0    0 -0.10182038703E+00 -0.48826539223E-01  0.58231342133E-01  0.12858238397E+00  0.19776706336E-01 0.  0.
         14    1    1    2    0    0  0.35020220777E-02 -0.86926914388E-02  0.22467897136E-01  0.24344063851E-01  0.00000000000E+00 0. -1.
     999901    1    3    3    0    0  0.98318364948E-01  0.57519230662E-01 -0.80699239269E-01  0.89100355218E+00  0.88000000000E+00 0. -1.
        -11    1    4    4    0    0 -0.82424018473E-01 -0.30317131254E-01  0.44385343797E-01  0.98403084981E-01  0.51100000000E-03 0.  1.
         11    1    4    4    0    0 -0.19396368553E-01 -0.18509407969E-01  0.13845998336E-01  0.30179298987E-01  0.51100000000E-03 0. -1.
</event>
<event>
 8    1  0.1103774E+005  0.1043930E+01  0.7957747E-01            NaN
         13   -1    0    0    0    0  0.00000000000E+00  0.00000000000E+00  0.74505805969E-08  0.10566000000E+00  0.10566000000E+00 0.  1.
     999900   -1    0    0    0    0 -0.00000000000E+00 -0.00000000000E+00 -0.74505805969E-08  0.93827000000E+00  0.93827000000E+00 0. -1.
     999902    2    1    2    0    0  0.23130254966E-01  0.93030997277E-02 -0.65991101208E-02  0.10181403778E+01  0.10178136982E+01 0.  0.
     999903    2    3    3    0    0 -0.88345604866E-01 -0.51618981435E-01  0.69939847726E-01  0.12572983361E+00  0.21141041030E-01 0.  0.
         14    1    1    2    0    0 -0.23130254966E-01 -0.93030997277E-02  0.65991101208E-02  0.25789622210E-01  0.00000000000E+00 0.  1.
     999901    1    3    3    0    0  0.11147585983E+00  0.60922081162E-01 -0.76538957846E-01  0.89241054418E+00  0.88000000000E+00 0. -1.
        -11    1    4    4    0    0 -0.45812355091E-01 -0.18864260500E-01  0.43282901393E-01  0.65789838708E-01  0.51100000000E-03 0.  1.
         11    1    4    4    0    0 -0.42533249774E-01 -0.32754720934E-01  0.26656946333E-01  0.59939994900E-01  0.51100000000E-03 0. -1.
</event>
<event>
 8    1  0.1103774E+005  0.1043930E+01  0.7957747E-01            NaN
         13   -1    0    0    0    0  0.00000000000E+00  0.00000000000E+00  0.74505805969E-08  0.10566000000E+00  0.10566000000E+00 0.  1.
     999900   -1    0    0    0    0 -0.00000000000E+00 -0.00000000000E+00 -0.74505805969E-08  0.93827000000E+00  0.93827000000E+00 0.  1.
     999902    2    1    2    0    0  0.16901038441E-01  0.16033992396E-01 -0.35866923096E-02  0.10203588657E+01  0.10200865730E+01 0.  0.
     999903    2    3    3    0    0 -0.17263072321E-01 -0.92799289121E-01  0.85161883513E-01  0.12856955234E+00  0.19179719987E-01 0.  0.
         14    1    1    2    0    0 -0.16901038441E-01 -0.16033992396E-01  0.35866923096E-02  0.23571134344E-01  0.00000000000E+00 0. -1.
     999901    1    3    3    0    0  0.34164110762E-01  0.10883328152E+00 -0.88748575823E-01  0.89178931331E+00  0.88000000000E+00 0.  1.
        -11    1    4    4    0    0 -0.87050133545E-02 -0.68919490202E-01  0.51798387735E-01  0.86654529484E-01  0.51100000000E-03 0. -1.
         11    1    4    4    0    0 -0.85580589668E-02 -0.23879798919E-01  0.33363495778E-01  0.41915022858E-01  0.51100000000E-03 0.  1.
</event>
<event>
 8    1  0.1103774E+005  0.1043930E+01  0.7957747E-01            NaN
         13   -1    0    0    0    0  0.00000000000E+00  0.00000000000E+00  0.74505805969E-08  0.10566000000E+00  0.10566000000E+00 0.  1.
     999900   -1    0    0    0    0 -0.00000000000E+00 -0.00000000000E+00 -0.74505805969E-08  0.93827000000E+00  0.93827000000E+00 0. -1.
     999902    2    1    2    0    0 -0.10320148803E-01  0.22721335331E-01 -0.55699696359E-02  0.10183606998E+01  0.10180396484E+01 0.  0.
     999903    2    3    3    0    0  0.72046477611E-01  0.70442121170E-01 -0.79788968846E-01  0.13012087049E+00  0.20306994259E-01 0.  0.
         14    1    1    2    0    0  0.10320148803E-01 -0.22721335331E-01  0.55699696359E-02  0.25569300192E-01  0.00000000000E+00 0.  1.
     999901    1    3    3    0    0 -0.82366626415E-01 -0.47720785839E-01  0.74218999210E-01  0.88823982932E+00  0.88000000000E+00 0.  1.
        -11    1    4    4    0    0  0.21656728190E-01  0.28271124362E-01 -0.38830844217E-01  0.52691232024E-01  0.51100000000E-03 0.  1.
         11    1    4    4    0    0  0.50389749421E-01  0.42170996808E-01 -0.40958124629E-01  0.77429638463E-01  0.51100000000E-03 0. -1.
</event>
<event>
 8    1  0.1103774E+005  0.1043930E+01  0.7957747E-01            NaN
         13   -1    0    0    0    0  0.00000000000E+00  0.00000000000E+00  0.74505805969E-08  0.10566000000E+00  0.10566000000E+00 0.  1.
     999900   -1    0    0    0    0 -0.00000000000E+00 -0.00000000000E+00 -0.74505805969E-08  0.93827000000E+00  0.93827000000E+00 0. -1.
     999902    2    1    2    0    0 -0.20720190701E-01  0.18732853004E-02  0.10863409746E-01  0.10204598238E+01  0.10201898856E+01 0.  0.
     999903    2    3    3    0    0 -0.10623462963E+00  0.47023537990E-01  0.62931829322E-01  0.13363267890E+00  0.20006700593E-01 0.  0.
         14    1    1    2    0    0  0.20720190701E-01 -0.18732853004E-02 -0.10863409746E-01  0.23470176220E-01  0.00000000000E+00 0.  1.
     999901    1    3    3    0    0  0.85514438934E-01 -0.45150252690E-01 -0.52068419576E-01  0.88682714488E+00  0.88000000000E+00 0. -1.
        -11    1    4    4    0    0 -0.92258699480E-01  0.44947523540E-01  0.48784550932E-01  0.11363160226E+00  0.51100000000E-03 0.  1.
         11    1    4    4    0    0 -0.13975930154E-01  0.20760144504E-02  0.14147278390E-01  0.20001076634E-01  0.51100000000E-03 0. -1.
</event>
<event>
 8    1  0.1103774E+005  0.1043930E+01  0.7957747E-01            NaN
         13   -1    0    0    0    0  0.00000000000E+00  0.00000000000E+00  0.74505805969E-08  0.10566000000E+00  0.10566000000E+00 0. -1.
     999900   -1    0    0    0    0 -0.00000000000E+00 -0.00000000000E+00 -0.74505805969E-08  0.93827000000E+00  0.93827000000E+00 0.  1.
     999902    2    1    2    0    0  0.12334717756E-01  0.18642915683E-01 -0.55099697488E-02  0.10209068957E+01  0.10206472585E+01 0.  0.
     999903    2    3    3    0    0 -0.10047489660E+00 -0.60144276898E-01  0.49071299307E-01  0.12854343509E+00  0.20071955524E-01 0.  0.
         14    1    1    2    0    0 -0.12334717756E-01 -0.18642915683E-01  0.55099697488E-02  0.23023104350E-01  0.00000000000E+00 0.  1.
     999901    1    3    3    0    0  0.11280961436E+00  0.78787192581E-01 -0.54581269056E-01  0.89236346056E+00  0.88000000000E+00 0.  1.
        -11    1    4    4    0    0 -0.67448763949E-01 -0.48269569744E-01  0.27684760224E-01  0.87441375739E-01  0.51100000000E-03 0.  1.
         11    1    4    4    0    0 -0.33026132655E-01 -0.11874707154E-01  0.21386539083E-01  0.41102059353E-01  0.51100000000E-03 0. -1.
</event>
<event>
 8    1  0.1103774E+005  0.1043930E+01  0.7957747E-01            NaN
         13   -1    0    0    0    0  0.00000000000E+00  0.00000000000E+00  0.74505805969E-08  0.10566000000E+00  0.10566000000E+00 0.  1.
     999900   -1    0    0    0    0 -0.00000000000E+00 -0.00000000000E+00 -0.74505805969E-08  0.93827000000E+00  0.93827000000E+00 0. -1.
     999902    2    1    2    0    0  0.92713717994E-02  0.71887797304E-03 -0.21539468649E-01  0.10204688868E+01  0.10201991596E+01 0.  0.
     999903    2    3    3    0    0  0.10416943755E+00 -0.47290866801E-01 -0.64715769552E-01  0.13301479145E+00  0.20423175933E-01 0.  0.
         14    1    1    2    0    0 -0.92713717994E-02 -0.71887797304E-03  0.21539468649E-01  0.23461113151E-01  0.00000000000E+00 0.  1.
     999901    1    3    3    0    0 -0.94898065747E-01  0.48009744774E-01  0.43176300902E-01  0.88745409540E+00  0.88000000000E+00 0.  1.
        -11    1    4    4    0    0  0.95446978900E-02 -0.11704730553E-01 -0.86865065831E-02  0.17430389920E-01  0.51100000000E-03 0. -1.
         11    1    4    4    0    0  0.94624739656E-01 -0.35586136248E-01 -0.56029262968E-01  0.11558440153E+00  0.51100000000E-03 0.  1.
</event>
<event>
 8    1  0.1103774E+005  0.1043930E+01  0.7957747E-01            NaN
         13   -1    0    0    0    0  0.00000000000E+00  0.00000000000E+00  0.74505805969E-08  0.10566000000E+00  0.10566000000E+00 0. -1.
     999900   -1    0    0    0    0 -0.00000000000E+00 -0.00000000000E+00 -0.74505805969E-08  0.93827000000E+00  0.93827000000E+00 0.  1.
     999902    2    1    2    0    0 -0.10641430814E-02  0.16089460845E-02 -0.22222452922E-01  0.10216239801E+01  0.10213804376E+01 0.  0.
     999903    2    3    3    0    0 -0.74425105901E-01 -0.94668010387E-01  0.48119680238E-01  0.13055770937E+00  0.15122277297E-01 0.  0.
         14    1    1    2    0    0  0.10641430814E-02 -0.16089460845E-02  0.22222452922E-01  0.22306019857E-01  0.00000000000E+00 0. -1.
     999901    1    3    3    0    0  0.73360962820E-01  0.96276956471E-01 -0.70342133159E-01  0.89106627077E+00  0.88000000000E+00 0.  1.
        -11    1    4    4    0    0 -0.34230057208E-01 -0.55647548715E-01  0.26721905603E-01  0.70588014950E-01  0.51100000000E-03 0.  1.
         11    1    4    4    0    0 -0.40195048693E-01 -0.39020461672E-01  0.21397774634E-01  0.59969694420E-01  0.51100000000E-03 0. -1.
</event>
<event>
 8    1  0.1103774E+005  0.1043930E+01  0.7957747E-01            NaN
         13   -1    0    0    0    0  0.00000000000E+00  0.00000000000E+00  0.74505805969E-08  0.10566000000E+00  0.10566000000E+00 0. -1.
     999900   -1    0    0    0    0 -0.00000000000E+00 -0.00000000000E+00 -0.74505805969E-08  0.93827000000E+00  0.93827000000E+00 0. -1.
     999902    2    1    2    0    0 -0.23238860716E-01 -0.16650257017E-02  0.58963858161E-02  0.10198970159E+01  0.10196138184E+01 0.  0.
     999903    2    3    3    0    0 -0.74931851212E-01  0.42462339296E-01 -0.97025811219E-01  0.13129566084E+00  0.20167050574E-01 0.  0.
         14    1    1    2    0    0  0.23238860716E-01  0.16650257017E-02 -0.58963858161E-02  0.24032984077E-01  0.00000000000E+00 0. -1.
     999901    1    3    3    0    0  0.51692990496E-01 -0.44127364998E-01  0.10292219703E+00  0.88860135508E+00  0.88000000000E+00 0.  1.
        -11    1    4    4    0    0 -0.26813889897E-01  0.15149579002E-01 -0.49772886044E-01  0.58532860357E-01  0.51100000000E-03 0. -1.
         11    1    4    4    0    0 -0.48117961315E-01  0.27312760294E-01 -0.47252925174E-01  0.72762800486E-01  0.51100000000E-03 0.  1.
</event>
<event>
 8    1  0.1103774E+005  0.1043930E+01  0.7957747E-01            NaN
         13   -1    0    0    0    0  0.00000000000E+00  0.00000000000E+00  0.74505805969E-08  0.10566000000E+00  0.10566000000E+00 0. -1.
     999900   -1    0    0    0    0 -0.00000000000E+00 -0.00000000000E+00 -0.74505805969E-08  0.93827000000E+00  0.93827000000E+00 0. -1.
     999902    2    1    2    0    0  0.90530457098E-02 -0.68458605007E-02 -0.20574527068E-01  0.10204324553E+01  0.10201618799E+01 0.  0.
     999903    2    3    3    0    0 -0.51006649598E-01 -0.69899903453E-02  0.11551622817E+00  0.12794834820E+00  0.19396973160E-01 0.  0.
         14    1    1    2    0    0 -0.90530457098E-02  0.68458605007E-02  0.20574527068E-01  0.23497544695E-01  0.00000000000E+00 0. -1.
     999901    1    3    3    0    0  0.60059695308E-01  0.14412984462E-03 -0.13609075524E+00  0.89248410711E+00  0.88000000000E+00 0. -1.
        -11    1    4    4    0    0 -0.10808979313E-01 -0.36760592749E-03  0.47022401628E-01  0.48252839749E-01  0.51100000000E-03 0. -1.
         11    1    4    4    0    0 -0.40197670285E-01 -0.66223844178E-02  0.68493826543E-01  0.79695508451E-01  0.51100000000E-03 0.  1.
</event>
<event>
 8    1  0.1103774E+005  0.1043930E+01  0.7957747E-01            NaN
         13   -1    0    0    0    0  0.00000000000E+00  0.00000000000E+00  0.74505805969E-08  0.10566000000E+00  0.10566000000E+00 0. -1.
     999900   -1    0    0    0    0 -0.00000000000E+00 -0.00000000000E+00 -0.74505805969E-08  0.93827000000E+00  0.93827000000E+00 0. -1.
     999902    2    1    2    0    0 -0.52942402663E-02  0.21801055918E-01  0.73022410980E-02  0.10203368284E+01  0.10200640204E+01 0.  0.
     999903    2    3    3    0    0 -0.10752090836E+00  0.63724263395E-02  0.72740985832E-01  0.13187154291E+00  0.22304691362E-01 0.  0.
         14    1    1    2    0    0  0.52942402663E-02 -0.21801055918E-01 -0.73022410980E-02  0.23593171559E-01  0.00000000000E+00 0. -1.
     999901    1    3    3    0    0  0.10222666810E+00  0.15428629579E-01 -0.65438744734E-01  0.88846528553E+00  0.88000000000E+00 0. -1.
        -11    1    4    4    0    0 -0.17398171023E-01 -0.59204576560E-02  0.17898485873E-01  0.25658626061E-01  0.51100000000E-03 0. -1.
         11    1    4    4    0    0 -0.90122737341E-01  0.12292883995E-01  0.54842499960E-01  0.10621291685E+00  0.51100000000E-03 0.  1.
</event>
<event>
 8    1  0.1103774E+005  0.1043930E+01  0.7957747E-01            NaN
         13   -1    0    0    0    0  0.00000000000E+00  0.00000000000E+00  0.74505805969E-08  0.10566000000E+00  0.10566000000E+00 0. -1.
     999900   -1    0    0    0    0 -0.00000000000E+00 -0.00000000000E+00 -0.74505805969E-08  0.93827000000E+00  0.93827000000E+00 0.  1.
     999902    2    1    2    0    0 -0.13204914618E-01 -0.19404485368E-01 -0.12779266748E-02  0.10204238961E+01  0.10201531213E+01 0.  0.
     999903    2    3    3    0    0  0.11391383518E+00  0.53753993023E-01  0.12738532985E-01  0.12817516363E+00  0.20018709665E-01 0.  0.
         14    1    1    2    0    0  0.13204914618E-01  0.19404485368E-01  0.12779266748E-02  0.23506103869E-01  0.00000000000E+00 0.  1.
     999901    1    3    3    0    0 -0.12711874980E+00 -0.73158478391E-01 -0.14016459660E-01  0.89224873250E+00  0.88000000000E+00 0. -1.
        -11    1    4    4    0    0  0.31196384900E-01  0.16208740899E-01 -0.53106964485E-02  0.35558435428E-01  0.51100000000E-03 0. -1.
         11    1    4    4    0    0  0.82717450283E-01  0.37545252124E-01  0.18049229434E-01  0.92616728200E-01  0.51100000000E-03 0.  1.
</event>
<event>
 8    1  0.1103774E+005  0.1043930E+01  0.7957747E-01            NaN
         13   -1    0    0    0    0  0.00000000000E+00  0.00000000000E+00  0.74505805969E-08  0.10566000000E+00  0.10566000000E+00 0. -1.
     999900   -1    0    0    0    0 -0.00000000000E+00 -0.00000000000E+00 -0.74505805969E-08  0.93827000000E+00  0.93827000000E+00 0. -1.
     999902    2    1    2    0    0 -0.76687694420E-02  0.14003870716E-03 -0.22298628485E-01  0.10203491080E+01  0.10200765872E+01 0.  0.
     999903    2    3    3    0    0  0.22826117761E-01 -0.16300131297E-01 -0.12880792712E+00  0.13325021383E+00  0.19427080679E-01 0.  0.
         14    1    1    2    0    0  0.76687694420E-02 -0.14003870716E-03  0.22298628485E-01  0.23580892008E-01  0.00000000000E+00 0. -1.
     999901    1    3    3    0    0 -0.30494887203E-01  0.16440170004E-01  0.10650929863E+00  0.88709889417E+00  0.88000000000E+00 0.  1.
        -11    1    4    4    0    0  0.18868857619E-01 -0.28978473447E-02 -0.89893369959E-01  0.91899458054E-01  0.51100000000E-03 0. -1.
         11    1    4    4    0    0  0.39572601426E-02 -0.13402283952E-01 -0.38914557160E-01  0.41350755772E-01  0.51100000000E-03 0.  1.
</event>
<event>
 8    1  0.1103774E+005  0.1043930E+01  0.7957747E-01            NaN
         13   -1    0    0    0    0  0.00000000000E+00  0.00000000000E+00  0.74505805969E-08  0.10566000000E+00  0.10566000000E+00 0.  1.
     999900   -1    0    0    0    0 -0.00000000000E+00 -0.00000000000E+00 -0.74505805969E-08  0.93827000000E+00  0.93827000000E+00 0.  1.
     999902    2    1    2    0    0 -0.17352994933E-02  0.21534794786E-01  0.83736237449E-02  0.10207594103E+01  0.10204963976E+01 0.  0.
     999903    2    3    3    0    0 -0.59975719828E-01  0.11719405912E+00 -0.11368607346E-01  0.13344188143E+00  0.18599893108E-01 0.  0.
         14    1    1    2    0    0  0.17352994933E-02 -0.21534794786E-01 -0.83736237449E-02  0.23170589665E-01  0.00000000000E+00 0.  1.
     999901    1    3    3    0    0  0.58240420335E-01 -0.95659264338E-01  0.19742231091E-01  0.88731752891E+00  0.88000000000E+00 0.  1.
        -11    1    4    4    0    0 -0.13968035229E-01  0.35534115993E-01  0.42478218277E-02  0.38419845377E-01  0.51100000000E-03 0. -1.
         11    1    4    4    0    0 -0.46007684599E-01  0.81659943131E-01 -0.15616429173E-01  0.95022036052E-01  0.51100000000E-03 0.  1.
</event>
<event>
 8    1  0.1103774E+005  0.1043930E+01  0.7957747E-01            NaN
         13   -1    0    0    0    0  0.00000000000E+00  0.00000000000E+00  0.74505805969E-08  0.10566000000E+00  0.10566000000E+00 0.  1.
     999900   -1    0    0    0    0 -0.00000000000E+00 -0.00000000000E+00 -0.74505805969E-08  0.93827000000E+00  0.93827000000E+00 0.  1.
     999902    2    1    2    0    0 -0.20787707508E-01 -0.17596332948E-02  0.11210862765E-01  0.10202464923E+01  0.10199715665E+01 0.  0.
     999903    2    3    3    0    0  0.12334489255E+00  0.27553648177E-01 -0.81141050139E-05  0.12796887838E+00  0.20071564990E-01 0.  0.
         14    1    1    2    0    0  0.20787707508E-01  0.17596332948E-02 -0.11210862765E-01  0.23683507695E-01  0.00000000000E+00 0. -1.
     999901    1    3    3    0    0 -0.14413260006E+00 -0.29313281471E-01  0.11218976870E-01  0.89227761393E+00  0.88000000000E+00 0.  1.
        -11    1    4    4    0    0  0.40392707172E-01  0.11328775152E-01 -0.91804084347E-02  0.42947094886E-01  0.51100000000E-03 0. -1.
         11    1    4    4    0    0  0.82952185382E-01  0.16224873024E-01  0.91722943297E-02  0.85021783494E-01  0.51100000000E-03 0.  1.
</event>
<event>
 8    1  0.1103774E+005  0.1043930E+01  0.7957747E-01            NaN
         13   -1    0    0    0    0  0.00000000000E+00  0.00000000000E+00  0.74505805969E-08  0.10566000000E+00  0.10566000000E+00 0. -1.
     999900   -1    0    0    0    0 -0.00000000000E+00 -0.00000000000E+00 -0.74505805969E-08  0.93827000000E+00  0.93827000000E+00 0. -1.
     999902    2    1    2    0    0  0.11022157328E-01  0.19340445504E-01  0.18035707414E-02  0.10215963113E+01  0.10213521575E+01 0.  0.
     999903    2    3    3    0    0  0.11961962645E+00  0.81064907865E-03 -0.54041600018E-01  0.13297071703E+00  0.21241583561E-01 0.  0.
         14    1    1    2    0    0 -0.11022157328E-01 -0.19340445504E-01 -0.18035707414E-02  0.22333688721E-01  0.00000000000E+00 0.  1.
     999901    1    3    3    0    0 -0.10859746912E+00  0.18529796425E-01  0.55845170760E-01  0.88862559425E+00  0.88000000000E+00 0.  1.
        -11    1    4    4    0    0  0.31632803527E-01 -0.53310474651E-02 -0.63677620398E-02  0.32708773142E-01  0.51100000000E-03 0.  1.
         11    1    4    4    0    0  0.87986822920E-01  0.61416965438E-02 -0.47673837979E-01  0.10026194389E+00  0.51100000000E-03 0. -1.
</event>
<event>
 8    1  0.1103774E+005  0.1043930E+01  0.7957747E-01            NaN
         13   -1    0    0    0    0  0.00000000000E+00  0.00000000000E+00  0.74505805969E-08  0.10566000000E+00  0.10566000000E+00 0. -1.
     999900   -1    0    0    0    0 -0.00000000000E+00 -0.00000000000E+00 -0.74505805969E-08  0.93827000000E+00  0.93827000000E+00 0.  1.
     999902    2    1    2    0    0 -0.16931169604E-01  0.46944386881E-02 -0.16472234470E-01  0.10198460475E+01  0.10195616332E+01 0.  0.
     999903    2    3    3    0    0  0.98780516175E-01  0.51853664405E-01 -0.63304634167E-01  0.12978624028E+00  0.19763566766E-01 0.  0.
         14    1    1    2    0    0  0.16931169604E-01 -0.46944386881E-02  0.16472234470E-01  0.24083952483E-01  0.00000000000E+00 0. -1.
     999901    1    3    3    0    0 -0.11571168578E+00 -0.47159225717E-01  0.46832399697E-01  0.89005980724E+00  0.88000000000E+00 0. -1.
        -11    1    4    4    0    0  0.36780511873E-01  0.30280144586E-01 -0.25848904409E-01  0.54204429615E-01  0.51100000000E-03 0.  1.
         11    1    4    4    0    0  0.62000004302E-01  0.21573519819E-01 -0.37455729757E-01  0.75581810666E-01  0.51100000000E-03 0. -1.
</event>
<event>
 8    1  0.1103774E+005  0.1043930E+01  0.7957747E-01            NaN
         13   -1    0    0    0    0  0.00000000000E+00  0.00000000000E+00  0.74505805969E-08  0.10566000000E+00  0.10566000000E+00 0. -1.
     999900   -1    0    0    0    0 -0.00000000000E+00 -0.00000000000E+00 -0.74505805969E-08  0.93827000000E+00  0.93827000000E+00 0.  1.
     999902    2    1    2    0    0  0.94002684389E-02 -0.65554560326E-02  0.20065883052E-01  0.10208220206E+01  0.10205604436E+01 0.  0.
     999903    2    3    3    0    0  0.87089054935E-01  0.31341160487E-01  0.94126923324E-01  0.13349077533E+00  0.19827697167E-01 0.  0.
         14    1    1    2    0    0 -0.94002684389E-02  0.65554560326E-02 -0.20065883052E-01  0.23107979427E-01  0.00000000000E+00 0.  1.
     999901    1    3    3    0    0 -0.77688786496E-01 -0.37896616519E-01 -0.74061040272E-01  0.88733124524E+00  0.88000000000E+00 0.  1.
        -11    1    4    4    0    0  0.41640278864E-01  0.20209899045E-01  0.34696308022E-01  0.57848489649E-01  0.51100000000E-03 0.  1.
         11    1    4    4    0    0  0.45448776070E-01  0.11131261442E-01  0.59430615302E-01  0.75642285686E-01  0.51100000000E-03 0. -1.
</event>
<event>
 8    1  0.1103774E+005  0.1043930E+01  0.7957747E-01            NaN
         13   -1    0    0    0    0  0.00000000000E+00  0.00000000000E+00  0.74505805969E-08  0.10566000000E+00  0.10566000000E+00 0. -1.
     999900   -1    0    0    0    0 -0.00000000000E+00 -0.00000000000E+00 -0.74505805969E-08  0.93827000000E+00  0.93827000000E+00 0. -1.
     999902    2    1    2    0    0 -0.17502734505E-01  0.20314938636E-02 -0.15766687212E-01  0.10202855269E+01  0.10200115172E+01 0.  0.
     999903    2    3    3    0    0 -0.38913756053E-01 -0.47060224198E-01  0.11226924003E+00  0.12940864018E+00  0.20329013414E-01 0.  0.
         14    1    1    2    0    0  0.17502734505E-01 -0.20314938636E-02  0.15766687212E-01  0.23644473099E-01  0.00000000000E+00 0. -1.
     999901    1    3    3    0    0  0.21411021548E-01  0.49091718062E-01 -0.12803592724E+00  0.89087688672E+00  0.88000000000E+00 0.  1.
        -11    1    4    4    0    0 -0.33347979350E-01 -0.40051266093E-01  0.76738887925E-01  0.92764808431E-01  0.51100000000E-03 0. -1.
         11    1    4    4    0    0 -0.55657767025E-02 -0.70089581049E-02  0.35530352101E-01  0.36643831751E-01  0.51100000000E-03 0.  1.
</event>
<event>
 8    1  0.1103774E+005  0.1043930E+01  0.7957747E-01            NaN
         13   -1    0    0    0    0  0.00000000000E+00  0.00000000000E+00  0.74505805969E-08  0.10566000000E+00  0.10566000000E+00 0. -1.
     999900   -1    0    0    0    0 -0.00000000000E+00 -0.00000000000E+00 -0.74505805969E-08  0.93827000000E+00  0.93827000000E+00 0.  1.
     999902    2    1    2    0    0  0.37724751126E-02 -0.13961795124E-01  0.18899775892E-01  0.10201315795E+01  0.10198539477E+01 0.  0.
     999903    2    3    3    0    0 -0.27460969161E-01  0.57078468570E-01 -0.10784439140E+00  0.12767075060E+00  0.25638865010E-01 0.  0.
         14    1    1    2    0    0 -0.37724751126E-02  0.13961795124E-01 -0.18899775892E-01  0.23798420542E-01  0.00000000000E+00 0.  1.
     999901    1    3    3    0    0  0.31233444274E-01 -0.71040263694E-01  0.12674416730E+00  0.89246082886E+00  0.88000000000E+00 0. -1.
        -11    1    4    4    0    0 -0.19013186728E-01  0.34520149454E-01 -0.42192659100E-01  0.57737540568E-01  0.51100000000E-03 0. -1.
         11    1    4    4    0    0 -0.84477824326E-02  0.22558319116E-01 -0.65651732305E-01  0.69933210029E-01  0.51100000000E-03 0.  1.
</event>
<event>
 8    1  0.1103774E+005  0.1043930E+01  0.7957747E-01            NaN
         13   -1    0    0    0    0  0.00000000000E+00  0.00000000000E+00  0.74505805969E-08  0.10566000000E+00  0.10566000000E+00 0. -1.
     999900   -1    0    0    0    0 -0.00000000000E+00 -0.00000000000E+00 -0.74505805969E-08  0.93827000000E+00  0.93827000000E+00 0. -1.
     999902    2    1    2    0    0  0.16902539509E-01 -0.15426493812E-01 -0.74444530452E-02  0.10198656605E+01  0.10195817148E+01 0.  0.
     999903    2    3    3    0    0  0.18077535723E-01  0.12099204087E+00  0.33675428398E-01  0.12840492562E+00  0.19695664353E-01 0.  0.
         14    1    1    2    0    0 -0.16902539509E-01  0.15426493812E-01  0.74444530452E-02  0.24064339474E-01  0.00000000000E+00 0. -1.
     999901    1    3    3    0    0 -0.11749962138E-02 -0.13641853468E+00 -0.41119881444E-01  0.89146073490E+00  0.88000000000E+00 0. -1.
        -11    1    4    4    0    0  0.12445069852E-01  0.30515940746E-01  0.12953106992E-01  0.35413930945E-01  0.51100000000E-03 0.  1.
         11    1    4    4    0    0  0.56324658713E-02  0.90476100127E-01  0.20722321407E-01  0.92990994679E-01  0.51100000000E-03 0. -1.
</event>
<event>
 8    1  0.1103774E+005  0.1043930E+01  0.7957747E-01            NaN
         13   -1    0    0    0    0  0.00000000000E+00  0.00000000000E+00  0.74505805969E-08  0.10566000000E+00  0.10566000000E+00 0.  1.
     999900   -1    0    0    0    0 -0.00000000000E+00 -0.00000000000E+00 -0.74505805969E-08  0.93827000000E+00  0.93827000000E+00 0.  1.
     999902    2    1    2    0    0 -0.94264797832E-02 -0.25045599284E-01 -0.31551093048E-02  0.10169838448E+01  0.10166267975E+01 0.  0.
     999903    2    3    3    0    0  0.34196249636E-01  0.10251017023E+00 -0.59564457980E-01  0.12493259546E+00  0.19557869606E-01 0.  0.
         14    1    1    2    0    0  0.94264797832E-02  0.25045599284E-01  0.31551093048E-02  0.26946155186E-01  0.00000000000E+00 0.  1.
     999901    1    3    3    0    0 -0.43622729419E-01 -0.12755576952E+00  0.56409348676E-01  0.89205124936E+00  0.88000000000E+00 0. -1.
        -11    1    4    4    0    0 -0.14254773569E-02  0.12686813306E-01 -0.10617626049E-01  0.16612715656E-01  0.51100000000E-03 0.  1.
         11    1    4    4    0    0  0.35621726993E-01  0.89823356926E-01 -0.48946831931E-01  0.10831987980E+00  0.51100000000E-03 0. -1.
</event>
<event>
 8    1  0.1103774E+005  0.1043930E+01  0.7957747E-01            NaN
         13   -1    0    0    0    0  0.00000000000E+00  0.00000000000E+00  0.74505805969E-08  0.10566000000E+00  0.10566000000E+00 0. -1.
     999900   -1    0    0    0    0 -0.00000000000E+00 -0.00000000000E+00 -0.74505805969E-08  0.93827000000E+00  0.93827000000E+00 0. -1.
     999902    2    1    2    0    0 -0.11501372267E-01 -0.19762072839E-01  0.62257227385E-02  0.10202323058E+01  0.10199570467E+01 0.  0.
     999903    2    3    3    0    0 -0.11087185478E-01 -0.10410466485E+00  0.79712846874E-01  0.13315045963E+00  0.20351904560E-01 0.  0.
         14    1    1    2    0    0  0.11501372267E-01  0.19762072839E-01 -0.62257227385E-02  0.23697694202E-01  0.00000000000E+00 0. -1.
     999901    1    3    3    0    0 -0.41418678887E-03  0.84342592010E-01 -0.73487124135E-01  0.88708184616E+00  0.88000000000E+00 0.  1.
        -11    1    4    4    0    0  0.34466246952E-02 -0.53533041678E-02  0.80335243903E-02  0.10263319270E-01  0.51100000000E-03 0. -1.
         11    1    4    4    0    0 -0.14533810173E-01 -0.98751360681E-01  0.71679322483E-01  0.12288714037E+00  0.51100000000E-03 0.  1.
</event>
<event>
 8    1  0.1103774E+005  0.1043930E+01  0.7957747E-01            NaN
         13   -1    0    0    0    0  0.00000000000E+00  0.00000000000E+00  0.74505805969E-08  0.10566000000E+00  0.10566000000E+00 0.  1.
     999900   -1    0    0    0    0 -0.00000000000E+00 -0.00000000000E+00 -0.74505805969E-08  0.93827000000E+00  0.93827000000E+00 0.  1.
     999902    2    1    2    0    0  0.23251602046E-01 -0.16280663247E-02 -0.22105579568E-02  0.10205168805E+01  0.10202482684E+01 0.  0.
     999903    2    3    3    0    0  0.38910357300E-01  0.12145948924E+00 -0.25559005263E-01  0.13150569220E+00  0.19340654035E-01 0.  0.
         14    1    1    2    0    0 -0.23251602046E-01  0.16280663247E-02  0.22105579568E-02  0.23413119488E-01  0.00000000000E+00 0. -1.
     999901    1    3    3    0    0 -0.15658755254E-01 -0.12308755557E+00  0.23348447306E-01  0.88901118831E+00  0.88000000000E+00 0. -1.
        -11    1    4    4    0    0  0.23558105807E-01  0.49307056655E-01 -0.17054937986E-01  0.57247726731E-01  0.51100000000E-03 0.  1.
         11    1    4    4    0    0  0.15352251493E-01  0.72152432589E-01 -0.85040672770E-02  0.74257965470E-01  0.51100000000E-03 0. -1.
</event>
<event>
 7    1  0.1103774E+005  0.1043930E+01  0.7957747E-01            NaN
         13   -1    0    0    0    0  0.00000000000E+00  0.00000000000E+00  0.74505805969E-08  0.10566000000E+00  0.10566000000E+00 0.  1.
     999900   -1    0    0    0    0 -0.00000000000E+00 -0.00000000000E+00 -0.74505805969E-08  0.93827000000E+00  0.93827000000E+00 0. -1.
     999903    2    1    2    0    0  0.22071654411E-01 -0.92613796159E-01 -0.50294998103E-01  0.10951184032E+00  0.19969556073E-01 0.  0.
         14    1    1    2    0    0  0.12876326854E-01  0.35285830849E-02 -0.42341189364E-01  0.44396249939E-01  0.00000000000E+00 0.  1.
     999901    1    1    2    0    0 -0.34947981266E-01  0.89085213074E-01  0.92636187467E-01  0.89002190974E+00  0.88000000000E+00 0.  1.
        -11    1    3    3    0    0  0.14919115403E-01 -0.23835199201E-01 -0.14097277792E-01  0.31459356121E-01  0.51100000000E-03 0.  1.
         11    1    3    3    0    0  0.71525390079E-02 -0.68778596958E-01 -0.36197720311E-01  0.78052484204E-01  0.51100000000E-03 0. -1.
</event>
<event>
 8    1  0.1103774E+005  0.1043930E+01  0.7957747E-01            NaN
         13   -1    0    0    0    0  0.00000000000E+00  0.00000000000E+00  0.74505805969E-08  0.10566000000E+00  0.10566000000E+00 0.  1.
     999900   -1    0    0    0    0 -0.00000000000E+00 -0.00000000000E+00 -0.74505805969E-08  0.93827000000E+00  0.93827000000E+00 0.  1.
     999902    2    1    2    0    0 -0.20850531203E-01  0.11471919513E-01 -0.16876286885E-02  0.10200721359E+01  0.10197930990E+01 0.  0.
     999903    2    3    3    0    0 -0.90398168120E-01  0.50675815796E-01  0.79647482430E-01  0.13272258832E+00  0.23058553463E-01 0.  0.
         14    1    1    2    0    0  0.20850531203E-01 -0.11471919513E-01  0.16876286885E-02  0.23857864099E-01  0.00000000000E+00 0. -1.
     999901    1    3    3    0    0  0.69547636917E-01 -0.39203896283E-01 -0.81335111119E-01  0.88734954758E+00  0.88000000000E+00 0. -1.
        -11    1    4    4    0    0 -0.43030953954E-01  0.34598421908E-01  0.50490652340E-01  0.74821660576E-01  0.51100000000E-03 0. -1.
         11    1    4    4    0    0 -0.47367214166E-01  0.16077393889E-01  0.29156830090E-01  0.57900927747E-01  0.51100000000E-03 0.  1.
</event>
<event>
 8    1  0.1103774E+005  0.1043930E+01  0.7957747E-01            NaN
         13   -1    0    0    0    0  0.00000000000E+00  0.00000000000E+00  0.74505805969E-08  0.10566000000E+00  0.10566000000E+00 0.  1.
     999900   -1    0    0    0    0 -0.00000000000E+00 -0.00000000000E+00 -0.74505805969E-08  0.93827000000E+00  0.93827000000E+00 0.  1.
     999902    2    1    2    0    0  0.18731350028E-01 -0.15772752812E-01  0.52661362237E-03  0.10194367249E+01  0.10191424412E+01 0.  0.
     999903    2    3    3    0    0 -0.24692664678E-01  0.47415153156E-01  0.11537704818E+00  0.12866796765E+00  0.19638182563E-01 0.  0.
         14    1    1    2    0    0 -0.18731350028E-01  0.15772752812E-01 -0.52661362237E-03  0.24493275139E-01  0.00000000000E+00 0.  1.
     999901    1    3    3    0    0  0.43424014706E-01 -0.63187905967E-01 -0.11485043455E+00  0.89076875722E+00  0.88000000000E+00 0.  1.
        -11    1    4    4    0    0  0.48513650573E-03  0.18362281690E-01  0.41446727323E-01  0.45337634180E-01  0.51100000000E-03 0. -1.
         11    1    4    4    0    0 -0.25177801184E-01  0.29052871466E-01  0.73930320854E-01  0.83330333466E-01  0.51100000000E-03 0.  1.
</event>
<event>
 8    1  0.1103774E+005  0.1043930E+01  0.7957747E-01            NaN
         13   -1    0    0    0    0  0.00000000000E+00  0.00000000000E+00  0.74505805969E-08  0.10566000000E+00  0.10566000000E+00 0.  1.
     999900   -1    0    0    0    0 -0.00000000000E+00 -0.00000000000E+00 -0.74505805969E-08  0.93827000000E+00  0.93827000000E+00 0.  1.
     999902    2    1    2    0    0  0.80542450077E-02 -0.20462850698E-01  0.59806550049E-02  0.10211403674E+01  0.10208860282E+01 0.  0.
     999903    2    3    3    0    0  0.12111858628E+00 -0.50929966925E-01  0.92661764893E-02  0.13337768225E+00  0.20980243563E-01 0.  0.
         14    1    1    2    0    0 -0.80542450077E-02  0.20462850698E-01 -0.59806550049E-02  0.22789632635E-01  0.00000000000E+00 0. -1.
     999901    1    3    3    0    0 -0.11306434128E+00  0.30467116226E-01 -0.32855214845E-02  0.88776268512E+00  0.88000000000E+00 0.  1.
        -11    1    4    4    0    0  0.19908675106E-01 -0.16973927206E-01 -0.53908074869E-03  0.26172911155E-01  0.51100000000E-03 0.  1.
         11    1    4    4    0    0  0.10120991118E+00 -0.33956039719E-01  0.98052572380E-02  0.10720477109E+00  0.51100000000E-03 0. -1.
</event>
<event>
 8    1  0.1103774E+005  0.1043930E+01  0.7957747E-01            NaN
         13   -1    0    0    0    0  0.00000000000E+00  0.00000000000E+00  0.74505805969E-08  0.10566000000E+00  0.10566000000E+00 0. -1.
     999900   -1    0    0    0    0 -0.00000000000E+00 -0.00000000000E+00 -0.74505805969E-08  0.93827000000E+00  0.93827000000E+00 0. -1.
     999902    2    1    2    0    0 -0.74933478552E-02  0.11513998817E-01 -0.19207230855E-01  0.10203155945E+01  0.10200422894E+01 0.  0.
     999903    2    3    3    0    0 -0.27626149897E-01 -0.71898276679E-01  0.10042421071E+00  0.12808545644E+00  0.19705220271E-01 0.  0.
         14    1    1    2    0    0  0.74933478552E-02 -0.11513998817E-01  0.19207230855E-01  0.23614405518E-01  0.00000000000E+00 0. -1.
     999901    1    3    3    0    0  0.20132802042E-01  0.83412275495E-01 -0.11963144157E+00  0.89223013804E+00  0.88000000000E+00 0. -1.
        -11    1    4    4    0    0 -0.70865473528E-02 -0.36091006722E-02  0.74289698059E-02  0.10894745266E-01  0.51100000000E-03 0.  1.
         11    1    4    4    0    0 -0.20539602544E-01 -0.68289176007E-01  0.92995240909E-01  0.11719071117E+00  0.51100000000E-03 0. -1.
</event>
<event>
 8    1  0.1103774E+005  0.1043930E+01  0.7957747E-01            NaN
         13   -1    0    0    0    0  0.00000000000E+00  0.00000000000E+00  0.74505805969E-08  0.10566000000E+00  0.10566000000E+00 0. -1.
     999900   -1    0    0    0    0 -0.00000000000E+00 -0.00000000000E+00 -0.74505805969E-08  0.93827000000E+00  0.93827000000E+00 0. -1.
     999902    2    1    2    0    0  0.16133732050E-01  0.41193909837E-03  0.17426969523E-01  0.10201778155E+01  0.10199012741E+01 0.  0.
     999903    2    3    3    0    0 -0.74447909434E-01 -0.19802939116E-01  0.10470301827E+00  0.13100360094E+00  0.16265724946E-01 0.  0.
         14    1    1    2    0    0 -0.16133732050E-01 -0.41193909837E-03 -0.17426969523E-01  0.23752184541E-01  0.00000000000E+00 0.  1.
     999901    1    3    3    0    0  0.90581641484E-01  0.20214878215E-01 -0.87276048749E-01  0.88917421452E+00  0.88000000000E+00 0. -1.
        -11    1    4    4    0    0 -0.22841221318E-01 -0.13227659185E-01  0.40859679868E-01  0.48646345379E-01  0.51100000000E-03 0. -1.
         11    1    4    4    0    0 -0.51606688117E-01 -0.65752799316E-02  0.63843338404E-01  0.82357255564E-01  0.51100000000E-03 0.  1.
</event>
<event>
 8    1  0.1103774E+005  0.1043930E+01  0.7957747E-01            NaN
         13   -1    0    0    0    0  0.00000000000E+00  0.00000000000E+00  0.74505805969E-08  0.10566000000E+00  0.10566000000E+00 0.  1.
     999900   -1    0    0    0    0 -0.00000000000E+00 -0.00000000000E+00 -0.74505805969E-08  0.93827000000E+00  0.93827000000E+00 0. -1.
     999902    2    1    2    0    0  0.91496441103E-02  0.21032836527E-01  0.11782458261E-01  0.10181439084E+01  0.10178173194E+01 0.  0.
     999903    2    3    3    0    0 -0.21990618042E-01 -0.12101938683E+00 -0.15680151124E-01  0.12578593926E+00  0.21141336419E-01 0.  0.
         14    1    1    2    0    0 -0.91496441103E-02 -0.21032836527E-01 -0.11782458261E-01  0.25786091646E-01  0.00000000000E+00 0. -1.
     999901    1    3    3    0    0  0.31140262152E-01  0.14205222336E+00  0.27462609385E-01  0.89235796909E+00  0.88000000000E+00 0.  1.
        -11    1    4    4    0    0 -0.22755419140E-01 -0.10680603848E+00 -0.19743035532E-01  0.11097471572E+00  0.51100000000E-03 0. -1.
         11    1    4    4    0    0  0.76480109843E-03 -0.14213348355E-01  0.40628844081E-02  0.14811223544E-01  0.51100000000E-03 0.  1.
</event>
<event>
 8    1  0.1103774E+005  0.1043930E+01  0.7957747E-01            NaN
         13   -1    0    0    0    0  0.00000000000E+00  0.00000000000E+00  0.74505805969E-08  0.10566000000E+00  0.10566000000E+00 0. -1.
     999900   -1    0    0    0    0 -0.00000000000E+00 -0.00000000000E+00 -0.74505805969E-08  0.93827000000E+00  0.93827000000E+00 0.  1.
     999902    2    1    2    0    0 -0.10253339007E-01  0.99469897865E-04 -0.21648078751E-01  0.10199762911E+01  0.10196949810E+01 0.  0.
     999903    2    3    3    0    0  0.99074864614E-01 -0.20758287919E-01  0.75327941229E-01  0.12768034772E+00  0.19525295115E-01 0.  0.
         14    1    1    2    0    0  0.10253339007E-01 -0.99469897865E-04  0.21648078751E-01  0.23953708871E-01  0.00000000000E+00 0. -1.
     999901    1    3    3    0    0 -0.10932820362E+00  0.20857757817E-01 -0.96976019980E-01  0.89229594341E+00  0.88000000000E+00 0.  1.
        -11    1    4    4    0    0  0.65773017381E-01 -0.49122224607E-02  0.52529018951E-01  0.84319503662E-01  0.51100000000E-03 0.  1.
         11    1    4    4    0    0  0.33301847233E-01 -0.15846065458E-01  0.22798922278E-01  0.43360844061E-01  0.51100000000E-03 0. -1.
</event>
<event>
 8    1  0.1103774E+005  0.1043930E+01  0.7957747E-01            NaN
         13   -1    0    0    0    0  0.00000000000E+00  0.00000000000E+00  0.74505805969E-08  0.10566000000E+00  0.10566000000E+00 0.  1.
     999900   -1    0    0    0    0 -0.00000000000E+00 -0.00000000000E+00 -0.74505805969E-08  0.93827000000E+00  0.93827000000E+00 0. -1.
     999902    2    1    2    0    0  0.20931493443E-01  0.19946302694E-02  0.15770966364E-01  0.10176463673E+01  0.10173068856E+01 0.  0.
     999903    2    3    3    0    0 -0.71294061766E-01 -0.22892161163E-01 -0.98228185258E-01  0.12516627677E+00  0.20271314128E-01 0.  0.
         14    1    1    2    0    0 -0.20931493443E-01 -0.19946302694E-02 -0.15770966364E-01  0.26283632696E-01  0.00000000000E+00 0. -1.
     999901    1    3    3    0    0  0.92225555209E-01  0.24886791433E-01  0.11399915162E+00  0.89248009053E+00  0.88000000000E+00 0. -1.
        -11    1    4    4    0    0 -0.31317568275E-01 -0.88380408449E-02 -0.27008852606E-01  0.42292319500E-01  0.51100000000E-03 0. -1.
         11    1    4    4    0    0 -0.39976493492E-01 -0.14054120318E-01 -0.71219332652E-01  0.82873957274E-01  0.51100000000E-03 0.  1.
</event>
<event>
 8    1  0.1103774E+005  0.1043930E+01  0.7957747E-01            NaN
         13   -1    0    0    0    0  0.00000000000E+00  0.00000000000E+00  0.74505805969E-08  0.10566000000E+00  0.10566000000E+00 0. -1.
     999900   -1    0    0    0    0 -0.00000000000E+00 -0.00000000000E+00 -0.74505805969E-08  0.93827000000E+00  0.93827000000E+00 0. -1.
     999902    2    1    2    0    0 -0.13515796083E-01 -0.19517131684E-01  0.75701743884E-02  0.10190120805E+01  0.10187073758E+01 0.  0.
     999903    2    3    3    0    0 -0.25913492830E-01 -0.61469876694E-02  0.12650554633E+00  0.13082398873E+00  0.20049144746E-01 0.  0.
         14    1    1    2    0    0  0.13515796083E-01  0.19517131684E-01 -0.75701743884E-02  0.24917919520E-01  0.00000000000E+00 0.  1.
     999901    1    3    3    0    0  0.12397696747E-01 -0.13370144015E-01 -0.11893537194E+00  0.88818809175E+00  0.88000000000E+00 0. -1.
        -11    1    4    4    0    0 -0.45629325898E-02 -0.94637598263E-02  0.59392014738E-01  0.60316296633E-01  0.51100000000E-03 0. -1.
         11    1    4    4    0    0 -0.21350560240E-01  0.33167721569E-02  0.67113531594E-01  0.70507692092E-01  0.51100000000E-03 0.  1.
</event>
<event>
 8    1  0.1103774E+005  0.1043930E+01  0.7957747E-01            NaN
         13   -1    0    0    0    0  0.00000000000E+00  0.00000000000E+00  0.74505805969E-08  0.10566000000E+00  0.10566000000E+00 0.  1.
     999900   -1    0    0    0    0 -0.00000000000E+00 -0.00000000000E+00 -0.74505805969E-08  0.93827000000E+00  0.93827000000E+00 0.  1.
     999902    2    1    2    0    0 -0.22684411813E-01  0.42092198781E-02 -0.84354853099E-02  0.10193646284E+01  0.10190685885E+01 0.  0.
     999903    2    3    3    0    0 -0.94611404934E-01 -0.88810154924E-01  0.86063507294E-02  0.13138010113E+00  0.18657441922E-01 0.  0.
         14    1    1    2    0    0  0.22684411813E-01 -0.42092198781E-02  0.84354853099E-02  0.24565371637E-01  0.00000000000E+00 0.  1.
     999901    1    3    3    0    0  0.71926993121E-01  0.93019374802E-01 -0.17041836039E-01  0.88798452723E+00  0.88000000000E+00 0. -1.
        -11    1    4    4    0    0 -0.35387425008E-01 -0.21626915386E-01  0.87545637071E-03  0.41485188474E-01  0.51100000000E-03 0. -1.
         11    1    4    4    0    0 -0.59223979925E-01 -0.67183239538E-01  0.77308943587E-02  0.89894912657E-01  0.51100000000E-03 0.  1.
</event>
<event>
 8    1  0.1103774E+005  0.1043930E+01  0.7957747E-01            NaN
         13   -1    0    0    0    0  0.00000000000E+00  0.00000000000E+00  0.74505805969E-08  0.10566000000E+00  0.10566000000E+00 0.  1.
     999900   -1    0    0    0    0 -0.00000000000E+00 -0.00000000000E+00 -0.74505805969E-08  0.93827000000E+00  0.93827000000E+00 0. -1.
     999902    2    1    2    0    0  0.21023707879E-01 -0.10069976113E-01 -0.51592480414E-02  0.10200549387E+01  0.10197754946E+01 0.  0.
     999903    2    3    3    0    0  0.80188786190E-01  0.26746713566E-01  0.98368580895E-01  0.13125013083E+00  0.20114447969E-01 0.  0.
         14    1    1    2    0    0 -0.21023707879E-01  0.10069976113E-01  0.51592480414E-02  0.23875061303E-01  0.00000000000E+00 0.  1.
     999901    1    3    3    0    0 -0.59165078312E-01 -0.36816689679E-01 -0.10352782894E+00  0.88880480787E+00  0.88000000000E+00 0. -1.
        -11    1    4    4    0    0  0.53202633693E-01  0.19228341161E-01  0.79086632184E-01  0.97237882776E-01  0.51100000000E-03 0. -1.
         11    1    4    4    0    0  0.26986152498E-01  0.75183724046E-02  0.19281948712E-01  0.34012248049E-01  0.51100000000E-03 0.  1.
</event>
<event>
 8    1  0.1103774E+005  0.1043930E+01  0.7957747E-01            NaN
         13   -1    0    0    0    0  0.00000000000E+00  0.00000000000E+00  0.74505805969E-08  0.10566000000E+00  0.10566000000E+00 0. -1.
     999900   -1    0    0    0    0 -0.00000000000E+00 -0.00000000000E+00 -0.74505805969E-08  0.93827000000E+00  0.93827000000E+00 0.  1.
     999902    2    1    2    0    0  0.83277850706E-02  0.21718646212E-01  0.70056032273E-02  0.10196374070E+01  0.10193479836E+01 0.  0.
     999903    2    3    3    0    0 -0.28084941100E-01 -0.82069073824E-01  0.92883412306E-01  0.12864202232E+00  0.19933510209E-01 0.  0.
         14    1    1    2    0    0 -0.83277850706E-02 -0.21718646212E-01 -0.70056032273E-02  0.24292592987E-01  0.00000000000E+00 0. -1.
     999901    1    3    3    0    0  0.36412726170E-01  0.10378772004E+00 -0.85877809078E-01  0.89099538470E+00  0.88000000000E+00 0.  1.
        -11    1    4    4    0    0 -0.19007841394E-01 -0.48822461880E-01  0.69305887704E-01  0.86882092573E-01  0.51100000000E-03 0.  1.
         11    1    4    4    0    0 -0.90770997055E-02 -0.33246611944E-01  0.23577524602E-01  0.41759929744E-01  0.51100000000E-03 0. -1.
</event>
<event>
 8    1  0.1103774E+005  0.1043930E+01  0.7957747E-01            NaN
         13   -1    0    0    0    0  0.00000000000E+00  0.00000000000E+00  0.74505805969E-08  0.10566000000E+00  0.10566000000E+00 0.  1.
     999900   -1    0    0    0    0 -0.00000000000E+00 -0.00000000000E+00 -0.74505805969E-08  0.93827000000E+00  0.93827000000E+00 0.  1.
     999902    2    1    2    0    0  0.10236637174E-01  0.12599716495E-01 -0.16284974866E-01  0.10209356093E+01  0.10206766267E+01 0.  0.
     999903    2    3    3    0    0  0.23317615394E-01 -0.10050910182E+00  0.74939503918E-01  0.12892292875E+00  0.18957889455E-01 0.  0.
         14    1    1    2    0    0 -0.10236637174E-01 -0.12599716495E-01  0.16284974866E-01  0.22994390681E-01  0.00000000000E+00 0.  1.
     999901    1    3    3    0    0 -0.13080978220E-01  0.11310881832E+00 -0.91224478784E-01  0.89201268057E+00  0.88000000000E+00 0.  1.
        -11    1    4    4    0    0  0.10329297983E-01 -0.50457059588E-01  0.48912047676E-01  0.71029985133E-01  0.51100000000E-03 0.  1.
         11    1    4    4    0    0  0.12988317411E-01 -0.50052042233E-01  0.26027456242E-01  0.57892943614E-01  0.51100000000E-03 0. -1.
</event>
<event>
 8    1  0.1103774E+005  0.1043930E+01  0.7957747E-01            NaN
         13   -1    0    0    0    0  0.00000000000E+00  0.00000000000E+00  0.74505805969E-08  0.10566000000E+00  0.10566000000E+00 0.  1.
     999900   -1    0    0    0    0 -0.00000000000E+00 -0.00000000000E+00 -0.74505805969E-08  0.93827000000E+00  0.93827000000E+00 0. -1.
     999902    2    1    2    0    0  0.17706118545E-01  0.11949228639E-01 -0.13925936467E-01  0.10184305411E+01  0.10181112634E+01 0.  0.
     999903    2    3    3    0    0 -0.10175941219E+00  0.54725424288E-01  0.49669888763E-01  0.12705730559E+00  0.18072382840E-01 0.  0.
         14    1    1    2    0    0 -0.17706118545E-01 -0.11949228639E-01  0.13925936467E-01  0.25499458925E-01  0.00000000000E+00 0. -1.
     999901    1    3    3    0    0  0.11946553074E+00 -0.42776195649E-01 -0.63595825230E-01  0.89137323548E+00  0.88000000000E+00 0. -1.
        -11    1    4    4    0    0 -0.10069318239E-01  0.41887805492E-02  0.10860260103E-01  0.15399461769E-01  0.51100000000E-03 0. -1.
         11    1    4    4    0    0 -0.91690093952E-01  0.50536643739E-01  0.38809628661E-01  0.11165784382E+00  0.51100000000E-03 0.  1.
</event>
<event>
 8    1  0.1103774E+005  0.1043930E+01  0.7957747E-01            NaN
         13   -1    0    0    0    0  0.00000000000E+00  0.00000000000E+00  0.74505805969E-08  0.10566000000E+00  0.10566000000E+00 0.  1.
     999900   -1    0    0    0    0 -0.00000000000E+00 -0.00000000000E+00 -0.74505805969E-08  0.93827000000E+00  0.93827000000E+00 0. -1.
     999902    2    1    2    0    0  0.10707257374E-01 -0.15566584950E-01 -0.13469234587E-01  0.10207268923E+01  0.10204631323E+01 0.  0.
     999903    2    3    3    0    0  0.68949785683E-01 -0.36457621220E-02  0.10816207227E+00  0.13037388761E+00  0.23042399298E-01 0.  0.
         14    1    1    2    0    0 -0.10707257374E-01  0.15566584950E-01  0.13469234587E-01  0.23203107719E-01  0.00000000000E+00 0.  1.
     999901    1    3    3    0    0 -0.58242528310E-01 -0.11920822828E-01 -0.12163130686E+00  0.89035300467E+00  0.88000000000E+00 0. -1.
        -11    1    4    4    0    0  0.13239717182E-01  0.30932304331E-02  0.39018492462E-01  0.41322657956E-01  0.51100000000E-03 0. -1.
         11    1    4    4    0    0  0.55710068501E-01 -0.67389925551E-02  0.69143579808E-01  0.89051229653E-01  0.51100000000E-03 0.  1.
</event>
<event>
 8    1  0.1103774E+005  0.1043930E+01  0.7957747E-01            NaN
         13   -1    0    0    0    0  0.00000000000E+00  0.00000000000E+00  0.74505805969E-08  0.10566000000E+00  0.10566000000E+00 0. -1.
     999900   -1    0    0    0    0 -0.00000000000E+00 -0.00000000000E+00 -0.74505805969E-08  0.93827000000E+00  0.93827000000E+00 0. -1.
     999902    2    1    2    0    0  0.10120279987E-01 -0.14693021840E-01 -0.15168158871E-01  0.10205125279E+01  0.10202438147E+01 0.  0.
     999903    2    3    3    0    0  0.10158628361E+00  0.67938468988E-01  0.39550884969E-01  0.13023831906E+00  0.21502061881E-01 0.  0.
         14    1    1    2    0    0 -0.10120279987E-01  0.14693021840E-01  0.15168158871E-01  0.23417472138E-01  0.00000000000E+00 0. -1.
     999901    1    3    3    0    0 -0.91466003619E-01 -0.82631490828E-01 -0.54719043839E-01  0.89027420880E+00  0.88000000000E+00 0. -1.
        -11    1    4    4    0    0  0.40076037604E-01  0.14677600229E-01  0.12062867242E-01  0.44354195130E-01  0.51100000000E-03 0.  1.
         11    1    4    4    0    0  0.61510246003E-01  0.53260868758E-01  0.27488017727E-01  0.85884123933E-01  0.51100000000E-03 0. -1.
</event>
<event>
 8    1  0.1103774E+005  0.1043930E+01  0.7957747E-01            NaN
         13   -1    0    0    0    0  0.00000000000E+00  0.00000000000E+00  0.74505805969E-08  0.10566000000E+00  0.10566000000E+00 0.  1.
     999900   -1    0    0    0    0 -0.00000000000E+00 -0.00000000000E+00 -0.74505805969E-08  0.93827000000E+00  0.93827000000E+00 0.  1.
     999902    2    1    2    0    0  0.15709028546E-01 -0.17238569366E-01  0.17067835945E-02  0.10205450698E+01  0.10202771116E+01 0.  0.
     999903    2    3    3    0    0 -0.12142079398E+00 -0.74346048075E-03  0.40302044030E-01  0.12893625926E+00  0.16023178704E-01 0.  0.
         14    1    1    2    0    0 -0.15709028546E-01  0.17238569366E-01 -0.17067835945E-02  0.23384930231E-01  0.00000000000E+00 0. -1.
     999901    1    3    3    0    0  0.13712982253E+00 -0.16495108885E-01 -0.38595260436E-01  0.89160881051E+00  0.88000000000E+00 0. -1.
        -11    1    4    4    0    0 -0.77556899169E-01 -0.81066549647E-02  0.24721858834E-01  0.81806001544E-01  0.51100000000E-03 0.  1.
         11    1    4    4    0    0 -0.43863894811E-01  0.73631944839E-02  0.15580185196E-01  0.47130257720E-01  0.51100000000E-03 0. -1.
</event>
<event>
 8    1  0.1103774E+005  0.1043930E+01  0.7957747E-01            NaN
         13   -1    0    0    0    0  0.00000000000E+00  0.00000000000E+00  0.74505805969E-08  0.10566000000E+00  0.10566000000E+00 0. -1.
     999900   -1    0    0    0    0 -0.00000000000E+00 -0.00000000000E+00 -0.74505805969E-08  0.93827000000E+00  0.93827000000E+00 0. -1.
     999902    2    1    2    0    0  0.14577786573E-01  0.17142876533E-01  0.58044196053E-02  0.10206903493E+01  0.10204257483E+01 0.  0.
     999903    2    3    3    0    0 -0.45996951370E-01  0.65771143751E-01 -0.10091405593E+00  0.13084607065E+00  0.22259484130E-01 0.  0.
         14    1    1    2    0    0 -0.14577786573E-01 -0.17142876533E-01 -0.58044196053E-02  0.23239650689E-01  0.00000000000E+00 0. -1.
     999901    1    3    3    0    0  0.60574737943E-01 -0.48628267218E-01  0.10671847554E+00  0.88984427866E+00  0.88000000000E+00 0.  1.
        -11    1    4    4    0    0 -0.44737666187E-01  0.49988566030E-01 -0.76566308845E-01  0.10179870471E+00  0.51100000000E-03 0. -1.
         11    1    4    4    0    0 -0.12592851830E-02  0.15782577721E-01 -0.24347747087E-01  0.29047365937E-01  0.51100000000E-03 0.  1.
</event>
<event>
 8    1  0.1103774E+005  0.1043930E+01  0.7957747E-01            NaN
         13   -1    0    0    0    0  0.00000000000E+00  0.00000000000E+00  0.74505805969E-08  0.10566000000E+00  0.10566000000E+00 0.  1.
     999900   -1    0    0    0    0 -0.00000000000E+00 -0.00000000000E+00 -0.74505805969E-08  0.93827000000E+00  0.93827000000E+00 0. -1.
     999902    2    1    2    0    0 -0.14261342657E-01 -0.13521871403E-01 -0.14973839362E-01  0.10192228600E+01  0.10189233512E+01 0.  0.
     999903    2    3    3    0    0 -0.71819382560E-01 -0.10909655379E+00 -0.39074660814E-02  0.13210961331E+00  0.19431929355E-01 0.  0.
         14    1    1    2    0    0  0.14261342657E-01  0.13521871403E-01  0.14973839362E-01  0.24707139977E-01  0.00000000000E+00 0.  1.
     999901    1    3    3    0    0  0.57558039903E-01  0.95574682387E-01 -0.11066373280E-01  0.88711324671E+00  0.88000000000E+00 0.  1.
        -11    1    4    4    0    0 -0.22756007962E-01 -0.38304629481E-01  0.76337844892E-02  0.45206374823E-01  0.51100000000E-03 0. -1.
         11    1    4    4    0    0 -0.49063374598E-01 -0.70791924309E-01 -0.11541250571E-01  0.86903238490E-01  0.51100000000E-03 0.  1.
</event>
<event>
 8    1  0.1103774E+005  0.1043930E+01  0.7957747E-01            NaN
         13   -1    0    0    0    0  0.00000000000E+00  0.00000000000E+00  0.74505805969E-08  0.10566000000E+00  0.10566000000E+00 0. -1.
     999900   -1    0    0    0    0 -0.00000000000E+00 -0.00000000000E+00 -0.74505805969E-08  0.93827000000E+00  0.93827000000E+00 0.  1.
     999902    2    1    2    0    0  0.11306767587E-01  0.41896789868E-02  0.20314340732E-01  0.10203065193E+01  0.10200330016E+01 0.  0.
     999903    2    3    3    0    0 -0.11741901485E+00  0.42200259967E-01  0.30383487129E-01  0.13007255054E+00  0.20679098750E-01 0.  0.
         14    1    1    2    0    0 -0.11306767587E-01 -0.41896789868E-02 -0.20314340732E-01  0.23623480748E-01  0.00000000000E+00 0.  1.
     999901    1    3    3    0    0  0.12872578244E+00 -0.38010580981E-01 -0.10069146397E-01  0.89023396871E+00  0.88000000000E+00 0.  1.
        -11    1    4    4    0    0 -0.63911191035E-01  0.12405882387E-01  0.12798189978E-01  0.66352099025E-01  0.51100000000E-03 0.  1.
         11    1    4    4    0    0 -0.53507823816E-01  0.29794377581E-01  0.17585297151E-01  0.63720451520E-01  0.51100000000E-03 0. -1.
</event>
<event>
 8    1  0.1103774E+005  0.1043930E+01  0.7957747E-01            NaN
         13   -1    0    0    0    0  0.00000000000E+00  0.00000000000E+00  0.74505805969E-08  0.10566000000E+00  0.10566000000E+00 0.  1.
     999900   -1    0    0    0    0 -0.00000000000E+00 -0.00000000000E+00 -0.74505805969E-08  0.93827000000E+00  0.93827000000E+00 0. -1.
     999902    2    1    2    0    0 -0.19394525025E-01 -0.97674191662E-02 -0.91700012723E-02  0.10203580039E+01  0.10200856910E+01 0.  0.
     999903    2    3    3    0    0 -0.12028515157E-01 -0.12979461641E+00  0.60498439627E-02  0.13204925694E+00  0.20225677296E-01 0.  0.
         14    1    1    2    0    0  0.19394525025E-01  0.97674191662E-02  0.91700012723E-02  0.23571996128E-01  0.00000000000E+00 0.  1.
     999901    1    3    3    0    0 -0.73660098686E-02  0.12002719724E+00 -0.15219845235E-01  0.88830874693E+00  0.88000000000E+00 0. -1.
        -11    1    4    4    0    0 -0.12109503215E-01 -0.62124228683E-01  0.10800395478E-01  0.64210353691E-01  0.51100000000E-03 0.  1.
         11    1    4    4    0    0  0.80988058507E-04 -0.67670387725E-01 -0.47505515158E-02  0.67838903254E-01  0.51100000000E-03 0. -1.
</event>
<event>
 8    1  0.1103774E+005  0.1043930E+01  0.7957747E-01            NaN
         13   -1    0    0    0    0  0.00000000000E+00  0.00000000000E+00  0.74505805969E-08  0.10566000000E+00  0.10566000000E+00 0.  1.
     999900   -1    0    0    0    0 -0.00000000000E+00 -0.00000000000E+00 -0.74505805969E-08  0.93827000000E+00  0.93827000000E+00 0. -1.
     999902    2    1    2    0    0  0.18701213651E-01  0.13506879038E-01 -0.28669375884E-02  0.10206836991E+01  0.10204189449E+01 0.  0.
     999903    2    3    3    0    0 -0.57528939199E-01  0.80189656316E-01 -0.84057040351E-01  0.13116165792E+00  0.19945792830E-01 0.  0.
         14    1    1    2    0    0 -0.18701213651E-01 -0.13506879038E-01  0.28669375884E-02  0.23246300878E-01  0.00000000000E+00 0.  1.
     999901    1    3    3    0    0  0.76230152851E-01 -0.66682777278E-01  0.81190102763E-01  0.88952204120E+00  0.88000000000E+00 0.  1.
        -11    1    4    4    0    0 -0.10266911394E-01  0.29155757900E-01 -0.21994925841E-01  0.37940816703E-01  0.51100000000E-03 0.  1.
         11    1    4    4    0    0 -0.47262027805E-01  0.51033898415E-01 -0.62062114510E-01  0.93220841222E-01  0.51100000000E-03 0. -1.
</event>
<event>
 8    1  0.1103774E+005  0.1043930E+01  0.7957747E-01            NaN
         13   -1    0    0    0    0  0.00000000000E+00  0.00000000000E+00  0.74505805969E-08  0.10566000000E+00  0.10566000000E+00 0.  1.
     999900   -1    0    0    0    0 -0.00000000000E+00 -0.00000000000E+00 -0.74505805969E-08  0.93827000000E+00  0.93827000000E+00 0.  1.
     999902    2    1    2    0    0 -0.72606898248E-02  0.37378058365E-02 -0.22490104323E-01  0.10200031615E+01  0.10197224896E+01 0.  0.
     999903    2    3    3    0    0 -0.94365875956E-01 -0.21163701769E-01  0.83085805160E-01  0.12907461710E+00  0.20104351314E-01 0.  0.
         14    1    1    2    0    0  0.72606898248E-02 -0.37378058365E-02  0.22490104323E-01  0.23926838522E-01  0.00000000000E+00 0.  1.
     999901    1    3    3    0    0  0.87105186131E-01  0.24901507606E-01 -0.10557590948E+00  0.89092854438E+00  0.88000000000E+00 0.  1.
        -11    1    4    4    0    0 -0.69279803882E-01 -0.83902288565E-02  0.66494166290E-01  0.96394099600E-01  0.51100000000E-03 0.  1.
         11    1    4    4    0    0 -0.25086072074E-01 -0.12773472913E-01  0.16591638871E-01  0.32680517495E-01  0.51100000000E-03 0. -1.
</event>
<event>
 8    1  0.1103774E+005  0.1043930E+01  0.7957747E-01            NaN
         13   -1    0    0    0    0  0.00000000000E+00  0.00000000000E+00  0.74505805969E-08  0.10566000000E+00  0.10566000000E+00 0.  1.
     999900   -1    0    0    0    0 -0.00000000000E+00 -0.00000000000E+00 -0.74505805969E-08  0.93827000000E+00  0.93827000000E+00 0.  1.
     999902    2    1    2    0    0  0.17573537244E-02  0.23828383182E-01  0.21058002791E-02  0.10199442848E+01  0.10196622135E+01 0.  0.
     999903    2    3    3    0    0 -0.66137578688E-01 -0.21022996388E-01  0.10775044266E+00  0.12989812954E+00  0.21147587877E-01 0.  0.
         14    1    1    2    0    0 -0.17573537244E-02 -0.23828383182E-01 -0.21058002791E-02  0.23985715165E-01  0.00000000000E+00 0. -1.
     999901    1    3    3    0    0  0.67894932413E-01  0.44851379570E-01 -0.10564464238E+00  0.89004615530E+00  0.88000000000E+00 0.  1.
        -11    1    4    4    0    0 -0.31514806828E-01 -0.91613366856E-02  0.32362348104E-01  0.46094423037E-01  0.51100000000E-03 0. -1.
         11    1    4    4    0    0 -0.34622771860E-01 -0.11861659702E-01  0.75388094552E-01  0.83803706501E-01  0.51100000000E-03 0.  1.
</event>
<event>
 8    1  0.1103774E+005  0.1043930E+01  0.7957747E-01            NaN
         13   -1    0    0    0    0  0.00000000000E+00  0.00000000000E+00  0.74505805969E-08  0.10566000000E+00  0.10566000000E+00 0.  1.
     999900   -1    0    0    0    0 -0.00000000000E+00 -0.00000000000E+00 -0.74505805969E-08  0.93827000000E+00  0.93827000000E+00 0. -1.
     999902    2    1    2    0    0  0.62418719829E-02  0.20089494310E-01  0.11527103644E-01  0.10199420266E+01  0.10196599016E+01 0.  0.
     999903    2    3    3    0    0 -0.20429132422E-02  0.83368554599E-01  0.10169774009E+00  0.13303525543E+00  0.20036453231E-01 0.  0.
         14    1    1    2    0    0 -0.62418719829E-02 -0.20089494310E-01 -0.11527103644E-01  0.23987973359E-01  0.00000000000E+00 0.  1.
     999901    1    3    3    0    0  0.82847852251E-02 -0.63279060289E-01 -0.90170636447E-01  0.88690677121E+00  0.88000000000E+00 0. -1.
        -11    1    4    4    0    0 -0.93624530326E-02  0.21809072712E-01  0.29811672695E-01  0.38108898295E-01  0.51100000000E-03 0.  1.
         11    1    4    4    0    0  0.73195397904E-02  0.61559481886E-01  0.71886067396E-01  0.94926357138E-01  0.51100000000E-03 0. -1.
</event>
<event>
 8    1  0.1103774E+005  0.1043930E+01  0.7957747E-01            NaN
         13   -1    0    0    0    0  0.00000000000E+00  0.00000000000E+00  0.74505805969E-08  0.10566000000E+00  0.10566000000E+00 0. -1.
     999900   -1    0    0    0    0 -0.00000000000E+00 -0.00000000000E+00 -0.74505805969E-08  0.93827000000E+00  0.93827000000E+00 0.  1.
     999902    2    1    2    0    0  0.87587269496E-02  0.17811194412E-01 -0.79814625095E-02  0.10225370645E+01  0.10223132547E+01 0.  0.
     999903    2    3    3    0    0 -0.90106421199E-01  0.94424447946E-01 -0.20617309515E-01  0.13360311155E+00  0.19737640511E-01 0.  0.
         14    1    1    2    0    0 -0.87587269496E-02 -0.17811194412E-01  0.79814625095E-02  0.21392935468E-01  0.00000000000E+00 0. -1.
     999901    1    3    3    0    0  0.98865148148E-01 -0.76613253534E-01  0.12635847006E-01  0.88893395298E+00  0.88000000000E+00 0.  1.
        -11    1    4    4    0    0 -0.64462739577E-01  0.64368456953E-01 -0.23199591846E-01  0.94006516939E-01  0.51100000000E-03 0.  1.
         11    1    4    4    0    0 -0.25643681622E-01  0.30055990992E-01  0.25822823304E-02  0.39596594610E-01  0.51100000000E-03 0. -1.
</event>
<event>
 8    1  0.1103774E+005  0.1043930E+01  0.7957747E-01            NaN
         13   -1    0    0    0    0  0.00000000000E+00  0.00000000000E+00  0.74505805969E-08  0.10566000000E+00  0.10566000000E+00 0. -1.
     999900   -1    0    0    0    0 -0.00000000000E+00 -0.00000000000E+00 -0.74505805969E-08  0.93827000000E+00  0.93827000000E+00 0. -1.
     999902    2    1    2    0    0 -0.25582880895E-01 -0.13214877791E-02  0.85706181533E-02  0.10169173063E+01  0.10165584697E+01 0.  0.
     999903    2    3    3    0    0 -0.31801505883E-01  0.31844682879E-01  0.11952705858E+00  0.12930815931E+00  0.20210460808E-01 0.  0.
         14    1    1    2    0    0  0.25582880895E-01  0.13214877791E-02 -0.85706181533E-02  0.27012693690E-01  0.00000000000E+00 0.  1.
     999901    1    3    3    0    0  0.62186249877E-02 -0.33166170659E-01 -0.11095644043E+00  0.88760914700E+00  0.88000000000E+00 0. -1.
        -11    1    4    4    0    0 -0.20801077209E-01  0.14604319688E-01  0.89007639358E-01  0.92566689212E-01  0.51100000000E-03 0.  1.
         11    1    4    4    0    0 -0.11000428673E-01  0.17240363192E-01  0.30519419223E-01  0.36741470094E-01  0.51100000000E-03 0. -1.
</event>
<event>
 8    1  0.1103774E+005  0.1043930E+01  0.7957747E-01            NaN
         13   -1    0    0    0    0  0.00000000000E+00  0.00000000000E+00  0.74505805969E-08  0.10566000000E+00  0.10566000000E+00 0. -1.
     999900   -1    0    0    0    0 -0.00000000000E+00 -0.00000000000E+00 -0.74505805969E-08  0.93827000000E+00  0.93827000000E+00 0. -1.
     999902    2    1    2    0    0  0.69544066891E-02  0.33858210549E-02 -0.24492424266E-01  0.10182452496E+01  0.10179212553E+01 0.  0.
     999903    2    3    3    0    0  0.39774841465E-01  0.45063357754E-01 -0.11590497262E+00  0.13192112604E+00  0.18880587710E-01 0.  0.
         14    1    1    2    0    0 -0.69544066891E-02 -0.33858210549E-02  0.24492424266E-01  0.25684750398E-01  0.00000000000E+00 0. -1.
     999901    1    3    3    0    0 -0.32820434776E-01 -0.41677536699E-01  0.91412548357E-01  0.88632412356E+00  0.88000000000E+00 0.  1.
        -11    1    4    4    0    0  0.15276166196E-01  0.29240833658E-01 -0.72131883779E-01  0.79319968389E-01  0.51100000000E-03 0. -1.
         11    1    4    4    0    0  0.24498675269E-01  0.15822524095E-01 -0.43773088844E-01  0.52601157654E-01  0.51100000000E-03 0.  1.
</event>
<event>
 8    1  0.1103774E+005  0.1043930E+01  0.7957747E-01            NaN
         13   -1    0    0    0    0  0.00000000000E+00  0.00000000000E+00  0.74505805969E-08  0.10566000000E+00  0.10566000000E+00 0.  1.
     999900   -1    0    0    0    0 -0.00000000000E+00 -0.00000000000E+00 -0.74505805969E-08  0.93827000000E+00  0.93827000000E+00 0.  1.
     999902    2    1    2    0    0 -0.46027660130E-02 -0.14801913229E-01  0.17899989166E-01  0.10202510705E+01  0.10199762522E+01 0.  0.
     999903    2    3    3    0    0  0.27826830475E-01 -0.70151484139E-01 -0.10349477088E+00  0.12960414747E+00  0.19761179645E-01 0.  0.
         14    1    1    2    0    0  0.46027660130E-02  0.14801913229E-01 -0.17899989166E-01  0.23678929502E-01  0.00000000000E+00 0. -1.
     999901    1    3    3    0    0 -0.32429596488E-01  0.55349570910E-01  0.12139476005E+00  0.89064692303E+00  0.88000000000E+00 0. -1.
        -11    1    4    4    0    0  0.25867751541E-01 -0.70662094231E-01 -0.96902806146E-01  0.12268939274E+00  0.51100000000E-03 0.  1.
         11    1    4    4    0    0  0.19590789342E-02  0.51061009161E-03 -0.65919647363E-02  0.69147547332E-02  0.51100000000E-03 0. -1.
</event>
<event>
 8    1  0.1103774E+005  0.1043930E+01  0.7957747E-01            NaN
         13   -1    0    0    0    0  0.00000000000E+00  0.00000000000E+00  0.74505805969E-08  0.10566000000E+00  0.10566000000E+00 0.  1.
     999900   -1    0    0    0    0 -0.00000000000E+00 -0.00000000000E+00 -0.74505805969E-08  0.93827000000E+00  0.93827000000E+00 0. -1.
     999902    2    1    2    0    0  0.26361246561E-01  0.42294320779E-02  0.41479273650E-02  0.10169113265E+01  0.10165523288E+01 0.  0.
     999903    2    3    3    0    0 -0.25953238697E-01 -0.92778909595E-01 -0.78931260867E-01  0.12615346084E+00  0.20076231630E-01 0.  0.
         14    1    1    2    0    0 -0.26361246561E-01 -0.42294320779E-02 -0.41479273650E-02  0.27018673494E-01  0.00000000000E+00 0. -1.
     999901    1    3    3    0    0  0.52314485258E-01  0.97008341672E-01  0.83079188232E-01  0.89075786566E+00  0.88000000000E+00 0.  1.
        -11    1    4    4    0    0 -0.84047579534E-02 -0.42523521921E-01 -0.23537408981E-01  0.49327077912E-01  0.51100000000E-03 0.  1.
         11    1    4    4    0    0 -0.17548480744E-01 -0.50255387674E-01 -0.55393851886E-01  0.76826382932E-01  0.51100000000E-03 0. -1.
</event>
<event>
 8    1  0.1103774E+005  0.1043930E+01  0.7957747E-01            NaN
         13   -1    0    0    0    0  0.00000000000E+00  0.00000000000E+00  0.74505805969E-08  0.10566000000E+00  0.10566000000E+00 0.  1.
     999900   -1    0    0    0    0 -0.00000000000E+00 -0.00000000000E+00 -0.74505805969E-08  0.93827000000E+00  0.93827000000E+00 0. -1.
     999902    2    1    2    0    0 -0.20785876855E-01  0.57791923663E-02 -0.93704198755E-02  0.10204085946E+01  0.10201374631E+01 0.  0.
     999903    2    3    3    0    0  0.53473314146E-01  0.35895604672E-01 -0.11218014417E+00  0.13080684940E+00  0.19446268101E-01 0.  0.
         14    1    1    2    0    0  0.20785876855E-01 -0.57791923663E-02  0.93704198755E-02  0.23521405351E-01  0.00000000000E+00 0.  1.
     999901    1    3    3    0    0 -0.74259191001E-01 -0.30116412306E-01  0.10280972430E+00  0.88960174525E+00  0.88000000000E+00 0.  1.
        -11    1    4    4    0    0  0.42377405825E-01  0.36364040853E-01 -0.88479911622E-01  0.10462859969E+00  0.51100000000E-03 0.  1.
         11    1    4    4    0    0  0.11095908321E-01 -0.46843618105E-03 -0.23700232551E-01  0.26178249710E-01  0.51100000000E-03 0. -1.
</event>
<event>
 8    1  0.1103774E+005  0.1043930E+01  0.7957747E-01            NaN
         13   -1    0    0    0    0  0.00000000000E+00  0.00000000000E+00  0.74505805969E-08  0.10566000000E+00  0.10566000000E+00 0. -1.
     999900   -1    0    0    0    0 -0.00000000000E+00 -0.00000000000E+00 -0.74505805969E-08  0.93827000000E+00  0.93827000000E+00 0. -1.
     999902    2    1    2    0    0 -0.11732297178E-01  0.18950572660E-01  0.82165396027E-02  0.10201753684E+01  0.10198987693E+01 0.  0.
     999903    2    3    3    0    0  0.97465450279E-01  0.60966257381E-01  0.58453272745E-01  0.13101104431E+00  0.23037146068E-01 0.  0.
         14    1    1    2    0    0  0.11732297178E-01 -0.18950572660E-01 -0.82165396027E-02  0.23754631638E-01  0.00000000000E+00 0.  1.
     999901    1    3    3    0    0 -0.10919774746E+00 -0.42015684721E-01 -0.50236733143E-01  0.88916432405E+00  0.88000000000E+00 0. -1.
        -11    1    4    4    0    0  0.72493667856E-01  0.44314022935E-01  0.53971842868E-01  0.10065925418E+00  0.51100000000E-03 0.  1.
         11    1    4    4    0    0  0.24971782423E-01  0.16652234446E-01  0.44814298773E-02  0.30351790131E-01  0.51100000000E-03 0. -1.
</event>
<event>
 8    1  0.1103774E+005  0.1043930E+01  0.7957747E-01            NaN
         13   -1    0    0    0    0  0.00000000000E+00  0.00000000000E+00  0.74505805969E-08  0.10566000000E+00  0.10566000000E+00 0. -1.
     999900   -1    0    0    0    0 -0.00000000000E+00 -0.00000000000E+00 -0.74505805969E-08  0.93827000000E+00  0.93827000000E+00 0. -1.
     999902    2    1    2    0    0 -0.20131002233E-02  0.83314161562E-02 -0.22147528026E-01  0.10201817776E+01  0.10199053296E+01 0.  0.
     999903    2    3    3    0    0  0.12619631480E+00  0.26380350258E-01  0.17767931620E-02  0.13038641281E+00  0.19391413114E-01 0.  0.
         14    1    1    2    0    0  0.20131002233E-02 -0.83314161562E-02  0.22147528026E-01  0.23748222362E-01  0.00000000000E+00 0. -1.
     999901    1    3    3    0    0 -0.12820941502E+00 -0.18048934102E-01 -0.23924321189E-01  0.88979536483E+00  0.88000000000E+00 0. -1.
        -11    1    4    4    0    0  0.10473615491E+00  0.21690858722E-01 -0.58712721484E-02  0.10712090578E+00  0.51100000000E-03 0. -1.
         11    1    4    4    0    0  0.21460159895E-01  0.46894915360E-02  0.76480653105E-02  0.23265507034E-01  0.51100000000E-03 0.  1.
</event>
<event>
 8    1  0.1103774E+005  0.1043930E+01  0.7957747E-01            NaN
         13   -1    0    0    0    0  0.00000000000E+00  0.00000000000E+00  0.74505805969E-08  0.10566000000E+00  0.10566000000E+00 0.  1.
     999900   -1    0    0    0    0 -0.00000000000E+00 -0.00000000000E+00 -0.74505805969E-08  0.93827000000E+00  0.93827000000E+00 0.  1.
     999902    2    1    2    0    0 -0.36188589614E-02 -0.16356598267E-01  0.19354135899E-02  0.10270664217E+01  0.10269279694E+01 0.  0.
     999903    2    3    3    0    0 -0.67916348708E-01  0.32745886584E-01 -0.11163048755E+00  0.13608806332E+00  0.19330590227E-01 0.  0.
         14    1    1    2    0    0  0.36188589614E-02  0.16356598267E-01 -0.19354135899E-02  0.16863578292E-01  0.00000000000E+00 0. -1.
     999901    1    3    3    0    0  0.64297489746E-01 -0.49102484852E-01  0.11356590114E+00  0.89097835838E+00  0.88000000000E+00 0. -1.
        -11    1    4    4    0    0 -0.44466199140E-01  0.21972280711E-01 -0.56300150106E-01  0.75033272677E-01  0.51100000000E-03 0.  1.
         11    1    4    4    0    0 -0.23450149567E-01  0.10773605873E-01 -0.55330337444E-01  0.61054790647E-01  0.51100000000E-03 0. -1.
</event>
<event>
 8    1  0.1103774E+005  0.1043930E+01  0.7957747E-01            NaN
         13   -1    0    0    0    0  0.00000000000E+00  0.00000000000E+00  0.74505805969E-08  0.10566000000E+00  0.10566000000E+00 0. -1.
     999900   -1    0    0    0    0 -0.00000000000E+00 -0.00000000000E+00 -0.74505805969E-08  0.93827000000E+00  0.93827000000E+00 0.  1.
     999902    2    1    2    0    0  0.16099733622E-03 -0.22896084828E-01 -0.34041751524E-02  0.10207816733E+01  0.10205191716E+01 0.  0.
     999903    2    3    3    0    0 -0.10917592389E+00 -0.33906237127E-01 -0.59516399646E-01  0.13217356646E+00  0.29302466995E-01 0.  0.
         14    1    1    2    0    0 -0.16099733622E-03  0.22896084828E-01  0.34041751524E-02  0.23148326701E-01  0.00000000000E+00 0. -1.
     999901    1    3    3    0    0  0.10933692122E+00  0.11010152299E-01  0.56112224493E-01  0.88860810684E+00  0.88000000000E+00 0. -1.
        -11    1    4    4    0    0 -0.88377451967E-01 -0.36948338723E-01 -0.41152207866E-01  0.10425698578E+00  0.51100000000E-03 0. -1.
         11    1    4    4    0    0 -0.20798471921E-01  0.30421015957E-02 -0.18364191780E-01  0.27916580684E-01  0.51100000000E-03 0.  1.
</event>
<event>
 8    1  0.1103774E+005  0.1043930E+01  0.7957747E-01            NaN
         13   -1    0    0    0    0  0.00000000000E+00  0.00000000000E+00  0.74505805969E-08  0.10566000000E+00  0.10566000000E+00 0.  1.
     999900   -1    0    0    0    0 -0.00000000000E+00 -0.00000000000E+00 -0.74505805969E-08  0.93827000000E+00  0.93827000000E+00 0.  1.
     999902    2    1    2    0    0  0.19617725804E-01 -0.52566813643E-02  0.18687770141E-01  0.10163307135E+01  0.10159559038E+01 0.  0.
     999903    2    3    3    0    0  0.11461996311E+00 -0.53604177941E-01  0.21772580161E-01  0.12989266059E+00  0.19670134569E-01 0.  0.
         14    1    1    2    0    0 -0.19617725804E-01  0.52566813643E-02 -0.18687770141E-01  0.27599286540E-01  0.00000000000E+00 0. -1.
     999901    1    3    3    0    0 -0.95002237303E-01  0.48347496576E-01 -0.30848100201E-02  0.88643805287E+00  0.88000000000E+00 0.  1.
        -11    1    4    4    0    0  0.73508695606E-01 -0.24338622725E-01  0.10068309546E-01  0.78086675329E-01  0.51100000000E-03 0.  1.
         11    1    4    4    0    0  0.41111267500E-01 -0.29265555216E-01  0.11704270615E-01  0.51805985264E-01  0.51100000000E-03 0. -1.
</event>
<event>
 8    1  0.1103774E+005  0.1043930E+01  0.7957747E-01            NaN
         13   -1    0    0    0    0  0.00000000000E+00  0.00000000000E+00  0.74505805969E-08  0.10566000000E+00  0.10566000000E+00 0.  1.
     999900   -1    0    0    0    0 -0.00000000000E+00 -0.00000000000E+00 -0.74505805969E-08  0.93827000000E+00  0.93827000000E+00 0.  1.
     999902    2    1    2    0    0  0.17410154638E-01  0.84760110515E-03 -0.13776416694E-01  0.10217124041E+01  0.10214708097E+01 0.  0.
     999903    2    3    3    0    0  0.11486463302E+00  0.18926872735E-01  0.60294954003E-01  0.13305566304E+00  0.22720421608E-01 0.  0.
         14    1    1    2    0    0 -0.17410154638E-01 -0.84760110515E-03  0.13776416694E-01  0.22217595934E-01  0.00000000000E+00 0.  1.
     999901    1    3    3    0    0 -0.97454478380E-01 -0.18079271630E-01 -0.74071370697E-01  0.88865674103E+00  0.88000000000E+00 0.  1.
        -11    1    4    4    0    0  0.40378911741E-01  0.13451372256E-01  0.12412681433E-01  0.44336573055E-01  0.51100000000E-03 0.  1.
         11    1    4    4    0    0  0.74485721278E-01  0.54755004798E-02  0.47882272570E-01  0.88719089982E-01  0.51100000000E-03 0. -1.
</event>
<event>
 8    1  0.1103774E+005  0.1043930E+01  0.7957747E-01            NaN
         13   -1    0    0    0    0  0.00000000000E+00  0.00000000000E+00  0.74505805969E-08  0.10566000000E+00  0.10566000000E+00 0.  1.
     999900   -1    0    0    0    0 -0.00000000000E+00 -0.00000000000E+00 -0.74505805969E-08  0.93827000000E+00  0.93827000000E+00 0. -1.
     999902    2    1    2    0    0  0.17121316864E-01  0.98932465608E-02 -0.11853799030E-01  0.10208751010E+01  0.10206147380E+01 0.  0.
     999903    2    3    3    0    0 -0.66316297012E-01  0.41349256517E-01  0.10090144723E+00  0.12921089200E+00  0.20167803420E-01 0.  0.
         14    1    1    2    0    0 -0.17121316864E-01 -0.98932465608E-02  0.11853799030E-01  0.23054899048E-01  0.00000000000E+00 0.  1.
     999901    1    3    3    0    0  0.83437613876E-01 -0.31456009956E-01 -0.11275524626E+00  0.89166420895E+00  0.88000000000E+00 0. -1.
        -11    1    4    4    0    0 -0.44248220028E-01  0.26283577113E-01  0.80674983676E-01  0.95694542758E-01  0.51100000000E-03 0. -1.
         11    1    4    4    0    0 -0.22068076984E-01  0.15065679403E-01  0.20226463550E-01  0.33516349240E-01  0.51100000000E-03 0.  1.
</event>
<event>
 8    1  0.1103774E+005  0.1043930E+01  0.7957747E-01            NaN
         13   -1    0    0    0    0  0.00000000000E+00  0.00000000000E+00  0.74505805969E-08  0.10566000000E+00  0.10566000000E+00 0. -1.
     999900   -1    0    0    0    0 -0.00000000000E+00 -0.00000000000E+00 -0.74505805969E-08  0.93827000000E+00  0.93827000000E+00 0.  1.
     999902    2    1    2    0    0  0.27197539638E-01 -0.20980869203E-02  0.15014450623E-03  0.10166512413E+01  0.10162852040E+01 0.  0.
     999903    2    3    3    0    0 -0.80131371259E-01  0.47451471637E-01 -0.81330090730E-01  0.12501584354E+00  0.18485092819E-01 0.  0.
         14    1    1    2    0    0 -0.27197539638E-01  0.20980869203E-02 -0.15014450623E-03  0.27278758668E-01  0.00000000000E+00 0. -1.
     999901    1    3    3    0    0  0.10732891090E+00 -0.49549558557E-01  0.81480235237E-01  0.89163539780E+00  0.88000000000E+00 0.  1.
        -11    1    4    4    0    0 -0.46116029441E-01  0.24189927944E-01 -0.56780220438E-01  0.77046059856E-01  0.51100000000E-03 0. -1.
         11    1    4    4    0    0 -0.34015341818E-01  0.23261543693E-01 -0.24549870292E-01  0.47969783680E-01  0.51100000000E-03 0.  1.
</event>
<event>
 8    1  0.1103774E+005  0.1043930E+01  0.7957747E-01            NaN
         13   -1    0    0    0    0  0.00000000000E+00  0.00000000000E+00  0.74505805969E-08  0.10566000000E+00  0.10566000000E+00 0. -1.
     999900   -1    0    0    0    0 -0.00000000000E+00 -0.00000000000E+00 -0.74505805969E-08  0.93827000000E+00  0.93827000000E+00 0.  1.
     999902    2    1    2    0    0  0.11891396509E-01 -0.19808172245E-01 -0.53062517176E-02  0.10202250363E+01  0.10199496063E+01 0.  0.
     999903    2    3    3    0    0  0.46762949063E-01 -0.93407455491E-01 -0.81024060419E-01  0.13322669002E+00  0.16514430702E-01 0.  0.
         14    1    1    2    0    0 -0.11891396509E-01  0.19808172245E-01  0.53062517176E-02  0.23704963740E-01  0.00000000000E+00 0.  1.
     999901    1    3    3    0    0 -0.34871552553E-01  0.73599283247E-01  0.75717808702E-01  0.88699834624E+00  0.88000000000E+00 0. -1.
        -11    1    4    4    0    0  0.26201942174E-01 -0.36299908972E-01 -0.29581362287E-01  0.53661376062E-01  0.51100000000E-03 0. -1.
         11    1    4    4    0    0  0.20561006888E-01 -0.57107546519E-01 -0.51442698132E-01  0.79565313962E-01  0.51100000000E-03 0.  1.
</event>
<event>
 8    1  0.1103774E+005  0.1043930E+01  0.7957747E-01            NaN
         13   -1    0    0    0    0  0.00000000000E+00  0.00000000000E+00  0.74505805969E-08  0.10566000000E+00  0.10566000000E+00 0. -1.
     999900   -1    0    0    0    0 -0.00000000000E+00 -0.00000000000E+00 -0.74505805969E-08  0.93827000000E+00  0.93827000000E+00 0. -1.
     999902    2    1    2    0    0  0.24319276274E-01 -0.81781030668E-02  0.10778010544E-01  0.10161006256E+01  0.10157194530E+01 0.  0.
     999903    2    3    3    0    0 -0.47574018169E-01 -0.11557368123E+00 -0.34396225403E-02  0.12654759340E+00  0.19542246438E-01 0.  0.
         14    1    1    2    0    0 -0.24319276274E-01  0.81781030668E-02 -0.10778010544E-01  0.27829374401E-01  0.00000000000E+00 0.  1.
     999901    1    3    3    0    0  0.71893294443E-01  0.10739557816E+00  0.14217633084E-01  0.88955303219E+00  0.88000000000E+00 0.  1.
        -11    1    4    4    0    0 -0.29979598618E-01 -0.49125351329E-01  0.20430633622E-02  0.57589163090E-01  0.51100000000E-03 0. -1.
         11    1    4    4    0    0 -0.17594419551E-01 -0.66448329900E-01 -0.54826859025E-02  0.68958430315E-01  0.51100000000E-03 0.  1.
</event>
<event>
 8    1  0.1103774E+005  0.1043930E+01  0.7957747E-01            NaN
         13   -1    0    0    0    0  0.00000000000E+00  0.00000000000E+00  0.74505805969E-08  0.10566000000E+00  0.10566000000E+00 0.  1.
     999900   -1    0    0    0    0 -0.00000000000E+00 -0.00000000000E+00 -0.74505805969E-08  0.93827000000E+00  0.93827000000E+00 0.  1.
     999902    2    1    2    0    0  0.20270415759E-01 -0.53997671661E-02  0.11504873827E-01  0.10200049219E+01  0.10197242918E+01 0.  0.
     999903    2    3    3    0    0 -0.36546472567E-01 -0.10521100509E+00  0.65041938066E-01  0.13092862637E+00  0.22513357081E-01 0.  0.
         14    1    1    2    0    0 -0.20270415759E-01  0.53997671661E-02 -0.11504873827E-01  0.23925078104E-01  0.00000000000E+00 0. -1.
     999901    1    3    3    0    0  0.56816888326E-01  0.99811237924E-01 -0.53537064239E-01  0.88907629552E+00  0.88000000000E+00 0. -1.
        -11    1    4    4    0    0 -0.33968038576E-01 -0.65078735763E-01  0.42043383612E-01  0.84598916777E-01  0.51100000000E-03 0.  1.
         11    1    4    4    0    0 -0.25784339902E-02 -0.40132269327E-01  0.22998554455E-01  0.46329709595E-01  0.51100000000E-03 0. -1.
</event>
<event>
 8    1  0.1103774E+005  0.1043930E+01  0.7957747E-01            NaN
         13   -1    0    0    0    0  0.00000000000E+00  0.00000000000E+00  0.74505805969E-08  0.10566000000E+00  0.10566000000E+00 0.  1.
     999900   -1    0    0    0    0 -0.00000000000E+00 -0.00000000000E+00 -0.74505805969E-08  0.93827000000E+00  0.93827000000E+00 0. -1.
     999902    2    1    2    0    0  0.84989660166E-02 -0.21545599349E-01  0.57968627040E-02  0.10200543033E+01  0.10197748442E+01 0.  0.
     999903    2    3    3    0    0  0.53275289740E-01 -0.47934475710E-01 -0.10805776111E+00  0.13119876538E+00  0.20016639149E-01 0.  0.
         14    1    1    2    0    0 -0.84989660166E-02  0.21545599349E-01 -0.57968627040E-02  0.23875696678E-01  0.00000000000E+00 0. -1.
     999901    1    3    3    0    0 -0.44776323724E-01  0.26388876361E-01  0.11385462382E+00  0.88885553794E+00  0.88000000000E+00 0.  1.
        -11    1    4    4    0    0  0.34100533740E-01 -0.31679444046E-01 -0.52177883513E-01  0.69923002119E-01  0.51100000000E-03 0.  1.
         11    1    4    4    0    0  0.19174756001E-01 -0.16255031664E-01 -0.55879877599E-01  0.61275763264E-01  0.51100000000E-03 0. -1.
</event>
<event>
 8    1  0.1103774E+005  0.1043930E+01  0.7957747E-01            NaN
         13   -1    0    0    0    0  0.00000000000E+00  0.00000000000E+00  0.74505805969E-08  0.10566000000E+00  0.10566000000E+00 0. -1.
     999900   -1    0    0    0    0 -0.00000000000E+00 -0.00000000000E+00 -0.74505805969E-08  0.93827000000E+00  0.93827000000E+00 0.  1.
     999902    2    1    2    0    0  0.12204036281E-01 -0.59865938586E-02 -0.19332800931E-01  0.10202966549E+01  0.10200229061E+01 0.  0.
     999903    2    3    3    0    0  0.11951622412E-01  0.62120525987E-01  0.10968718154E+00  0.12828499617E+00  0.20590323483E-01 0.  0.
         14    1    1    2    0    0 -0.12204036281E-01  0.59865938586E-02  0.19332800931E-01  0.23633345074E-01  0.00000000000E+00 0. -1.
     999901    1    3    3    0    0  0.25241386833E-03 -0.68107119845E-01 -0.12901998247E+00  0.89201165876E+00  0.88000000000E+00 0.  1.
        -11    1    4    4    0    0 -0.31325152096E-02  0.35273898022E-01  0.64820044178E-01  0.73864469005E-01  0.51100000000E-03 0. -1.
         11    1    4    4    0    0  0.15084137622E-01  0.26846627965E-01  0.44867137358E-01  0.54420527162E-01  0.51100000000E-03 0.  1.
</event>
<event>
 8    1  0.1103774E+005  0.1043930E+01  0.7957747E-01            NaN
         13   -1    0    0    0    0  0.00000000000E+00  0.00000000000E+00  0.74505805969E-08  0.10566000000E+00  0.10566000000E+00 0.  1.
     999900   -1    0    0    0    0 -0.00000000000E+00 -0.00000000000E+00 -0.74505805969E-08  0.93827000000E+00  0.93827000000E+00 0.  1.
     999902    2    1    2    0    0  0.18465394931E-01  0.13497754314E-01  0.57438282562E-02  0.10203471303E+01  0.10200745632E+01 0.  0.
     999903    2    3    3    0    0 -0.46863541561E-01 -0.10472549607E+00 -0.51899513361E-01  0.12817710068E+00  0.23920463969E-01 0.  0.
         14    1    1    2    0    0 -0.18465394931E-01 -0.13497754314E-01 -0.57438282562E-02  0.23582869726E-01  0.00000000000E+00 0. -1.
     999901    1    3    3    0    0  0.65328936492E-01  0.11822325038E+00  0.57643341617E-01  0.89217002959E+00  0.88000000000E+00 0. -1.
        -11    1    4    4    0    0 -0.47321356692E-02 -0.37507323301E-01 -0.14850173979E-01  0.40619960579E-01  0.51100000000E-03 0.  1.
         11    1    4    4    0    0 -0.42131405892E-01 -0.67218172769E-01 -0.37049339382E-01  0.87557140100E-01  0.51100000000E-03 0. -1.
</event>
<event>
 8    1  0.1103774E+005  0.1043930E+01  0.7957747E-01            NaN
         13   -1    0    0    0    0  0.00000000000E+00  0.00000000000E+00  0.74505805969E-08  0.10566000000E+00  0.10566000000E+00 0. -1.
     999900   -1    0    0    0    0 -0.00000000000E+00 -0.00000000000E+00 -0.74505805969E-08  0.93827000000E+00  0.93827000000E+00 0.  1.
     999902    2    1    2    0    0 -0.45997682191E-02 -0.16767750219E-02 -0.22115665568E-01  0.10212789050E+01  0.10210276831E+01 0.  0.
     999903    2    3    3    0    0  0.15294314595E-01 -0.99698822306E-01 -0.85236762879E-01  0.13336653925E+00  0.18642875790E-01 0.  0.
         14    1    1    2    0    0  0.45997682191E-02  0.16767750219E-02  0.22115665568E-01  0.22651095022E-01  0.00000000000E+00 0. -1.
     999901    1    3    3    0    0 -0.19894082814E-01  0.98022047284E-01  0.63121097310E-01  0.88791236573E+00  0.88000000000E+00 0. -1.
        -11    1    4    4    0    0  0.19684454015E-01 -0.80994040464E-01 -0.69401612516E-01  0.10846362183E+00  0.51100000000E-03 0.  1.
         11    1    4    4    0    0 -0.43901394199E-02 -0.18704781842E-01 -0.15835150362E-01  0.24902917417E-01  0.51100000000E-03 0. -1.
</event>
<event>
 8    1  0.1103774E+005  0.1043930E+01  0.7957747E-01            NaN
         13   -1    0    0    0    0  0.00000000000E+00  0.00000000000E+00  0.74505805969E-08  0.10566000000E+00  0.10566000000E+00 0.  1.
     999900   -1    0    0    0    0 -0.00000000000E+00 -0.00000000000E+00 -0.74505805969E-08  0.93827000000E+00  0.93827000000E+00 0.  1.
     999902    2    1    2    0    0 -0.11848817268E-01 -0.18914999998E-01  0.80164945949E-02  0.10202142693E+01  0.10199385861E+01 0.  0.
     999903    2    3    3    0    0 -0.58731314302E-01 -0.53048649671E-01 -0.10294293016E+00  0.13135259927E+00  0.19817465837E-01 0.  0.
         14    1    1    2    0    0  0.11848817268E-01  0.18914999998E-01 -0.80164945949E-02  0.23715730669E-01  0.00000000000E+00 0. -1.
     999901    1    3    3    0    0  0.46882497034E-01  0.34133649673E-01  0.11095942476E+00  0.88886167006E+00  0.88000000000E+00 0. -1.
        -11    1    4    4    0    0 -0.13713139883E-03 -0.58179530702E-02 -0.11681841088E-01  0.13061160559E-01  0.51100000000E-03 0. -1.
         11    1    4    4    0    0 -0.58594182903E-01 -0.47230696601E-01 -0.91261089074E-01  0.11829143871E+00  0.51100000000E-03 0.  1.
</event>
<event>
 8    1  0.1103774E+005  0.1043930E+01  0.7957747E-01            NaN
         13   -1    0    0    0    0  0.00000000000E+00  0.00000000000E+00  0.74505805969E-08  0.10566000000E+00  0.10566000000E+00 0.  1.
     999900   -1    0    0    0    0 -0.00000000000E+00 -0.00000000000E+00 -0.74505805969E-08  0.93827000000E+00  0.93827000000E+00 0.  1.
     999902    2    1    2    0    0  0.51491772585E-02 -0.18367038366E-01  0.13697677065E-01  0.10204462081E+01  0.10201759530E+01 0.  0.
     999903    2    3    3    0    0 -0.53692209792E-01  0.54213868987E-01 -0.10091161649E+00  0.12810905931E+00  0.20168781633E-01 0.  0.
         14    1    1    2    0    0 -0.51491772585E-02  0.18367038366E-01 -0.13697677065E-01  0.23483791894E-01  0.00000000000E+00 0.  1.
     999901    1    3    3    0    0  0.58841387050E-01 -0.72580907353E-01  0.11460929356E+00  0.89233714879E+00  0.88000000000E+00 0. -1.
        -11    1    4    4    0    0 -0.17288215005E-01  0.23723789247E-01 -0.24969275247E-01  0.38541229633E-01  0.51100000000E-03 0. -1.
         11    1    4    4    0    0 -0.36403994787E-01  0.30490079740E-01 -0.75942341246E-01  0.89567829682E-01  0.51100000000E-03 0.  1.
</event>
<event>
 7    1  0.1103774E+005  0.1043930E+01  0.7957747E-01            NaN
         13   -1    0    0    0    0  0.00000000000E+00  0.00000000000E+00  0.74505805969E-08  0.10566000000E+00  0.10566000000E+00 0.  1.
     999900   -1    0    0    0    0 -0.00000000000E+00 -0.00000000000E+00 -0.74505805969E-08  0.93827000000E+00  0.93827000000E+00 0. -1.
     999902    2    1    2    0    0 -0.14385398228E-01  0.82992744762E-03 -0.20020472499E-01  0.10192632657E+01  0.10189647477E+01 0.  0.
         14    1    1    2    0    0  0.14385398228E-01 -0.82992744762E-03  0.20020472499E-01  0.24666734296E-01  0.00000000000E+00 0.  1.
     999901    1    3    3    0    0  0.30780666746E-01  0.12739719870E-01 -0.12396249309E+00  0.88931234648E+00  0.88000000000E+00 0. -1.
        -11    1    3    3    0    0 -0.55173084337E-01 -0.25705514021E-01  0.83502523253E-01  0.10333332085E+00  0.51100000000E-03 0.  1.
         11    1    3    3    0    0  0.10007019364E-01  0.13795721599E-01  0.20439497338E-01  0.26617598378E-01  0.51100000000E-03 0. -1.
</event>
<event>
 8    1  0.1103774E+005  0.1043930E+01  0.7957747E-01            NaN
         13   -1    0    0    0    0  0.00000000000E+00  0.00000000000E+00  0.74505805969E-08  0.10566000000E+00  0.10566000000E+00 0.  1.
     999900   -1    0    0    0    0 -0.00000000000E+00 -0.00000000000E+00 -0.74505805969E-08  0.93827000000E+00  0.93827000000E+00 0.  1.
     999902    2    1    2    0    0 -0.14823213125E-01  0.16517060806E-01  0.86530887292E-02  0.10201094860E+01  0.10198313323E+01 0.  0.
     999903    2    3    3    0    0 -0.78739548801E-01 -0.94226816866E-01  0.39117929483E-01  0.13034681482E+00  0.19531261244E-01 0.  0.
         14    1    1    2    0    0  0.14823213125E-01 -0.16517060806E-01 -0.86530887292E-02  0.23820514050E-01  0.00000000000E+00 0. -1.
     999901    1    3    3    0    0  0.63916335675E-01  0.11074387767E+00 -0.30464840754E-01  0.88976267113E+00  0.88000000000E+00 0. -1.
        -11    1    4    4    0    0 -0.60952675945E-01 -0.78988134175E-01  0.24514106516E-01  0.10274023839E+00  0.51100000000E-03 0. -1.
         11    1    4    4    0    0 -0.17786872855E-01 -0.15238682691E-01  0.14603822967E-01  0.27606576433E-01  0.51100000000E-03 0.  1.
</event>
<event>
 8    1  0.1103774E+005  0.1043930E+01  0.7957747E-01            NaN
         13   -1    0    0    0    0  0.00000000000E+00  0.00000000000E+00  0.74505805969E-08  0.10566000000E+00  0.10566000000E+00 0.  1.
     999900   -1    0    0    0    0 -0.00000000000E+00 -0.00000000000E+00 -0.74505805969E-08  0.93827000000E+00  0.93827000000E+00 0.  1.
     999902    2    1    2    0    0  0.20366123679E-01  0.10803422612E-01 -0.26384161456E-02  0.10207253846E+01  0.10204615900E+01 0.  0.
     999903    2    3    3    0    0 -0.95689448680E-01 -0.80412048501E-01  0.19600922844E-01  0.12815396104E+00  0.20412579963E-01 0.  0.
         14    1    1    2    0    0 -0.20366123679E-01 -0.10803422612E-01  0.26384161456E-02  0.23204615352E-01  0.00000000000E+00 0. -1.
     999901    1    3    3    0    0  0.11605557236E+00  0.91215471113E-01 -0.22239338990E-01  0.89257142361E+00  0.88000000000E+00 0.  1.
        -11    1    4    4    0    0 -0.71298739615E-01 -0.69289175476E-01  0.19632058052E-01  0.10134189130E+00  0.51100000000E-03 0. -1.
         11    1    4    4    0    0 -0.24390709065E-01 -0.11122873025E-01 -0.31135208164E-04  0.26812069734E-01  0.51100000000E-03 0.  1.
</event>
<event>
 8    1  0.1103774E+005  0.1043930E+01  0.7957747E-01            NaN
         13   -1    0    0    0    0  0.00000000000E+00  0.00000000000E+00  0.74505805969E-08  0.10566000000E+00  0.10566000000E+00 0.  1.
     999900   -1    0    0    0    0 -0.00000000000E+00 -0.00000000000E+00 -0.74505805969E-08  0.93827000000E+00  0.93827000000E+00 0.  1.
     999902    2    1    2    0    0  0.19962791315E-01 -0.24616042205E-02  0.11779930923E-01  0.10206203603E+01  0.10203541446E+01 0.  0.
     999903    2    3    3    0    0  0.11084198316E+00 -0.30130248475E-01 -0.63092732462E-01  0.13234647394E+00  0.18469411765E-01 0.  0.
         14    1    1    2    0    0 -0.19962791315E-01  0.24616042205E-02 -0.11779930923E-01  0.23309639744E-01  0.00000000000E+00 0. -1.
     999901    1    3    3    0    0 -0.90879191847E-01  0.27668644254E-01  0.74872663384E-01  0.88827388631E+00  0.88000000000E+00 0.  1.
        -11    1    4    4    0    0  0.41681174131E-01 -0.11492145227E-01 -0.13775827847E-01  0.45380879594E-01  0.51100000000E-03 0.  1.
         11    1    4    4    0    0  0.69160809031E-01 -0.18638103247E-01 -0.49316904615E-01  0.86965594348E-01  0.51100000000E-03 0. -1.
</event>
<event>
 8    1  0.1103774E+005  0.1043930E+01  0.7957747E-01            NaN
         13   -1    0    0    0    0  0.00000000000E+00  0.00000000000E+00  0.74505805969E-08  0.10566000000E+00  0.10566000000E+00 0.  1.
     999900   -1    0    0    0    0 -0.00000000000E+00 -0.00000000000E+00 -0.74505805969E-08  0.93827000000E+00  0.93827000000E+00 0. -1.
     999902    2    1    2    0    0  0.14486628117E-01 -0.68108467605E-02  0.14344467694E-01  0.10224354942E+01  0.10222095313E+01 0.  0.
     999903    2    3    3    0    0  0.54059768472E-01 -0.73771521487E-01  0.97328284634E-01  0.13511589037E+00  0.20464918549E-01 0.  0.
         14    1    1    2    0    0 -0.14486628117E-01  0.68108467605E-02 -0.14344467694E-01  0.21494505838E-01  0.00000000000E+00 0.  1.
     999901    1    3    3    0    0 -0.39573140355E-01  0.66960674726E-01 -0.82983816940E-01  0.88731960379E+00  0.88000000000E+00 0. -1.
        -11    1    4    4    0    0  0.24244637586E-01 -0.19045237052E-01  0.39372897963E-01  0.50010096191E-01  0.51100000000E-03 0.  1.
         11    1    4    4    0    0  0.29815130886E-01 -0.54726284435E-01  0.57955386671E-01  0.85105794180E-01  0.51100000000E-03 0. -1.
</event>
<event>
 8    1  0.1103774E+005  0.1043930E+01  0.7957747E-01            NaN
         13   -1    0    0    0    0  0.00000000000E+00  0.00000000000E+00  0.74505805969E-08  0.10566000000E+00  0.10566000000E+00 0. -1.
     999900   -1    0    0    0    0 -0.00000000000E+00 -0.00000000000E+00 -0.74505805969E-08  0.93827000000E+00  0.93827000000E+00 0. -1.
     999902    2    1    2    0    0  0.74405263673E-02  0.21606307904E-01 -0.16479280402E-01  0.10157562417E+01  0.10153654425E+01 0.  0.
     999903    2    3    3    0    0 -0.65181671668E-01  0.10839700186E+00 -0.10336780026E-01  0.12848833486E+00  0.20095841390E-01 0.  0.
         14    1    1    2    0    0 -0.74405263673E-02 -0.21606307904E-01  0.16479280402E-01  0.28173758294E-01  0.00000000000E+00 0. -1.
     999901    1    3    3    0    0  0.72622198036E-01 -0.86790693953E-01 -0.61425003762E-02  0.88726790684E+00  0.88000000000E+00 0.  1.
        -11    1    4    4    0    0 -0.22604452869E-01  0.54373740717E-01 -0.98151639314E-02  0.59699778333E-01  0.51100000000E-03 0. -1.
         11    1    4    4    0    0 -0.42577218799E-01  0.54023261140E-01 -0.52161609481E-03  0.68788556528E-01  0.51100000000E-03 0.  1.
</event>
<event>
 8    1  0.1103774E+005  0.1043930E+01  0.7957747E-01            NaN
         13   -1    0    0    0    0  0.00000000000E+00  0.00000000000E+00  0.74505805969E-08  0.10566000000E+00  0.10566000000E+00 0. -1.
     999900   -1    0    0    0    0 -0.00000000000E+00 -0.00000000000E+00 -0.74505805969E-08  0.93827000000E+00  0.93827000000E+00 0.  1.
     999902    2    1    2    0    0  0.14200708514E-01 -0.17768670684E-01  0.71144735530E-02  0.10200972177E+01  0.10198187741E+01 0.  0.
     999903    2    3    3    0    0 -0.10847461196E+00 -0.49924560806E-01  0.47836476235E-01  0.13007389379E+00  0.19279164309E-01 0.  0.
         14    1    1    2    0    0 -0.14200708514E-01  0.17768670684E-01 -0.71144735530E-02  0.23832782341E-01  0.00000000000E+00 0. -1.
     999901    1    3    3    0    0  0.12267532047E+00  0.32155890122E-01 -0.40722002682E-01  0.89002332387E+00  0.88000000000E+00 0. -1.
        -11    1    4    4    0    0 -0.95792211081E-01 -0.48379935235E-01  0.37664361441E-01  0.11373491584E+00  0.51100000000E-03 0.  1.
         11    1    4    4    0    0 -0.12682400879E-01 -0.15446255708E-02  0.10172114794E-01  0.16338977954E-01  0.51100000000E-03 0. -1.
</event>
<event>
 8    1  0.1103774E+005  0.1043930E+01  0.7957747E-01            NaN
         13   -1    0    0    0    0  0.00000000000E+00  0.00000000000E+00  0.74505805969E-08  0.10566000000E+00  0.10566000000E+00 0. -1.
     999900   -1    0    0    0    0 -0.00000000000E+00 -0.00000000000E+00 -0.74505805969E-08  0.93827000000E+00  0.93827000000E+00 0.  1.
     999902    2    1    2    0    0  0.34348449841E-02 -0.20199344675E-01 -0.12032433348E-01  0.10201688734E+01  0.10198921213E+01 0.  0.
     999903    2    3    3    0    0  0.72392760373E-02 -0.53820076801E-01  0.11677703692E+00  0.13014825175E+00  0.18779864139E-01 0.  0.
         14    1    1    2    0    0 -0.34348449841E-02  0.20199344675E-01  0.12032433348E-01  0.23761126607E-01  0.00000000000E+00 0.  1.
     999901    1    3    3    0    0 -0.38044310532E-02  0.33620732126E-01 -0.12880947027E+00  0.89002062165E+00  0.88000000000E+00 0.  1.
        -11    1    4    4    0    0 -0.31632207567E-02 -0.38343375460E-01  0.71893685990E-01  0.81542526411E-01  0.51100000000E-03 0.  1.
         11    1    4    4    0    0  0.10402496794E-01 -0.15476701341E-01  0.44883350928E-01  0.48605725337E-01  0.51100000000E-03 0. -1.
</event>
<event>
 8    1  0.1103774E+005  0.1043930E+01  0.7957747E-01            NaN
         13   -1    0    0    0    0  0.00000000000E+00  0.00000000000E+00  0.74505805969E-08  0.10566000000E+00  0.10566000000E+00 0.  1.
     999900   -1    0    0    0    0 -0.00000000000E+00 -0.00000000000E+00 -0.74505805969E-08  0.93827000000E+00  0.93827000000E+00 0. -1.
     999902    2    1    2    0    0  0.20079272308E-01  0.63060038247E-02 -0.10593783672E-01  0.10203679306E+01  0.10200958498E+01 0.  0.
     999903    2    3    3    0    0 -0.60209820621E-02 -0.11496698700E+00 -0.57981919959E-01  0.13040501171E+00  0.19745979651E-01 0.  0.
         14    1    1    2    0    0 -0.20079272308E-01 -0.63060038247E-02  0.10593783672E-01  0.23562069373E-01  0.00000000000E+00 0.  1.
     999901    1    3    3    0    0  0.26100254370E-01  0.12127299083E+00  0.47388136287E-01  0.88996291891E+00  0.88000000000E+00 0. -1.
        -11    1    4    4    0    0 -0.12485196424E-01 -0.72753115900E-01 -0.32358323204E-01  0.80599120370E-01  0.51100000000E-03 0.  1.
         11    1    4    4    0    0  0.64642143621E-02 -0.42213871102E-01 -0.25623596756E-01  0.49805891342E-01  0.51100000000E-03 0. -1.
</event>
<event>
 8    1  0.1103774E+005  0.1043930E+01  0.7957747E-01            NaN
         13   -1    0    0    0    0  0.00000000000E+00  0.00000000000E+00  0.74505805969E-08  0.10566000000E+00  0.10566000000E+00 0.  1.
     999900   -1    0    0    0    0 -0.00000000000E+00 -0.00000000000E+00 -0.74505805969E-08  0.93827000000E+00  0.93827000000E+00 0. -1.
     999902    2    1    2    0    0  0.19978212285E-01  0.26352284182E-02 -0.13913952771E-01  0.10194418094E+01  0.10191476494E+01 0.  0.
     999903    2    3    3    0    0 -0.91179165329E-01 -0.64363670017E-01  0.57212384023E-01  0.12708326560E+00  0.20507981410E-01 0.  0.
         14    1    1    2    0    0 -0.19978212285E-01 -0.26352284182E-02  0.13913952771E-01  0.24488190554E-01  0.00000000000E+00 0.  1.
     999901    1    3    3    0    0  0.11115737761E+00  0.66998898436E-01 -0.71126336794E-01  0.89235854385E+00  0.88000000000E+00 0. -1.
        -11    1    4    4    0    0 -0.25939677739E-01 -0.30219498643E-01  0.20942849874E-01  0.44999434011E-01  0.51100000000E-03 0.  1.
         11    1    4    4    0    0 -0.65239487590E-01 -0.34144171375E-01  0.36269534149E-01  0.82083831589E-01  0.51100000000E-03 0. -1.
</event>
<event>
 8    1  0.1103774E+005  0.1043930E+01  0.7957747E-01            NaN
         13   -1    0    0    0    0  0.00000000000E+00  0.00000000000E+00  0.74505805969E-08  0.10566000000E+00  0.10566000000E+00 0. -1.
     999900   -1    0    0    0    0 -0.00000000000E+00 -0.00000000000E+00 -0.74505805969E-08  0.93827000000E+00  0.93827000000E+00 0. -1.
     999902    2    1    2    0    0  0.17280170561E-01 -0.16345247866E-01  0.37801790430E-02  0.10198455408E+01  0.10195611143E+01 0.  0.
     999903    2    3    3    0    0  0.62313689342E-01  0.10657390238E+00 -0.31519594783E-01  0.12946179803E+00  0.22932068065E-01 0.  0.
         14    1    1    2    0    0 -0.17280170561E-01  0.16345247866E-01 -0.37801790430E-02  0.24084459222E-01  0.00000000000E+00 0. -1.
     999901    1    3    3    0    0 -0.45033518781E-01 -0.12291915025E+00  0.35299773826E-01  0.89038374274E+00  0.88000000000E+00 0. -1.
        -11    1    4    4    0    0  0.23502736354E-01  0.39334300032E-01 -0.23248682019E-01  0.51384123149E-01  0.51100000000E-03 0. -1.
         11    1    4    4    0    0  0.38810952988E-01  0.67239602352E-01 -0.82709127631E-02  0.78077674884E-01  0.51100000000E-03 0.  1.
</event>
<event>
 8    1  0.1103774E+005  0.1043930E+01  0.7957747E-01            NaN
         13   -1    0    0    0    0  0.00000000000E+00  0.00000000000E+00  0.74505805969E-08  0.10566000000E+00  0.10566000000E+00 0. -1.
     999900   -1    0    0    0    0 -0.00000000000E+00 -0.00000000000E+00 -0.74505805969E-08  0.93827000000E+00  0.93827000000E+00 0. -1.
     999902    2    1    2    0    0 -0.41171135182E-03 -0.23844444349E-01 -0.83751127965E-03  0.10200672999E+01  0.10197881485E+01 0.  0.
     999903    2    3    3    0    0 -0.10103292971E+00 -0.46721839701E-01 -0.67273184813E-01  0.13155072516E+00  0.19731414186E-01 0.  0.
         14    1    1    2    0    0  0.41171135182E-03  0.23844444349E-01  0.83751127965E-03  0.23862700134E-01  0.00000000000E+00 0.  1.
     999901    1    3    3    0    0  0.10062121836E+00  0.22877395352E-01  0.66435673534E-01  0.88851657470E+00  0.88000000000E+00 0.  1.
        -11    1    4    4    0    0 -0.23534681023E-01 -0.17499644988E-01 -0.10589060396E-01  0.31185062235E-01  0.51100000000E-03 0. -1.
         11    1    4    4    0    0 -0.77498248686E-01 -0.29222194713E-01 -0.56684124417E-01  0.10036566293E+00  0.51100000000E-03 0.  1.
</event>
<event>
 8    1  0.1103774E+005  0.1043930E+01  0.7957747E-01            NaN
         13   -1    0    0    0    0  0.00000000000E+00  0.00000000000E+00  0.74505805969E-08  0.10566000000E+00  0.10566000000E+00 0. -1.
     999900   -1    0    0    0    0 -0.00000000000E+00 -0.00000000000E+00 -0.74505805969E-08  0.93827000000E+00  0.93827000000E+00 0.  1.
     999902    2    1    2    0    0 -0.92648855139E-03 -0.78159992110E-02  0.22256950422E-01  0.10203223727E+01  0.10200492263E+01 0.  0.
     999903    2    3    3    0    0  0.85024497030E-01  0.95818849076E-01 -0.33969235776E-02  0.12971253952E+00  0.20084493665E-01 0.  0.
         14    1    1    2    0    0  0.92648855139E-03  0.78159992110E-02 -0.22256950422E-01  0.23607627301E-01  0.00000000000E+00 0.  1.
     999901    1    3    3    0    0 -0.85950985581E-01 -0.10363484829E+00  0.25653874000E-01  0.89060983318E+00  0.88000000000E+00 0. -1.
        -11    1    4    4    0    0  0.35490890431E-01  0.53897892883E-01 -0.56265819225E-02  0.64780442310E-01  0.51100000000E-03 0. -1.
         11    1    4    4    0    0  0.49533606600E-01  0.41920956193E-01  0.22296583449E-02  0.64932097211E-01  0.51100000000E-03 0.  1.
</event>
<event>
 8    1  0.1103774E+005  0.1043930E+01  0.7957747E-01            NaN
         13   -1    0    0    0    0  0.00000000000E+00  0.00000000000E+00  0.74505805969E-08  0.10566000000E+00  0.10566000000E+00 0. -1.
     999900   -1    0    0    0    0 -0.00000000000E+00 -0.00000000000E+00 -0.74505805969E-08  0.93827000000E+00  0.93827000000E+00 0.  1.
     999902    2    1    2    0    0  0.20644377259E-01 -0.11440107860E-01  0.53822918351E-02  0.10197218310E+01  0.10194344399E+01 0.  0.
     999903    2    3    3    0    0 -0.24887153414E-01  0.11220269983E+00  0.54163404782E-01  0.12857635403E+00  0.19732920298E-01 0.  0.
         14    1    1    2    0    0 -0.20644377259E-01  0.11440107860E-01 -0.53822918351E-02  0.24208168986E-01  0.00000000000E+00 0.  1.
     999901    1    3    3    0    0  0.45531530672E-01 -0.12364280769E+00 -0.48781112947E-01  0.89114547699E+00  0.88000000000E+00 0.  1.
        -11    1    4    4    0    0 -0.10911507746E-01  0.48218850998E-01  0.34164963938E-01  0.60096792550E-01  0.51100000000E-03 0.  1.
         11    1    4    4    0    0 -0.13975645667E-01  0.63983848828E-01  0.19998440844E-01  0.68479561476E-01  0.51100000000E-03 0. -1.
</event>
<event>
 8    1  0.1103774E+005  0.1043930E+01  0.7957747E-01            NaN
         13   -1    0    0    0    0  0.00000000000E+00  0.00000000000E+00  0.74505805969E-08  0.10566000000E+00  0.10566000000E+00 0.  1.
     999900   -1    0    0    0    0 -0.00000000000E+00 -0.00000000000E+00 -0.74505805969E-08  0.93827000000E+00  0.93827000000E+00 0.  1.
     999902    2    1    2    0    0 -0.18576529929E-01 -0.14128604507E-01 -0.56035308282E-02  0.10199278233E+01  0.10196453600E+01 0.  0.
     999903    2    3    3    0    0 -0.43598357502E-01  0.39831555178E-02  0.12110357702E+00  0.13031621202E+00  0.19988908041E-01 0.  0.
         14    1    1    2    0    0  0.18576529929E-01  0.14128604507E-01  0.56035308282E-02  0.24002176719E-01  0.00000000000E+00 0.  1.
     999901    1    3    3    0    0  0.25021827573E-01 -0.18111760025E-01 -0.12670710785E+00  0.88961161126E+00  0.88000000000E+00 0.  1.
        -11    1    4    4    0    0 -0.28349977739E-01 -0.60066012838E-02  0.86091239691E-01  0.90839216032E-01  0.51100000000E-03 0.  1.
         11    1    4    4    0    0 -0.15248379763E-01  0.99897568016E-02  0.35012337327E-01  0.39476995991E-01  0.51100000000E-03 0. -1.
</event>
<event>
 8    1  0.1103774E+005  0.1043930E+01  0.7957747E-01            NaN
         13   -1    0    0    0    0  0.00000000000E+00  0.00000000000E+00  0.74505805969E-08  0.10566000000E+00  0.10566000000E+00 0.  1.
     999900   -1    0    0    0    0 -0.00000000000E+00 -0.00000000000E+00 -0.74505805969E-08  0.93827000000E+00  0.93827000000E+00 0. -1.
     999902    2    1    2    0    0  0.17548455969E-01  0.15163817947E-01 -0.53851825696E-02  0.10201205508E+01  0.10198426586E+01 0.  0.
     999903    2    3    3    0    0  0.12329940751E+00  0.46263333325E-01  0.14188850893E-02  0.13321765927E+00  0.20047234286E-01 0.  0.
         14    1    1    2    0    0 -0.17548455969E-01 -0.15163817947E-01  0.53851825696E-02  0.23809449236E-01  0.00000000000E+00 0. -1.
     999901    1    3    3    0    0 -0.10575095154E+00 -0.31099515378E-01 -0.68040676589E-02  0.88690289150E+00  0.88000000000E+00 0. -1.
        -11    1    4    4    0    0  0.44771698856E-01  0.20502789919E-01  0.95809172473E-02  0.50168959619E-01  0.51100000000E-03 0.  1.
         11    1    4    4    0    0  0.78527708656E-01  0.25760543406E-01 -0.81620321580E-02  0.83048699648E-01  0.51100000000E-03 0. -1.
</event>
<event>
 8    1  0.1103774E+005  0.1043930E+01  0.7957747E-01            NaN
         13   -1    0    0    0    0  0.00000000000E+00  0.00000000000E+00  0.74505805969E-08  0.10566000000E+00  0.10566000000E+00 0. -1.
     999900   -1    0    0    0    0 -0.00000000000E+00 -0.00000000000E+00 -0.74505805969E-08  0.93827000000E+00  0.93827000000E+00 0. -1.
     999902    2    1    2    0    0 -0.98762141893E-02 -0.12793857360E-01 -0.16187387693E-01  0.10210552560E+01  0.10207989919E+01 0.  0.
     999903    2    3    3    0    0 -0.26882479824E-01 -0.14962088808E-01 -0.12849762127E+00  0.13375175501E+00  0.20769243443E-01 0.  0.
         14    1    1    2    0    0  0.98762141893E-02  0.12793857360E-01  0.16187387693E-01  0.22874744003E-01  0.00000000000E+00 0. -1.
     999901    1    3    3    0    0  0.17006265635E-01  0.21682314483E-02  0.11231023358E+00  0.88730350099E+00  0.88000000000E+00 0.  1.
        -11    1    4    4    0    0 -0.28098991781E-02 -0.12451618286E-01 -0.49983309997E-01  0.51590025495E-01  0.51100000000E-03 0. -1.
         11    1    4    4    0    0 -0.24072580646E-01 -0.25104705222E-02 -0.78514311273E-01  0.82161729515E-01  0.51100000000E-03 0.  1.
</event>
<event>
 8    1  0.1103774E+005  0.1043930E+01  0.7957747E-01            NaN
         13   -1    0    0    0    0  0.00000000000E+00  0.00000000000E+00  0.74505805969E-08  0.10566000000E+00  0.10566000000E+00 0. -1.
     999900   -1    0    0    0    0 -0.00000000000E+00 -0.00000000000E+00 -0.74505805969E-08  0.93827000000E+00  0.93827000000E+00 0.  1.
     999902    2    1    2    0    0 -0.51239854261E-02 -0.13157212392E-01  0.19080091767E-01  0.10201935856E+01  0.10199174157E+01 0.  0.
     999903    2    3    3    0    0 -0.10705229116E+00  0.61239613402E-01 -0.34614044794E-01  0.12957170881E+00  0.19499034163E-01 0.  0.
         14    1    1    2    0    0  0.51239854261E-02  0.13157212392E-01 -0.19080091767E-01  0.23736414355E-01  0.00000000000E+00 0.  1.
     999901    1    3    3    0    0  0.10192830574E+00 -0.74396825795E-01  0.53694136560E-01  0.89062187684E+00  0.88000000000E+00 0. -1.
        -11    1    4    4    0    0 -0.44561547135E-01  0.29394716226E-01 -0.56360138866E-02  0.53682460810E-01  0.51100000000E-03 0.  1.
         11    1    4    4    0    0 -0.62490744029E-01  0.31844897177E-01 -0.28978030907E-01  0.75889247999E-01  0.51100000000E-03 0. -1.
</event>
<event>
 8    1  0.1103774E+005  0.1043930E+01  0.7957747E-01            NaN
         13   -1    0    0    0    0  0.00000000000E+00  0.00000000000E+00  0.74505805969E-08  0.10566000000E+00  0.10566000000E+00 0. -1.
     999900   -1    0    0    0    0 -0.00000000000E+00 -0.00000000000E+00 -0.74505805969E-08  0.93827000000E+00  0.93827000000E+00 0.  1.
     999902    2    1    2    0    0 -0.31861198901E-03 -0.23680575392E-01 -0.92277857395E-03  0.10202293105E+01  0.10199539809E+01 0.  0.
     999903    2    3    3    0    0 -0.10828673089E+00  0.15787590172E-01 -0.67447461887E-01  0.13026280306E+00  0.21070682413E-01 0.  0.
         14    1    1    2    0    0  0.31861198901E-03  0.23680575392E-01  0.92277857395E-03  0.23700689543E-01  0.00000000000E+00 0. -1.
     999901    1    3    3    0    0  0.10796811890E+00 -0.39468165564E-01  0.66524683313E-01  0.88996650739E+00  0.88000000000E+00 0. -1.
        -11    1    4    4    0    0 -0.26154117886E-01  0.10548732830E-01 -0.10131859149E-01  0.29970474430E-01  0.51100000000E-03 0. -1.
         11    1    4    4    0    0 -0.82132613001E-01  0.52388573412E-02 -0.57315602738E-01  0.10029232863E+00  0.51100000000E-03 0.  1.
</event>
<event>
 8    1  0.1103774E+005  0.1043930E+01  0.7957747E-01            NaN
         13   -1    0    0    0    0  0.00000000000E+00  0.00000000000E+00  0.74505805969E-08  0.10566000000E+00  0.10566000000E+00 0. -1.
     999900   -1    0    0    0    0 -0.00000000000E+00 -0.00000000000E+00 -0.74505805969E-08  0.93827000000E+00  0.93827000000E+00 0.  1.
     999902    2    1    2    0    0  0.12452879062E-01 -0.10790823350E-01 -0.16903383848E-01  0.10203240590E+01  0.10200509521E+01 0.  0.
     999903    2    3    3    0    0  0.12670225094E+00 -0.32631285612E-01  0.12295390334E-01  0.13218978244E+00  0.14307367520E-01 0.  0.
         14    1    1    2    0    0 -0.12452879062E-01  0.10790823350E-01  0.16903383848E-01  0.23605941011E-01  0.00000000000E+00 0.  1.
     999901    1    3    3    0    0 -0.11424937187E+00  0.21840462261E-01 -0.29198774182E-01  0.88813427655E+00  0.88000000000E+00 0.  1.
        -11    1    4    4    0    0  0.53236600112E-01 -0.10015732136E-01 -0.98260566812E-03  0.54181889193E-01  0.51100000000E-03 0.  1.
         11    1    4    4    0    0  0.73465650824E-01 -0.22615553476E-01  0.13277996003E-01  0.78007893248E-01  0.51100000000E-03 0. -1.
</event>
<event>
 8    1  0.1103774E+005  0.1043930E+01  0.7957747E-01            NaN
         13   -1    0    0    0    0  0.00000000000E+00  0.00000000000E+00  0.74505805969E-08  0.10566000000E+00  0.10566000000E+00 0.  1.
     999900   -1    0    0    0    0 -0.00000000000E+00 -0.00000000000E+00 -0.74505805969E-08  0.93827000000E+00  0.93827000000E+00 0. -1.
     999902    2    1    2    0    0 -0.20802979663E-01  0.10892162633E-01  0.72572068549E-02  0.10193521600E+01  0.10190558158E+01 0.  0.
     999903    2    3    3    0    0  0.30281227439E-01 -0.11388605016E+00 -0.44494824514E-01  0.12758006388E+00  0.20245941162E-01 0.  0.
         14    1    1    2    0    0  0.20802979663E-01 -0.10892162633E-01 -0.72572068549E-02  0.24577840040E-01  0.00000000000E+00 0.  1.
     999901    1    3    3    0    0 -0.51084207102E-01  0.12477821279E+00  0.51752031369E-01  0.89177209608E+00  0.88000000000E+00 0. -1.
        -11    1    4    4    0    0  0.55311544715E-02 -0.55562277364E-01 -0.25859135419E-01  0.61536301004E-01  0.51100000000E-03 0.  1.
         11    1    4    4    0    0  0.24750072968E-01 -0.58323772797E-01 -0.18635689094E-01  0.66043762872E-01  0.51100000000E-03 0. -1.
</event>
<event>
 8    1  0.1103774E+005  0.1043930E+01  0.7957747E-01            NaN
         13   -1    0    0    0    0  0.00000000000E+00  0.00000000000E+00  0.74505805969E-08  0.10566000000E+00  0.10566000000E+00 0. -1.
     999900   -1    0    0    0    0 -0.00000000000E+00 -0.00000000000E+00 -0.74505805969E-08  0.93827000000E+00  0.93827000000E+00 0.  1.
     999902    2    1    2    0    0  0.16403447386E-01 -0.68501279442E-02  0.15369220465E-01  0.10204308452E+01  0.10201602323E+01 0.  0.
     999903    2    3    3    0    0  0.26847760797E-01 -0.11943432432E+00 -0.42946698698E-01  0.13128235850E+00  0.20131533437E-01 0.  0.
         14    1    1    2    0    0 -0.16403447386E-01  0.68501279442E-02 -0.15369220465E-01  0.23499154808E-01  0.00000000000E+00 0. -1.
     999901    1    3    3    0    0 -0.10444313411E-01  0.11258419638E+00  0.58315919162E-01  0.88914848669E+00  0.88000000000E+00 0.  1.
        -11    1    4    4    0    0 -0.31028527480E-02 -0.18613302683E-01 -0.69617427772E-02  0.20119883584E-01  0.51100000000E-03 0. -1.
         11    1    4    4    0    0  0.29950613545E-01 -0.10082102164E+00 -0.35984955920E-01  0.11116247492E+00  0.51100000000E-03 0.  1.
</event>
<event>
 8    1  0.1103774E+005  0.1043930E+01  0.7957747E-01            NaN
         13   -1    0    0    0    0  0.00000000000E+00  0.00000000000E+00  0.74505805969E-08  0.10566000000E+00  0.10566000000E+00 0.  1.
     999900   -1    0    0    0    0 -0.00000000000E+00 -0.00000000000E+00 -0.74505805969E-08  0.93827000000E+00  0.93827000000E+00 0.  1.
     999902    2    1    2    0    0  0.21156241196E-01  0.88287446097E-03 -0.12511922827E-01  0.10193349960E+01  0.10190382328E+01 0.  0.
     999903    2    3    3    0    0 -0.37049607870E-01 -0.40932781542E-02 -0.12400508894E+00  0.13037863653E+00  0.15228211025E-01 0.  0.
         14    1    1    2    0    0 -0.21156241196E-01 -0.88287446097E-03  0.12511922827E-01  0.24595003999E-01  0.00000000000E+00 0.  1.
     999901    1    3    3    0    0  0.58205849067E-01  0.49761526152E-02  0.11149316611E+00  0.88895635947E+00  0.88000000000E+00 0. -1.
        -11    1    4    4    0    0  0.14475177782E-04 -0.30861945016E-02 -0.11643777388E-01  0.12056677772E-01  0.51100000000E-03 0.  1.
         11    1    4    4    0    0 -0.37064083048E-01 -0.10070836526E-02 -0.11236131155E+00  0.11832195876E+00  0.51100000000E-03 0. -1.
</event>
<event>
 8    1  0.1103774E+005  0.1043930E+01  0.7957747E-01            NaN
         13   -1    0    0    0    0  0.00000000000E+00  0.00000000000E+00  0.74505805969E-08  0.10566000000E+00  0.10566000000E+00 0.  1.
     999900   -1    0    0    0    0 -0.00000000000E+00 -0.00000000000E+00 -0.74505805969E-08  0.93827000000E+00  0.93827000000E+00 0. -1.
     999902    2    1    2    0    0  0.61552004592E-02  0.21432401396E-01 -0.73185283309E-02  0.10204609740E+01  0.10201910627E+01 0.  0.
     999903    2    3    3    0    0  0.82763355007E-01  0.10366820285E+00 -0.24156929288E-02  0.13329944750E+00  0.12885570174E-01 0.  0.
         14    1    1    2    0    0 -0.61552004592E-02 -0.21432401396E-01  0.73185283309E-02  0.23469025953E-01  0.00000000000E+00 0.  1.
     999901    1    3    3    0    0 -0.76608154548E-01 -0.82235801452E-01 -0.49028354021E-02  0.88716152654E+00  0.88000000000E+00 0. -1.
        -11    1    4    4    0    0  0.31407882876E-01  0.40101611636E-01 -0.71608667050E-02  0.51440582185E-01  0.51100000000E-03 0. -1.
         11    1    4    4    0    0  0.51355472131E-01  0.63566591211E-01  0.47451737762E-02  0.81858865318E-01  0.51100000000E-03 0.  1.
</event>
<event>
 8    1  0.1103774E+005  0.1043930E+01  0.7957747E-01            NaN
         13   -1    0    0    0    0  0.00000000000E+00  0.00000000000E+00  0.74505805969E-08  0.10566000000E+00  0.10566000000E+00 0. -1.
     999900   -1    0    0    0    0 -0.00000000000E+00 -0.00000000000E+00 -0.74505805969E-08  0.93827000000E+00  0.93827000000E+00 0.  1.
     999902    2    1    2    0    0  0.14852265635E-01 -0.13075906296E-01 -0.14476477404E-01  0.10194118941E+01  0.10191170062E+01 0.  0.
     999903    2    3    3    0    0  0.47537011593E-01 -0.10853698417E+00 -0.56572409322E-01  0.13264632332E+00  0.18829901478E-01 0.  0.
         14    1    1    2    0    0 -0.14852265635E-01  0.13075906296E-01  0.14476477404E-01  0.24518105921E-01  0.00000000000E+00 0. -1.
     999901    1    3    3    0    0 -0.32684745959E-01  0.95461077870E-01  0.42095931918E-01  0.88676557076E+00  0.88000000000E+00 0. -1.
        -11    1    4    4    0    0  0.18714919319E-01 -0.41898864875E-01 -0.32190958971E-01  0.56056061611E-01  0.51100000000E-03 0. -1.
         11    1    4    4    0    0  0.28822092274E-01 -0.66638119291E-01 -0.24381450351E-01  0.76590261704E-01  0.51100000000E-03 0.  1.
</event>
<event>
 8    1  0.1103774E+005  0.1043930E+01  0.7957747E-01            NaN
         13   -1    0    0    0    0  0.00000000000E+00  0.00000000000E+00  0.74505805969E-08  0.10566000000E+00  0.10566000000E+00 0.  1.
     999900   -1    0    0    0    0 -0.00000000000E+00 -0.00000000000E+00 -0.74505805969E-08  0.93827000000E+00  0.93827000000E+00 0. -1.
     999902    2    1    2    0    0 -0.13178951166E-02  0.23330463285E-01  0.20750927511E-02  0.10204703884E+01  0.10202006961E+01 0.  0.
     999903    2    3    3    0    0  0.80429980804E-01  0.84583204083E-01  0.59958421876E-01  0.13267249857E+00  0.19587733328E-01 0.  0.
         14    1    1    2    0    0  0.13178951166E-02 -0.23330463285E-01 -0.20750927511E-02  0.23459611561E-01  0.00000000000E+00 0.  1.
     999901    1    3    3    0    0 -0.81747875921E-01 -0.61252740798E-01 -0.57883329125E-01  0.88779788987E+00  0.88000000000E+00 0. -1.
        -11    1    4    4    0    0  0.37876931080E-01  0.49310930449E-01  0.23580095890E-01  0.66501968490E-01  0.51100000000E-03 0. -1.
         11    1    4    4    0    0  0.42553049724E-01  0.35272273634E-01  0.36378325986E-01  0.66170530077E-01  0.51100000000E-03 0.  1.
</event>
<event>
 8    1  0.1103774E+005  0.1043930E+01  0.7957747E-01            NaN
         13   -1    0    0    0    0  0.00000000000E+00  0.00000000000E+00  0.74505805969E-08  0.10566000000E+00  0.10566000000E+00 0. -1.
     999900   -1    0    0    0    0 -0.00000000000E+00 -0.00000000000E+00 -0.74505805969E-08  0.93827000000E+00  0.93827000000E+00 0. -1.
     999902    2    1    2    0    0 -0.19889263479E-01  0.79112956200E-02  0.10115874803E-01  0.10202550697E+01  0.10199803454E+01 0.  0.
     999903    2    3    3    0    0 -0.63313504173E-01 -0.21639816570E-01 -0.11026551885E+00  0.13050757024E+00  0.19921339613E-01 0.  0.
         14    1    1    2    0    0  0.19889263479E-01 -0.79112956200E-02 -0.10115874803E-01  0.23674930268E-01  0.00000000000E+00 0.  1.
     999901    1    3    3    0    0  0.43424240694E-01  0.29551112190E-01  0.12038139365E+00  0.88974749949E+00  0.88000000000E+00 0.  1.
        -11    1    4    4    0    0 -0.50411240716E-01 -0.12548132995E-01 -0.96329220649E-01  0.10944555132E+00  0.51100000000E-03 0. -1.
         11    1    4    4    0    0 -0.12902263458E-01 -0.90916835749E-02 -0.13936298199E-01  0.21062018921E-01  0.51100000000E-03 0.  1.
</event>
<event>
 8    1  0.1103774E+005  0.1043930E+01  0.7957747E-01            NaN
         13   -1    0    0    0    0  0.00000000000E+00  0.00000000000E+00  0.74505805969E-08  0.10566000000E+00  0.10566000000E+00 0. -1.
     999900   -1    0    0    0    0 -0.00000000000E+00 -0.00000000000E+00 -0.74505805969E-08  0.93827000000E+00  0.93827000000E+00 0.  1.
     999902    2    1    2    0    0  0.15119876290E-01  0.13345542151E-01 -0.12426404715E-01  0.10202418239E+01  0.10199667884E+01 0.  0.
     999903    2    3    3    0    0 -0.32501819585E-01 -0.11724795793E+00 -0.37730978875E-01  0.12897148909E+00  0.20163489664E-01 0.  0.
         14    1    1    2    0    0 -0.15119876290E-01 -0.13345542151E-01  0.12426404715E-01  0.23688176132E-01  0.00000000000E+00 0. -1.
     999901    1    3    3    0    0  0.47621695875E-01  0.13059350008E+00  0.25304574160E-01  0.89127033478E+00  0.88000000000E+00 0.  1.
        -11    1    4    4    0    0 -0.22813333305E-01 -0.53183841165E-01 -0.24473225660E-01  0.62834457368E-01  0.51100000000E-03 0.  1.
         11    1    4    4    0    0 -0.96884862798E-02 -0.64064116768E-01 -0.13257753215E-01  0.66137031722E-01  0.51100000000E-03 0. -1.
</event>
<event>
 8    1  0.1103774E+005  0.1043930E+01  0.7957747E-01            NaN
         13   -1    0    0    0    0  0.00000000000E+00  0.00000000000E+00  0.74505805969E-08  0.10566000000E+00  0.10566000000E+00 0. -1.
     999900   -1    0    0    0    0 -0.00000000000E+00 -0.00000000000E+00 -0.74505805969E-08  0.93827000000E+00  0.93827000000E+00 0.  1.
     999902    2    1    2    0    0  0.21990454361E-02 -0.54744003305E-02 -0.23303701574E-01  0.10198911280E+01  0.10196077901E+01 0.  0.
     999903    2    3    3    0    0 -0.52377285025E-01 -0.11308229919E+00 -0.36971874348E-01  0.13155287334E+00  0.20205262057E-01 0.  0.
         14    1    1    2    0    0 -0.21990454361E-02  0.54744003305E-02  0.23303701574E-01  0.24038871996E-01  0.00000000000E+00 0. -1.
     999901    1    3    3    0    0  0.54576330461E-01  0.10760789886E+00  0.13668172774E-01  0.88833825466E+00  0.88000000000E+00 0.  1.
        -11    1    4    4    0    0 -0.48962499584E-01 -0.99522504706E-01 -0.38657008165E-01  0.11745927256E+00  0.51100000000E-03 0.  1.
         11    1    4    4    0    0 -0.34147854409E-02 -0.13559794488E-01  0.16851338167E-02  0.14093600787E-01  0.51100000000E-03 0. -1.
</event>
<event>
 8    1  0.1103774E+005  0.1043930E+01  0.7957747E-01            NaN
         13   -1    0    0    0    0  0.00000000000E+00  0.00000000000E+00  0.74505805969E-08  0.10566000000E+00  0.10566000000E+00 0.  1.
     999900   -1    0    0    0    0 -0.00000000000E+00 -0.00000000000E+00 -0.74505805969E-08  0.93827000000E+00  0.93827000000E+00 0. -1.
     999902    2    1    2    0    0  0.23349853866E-01 -0.45689204658E-02  0.30332800672E-02  0.10199447650E+01  0.10196627051E+01 0.  0.
     999903    2    3    3    0    0 -0.84461351514E-02 -0.11474910160E+00 -0.57717704317E-01  0.13042728944E+00  0.21005973482E-01 0.  0.
         14    1    1    2    0    0 -0.23349853866E-01  0.45689204658E-02 -0.30332800672E-02  0.23985234994E-01  0.00000000000E+00 0.  1.
     999901    1    3    3    0    0  0.31795989017E-01  0.11018018113E+00  0.60750984384E-01  0.88951747557E+00  0.88000000000E+00 0. -1.
        -11    1    4    4    0    0 -0.67332894628E-02 -0.52235653565E-01 -0.37665388990E-01  0.64752168606E-01  0.51100000000E-03 0.  1.
         11    1    4    4    0    0 -0.17128456886E-02 -0.62513448036E-01 -0.20052315327E-01  0.65675120835E-01  0.51100000000E-03 0. -1.
</event>
<event>
 8    1  0.1103774E+005  0.1043930E+01  0.7957747E-01            NaN
         13   -1    0    0    0    0  0.00000000000E+00  0.00000000000E+00  0.74505805969E-08  0.10566000000E+00  0.10566000000E+00 0. -1.
     999900   -1    0    0    0    0 -0.00000000000E+00 -0.00000000000E+00 -0.74505805969E-08  0.93827000000E+00  0.93827000000E+00 0.  1.
     999902    2    1    2    0    0  0.19066403149E-01  0.84628460076E-02  0.10651806973E-01  0.10205076072E+01  0.10202387799E+01 0.  0.
     999903    2    3    3    0    0  0.10188878362E+00 -0.64061758093E-01 -0.49290433405E-01  0.13162491694E+00  0.20256822471E-01 0.  0.
         14    1    1    2    0    0 -0.19066403149E-01 -0.84628460076E-02 -0.10651806973E-01  0.23422392777E-01  0.00000000000E+00 0.  1.
     999901    1    3    3    0    0 -0.82822380469E-01  0.72524604101E-01  0.59942240377E-01  0.88888269028E+00  0.88000000000E+00 0. -1.
        -11    1    4    4    0    0  0.50992191776E-01 -0.28752726658E-01 -0.34444829224E-01  0.67923709363E-01  0.51100000000E-03 0. -1.
         11    1    4    4    0    0  0.50896591842E-01 -0.35309031436E-01 -0.14845604181E-01  0.63701207575E-01  0.51100000000E-03 0.  1.
</event>
<event>
 8    1  0.1103774E+005  0.1043930E+01  0.7957747E-01            NaN
         13   -1    0    0    0    0  0.00000000000E+00  0.00000000000E+00  0.74505805969E-08  0.10566000000E+00  0.10566000000E+00 0. -1.
     999900   -1    0    0    0    0 -0.00000000000E+00 -0.00000000000E+00 -0.74505805969E-08  0.93827000000E+00  0.93827000000E+00 0.  1.
     999902    2    1    2    0    0 -0.22444425006E-01 -0.72358832181E-03 -0.72940822276E-02  0.10203189977E+01  0.10200457723E+01 0.  0.
     999903    2    3    3    0    0 -0.93762254784E-02 -0.49486579474E-01 -0.12004569427E+00  0.13168997884E+00  0.19860681339E-01 0.  0.
         14    1    1    2    0    0  0.22444425006E-01  0.72358832181E-03  0.72940822276E-02  0.23611002297E-01  0.00000000000E+00 0.  1.
     999901    1    3    3    0    0 -0.13068199528E-01  0.48762991153E-01  0.11275161204E+00  0.88862901886E+00  0.88000000000E+00 0. -1.
        -11    1    4    4    0    0 -0.93920192197E-02 -0.72474009211E-02 -0.28023265252E-01  0.30435166527E-01  0.51100000000E-03 0. -1.
         11    1    4    4    0    0  0.15793741350E-04 -0.42239178553E-01 -0.92022429014E-01  0.10125481231E+00  0.51100000000E-03 0.  1.
</event>
<event>
 8    1  0.1213947E+005  0.1043930E+01  0.7957747E-01            NaN
         13   -1    0    0    0    0  0.00000000000E+00  0.00000000000E+00  0.74505805969E-08  0.10566000000E+00  0.10566000000E+00 0.  1.
     999900   -1    0    0    0    0 -0.00000000000E+00 -0.00000000000E+00 -0.74505805969E-08  0.93827000000E+00  0.93827000000E+00 0. -1.
     999902    2    1    2    0    0 -0.91245659812E-02  0.34938272036E-01 -0.88588218631E-02  0.10067491006E+01  0.10060622904E+01 0.  0.
     999903    2    3    3    0    0 -0.48153348424E-01  0.73171950669E-01  0.80318127633E-01  0.12055635159E+00  0.20247294932E-01 0.  0.
         14    1    1    2    0    0  0.91245659812E-02 -0.34938272036E-01  0.88588218631E-02  0.37180899424E-01  0.00000000000E+00 0.  1.
     999901    1    3    3    0    0  0.39028782443E-01 -0.38233678634E-01 -0.89176949496E-01  0.88619274899E+00  0.88000000000E+00 0. -1.
        -11    1    4    4    0    0 -0.77357951242E-02  0.29038506988E-01  0.27277025682E-01  0.40587863523E-01  0.51100000000E-03 0. -1.
         11    1    4    4    0    0 -0.40417553300E-01  0.44133443681E-01  0.53041101951E-01  0.79968488063E-01  0.51100000000E-03 0.  1.
</event>
<event>
 8    1  0.1103774E+005  0.1043930E+01  0.7957747E-01            NaN
         13   -1    0    0    0    0  0.00000000000E+00  0.00000000000E+00  0.74505805969E-08  0.10566000000E+00  0.10566000000E+00 0. -1.
     999900   -1    0    0    0    0 -0.00000000000E+00 -0.00000000000E+00 -0.74505805969E-08  0.93827000000E+00  0.93827000000E+00 0. -1.
     999902    2    1    2    0    0 -0.22456485679E-01 -0.83872860653E-02  0.75619302885E-02  0.10187939083E+01  0.10184837772E+01 0.  0.
     999903    2    3    3    0    0 -0.31655543879E-01 -0.73761771864E-01  0.10189327864E+00  0.13129357063E+00  0.20319670535E-01 0.  0.
         14    1    1    2    0    0  0.22456485679E-01  0.83872860653E-02 -0.75619302885E-02  0.25136091707E-01  0.00000000000E+00 0.  1.
     999901    1    3    3    0    0  0.91990581997E-02  0.65374485799E-01 -0.94331348352E-01  0.88750033766E+00  0.88000000000E+00 0. -1.
        -11    1    4    4    0    0 -0.10168279114E-01 -0.48834934740E-01  0.61690370853E-01  0.79336043058E-01  0.51100000000E-03 0. -1.
         11    1    4    4    0    0 -0.21487264765E-01 -0.24926837125E-01  0.40202907788E-01  0.51957527575E-01  0.51100000000E-03 0.  1.
</event>
<event>
 8    1  0.1103774E+005  0.1043930E+01  0.7957747E-01            NaN
         13   -1    0    0    0    0  0.00000000000E+00  0.00000000000E+00  0.74505805969E-08  0.10566000000E+00  0.10566000000E+00 0.  1.
     999900   -1    0    0    0    0 -0.00000000000E+00 -0.00000000000E+00 -0.74505805969E-08  0.93827000000E+00  0.93827000000E+00 0.  1.
     999902    2    1    2    0    0  0.15762672774E-01 -0.17597469650E-01  0.34220361455E-02  0.10200586129E+01  0.10197792558E+01 0.  0.
     999903    2    3    3    0    0  0.37024987147E-01  0.41698397093E-01 -0.11545582851E+00  0.12983390388E+00  0.20425187072E-01 0.  0.
         14    1    1    2    0    0 -0.15762672774E-01  0.17597469650E-01 -0.34220361455E-02  0.23871387107E-01  0.00000000000E+00 0. -1.
     999901    1    3    3    0    0 -0.21262314373E-01 -0.59295866743E-01  0.11887786466E+00  0.89022470901E+00  0.88000000000E+00 0. -1.
        -11    1    4    4    0    0  0.62729162109E-02 -0.52472929189E-03 -0.20589565506E-01  0.21536391233E-01  0.51100000000E-03 0.  1.
         11    1    4    4    0    0  0.30752070936E-01  0.42223126385E-01 -0.94866263006E-01  0.10829751265E+00  0.51100000000E-03 0. -1.
</event>
<event>
 8    1  0.1103774E+005  0.1043930E+01  0.7957747E-01            NaN
         13   -1    0    0    0    0  0.00000000000E+00  0.00000000000E+00  0.74505805969E-08  0.10566000000E+00  0.10566000000E+00 0. -1.
     999900   -1    0    0    0    0 -0.00000000000E+00 -0.00000000000E+00 -0.74505805969E-08  0.93827000000E+00  0.93827000000E+00 0. -1.
     999902    2    1    2    0    0  0.20231101845E-01  0.89186142010E-02  0.81198012310E-02  0.10203764369E+01  0.10201045548E+01 0.  0.
     999903    2    3    3    0    0  0.40911407643E-01 -0.11517128667E+00  0.42164620420E-01  0.13077819713E+00  0.19670106248E-01 0.  0.
         14    1    1    2    0    0 -0.20231101845E-01 -0.89186142010E-02 -0.81198012310E-02  0.23553563067E-01  0.00000000000E+00 0.  1.
     999901    1    3    3    0    0 -0.20680305798E-01  0.12408990088E+00 -0.34044819190E-01  0.88959823980E+00  0.88000000000E+00 0. -1.
        -11    1    4    4    0    0  0.10828517902E-01 -0.59763811801E-01  0.20042505816E-01  0.63960403073E-01  0.51100000000E-03 0.  1.
         11    1    4    4    0    0  0.30082889741E-01 -0.55407474873E-01  0.22122114605E-01  0.66817794057E-01  0.51100000000E-03 0. -1.
</event>
<event>
 8    1  0.1103774E+005  0.1043930E+01  0.7957747E-01            NaN
         13   -1    0    0    0    0  0.00000000000E+00  0.00000000000E+00  0.74505805969E-08  0.10566000000E+00  0.10566000000E+00 0.  1.
     999900   -1    0    0    0    0 -0.00000000000E+00 -0.00000000000E+00 -0.74505805969E-08  0.93827000000E+00  0.93827000000E+00 0. -1.
     999902    2    1    2    0    0  0.10447815586E-01 -0.12457246078E-01  0.18863772133E-01  0.10190265519E+01  0.10187222053E+01 0.  0.
     999903    2    3    3    0    0 -0.12220626098E+00  0.28800263798E-01  0.14713632365E-01  0.12811886314E+00  0.20835707289E-01 0.  0.
         14    1    1    2    0    0 -0.10447815586E-01  0.12457246078E-01 -0.18863772133E-01  0.24903448144E-01  0.00000000000E+00 0. -1.
     999901    1    3    3    0    0  0.13265407656E+00 -0.41257509876E-01  0.41501397674E-02  0.89090768871E+00  0.88000000000E+00 0. -1.
        -11    1    4    4    0    0 -0.35259210811E-01  0.73620911760E-02  0.13758635759E-01  0.38561295523E-01  0.51100000000E-03 0.  1.
         11    1    4    4    0    0 -0.86947050168E-01  0.21438172622E-01  0.95499660583E-03  0.89557567619E-01  0.51100000000E-03 0. -1.
</event>
<event>
 8    1  0.1103774E+005  0.1043930E+01  0.7957747E-01            NaN
         13   -1    0    0    0    0  0.00000000000E+00  0.00000000000E+00  0.74505805969E-08  0.10566000000E+00  0.10566000000E+00 0.  1.
     999900   -1    0    0    0    0 -0.00000000000E+00 -0.00000000000E+00 -0.74505805969E-08  0.93827000000E+00  0.93827000000E+00 0. -1.
     999902    2    1    2    0    0  0.11656435420E-01  0.16947561380E-01  0.13545268235E-01  0.10193014269E+01  0.10190038431E+01 0.  0.
     999903    2    3    3    0    0  0.33598095693E-01  0.89538523246E-01  0.89787976202E-01  0.13275541298E+00  0.20399505551E-01 0.  0.
         14    1    1    2    0    0 -0.11656435420E-01 -0.16947561380E-01 -0.13545268235E-01  0.24628573141E-01  0.00000000000E+00 0. -1.
     999901    1    3    3    0    0 -0.21941660273E-01 -0.72590961866E-01 -0.76242707967E-01  0.88654601388E+00  0.88000000000E+00 0. -1.
        -11    1    4    4    0    0  0.87288103899E-02  0.91828065356E-02  0.18857119322E-01  0.22723735098E-01  0.51100000000E-03 0. -1.
         11    1    4    4    0    0  0.24869285303E-01  0.80355716710E-01  0.70930856880E-01  0.11003167789E+00  0.51100000000E-03 0.  1.
</event>
<event>
 8    1  0.1103774E+005  0.1043930E+01  0.7957747E-01            NaN
         13   -1    0    0    0    0  0.00000000000E+00  0.00000000000E+00  0.74505805969E-08  0.10566000000E+00  0.10566000000E+00 0. -1.
     999900   -1    0    0    0    0 -0.00000000000E+00 -0.00000000000E+00 -0.74505805969E-08  0.93827000000E+00  0.93827000000E+00 0.  1.
     999902    2    1    2    0    0 -0.32074350298E-02  0.17857622096E-01 -0.14577384639E-01  0.10206559275E+01  0.10203905331E+01 0.  0.
     999903    2    3    3    0    0 -0.76532403373E-01  0.45085754264E-01  0.93611106927E-01  0.13058701342E+00  0.19999868236E-01 0.  0.
         14    1    1    2    0    0  0.32074350298E-02 -0.17857622096E-01  0.14577384639E-01  0.23274072469E-01  0.00000000000E+00 0. -1.
     999901    1    3    3    0    0  0.73324968343E-01 -0.27228132168E-01 -0.10818849157E+00  0.89006891411E+00  0.88000000000E+00 0.  1.
        -11    1    4    4    0    0 -0.20694952575E-01  0.18386655079E-01  0.40322095066E-01  0.48913010729E-01  0.51100000000E-03 0.  1.
         11    1    4    4    0    0 -0.55837450798E-01  0.26699099185E-01  0.53289011861E-01  0.81674002688E-01  0.51100000000E-03 0. -1.
</event>
<event>
 8    1  0.1103774E+005  0.1043930E+01  0.7957747E-01            NaN
         13   -1    0    0    0    0  0.00000000000E+00  0.00000000000E+00  0.74505805969E-08  0.10566000000E+00  0.10566000000E+00 0.  1.
     999900   -1    0    0    0    0 -0.00000000000E+00 -0.00000000000E+00 -0.74505805969E-08  0.93827000000E+00  0.93827000000E+00 0. -1.
     999902    2    1    2    0    0  0.25190244488E-02 -0.58280776770E-02  0.23197517708E-01  0.10198792869E+01  0.10195956664E+01 0.  0.
     999903    2    3    3    0    0 -0.53797369854E-01  0.53316008760E-01  0.10650591176E+00  0.13218009924E+00  0.19781698660E-01 0.  0.
         14    1    1    2    0    0 -0.25190244488E-02  0.58280776770E-02 -0.23197517708E-01  0.24050713116E-01  0.00000000000E+00 0. -1.
     999901    1    3    3    0    0  0.56316394303E-01 -0.59144086437E-01 -0.83308394050E-01  0.88769918765E+00  0.88000000000E+00 0. -1.
        -11    1    4    4    0    0 -0.31022033338E-01  0.27614775742E-01  0.74172683751E-01  0.85010531862E-01  0.51100000000E-03 0. -1.
         11    1    4    4    0    0 -0.22775336516E-01  0.25701233017E-01  0.32333228007E-01  0.47169567376E-01  0.51100000000E-03 0.  1.
</event>
<event>
 8    1  0.1103774E+005  0.1043930E+01  0.7957747E-01            NaN
         13   -1    0    0    0    0  0.00000000000E+00  0.00000000000E+00  0.74505805969E-08  0.10566000000E+00  0.10566000000E+00 0. -1.
     999900   -1    0    0    0    0 -0.00000000000E+00 -0.00000000000E+00 -0.74505805969E-08  0.93827000000E+00  0.93827000000E+00 0.  1.
     999902    2    1    2    0    0  0.21039037752E-01 -0.95722102383E-02  0.54042103894E-02  0.10201923967E+01  0.10199161988E+01 0.  0.
     999903    2    3    3    0    0 -0.89566075819E-01  0.88134660418E-01  0.11956063000E-01  0.12787908266E+00  0.20501512988E-01 0.  0.
         14    1    1    2    0    0 -0.21039037752E-01  0.95722102383E-02 -0.54042103894E-02  0.23737603255E-01  0.00000000000E+00 0. -1.
     999901    1    3    3    0    0  0.11060511357E+00 -0.97706870656E-01 -0.65518526102E-02  0.89231331409E+00  0.88000000000E+00 0. -1.
        -11    1    4    4    0    0 -0.13947815433E-01  0.25436543561E-01  0.45500916813E-02  0.29368754808E-01  0.51100000000E-03 0. -1.
         11    1    4    4    0    0 -0.75618260386E-01  0.62698116857E-01  0.74059713182E-02  0.98510327851E-01  0.51100000000E-03 0.  1.
</event>
<event>
 8    1  0.1103774E+005  0.1043930E+01  0.7957747E-01            NaN
         13   -1    0    0    0    0  0.00000000000E+00  0.00000000000E+00  0.74505805969E-08  0.10566000000E+00  0.10566000000E+00 0. -1.
     999900   -1    0    0    0    0 -0.00000000000E+00 -0.00000000000E+00 -0.74505805969E-08  0.93827000000E+00  0.93827000000E+00 0.  1.
     999902    2    1    2    0    0  0.22336517764E-01 -0.34528490784E-02  0.41545015814E-03  0.10213243637E+01  0.10210741605E+01 0.  0.
     999903    2    3    3    0    0 -0.34475526984E-02  0.16451833442E-01 -0.12877497454E+00  0.13129561109E+00  0.19313078002E-01 0.  0.
         14    1    1    2    0    0 -0.22336517764E-01  0.34528490784E-02 -0.41545015814E-03  0.22605636275E-01  0.00000000000E+00 0.  1.
     999901    1    3    3    0    0  0.25784070462E-01 -0.19904682520E-01  0.12919042470E+00  0.89002875263E+00  0.88000000000E+00 0. -1.
        -11    1    4    4    0    0 -0.21039612158E-02  0.26172448780E-02 -0.90634021332E-01  0.90697649184E-01  0.51100000000E-03 0. -1.
         11    1    4    4    0    0 -0.13435914826E-02  0.13834588564E-01 -0.38140953207E-01  0.40597961911E-01  0.51100000000E-03 0.  1.
</event>
<event>
 8    1  0.1103774E+005  0.1043930E+01  0.7957747E-01            NaN
         13   -1    0    0    0    0  0.00000000000E+00  0.00000000000E+00  0.74505805969E-08  0.10566000000E+00  0.10566000000E+00 0.  1.
     999900   -1    0    0    0    0 -0.00000000000E+00 -0.00000000000E+00 -0.74505805969E-08  0.93827000000E+00  0.93827000000E+00 0.  1.
     999902    2    1    2    0    0 -0.23654951194E-01  0.45688415800E-03  0.71902076857E-02  0.10192021908E+01  0.10189021745E+01 0.  0.
     999903    2    3    3    0    0 -0.55508799734E-01 -0.38332617199E-01  0.11104404295E+00  0.13167477595E+00  0.21374067416E-01 0.  0.
         14    1    1    2    0    0  0.23654951194E-01 -0.45688415800E-03 -0.71902076857E-02  0.24727809156E-01  0.00000000000E+00 0. -1.
     999901    1    3    3    0    0  0.31853848540E-01  0.38789501357E-01 -0.10385383527E+00  0.88752741489E+00  0.88000000000E+00 0.  1.
        -11    1    4    4    0    0 -0.41865301342E-01 -0.16689378828E-01  0.74175590499E-01  0.86795841888E-01  0.51100000000E-03 0.  1.
         11    1    4    4    0    0 -0.13643498391E-01 -0.21643238371E-01  0.36868452453E-01  0.44878934065E-01  0.51100000000E-03 0. -1.
</event>
<event>
 8    1  0.1103774E+005  0.1043930E+01  0.7957747E-01            NaN
         13   -1    0    0    0    0  0.00000000000E+00  0.00000000000E+00  0.74505805969E-08  0.10566000000E+00  0.10566000000E+00 0. -1.
     999900   -1    0    0    0    0 -0.00000000000E+00 -0.00000000000E+00 -0.74505805969E-08  0.93827000000E+00  0.93827000000E+00 0. -1.
     999902    2    1    2    0    0 -0.20479723243E-01 -0.99467753977E-02 -0.76376445572E-02  0.10199156081E+01  0.10196328538E+01 0.  0.
     999903    2    3    3    0    0 -0.37460427611E-01  0.23467421223E-01 -0.12237655597E+00  0.13167584841E+00  0.20211484569E-01 0.  0.
         14    1    1    2    0    0  0.20479723243E-01  0.99467753977E-02  0.76376445572E-02  0.24014391921E-01  0.00000000000E+00 0.  1.
     999901    1    3    3    0    0  0.16980704368E-01 -0.33414196621E-01  0.11473891142E+00  0.88823975966E+00  0.88000000000E+00 0.  1.
        -11    1    4    4    0    0 -0.15905263290E-01 -0.75030453958E-03 -0.46797171778E-01  0.49434570541E-01  0.51100000000E-03 0. -1.
         11    1    4    4    0    0 -0.21555164321E-01  0.24217725763E-01 -0.75579384194E-01  0.82241277873E-01  0.51100000000E-03 0.  1.
</event>
<event>
 8    1  0.1103774E+005  0.1043930E+01  0.7957747E-01            NaN
         13   -1    0    0    0    0  0.00000000000E+00  0.00000000000E+00  0.74505805969E-08  0.10566000000E+00  0.10566000000E+00 0.  1.
     999900   -1    0    0    0    0 -0.00000000000E+00 -0.00000000000E+00 -0.74505805969E-08  0.93827000000E+00  0.93827000000E+00 0. -1.
     999902    2    1    2    0    0 -0.11657692338E-01  0.19274436075E-01  0.13828541819E-02  0.10213619260E+01  0.10211125628E+01 0.  0.
     999903    2    3    3    0    0 -0.64831009367E-01 -0.10347273199E+00 -0.41007309477E-01  0.13024397936E+00  0.19293229116E-01 0.  0.
         14    1    1    2    0    0  0.11657692338E-01 -0.19274436075E-01 -0.13828541819E-02  0.22568073961E-01  0.00000000000E+00 0. -1.
     999901    1    3    3    0    0  0.53173317030E-01  0.12274716806E+00  0.42390163659E-01  0.89111794667E+00  0.88000000000E+00 0.  1.
        -11    1    4    4    0    0 -0.36109861956E-01 -0.47396569854E-01 -0.28316344514E-01  0.65972975165E-01  0.51100000000E-03 0. -1.
         11    1    4    4    0    0 -0.28721147411E-01 -0.56076162132E-01 -0.12690964962E-01  0.64271004199E-01  0.51100000000E-03 0.  1.
</event>
<event>
 8    1  0.1103774E+005  0.1043930E+01  0.7957747E-01            NaN
         13   -1    0    0    0    0  0.00000000000E+00  0.00000000000E+00  0.74505805969E-08  0.10566000000E+00  0.10566000000E+00 0.  1.
     999900   -1    0    0    0    0 -0.00000000000E+00 -0.00000000000E+00 -0.74505805969E-08  0.93827000000E+00  0.93827000000E+00 0.  1.
     999902    2    1    2    0    0  0.17328294337E-01 -0.15100855809E-01 -0.18178815491E-02  0.10208733237E+01  0.10206129201E+01 0.  0.
     999903    2    3    3    0    0  0.33121242296E-01  0.12383379414E+00  0.18773269283E-02  0.12982567693E+00  0.20478202357E-01 0.  0.
         14    1    1    2    0    0 -0.17328294337E-01  0.15100855809E-01  0.18178815491E-02  0.23056676346E-01  0.00000000000E+00 0. -1.
     999901    1    3    3    0    0 -0.15792947959E-01 -0.13893464995E+00 -0.36952084774E-02  0.89104764672E+00  0.88000000000E+00 0. -1.
        -11    1    4    4    0    0  0.30161974206E-01  0.74965200093E-01  0.28113890832E-02  0.80855988910E-01  0.51100000000E-03 0. -1.
         11    1    4    4    0    0  0.29592680899E-02  0.48868594049E-01 -0.93406215489E-03  0.48969688023E-01  0.51100000000E-03 0.  1.
</event>
<event>
 8    1  0.1103774E+005  0.1043930E+01  0.7957747E-01            NaN
         13   -1    0    0    0    0  0.00000000000E+00  0.00000000000E+00  0.74505805969E-08  0.10566000000E+00  0.10566000000E+00 0.  1.
     999900   -1    0    0    0    0 -0.00000000000E+00 -0.00000000000E+00 -0.74505805969E-08  0.93827000000E+00  0.93827000000E+00 0.  1.
     999902    2    1    2    0    0  0.19179560103E-01 -0.16983625599E-01 -0.48260692763E-02  0.10178610528E+01  0.10175271656E+01 0.  0.
     999903    2    3    3    0    0 -0.11003837143E+00  0.32437285765E-02  0.57932784611E-01  0.12598376670E+00  0.19918257412E-01 0.  0.
         14    1    1    2    0    0 -0.19179560103E-01  0.16983625599E-01  0.48260692763E-02  0.26068947215E-01  0.00000000000E+00 0.  1.
     999901    1    3    3    0    0  0.12921793153E+00 -0.20227354176E-01 -0.62758853888E-01  0.89187728608E+00  0.88000000000E+00 0.  1.
        -11    1    4    4    0    0 -0.52511866588E-01 -0.45849299905E-02  0.36399666744E-01  0.64060241770E-01  0.51100000000E-03 0.  1.
         11    1    4    4    0    0 -0.57526504840E-01  0.78286585671E-02  0.21533117867E-01  0.61923524933E-01  0.51100000000E-03 0. -1.
</event>
<event>
 8    1  0.1103774E+005  0.1043930E+01  0.7957747E-01            NaN
         13   -1    0    0    0    0  0.00000000000E+00  0.00000000000E+00  0.74505805969E-08  0.10566000000E+00  0.10566000000E+00 0. -1.
     999900   -1    0    0    0    0 -0.00000000000E+00 -0.00000000000E+00 -0.74505805969E-08  0.93827000000E+00  0.93827000000E+00 0. -1.
     999902    2    1    2    0    0  0.21202463218E-01  0.68954408301E-02  0.77407249082E-02  0.10203289328E+01  0.10200559400E+01 0.  0.
     999903    2    3    3    0    0 -0.89310704081E-01  0.74124692191E-01 -0.52276776184E-01  0.12884980639E+00  0.19963452201E-01 0.  0.
         14    1    1    2    0    0 -0.21202463218E-01 -0.68954408301E-02 -0.77407249082E-02  0.23601067197E-01  0.00000000000E+00 0.  1.
     999901    1    3    3    0    0  0.11051316730E+00 -0.67229251361E-01  0.60017501092E-01  0.89147912641E+00  0.88000000000E+00 0. -1.
        -11    1    4    4    0    0 -0.54411835008E-01  0.56200978694E-01 -0.30392955027E-01  0.83923719122E-01  0.51100000000E-03 0.  1.
         11    1    4    4    0    0 -0.34898869074E-01  0.17923713497E-01 -0.21883821157E-01  0.44926087272E-01  0.51100000000E-03 0. -1.
</event>
<event>
 8    1  0.1103774E+005  0.1043930E+01  0.7957747E-01            NaN
         13   -1    0    0    0    0  0.00000000000E+00  0.00000000000E+00  0.74505805969E-08  0.10566000000E+00  0.10566000000E+00 0. -1.
     999900   -1    0    0    0    0 -0.00000000000E+00 -0.00000000000E+00 -0.74505805969E-08  0.93827000000E+00  0.93827000000E+00 0.  1.
     999902    2    1    2    0    0 -0.78451501628E-02 -0.17904091025E-01 -0.13438694083E-01  0.10202086730E+01  0.10199328581E+01 0.  0.
     999903    2    3    3    0    0 -0.11562584986E+00 -0.39663987158E-01 -0.47532160887E-01  0.13271076494E+00  0.20255166727E-01 0.  0.
         14    1    1    2    0    0  0.78451501628E-02  0.17904091025E-01  0.13438694083E-01  0.23721327011E-01  0.00000000000E+00 0. -1.
     999901    1    3    3    0    0  0.10778069970E+00  0.21759896133E-01  0.34093466804E-01  0.88749790805E+00  0.88000000000E+00 0. -1.
        -11    1    4    4    0    0 -0.88963024729E-01 -0.31669189419E-01 -0.45425843447E-01  0.10479086650E+00  0.51100000000E-03 0. -1.
         11    1    4    4    0    0 -0.26662825135E-01 -0.79947977391E-02 -0.21063174402E-02  0.27919898446E-01  0.51100000000E-03 0.  1.
</event>
<event>
 8    1  0.1103774E+005  0.1043930E+01  0.7957747E-01            NaN
         13   -1    0    0    0    0  0.00000000000E+00  0.00000000000E+00  0.74505805969E-08  0.10566000000E+00  0.10566000000E+00 0. -1.
     999900   -1    0    0    0    0 -0.00000000000E+00 -0.00000000000E+00 -0.74505805969E-08  0.93827000000E+00  0.93827000000E+00 0. -1.
     999902    2    1    2    0    0 -0.41920993793E-02 -0.18584557223E-01  0.14694407966E-01  0.10198699690E+01  0.10195861262E+01 0.  0.
     999903    2    3    3    0    0  0.23256476494E-02  0.12259410038E+00  0.32420386559E-01  0.12841716339E+00  0.20128693484E-01 0.  0.
         14    1    1    2    0    0  0.41920993793E-02  0.18584557223E-01 -0.14694407966E-01  0.24060030961E-01  0.00000000000E+00 0.  1.
     999901    1    3    3    0    0 -0.65177470287E-02 -0.14117865761E+00 -0.17725978593E-01  0.89145280565E+00  0.88000000000E+00 0. -1.
        -11    1    4    4    0    0 -0.90491761974E-03  0.92832545661E-01  0.32834154419E-01  0.98473566135E-01  0.51100000000E-03 0.  1.
         11    1    4    4    0    0  0.32305652692E-02  0.29761554723E-01 -0.41376786045E-03  0.29943597251E-01  0.51100000000E-03 0. -1.
</event>
<event>
 8    1  0.1103774E+005  0.1043930E+01  0.7957747E-01            NaN
         13   -1    0    0    0    0  0.00000000000E+00  0.00000000000E+00  0.74505805969E-08  0.10566000000E+00  0.10566000000E+00 0.  1.
     999900   -1    0    0    0    0 -0.00000000000E+00 -0.00000000000E+00 -0.74505805969E-08  0.93827000000E+00  0.93827000000E+00 0. -1.
     999902    2    1    2    0    0 -0.19180695613E-01  0.32138102053E-02  0.13198348918E-01  0.10204262966E+01  0.10201555777E+01 0.  0.
     999903    2    3    3    0    0  0.30978785732E-01  0.12511012794E+00  0.75186510642E-02  0.13059094956E+00  0.19627447935E-01 0.  0.
         14    1    1    2    0    0  0.19180695613E-01 -0.32138102053E-02 -0.13198348918E-01  0.23503703419E-01  0.00000000000E+00 0. -1.
     999901    1    3    3    0    0 -0.50159481345E-01 -0.12189631774E+00  0.56796978537E-02  0.88983534702E+00  0.88000000000E+00 0.  1.
        -11    1    4    4    0    0  0.17415951554E-01  0.10257922854E+00  0.50203333613E-02  0.10416946945E+00  0.51100000000E-03 0.  1.
         11    1    4    4    0    0  0.13562834178E-01  0.22530899403E-01  0.24983177029E-02  0.26421480110E-01  0.51100000000E-03 0. -1.
</event>
<event>
 8    1  0.1103774E+005  0.1043930E+01  0.7957747E-01            NaN
         13   -1    0    0    0    0  0.00000000000E+00  0.00000000000E+00  0.74505805969E-08  0.10566000000E+00  0.10566000000E+00 0. -1.
     999900   -1    0    0    0    0 -0.00000000000E+00 -0.00000000000E+00 -0.74505805969E-08  0.93827000000E+00  0.93827000000E+00 0. -1.
     999902    2    1    2    0    0 -0.97862707140E-02  0.21402665276E-01  0.10232057613E-02  0.10203738516E+01  0.10201019091E+01 0.  0.
     999903    2    3    3    0    0 -0.68320869588E-01 -0.86794590728E-01 -0.64691509372E-01  0.12939047960E+00  0.18864321489E-01 0.  0.
         14    1    1    2    0    0  0.97862707140E-02 -0.21402665276E-01 -0.10232057613E-02  0.23556148357E-01  0.00000000000E+00 0. -1.
     999901    1    3    3    0    0  0.58534598874E-01  0.10819725600E+00  0.65714715134E-01  0.89098337204E+00  0.88000000000E+00 0.  1.
        -11    1    4    4    0    0 -0.64592071489E-01 -0.79941961776E-01 -0.53866908618E-01  0.11603774350E+00  0.51100000000E-03 0. -1.
         11    1    4    4    0    0 -0.37287980991E-02 -0.68526289527E-02 -0.10824600755E-01  0.13352736099E-01  0.51100000000E-03 0.  1.
</event>
<event>
 8    1  0.1103774E+005  0.1043930E+01  0.7957747E-01            NaN
         13   -1    0    0    0    0  0.00000000000E+00  0.00000000000E+00  0.74505805969E-08  0.10566000000E+00  0.10566000000E+00 0. -1.
     999900   -1    0    0    0    0 -0.00000000000E+00 -0.00000000000E+00 -0.74505805969E-08  0.93827000000E+00  0.93827000000E+00 0.  1.
     999902    2    1    2    0    0  0.17978980915E-01 -0.11441172603E-01 -0.95952009801E-02  0.10205588197E+01  0.10202911802E+01 0.  0.
     999903    2    3    3    0    0 -0.82357880682E-01  0.47697717386E-01  0.83261640951E-01  0.12804143212E+00  0.20105092144E-01 0.  0.
         14    1    1    2    0    0 -0.17978980915E-01  0.11441172603E-01  0.95952009801E-02  0.23371180268E-01  0.00000000000E+00 0.  1.
     999901    1    3    3    0    0  0.10033686160E+00 -0.59138889989E-01 -0.92856841931E-01  0.89251738762E+00  0.88000000000E+00 0.  1.
        -11    1    4    4    0    0 -0.51334914869E-01  0.23174302769E-01  0.59365196122E-01  0.81834035859E-01  0.51100000000E-03 0.  1.
         11    1    4    4    0    0 -0.31022965814E-01  0.24523414617E-01  0.23896444829E-01  0.46207396257E-01  0.51100000000E-03 0. -1.
</event>
<event>
 8    1  0.1103774E+005  0.1043930E+01  0.7957747E-01            NaN
         13   -1    0    0    0    0  0.00000000000E+00  0.00000000000E+00  0.74505805969E-08  0.10566000000E+00  0.10566000000E+00 0.  1.
     999900   -1    0    0    0    0 -0.00000000000E+00 -0.00000000000E+00 -0.74505805969E-08  0.93827000000E+00  0.93827000000E+00 0. -1.
     999902    2    1    2    0    0 -0.15738434918E-01  0.13952416830E-01  0.14149138725E-01  0.10185811066E+01  0.10182656355E+01 0.  0.
     999903    2    3    3    0    0  0.74667943060E-01 -0.10938867811E-01  0.10285817046E+00  0.12916434180E+00  0.20215425078E-01 0.  0.
         14    1    1    2    0    0  0.15738434918E-01 -0.13952416830E-01 -0.14149138725E-01  0.25348893382E-01  0.00000000000E+00 0. -1.
     999901    1    3    3    0    0 -0.90406377978E-01  0.24891284640E-01 -0.88709031740E-01  0.88941676482E+00  0.88000000000E+00 0. -1.
        -11    1    4    4    0    0  0.21919513084E-01 -0.83728870055E-02  0.19645613866E-01  0.30606887392E-01  0.51100000000E-03 0.  1.
         11    1    4    4    0    0  0.52748429976E-01 -0.25659808050E-02  0.83212556598E-01  0.98557454406E-01  0.51100000000E-03 0. -1.
</event>
<event>
 8    1  0.1103774E+005  0.1043930E+01  0.7957747E-01            NaN
         13   -1    0    0    0    0  0.00000000000E+00  0.00000000000E+00  0.74505805969E-08  0.10566000000E+00  0.10566000000E+00 0.  1.
     999900   -1    0    0    0    0 -0.00000000000E+00 -0.00000000000E+00 -0.74505805969E-08  0.93827000000E+00  0.93827000000E+00 0. -1.
     999902    2    1    2    0    0 -0.14703362569E-03  0.14078498778E-01 -0.18834972013E-01  0.10204144324E+01  0.10201434370E+01 0.  0.
     999903    2    3    3    0    0 -0.83085389421E-01  0.75917634444E-01  0.63004665673E-01  0.13058266415E+00  0.20385659823E-01 0.  0.
         14    1    1    2    0    0  0.14703362569E-03 -0.14078498778E-01  0.18834972013E-01  0.23515567555E-01  0.00000000000E+00 0.  1.
     999901    1    3    3    0    0  0.82938355795E-01 -0.61839135666E-01 -0.81839637686E-01  0.88983176829E+00  0.88000000000E+00 0. -1.
        -11    1    4    4    0    0 -0.57678680429E-01  0.43234123484E-01  0.32046791857E-01  0.78887753161E-01  0.51100000000E-03 0.  1.
         11    1    4    4    0    0 -0.25406708991E-01  0.32683510960E-01  0.30957873815E-01  0.51694910993E-01  0.51100000000E-03 0. -1.
</event>
<event>
 8    1  0.1103774E+005  0.1043930E+01  0.7957747E-01            NaN
         13   -1    0    0    0    0  0.00000000000E+00  0.00000000000E+00  0.74505805969E-08  0.10566000000E+00  0.10566000000E+00 0. -1.
     999900   -1    0    0    0    0 -0.00000000000E+00 -0.00000000000E+00 -0.74505805969E-08  0.93827000000E+00  0.93827000000E+00 0. -1.
     999902    2    1    2    0    0 -0.11342141431E-01  0.43009416295E-02 -0.20652951675E-01  0.10199782426E+01  0.10196969788E+01 0.  0.
     999903    2    3    3    0    0  0.56652322726E-01 -0.10997956981E+00  0.28970970970E-01  0.12860524760E+00  0.19874634734E-01 0.  0.
         14    1    1    2    0    0  0.11342141431E-01 -0.43009416295E-02  0.20652951675E-01  0.23951757432E-01  0.00000000000E+00 0. -1.
     999901    1    3    3    0    0 -0.67994464157E-01  0.11428051144E+00 -0.49623922645E-01  0.89137299496E+00  0.88000000000E+00 0. -1.
        -11    1    4    4    0    0  0.14405517947E-01 -0.19615165602E-01  0.12952949164E-01  0.27573786137E-01  0.51100000000E-03 0.  1.
         11    1    4    4    0    0  0.42246804779E-01 -0.90364404212E-01  0.16018021806E-01  0.10103146147E+00  0.51100000000E-03 0. -1.
</event>
<event>
 8    1  0.1103774E+005  0.1043930E+01  0.7957747E-01            NaN
         13   -1    0    0    0    0  0.00000000000E+00  0.00000000000E+00  0.74505805969E-08  0.10566000000E+00  0.10566000000E+00 0.  1.
     999900   -1    0    0    0    0 -0.00000000000E+00 -0.00000000000E+00 -0.74505805969E-08  0.93827000000E+00  0.93827000000E+00 0.  1.
     999902    2    1    2    0    0  0.27949431865E-01 -0.14830952289E-01  0.97532981995E-02  0.10108202626E+01  0.10102778571E+01 0.  0.
     999903    2    3    3    0    0 -0.90966887553E-01 -0.53796129845E-01 -0.52696348726E-01  0.11977630490E+00  0.20011492430E-01 0.  0.
         14    1    1    2    0    0 -0.27949431865E-01  0.14830952289E-01 -0.97532981995E-02  0.33109737437E-01  0.00000000000E+00 0. -1.
     999901    1    3    3    0    0  0.11891631942E+00  0.38965177556E-01  0.62449646925E-01  0.89104395766E+00  0.88000000000E+00 0. -1.
        -11    1    4    4    0    0 -0.75720146587E-01 -0.52259990586E-01 -0.42381223805E-01  0.10129697166E+00  0.51100000000E-03 0. -1.
         11    1    4    4    0    0 -0.15246740965E-01 -0.15361392591E-02 -0.10315124921E-01  0.18479333241E-01  0.51100000000E-03 0.  1.
</event>
<event>
 8    1  0.1103774E+005  0.1043930E+01  0.7957747E-01            NaN
         13   -1    0    0    0    0  0.00000000000E+00  0.00000000000E+00  0.74505805969E-08  0.10566000000E+00  0.10566000000E+00 0.  1.
     999900   -1    0    0    0    0 -0.00000000000E+00 -0.00000000000E+00 -0.74505805969E-08  0.93827000000E+00  0.93827000000E+00 0.  1.
     999902    2    1    2    0    0  0.79338645730E-02  0.22366797069E-01  0.57738736373E-03  0.10201907246E+01  0.10199144873E+01 0.  0.
     999903    2    3    3    0    0  0.74318906894E-01 -0.40477793402E-01 -0.96508154878E-01  0.13014464780E+00  0.21495434687E-01 0.  0.
         14    1    1    2    0    0 -0.79338645730E-02 -0.22366797069E-01 -0.57738736373E-03  0.23739275354E-01  0.00000000000E+00 0.  1.
     999901    1    3    3    0    0 -0.66385042321E-01  0.62844590471E-01  0.97085542242E-01  0.89004607685E+00  0.88000000000E+00 0. -1.
        -11    1    4    4    0    0  0.52912467474E-01 -0.18707431412E-01 -0.54689391326E-01  0.78363817217E-01  0.51100000000E-03 0.  1.
         11    1    4    4    0    0  0.21406439420E-01 -0.21770361991E-01 -0.41818763552E-01  0.51780830583E-01  0.51100000000E-03 0. -1.
</event>
<event>
 8    1  0.1103774E+005  0.1043930E+01  0.7957747E-01            NaN
         13   -1    0    0    0    0  0.00000000000E+00  0.00000000000E+00  0.74505805969E-08  0.10566000000E+00  0.10566000000E+00 0. -1.
     999900   -1    0    0    0    0 -0.00000000000E+00 -0.00000000000E+00 -0.74505805969E-08  0.93827000000E+00  0.93827000000E+00 0. -1.
     999902    2    1    2    0    0  0.15177619780E-01  0.15217683454E-01  0.87013348453E-02  0.10207426918E+01  0.10204792951E+01 0.  0.
     999903    2    3    3    0    0 -0.68686873541E-01 -0.41891000951E-01 -0.98037982963E-01  0.12850509061E+00  0.20721236720E-01 0.  0.
         14    1    1    2    0    0 -0.15177619780E-01 -0.15217683454E-01 -0.87013348453E-02  0.23187308166E-01  0.00000000000E+00 0.  1.
     999901    1    3    3    0    0  0.83864493322E-01  0.57108684405E-01  0.10673931781E+00  0.89223760123E+00  0.88000000000E+00 0.  1.
        -11    1    4    4    0    0 -0.27313486184E-01 -0.22705979169E-01 -0.56939597264E-01  0.67111600153E-01  0.51100000000E-03 0.  1.
         11    1    4    4    0    0 -0.41373387357E-01 -0.19185021783E-01 -0.41098385700E-01  0.61393490455E-01  0.51100000000E-03 0. -1.
</event>
<event>
 8    1  0.1103774E+005  0.1043930E+01  0.7957747E-01            NaN
         13   -1    0    0    0    0  0.00000000000E+00  0.00000000000E+00  0.74505805969E-08  0.10566000000E+00  0.10566000000E+00 0. -1.
     999900   -1    0    0    0    0 -0.00000000000E+00 -0.00000000000E+00 -0.74505805969E-08  0.93827000000E+00  0.93827000000E+00 0.  1.
     999902    2    1    2    0    0 -0.13772779322E-01 -0.80759419432E-02 -0.17222258645E-01  0.10204456120E+01  0.10201753430E+01 0.  0.
     999903    2    3    3    0    0 -0.83940008971E-01  0.74722993690E-01  0.62302347560E-01  0.13021908638E+00  0.21118168828E-01 0.  0.
         14    1    1    2    0    0  0.13772779322E-01  0.80759419432E-02  0.17222258645E-01  0.23484388035E-01  0.00000000000E+00 0. -1.
     999901    1    3    3    0    0  0.70167229649E-01 -0.82798935633E-01 -0.79524606206E-01  0.89022652558E+00  0.88000000000E+00 0.  1.
        -11    1    4    4    0    0 -0.41273521530E-01  0.31242383837E-01  0.17673809239E-01  0.54701140585E-01  0.51100000000E-03 0. -1.
         11    1    4    4    0    0 -0.42666487442E-01  0.43480609853E-01  0.44628538321E-01  0.75517945797E-01  0.51100000000E-03 0.  1.
</event>
<event>
 8    1  0.1103774E+005  0.1043930E+01  0.7957747E-01            NaN
         13   -1    0    0    0    0  0.00000000000E+00  0.00000000000E+00  0.74505805969E-08  0.10566000000E+00  0.10566000000E+00 0. -1.
     999900   -1    0    0    0    0 -0.00000000000E+00 -0.00000000000E+00 -0.74505805969E-08  0.93827000000E+00  0.93827000000E+00 0.  1.
     999902    2    1    2    0    0 -0.99286949567E-02  0.49427802029E-02 -0.20888155346E-01  0.10202799452E+01  0.10200058046E+01 0.  0.
     999903    2    3    3    0    0 -0.63727590340E-01  0.76334694289E-01  0.81173991215E-01  0.12988238885E+00  0.19799665675E-01 0.  0.
         14    1    1    2    0    0  0.99286949567E-02 -0.49427802029E-02  0.20888155346E-01  0.23650054829E-01  0.00000000000E+00 0. -1.
     999901    1    3    3    0    0  0.53798895384E-01 -0.71391914086E-01 -0.10206214656E+00  0.89039755632E+00  0.88000000000E+00 0. -1.
        -11    1    4    4    0    0 -0.63902649985E-01  0.69837648275E-01  0.77857061975E-01  0.12256765076E+00  0.51100000000E-03 0.  1.
         11    1    4    4    0    0  0.17505964481E-03  0.64970460138E-02  0.33169292401E-02  0.73147380930E-02  0.51100000000E-03 0. -1.
</event>
<event>
 8    1  0.1103774E+005  0.1043930E+01  0.7957747E-01            NaN
         13   -1    0    0    0    0  0.00000000000E+00  0.00000000000E+00  0.74505805969E-08  0.10566000000E+00  0.10566000000E+00 0. -1.
     999900   -1    0    0    0    0 -0.00000000000E+00 -0.00000000000E+00 -0.74505805969E-08  0.93827000000E+00  0.93827000000E+00 0.  1.
     999902    2    1    2    0    0 -0.18878612152E-01 -0.12672114576E-01  0.54814179055E-03  0.10211861009E+01  0.10209327930E+01 0.  0.
     999903    2    3    3    0    0 -0.73816330217E-02 -0.12695528057E+00  0.33909553504E-01  0.13309499844E+00  0.19806287423E-01 0.  0.
         14    1    1    2    0    0  0.18878612152E-01  0.12672114576E-01 -0.54814179055E-03  0.22743899051E-01  0.00000000000E+00 0.  1.
     999901    1    3    3    0    0 -0.11496979130E-01  0.11428316599E+00 -0.33361411714E-01  0.88809110251E+00  0.88000000000E+00 0.  1.
        -11    1    4    4    0    0 -0.13916860369E-01 -0.70393132817E-01  0.18344893021E-01  0.74065298023E-01  0.51100000000E-03 0. -1.
         11    1    4    4    0    0  0.65352273469E-02 -0.56562147752E-01  0.15564660484E-01  0.59029700420E-01  0.51100000000E-03 0.  1.
</event>
<event>
 8    1  0.1103774E+005  0.1043930E+01  0.7957747E-01            NaN
         13   -1    0    0    0    0  0.00000000000E+00  0.00000000000E+00  0.74505805969E-08  0.10566000000E+00  0.10566000000E+00 0.  1.
     999900   -1    0    0    0    0 -0.00000000000E+00 -0.00000000000E+00 -0.74505805969E-08  0.93827000000E+00  0.93827000000E+00 0.  1.
     999902    2    1    2    0    0  0.26145694444E-02 -0.17474870659E-01 -0.15975359759E-01  0.10201094375E+01  0.10198312828E+01 0.  0.
     999903    2    3    3    0    0 -0.11304074853E+00 -0.36334294444E-02 -0.63387867760E-01  0.13116867234E+00  0.19894375702E-01 0.  0.
         14    1    1    2    0    0 -0.26145694444E-02  0.17474870659E-01  0.15975359759E-01  0.23820562490E-01  0.00000000000E+00 0. -1.
     999901    1    3    3    0    0  0.11565531798E+00 -0.13841441215E-01  0.47412508002E-01  0.88894076517E+00  0.88000000000E+00 0.  1.
        -11    1    4    4    0    0 -0.20738906676E-01 -0.83777267650E-02 -0.11038987045E-01  0.24948124415E-01  0.51100000000E-03 0.  1.
         11    1    4    4    0    0 -0.92301841859E-01  0.47442973207E-02 -0.52348880715E-01  0.10622054792E+00  0.51100000000E-03 0. -1.
</event>
<event>
 8    1  0.1103774E+005  0.1043930E+01  0.7957747E-01            NaN
         13   -1    0    0    0    0  0.00000000000E+00  0.00000000000E+00  0.74505805969E-08  0.10566000000E+00  0.10566000000E+00 0.  1.
     999900   -1    0    0    0    0 -0.00000000000E+00 -0.00000000000E+00 -0.74505805969E-08  0.93827000000E+00  0.93827000000E+00 0.  1.
     999902    2    1    2    0    0  0.19645688267E-01  0.70630653797E-02 -0.13343423586E-01  0.10191532586E+01  0.10188520391E+01 0.  0.
     999903    2    3    3    0    0  0.11915831358E+00  0.33178292725E-01  0.40248681837E-01  0.13154023402E+00  0.19579938032E-01 0.  0.
         14    1    1    2    0    0 -0.19645688267E-01 -0.70630653797E-02  0.13343423586E-01  0.24776741372E-01  0.00000000000E+00 0.  1.
     999901    1    3    3    0    0 -0.99512625308E-01 -0.26115227345E-01 -0.53592105423E-01  0.88761302461E+00  0.88000000000E+00 0. -1.
        -11    1    4    4    0    0  0.85086543447E-01  0.26733277441E-01  0.20077022106E-01  0.91420653772E-01  0.51100000000E-03 0. -1.
         11    1    4    4    0    0  0.34071770129E-01  0.64450152834E-02  0.20171659732E-01  0.40119580245E-01  0.51100000000E-03 0.  1.
</event>
<event>
 8    1  0.1103774E+005  0.1043930E+01  0.7957747E-01            NaN
         13   -1    0    0    0    0  0.00000000000E+00  0.00000000000E+00  0.74505805969E-08  0.10566000000E+00  0.10566000000E+00 0. -1.
     999900   -1    0    0    0    0 -0.00000000000E+00 -0.00000000000E+00 -0.74505805969E-08  0.93827000000E+00  0.93827000000E+00 0. -1.
     999902    2    1    2    0    0  0.44386903919E-02  0.22371128401E-01 -0.76523108360E-02  0.10198732500E+01  0.10195894855E+01 0.  0.
     999903    2    3    3    0    0  0.67795102523E-01  0.11035914184E+00  0.20436730267E-01  0.13277409001E+00  0.20880204036E-01 0.  0.
         14    1    1    2    0    0 -0.44386903919E-02 -0.22371128401E-01  0.76523108360E-02  0.24056749977E-01  0.00000000000E+00 0. -1.
     999901    1    3    3    0    0 -0.63356412131E-01 -0.87988013437E-01 -0.28089041103E-01  0.88709916001E+00  0.88000000000E+00 0.  1.
        -11    1    4    4    0    0  0.14788679420E-01  0.42322535740E-01  0.95485716984E-02  0.45840357906E-01  0.51100000000E-03 0. -1.
         11    1    4    4    0    0  0.53006423103E-01  0.68036606098E-01  0.10888158569E-01  0.86933732104E-01  0.51100000000E-03 0.  1.
</event>
<event>
 8    1  0.1103774E+005  0.1043930E+01  0.7957747E-01            NaN
         13   -1    0    0    0    0  0.00000000000E+00  0.00000000000E+00  0.74505805969E-08  0.10566000000E+00  0.10566000000E+00 0. -1.
     999900   -1    0    0    0    0 -0.00000000000E+00 -0.00000000000E+00 -0.74505805969E-08  0.93827000000E+00  0.93827000000E+00 0. -1.
     999902    2    1    2    0    0 -0.22065142294E-01  0.35435579274E-02  0.10262036832E-02  0.10215585807E+01  0.10213135921E+01 0.  0.
     999903    2    3    3    0    0  0.10107957407E+00  0.55509884225E-01  0.55462799407E-01  0.12980274911E+00  0.21776225936E-01 0.  0.
         14    1    1    2    0    0  0.22065142294E-01 -0.35435579274E-02 -0.10262036832E-02  0.22371419294E-01  0.00000000000E+00 0. -1.
     999901    1    3    3    0    0 -0.12314471637E+00 -0.51966326297E-01 -0.54436595724E-01  0.89175583160E+00  0.88000000000E+00 0. -1.
        -11    1    4    4    0    0  0.49532999283E-01  0.33733231340E-01  0.38878047637E-01  0.71436773609E-01  0.51100000000E-03 0.  1.
         11    1    4    4    0    0  0.51546574790E-01  0.21776652885E-01  0.16584751770E-01  0.58365975497E-01  0.51100000000E-03 0. -1.
</event>
<event>
 8    1  0.1103774E+005  0.1043930E+01  0.7957747E-01            NaN
         13   -1    0    0    0    0  0.00000000000E+00  0.00000000000E+00  0.74505805969E-08  0.10566000000E+00  0.10566000000E+00 0. -1.
     999900   -1    0    0    0    0 -0.00000000000E+00 -0.00000000000E+00 -0.74505805969E-08  0.93827000000E+00  0.93827000000E+00 0. -1.
     999902    2    1    2    0    0 -0.17408177986E-01 -0.19235376518E-02  0.13999598715E-01  0.10215082824E+01  0.10212621786E+01 0.  0.
     999903    2    3    3    0    0 -0.37163800792E-02 -0.13005520542E+00 -0.90946180769E-02  0.13182376947E+00  0.19147485032E-01 0.  0.
         14    1    1    2    0    0  0.17408177986E-01  0.19235376518E-02 -0.13999598715E-01  0.22421717644E-01  0.00000000000E+00 0.  1.
     999901    1    3    3    0    0 -0.13691797907E-01  0.12813166777E+00  0.23094216792E-01  0.88968451288E+00  0.88000000000E+00 0.  1.
        -11    1    4    4    0    0  0.74562265318E-02 -0.38713121109E-01 -0.94359010263E-03  0.39439225948E-01  0.51100000000E-03 0. -1.
         11    1    4    4    0    0 -0.11172606611E-01 -0.91342084309E-01 -0.81510279743E-02  0.92384543526E-01  0.51100000000E-03 0.  1.
</event>
<event>
 8    1  0.1103774E+005  0.1043930E+01  0.7957747E-01            NaN
         13   -1    0    0    0    0  0.00000000000E+00  0.00000000000E+00  0.74505805969E-08  0.10566000000E+00  0.10566000000E+00 0. -1.
     999900   -1    0    0    0    0 -0.00000000000E+00 -0.00000000000E+00 -0.74505805969E-08  0.93827000000E+00  0.93827000000E+00 0. -1.
     999902    2    1    2    0    0 -0.97108260613E-02  0.40856293569E-02  0.19655274059E-01  0.10216292756E+01  0.10213858499E+01 0.  0.
     999903    2    3    3    0    0  0.10523556898E+00 -0.73427739489E-01  0.15213828697E-01  0.13076412166E+00  0.20040883860E-01 0.  0.
         14    1    1    2    0    0  0.97108260613E-02 -0.40856293569E-02 -0.19655274059E-01  0.22300724391E-01  0.00000000000E+00 0.  1.
     999901    1    3    3    0    0 -0.11494639504E+00  0.77513368846E-01  0.44414453619E-02  0.89086515395E+00  0.88000000000E+00 0.  1.
        -11    1    4    4    0    0  0.63915367596E-01 -0.56149970684E-01  0.10663742183E-01  0.85743629157E-01  0.51100000000E-03 0. -1.
         11    1    4    4    0    0  0.41320201380E-01 -0.17277768805E-01  0.45500865139E-02  0.45020492503E-01  0.51100000000E-03 0.  1.
</event>
<event>
 8    1  0.1103774E+005  0.1043930E+01  0.7957747E-01            NaN
         13   -1    0    0    0    0  0.00000000000E+00  0.00000000000E+00  0.74505805969E-08  0.10566000000E+00  0.10566000000E+00 0. -1.
     999900   -1    0    0    0    0 -0.00000000000E+00 -0.00000000000E+00 -0.74505805969E-08  0.93827000000E+00  0.93827000000E+00 0. -1.
     999902    2    1    2    0    0  0.19806784377E-01 -0.12235007561E-01  0.60471424347E-02  0.10198764753E+01  0.10195927878E+01 0.  0.
     999903    2    3    3    0    0  0.94367255631E-01  0.40121341556E-01  0.80742724723E-01  0.13202520334E+00  0.19908936113E-01 0.  0.
         14    1    1    2    0    0 -0.19806784377E-01  0.12235007561E-01 -0.60471424347E-02  0.24053524669E-01  0.00000000000E+00 0.  1.
     999901    1    3    3    0    0 -0.74560471255E-01 -0.52356349117E-01 -0.74695582288E-01  0.88785127199E+00  0.88000000000E+00 0. -1.
        -11    1    4    4    0    0  0.87085204596E-01  0.41856153608E-01  0.77443534065E-01  0.12382864186E+00  0.51100000000E-03 0.  1.
         11    1    4    4    0    0  0.72820510357E-02 -0.17348120516E-02  0.32991906578E-02  0.81965614826E-02  0.51100000000E-03 0. -1.
</event>
<event>
 8    1  0.1103774E+005  0.1043930E+01  0.7957747E-01            NaN
         13   -1    0    0    0    0  0.00000000000E+00  0.00000000000E+00  0.74505805969E-08  0.10566000000E+00  0.10566000000E+00 0. -1.
     999900   -1    0    0    0    0 -0.00000000000E+00 -0.00000000000E+00 -0.74505805969E-08  0.93827000000E+00  0.93827000000E+00 0. -1.
     999902    2    1    2    0    0  0.19173078324E-01 -0.16169424274E-02  0.15696208333E-01  0.10190987215E+01  0.10187961581E+01 0.  0.
     999903    2    3    3    0    0  0.58704452449E-01 -0.94050785196E-01  0.68482140106E-01  0.13180333698E+00  0.19762418653E-01 0.  0.
         14    1    1    2    0    0 -0.19173078324E-01  0.16169424274E-02 -0.15696208333E-01  0.24831278486E-01  0.00000000000E+00 0.  1.
     999901    1    3    3    0    0 -0.39531374125E-01  0.92433842769E-01 -0.52785931773E-01  0.88729538454E+00  0.88000000000E+00 0. -1.
        -11    1    4    4    0    0  0.28097828298E-02 -0.29044777928E-03 -0.12858506225E-03  0.28734812652E-02  0.51100000000E-03 0.  1.
         11    1    4    4    0    0  0.55894669620E-01 -0.93760337417E-01  0.68610725168E-01  0.12892985571E+00  0.51100000000E-03 0. -1.
</event>
<event>
 8    1  0.1103774E+005  0.1043930E+01  0.7957747E-01            NaN
         13   -1    0    0    0    0  0.00000000000E+00  0.00000000000E+00  0.74505805969E-08  0.10566000000E+00  0.10566000000E+00 0. -1.
     999900   -1    0    0    0    0 -0.00000000000E+00 -0.00000000000E+00 -0.74505805969E-08  0.93827000000E+00  0.93827000000E+00 0.  1.
     999902    2    1    2    0    0  0.24320127868E-03 -0.13652093909E-01  0.17327446263E-01  0.10218691929E+01  0.10216310333E+01 0.  0.
     999903    2    3    3    0    0 -0.48598193173E-01  0.10938116028E+00 -0.45976886042E-01  0.12972004511E+00  0.19682313106E-01 0.  0.
         14    1    1    2    0    0 -0.24320127868E-03  0.13652093909E-01 -0.17327446263E-01  0.22060807078E-01  0.00000000000E+00 0.  1.
     999901    1    3    3    0    0  0.48841394452E-01 -0.12303325419E+00  0.63304332305E-01  0.89214914781E+00  0.88000000000E+00 0. -1.
        -11    1    4    4    0    0 -0.31659891381E-01  0.84270373463E-01 -0.41385919853E-01  0.99080270735E-01  0.51100000000E-03 0.  1.
         11    1    4    4    0    0 -0.16938301793E-01  0.25110786819E-01 -0.45909661890E-02  0.30639774377E-01  0.51100000000E-03 0. -1.
</event>
<event>
 8    1  0.1103774E+005  0.1043930E+01  0.7957747E-01            NaN
         13   -1    0    0    0    0  0.00000000000E+00  0.00000000000E+00  0.74505805969E-08  0.10566000000E+00  0.10566000000E+00 0. -1.
     999900   -1    0    0    0    0 -0.00000000000E+00 -0.00000000000E+00 -0.74505805969E-08  0.93827000000E+00  0.93827000000E+00 0.  1.
     999902    2    1    2    0    0 -0.55648405196E-02  0.22533548867E-01 -0.32385149405E-02  0.10204946367E+01  0.10202255080E+01 0.  0.
     999903    2    3    3    0    0  0.71522292508E-01 -0.88743635619E-01  0.55519878186E-01  0.12820679825E+00  0.19069741864E-01 0.  0.
         14    1    1    2    0    0  0.55648405196E-02 -0.22533548867E-01  0.32385149405E-02  0.23435363312E-01  0.00000000000E+00 0.  1.
     999901    1    3    3    0    0 -0.77087133028E-01  0.11127718449E+00 -0.58758393127E-01  0.89228783844E+00  0.88000000000E+00 0.  1.
        -11    1    4    4    0    0  0.87093911978E-02 -0.21003258013E-01  0.66531186044E-02  0.23696317232E-01  0.51100000000E-03 0. -1.
         11    1    4    4    0    0  0.62812901311E-01 -0.67740377606E-01  0.48866759582E-01  0.10451048102E+00  0.51100000000E-03 0.  1.
</event>
<event>
 8    1  0.1103774E+005  0.1043930E+01  0.7957747E-01            NaN
         13   -1    0    0    0    0  0.00000000000E+00  0.00000000000E+00  0.74505805969E-08  0.10566000000E+00  0.10566000000E+00 0. -1.
     999900   -1    0    0    0    0 -0.00000000000E+00 -0.00000000000E+00 -0.74505805969E-08  0.93827000000E+00  0.93827000000E+00 0. -1.
     999902    2    1    2    0    0 -0.32037186391E-02 -0.16707773153E-01  0.16317636541E-01  0.10203571606E+01  0.10200848280E+01 0.  0.
     999903    2    3    3    0    0 -0.94288430711E-01 -0.78118862946E-01 -0.43472274430E-01  0.13151376593E+00  0.20326511554E-01 0.  0.
         14    1    1    2    0    0  0.32037186391E-02  0.16707773153E-01 -0.16317636541E-01  0.23572839437E-01  0.00000000000E+00 0. -1.
     999901    1    3    3    0    0  0.91084712072E-01  0.61411089793E-01  0.59789910971E-01  0.88884339463E+00  0.88000000000E+00 0. -1.
        -11    1    4    4    0    0 -0.39324949064E-01 -0.45752342259E-01 -0.21428993135E-01  0.64024927246E-01  0.51100000000E-03 0. -1.
         11    1    4    4    0    0 -0.54963481647E-01 -0.32366520687E-01 -0.22043281295E-01  0.67488838688E-01  0.51100000000E-03 0.  1.
</event>
<event>
 8    1  0.1103774E+005  0.1043930E+01  0.7957747E-01            NaN
         13   -1    0    0    0    0  0.00000000000E+00  0.00000000000E+00  0.74505805969E-08  0.10566000000E+00  0.10566000000E+00 0. -1.
     999900   -1    0    0    0    0 -0.00000000000E+00 -0.00000000000E+00 -0.74505805969E-08  0.93827000000E+00  0.93827000000E+00 0.  1.
     999902    2    1    2    0    0 -0.62808972351E-02 -0.68531041033E-02  0.24473164008E-01  0.10177508010E+01  0.10174140467E+01 0.  0.
     999903    2    3    3    0    0  0.11462452747E+00  0.26275051587E-01 -0.41228503088E-01  0.12644148008E+00  0.21412561369E-01 0.  0.
         14    1    1    2    0    0  0.62808972351E-02  0.68531041033E-02 -0.24473164008E-01  0.26179199042E-01  0.00000000000E+00 0.  1.
     999901    1    3    3    0    0 -0.12090542471E+00 -0.33128155690E-01  0.65701667096E-01  0.89130932088E+00  0.88000000000E+00 0. -1.
        -11    1    4    4    0    0  0.95719612914E-01  0.28898934539E-01 -0.38546607123E-01  0.10716106922E+00  0.51100000000E-03 0. -1.
         11    1    4    4    0    0  0.18904914557E-01 -0.26238829517E-02 -0.26818959651E-02  0.19280410865E-01  0.51100000000E-03 0.  1.
</event>
<event>
 8    1  0.1103774E+005  0.1043930E+01  0.7957747E-01            NaN
         13   -1    0    0    0    0  0.00000000000E+00  0.00000000000E+00  0.74505805969E-08  0.10566000000E+00  0.10566000000E+00 0. -1.
     999900   -1    0    0    0    0 -0.00000000000E+00 -0.00000000000E+00 -0.74505805969E-08  0.93827000000E+00  0.93827000000E+00 0.  1.
     999902    2    1    2    0    0 -0.39504194824E-02 -0.13280739025E-01 -0.18111712439E-01  0.10211260975E+01  0.10208714361E+01 0.  0.
     999903    2    3    3    0    0  0.28653474873E-01  0.96676468218E-01 -0.81810863553E-01  0.13140075603E+00  0.20143985700E-01 0.  0.
         14    1    1    2    0    0  0.39504194824E-02  0.13280739025E-01  0.18111712439E-01  0.22803902530E-01  0.00000000000E+00 0. -1.
     999901    1    3    3    0    0 -0.32603894355E-01 -0.10995720724E+00  0.63699151114E-01  0.88972534144E+00  0.88000000000E+00 0. -1.
        -11    1    4    4    0    0  0.56572864442E-02  0.42615030299E-02 -0.27114643675E-02  0.76012142453E-02  0.51100000000E-03 0. -1.
         11    1    4    4    0    0  0.22996188429E-01  0.92414965188E-01 -0.79099399185E-01  0.12379954178E+00  0.51100000000E-03 0.  1.
</event>
<event>
 8    1  0.1103774E+005  0.1043930E+01  0.7957747E-01            NaN
         13   -1    0    0    0    0  0.00000000000E+00  0.00000000000E+00  0.74505805969E-08  0.10566000000E+00  0.10566000000E+00 0. -1.
     999900   -1    0    0    0    0 -0.00000000000E+00 -0.00000000000E+00 -0.74505805969E-08  0.93827000000E+00  0.93827000000E+00 0. -1.
     999902    2    1    2    0    0  0.21461716892E-01 -0.58168219859E-02 -0.52304010927E-02  0.10210871060E+01  0.10208315631E+01 0.  0.
     999903    2    3    3    0    0  0.61514407215E-01 -0.33928672284E-01 -0.11155163215E+00  0.13333787436E+00  0.20001125087E-01 0.  0.
         14    1    1    2    0    0 -0.21461716892E-01  0.58168219859E-02  0.52304010927E-02  0.22842893984E-01  0.00000000000E+00 0. -1.
     999901    1    3    3    0    0 -0.40052690323E-01  0.28111850298E-01  0.10632123106E+00  0.88774923165E+00  0.88000000000E+00 0.  1.
        -11    1    4    4    0    0  0.28943451634E-01 -0.21833883012E-01 -0.41269880159E-01  0.54935470956E-01  0.51100000000E-03 0.  1.
         11    1    4    4    0    0  0.32570955581E-01 -0.12094789272E-01 -0.70281751996E-01  0.78402403405E-01  0.51100000000E-03 0. -1.
</event>
<event>
 8    1  0.1103774E+005  0.1043930E+01  0.7957747E-01            NaN
         13   -1    0    0    0    0  0.00000000000E+00  0.00000000000E+00  0.74505805969E-08  0.10566000000E+00  0.10566000000E+00 0. -1.
     999900   -1    0    0    0    0 -0.00000000000E+00 -0.00000000000E+00 -0.74505805969E-08  0.93827000000E+00  0.93827000000E+00 0.  1.
     999902    2    1    2    0    0  0.16138970507E-01  0.17452253896E-01 -0.27515985349E-02  0.10200005447E+01  0.10197198107E+01 0.  0.
     999903    2    3    3    0    0 -0.12369556990E+00 -0.16542801041E-01  0.19728337291E-01  0.12802817410E+00  0.20682064477E-01 0.  0.
         14    1    1    2    0    0 -0.16138970507E-01 -0.17452253896E-01  0.27515985349E-02  0.23929455271E-01  0.00000000000E+00 0. -1.
     999901    1    3    3    0    0  0.13983454041E+00  0.33995054937E-01 -0.22479935826E-01  0.89197237063E+00  0.88000000000E+00 0. -1.
        -11    1    4    4    0    0 -0.72213684389E-01  0.31267975849E-03  0.13905686010E-01  0.73542798465E-01  0.51100000000E-03 0. -1.
         11    1    4    4    0    0 -0.51481885514E-01 -0.16855480800E-01  0.58226512809E-02  0.54485375634E-01  0.51100000000E-03 0.  1.
</event>
<event>
 8    1  0.1103774E+005  0.1043930E+01  0.7957747E-01            NaN
         13   -1    0    0    0    0  0.00000000000E+00  0.00000000000E+00  0.74505805969E-08  0.10566000000E+00  0.10566000000E+00 0. -1.
     999900   -1    0    0    0    0 -0.00000000000E+00 -0.00000000000E+00 -0.74505805969E-08  0.93827000000E+00  0.93827000000E+00 0.  1.
     999902    2    1    2    0    0 -0.99718105151E-02  0.21924057359E-01  0.55146092322E-02  0.10192214547E+01  0.10189219114E+01 0.  0.
     999903    2    3    3    0    0  0.12241380659E+00 -0.15104482260E-01  0.30258696364E-01  0.12820555461E+00  0.17543947616E-01 0.  0.
         14    1    1    2    0    0  0.99718105151E-02 -0.21924057359E-01 -0.55146092322E-02  0.24708545304E-01  0.00000000000E+00 0.  1.
     999901    1    3    3    0    0 -0.13238561711E+00  0.37028539619E-01 -0.24744087132E-01  0.89101590009E+00  0.88000000000E+00 0. -1.
        -11    1    4    4    0    0  0.85652800603E-01 -0.12200038581E-01  0.13007883888E-01  0.87491195881E-01  0.51100000000E-03 0. -1.
         11    1    4    4    0    0  0.36761005989E-01 -0.29044436793E-02  0.17250812476E-01  0.40714358726E-01  0.51100000000E-03 0.  1.
</event>
<event>
 8    1  0.1103774E+005  0.1043930E+01  0.7957747E-01            NaN
         13   -1    0    0    0    0  0.00000000000E+00  0.00000000000E+00  0.74505805969E-08  0.10566000000E+00  0.10566000000E+00 0. -1.
     999900   -1    0    0    0    0 -0.00000000000E+00 -0.00000000000E+00 -0.74505805969E-08  0.93827000000E+00  0.93827000000E+00 0.  1.
     999902    2    1    2    0    0  0.95395973025E-02  0.92620466994E-02  0.20031957851E-01  0.10198869394E+01  0.10196035016E+01 0.  0.
     999903    2    3    3    0    0 -0.10594921603E+00 -0.67510068981E-01 -0.15897265514E-01  0.12830265692E+00  0.20639838399E-01 0.  0.
         14    1    1    2    0    0 -0.95395973025E-02 -0.92620466994E-02 -0.20031957851E-01  0.24043060560E-01  0.00000000000E+00 0.  1.
     999901    1    3    3    0    0  0.11548881334E+00  0.76772115681E-01  0.35929223364E-01  0.89158428252E+00  0.88000000000E+00 0. -1.
        -11    1    4    4    0    0 -0.72130852327E-01 -0.39090101211E-01 -0.18300889617E-01  0.84059975922E-01  0.51100000000E-03 0. -1.
         11    1    4    4    0    0 -0.33818363706E-01 -0.28419967770E-01  0.24036241034E-02  0.44242680995E-01  0.51100000000E-03 0.  1.
</event>
<event>
 8    1  0.1103774E+005  0.1043930E+01  0.7957747E-01            NaN
         13   -1    0    0    0    0  0.00000000000E+00  0.00000000000E+00  0.74505805969E-08  0.10566000000E+00  0.10566000000E+00 0.  1.
     999900   -1    0    0    0    0 -0.00000000000E+00 -0.00000000000E+00 -0.74505805969E-08  0.93827000000E+00  0.93827000000E+00 0.  1.
     999902    2    1    2    0    0 -0.47301659375E-02  0.11756616029E-01 -0.19194127964E-01  0.10209298470E+01  0.10206707331E+01 0.  0.
     999903    2    3    3    0    0 -0.79607346862E-01 -0.41566852431E-01 -0.95733193140E-01  0.13283738952E+00  0.20391049278E-01 0.  0.
         14    1    1    2    0    0  0.47301659375E-02 -0.11756616029E-01  0.19194127964E-01  0.23000153011E-01  0.00000000000E+00 0.  1.
     999901    1    3    3    0    0  0.74877180925E-01  0.53323468460E-01  0.76539065176E-01  0.88809245747E+00  0.88000000000E+00 0. -1.
        -11    1    4    4    0    0 -0.23815670687E-01 -0.48941554645E-02 -0.34732747509E-01  0.42400044794E-01  0.51100000000E-03 0.  1.
         11    1    4    4    0    0 -0.55791676175E-01 -0.36672696967E-01 -0.61000445631E-01  0.90437344728E-01  0.51100000000E-03 0. -1.
</event>
<event>
 7    1  0.1103774E+005  0.1043930E+01  0.7957747E-01            NaN
         13   -1    0    0    0    0  0.00000000000E+00  0.00000000000E+00  0.74505805969E-08  0.10566000000E+00  0.10566000000E+00 0.  1.
     999900   -1    0    0    0    0 -0.00000000000E+00 -0.00000000000E+00 -0.74505805969E-08  0.93827000000E+00  0.93827000000E+00 0.  1.
     999903    2    1    2    0    0 -0.78093752774E-01  0.80793055411E-01  0.83541249325E-03  0.11411923674E+00  0.19908547311E-01 0.  0.
         14    1    1    2    0    0 -0.24306291230E-02  0.32787854385E-01  0.20252972004E-01  0.38615207213E-01  0.00000000000E+00 0.  1.
     999901    1    1    2    0    0  0.80524381897E-01 -0.11358090980E+00 -0.21088384497E-01  0.89119555604E+00  0.88000000000E+00 0.  1.
        -11    1    3    3    0    0 -0.43960919958E-01  0.31288881551E-01  0.15124008548E-02  0.53982451497E-01  0.51100000000E-03 0.  1.
         11    1    3    3    0    0 -0.34132832816E-01  0.49504173860E-01 -0.67698836154E-03  0.60136785247E-01  0.51100000000E-03 0. -1.
</event>
<event>
 8    1  0.1103774E+005  0.1043930E+01  0.7957747E-01            NaN
         13   -1    0    0    0    0  0.00000000000E+00  0.00000000000E+00  0.74505805969E-08  0.10566000000E+00  0.10566000000E+00 0. -1.
     999900   -1    0    0    0    0 -0.00000000000E+00 -0.00000000000E+00 -0.74505805969E-08  0.93827000000E+00  0.93827000000E+00 0. -1.
     999902    2    1    2    0    0  0.21594128845E-01  0.11058384145E-01  0.69122228118E-02  0.10187035638E+01  0.10183911713E+01 0.  0.
     999903    2    3    3    0    0  0.81424937848E-01  0.39929303358E-01 -0.91543651371E-01  0.13072450161E+00  0.22006486412E-01 0.  0.
         14    1    1    2    0    0 -0.21594128845E-01 -0.11058384145E-01 -0.69122228118E-02  0.25226436227E-01  0.00000000000E+00 0.  1.
     999901    1    3    3    0    0 -0.59830809003E-01 -0.28870919213E-01  0.98455874183E-01  0.88797906216E+00  0.88000000000E+00 0.  1.
        -11    1    4    4    0    0  0.77729910202E-01  0.31502681618E-01 -0.79533939581E-01  0.11558661928E+00  0.51100000000E-03 0.  1.
         11    1    4    4    0    0  0.36950276458E-02  0.84266217404E-02 -0.12009711790E-01  0.15137882333E-01  0.51100000000E-03 0. -1.
</event>
<event>
 8    1  0.1103774E+005  0.1043930E+01  0.7957747E-01            NaN
         13   -1    0    0    0    0  0.00000000000E+00  0.00000000000E+00  0.74505805969E-08  0.10566000000E+00  0.10566000000E+00 0. -1.
     999900   -1    0    0    0    0 -0.00000000000E+00 -0.00000000000E+00 -0.74505805969E-08  0.93827000000E+00  0.93827000000E+00 0. -1.
     999902    2    1    2    0    0 -0.15336677285E-01 -0.16602509896E-01 -0.80059714302E-02  0.10199518311E+01  0.10196699393E+01 0.  0.
     999903    2    3    3    0    0  0.61518045607E-01  0.10742129149E+00  0.22985627723E-01  0.12739985449E+00  0.19457133450E-01 0.  0.
         14    1    1    2    0    0  0.15336677285E-01  0.16602509896E-01  0.80059714302E-02  0.23978168895E-01  0.00000000000E+00 0.  1.
     999901    1    3    3    0    0 -0.76854722893E-01 -0.12402380138E+00 -0.30991599153E-01  0.89255197661E+00  0.88000000000E+00 0. -1.
        -11    1    4    4    0    0  0.22005576959E-01  0.51867321983E-01  0.33045513262E-02  0.56441524496E-01  0.51100000000E-03 0. -1.
         11    1    4    4    0    0  0.39512468648E-01  0.55553969506E-01  0.19681076397E-01  0.70958329995E-01  0.51100000000E-03 0.  1.
</event>
<event>
 8    1  0.1103774E+005  0.1043930E+01  0.7957747E-01            NaN
         13   -1    0    0    0    0  0.00000000000E+00  0.00000000000E+00  0.74505805969E-08  0.10566000000E+00  0.10566000000E+00 0. -1.
     999900   -1    0    0    0    0 -0.00000000000E+00 -0.00000000000E+00 -0.74505805969E-08  0.93827000000E+00  0.93827000000E+00 0. -1.
     999902    2    1    2    0    0  0.17461189170E-01 -0.48389835446E-02  0.14786822753E-01  0.10205428451E+01  0.10202748353E+01 0.  0.
     999903    2    3    3    0    0  0.34353853257E-01 -0.10019694455E-01 -0.12290697177E+00  0.12966025857E+00  0.20617406029E-01 0.  0.
         14    1    1    2    0    0 -0.17461189170E-01  0.48389835446E-02 -0.14786822753E-01  0.23387154938E-01  0.00000000000E+00 0.  1.
     999901    1    3    3    0    0 -0.16892664086E-01  0.51807109103E-02  0.13769379452E+00  0.89088258649E+00  0.88000000000E+00 0.  1.
        -11    1    4    4    0    0  0.45578052557E-02 -0.93822271656E-02 -0.46196898246E-01  0.47362583374E-01  0.51100000000E-03 0.  1.
         11    1    4    4    0    0  0.29796048001E-01 -0.63746728930E-03 -0.76710073526E-01  0.82297675194E-01  0.51100000000E-03 0. -1.
</event>
<event>
 8    1  0.1103774E+005  0.1043930E+01  0.7957747E-01            NaN
         13   -1    0    0    0    0  0.00000000000E+00  0.00000000000E+00  0.74505805969E-08  0.10566000000E+00  0.10566000000E+00 0.  1.
     999900   -1    0    0    0    0 -0.00000000000E+00 -0.00000000000E+00 -0.74505805969E-08  0.93827000000E+00  0.93827000000E+00 0. -1.
     999902    2    1    2    0    0 -0.58080866978E-02  0.14088542166E-01 -0.17846403347E-01  0.10204626822E+01  0.10201928106E+01 0.  0.
     999903    2    3    3    0    0 -0.98278020069E-03 -0.12176605258E+00  0.35739553222E-01  0.12841379946E+00  0.19617614769E-01 0.  0.
         14    1    1    2    0    0  0.58080866978E-02 -0.14088542166E-01  0.17846403347E-01  0.23467317782E-01  0.00000000000E+00 0.  1.
     999901    1    3    3    0    0 -0.48253064971E-02  0.13585459474E+00 -0.53585956569E-01  0.89204888276E+00  0.88000000000E+00 0. -1.
        -11    1    4    4    0    0  0.29813471027E-02 -0.58776537610E-01  0.77229641198E-02  0.59358867070E-01  0.51100000000E-03 0.  1.
         11    1    4    4    0    0 -0.39641273034E-02 -0.62989514966E-01  0.28016589102E-01  0.69054932386E-01  0.51100000000E-03 0. -1.
</event>
<event>
 8    1  0.1103774E+005  0.1043930E+01  0.7957747E-01            NaN
         13   -1    0    0    0    0  0.00000000000E+00  0.00000000000E+00  0.74505805969E-08  0.10566000000E+00  0.10566000000E+00 0.  1.
     999900   -1    0    0    0    0 -0.00000000000E+00 -0.00000000000E+00 -0.74505805969E-08  0.93827000000E+00  0.93827000000E+00 0.  1.
     999902    2    1    2    0    0 -0.30822788997E-02  0.20987171115E-01 -0.43979703281E-02  0.10222665760E+01  0.10220370094E+01 0.  0.
     999903    2    3    3    0    0 -0.72536017235E-01 -0.10745456171E+00  0.36366474005E-02  0.13019838606E+00  0.11420941211E-01 0.  0.
         14    1    1    2    0    0  0.30822788997E-02 -0.20987171115E-01  0.43979703281E-02  0.21663423959E-01  0.00000000000E+00 0. -1.
     999901    1    3    3    0    0  0.69453738336E-01  0.12844173283E+00 -0.80346177287E-02  0.89206818998E+00  0.88000000000E+00 0.  1.
        -11    1    4    4    0    0 -0.25522045167E-01 -0.31228296370E-01  0.48900054085E-02  0.40629478923E-01  0.51100000000E-03 0.  1.
         11    1    4    4    0    0 -0.47013972068E-01 -0.76226265342E-01 -0.12533580079E-02  0.89568907133E-01  0.51100000000E-03 0. -1.
</event>
<event>
 8    1  0.1103774E+005  0.1043930E+01  0.7957747E-01            NaN
         13   -1    0    0    0    0  0.00000000000E+00  0.00000000000E+00  0.74505805969E-08  0.10566000000E+00  0.10566000000E+00 0. -1.
     999900   -1    0    0    0    0 -0.00000000000E+00 -0.00000000000E+00 -0.74505805969E-08  0.93827000000E+00  0.93827000000E+00 0. -1.
     999902    2    1    2    0    0  0.58831968050E-02 -0.11488900913E-02 -0.10853353597E-01  0.10315313211E+01  0.10314568044E+01 0.  0.
     999903    2    3    3    0    0 -0.88012312097E-02 -0.61984958831E-01  0.12252577886E+00  0.13928323195E+00  0.21625342201E-01 0.  0.
         14    1    1    2    0    0 -0.58831968050E-02  0.11488900913E-02  0.10853353597E-01  0.12398678856E-01  0.00000000000E+00 0. -1.
     999901    1    3    3    0    0  0.14684428015E-01  0.60836068740E-01 -0.13337913246E+00  0.89224808919E+00  0.88000000000E+00 0. -1.
        -11    1    4    4    0    0 -0.91542929220E-02 -0.17443824651E-01  0.54661136215E-01  0.58104982839E-01  0.51100000000E-03 0. -1.
         11    1    4    4    0    0  0.35306171230E-03 -0.44541134180E-01  0.67864642649E-01  0.81178249115E-01  0.51100000000E-03 0.  1.
</event>
<event>
 8    1  0.1103774E+005  0.1043930E+01  0.7957747E-01            NaN
         13   -1    0    0    0    0  0.00000000000E+00  0.00000000000E+00  0.74505805969E-08  0.10566000000E+00  0.10566000000E+00 0. -1.
     999900   -1    0    0    0    0 -0.00000000000E+00 -0.00000000000E+00 -0.74505805969E-08  0.93827000000E+00  0.93827000000E+00 0. -1.
     999902    2    1    2    0    0 -0.21570843470E-01  0.57994164658E-04  0.12677026054E-01  0.10189097754E+01  0.10186025322E+01 0.  0.
     999903    2    3    3    0    0  0.10938632895E+00 -0.10813631013E-01 -0.58569900978E-01  0.12630454467E+00  0.20978587386E-01 0.  0.
         14    1    1    2    0    0  0.21570843470E-01 -0.57994164658E-04 -0.12677026054E-01  0.25020224637E-01  0.00000000000E+00 0.  1.
     999901    1    3    3    0    0 -0.13095717242E+00  0.10871625177E-01  0.71246927032E-01  0.89260523069E+00  0.88000000000E+00 0.  1.
        -11    1    4    4    0    0  0.49910872282E-03 -0.48341335182E-03 -0.39587396459E-02  0.40516093803E-02  0.51100000000E-03 0.  1.
         11    1    4    4    0    0  0.10888722022E+00 -0.10330217661E-01 -0.54611161332E-01  0.12225293529E+00  0.51100000000E-03 0. -1.
</event>
<event>
 8    1  0.1103774E+005  0.1043930E+01  0.7957747E-01            NaN
         13   -1    0    0    0    0  0.00000000000E+00  0.00000000000E+00  0.74505805969E-08  0.10566000000E+00  0.10566000000E+00 0. -1.
     999900   -1    0    0    0    0 -0.00000000000E+00 -0.00000000000E+00 -0.74505805969E-08  0.93827000000E+00  0.93827000000E+00 0. -1.
     999902    2    1    2    0    0 -0.31380598011E-02  0.22822974769E-01  0.57632272018E-02  0.10201823604E+01  0.10199059261E+01 0.  0.
     999903    2    3    3    0    0  0.71925416259E-01 -0.59913318861E-01  0.87083288169E-01  0.12940024790E+00  0.19951285582E-01 0.  0.
         14    1    1    2    0    0  0.31380598011E-02 -0.22822974769E-01 -0.57632272018E-02  0.23747639554E-01  0.00000000000E+00 0.  1.
     999901    1    3    3    0    0 -0.75063476060E-01  0.82736293630E-01 -0.81320060968E-01  0.89078211255E+00  0.88000000000E+00 0. -1.
        -11    1    4    4    0    0  0.42845462782E-01 -0.47803521287E-01  0.59357673488E-01  0.87432859105E-01  0.51100000000E-03 0. -1.
         11    1    4    4    0    0  0.29079953477E-01 -0.12109797574E-01  0.27725614682E-01  0.41967388792E-01  0.51100000000E-03 0.  1.
</event>
<event>
 8    1  0.1103774E+005  0.1043930E+01  0.7957747E-01            NaN
         13   -1    0    0    0    0  0.00000000000E+00  0.00000000000E+00  0.74505805969E-08  0.10566000000E+00  0.10566000000E+00 0. -1.
     999900   -1    0    0    0    0 -0.00000000000E+00 -0.00000000000E+00 -0.74505805969E-08  0.93827000000E+00  0.93827000000E+00 0.  1.
     999902    2    1    2    0    0 -0.32767875492E-02 -0.19489118659E-01  0.12875267317E-01  0.10203432327E+01  0.10200705745E+01 0.  0.
     999903    2    3    3    0    0  0.10335983007E+00  0.15039098957E-01  0.76422260163E-01  0.13096042068E+00  0.20021013138E-01 0.  0.
         14    1    1    2    0    0  0.32767875492E-02  0.19489118659E-01 -0.12875267317E-01  0.23586767291E-01  0.00000000000E+00 0.  1.
     999901    1    3    3    0    0 -0.10663661762E+00 -0.34528217616E-01 -0.63546992846E-01  0.88938281203E+00  0.88000000000E+00 0.  1.
        -11    1    4    4    0    0  0.17160409391E-01  0.10103555723E-01  0.12294778739E-01  0.23409062219E-01  0.51100000000E-03 0.  1.
         11    1    4    4    0    0  0.86199420679E-01  0.49355432342E-02  0.64127481424E-01  0.10755135846E+00  0.51100000000E-03 0. -1.
</event>
<event>
 8    1  0.1103774E+005  0.1043930E+01  0.7957747E-01            NaN
         13   -1    0    0    0    0  0.00000000000E+00  0.00000000000E+00  0.74505805969E-08  0.10566000000E+00  0.10566000000E+00 0. -1.
     999900   -1    0    0    0    0 -0.00000000000E+00 -0.00000000000E+00 -0.74505805969E-08  0.93827000000E+00  0.93827000000E+00 0.  1.
     999902    2    1    2    0    0  0.21265002363E-01 -0.50014566422E-02  0.67416793798E-02  0.10210681292E+01  0.10208121568E+01 0.  0.
     999903    2    3    3    0    0 -0.11469369272E+00  0.46915712944E-01 -0.27569841726E-01  0.12845542501E+00  0.19620723001E-01 0.  0.
         14    1    1    2    0    0 -0.21265002363E-01  0.50014566422E-02 -0.67416793798E-02  0.22861870765E-01  0.00000000000E+00 0.  1.
     999901    1    3    3    0    0  0.13595869508E+00 -0.51917169586E-01  0.34311521106E-01  0.89261270423E+00  0.88000000000E+00 0.  1.
        -11    1    4    4    0    0 -0.80974702329E-01  0.31159587628E-01 -0.10141764371E-01  0.87355244971E-01  0.51100000000E-03 0.  1.
         11    1    4    4    0    0 -0.33718990389E-01  0.15756125316E-01 -0.17428077355E-01  0.41100180037E-01  0.51100000000E-03 0. -1.
</event>
<event>
 8    1  0.1103774E+005  0.1043930E+01  0.7957747E-01            NaN
         13   -1    0    0    0    0  0.00000000000E+00  0.00000000000E+00  0.74505805969E-08  0.10566000000E+00  0.10566000000E+00 0.  1.
     999900   -1    0    0    0    0 -0.00000000000E+00 -0.00000000000E+00 -0.74505805969E-08  0.93827000000E+00  0.93827000000E+00 0. -1.
     999902    2    1    2    0    0 -0.93096314339E-02  0.16073315802E-01 -0.18961124672E-01  0.10173867341E+01  0.10170404228E+01 0.  0.
     999903    2    3    3    0    0 -0.45649981985E-01 -0.99576754807E-01  0.58336953661E-01  0.12571944587E+00  0.20068082944E-01 0.  0.
         14    1    1    2    0    0  0.93096314339E-02 -0.16073315802E-01  0.18961124672E-01  0.26543265947E-01  0.00000000000E+00 0. -1.
     999901    1    3    3    0    0  0.36340350551E-01  0.11565007061E+00 -0.77298078333E-01  0.89166728819E+00  0.88000000000E+00 0. -1.
        -11    1    4    4    0    0 -0.10559090559E-01 -0.23322829436E-01  0.45080523855E-02  0.26000623524E-01  0.51100000000E-03 0.  1.
         11    1    4    4    0    0 -0.35090891427E-01 -0.76253925372E-01  0.53828901275E-01  0.99718822342E-01  0.51100000000E-03 0. -1.
</event>
<event>
 8    1  0.1103774E+005  0.1043930E+01  0.7957747E-01            NaN
         13   -1    0    0    0    0  0.00000000000E+00  0.00000000000E+00  0.74505805969E-08  0.10566000000E+00  0.10566000000E+00 0.  1.
     999900   -1    0    0    0    0 -0.00000000000E+00 -0.00000000000E+00 -0.74505805969E-08  0.93827000000E+00  0.93827000000E+00 0. -1.
     999902    2    1    2    0    0  0.10515144789E-02  0.19722033300E-01  0.17770420630E-02  0.10241001700E+01  0.10239081678E+01 0.  0.
     999903    2    3    3    0    0  0.78092027671E-01  0.10861737167E+00 -0.14745747185E-01  0.13611896273E+00  0.20367541383E-01 0.  0.
         14    1    1    2    0    0 -0.10515144789E-02 -0.19722033300E-01 -0.17770420630E-02  0.19829830021E-01  0.00000000000E+00 0. -1.
     999901    1    3    3    0    0 -0.77040513192E-01 -0.88895338367E-01  0.16522789248E-01  0.88798120725E+00  0.88000000000E+00 0.  1.
        -11    1    4    4    0    0  0.60191009890E-01  0.96304484841E-01 -0.11589755989E-01  0.11415820179E+00  0.51100000000E-03 0.  1.
         11    1    4    4    0    0  0.17901017781E-01  0.12312886826E-01 -0.31559911964E-02  0.21960760939E-01  0.51100000000E-03 0. -1.
</event>
<event>
 8    1  0.1103774E+005  0.1043930E+01  0.7957747E-01            NaN
         13   -1    0    0    0    0  0.00000000000E+00  0.00000000000E+00  0.74505805969E-08  0.10566000000E+00  0.10566000000E+00 0.  1.
     999900   -1    0    0    0    0 -0.00000000000E+00 -0.00000000000E+00 -0.74505805969E-08  0.93827000000E+00  0.93827000000E+00 0.  1.
     999902    2    1    2    0    0 -0.10867054157E-01 -0.48518798560E-02 -0.27270068025E-01  0.10141761731E+01  0.10137396214E+01 0.  0.
     999903    2    3    3    0    0  0.70752384777E-01  0.98482204443E-01  0.11666750770E-01  0.12352711673E+00  0.20449717589E-01 0.  0.
         14    1    1    2    0    0  0.10867054157E-01  0.48518798560E-02  0.27270068025E-01  0.29753826885E-01  0.00000000000E+00 0.  1.
     999901    1    3    3    0    0 -0.81619438934E-01 -0.10333408430E+00 -0.38936818794E-01  0.89064905639E+00  0.88000000000E+00 0. -1.
        -11    1    4    4    0    0  0.32956733493E-01  0.63122006623E-01  0.73192013956E-02  0.71584675963E-01  0.51100000000E-03 0. -1.
         11    1    4    4    0    0  0.37795651284E-01  0.35360197820E-01  0.43475493739E-02  0.51942440763E-01  0.51100000000E-03 0.  1.
</event>
<event>
 8    1  0.1103774E+005  0.1043930E+01  0.7957747E-01            NaN
         13   -1    0    0    0    0  0.00000000000E+00  0.00000000000E+00  0.74505805969E-08  0.10566000000E+00  0.10566000000E+00 0. -1.
     999900   -1    0    0    0    0 -0.00000000000E+00 -0.00000000000E+00 -0.74505805969E-08  0.93827000000E+00  0.93827000000E+00 0.  1.
     999902    2    1    2    0    0  0.14359059063E-01 -0.18323055680E-01  0.32171068264E-02  0.10204296442E+01  0.10201590033E+01 0.  0.
     999903    2    3    3    0    0  0.46854741619E-01  0.94513036613E-01  0.73447235329E-01  0.12985666905E+00  0.18443893769E-01 0.  0.
         14    1    1    2    0    0 -0.14359059063E-01  0.18323055680E-01 -0.32171068264E-02  0.23500355805E-01  0.00000000000E+00 0.  1.
     999901    1    3    3    0    0 -0.32495682556E-01 -0.11283609229E+00 -0.70230128503E-01  0.89057297514E+00  0.88000000000E+00 0.  1.
        -11    1    4    4    0    0  0.20614133457E-01  0.60427063059E-01  0.39754142176E-01  0.75213199568E-01  0.51100000000E-03 0. -1.
         11    1    4    4    0    0  0.26240608162E-01  0.34085973554E-01  0.33693093153E-01  0.54643469482E-01  0.51100000000E-03 0.  1.
</event>
<event>
 8    1  0.1103774E+005  0.1043930E+01  0.7957747E-01            NaN
         13   -1    0    0    0    0  0.00000000000E+00  0.00000000000E+00  0.74505805969E-08  0.10566000000E+00  0.10566000000E+00 0. -1.
     999900   -1    0    0    0    0 -0.00000000000E+00 -0.00000000000E+00 -0.74505805969E-08  0.93827000000E+00  0.93827000000E+00 0. -1.
     999902    2    1    2    0    0 -0.64384762223E-02 -0.84185930382E-02 -0.20178221171E-01  0.10211377361E+01  0.10208833375E+01 0.  0.
     999903    2    3    3    0    0 -0.11226570435E+00  0.64876398772E-01 -0.10770961634E-02  0.13156682210E+00  0.22274044309E-01 0.  0.
         14    1    1    2    0    0  0.64384762223E-02  0.84185930382E-02  0.20178221171E-01  0.22792263916E-01  0.00000000000E+00 0. -1.
     999901    1    3    3    0    0  0.10582722813E+00 -0.73294991810E-01 -0.19101125008E-01  0.88957091399E+00  0.88000000000E+00 0. -1.
        -11    1    4    4    0    0 -0.12971523723E-01  0.72824826097E-02 -0.73608148997E-02  0.16605351476E-01  0.51100000000E-03 0. -1.
         11    1    4    4    0    0 -0.99294180624E-01  0.57593916162E-01  0.62837187363E-02  0.11496147062E+00  0.51100000000E-03 0.  1.
</event>
<event>
 8    1  0.1103774E+005  0.1043930E+01  0.7957747E-01            NaN
         13   -1    0    0    0    0  0.00000000000E+00  0.00000000000E+00  0.74505805969E-08  0.10566000000E+00  0.10566000000E+00 0. -1.
     999900   -1    0    0    0    0 -0.00000000000E+00 -0.00000000000E+00 -0.74505805969E-08  0.93827000000E+00  0.93827000000E+00 0. -1.
     999902    2    1    2    0    0  0.72764284421E-04  0.14737403862E-01 -0.18041106033E-01  0.10206345525E+01  0.10203686647E+01 0.  0.
     999903    2    3    3    0    0  0.34628944720E-01  0.31820549567E-01 -0.12332876011E+00  0.13352043720E+00  0.20149761576E-01 0.  0.
         14    1    1    2    0    0 -0.72764284421E-04 -0.14737403862E-01  0.18041106033E-01  0.23295447498E-01  0.00000000000E+00 0. -1.
     999901    1    3    3    0    0 -0.34556180436E-01 -0.17083145705E-01  0.10528765408E+00  0.88711411531E+00  0.88000000000E+00 0.  1.
        -11    1    4    4    0    0  0.10986063531E-01  0.13208948672E-01 -0.22607320013E-01  0.28399330205E-01  0.51100000000E-03 0. -1.
         11    1    4    4    0    0  0.23642881189E-01  0.18611600895E-01 -0.10072144010E+00  0.10512110699E+00  0.51100000000E-03 0.  1.
</event>
<event>
 8    1  0.1103774E+005  0.1043930E+01  0.7957747E-01            NaN
         13   -1    0    0    0    0  0.00000000000E+00  0.00000000000E+00  0.74505805969E-08  0.10566000000E+00  0.10566000000E+00 0.  1.
     999900   -1    0    0    0    0 -0.00000000000E+00 -0.00000000000E+00 -0.74505805969E-08  0.93827000000E+00  0.93827000000E+00 0. -1.
     999902    2    1    2    0    0  0.95286654889E-02  0.15646863820E-01  0.17486882117E-01  0.10186039095E+01  0.10182890128E+01 0.  0.
     999903    2    3    3    0    0 -0.51229496467E-01 -0.92273844427E-01 -0.66144312097E-01  0.12600511377E+00  0.19060299035E-01 0.  0.
         14    1    1    2    0    0 -0.95286654889E-02 -0.15646863820E-01 -0.17486882117E-01  0.25326090491E-01  0.00000000000E+00 0. -1.
     999901    1    3    3    0    0  0.60758161956E-01  0.10792070825E+00  0.83631194214E-01  0.89259879574E+00  0.88000000000E+00 0. -1.
        -11    1    4    4    0    0 -0.67983949329E-02 -0.19151078994E-01 -0.52846566688E-02  0.21004064307E-01  0.51100000000E-03 0.  1.
         11    1    4    4    0    0 -0.44431101534E-01 -0.73122765432E-01 -0.60859655428E-01  0.10500104946E+00  0.51100000000E-03 0. -1.
</event>
<event>
 8    1  0.1103774E+005  0.1043930E+01  0.7957747E-01            NaN
         13   -1    0    0    0    0  0.00000000000E+00  0.00000000000E+00  0.74505805969E-08  0.10566000000E+00  0.10566000000E+00 0. -1.
     999900   -1    0    0    0    0 -0.00000000000E+00 -0.00000000000E+00 -0.74505805969E-08  0.93827000000E+00  0.93827000000E+00 0. -1.
     999902    2    1    2    0    0  0.22515648597E-01 -0.52200913664E-02 -0.28654332714E-02  0.10206402062E+01  0.10203744490E+01 0.  0.
     999903    2    3    3    0    0 -0.54884585369E-01 -0.37543849983E-01 -0.11011685550E+00  0.13016926951E+00  0.19911265046E-01 0.  0.
         14    1    1    2    0    0 -0.22515648597E-01  0.52200913664E-02  0.28654332714E-02  0.23289793761E-01  0.00000000000E+00 0.  1.
     999901    1    3    3    0    0  0.77400233966E-01  0.32323758616E-01  0.10725142223E+00  0.89047093673E+00  0.88000000000E+00 0.  1.
        -11    1    4    4    0    0 -0.15482000958E-01 -0.17693515327E-02 -0.32645436167E-01  0.36177459586E-01  0.51100000000E-03 0. -1.
         11    1    4    4    0    0 -0.39402584411E-01 -0.35774498450E-01 -0.77471419337E-01  0.93991809924E-01  0.51100000000E-03 0.  1.
</event>
<event>
 8    1  0.1103774E+005  0.1043930E+01  0.7957747E-01            NaN
         13   -1    0    0    0    0  0.00000000000E+00  0.00000000000E+00  0.74505805969E-08  0.10566000000E+00  0.10566000000E+00 0.  1.
     999900   -1    0    0    0    0 -0.00000000000E+00 -0.00000000000E+00 -0.74505805969E-08  0.93827000000E+00  0.93827000000E+00 0. -1.
     999902    2    1    2    0    0 -0.23622507414E-01 -0.16338823731E-02 -0.18810936823E-02  0.10201764541E+01  0.10198998807E+01 0.  0.
     999903    2    3    3    0    0 -0.58508987445E-01  0.10373613607E+00 -0.52720659511E-01  0.13174830918E+00  0.19840904607E-01 0.  0.
         14    1    1    2    0    0  0.23622507414E-01  0.16338823731E-02  0.18810936823E-02  0.23753545873E-01  0.00000000000E+00 0. -1.
     999901    1    3    3    0    0  0.34886480031E-01 -0.10537001844E+00  0.50839565829E-01  0.88842814494E+00  0.88000000000E+00 0.  1.
        -11    1    4    4    0    0 -0.46384879697E-01  0.70117317700E-01 -0.29372352818E-01  0.89056114540E-01  0.51100000000E-03 0.  1.
         11    1    4    4    0    0 -0.12124107749E-01  0.33618818366E-01 -0.23348306693E-01  0.42692194643E-01  0.51100000000E-03 0. -1.
</event>
<event>
 8    1  0.1103774E+005  0.1043930E+01  0.7957747E-01            NaN
         13   -1    0    0    0    0  0.00000000000E+00  0.00000000000E+00  0.74505805969E-08  0.10566000000E+00  0.10566000000E+00 0.  1.
     999900   -1    0    0    0    0 -0.00000000000E+00 -0.00000000000E+00 -0.74505805969E-08  0.93827000000E+00  0.93827000000E+00 0.  1.
     999902    2    1    2    0    0  0.22516804200E-02 -0.59492652864E-02 -0.22671335918E-01  0.10203831681E+01  0.10201114431E+01 0.  0.
     999903    2    3    3    0    0 -0.83360753633E-01  0.97433193221E-01  0.20578759282E-02  0.12986143586E+00  0.20433190746E-01 0.  0.
         14    1    1    2    0    0 -0.22516804200E-02  0.59492652864E-02  0.22671335918E-01  0.23546831941E-01  0.00000000000E+00 0.  1.
     999901    1    3    3    0    0  0.85612434053E-01 -0.10338245851E+00 -0.24729211846E-01  0.89052173219E+00  0.88000000000E+00 0. -1.
        -11    1    4    4    0    0 -0.25486472414E-01  0.18745233155E-01 -0.45038145917E-02  0.31960749507E-01  0.51100000000E-03 0. -1.
         11    1    4    4    0    0 -0.57874281219E-01  0.78687960066E-01  0.65616905199E-02  0.97900686358E-01  0.51100000000E-03 0.  1.
</event>
<event>
 8    1  0.1103774E+005  0.1043930E+01  0.7957747E-01            NaN
         13   -1    0    0    0    0  0.00000000000E+00  0.00000000000E+00  0.74505805969E-08  0.10566000000E+00  0.10566000000E+00 0. -1.
     999900   -1    0    0    0    0 -0.00000000000E+00 -0.00000000000E+00 -0.74505805969E-08  0.93827000000E+00  0.93827000000E+00 0.  1.
     999902    2    1    2    0    0 -0.31536290587E-02 -0.23062756724E-01  0.43214538117E-02  0.10202548846E+01  0.10199801560E+01 0.  0.
     999903    2    3    3    0    0  0.11421680996E+00  0.59713294593E-02 -0.58170539253E-01  0.12979205706E+00  0.19519989367E-01 0.  0.
         14    1    1    2    0    0  0.31536290587E-02  0.23062756724E-01 -0.43214538117E-02  0.23675115353E-01  0.00000000000E+00 0.  1.
     999901    1    3    3    0    0 -0.11737043902E+00 -0.29034086183E-01  0.62491993064E-01  0.89046282759E+00  0.88000000000E+00 0. -1.
        -11    1    4    4    0    0  0.25161103181E-01 -0.16590257624E-02 -0.47583486824E-02  0.25665862210E-01  0.51100000000E-03 0.  1.
         11    1    4    4    0    0  0.89055706783E-01  0.76303552217E-02 -0.53412190570E-01  0.10412619485E+00  0.51100000000E-03 0. -1.
</event>
<event>
 8    1  0.1103774E+005  0.1043930E+01  0.7957747E-01            NaN
         13   -1    0    0    0    0  0.00000000000E+00  0.00000000000E+00  0.74505805969E-08  0.10566000000E+00  0.10566000000E+00 0. -1.
     999900   -1    0    0    0    0 -0.00000000000E+00 -0.00000000000E+00 -0.74505805969E-08  0.93827000000E+00  0.93827000000E+00 0. -1.
     999902    2    1    2    0    0 -0.64744283536E-02 -0.18201350247E-01 -0.14494321678E-01  0.10197785459E+01  0.10194925159E+01 0.  0.
     999903    2    3    3    0    0 -0.34255882183E-01 -0.43259717521E-01  0.11538035790E+00  0.12945997184E+00  0.20059628523E-01 0.  0.
         14    1    1    2    0    0  0.64744283536E-02  0.18201350247E-01  0.14494321678E-01  0.24151454081E-01  0.00000000000E+00 0. -1.
     999901    1    3    3    0    0  0.27781453830E-01  0.25058367274E-01 -0.12987467958E+00  0.89031857408E+00  0.88000000000E+00 0. -1.
        -11    1    4    4    0    0 -0.20961322984E-01 -0.32306149016E-01  0.58611296978E-01  0.70132799601E-01  0.51100000000E-03 0. -1.
         11    1    4    4    0    0 -0.13294559199E-01 -0.10953568505E-01  0.56769060923E-01  0.59327172243E-01  0.51100000000E-03 0.  1.
</event>
<event>
 8    1  0.1103774E+005  0.1043930E+01  0.7957747E-01            NaN
         13   -1    0    0    0    0  0.00000000000E+00  0.00000000000E+00  0.74505805969E-08  0.10566000000E+00  0.10566000000E+00 0. -1.
     999900   -1    0    0    0    0 -0.00000000000E+00 -0.00000000000E+00 -0.74505805969E-08  0.93827000000E+00  0.93827000000E+00 0.  1.
     999902    2    1    2    0    0  0.13843472260E-01 -0.15080636470E-01 -0.11687833894E-01  0.10203572874E+01  0.10200849578E+01 0.  0.
     999903    2    3    3    0    0 -0.87607442007E-01  0.84023821703E-01  0.34685703151E-01  0.12779665267E+00  0.19844896651E-01 0.  0.
         14    1    1    2    0    0 -0.13843472260E-01  0.15080636470E-01  0.11687833894E-01  0.23572712650E-01  0.00000000000E+00 0. -1.
     999901    1    3    3    0    0  0.10145091427E+00 -0.99104458174E-01 -0.46373537044E-01  0.89256063468E+00  0.88000000000E+00 0. -1.
        -11    1    4    4    0    0 -0.66364370073E-02  0.15598097307E-01  0.57325278949E-02  0.17901562301E-01  0.51100000000E-03 0. -1.
         11    1    4    4    0    0 -0.80971004999E-01  0.68425724397E-01  0.28953175256E-01  0.10989509037E+00  0.51100000000E-03 0.  1.
</event>
<event>
 8    1  0.1103774E+005  0.1043930E+01  0.7957747E-01            NaN
         13   -1    0    0    0    0  0.00000000000E+00  0.00000000000E+00  0.74505805969E-08  0.10566000000E+00  0.10566000000E+00 0.  1.
     999900   -1    0    0    0    0 -0.00000000000E+00 -0.00000000000E+00 -0.74505805969E-08  0.93827000000E+00  0.93827000000E+00 0. -1.
     999902    2    1    2    0    0 -0.69816963290E-02 -0.60868989478E-02  0.21747455771E-01  0.10202921859E+01  0.10200183324E+01 0.  0.
     999903    2    3    3    0    0  0.74114244331E-01  0.78054075228E-01  0.72164845350E-01  0.13113631189E+00  0.20089985567E-01 0.  0.
         14    1    1    2    0    0  0.69816963290E-02  0.60868989478E-02 -0.21747455771E-01  0.23637814090E-01  0.00000000000E+00 0. -1.
     999901    1    3    3    0    0 -0.81095940660E-01 -0.84140974176E-01 -0.50417389579E-01  0.88915587402E+00  0.88000000000E+00 0. -1.
        -11    1    4    4    0    0  0.55027405141E-01  0.52031764549E-01  0.60086364289E-01  0.96674464742E-01  0.51100000000E-03 0.  1.
         11    1    4    4    0    0  0.19086839190E-01  0.26022310679E-01  0.12078481061E-01  0.34461847151E-01  0.51100000000E-03 0. -1.
</event>
<event>
 8    1  0.1103774E+005  0.1043930E+01  0.7957747E-01            NaN
         13   -1    0    0    0    0  0.00000000000E+00  0.00000000000E+00  0.74505805969E-08  0.10566000000E+00  0.10566000000E+00 0. -1.
     999900   -1    0    0    0    0 -0.00000000000E+00 -0.00000000000E+00 -0.74505805969E-08  0.93827000000E+00  0.93827000000E+00 0. -1.
     999902    2    1    2    0    0 -0.72194175448E-02 -0.18922670865E-01 -0.10985744415E-01  0.10208892960E+01  0.10206292572E+01 0.  0.
     999903    2    3    3    0    0 -0.65784771399E-01  0.10946224379E+00 -0.85380342494E-02  0.12964377520E+00  0.20615320930E-01 0.  0.
         14    1    1    2    0    0  0.72194175448E-02  0.18922670865E-01  0.10985744415E-01  0.23040704041E-01  0.00000000000E+00 0. -1.
     999901    1    3    3    0    0  0.58565353854E-01 -0.12838491465E+00 -0.24477101656E-02  0.89124552076E+00  0.88000000000E+00 0. -1.
        -11    1    4    4    0    0 -0.19945675371E-01  0.40271455655E-01  0.61278379026E-02  0.45358920016E-01  0.51100000000E-03 0. -1.
         11    1    4    4    0    0 -0.45839096028E-01  0.69190788132E-01 -0.14665872152E-01  0.84284855187E-01  0.51100000000E-03 0.  1.
</event>
<event>
 8    1  0.1103774E+005  0.1043930E+01  0.7957747E-01            NaN
         13   -1    0    0    0    0  0.00000000000E+00  0.00000000000E+00  0.74505805969E-08  0.10566000000E+00  0.10566000000E+00 0.  1.
     999900   -1    0    0    0    0 -0.00000000000E+00 -0.00000000000E+00 -0.74505805969E-08  0.93827000000E+00  0.93827000000E+00 0.  1.
     999902    2    1    2    0    0  0.25579375084E-01  0.89204340893E-02  0.10356228870E-02  0.10168200187E+01  0.10164585576E+01 0.  0.
     999903    2    3    3    0    0 -0.72469983317E-01  0.57386523274E-01  0.84468841992E-01  0.12613278930E+00  0.15145419539E-01 0.  0.
         14    1    1    2    0    0 -0.25579375084E-01 -0.89204340893E-02 -0.10356228870E-02  0.27109981349E-01  0.00000000000E+00 0. -1.
     999901    1    3    3    0    0  0.98049358400E-01 -0.48466089184E-01 -0.83433219105E-01  0.89068722935E+00  0.88000000000E+00 0. -1.
        -11    1    4    4    0    0 -0.43790056806E-01  0.30865644657E-01  0.39495546830E-01  0.66561373450E-01  0.51100000000E-03 0. -1.
         11    1    4    4    0    0 -0.28679926510E-01  0.26520878617E-01  0.44973295162E-01  0.59571415847E-01  0.51100000000E-03 0.  1.
</event>
<event>
 8    1  0.1103774E+005  0.1043930E+01  0.7957747E-01            NaN
         13   -1    0    0    0    0  0.00000000000E+00  0.00000000000E+00  0.74505805969E-08  0.10566000000E+00  0.10566000000E+00 0.  1.
     999900   -1    0    0    0    0 -0.00000000000E+00 -0.00000000000E+00 -0.74505805969E-08  0.93827000000E+00  0.93827000000E+00 0.  1.
     999902    2    1    2    0    0 -0.21099431289E-02 -0.22997374511E-01 -0.28620131028E-02  0.10206593702E+01  0.10203940551E+01 0.  0.
     999903    2    3    3    0    0 -0.39453251718E-01  0.49134877464E-01  0.11132226469E+00  0.12957259898E+00  0.20630475901E-01 0.  0.
         14    1    1    2    0    0  0.21099431289E-02  0.22997374511E-01  0.28620131028E-02  0.23270629845E-01  0.00000000000E+00 0.  1.
     999901    1    3    3    0    0  0.37343308589E-01 -0.72132251975E-01 -0.11418427779E+00  0.89108677118E+00  0.88000000000E+00 0. -1.
        -11    1    4    4    0    0 -0.48310962105E-02  0.51186076085E-02  0.30088000025E-01  0.30904506159E-01  0.51100000000E-03 0. -1.
         11    1    4    4    0    0 -0.34622155508E-01  0.44016269856E-01  0.81234264664E-01  0.98668092819E-01  0.51100000000E-03 0.  1.
</event>
<event>
 8    1  0.1103774E+005  0.1043930E+01  0.7957747E-01            NaN
         13   -1    0    0    0    0  0.00000000000E+00  0.00000000000E+00  0.74505805969E-08  0.10566000000E+00  0.10566000000E+00 0.  1.
     999900   -1    0    0    0    0 -0.00000000000E+00 -0.00000000000E+00 -0.74505805969E-08  0.93827000000E+00  0.93827000000E+00 0.  1.
     999902    2    1    2    0    0 -0.85089568686E-02  0.18354200898E-01  0.11202221024E-01  0.10208049315E+01  0.10205429630E+01 0.  0.
     999903    2    3    3    0    0 -0.69308042185E-01  0.61610791339E-01 -0.91347480399E-01  0.13171320245E+00  0.20112463880E-01 0.  0.
         14    1    1    2    0    0  0.85089568686E-02 -0.18354200898E-01 -0.11202221024E-01  0.23125068507E-01  0.00000000000E+00 0. -1.
     999901    1    3    3    0    0  0.60799085316E-01 -0.43256590442E-01  0.10254970142E+00  0.88909172904E+00  0.88000000000E+00 0. -1.
        -11    1    4    4    0    0 -0.32311430003E-01  0.41887731617E-01 -0.53209679863E-01  0.75034270310E-01  0.51100000000E-03 0. -1.
         11    1    4    4    0    0 -0.36996612182E-01  0.19723059723E-01 -0.38137800536E-01  0.56678932139E-01  0.51100000000E-03 0.  1.
</event>
<event>
 8    1  0.1103774E+005  0.1043930E+01  0.7957747E-01            NaN
         13   -1    0    0    0    0  0.00000000000E+00  0.00000000000E+00  0.74505805969E-08  0.10566000000E+00  0.10566000000E+00 0. -1.
     999900   -1    0    0    0    0 -0.00000000000E+00 -0.00000000000E+00 -0.74505805969E-08  0.93827000000E+00  0.93827000000E+00 0. -1.
     999902    2    1    2    0    0 -0.48282888664E-02  0.11937192336E-01  0.19551623694E-01  0.10205190000E+01  0.10202504371E+01 0.  0.
     999903    2    3    3    0    0  0.33580089068E-01 -0.11432364202E+00 -0.43238855553E-01  0.12846538829E+00  0.20886355676E-01 0.  0.
         14    1    1    2    0    0  0.48282888664E-02 -0.11937192336E-01 -0.19551623694E-01  0.23411000050E-01  0.00000000000E+00 0.  1.
     999901    1    3    3    0    0 -0.38408377935E-01  0.12626083435E+00  0.62790479247E-01  0.89205361166E+00  0.88000000000E+00 0.  1.
        -11    1    4    4    0    0  0.36191483233E-01 -0.99382244494E-01 -0.36934688273E-01  0.11203163079E+00  0.51100000000E-03 0. -1.
         11    1    4    4    0    0 -0.26113941648E-02 -0.14941397525E-01 -0.63041672802E-02  0.16433757500E-01  0.51100000000E-03 0.  1.
</event>
<event>
 8    1  0.1103774E+005  0.1043930E+01  0.7957747E-01            NaN
         13   -1    0    0    0    0  0.00000000000E+00  0.00000000000E+00  0.74505805969E-08  0.10566000000E+00  0.10566000000E+00 0.  1.
     999900   -1    0    0    0    0 -0.00000000000E+00 -0.00000000000E+00 -0.74505805969E-08  0.93827000000E+00  0.93827000000E+00 0. -1.
     999902    2    1    2    0    0  0.10894246046E-01  0.20313228945E-01  0.26278414527E-02  0.10207304867E+01  0.10204668094E+01 0.  0.
     999903    2    3    3    0    0 -0.84278339443E-02 -0.31212778000E-01 -0.12417064748E+00  0.12994087687E+00  0.20518671757E-01 0.  0.
         14    1    1    2    0    0 -0.10894246046E-01 -0.20313228945E-01 -0.26278414527E-02  0.23199513309E-01  0.00000000000E+00 0.  1.
     999901    1    3    3    0    0  0.19322079991E-01  0.51526006945E-01  0.12679848893E+00  0.89078960982E+00  0.88000000000E+00 0.  1.
        -11    1    4    4    0    0 -0.22766691608E-02 -0.22363114000E-01 -0.10917926061E+00  0.11147046316E+00  0.51100000000E-03 0.  1.
         11    1    4    4    0    0 -0.61511647835E-02 -0.88496640001E-02 -0.14991386874E-01  0.18470413707E-01  0.51100000000E-03 0. -1.
</event>
<event>
 8    1  0.1103774E+005  0.1043930E+01  0.7957747E-01            NaN
         13   -1    0    0    0    0  0.00000000000E+00  0.00000000000E+00  0.74505805969E-08  0.10566000000E+00  0.10566000000E+00 0.  1.
     999900   -1    0    0    0    0 -0.00000000000E+00 -0.00000000000E+00 -0.74505805969E-08  0.93827000000E+00  0.93827000000E+00 0. -1.
     999902    2    1    2    0    0 -0.20718019349E-01  0.11175260439E-01 -0.32442489848E-02  0.10201676785E+01  0.10198908982E+01 0.  0.
     999903    2    3    3    0    0 -0.76957454287E-01  0.95611239133E-01 -0.47360318443E-01  0.13324122376E+00  0.21124988186E-01 0.  0.
         14    1    1    2    0    0  0.20718019349E-01 -0.11175260439E-01  0.32442489848E-02  0.23762321501E-01  0.00000000000E+00 0.  1.
     999901    1    3    3    0    0  0.56239434937E-01 -0.84435978694E-01  0.44116069458E-01  0.88692645474E+00  0.88000000000E+00 0. -1.
        -11    1    4    4    0    0 -0.50034615419E-01  0.56996727882E-01 -0.18659860851E-01  0.78105961728E-01  0.51100000000E-03 0. -1.
         11    1    4    4    0    0 -0.26922838867E-01  0.38614511251E-01 -0.28700457592E-01  0.55135262027E-01  0.51100000000E-03 0.  1.
</event>
<event>
 8    1  0.1103774E+005  0.1043930E+01  0.7957747E-01            NaN
         13   -1    0    0    0    0  0.00000000000E+00  0.00000000000E+00  0.74505805969E-08  0.10566000000E+00  0.10566000000E+00 0.  1.
     999900   -1    0    0    0    0 -0.00000000000E+00 -0.00000000000E+00 -0.74505805969E-08  0.93827000000E+00  0.93827000000E+00 0.  1.
     999902    2    1    2    0    0 -0.11921439275E-01  0.18281810714E-01 -0.50721820680E-02  0.10215230290E+01  0.10212772525E+01 0.  0.
     999903    2    3    3    0    0  0.10180138343E+00 -0.54650639484E-01 -0.55529633671E-01  0.12978429087E+00  0.20253589233E-01 0.  0.
         14    1    1    2    0    0  0.11921439275E-01 -0.18281810714E-01  0.50721820680E-02  0.22406970976E-01  0.00000000000E+00 0. -1.
     999901    1    3    3    0    0 -0.11372282271E+00  0.72932450198E-01  0.50457451603E-01  0.89173873815E+00  0.88000000000E+00 0. -1.
        -11    1    4    4    0    0  0.42681879752E-01 -0.16490930291E-01 -0.30967834849E-01  0.55253611260E-01  0.51100000000E-03 0. -1.
         11    1    4    4    0    0  0.59119503681E-01 -0.38159709192E-01 -0.24561798821E-01  0.74530679613E-01  0.51100000000E-03 0.  1.
</event>
<event>
 8    1  0.1103774E+005  0.1043930E+01  0.7957747E-01            NaN
         13   -1    0    0    0    0  0.00000000000E+00  0.00000000000E+00  0.74505805969E-08  0.10566000000E+00  0.10566000000E+00 0.  1.
     999900   -1    0    0    0    0 -0.00000000000E+00 -0.00000000000E+00 -0.74505805969E-08  0.93827000000E+00  0.93827000000E+00 0. -1.
     999902    2    1    2    0    0 -0.14668197117E-01  0.10057018806E-01 -0.15444097303E-01  0.10203753874E+01  0.10201034807E+01 0.  0.
     999903    2    3    3    0    0  0.55517692837E-01 -0.10904866977E+00  0.32672028959E-01  0.12828380811E+00  0.20382525647E-01 0.  0.
         14    1    1    2    0    0  0.14668197117E-01 -0.10057018806E-01  0.15444097303E-01  0.23554612615E-01  0.00000000000E+00 0.  1.
     999901    1    3    3    0    0 -0.70185889954E-01  0.11910568857E+00 -0.48116126262E-01  0.89209157927E+00  0.88000000000E+00 0. -1.
        -11    1    4    4    0    0  0.17895199326E-01 -0.47313427290E-01  0.48558641245E-02  0.50819672355E-01  0.51100000000E-03 0.  1.
         11    1    4    4    0    0  0.37622493511E-01 -0.61735242479E-01  0.27816164834E-01  0.77464135760E-01  0.51100000000E-03 0. -1.
</event>
<event>
 8    1  0.1103774E+005  0.1043930E+01  0.7957747E-01            NaN
         13   -1    0    0    0    0  0.00000000000E+00  0.00000000000E+00  0.74505805969E-08  0.10566000000E+00  0.10566000000E+00 0. -1.
     999900   -1    0    0    0    0 -0.00000000000E+00 -0.00000000000E+00 -0.74505805969E-08  0.93827000000E+00  0.93827000000E+00 0.  1.
     999902    2    1    2    0    0 -0.23398748202E-02 -0.50416367601E-02 -0.22580425388E-01  0.10206755655E+01  0.10204106238E+01 0.  0.
     999903    2    3    3    0    0  0.44928114645E-01 -0.94371334429E-01 -0.79886735667E-01  0.13303933877E+00  0.19826519580E-01 0.  0.
         14    1    1    2    0    0  0.23398748202E-02  0.50416367601E-02  0.22580425388E-01  0.23254434547E-01  0.00000000000E+00 0. -1.
     999901    1    3    3    0    0 -0.47267989466E-01  0.89329697668E-01  0.57306310279E-01  0.88763622668E+00  0.88000000000E+00 0. -1.
        -11    1    4    4    0    0  0.10253624871E-01 -0.94429219518E-02 -0.16125622415E-01  0.21321407487E-01  0.51100000000E-03 0. -1.
         11    1    4    4    0    0  0.34674489775E-01 -0.84928412477E-01 -0.63761113252E-01  0.11171793129E+00  0.51100000000E-03 0.  1.
</event>
<event>
 8    1  0.1103774E+005  0.1043930E+01  0.7957747E-01            NaN
         13   -1    0    0    0    0  0.00000000000E+00  0.00000000000E+00  0.74505805969E-08  0.10566000000E+00  0.10566000000E+00 0.  1.
     999900   -1    0    0    0    0 -0.00000000000E+00 -0.00000000000E+00 -0.74505805969E-08  0.93827000000E+00  0.93827000000E+00 0. -1.
     999902    2    1    2    0    0  0.29296939820E-02  0.72998544945E-02  0.21998712287E-01  0.10205673305E+01  0.10202998882E+01 0.  0.
     999903    2    3    3    0    0 -0.78205642613E-01  0.10414940661E+00  0.88870422847E-02  0.13144715053E+00  0.15367251858E-01 0.  0.
         14    1    1    2    0    0 -0.29296939820E-02 -0.72998544945E-02 -0.21998712287E-01  0.23362669470E-01  0.00000000000E+00 0. -1.
     999901    1    3    3    0    0  0.81135336595E-01 -0.96849552111E-01  0.13111670003E-01  0.88912018000E+00  0.88000000000E+00 0.  1.
        -11    1    4    4    0    0 -0.51335102430E-01  0.60388575482E-01 -0.38553852421E-03  0.79262112962E-01  0.51100000000E-03 0.  1.
         11    1    4    4    0    0 -0.26870540183E-01  0.43760831124E-01  0.92725808089E-02  0.52185037570E-01  0.51100000000E-03 0. -1.
</event>
<event>
 8    1  0.1103774E+005  0.1043930E+01  0.7957747E-01            NaN
         13   -1    0    0    0    0  0.00000000000E+00  0.00000000000E+00  0.74505805969E-08  0.10566000000E+00  0.10566000000E+00 0.  1.
     999900   -1    0    0    0    0 -0.00000000000E+00 -0.00000000000E+00 -0.74505805969E-08  0.93827000000E+00  0.93827000000E+00 0. -1.
     999902    2    1    2    0    0  0.10989421212E-01 -0.19565435315E-01 -0.26495894638E-02  0.10213336737E+01  0.10210836788E+01 0.  0.
     999903    2    3    3    0    0 -0.66892120595E-01 -0.43947462802E-01 -0.10260317322E+00  0.13192334280E+00  0.21689212440E-01 0.  0.
         14    1    1    2    0    0 -0.10989421212E-01  0.19565435315E-01  0.26495894638E-02  0.22596326294E-01  0.00000000000E+00 0.  1.
     999901    1    3    3    0    0  0.77881541807E-01  0.24382027487E-01  0.99953583755E-01  0.88941033091E+00  0.88000000000E+00 0.  1.
        -11    1    4    4    0    0 -0.50718711272E-01 -0.22708048897E-01 -0.61295420586E-01  0.82737131106E-01  0.51100000000E-03 0.  1.
         11    1    4    4    0    0 -0.16173409323E-01 -0.21239413905E-01 -0.41307752632E-01  0.49186211693E-01  0.51100000000E-03 0. -1.
</event>
<event>
 8    1  0.1346762E+005  0.1043930E+01  0.7957747E-01            NaN
         13   -1    0    0    0    0  0.00000000000E+00  0.00000000000E+00  0.74505805969E-08  0.10566000000E+00  0.10566000000E+00 0.  1.
     999900   -1    0    0    0    0 -0.00000000000E+00 -0.00000000000E+00 -0.74505805969E-08  0.93827000000E+00  0.93827000000E+00 0.  1.
     999902    2    1    2    0    0  0.29416539791E-02  0.18234215785E-01 -0.19487403383E-01  0.10170804405E+01  0.10167259826E+01 0.  0.
     999903    2    3    3    0    0  0.67484554895E-01 -0.97009412697E-01 -0.41695288190E-01  0.12694557989E+00  0.20290192107E-01 0.  0.
         14    1    1    2    0    0 -0.29416539791E-02 -0.18234215785E-01  0.19487403383E-01  0.26849559476E-01  0.00000000000E+00 0.  1.
     999901    1    3    3    0    0 -0.64542900916E-01  0.11524362848E+00  0.22207884807E-01  0.89013486063E+00  0.88000000000E+00 0.  1.
        -11    1    4    4    0    0  0.30662030680E-01 -0.61310518482E-01 -0.25859874243E-01  0.73267550927E-01  0.51100000000E-03 0. -1.
         11    1    4    4    0    0  0.36822524215E-01 -0.35698894215E-01 -0.15835413947E-01  0.53678028965E-01  0.51100000000E-03 0.  1.
</event>
<event>
 8    1  0.1103774E+005  0.1043930E+01  0.7957747E-01            NaN
         13   -1    0    0    0    0  0.00000000000E+00  0.00000000000E+00  0.74505805969E-08  0.10566000000E+00  0.10566000000E+00 0. -1.
     999900   -1    0    0    0    0 -0.00000000000E+00 -0.00000000000E+00 -0.74505805969E-08  0.93827000000E+00  0.93827000000E+00 0.  1.
     999902    2    1    2    0    0 -0.20921630565E-01  0.49291738550E-02 -0.95129562628E-02  0.10204245173E+01  0.10201537569E+01 0.  0.
     999903    2    3    3    0    0 -0.27968062266E-02 -0.60630147515E-02  0.12772292039E+00  0.12953562225E+00  0.20536571456E-01 0.  0.
         14    1    1    2    0    0  0.20921630565E-01 -0.49291738550E-02  0.95129562628E-02  0.23505482706E-01  0.00000000000E+00 0. -1.
     999901    1    3    3    0    0 -0.18124824339E-01  0.10992188607E-01 -0.13723587665E+00  0.89088889504E+00  0.88000000000E+00 0.  1.
        -11    1    4    4    0    0  0.53162095155E-02 -0.54197164880E-02  0.18430389906E-01  0.19939302984E-01  0.51100000000E-03 0.  1.
         11    1    4    4    0    0 -0.81130157421E-02 -0.64329826354E-03  0.10929253048E+00  0.10959631927E+00  0.51100000000E-03 0. -1.
</event>
<event>
 8    1  0.1103774E+005  0.1043930E+01  0.7957747E-01            NaN
         13   -1    0    0    0    0  0.00000000000E+00  0.00000000000E+00  0.74505805969E-08  0.10566000000E+00  0.10566000000E+00 0. -1.
     999900   -1    0    0    0    0 -0.00000000000E+00 -0.00000000000E+00 -0.74505805969E-08  0.93827000000E+00  0.93827000000E+00 0. -1.
     999902    2    1    2    0    0  0.37435071564E-02  0.21640711760E-01 -0.95581209920E-02  0.10199781331E+01  0.10196968668E+01 0.  0.
     999903    2    3    3    0    0 -0.44295729880E-01 -0.10788503086E+00  0.47102969721E-01  0.12740031268E+00  0.20269640953E-01 0.  0.
         14    1    1    2    0    0 -0.37435071564E-02 -0.21640711760E-01  0.95581209920E-02  0.23951866904E-01  0.00000000000E+00 0. -1.
     999901    1    3    3    0    0  0.48039237036E-01  0.12952574262E+00 -0.56661090713E-01  0.89257782042E+00  0.88000000000E+00 0. -1.
        -11    1    4    4    0    0 -0.29473565246E-01 -0.87269641603E-01  0.30385681985E-01  0.96996042107E-01  0.51100000000E-03 0.  1.
         11    1    4    4    0    0 -0.14822164634E-01 -0.20615389261E-01  0.16717287736E-01  0.30404270573E-01  0.51100000000E-03 0. -1.
</event>
<event>
 8    1  0.1103774E+005  0.1043930E+01  0.7957747E-01            NaN
         13   -1    0    0    0    0  0.00000000000E+00  0.00000000000E+00  0.74505805969E-08  0.10566000000E+00  0.10566000000E+00 0. -1.
     999900   -1    0    0    0    0 -0.00000000000E+00 -0.00000000000E+00 -0.74505805969E-08  0.93827000000E+00  0.93827000000E+00 0. -1.
     999902    2    1    2    0    0 -0.13628313446E-01  0.19143370405E-01  0.27884896414E-03  0.10204294188E+01  0.10201587727E+01 0.  0.
     999903    2    3    3    0    0  0.29073292334E-01  0.12676455722E+00  0.11559360153E-01  0.13277351878E+00  0.24097285899E-01 0.  0.
         14    1    1    2    0    0  0.13628313446E-01 -0.19143370405E-01 -0.27884896414E-03  0.23500581155E-01  0.00000000000E+00 0.  1.
     999901    1    3    3    0    0 -0.42701605780E-01 -0.10762118682E+00 -0.11280511188E-01  0.88765590007E+00  0.88000000000E+00 0. -1.
        -11    1    4    4    0    0 -0.36095507224E-02  0.16169053520E-01  0.47767086889E-02  0.17249498980E-01  0.51100000000E-03 0.  1.
         11    1    4    4    0    0  0.32682843056E-01  0.11059550370E+00  0.67826514637E-02  0.11552401980E+00  0.51100000000E-03 0. -1.
</event>
<event>
 8    1  0.1103774E+005  0.1043930E+01  0.7957747E-01            NaN
         13   -1    0    0    0    0  0.00000000000E+00  0.00000000000E+00  0.74505805969E-08  0.10566000000E+00  0.10566000000E+00 0.  1.
     999900   -1    0    0    0    0 -0.00000000000E+00 -0.00000000000E+00 -0.74505805969E-08  0.93827000000E+00  0.93827000000E+00 0. -1.
     999902    2    1    2    0    0  0.20576764351E-01  0.18229486526E-02 -0.11866343747E-01  0.10201069757E+01  0.10198287628E+01 0.  0.
     999903    2    3    3    0    0  0.63646837341E-01 -0.12553400970E-01 -0.11438667706E+00  0.13299247950E+00  0.19853965228E-01 0.  0.
         14    1    1    2    0    0 -0.20576764351E-01 -0.18229486526E-02  0.11866343747E-01  0.23823024301E-01  0.00000000000E+00 0.  1.
     999901    1    3    3    0    0 -0.43070072990E-01  0.14376349622E-01  0.10252033332E+00  0.88711449620E+00  0.88000000000E+00 0.  1.
        -11    1    4    4    0    0  0.20871005746E-01 -0.93807698442E-02 -0.25303605702E-01  0.34119368491E-01  0.51100000000E-03 0. -1.
         11    1    4    4    0    0  0.42775831595E-01 -0.31726311255E-02 -0.89083071363E-01  0.98873111012E-01  0.51100000000E-03 0.  1.
</event>
<event>
 8    1  0.1103774E+005  0.1043930E+01  0.7957747E-01            NaN
         13   -1    0    0    0    0  0.00000000000E+00  0.00000000000E+00  0.74505805969E-08  0.10566000000E+00  0.10566000000E+00 0. -1.
     999900   -1    0    0    0    0 -0.00000000000E+00 -0.00000000000E+00 -0.74505805969E-08  0.93827000000E+00  0.93827000000E+00 0. -1.
     999902    2    1    2    0    0 -0.92956728090E-02 -0.21080972646E-01 -0.41970095244E-02  0.10205113786E+01  0.10202426388E+01 0.  0.
     999903    2    3    3    0    0  0.26612879277E-01  0.42444774329E-01  0.11720122715E+00  0.12918513274E+00  0.21044397432E-01 0.  0.
         14    1    1    2    0    0  0.92956728090E-02  0.21080972646E-01  0.41970095244E-02  0.23418621428E-01  0.00000000000E+00 0. -1.
     999901    1    3    3    0    0 -0.35908552086E-01 -0.63525746975E-01 -0.12139823668E+00  0.89132624583E+00  0.88000000000E+00 0. -1.
        -11    1    4    4    0    0  0.80503176226E-02  0.38843678928E-02  0.39243008849E-01  0.40251345224E-01  0.51100000000E-03 0. -1.
         11    1    4    4    0    0  0.18562561655E-01  0.38560406437E-01  0.77958218304E-01  0.88933787515E-01  0.51100000000E-03 0.  1.
</event>
<event>
 8    1  0.1103774E+005  0.1043930E+01  0.7957747E-01            NaN
         13   -1    0    0    0    0  0.00000000000E+00  0.00000000000E+00  0.74505805969E-08  0.10566000000E+00  0.10566000000E+00 0. -1.
     999900   -1    0    0    0    0 -0.00000000000E+00 -0.00000000000E+00 -0.74505805969E-08  0.93827000000E+00  0.93827000000E+00 0. -1.
     999902    2    1    2    0    0 -0.19246908292E-01 -0.45182621700E-02  0.72955984922E-02  0.10228567010E+01  0.10226395978E+01 0.  0.
     999903    2    3    3    0    0  0.11925177164E+00  0.48285144210E-01 -0.62732637240E-02  0.13035785057E+00  0.20034349921E-01 0.  0.
         14    1    1    2    0    0  0.19246908292E-01  0.45182621700E-02 -0.72955984922E-02  0.21073298963E-01  0.00000000000E+00 0. -1.
     999901    1    3    3    0    0 -0.13849867993E+00 -0.52803406380E-01  0.13568862216E-01  0.89249885047E+00  0.88000000000E+00 0. -1.
        -11    1    4    4    0    0  0.83158674390E-01  0.24138192059E-01 -0.89312934454E-03  0.86597206902E-01  0.51100000000E-03 0. -1.
         11    1    4    4    0    0  0.36093097248E-01  0.24146952151E-01 -0.53801343794E-02  0.43760643666E-01  0.51100000000E-03 0.  1.
</event>
<event>
 8    1  0.1103774E+005  0.1043930E+01  0.7957747E-01            NaN
         13   -1    0    0    0    0  0.00000000000E+00  0.00000000000E+00  0.74505805969E-08  0.10566000000E+00  0.10566000000E+00 0. -1.
     999900   -1    0    0    0    0 -0.00000000000E+00 -0.00000000000E+00 -0.74505805969E-08  0.93827000000E+00  0.93827000000E+00 0. -1.
     999902    2    1    2    0    0  0.20681635418E-01  0.85924997777E-04  0.96931149280E-02  0.10210893804E+01  0.10208338890E+01 0.  0.
     999903    2    3    3    0    0  0.10902777406E+00 -0.37699140670E-01  0.65280987410E-01  0.13411544450E+00  0.20422154932E-01 0.  0.
         14    1    1    2    0    0 -0.20681635418E-01 -0.85924997777E-04 -0.96931149280E-02  0.22840619599E-01  0.00000000000E+00 0.  1.
     999901    1    3    3    0    0 -0.88346138644E-01  0.37785065668E-01 -0.55587872482E-01  0.88697393590E+00  0.88000000000E+00 0. -1.
        -11    1    4    4    0    0  0.88845342944E-01 -0.27814413394E-01  0.60801732161E-01  0.11119464155E+00  0.51100000000E-03 0. -1.
         11    1    4    4    0    0  0.20182431118E-01 -0.98847272764E-02  0.44792552487E-02  0.22920802947E-01  0.51100000000E-03 0.  1.
</event>
<event>
 8    1  0.1103774E+005  0.1043930E+01  0.7957747E-01            NaN
         13   -1    0    0    0    0  0.00000000000E+00  0.00000000000E+00  0.74505805969E-08  0.10566000000E+00  0.10566000000E+00 0.  1.
     999900   -1    0    0    0    0 -0.00000000000E+00 -0.00000000000E+00 -0.74505805969E-08  0.93827000000E+00  0.93827000000E+00 0.  1.
     999902    2    1    2    0    0 -0.21311903699E-01 -0.76958371403E-02  0.66137123575E-02  0.10203256712E+01  0.10200526020E+01 0.  0.
     999903    2    3    3    0    0 -0.31490241450E-02 -0.77275749413E-01  0.10498530309E+00  0.13192923699E+00  0.20048738344E-01 0.  0.
         14    1    1    2    0    0  0.21311903699E-01  0.76958371403E-02 -0.66137123575E-02  0.23604328834E-01  0.00000000000E+00 0. -1.
     999901    1    3    3    0    0 -0.18162879554E-01  0.69579912273E-01 -0.98371590730E-01  0.88839643417E+00  0.88000000000E+00 0.  1.
        -11    1    4    4    0    0 -0.71423974109E-02 -0.74743340720E-01  0.97512371244E-01  0.12307113589E+00  0.51100000000E-03 0. -1.
         11    1    4    4    0    0  0.39933732659E-02 -0.25324086928E-02  0.74729318432E-02  0.88581011036E-02  0.51100000000E-03 0.  1.
</event>
<event>
 8    1  0.1103774E+005  0.1043930E+01  0.7957747E-01            NaN
         13   -1    0    0    0    0  0.00000000000E+00  0.00000000000E+00  0.74505805969E-08  0.10566000000E+00  0.10566000000E+00 0. -1.
     999900   -1    0    0    0    0 -0.00000000000E+00 -0.00000000000E+00 -0.74505805969E-08  0.93827000000E+00  0.93827000000E+00 0.  1.
     999902    2    1    2    0    0  0.15460704036E-01  0.18666230904E-01 -0.23397765833E-03  0.10196912647E+01  0.10194031386E+01 0.  0.
     999903    2    3    3    0    0 -0.61533625416E-01  0.45631531696E-01 -0.10297868809E+00  0.12996561608E+00  0.20440827308E-01 0.  0.
         14    1    1    2    0    0 -0.15460704036E-01 -0.18666230904E-01  0.23397765833E-03  0.24238735342E-01  0.00000000000E+00 0. -1.
     999901    1    3    3    0    0  0.76994329451E-01 -0.26965300792E-01  0.10274471043E+00  0.88972564858E+00  0.88000000000E+00 0.  1.
        -11    1    4    4    0    0 -0.30796060702E-01  0.29704962782E-01 -0.70638491797E-01  0.82588375774E-01  0.51100000000E-03 0.  1.
         11    1    4    4    0    0 -0.30737564713E-01  0.15926568914E-01 -0.32340196292E-01  0.47377240306E-01  0.51100000000E-03 0. -1.
</event>
<event>
 8    1  0.1103774E+005  0.1043930E+01  0.7957747E-01            NaN
         13   -1    0    0    0    0  0.00000000000E+00  0.00000000000E+00  0.74505805969E-08  0.10566000000E+00  0.10566000000E+00 0. -1.
     999900   -1    0    0    0    0 -0.00000000000E+00 -0.00000000000E+00 -0.74505805969E-08  0.93827000000E+00  0.93827000000E+00 0.  1.
     999902    2    1    2    0    0  0.71233512329E-02 -0.36782948129E-02  0.21020180065E-01  0.10214328901E+01  0.10211851100E+01 0.  0.
     999903    2    3    3    0    0  0.73109359313E-01  0.71369576894E-01 -0.78364253020E-01  0.13021821231E+00  0.19422454530E-01 0.  0.
         14    1    1    2    0    0 -0.71233512329E-02  0.36782948129E-02 -0.21020180065E-01  0.22497109936E-01  0.00000000000E+00 0.  1.
     999901    1    3    3    0    0 -0.65986008080E-01 -0.75047871707E-01  0.99384433085E-01  0.89121467776E+00  0.88000000000E+00 0. -1.
        -11    1    4    4    0    0  0.46528922718E-01  0.35981543371E-01 -0.36077550393E-01  0.69003354093E-01  0.51100000000E-03 0.  1.
         11    1    4    4    0    0  0.26580436595E-01  0.35388033522E-01 -0.42286702627E-01  0.61214858215E-01  0.51100000000E-03 0. -1.
</event>
<event>
 8    1  0.1103774E+005  0.1043930E+01  0.7957747E-01            NaN
         13   -1    0    0    0    0  0.00000000000E+00  0.00000000000E+00  0.74505805969E-08  0.10566000000E+00  0.10566000000E+00 0. -1.
     999900   -1    0    0    0    0 -0.00000000000E+00 -0.00000000000E+00 -0.74505805969E-08  0.93827000000E+00  0.93827000000E+00 0.  1.
     999902    2    1    2    0    0  0.12875742181E-02 -0.11528024425E-01 -0.21278264484E-01  0.10196953609E+01  0.10194073333E+01 0.  0.
     999903    2    3    3    0    0 -0.11738818494E+00 -0.52160431779E-01  0.12745676661E-01  0.13014909624E+00  0.16602360404E-01 0.  0.
         14    1    1    2    0    0 -0.12875742181E-02  0.11528024425E-01  0.21278264484E-01  0.24234639134E-01  0.00000000000E+00 0. -1.
     999901    1    3    3    0    0  0.11867575916E+00  0.40632407354E-01 -0.34023941145E-01  0.88954626463E+00  0.88000000000E+00 0.  1.
        -11    1    4    4    0    0 -0.77221864141E-01 -0.37894047492E-01  0.15611465841E-01  0.87425134392E-01  0.51100000000E-03 0.  1.
         11    1    4    4    0    0 -0.40166320802E-01 -0.14266384287E-01 -0.28657891793E-02  0.42723961848E-01  0.51100000000E-03 0. -1.
</event>
<event>
 8    1  0.1103774E+005  0.1043930E+01  0.7957747E-01            NaN
         13   -1    0    0    0    0  0.00000000000E+00  0.00000000000E+00  0.74505805969E-08  0.10566000000E+00  0.10566000000E+00 0. -1.
     999900   -1    0    0    0    0 -0.00000000000E+00 -0.00000000000E+00 -0.74505805969E-08  0.93827000000E+00  0.93827000000E+00 0.  1.
     999902    2    1    2    0    0 -0.42880651075E-02  0.21573692267E-01  0.66638193847E-02  0.10209470022E+01  0.10206882791E+01 0.  0.
     999903    2    3    3    0    0  0.85851721678E-02  0.87874450083E-01 -0.95986764487E-01  0.13240963487E+00  0.22874183937E-01 0.  0.
         14    1    1    2    0    0  0.42880651075E-02 -0.21573692267E-01 -0.66638193847E-02  0.22982997828E-01  0.00000000000E+00 0. -1.
     999901    1    3    3    0    0 -0.12873237275E-01 -0.66300757816E-01  0.10265058387E+00  0.88853736730E+00  0.88000000000E+00 0. -1.
        -11    1    4    4    0    0  0.14922218247E-01  0.68292670045E-01 -0.80695761662E-01  0.10676435946E+00  0.51100000000E-03 0.  1.
         11    1    4    4    0    0 -0.63370460794E-02  0.19581780039E-01 -0.15291002824E-01  0.25645275410E-01  0.51100000000E-03 0. -1.
</event>
<event>
 8    1  0.1103774E+005  0.1043930E+01  0.7957747E-01            NaN
         13   -1    0    0    0    0  0.00000000000E+00  0.00000000000E+00  0.74505805969E-08  0.10566000000E+00  0.10566000000E+00 0.  1.
     999900   -1    0    0    0    0 -0.00000000000E+00 -0.00000000000E+00 -0.74505805969E-08  0.93827000000E+00  0.93827000000E+00 0.  1.
     999902    2    1    2    0    0 -0.55470173605E-03 -0.29917977319E-02 -0.23259516888E-01  0.10204723003E+01  0.10202026525E+01 0.  0.
     999903    2    3    3    0    0  0.75904704455E-01 -0.25464203498E-01  0.98149737620E-01  0.12856913469E+00  0.22061314119E-01 0.  0.
         14    1    1    2    0    0  0.55470173605E-03  0.29917977319E-02  0.23259516888E-01  0.23457699664E-01  0.00000000000E+00 0.  1.
     999901    1    3    3    0    0 -0.76459406191E-01  0.22472405766E-01 -0.12140925451E+00  0.89190316565E+00  0.88000000000E+00 0.  1.
        -11    1    4    4    0    0  0.14890326674E-01 -0.71412518277E-02  0.84783550881E-02  0.18570485512E-01  0.51100000000E-03 0. -1.
         11    1    4    4    0    0  0.61014377781E-01 -0.18322951670E-01  0.89671382532E-01  0.10999864917E+00  0.51100000000E-03 0.  1.
</event>
<event>
 8    1  0.1103774E+005  0.1043930E+01  0.7957747E-01            NaN
         13   -1    0    0    0    0  0.00000000000E+00  0.00000000000E+00  0.74505805969E-08  0.10566000000E+00  0.10566000000E+00 0. -1.
     999900   -1    0    0    0    0 -0.00000000000E+00 -0.00000000000E+00 -0.74505805969E-08  0.93827000000E+00  0.93827000000E+00 0. -1.
     999902    2    1    2    0    0 -0.20616778942E-01  0.16256604868E-01 -0.57066498572E-02  0.10170619031E+01  0.10167069490E+01 0.  0.
     999903    2    3    3    0    0  0.33649211532E-01 -0.11430786335E+00 -0.33725849835E-01  0.12533495299E+00  0.19309594331E-01 0.  0.
         14    1    1    2    0    0  0.20616778942E-01 -0.16256604868E-01  0.57066498572E-02  0.26868096850E-01  0.00000000000E+00 0. -1.
     999901    1    3    3    0    0 -0.54265990474E-01  0.13056446821E+00  0.28019199978E-01  0.89172695016E+00  0.88000000000E+00 0. -1.
        -11    1    4    4    0    0  0.22161930624E-01 -0.69876930922E-01 -0.11026569404E-01  0.74133548396E-01  0.51100000000E-03 0. -1.
         11    1    4    4    0    0  0.11487280909E-01 -0.44430932424E-01 -0.22699280432E-01  0.51201404589E-01  0.51100000000E-03 0.  1.
</event>
<event>
 8    1  0.1103774E+005  0.1043930E+01  0.7957747E-01            NaN
         13   -1    0    0    0    0  0.00000000000E+00  0.00000000000E+00  0.74505805969E-08  0.10566000000E+00  0.10566000000E+00 0. -1.
     999900   -1    0    0    0    0 -0.00000000000E+00 -0.00000000000E+00 -0.74505805969E-08  0.93827000000E+00  0.93827000000E+00 0.  1.
     999902    2    1    2    0    0 -0.20350399167E-01 -0.60047850231E-02 -0.11799900015E-01  0.10196517416E+01  0.10193626638E+01 0.  0.
     999903    2    3    3    0    0  0.10673103848E+00  0.65094765624E-01  0.99903135142E-02  0.12741878365E+00  0.22514372623E-01 0.  0.
         14    1    1    2    0    0  0.20350399167E-01  0.60047850231E-02  0.11799900015E-01  0.24278258377E-01  0.00000000000E+00 0. -1.
     999901    1    3    3    0    0 -0.12708143765E+00 -0.71099550647E-01 -0.21790213529E-01  0.89223295798E+00  0.88000000000E+00 0. -1.
        -11    1    4    4    0    0  0.88421615545E-01  0.47261685830E-01  0.83441800668E-03  0.10026468181E+00  0.51100000000E-03 0.  1.
         11    1    4    4    0    0  0.18309422936E-01  0.17833079794E-01  0.91558955076E-02  0.27154101840E-01  0.51100000000E-03 0. -1.
</event>
<event>
 8    1  0.1103774E+005  0.1043930E+01  0.7957747E-01            NaN
         13   -1    0    0    0    0  0.00000000000E+00  0.00000000000E+00  0.74505805969E-08  0.10566000000E+00  0.10566000000E+00 0.  1.
     999900   -1    0    0    0    0 -0.00000000000E+00 -0.00000000000E+00 -0.74505805969E-08  0.93827000000E+00  0.93827000000E+00 0.  1.
     999902    2    1    2    0    0  0.53482159602E-02 -0.17226954619E-01  0.14901607019E-01  0.10205327935E+01  0.10202645507E+01 0.  0.
     999903    2    3    3    0    0  0.55702723388E-01 -0.11213863569E+00 -0.37708304008E-01  0.13243842558E+00  0.20979832517E-01 0.  0.
         14    1    1    2    0    0 -0.53482159602E-02  0.17226954619E-01 -0.14901607019E-01  0.23397206482E-01  0.00000000000E+00 0. -1.
     999901    1    3    3    0    0 -0.50354507428E-01  0.94911681070E-01  0.52609911027E-01  0.88809436794E+00  0.88000000000E+00 0. -1.
        -11    1    4    4    0    0  0.13023929040E-01 -0.39499975251E-01 -0.20810265978E-01  0.46510203865E-01  0.51100000000E-03 0.  1.
         11    1    4    4    0    0  0.42678794348E-01 -0.72638660438E-01 -0.16898038030E-01  0.85928221717E-01  0.51100000000E-03 0. -1.
</event>
<event>
 8    1  0.1103774E+005  0.1043930E+01  0.7957747E-01            NaN
         13   -1    0    0    0    0  0.00000000000E+00  0.00000000000E+00  0.74505805969E-08  0.10566000000E+00  0.10566000000E+00 0.  1.
     999900   -1    0    0    0    0 -0.00000000000E+00 -0.00000000000E+00 -0.74505805969E-08  0.93827000000E+00  0.93827000000E+00 0.  1.
     999902    2    1    2    0    0  0.55516964413E-02  0.22004685692E-01  0.83910201853E-02  0.10197341998E+01  0.10194471058E+01 0.  0.
     999903    2    3    3    0    0  0.10762328253E+00 -0.46069756844E-01 -0.51357305929E-01  0.12921603557E+00  0.18815353814E-01 0.  0.
         14    1    1    2    0    0 -0.55516964413E-02 -0.22004685692E-01 -0.83910201853E-02  0.24195800163E-01  0.00000000000E+00 0.  1.
     999901    1    3    3    0    0 -0.10207158609E+00  0.68074442536E-01  0.59748326114E-01  0.89051816427E+00  0.88000000000E+00 0. -1.
        -11    1    4    4    0    0  0.10189545979E+00 -0.39187918827E-01 -0.44358991595E-01  0.11784039615E+00  0.51100000000E-03 0. -1.
         11    1    4    4    0    0  0.57278227358E-02 -0.68818380174E-02 -0.69983143334E-02  0.11375639424E-01  0.51100000000E-03 0.  1.
</event>
<event>
 8    1  0.1103774E+005  0.1043930E+01  0.7957747E-01            NaN
         13   -1    0    0    0    0  0.00000000000E+00  0.00000000000E+00  0.74505805969E-08  0.10566000000E+00  0.10566000000E+00 0.  1.
     999900   -1    0    0    0    0 -0.00000000000E+00 -0.00000000000E+00 -0.74505805969E-08  0.93827000000E+00  0.93827000000E+00 0. -1.
     999902    2    1    2    0    0 -0.11226845920E-01 -0.33502190325E-02 -0.10522544813E-01  0.10281823022E+01  0.10280616988E+01 0.  0.
     999903    2    3    3    0    0  0.81636722297E-02 -0.13569950914E+00 -0.13503150664E-01  0.13806926960E+00  0.19994644400E-01 0.  0.
         14    1    1    2    0    0  0.11226845920E-01  0.33502190325E-02  0.10522544813E-01  0.15747697807E-01  0.00000000000E+00 0.  1.
     999901    1    3    3    0    0 -0.19390518150E-01  0.13234929011E+00  0.29806058506E-02  0.89011303260E+00  0.88000000000E+00 0.  1.
        -11    1    4    4    0    0  0.94435386679E-02 -0.37208346614E-01  0.15612614522E-02  0.38423171897E-01  0.51100000000E-03 0.  1.
         11    1    4    4    0    0 -0.12798664382E-02 -0.98491162524E-01 -0.15064412116E-01  0.99646097700E-01  0.51100000000E-03 0. -1.
</event>
<event>
 7    1  0.1103774E+005  0.1043930E+01  0.7957747E-01            NaN
         13   -1    0    0    0    0  0.00000000000E+00  0.00000000000E+00  0.74505805969E-08  0.10566000000E+00  0.10566000000E+00 0.  1.
     999900   -1    0    0    0    0 -0.00000000000E+00 -0.00000000000E+00 -0.74505805969E-08  0.93827000000E+00  0.93827000000E+00 0. -1.
     999902    2    1    2    0    0 -0.46589394731E-02 -0.18685807060E-01  0.13190417643E-01  0.10205879303E+01  0.10203209648E+01 0.  0.
         14    1    1    2    0    0  0.46589394731E-02  0.18685807060E-01 -0.13190417643E-01  0.23342069747E-01  0.00000000000E+00 0. -1.
     999901    1    3    3    0    0 -0.21830102822E-01 -0.12617640350E+00  0.79907438199E-01  0.89285062405E+00  0.88000000000E+00 0.  1.
        -11    1    3    3    0    0  0.11368552141E-01  0.75329610204E-01 -0.44713156788E-01  0.88336411871E-01  0.51100000000E-03 0. -1.
         11    1    3    3    0    0  0.58026112081E-02  0.32160986234E-01 -0.22003863768E-01  0.39400894331E-01  0.51100000000E-03 0.  1.
</event>
<event>
 8    1  0.1103774E+005  0.1043930E+01  0.7957747E-01            NaN
         13   -1    0    0    0    0  0.00000000000E+00  0.00000000000E+00  0.74505805969E-08  0.10566000000E+00  0.10566000000E+00 0. -1.
     999900   -1    0    0    0    0 -0.00000000000E+00 -0.00000000000E+00 -0.74505805969E-08  0.93827000000E+00  0.93827000000E+00 0.  1.
     999902    2    1    2    0    0  0.18690017569E-02 -0.21981963061E-01 -0.41862407386E-02  0.10214750567E+01  0.10212282149E+01 0.  0.
     999903    2    3    3    0    0 -0.54705183030E-01  0.63218055591E-01 -0.98237358255E-01  0.13057366244E+00  0.20241619594E-01 0.  0.
         14    1    1    2    0    0 -0.18690017569E-02  0.21981963061E-01  0.41862407386E-02  0.22454943311E-01  0.00000000000E+00 0. -1.
     999901    1    3    3    0    0  0.56574184787E-01 -0.85200018653E-01  0.94051117517E-01  0.89090139425E+00  0.88000000000E+00 0. -1.
        -11    1    4    4    0    0 -0.25335763911E-01  0.15591016657E-01 -0.28958904932E-01  0.41519393411E-01  0.51100000000E-03 0.  1.
         11    1    4    4    0    0 -0.29369419119E-01  0.47627038934E-01 -0.69278453323E-01  0.89054269032E-01  0.51100000000E-03 0. -1.
</event>
<event>
 8    1  0.1103774E+005  0.1043930E+01  0.7957747E-01            NaN
         13   -1    0    0    0    0  0.00000000000E+00  0.00000000000E+00  0.74505805969E-08  0.10566000000E+00  0.10566000000E+00 0. -1.
     999900   -1    0    0    0    0 -0.00000000000E+00 -0.00000000000E+00 -0.74505805969E-08  0.93827000000E+00  0.93827000000E+00 0.  1.
     999902    2    1    2    0    0 -0.19168117342E-01 -0.11579732239E-01 -0.69286981691E-02  0.10204882897E+01  0.10202190136E+01 0.  0.
     999903    2    3    3    0    0  0.87610364615E-01 -0.42299152509E-01  0.82471196767E-01  0.12900768525E+00  0.19408510132E-01 0.  0.
         14    1    1    2    0    0  0.19168117342E-01  0.11579732239E-01  0.69286981691E-02  0.23441710250E-01  0.00000000000E+00 0.  1.
     999901    1    3    3    0    0 -0.10677848196E+00  0.30719420270E-01 -0.89399894936E-01  0.89148060450E+00  0.88000000000E+00 0.  1.
        -11    1    4    4    0    0  0.48337141791E-01 -0.33870970219E-01  0.48251528407E-01  0.76237740095E-01  0.51100000000E-03 0. -1.
         11    1    4    4    0    0  0.39273222824E-01 -0.84281822899E-02  0.34219668359E-01  0.52769945152E-01  0.51100000000E-03 0.  1.
</event>
<event>
 8    1  0.1103774E+005  0.1043930E+01  0.7957747E-01            NaN
         13   -1    0    0    0    0  0.00000000000E+00  0.00000000000E+00  0.74505805969E-08  0.10566000000E+00  0.10566000000E+00 0. -1.
     999900   -1    0    0    0    0 -0.00000000000E+00 -0.00000000000E+00 -0.74505805969E-08  0.93827000000E+00  0.93827000000E+00 0.  1.
     999902    2    1    2    0    0 -0.30600074672E-03  0.21991681098E-01 -0.94240550385E-02  0.10200021817E+01  0.10197214866E+01 0.  0.
     999903    2    3    3    0    0 -0.63118687826E-01 -0.53762826446E-01  0.95937950103E-01  0.12827053420E+00  0.19360511715E-01 0.  0.
         14    1    1    2    0    0  0.30600074672E-03 -0.21991681098E-01  0.94240550385E-02  0.23927818274E-01  0.00000000000E+00 0. -1.
     999901    1    3    3    0    0  0.62812687079E-01  0.75754507544E-01 -0.10536200514E+00  0.89173164753E+00  0.88000000000E+00 0.  1.
        -11    1    4    4    0    0 -0.29049926868E-01 -0.26412629223E-01  0.59956374596E-01  0.71669751006E-01  0.51100000000E-03 0. -1.
         11    1    4    4    0    0 -0.34068760958E-01 -0.27350197224E-01  0.35981575507E-01  0.56600783195E-01  0.51100000000E-03 0.  1.
</event>
<event>
 8    1  0.1103774E+005  0.1043930E+01  0.7957747E-01            NaN
         13   -1    0    0    0    0  0.00000000000E+00  0.00000000000E+00  0.74505805969E-08  0.10566000000E+00  0.10566000000E+00 0. -1.
     999900   -1    0    0    0    0 -0.00000000000E+00 -0.00000000000E+00 -0.74505805969E-08  0.93827000000E+00  0.93827000000E+00 0. -1.
     999902    2    1    2    0    0  0.23853316301E-01 -0.20359522690E-02  0.67055871996E-02  0.10190685700E+01  0.10187652623E+01 0.  0.
     999903    2    3    3    0    0  0.10556367256E+00  0.65870302881E-01  0.39699463336E-01  0.13206437745E+00  0.19554197362E-01 0.  0.
         14    1    1    2    0    0 -0.23853316301E-01  0.20359522690E-02 -0.67055871996E-02  0.24861429964E-01  0.00000000000E+00 0.  1.
     999901    1    3    3    0    0 -0.81710356262E-01 -0.67906255150E-01 -0.32993876136E-01  0.88700419259E+00  0.88000000000E+00 0.  1.
        -11    1    4    4    0    0  0.82768542059E-01  0.54738831242E-01  0.23554825129E-01  0.10199050009E+00  0.51100000000E-03 0.  1.
         11    1    4    4    0    0  0.22795130504E-01  0.11131471639E-01  0.16144638206E-01  0.30073877358E-01  0.51100000000E-03 0. -1.
</event>
<event>
 8    1  0.1103774E+005  0.1043930E+01  0.7957747E-01            NaN
         13   -1    0    0    0    0  0.00000000000E+00  0.00000000000E+00  0.74505805969E-08  0.10566000000E+00  0.10566000000E+00 0.  1.
     999900   -1    0    0    0    0 -0.00000000000E+00 -0.00000000000E+00 -0.74505805969E-08  0.93827000000E+00  0.93827000000E+00 0. -1.
     999902    2    1    2    0    0  0.13456225176E-01  0.18587510091E-01 -0.51054279859E-02  0.10204218967E+01  0.10201510752E+01 0.  0.
     999903    2    3    3    0    0 -0.12693738926E+00  0.11314689379E-01 -0.72932204099E-02  0.12926082967E+00  0.20348170295E-01 0.  0.
         14    1    1    2    0    0 -0.13456225176E-01 -0.18587510091E-01  0.51054279859E-02  0.23508103332E-01  0.00000000000E+00 0.  1.
     999901    1    3    3    0    0  0.14039361444E+00  0.72728207113E-02  0.21877924240E-02  0.89116106700E+00  0.88000000000E+00 0. -1.
        -11    1    4    4    0    0 -0.44851932302E-01  0.13353231047E-01  0.26834041548E-03  0.46801044200E-01  0.51100000000E-03 0. -1.
         11    1    4    4    0    0 -0.82085456961E-01 -0.20385416680E-02 -0.75615608254E-02  0.82459785470E-01  0.51100000000E-03 0.  1.
</event>
<event>
 8    1  0.1103774E+005  0.1043930E+01  0.7957747E-01            NaN
         13   -1    0    0    0    0  0.00000000000E+00  0.00000000000E+00  0.74505805969E-08  0.10566000000E+00  0.10566000000E+00 0.  1.
     999900   -1    0    0    0    0 -0.00000000000E+00 -0.00000000000E+00 -0.74505805969E-08  0.93827000000E+00  0.93827000000E+00 0.  1.
     999902    2    1    2    0    0  0.15672354313E-01  0.67325461534E-02 -0.16130697325E-01  0.10204534316E+01  0.10201833447E+01 0.  0.
     999903    2    3    3    0    0  0.58553615097E-01  0.43142870150E-01 -0.11036637405E+00  0.13363615787E+00  0.19699063060E-01 0.  0.
         14    1    1    2    0    0 -0.15672354313E-01 -0.67325461534E-02  0.16130697325E-01  0.23476568395E-01  0.00000000000E+00 0.  1.
     999901    1    3    3    0    0 -0.42881260784E-01 -0.36410323997E-01  0.94235676722E-01  0.88681727373E+00  0.88000000000E+00 0. -1.
        -11    1    4    4    0    0  0.10697215851E-01  0.17907435746E-01 -0.36990792146E-01  0.42469830545E-01  0.51100000000E-03 0. -1.
         11    1    4    4    0    0  0.47856399246E-01  0.25235434404E-01 -0.73375581901E-01  0.91166327329E-01  0.51100000000E-03 0.  1.
</event>
<event>
 8    1  0.1103774E+005  0.1043930E+01  0.7957747E-01            NaN
         13   -1    0    0    0    0  0.00000000000E+00  0.00000000000E+00  0.74505805969E-08  0.10566000000E+00  0.10566000000E+00 0.  1.
     999900   -1    0    0    0    0 -0.00000000000E+00 -0.00000000000E+00 -0.74505805969E-08  0.93827000000E+00  0.93827000000E+00 0. -1.
     999902    2    1    2    0    0  0.34160368975E-02 -0.16014603788E-01 -0.16971478115E-01  0.10203467875E+01  0.10200742124E+01 0.  0.
     999903    2    3    3    0    0 -0.54115293579E-01  0.42157801749E-02 -0.11915407725E+00  0.13233754994E+00  0.19217054847E-01 0.  0.
         14    1    1    2    0    0 -0.34160368975E-02  0.16014603788E-01  0.16971478115E-01  0.23583212503E-01  0.00000000000E+00 0.  1.
     999901    1    3    3    0    0  0.57531330477E-01 -0.20230383963E-01  0.10218259914E+00  0.88800923756E+00  0.88000000000E+00 0.  1.
        -11    1    4    4    0    0 -0.19054286472E-01 -0.25924519258E-02 -0.62222491760E-01  0.65128229223E-01  0.51100000000E-03 0. -1.
         11    1    4    4    0    0 -0.35061007107E-01  0.68082321007E-02 -0.56931585490E-01  0.67209320716E-01  0.51100000000E-03 0.  1.
</event>
<event>
 8    1  0.1103774E+005  0.1043930E+01  0.7957747E-01            NaN
         13   -1    0    0    0    0  0.00000000000E+00  0.00000000000E+00  0.74505805969E-08  0.10566000000E+00  0.10566000000E+00 0. -1.
     999900   -1    0    0    0    0 -0.00000000000E+00 -0.00000000000E+00 -0.74505805969E-08  0.93827000000E+00  0.93827000000E+00 0. -1.
     999902    2    1    2    0    0 -0.37443787193E-02  0.20779094489E-01 -0.42432608786E-02  0.10223940672E+01  0.10221672232E+01 0.  0.
     999903    2    3    3    0    0  0.20659877084E-01  0.12153246815E+00  0.50795114757E-01  0.13460128009E+00  0.18449649964E-01 0.  0.
         14    1    1    2    0    0  0.37443787193E-02 -0.20779094489E-01  0.42432608786E-02  0.21535932825E-01  0.00000000000E+00 0.  1.
     999901    1    3    3    0    0 -0.24404255803E-01 -0.10075337366E+00 -0.55038375636E-01  0.88779278708E+00  0.88000000000E+00 0.  1.
        -11    1    4    4    0    0  0.21443874785E-01  0.84217924159E-01  0.30425090414E-01  0.92078476112E-01  0.51100000000E-03 0.  1.
         11    1    4    4    0    0 -0.78399770192E-03  0.37314543989E-01  0.20370024343E-01  0.42522803979E-01  0.51100000000E-03 0. -1.
</event>
<event>
 8    1  0.1103774E+005  0.1043930E+01  0.7957747E-01            NaN
         13   -1    0    0    0    0  0.00000000000E+00  0.00000000000E+00  0.74505805969E-08  0.10566000000E+00  0.10566000000E+00 0.  1.
     999900   -1    0    0    0    0 -0.00000000000E+00 -0.00000000000E+00 -0.74505805969E-08  0.93827000000E+00  0.93827000000E+00 0.  1.
     999902    2    1    2    0    0 -0.15484720407E-01 -0.20179400462E-01 -0.13340951237E-02  0.10184591426E+01  0.10181405897E+01 0.  0.
     999903    2    3    3    0    0  0.12301711477E+00  0.21257191231E-01 -0.17515065662E-03  0.12666258917E+00  0.21407991797E-01 0.  0.
         14    1    1    2    0    0  0.15484720407E-01  0.20179400462E-01  0.13340951237E-02  0.25470857443E-01  0.00000000000E+00 0. -1.
     999901    1    3    3    0    0 -0.13850183518E+00 -0.41436591692E-01 -0.11589444670E-02  0.89179655339E+00  0.88000000000E+00 0. -1.
        -11    1    4    4    0    0  0.71132715312E-01  0.22202037927E-01  0.37952875082E-02  0.74615407283E-01  0.51100000000E-03 0.  1.
         11    1    4    4    0    0  0.51884399457E-01 -0.94484669648E-03 -0.39704381648E-02  0.52047181888E-01  0.51100000000E-03 0. -1.
</event>
<event>
 8    1  0.1103774E+005  0.1043930E+01  0.7957747E-01            NaN
         13   -1    0    0    0    0  0.00000000000E+00  0.00000000000E+00  0.74505805969E-08  0.10566000000E+00  0.10566000000E+00 0. -1.
     999900   -1    0    0    0    0 -0.00000000000E+00 -0.00000000000E+00 -0.74505805969E-08  0.93827000000E+00  0.93827000000E+00 0.  1.
     999902    2    1    2    0    0 -0.21521512594E-01  0.49203282179E-02 -0.41950520509E-02  0.10214581599E+01  0.10212109424E+01 0.  0.
     999903    2    3    3    0    0  0.45557888375E-01  0.18586804601E-01 -0.11996142236E+00  0.13124005683E+00  0.20303181110E-01 0.  0.
         14    1    1    2    0    0  0.21521512594E-01 -0.49203282179E-02  0.41950520509E-02  0.22471840063E-01  0.00000000000E+00 0. -1.
     999901    1    3    3    0    0 -0.67079400970E-01 -0.13666476383E-01  0.11576637031E+00  0.89021810311E+00  0.88000000000E+00 0. -1.
        -11    1    4    4    0    0  0.40894147398E-02  0.42175393261E-02 -0.36189526009E-01  0.36666795124E-01  0.51100000000E-03 0. -1.
         11    1    4    4    0    0  0.41468473636E-01  0.14369265275E-01 -0.83771896349E-01  0.94573261703E-01  0.51100000000E-03 0.  1.
</event>
<event>
 8    1  0.1103774E+005  0.1043930E+01  0.7957747E-01            NaN
         13   -1    0    0    0    0  0.00000000000E+00  0.00000000000E+00  0.74505805969E-08  0.10566000000E+00  0.10566000000E+00 0. -1.
     999900   -1    0    0    0    0 -0.00000000000E+00 -0.00000000000E+00 -0.74505805969E-08  0.93827000000E+00  0.93827000000E+00 0. -1.
     999902    2    1    2    0    0  0.85797232520E-02  0.19768796985E-01 -0.98220740578E-02  0.10202468810E+01  0.10199719644E+01 0.  0.
     999903    2    3    3    0    0 -0.24286099685E-01  0.11590754868E+00 -0.57364409788E-01  0.13312620402E+00  0.20187526054E-01 0.  0.
         14    1    1    2    0    0 -0.85797232520E-02 -0.19768796985E-01  0.98220740578E-02  0.23683118970E-01  0.00000000000E+00 0. -1.
     999901    1    3    3    0    0  0.32865822937E-01 -0.96138751691E-01  0.47542335730E-01  0.88712067701E+00  0.88000000000E+00 0.  1.
        -11    1    4    4    0    0 -0.21974146968E-01  0.83621456386E-01 -0.32742934826E-01  0.92454161643E-01  0.51100000000E-03 0.  1.
         11    1    4    4    0    0 -0.23119527172E-02  0.32286092290E-01 -0.24621474963E-01  0.40672042376E-01  0.51100000000E-03 0. -1.
</event>
<event>
 8    1  0.1103774E+005  0.1043930E+01  0.7957747E-01            NaN
         13   -1    0    0    0    0  0.00000000000E+00  0.00000000000E+00  0.74505805969E-08  0.10566000000E+00  0.10566000000E+00 0.  1.
     999900   -1    0    0    0    0 -0.00000000000E+00 -0.00000000000E+00 -0.74505805969E-08  0.93827000000E+00  0.93827000000E+00 0. -1.
     999902    2    1    2    0    0 -0.18249270117E-01  0.13083603818E-01  0.78200198080E-02  0.10201525052E+01  0.10198753672E+01 0.  0.
     999903    2    3    3    0    0 -0.11978375515E+00 -0.51442290947E-01 -0.14720546240E-02  0.13191876041E+00  0.20147831336E-01 0.  0.
         14    1    1    2    0    0  0.18249270117E-01 -0.13083603818E-01 -0.78200198080E-02  0.23777494790E-01  0.00000000000E+00 0. -1.
     999901    1    3    3    0    0  0.10153448504E+00  0.64525894765E-01  0.92920744319E-02  0.88823374480E+00  0.88000000000E+00 0.  1.
        -11    1    4    4    0    0 -0.87120306080E-01 -0.43304860800E-01  0.58477413952E-02  0.97466486039E-01  0.51100000000E-03 0.  1.
         11    1    4    4    0    0 -0.32663449075E-01 -0.81374301470E-02 -0.73197960191E-02  0.34452274375E-01  0.51100000000E-03 0. -1.
</event>
<event>
 8    1  0.1103774E+005  0.1043930E+01  0.7957747E-01            NaN
         13   -1    0    0    0    0  0.00000000000E+00  0.00000000000E+00  0.74505805969E-08  0.10566000000E+00  0.10566000000E+00 0.  1.
     999900   -1    0    0    0    0 -0.00000000000E+00 -0.00000000000E+00 -0.74505805969E-08  0.93827000000E+00  0.93827000000E+00 0.  1.
     999902    2    1    2    0    0  0.49467425299E-02  0.97342710268E-02  0.22235061672E-01  0.10191585596E+01  0.10188574705E+01 0.  0.
     999903    2    3    3    0    0  0.27314007389E-01 -0.10035918054E+00 -0.70482472495E-01  0.12718467891E+00  0.19752050559E-01 0.  0.
         14    1    1    2    0    0 -0.49467425299E-02 -0.97342710268E-02 -0.22235061672E-01  0.24771440443E-01  0.00000000000E+00 0. -1.
     999901    1    3    3    0    0 -0.22367264859E-01  0.11009345157E+00  0.92717534167E-01  0.89197388065E+00  0.88000000000E+00 0.  1.
        -11    1    4    4    0    0  0.26393720305E-01 -0.60898838650E-01 -0.43002767629E-01  0.79087269300E-01  0.51100000000E-03 0.  1.
         11    1    4    4    0    0  0.92028708330E-03 -0.39460341892E-01 -0.27479704866E-01  0.48097409609E-01  0.51100000000E-03 0. -1.
</event>
<event>
 8    1  0.1103774E+005  0.1043930E+01  0.7957747E-01            NaN
         13   -1    0    0    0    0  0.00000000000E+00  0.00000000000E+00  0.74505805969E-08  0.10566000000E+00  0.10566000000E+00 0. -1.
     999900   -1    0    0    0    0 -0.00000000000E+00 -0.00000000000E+00 -0.74505805969E-08  0.93827000000E+00  0.93827000000E+00 0. -1.
     999902    2    1    2    0    0 -0.13524537401E-01  0.30635672998E-02  0.19102959228E-01  0.10203244581E+01  0.10200513606E+01 0.  0.
     999903    2    3    3    0    0 -0.21748101184E-01  0.19692530371E-01 -0.12363735995E+00  0.12863003280E+00  0.19967796729E-01 0.  0.
         14    1    1    2    0    0  0.13524537401E-01 -0.30635672998E-02 -0.19102959228E-01  0.23605541887E-01  0.00000000000E+00 0.  1.
     999901    1    3    3    0    0  0.82235637833E-02 -0.16628963071E-01  0.14274031918E+00  0.89169442531E+00  0.88000000000E+00 0.  1.
        -11    1    4    4    0    0 -0.78587272335E-03  0.11458613674E-01 -0.60781882767E-01  0.61859646111E-01  0.51100000000E-03 0.  1.
         11    1    4    4    0    0 -0.20962228461E-01  0.82339166964E-02 -0.62855477180E-01  0.66770386690E-01  0.51100000000E-03 0. -1.
</event>
<event>
 8    1  0.1103774E+005  0.1043930E+01  0.7957747E-01            NaN
         13   -1    0    0    0    0  0.00000000000E+00  0.00000000000E+00  0.74505805969E-08  0.10566000000E+00  0.10566000000E+00 0.  1.
     999900   -1    0    0    0    0 -0.00000000000E+00 -0.00000000000E+00 -0.74505805969E-08  0.93827000000E+00  0.93827000000E+00 0. -1.
     999902    2    1    2    0    0 -0.14935840188E-01  0.75041910835E-02 -0.15805664835E-01  0.10209254081E+01  0.10206661931E+01 0.  0.
     999903    2    3    3    0    0 -0.12504382016E+00 -0.24962807830E-01 -0.33482957623E-01  0.13329352500E+00  0.19671213005E-01 0.  0.
         14    1    1    2    0    0  0.14935840188E-01 -0.75041910835E-02  0.15805664835E-01  0.23004591864E-01  0.00000000000E+00 0.  1.
     999901    1    3    3    0    0  0.11010797997E+00  0.32466998913E-01  0.17677292787E-01  0.88763188313E+00  0.88000000000E+00 0. -1.
        -11    1    4    4    0    0 -0.31840005890E-01 -0.12106301930E-01 -0.15822173701E-01  0.37562625349E-01  0.51100000000E-03 0.  1.
         11    1    4    4    0    0 -0.93203814273E-01 -0.12856505900E-01 -0.17660783922E-01  0.95730899655E-01  0.51100000000E-03 0. -1.
</event>
<event>
 8    1  0.1103774E+005  0.1043930E+01  0.7957747E-01            NaN
         13   -1    0    0    0    0  0.00000000000E+00  0.00000000000E+00  0.74505805969E-08  0.10566000000E+00  0.10566000000E+00 0. -1.
     999900   -1    0    0    0    0 -0.00000000000E+00 -0.00000000000E+00 -0.74505805969E-08  0.93827000000E+00  0.93827000000E+00 0. -1.
     999902    2    1    2    0    0  0.24012896628E-01 -0.78752787035E-03 -0.20148412088E-02  0.10198198571E+01  0.10195348165E+01 0.  0.
     999903    2    3    3    0    0 -0.53910733464E-01  0.85404665533E-01 -0.77530099719E-01  0.12897545960E+00  0.20577384147E-01 0.  0.
         14    1    1    2    0    0 -0.24012896628E-01  0.78752787035E-03  0.20148412088E-02  0.24110142880E-01  0.00000000000E+00 0.  1.
     999901    1    3    3    0    0  0.77923630092E-01 -0.86192193404E-01  0.75515258510E-01  0.89084439752E+00  0.88000000000E+00 0.  1.
        -11    1    4    4    0    0 -0.40263927839E-01  0.68553259125E-01 -0.70254391397E-01  0.10609747336E+00  0.51100000000E-03 0.  1.
         11    1    4    4    0    0 -0.13646805625E-01  0.16851406408E-01 -0.72757083219E-02  0.22877986237E-01  0.51100000000E-03 0. -1.
</event>
<event>
 8    1  0.1103774E+005  0.1043930E+01  0.7957747E-01            NaN
         13   -1    0    0    0    0  0.00000000000E+00  0.00000000000E+00  0.74505805969E-08  0.10566000000E+00  0.10566000000E+00 0.  1.
     999900   -1    0    0    0    0 -0.00000000000E+00 -0.00000000000E+00 -0.74505805969E-08  0.93827000000E+00  0.93827000000E+00 0.  1.
     999902    2    1    2    0    0 -0.51072460584E-02 -0.15065323657E-01 -0.16638790544E-01  0.10209105020E+01  0.10206509471E+01 0.  0.
     999903    2    3    3    0    0 -0.19972993873E-01  0.12074894698E+00  0.35520265501E-01  0.12884151713E+00  0.18953062930E-01 0.  0.
         14    1    1    2    0    0  0.51072460584E-02  0.15065323657E-01  0.16638790544E-01  0.23019498039E-01  0.00000000000E+00 0.  1.
     999901    1    3    3    0    0  0.14865747815E-01 -0.13581427064E+00 -0.52159056045E-01  0.89206898483E+00  0.88000000000E+00 0.  1.
        -11    1    4    4    0    0  0.17364784621E-02  0.44770893930E-01  0.13983783483E-01  0.46938849818E-01  0.51100000000E-03 0. -1.
         11    1    4    4    0    0 -0.21709472335E-01  0.75978053050E-01  0.21536482018E-01  0.81902667314E-01  0.51100000000E-03 0.  1.
</event>
<event>
 8    1  0.1103774E+005  0.1043930E+01  0.7957747E-01            NaN
         13   -1    0    0    0    0  0.00000000000E+00  0.00000000000E+00  0.74505805969E-08  0.10566000000E+00  0.10566000000E+00 0.  1.
     999900   -1    0    0    0    0 -0.00000000000E+00 -0.00000000000E+00 -0.74505805969E-08  0.93827000000E+00  0.93827000000E+00 0.  1.
     999902    2    1    2    0    0  0.21347730127E-01 -0.10517009725E-01 -0.14335927207E-02  0.10200891052E+01  0.10198104698E+01 0.  0.
     999903    2    3    3    0    0 -0.52571715260E-01 -0.78010311714E-01  0.87493546428E-01  0.12996132435E+00  0.19632401332E-01 0.  0.
         14    1    1    2    0    0 -0.21347730127E-01  0.10517009725E-01  0.14335927207E-02  0.23840894765E-01  0.00000000000E+00 0.  1.
     999901    1    3    3    0    0  0.73919445386E-01  0.67493301989E-01 -0.88927139149E-01  0.89012778088E+00  0.88000000000E+00 0.  1.
        -11    1    4    4    0    0 -0.59696133511E-02 -0.23234470324E-01  0.18487999353E-01  0.30290991002E-01  0.51100000000E-03 0. -1.
         11    1    4    4    0    0 -0.46602101909E-01 -0.54775841390E-01  0.69005547074E-01  0.99670333351E-01  0.51100000000E-03 0.  1.
</event>
<event>
 8    1  0.1103774E+005  0.1043930E+01  0.7957747E-01            NaN
         13   -1    0    0    0    0  0.00000000000E+00  0.00000000000E+00  0.74505805969E-08  0.10566000000E+00  0.10566000000E+00 0.  1.
     999900   -1    0    0    0    0 -0.00000000000E+00 -0.00000000000E+00 -0.74505805969E-08  0.93827000000E+00  0.93827000000E+00 0. -1.
     999902    2    1    2    0    0  0.21937122239E-01  0.48515551241E-03  0.85031848802E-02  0.10203975360E+01  0.10201261464E+01 0.  0.
     999903    2    3    3    0    0 -0.54144426151E-01  0.48094769296E-01  0.10655601918E+00  0.13041470717E+00  0.20225847474E-01 0.  0.
         14    1    1    2    0    0 -0.21937122239E-01 -0.48515551241E-03 -0.85031848802E-02  0.23532463983E-01  0.00000000000E+00 0. -1.
     999901    1    3    3    0    0  0.76081548390E-01 -0.47609613783E-01 -0.98052834298E-01  0.88998282885E+00  0.88000000000E+00 0. -1.
        -11    1    4    4    0    0 -0.35591484214E-01  0.43061333984E-01  0.76376745017E-01  0.94629279472E-01  0.51100000000E-03 0. -1.
         11    1    4    4    0    0 -0.18552941938E-01  0.50334353121E-02  0.30179274161E-01  0.35785427697E-01  0.51100000000E-03 0.  1.
</event>
<event>
 8    1  0.1103774E+005  0.1043930E+01  0.7957747E-01            NaN
         13   -1    0    0    0    0  0.00000000000E+00  0.00000000000E+00  0.74505805969E-08  0.10566000000E+00  0.10566000000E+00 0.  1.
     999900   -1    0    0    0    0 -0.00000000000E+00 -0.00000000000E+00 -0.74505805969E-08  0.93827000000E+00  0.93827000000E+00 0.  1.
     999902    2    1    2    0    0 -0.13496117041E-01 -0.16141856663E-01  0.10815939913E-01  0.10202722472E+01  0.10199979260E+01 0.  0.
     999903    2    3    3    0    0 -0.12394356745E+00 -0.35304661268E-02  0.41955871520E-01  0.13273217384E+00  0.21978687684E-01 0.  0.
         14    1    1    2    0    0  0.13496117041E-01  0.16141856663E-01 -0.10815939913E-01  0.23657752807E-01  0.00000000000E+00 0. -1.
     999901    1    3    3    0    0  0.11044745041E+00 -0.12611390536E-01 -0.31139931607E-01  0.88754007336E+00  0.88000000000E+00 0. -1.
        -11    1    4    4    0    0 -0.10447134131E+00  0.23354971990E-02  0.41343369914E-01  0.11237994064E+00  0.51100000000E-03 0. -1.
         11    1    4    4    0    0 -0.19472226143E-01 -0.58659633259E-02  0.61250160564E-03  0.20352233192E-01  0.51100000000E-03 0.  1.
</event>
<event>
 8    1  0.1103774E+005  0.1043930E+01  0.7957747E-01            NaN
         13   -1    0    0    0    0  0.00000000000E+00  0.00000000000E+00  0.74505805969E-08  0.10566000000E+00  0.10566000000E+00 0.  1.
     999900   -1    0    0    0    0 -0.00000000000E+00 -0.00000000000E+00 -0.74505805969E-08  0.93827000000E+00  0.93827000000E+00 0. -1.
     999902    2    1    2    0    0  0.22355841812E-01 -0.10680793880E-02  0.78305169299E-02  0.10202183688E+01  0.10199427821E+01 0.  0.
     999903    2    3    3    0    0  0.87070284813E-01 -0.97925056855E-01  0.70544246789E-02  0.13254171852E+00  0.18627693962E-01 0.  0.
         14    1    1    2    0    0 -0.22355841812E-01  0.10680793880E-02 -0.78305169299E-02  0.23711631156E-01  0.00000000000E+00 0. -1.
     999901    1    3    3    0    0 -0.64714443001E-01  0.96856977467E-01  0.77609225100E-03  0.88767665033E+00  0.88000000000E+00 0. -1.
        -11    1    4    4    0    0  0.66323078564E-01 -0.79901572877E-01 -0.11740772829E-02  0.10384917755E+00  0.51100000000E-03 0.  1.
         11    1    4    4    0    0  0.20747206249E-01 -0.18023483978E-01  0.82285019618E-02  0.28692540971E-01  0.51100000000E-03 0. -1.
</event>
<event>
 8    1  0.1103774E+005  0.1043930E+01  0.7957747E-01            NaN
         13   -1    0    0    0    0  0.00000000000E+00  0.00000000000E+00  0.74505805969E-08  0.10566000000E+00  0.10566000000E+00 0.  1.
     999900   -1    0    0    0    0 -0.00000000000E+00 -0.00000000000E+00 -0.74505805969E-08  0.93827000000E+00  0.93827000000E+00 0.  1.
     999902    2    1    2    0    0  0.12789044589E-01 -0.14539055611E-01  0.18386034903E-01  0.10172281259E+01  0.10168776082E+01 0.  0.
     999903    2    3    3    0    0 -0.12061963512E+00  0.91889158483E-02 -0.27518643891E-01  0.12567435190E+00  0.20080697519E-01 0.  0.
         14    1    1    2    0    0 -0.12789044589E-01  0.14539055611E-01 -0.18386034903E-01  0.26701874072E-01  0.00000000000E+00 0.  1.
     999901    1    3    3    0    0  0.13340867971E+00 -0.23727971459E-01  0.45904678794E-01  0.89155377403E+00  0.88000000000E+00 0. -1.
        -11    1    4    4    0    0 -0.32986358586E-01 -0.43189770746E-02 -0.13486300556E-01  0.35901181588E-01  0.51100000000E-03 0. -1.
         11    1    4    4    0    0 -0.87633276532E-01  0.13507892923E-01 -0.14032343335E-01  0.89773170310E-01  0.51100000000E-03 0.  1.
</event>
<event>
 8    1  0.1103774E+005  0.1043930E+01  0.7957747E-01            NaN
         13   -1    0    0    0    0  0.00000000000E+00  0.00000000000E+00  0.74505805969E-08  0.10566000000E+00  0.10566000000E+00 0. -1.
     999900   -1    0    0    0    0 -0.00000000000E+00 -0.00000000000E+00 -0.74505805969E-08  0.93827000000E+00  0.93827000000E+00 0.  1.
     999902    2    1    2    0    0  0.12001773716E-01  0.11680359431E-01  0.16592141862E-01  0.10203551715E+01  0.10200827924E+01 0.  0.
     999903    2    3    3    0    0 -0.49337982199E-01  0.22745580083E-01 -0.11471358913E+00  0.12843241710E+00  0.19597967510E-01 0.  0.
         14    1    1    2    0    0 -0.12001773716E-01 -0.11680359431E-01 -0.16592141862E-01  0.23574828532E-01  0.00000000000E+00 0.  1.
     999901    1    3    3    0    0  0.61339755915E-01 -0.11065220652E-01  0.13130573099E+00  0.89192275437E+00  0.88000000000E+00 0. -1.
        -11    1    4    4    0    0 -0.31396132792E-02  0.50678088623E-02 -0.40769498987E-02  0.72403383681E-02  0.51100000000E-03 0.  1.
         11    1    4    4    0    0 -0.46198368920E-01  0.17677771221E-01 -0.11063663923E+00  0.12119207873E+00  0.51100000000E-03 0. -1.
</event>
<event>
 8    1  0.1103774E+005  0.1043930E+01  0.7957747E-01            NaN
         13   -1    0    0    0    0  0.00000000000E+00  0.00000000000E+00  0.74505805969E-08  0.10566000000E+00  0.10566000000E+00 0.  1.
     999900   -1    0    0    0    0 -0.00000000000E+00 -0.00000000000E+00 -0.74505805969E-08  0.93827000000E+00  0.93827000000E+00 0.  1.
     999902    2    1    2    0    0 -0.13674678776E-01 -0.67383181324E-02 -0.18355403545E-01  0.10200695178E+01  0.10197904189E+01 0.  0.
     999903    2    3    3    0    0  0.10999114694E+00 -0.19538458495E-01  0.59053136056E-01  0.12796573347E+00  0.20202779444E-01 0.  0.
         14    1    1    2    0    0  0.13674678776E-01  0.67383181324E-02  0.18355403545E-01  0.23860482186E-01  0.00000000000E+00 0.  1.
     999901    1    3    3    0    0 -0.12366582572E+00  0.12800140363E-01 -0.77408539600E-01  0.89210378435E+00  0.88000000000E+00 0. -1.
        -11    1    4    4    0    0  0.47734882855E-01 -0.44320336151E-02  0.35709849727E-01  0.59780569181E-01  0.51100000000E-03 0. -1.
         11    1    4    4    0    0  0.62256264089E-01 -0.15106424880E-01  0.23343286329E-01  0.68185164285E-01  0.51100000000E-03 0.  1.
</event>
<event>
 8    1  0.1103774E+005  0.1043930E+01  0.7957747E-01            NaN
         13   -1    0    0    0    0  0.00000000000E+00  0.00000000000E+00  0.74505805969E-08  0.10566000000E+00  0.10566000000E+00 0. -1.
     999900   -1    0    0    0    0 -0.00000000000E+00 -0.00000000000E+00 -0.74505805969E-08  0.93827000000E+00  0.93827000000E+00 0.  1.
     999902    2    1    2    0    0 -0.22409870941E-01 -0.53058943905E-02  0.92107446812E-02  0.10191269226E+01  0.10188250545E+01 0.  0.
     999903    2    3    3    0    0  0.89156408969E-01  0.19591236949E-01  0.87829175622E-01  0.12825781906E+00  0.20085373625E-01 0.  0.
         14    1    1    2    0    0  0.22409870941E-01  0.53058943905E-02 -0.92107446812E-02  0.24803077399E-01  0.00000000000E+00 0.  1.
     999901    1    3    3    0    0 -0.11156627991E+00 -0.24897131340E-01 -0.78618430941E-01  0.89086910354E+00  0.88000000000E+00 0.  1.
        -11    1    4    4    0    0  0.53813599052E-01  0.11633302705E-01  0.39077001252E-01  0.67516741054E-01  0.51100000000E-03 0.  1.
         11    1    4    4    0    0  0.35342809918E-01  0.79579342442E-02  0.48752174371E-01  0.60741078005E-01  0.51100000000E-03 0. -1.
</event>
<event>
 8    1  0.1103774E+005  0.1043930E+01  0.7957747E-01            NaN
         13   -1    0    0    0    0  0.00000000000E+00  0.00000000000E+00  0.74505805969E-08  0.10566000000E+00  0.10566000000E+00 0.  1.
     999900   -1    0    0    0    0 -0.00000000000E+00 -0.00000000000E+00 -0.74505805969E-08  0.93827000000E+00  0.93827000000E+00 0.  1.
     999902    2    1    2    0    0  0.51139160619E-02  0.21565715491E-01 -0.11137949833E-01  0.10191250378E+01  0.10188231233E+01 0.  0.
     999903    2    3    3    0    0  0.52029293078E-01  0.30174371715E-01  0.11251268293E+00  0.12920108571E+00  0.20402859655E-01 0.  0.
         14    1    1    2    0    0 -0.51139160619E-02 -0.21565715491E-01  0.11137949833E-01  0.24804962177E-01  0.00000000000E+00 0. -1.
     999901    1    3    3    0    0 -0.46915377016E-01 -0.86086562239E-02 -0.12365063276E+00  0.88992395211E+00  0.88000000000E+00 0.  1.
        -11    1    4    4    0    0  0.20193658776E-01  0.92529298851E-02  0.62489124821E-01  0.66321583276E-01  0.51100000000E-03 0.  1.
         11    1    4    4    0    0  0.31835634301E-01  0.20921441830E-01  0.50023558107E-01  0.62879502434E-01  0.51100000000E-03 0. -1.
</event>
<event>
 8    1  0.1103774E+005  0.1043930E+01  0.7957747E-01            NaN
         13   -1    0    0    0    0  0.00000000000E+00  0.00000000000E+00  0.74505805969E-08  0.10566000000E+00  0.10566000000E+00 0. -1.
     999900   -1    0    0    0    0 -0.00000000000E+00 -0.00000000000E+00 -0.74505805969E-08  0.93827000000E+00  0.93827000000E+00 0.  1.
     999902    2    1    2    0    0 -0.10246775752E-01  0.14204574281E-01  0.15876463021E-01  0.10202904479E+01  0.10200165537E+01 0.  0.
     999903    2    3    3    0    0 -0.14642022445E-01 -0.60217243157E-01 -0.11053057940E+00  0.12813762163E+00  0.19019355911E-01 0.  0.
         14    1    1    2    0    0  0.10246775752E-01 -0.14204574281E-01 -0.15876463021E-01  0.23639552066E-01  0.00000000000E+00 0.  1.
     999901    1    3    3    0    0  0.43952466926E-02  0.74421817439E-01  0.12640704243E+00  0.89215282630E+00  0.88000000000E+00 0. -1.
        -11    1    4    4    0    0 -0.10068334644E-01 -0.21796056839E-01 -0.58964925757E-01  0.63667598091E-01  0.51100000000E-03 0.  1.
         11    1    4    4    0    0 -0.45736878008E-02 -0.38421186318E-01 -0.51565653647E-01  0.64470023540E-01  0.51100000000E-03 0. -1.
</event>
<event>
 7    1  0.1103774E+005  0.1043930E+01  0.7957747E-01            NaN
         13   -1    0    0    0    0  0.00000000000E+00  0.00000000000E+00  0.74505805969E-08  0.10566000000E+00  0.10566000000E+00 0.  1.
     999900   -1    0    0    0    0 -0.00000000000E+00 -0.00000000000E+00 -0.74505805969E-08  0.93827000000E+00  0.93827000000E+00 0.  1.
     999903    2    1    2    0    0  0.81721255083E-01 -0.47133768302E-02  0.68649079897E-01  0.10872240179E+00  0.20181303877E-01 0.  0.
         14    1    1    2    0    0  0.37902720276E-01  0.59123680183E-02  0.18981760340E-01  0.42800461744E-01  0.00000000000E+00 0.  1.
     999901    1    1    2    0    0 -0.11962397536E+00 -0.11989911881E-02 -0.87630840236E-01  0.89240713647E+00  0.88000000000E+00 0.  1.
        -11    1    3    3    0    0  0.42128794560E-01  0.76625685116E-02  0.35022452790E-01  0.55320733976E-01  0.51100000000E-03 0.  1.
         11    1    3    3    0    0  0.39592460523E-01 -0.12375945342E-01  0.33626627107E-01  0.53401667811E-01  0.51100000000E-03 0. -1.
</event>
<event>
 8    1  0.1103774E+005  0.1043930E+01  0.7957747E-01            NaN
         13   -1    0    0    0    0  0.00000000000E+00  0.00000000000E+00  0.74505805969E-08  0.10566000000E+00  0.10566000000E+00 0. -1.
     999900   -1    0    0    0    0 -0.00000000000E+00 -0.00000000000E+00 -0.74505805969E-08  0.93827000000E+00  0.93827000000E+00 0.  1.
     999902    2    1    2    0    0  0.45125825017E-02 -0.14648541256E-01  0.17825711203E-01  0.10204204457E+01  0.10201495905E+01 0.  0.
     999903    2    3    3    0    0  0.76979920846E-01  0.93829630810E-01 -0.38897061526E-01  0.12899658366E+00  0.19930613837E-01 0.  0.
         14    1    1    2    0    0 -0.45125825017E-02  0.14648541256E-01 -0.17825711203E-01  0.23509554264E-01  0.00000000000E+00 0.  1.
     999901    1    3    3    0    0 -0.72467338344E-01 -0.10847817207E+00  0.56722772730E-01  0.89142386208E+00  0.88000000000E+00 0.  1.
        -11    1    4    4    0    0  0.62282851177E-01  0.78324937057E-01 -0.39584983816E-01  0.10761589743E+00  0.51100000000E-03 0.  1.
         11    1    4    4    0    0  0.14697069668E-01  0.15504693754E-01  0.68792228970E-03  0.21380686222E-01  0.51100000000E-03 0. -1.
</event>
<event>
 8    1  0.1103774E+005  0.1043930E+01  0.7957747E-01            NaN
         13   -1    0    0    0    0  0.00000000000E+00  0.00000000000E+00  0.74505805969E-08  0.10566000000E+00  0.10566000000E+00 0.  1.
     999900   -1    0    0    0    0 -0.00000000000E+00 -0.00000000000E+00 -0.74505805969E-08  0.93827000000E+00  0.93827000000E+00 0.  1.
     999902    2    1    2    0    0 -0.13058431658E-01 -0.20376289161E-01 -0.32023124097E-02  0.10195174909E+01  0.10192251682E+01 0.  0.
     999903    2    3    3    0    0  0.75563024508E-01  0.98789454115E-01 -0.15057776908E-01  0.12699590071E+00  0.20786900542E-01 0.  0.
         14    1    1    2    0    0  0.13058431658E-01  0.20376289161E-01  0.32023124097E-02  0.24412509132E-01  0.00000000000E+00 0. -1.
     999901    1    3    3    0    0 -0.88621456166E-01 -0.11916574328E+00  0.11855464499E-01  0.89252159016E+00  0.88000000000E+00 0. -1.
        -11    1    4    4    0    0  0.48091381261E-01  0.67216269620E-01 -0.19459970762E-01  0.84910302297E-01  0.51100000000E-03 0.  1.
         11    1    4    4    0    0  0.27471643247E-01  0.31573184495E-01  0.44021938541E-02  0.42085598411E-01  0.51100000000E-03 0. -1.
</event>
<event>
 8    1  0.1103774E+005  0.1043930E+01  0.7957747E-01            NaN
         13   -1    0    0    0    0  0.00000000000E+00  0.00000000000E+00  0.74505805969E-08  0.10566000000E+00  0.10566000000E+00 0. -1.
     999900   -1    0    0    0    0 -0.00000000000E+00 -0.00000000000E+00 -0.74505805969E-08  0.93827000000E+00  0.93827000000E+00 0.  1.
     999902    2    1    2    0    0  0.82299742670E-03 -0.15660844404E-01  0.19424923949E-01  0.10189646832E+01  0.10186588038E+01 0.  0.
     999903    2    3    3    0    0 -0.25187047792E-01  0.58546569020E-01  0.11223368786E+00  0.13059723146E+00  0.19928573826E-01 0.  0.
         14    1    1    2    0    0 -0.82299742670E-03  0.15660844404E-01 -0.19424923949E-01  0.24965316795E-01  0.00000000000E+00 0.  1.
     999901    1    3    3    0    0  0.26010045218E-01 -0.74207413424E-01 -0.92808763909E-01  0.88836745174E+00  0.88000000000E+00 0.  1.
        -11    1    4    4    0    0 -0.19365237634E-01  0.57588028075E-01  0.10413268899E+00  0.12056231353E+00  0.51100000000E-03 0.  1.
         11    1    4    4    0    0 -0.58218101577E-02  0.95854094503E-03  0.81009988698E-02  0.10034917934E-01  0.51100000000E-03 0. -1.
</event>
<event>
 8    1  0.1103774E+005  0.1043930E+01  0.7957747E-01            NaN
         13   -1    0    0    0    0  0.00000000000E+00  0.00000000000E+00  0.74505805969E-08  0.10566000000E+00  0.10566000000E+00 0.  1.
     999900   -1    0    0    0    0 -0.00000000000E+00 -0.00000000000E+00 -0.74505805969E-08  0.93827000000E+00  0.93827000000E+00 0. -1.
     999902    2    1    2    0    0 -0.12527353041E-01 -0.21394927579E-01 -0.69632186078E-02  0.10181780309E+01  0.10178523167E+01 0.  0.
     999903    2    3    3    0    0 -0.55790702460E-01  0.68338448733E-02  0.11377833670E+00  0.12843250311E+00  0.19750798397E-01 0.  0.
         14    1    1    2    0    0  0.12527353041E-01  0.21394927579E-01  0.69632186078E-02  0.25751969123E-01  0.00000000000E+00 0.  1.
     999901    1    3    3    0    0  0.43263349419E-01 -0.28228772452E-01 -0.12074155531E+00  0.88974552776E+00  0.88000000000E+00 0. -1.
        -11    1    4    4    0    0 -0.53128248301E-01  0.63036311268E-02  0.91585684652E-01  0.10606858765E+00  0.51100000000E-03 0.  1.
         11    1    4    4    0    0 -0.26624541590E-02  0.53021374656E-03  0.22192652047E-01  0.22363915459E-01  0.51100000000E-03 0. -1.
</event>
<event>
 8    1  0.1103774E+005  0.1043930E+01  0.7957747E-01            NaN
         13   -1    0    0    0    0  0.00000000000E+00  0.00000000000E+00  0.74505805969E-08  0.10566000000E+00  0.10566000000E+00 0.  1.
     999900   -1    0    0    0    0 -0.00000000000E+00 -0.00000000000E+00 -0.74505805969E-08  0.93827000000E+00  0.93827000000E+00 0. -1.
     999902    2    1    2    0    0  0.16081531475E-01  0.85808927176E-02 -0.14437995754E-01  0.10206769766E+01  0.10204120675E+01 0.  0.
     999903    2    3    3    0    0  0.26049396561E-01 -0.12599083862E+00 -0.81477175029E-02  0.13036889691E+00  0.19426824388E-01 0.  0.
         14    1    1    2    0    0 -0.16081531475E-01 -0.85808927176E-02  0.14437995754E-01  0.23253023370E-01  0.00000000000E+00 0.  1.
     999901    1    3    3    0    0 -0.99678650861E-02  0.13457173133E+00 -0.62902782515E-02  0.89030807972E+00  0.88000000000E+00 0.  1.
        -11    1    4    4    0    0  0.20153072979E-01 -0.51091443950E-01 -0.15474392482E-02  0.54946680378E-01  0.51100000000E-03 0.  1.
         11    1    4    4    0    0  0.58963235819E-02 -0.74899394666E-01 -0.66002782547E-02  0.75422216536E-01  0.51100000000E-03 0. -1.
</event>
<event>
 8    1  0.1103774E+005  0.1043930E+01  0.7957747E-01            NaN
         13   -1    0    0    0    0  0.00000000000E+00  0.00000000000E+00  0.74505805969E-08  0.10566000000E+00  0.10566000000E+00 0.  1.
     999900   -1    0    0    0    0 -0.00000000000E+00 -0.00000000000E+00 -0.74505805969E-08  0.93827000000E+00  0.93827000000E+00 0.  1.
     999902    2    1    2    0    0  0.15701421062E-01  0.17357314704E-01 -0.43730399348E-02  0.10201196141E+01  0.10198416998E+01 0.  0.
     999903    2    3    3    0    0  0.16188911727E-01  0.94038107066E-02 -0.12833803524E+00  0.13139535097E+00  0.21061207192E-01 0.  0.
         14    1    1    2    0    0 -0.15701421062E-01 -0.17357314704E-01  0.43730399348E-02  0.23810385872E-01  0.00000000000E+00 0. -1.
     999901    1    3    3    0    0 -0.48749066436E-03  0.79535039975E-02  0.12396499530E+00  0.88872426316E+00  0.88000000000E+00 0. -1.
        -11    1    4    4    0    0  0.24918957227E-02  0.11843876763E-01 -0.85446132895E-01  0.86300577685E-01  0.51100000000E-03 0.  1.
         11    1    4    4    0    0  0.13697016004E-01 -0.24400660569E-02 -0.42891902342E-01  0.45094773281E-01  0.51100000000E-03 0. -1.
</event>
<event>
 8    1  0.1103774E+005  0.1043930E+01  0.7957747E-01            NaN
         13   -1    0    0    0    0  0.00000000000E+00  0.00000000000E+00  0.74505805969E-08  0.10566000000E+00  0.10566000000E+00 0. -1.
     999900   -1    0    0    0    0 -0.00000000000E+00 -0.00000000000E+00 -0.74505805969E-08  0.93827000000E+00  0.93827000000E+00 0.  1.
     999902    2    1    2    0    0 -0.55466879936E-02 -0.14916119666E-01 -0.17949089201E-01  0.10199419576E+01  0.10196598309E+01 0.  0.
     999903    2    3    3    0    0  0.12411528220E+00  0.25931647558E-01 -0.16598182691E-01  0.12950240800E+00  0.20452882136E-01 0.  0.
         14    1    1    2    0    0  0.55466879936E-02  0.14916119666E-01  0.17949089201E-01  0.23988042370E-01  0.00000000000E+00 0.  1.
     999901    1    3    3    0    0 -0.12966197019E+00 -0.40847767225E-01 -0.13509065102E-02  0.89043954963E+00  0.88000000000E+00 0. -1.
        -11    1    4    4    0    0  0.66708555347E-01  0.11137713614E-01 -0.18730439492E-01  0.70179559029E-01  0.51100000000E-03 0.  1.
         11    1    4    4    0    0  0.57406726854E-01  0.14793933945E-01  0.21322568007E-02  0.59322848968E-01  0.51100000000E-03 0. -1.
</event>
<event>
 8    1  0.1103774E+005  0.1043930E+01  0.7957747E-01            NaN
         13   -1    0    0    0    0  0.00000000000E+00  0.00000000000E+00  0.74505805969E-08  0.10566000000E+00  0.10566000000E+00 0.  1.
     999900   -1    0    0    0    0 -0.00000000000E+00 -0.00000000000E+00 -0.74505805969E-08  0.93827000000E+00  0.93827000000E+00 0.  1.
     999902    2    1    2    0    0  0.12768888159E-01 -0.39505265021E-02  0.19664650146E-01  0.10201529180E+01  0.10198757897E+01 0.  0.
     999903    2    3    3    0    0 -0.12318907902E+00 -0.17655584465E-01 -0.26182777733E-01  0.12842740858E+00  0.17910683161E-01 0.  0.
         14    1    1    2    0    0 -0.12768888159E-01  0.39505265021E-02 -0.19664650146E-01  0.23777082030E-01  0.00000000000E+00 0. -1.
     999901    1    3    3    0    0  0.13595796718E+00  0.13705057963E-01  0.45847427879E-01  0.89172550939E+00  0.88000000000E+00 0. -1.
        -11    1    4    4    0    0 -0.92358358147E-01 -0.57886665910E-02 -0.22036963883E-01  0.95128670120E-01  0.51100000000E-03 0.  1.
         11    1    4    4    0    0 -0.30830720876E-01 -0.11866917874E-01 -0.41458138503E-02  0.33298738460E-01  0.51100000000E-03 0. -1.
</event>
<event>
 8    1  0.1427741E+005  0.1043930E+01  0.7957747E-01            NaN
         13   -1    0    0    0    0  0.00000000000E+00  0.00000000000E+00  0.74505805969E-08  0.10566000000E+00  0.10566000000E+00 0. -1.
     999900   -1    0    0    0    0 -0.00000000000E+00 -0.00000000000E+00 -0.74505805969E-08  0.93827000000E+00  0.93827000000E+00 0. -1.
     999902    2    1    2    0    0  0.15830888065E-01 -0.56350776684E-03  0.23460408311E-01  0.10156223099E+01  0.10152277336E+01 0.  0.
     999903    2    3    3    0    0  0.23316911790E-01 -0.41435214075E-01  0.11916726395E+00  0.12945847682E+00  0.17265719830E-01 0.  0.
         14    1    1    2    0    0 -0.15830888065E-01  0.56350776684E-03 -0.23460408311E-01  0.28307690051E-01  0.00000000000E+00 0.  1.
     999901    1    3    3    0    0 -0.74860237253E-02  0.40871706308E-01 -0.95706855644E-01  0.88616383313E+00  0.88000000000E+00 0. -1.
        -11    1    4    4    0    0  0.17562112790E-01 -0.17920496273E-01  0.75023183031E-01  0.79109488087E-01  0.51100000000E-03 0.  1.
         11    1    4    4    0    0  0.57547990004E-02 -0.23514717802E-01  0.44144080924E-01  0.50348988733E-01  0.51100000000E-03 0. -1.
</event>
<event>
 8    1  0.1103774E+005  0.1043930E+01  0.7957747E-01            NaN
         13   -1    0    0    0    0  0.00000000000E+00  0.00000000000E+00  0.74505805969E-08  0.10566000000E+00  0.10566000000E+00 0.  1.
     999900   -1    0    0    0    0 -0.00000000000E+00 -0.00000000000E+00 -0.74505805969E-08  0.93827000000E+00  0.93827000000E+00 0.  1.
     999902    2    1    2    0    0 -0.17711229331E-01 -0.25190233509E-02 -0.12155039865E-01  0.10223018212E+01  0.10220730089E+01 0.  0.
     999903    2    3    3    0    0 -0.50498807918E-01  0.39864571814E-01 -0.11631269404E+00  0.13454047302E+00  0.20813034309E-01 0.  0.
         14    1    1    2    0    0  0.17711229331E-01  0.25190233509E-02  0.12155039865E-01  0.21628178776E-01  0.00000000000E+00 0.  1.
     999901    1    3    3    0    0  0.32787578587E-01 -0.42383595165E-01  0.10415765418E+00  0.88776134821E+00  0.88000000000E+00 0. -1.
        -11    1    4    4    0    0 -0.23980715735E-01  0.26113301836E-01 -0.80081680674E-01  0.87580340034E-01  0.51100000000E-03 0.  1.
         11    1    4    4    0    0 -0.26518092183E-01  0.13751269978E-01 -0.36231013367E-01  0.46960132982E-01  0.51100000000E-03 0. -1.
</event>
<event>
 8    1  0.1103774E+005  0.1043930E+01  0.7957747E-01            NaN
         13   -1    0    0    0    0  0.00000000000E+00  0.00000000000E+00  0.74505805969E-08  0.10566000000E+00  0.10566000000E+00 0.  1.
     999900   -1    0    0    0    0 -0.00000000000E+00 -0.00000000000E+00 -0.74505805969E-08  0.93827000000E+00  0.93827000000E+00 0.  1.
     999902    2    1    2    0    0 -0.12819629127E-01 -0.95878759348E-04 -0.19500111622E-01  0.10205931957E+01  0.10203263520E+01 0.  0.
     999903    2    3    3    0    0  0.87779610278E-01 -0.58619180248E-01  0.69982284573E-01  0.12843161667E+00  0.21346937341E-01 0.  0.
         14    1    1    2    0    0  0.12819629127E-01  0.95878759348E-04  0.19500111622E-01  0.23336804343E-01  0.00000000000E+00 0. -1.
     999901    1    3    3    0    0 -0.10059923940E+00  0.58523301489E-01 -0.89482396195E-01  0.89216157898E+00  0.88000000000E+00 0.  1.
        -11    1    4    4    0    0  0.46956751022E-01 -0.32395545767E-01  0.25074582751E-01  0.62316961361E-01  0.51100000000E-03 0.  1.
         11    1    4    4    0    0  0.40822859256E-01 -0.26223634480E-01  0.44907701822E-01  0.66114655312E-01  0.51100000000E-03 0. -1.
</event>
<event>
 8    1  0.1103774E+005  0.1043930E+01  0.7957747E-01            NaN
         13   -1    0    0    0    0  0.00000000000E+00  0.00000000000E+00  0.74505805969E-08  0.10566000000E+00  0.10566000000E+00 0. -1.
     999900   -1    0    0    0    0 -0.00000000000E+00 -0.00000000000E+00 -0.74505805969E-08  0.93827000000E+00  0.93827000000E+00 0.  1.
     999902    2    1    2    0    0 -0.19222062910E-01 -0.14456808612E-01  0.55721256307E-02  0.10192412252E+01  0.10189421669E+01 0.  0.
     999903    2    3    3    0    0 -0.55403933611E-02  0.74361354770E-01 -0.10263749804E+00  0.12807054744E+00  0.17530033509E-01 0.  0.
         14    1    1    2    0    0  0.19222062910E-01  0.14456808612E-01 -0.55721256307E-02  0.24688774814E-01  0.00000000000E+00 0. -1.
     999901    1    3    3    0    0 -0.13681669549E-01 -0.88818163381E-01  0.10820962367E+00  0.89117067775E+00  0.88000000000E+00 0. -1.
        -11    1    4    4    0    0  0.45773150496E-02  0.13902098445E-01 -0.26944445589E-01  0.30667318489E-01  0.51100000000E-03 0. -1.
         11    1    4    4    0    0 -0.10117708411E-01  0.60459256325E-01 -0.75693052451E-01  0.97403228946E-01  0.51100000000E-03 0.  1.
</event>
<event>
 8    1  0.1103774E+005  0.1043930E+01  0.7957747E-01            NaN
         13   -1    0    0    0    0  0.00000000000E+00  0.00000000000E+00  0.74505805969E-08  0.10566000000E+00  0.10566000000E+00 0.  1.
     999900   -1    0    0    0    0 -0.00000000000E+00 -0.00000000000E+00 -0.74505805969E-08  0.93827000000E+00  0.93827000000E+00 0. -1.
     999902    2    1    2    0    0 -0.16241898423E-01  0.67066165554E-02  0.14402030457E-01  0.10212100429E+01  0.10209572740E+01 0.  0.
     999903    2    3    3    0    0  0.84434344267E-01  0.97577384482E-01 -0.25665898444E-03  0.13070003200E+00  0.20782878470E-01 0.  0.
         14    1    1    2    0    0  0.16241898423E-01 -0.67066165554E-02 -0.14402030457E-01  0.22719957115E-01  0.00000000000E+00 0. -1.
     999901    1    3    3    0    0 -0.10067624269E+00 -0.90870767927E-01  0.14658689442E-01  0.89051001088E+00  0.88000000000E+00 0. -1.
        -11    1    4    4    0    0  0.51589181378E-01  0.50746176183E-01  0.83741598017E-02  0.72849198388E-01  0.51100000000E-03 0.  1.
         11    1    4    4    0    0  0.32845162889E-01  0.46831208299E-01 -0.86308187861E-02  0.57850833614E-01  0.51100000000E-03 0. -1.
</event>
<event>
 8    1  0.1103774E+005  0.1043930E+01  0.7957747E-01            NaN
         13   -1    0    0    0    0  0.00000000000E+00  0.00000000000E+00  0.74505805969E-08  0.10566000000E+00  0.10566000000E+00 0.  1.
     999900   -1    0    0    0    0 -0.00000000000E+00 -0.00000000000E+00 -0.74505805969E-08  0.93827000000E+00  0.93827000000E+00 0. -1.
     999902    2    1    2    0    0  0.18203621097E-02  0.13093000127E-01  0.18238525514E-01  0.10214048100E+01  0.10211564042E+01 0.  0.
     999903    2    3    3    0    0 -0.53706976643E-01  0.57028140551E-01 -0.10235960122E+00  0.13036188733E+00  0.19495782933E-01 0.  0.
         14    1    1    2    0    0 -0.18203621097E-02 -0.13093000127E-01 -0.18238525514E-01  0.22525189976E-01  0.00000000000E+00 0.  1.
     999901    1    3    3    0    0  0.55527338753E-01 -0.43935140424E-01  0.12059812673E+00  0.89104292269E+00  0.88000000000E+00 0.  1.
        -11    1    4    4    0    0 -0.41948350382E-01  0.31219535858E-01 -0.63794186314E-01  0.82488077002E-01  0.51100000000E-03 0.  1.
         11    1    4    4    0    0 -0.11758626261E-01  0.25808604693E-01 -0.38565414901E-01  0.47873810327E-01  0.51100000000E-03 0. -1.
</event>
<event>
 8    1  0.1103774E+005  0.1043930E+01  0.7957747E-01            NaN
         13   -1    0    0    0    0  0.00000000000E+00  0.00000000000E+00  0.74505805969E-08  0.10566000000E+00  0.10566000000E+00 0.  1.
     999900   -1    0    0    0    0 -0.00000000000E+00 -0.00000000000E+00 -0.74505805969E-08  0.93827000000E+00  0.93827000000E+00 0. -1.
     999902    2    1    2    0    0  0.83808525400E-02  0.20112610920E-01  0.11499495647E-01  0.10192927476E+01  0.10189949514E+01 0.  0.
     999903    2    3    3    0    0 -0.89646044410E-01 -0.56001450022E-01 -0.67464427294E-01  0.12708317357E+00  0.20642392605E-01 0.  0.
         14    1    1    2    0    0 -0.83808525400E-02 -0.20112610920E-01 -0.11499495647E-01  0.24637252433E-01  0.00000000000E+00 0. -1.
     999901    1    3    3    0    0  0.98026896950E-01  0.76114060942E-01  0.78963922941E-01  0.89220957399E+00  0.88000000000E+00 0.  1.
        -11    1    4    4    0    0 -0.18549327330E-01 -0.22072585531E-01 -0.15911160874E-01  0.32934825607E-01  0.51100000000E-03 0.  1.
         11    1    4    4    0    0 -0.71096717080E-01 -0.33928864491E-01 -0.51553266420E-01  0.94148347967E-01  0.51100000000E-03 0. -1.
</event>
<event>
 8    1  0.1103774E+005  0.1043930E+01  0.7957747E-01            NaN
         13   -1    0    0    0    0  0.00000000000E+00  0.00000000000E+00  0.74505805969E-08  0.10566000000E+00  0.10566000000E+00 0. -1.
     999900   -1    0    0    0    0 -0.00000000000E+00 -0.00000000000E+00 -0.74505805969E-08  0.93827000000E+00  0.93827000000E+00 0.  1.
     999902    2    1    2    0    0 -0.52554000363E-02 -0.10917380632E-01 -0.20010584811E-01  0.10205370110E+01  0.10202688660E+01 0.  0.
     999903    2    3    3    0    0  0.30292904912E-01  0.73292498110E-01  0.98531645383E-01  0.12789640808E+00  0.18961953762E-01 0.  0.
         14    1    1    2    0    0  0.52554000363E-02  0.10917380632E-01  0.20010584811E-01  0.23392988990E-01  0.00000000000E+00 0. -1.
     999901    1    3    3    0    0 -0.35548304948E-01 -0.84209878741E-01 -0.11854223019E+00  0.89264060293E+00  0.88000000000E+00 0.  1.
        -11    1    4    4    0    0  0.14718114200E-01  0.40661187487E-01  0.38954446543E-01  0.58203651775E-01  0.51100000000E-03 0.  1.
         11    1    4    4    0    0  0.15574790711E-01  0.32631310623E-01  0.59577198839E-01  0.69692756304E-01  0.51100000000E-03 0. -1.
</event>
<event>
 8    1  0.1103774E+005  0.1043930E+01  0.7957747E-01            NaN
         13   -1    0    0    0    0  0.00000000000E+00  0.00000000000E+00  0.74505805969E-08  0.10566000000E+00  0.10566000000E+00 0.  1.
     999900   -1    0    0    0    0 -0.00000000000E+00 -0.00000000000E+00 -0.74505805969E-08  0.93827000000E+00  0.93827000000E+00 0.  1.
     999902    2    1    2    0    0 -0.20547045062E-01  0.81268307096E-02 -0.71452326866E-02  0.10207075801E+01  0.10204433758E+01 0.  0.
     999903    2    3    3    0    0  0.11770154509E+00  0.37185766512E-01  0.30536841236E-01  0.12864422293E+00  0.19503909121E-01 0.  0.
         14    1    1    2    0    0  0.20547045062E-01 -0.81268307096E-02  0.71452326866E-02  0.23222419950E-01  0.00000000000E+00 0.  1.
     999901    1    3    3    0    0 -0.13824859016E+00 -0.29058935803E-01 -0.37682073923E-01  0.89206335712E+00  0.88000000000E+00 0.  1.
        -11    1    4    4    0    0  0.68044344305E-01  0.30246290443E-01  0.13450444050E-01  0.75670644530E-01  0.51100000000E-03 0.  1.
         11    1    4    4    0    0  0.49657200788E-01  0.69394760697E-02  0.17086397186E-01  0.52973578396E-01  0.51100000000E-03 0. -1.
</event>
<event>
 7    1  0.1103774E+005  0.1043930E+01  0.7957747E-01            NaN
         13   -1    0    0    0    0  0.00000000000E+00  0.00000000000E+00  0.74505805969E-08  0.10566000000E+00  0.10566000000E+00 0. -1.
     999900   -1    0    0    0    0 -0.00000000000E+00 -0.00000000000E+00 -0.74505805969E-08  0.93827000000E+00  0.93827000000E+00 0. -1.
     999903    2    1    2    0    0  0.74342931374E-01 -0.81043154739E-01 -0.27935724420E-01  0.11470366485E+00  0.16782778553E-01 0.  0.
         14    1    1    2    0    0  0.30094118442E-01  0.27222752291E-01 -0.44789301122E-02  0.40826401042E-01  0.00000000000E+00 0.  1.
     999901    1    1    2    0    0 -0.10443704982E+00  0.53820402448E-01  0.32414654532E-01  0.88839993411E+00  0.88000000000E+00 0.  1.
        -11    1    3    3    0    0  0.35611521439E-01 -0.38095906479E-01 -0.21872084685E-01  0.56551991646E-01  0.51100000000E-03 0.  1.
         11    1    3    3    0    0  0.38731409935E-01 -0.42947248260E-01 -0.60636397346E-02  0.58151673205E-01  0.51100000000E-03 0. -1.
</event>
<event>
 8    1  0.1103774E+005  0.1043930E+01  0.7957747E-01            NaN
         13   -1    0    0    0    0  0.00000000000E+00  0.00000000000E+00  0.74505805969E-08  0.10566000000E+00  0.10566000000E+00 0. -1.
     999900   -1    0    0    0    0 -0.00000000000E+00 -0.00000000000E+00 -0.74505805969E-08  0.93827000000E+00  0.93827000000E+00 0. -1.
     999902    2    1    2    0    0 -0.93202117490E-02 -0.18905221361E-01 -0.98571782419E-02  0.10206611860E+01  0.10203959128E+01 0.  0.
     999903    2    3    3    0    0 -0.11128198119E+00  0.27443605894E-01  0.59658135113E-01  0.13084278037E+00  0.20589056518E-01 0.  0.
         14    1    1    2    0    0  0.93202117490E-02  0.18905221361E-01  0.98571782419E-02  0.23268813993E-01  0.00000000000E+00 0. -1.
     999901    1    3    3    0    0  0.10196176944E+00 -0.46348827255E-01 -0.69515313354E-01  0.88981840563E+00  0.88000000000E+00 0. -1.
        -11    1    4    4    0    0 -0.46061475148E-01  0.51086964911E-02  0.33147517473E-01  0.56980499368E-01  0.51100000000E-03 0.  1.
         11    1    4    4    0    0 -0.65220506042E-01  0.22334909403E-01  0.26510617640E-01  0.73862281004E-01  0.51100000000E-03 0. -1.
</event>
<event>
 8    1  0.1103774E+005  0.1043930E+01  0.7957747E-01            NaN
         13   -1    0    0    0    0  0.00000000000E+00  0.00000000000E+00  0.74505805969E-08  0.10566000000E+00  0.10566000000E+00 0.  1.
     999900   -1    0    0    0    0 -0.00000000000E+00 -0.00000000000E+00 -0.74505805969E-08  0.93827000000E+00  0.93827000000E+00 0. -1.
     999902    2    1    2    0    0  0.18213636833E-01 -0.83578122873E-02 -0.11867092241E-01  0.10206401423E+01  0.10203743836E+01 0.  0.
     999903    2    3    3    0    0 -0.80062327943E-01 -0.49220268868E-02  0.98015003457E-01  0.12837109946E+00  0.20928343694E-01 0.  0.
         14    1    1    2    0    0 -0.18213636833E-01  0.83578122873E-02  0.11867092241E-01  0.23289857688E-01  0.00000000000E+00 0. -1.
     999901    1    3    3    0    0  0.98275964776E-01 -0.34357854005E-02 -0.10988209570E+00  0.89226904285E+00  0.88000000000E+00 0. -1.
        -11    1    4    4    0    0 -0.64324509341E-01 -0.24637799699E-02  0.63833765101E-01  0.90657175125E-01  0.51100000000E-03 0. -1.
         11    1    4    4    0    0 -0.15737818602E-01 -0.24582469169E-02  0.34181238356E-01  0.37713924336E-01  0.51100000000E-03 0.  1.
</event>
<event>
 8    1  0.1103774E+005  0.1043930E+01  0.7957747E-01            NaN
         13   -1    0    0    0    0  0.00000000000E+00  0.00000000000E+00  0.74505805969E-08  0.10566000000E+00  0.10566000000E+00 0.  1.
     999900   -1    0    0    0    0 -0.00000000000E+00 -0.00000000000E+00 -0.74505805969E-08  0.93827000000E+00  0.93827000000E+00 0.  1.
     999902    2    1    2    0    0 -0.16529293884E-01 -0.12329246500E-01 -0.11117774202E-01  0.10205028197E+01  0.10202338811E+01 0.  0.
     999903    2    3    3    0    0  0.85619393656E-01  0.85956179298E-01  0.35733812744E-01  0.12792820065E+00  0.19224302845E-01 0.  0.
         14    1    1    2    0    0  0.16529293884E-01  0.12329246500E-01  0.11117774202E-01  0.23427180342E-01  0.00000000000E+00 0.  1.
     999901    1    3    3    0    0 -0.10214868754E+00 -0.98285425797E-01 -0.46851586946E-01  0.89257461900E+00  0.88000000000E+00 0. -1.
        -11    1    4    4    0    0  0.33123238251E-01  0.46638780225E-01  0.18281692115E-01  0.60056690891E-01  0.51100000000E-03 0.  1.
         11    1    4    4    0    0  0.52496155405E-01  0.39317399072E-01  0.17452120629E-01  0.67871509764E-01  0.51100000000E-03 0. -1.
</event>
<event>
 8    1  0.1103774E+005  0.1043930E+01  0.7957747E-01            NaN
         13   -1    0    0    0    0  0.00000000000E+00  0.00000000000E+00  0.74505805969E-08  0.10566000000E+00  0.10566000000E+00 0. -1.
     999900   -1    0    0    0    0 -0.00000000000E+00 -0.00000000000E+00 -0.74505805969E-08  0.93827000000E+00  0.93827000000E+00 0.  1.
     999902    2    1    2    0    0  0.24174348124E-01 -0.44263509843E-02 -0.38788999310E-02  0.10190495347E+01  0.10187457566E+01 0.  0.
     999903    2    3    3    0    0  0.12277645989E+00 -0.11958805029E-01 -0.41142521203E-01  0.13272696823E+00  0.26583245183E-01 0.  0.
         14    1    1    2    0    0 -0.24174348124E-01  0.44263509843E-02  0.38788999310E-02  0.24880465328E-01  0.00000000000E+00 0.  1.
     999901    1    3    3    0    0 -0.98602111766E-01  0.75324540449E-02  0.37263621272E-01  0.88632256644E+00  0.88000000000E+00 0. -1.
        -11    1    4    4    0    0  0.62971378195E-01  0.68397583125E-02 -0.17405797102E-01  0.65691701601E-01  0.51100000000E-03 0. -1.
         11    1    4    4    0    0  0.59805081695E-01 -0.18798563342E-01 -0.23736724101E-01  0.67035266632E-01  0.51100000000E-03 0.  1.
</event>
<event>
 8    1  0.1103774E+005  0.1043930E+01  0.7957747E-01            NaN
         13   -1    0    0    0    0  0.00000000000E+00  0.00000000000E+00  0.74505805969E-08  0.10566000000E+00  0.10566000000E+00 0.  1.
     999900   -1    0    0    0    0 -0.00000000000E+00 -0.00000000000E+00 -0.74505805969E-08  0.93827000000E+00  0.93827000000E+00 0. -1.
     999902    2    1    2    0    0 -0.32686620204E-02  0.18178778660E-01 -0.16082995892E-01  0.10194388812E+01  0.10191446500E+01 0.  0.
     999903    2    3    3    0    0  0.10074144253E+00 -0.44155583690E-01  0.61915175977E-01  0.12770607960E+00  0.19411335231E-01 0.  0.
         14    1    1    2    0    0  0.32686620204E-02 -0.18178778660E-01  0.16082995892E-01  0.24491118836E-01  0.00000000000E+00 0. -1.
     999901    1    3    3    0    0 -0.10401010455E+00  0.62334362351E-01 -0.77998171869E-01  0.89173280157E+00  0.88000000000E+00 0. -1.
        -11    1    4    4    0    0  0.20522196313E-01 -0.17843917167E-01  0.13197168938E-01  0.30232305740E-01  0.51100000000E-03 0.  1.
         11    1    4    4    0    0  0.80219246217E-01 -0.26311666523E-01  0.48718007039E-01  0.97473773856E-01  0.51100000000E-03 0. -1.
</event>
<event>
 8    1  0.1103774E+005  0.1043930E+01  0.7957747E-01            NaN
         13   -1    0    0    0    0  0.00000000000E+00  0.00000000000E+00  0.74505805969E-08  0.10566000000E+00  0.10566000000E+00 0. -1.
     999900   -1    0    0    0    0 -0.00000000000E+00 -0.00000000000E+00 -0.74505805969E-08  0.93827000000E+00  0.93827000000E+00 0. -1.
     999902    2    1    2    0    0  0.21075684912E-01 -0.75911336374E-02 -0.77822719833E-02  0.10202155833E+01  0.10199399310E+01 0.  0.
     999903    2    3    3    0    0  0.94927695031E-01 -0.49395984353E-01  0.75146404181E-01  0.13225222237E+00  0.19810040538E-01 0.  0.
         14    1    1    2    0    0 -0.21075684912E-01  0.75911336374E-02  0.77822719833E-02  0.23714416747E-01  0.00000000000E+00 0.  1.
     999901    1    3    3    0    0 -0.73852010118E-01  0.41804850716E-01 -0.82928676165E-01  0.88796336088E+00  0.88000000000E+00 0. -1.
        -11    1    4    4    0    0  0.66021711903E-01 -0.25118706060E-01  0.43243981319E-01  0.82825834605E-01  0.51100000000E-03 0. -1.
         11    1    4    4    0    0  0.28905983128E-01 -0.24277278293E-01  0.31902422862E-01  0.49426387764E-01  0.51100000000E-03 0.  1.
</event>
<event>
 8    1  0.1103774E+005  0.1043930E+01  0.7957747E-01            NaN
         13   -1    0    0    0    0  0.00000000000E+00  0.00000000000E+00  0.74505805969E-08  0.10566000000E+00  0.10566000000E+00 0. -1.
     999900   -1    0    0    0    0 -0.00000000000E+00 -0.00000000000E+00 -0.74505805969E-08  0.93827000000E+00  0.93827000000E+00 0.  1.
     999902    2    1    2    0    0  0.18320931702E-01 -0.14158097232E-01  0.32455128325E-02  0.10205496320E+01  0.10202817796E+01 0.  0.
     999903    2    3    3    0    0 -0.83066670802E-01  0.23681266857E-01  0.94056130093E-01  0.12928208986E+00  0.20160083130E-01 0.  0.
         14    1    1    2    0    0 -0.18320931702E-01  0.14158097232E-01 -0.32455128325E-02  0.23380368030E-01  0.00000000000E+00 0.  1.
     999901    1    3    3    0    0  0.10138760250E+00 -0.37839364089E-01 -0.90810617260E-01  0.89126754211E+00  0.88000000000E+00 0.  1.
        -11    1    4    4    0    0 -0.48378554751E-01  0.99514036088E-02  0.66792475643E-01  0.83072323413E-01  0.51100000000E-03 0. -1.
         11    1    4    4    0    0 -0.34688116051E-01  0.13729863248E-01  0.27263654450E-01  0.46209766445E-01  0.51100000000E-03 0.  1.
</event>
<event>
 8    1  0.1103774E+005  0.1043930E+01  0.7957747E-01            NaN
         13   -1    0    0    0    0  0.00000000000E+00  0.00000000000E+00  0.74505805969E-08  0.10566000000E+00  0.10566000000E+00 0. -1.
     999900   -1    0    0    0    0 -0.00000000000E+00 -0.00000000000E+00 -0.74505805969E-08  0.93827000000E+00  0.93827000000E+00 0. -1.
     999902    2    1    2    0    0  0.88771201630E-02  0.12886406993E-01 -0.17580880750E-01  0.10203938551E+01  0.10201223797E+01 0.  0.
     999903    2    3    3    0    0 -0.49815734625E-01  0.71095702676E-01 -0.98362827552E-01  0.13283602814E+00  0.20831662774E-01 0.  0.
         14    1    1    2    0    0 -0.88771201630E-02 -0.12886406993E-01  0.17580880750E-01  0.23536144874E-01  0.00000000000E+00 0. -1.
     999901    1    3    3    0    0  0.58692854788E-01 -0.58209295683E-01  0.80781946803E-01  0.88755782698E+00  0.88000000000E+00 0.  1.
        -11    1    4    4    0    0 -0.25379238934E-01  0.37611977767E-01 -0.35863638865E-01  0.57837949082E-01  0.51100000000E-03 0.  1.
         11    1    4    4    0    0 -0.24436495691E-01  0.33483724909E-01 -0.62499188688E-01  0.74998079062E-01  0.51100000000E-03 0. -1.
</event>
<event>
 8    1  0.1103774E+005  0.1043930E+01  0.7957747E-01            NaN
         13   -1    0    0    0    0  0.00000000000E+00  0.00000000000E+00  0.74505805969E-08  0.10566000000E+00  0.10566000000E+00 0. -1.
     999900   -1    0    0    0    0 -0.00000000000E+00 -0.00000000000E+00 -0.74505805969E-08  0.93827000000E+00  0.93827000000E+00 0. -1.
     999902    2    1    2    0    0 -0.91169602187E-02  0.19900335522E-01  0.82503879730E-02  0.10205374538E+01  0.10202693190E+01 0.  0.
     999903    2    3    3    0    0  0.12763264501E+00 -0.62994108018E-02 -0.11249651951E-01  0.12937689989E+00  0.16794430803E-01 0.  0.
         14    1    1    2    0    0  0.91169602187E-02 -0.19900335522E-01 -0.82503879730E-02  0.23392546232E-01  0.00000000000E+00 0.  1.
     999901    1    3    3    0    0 -0.13674960523E+00  0.26199746324E-01  0.19500039924E-01  0.89116055388E+00  0.88000000000E+00 0.  1.
        -11    1    4    4    0    0  0.60031141279E-01 -0.36331293314E-02 -0.13671955068E-01  0.61677556926E-01  0.51100000000E-03 0.  1.
         11    1    4    4    0    0  0.67601503732E-01 -0.26662814704E-02  0.24223031178E-02  0.67699342959E-01  0.51100000000E-03 0. -1.
</event>
<event>
 8    1  0.1103774E+005  0.1043930E+01  0.7957747E-01            NaN
         13   -1    0    0    0    0  0.00000000000E+00  0.00000000000E+00  0.74505805969E-08  0.10566000000E+00  0.10566000000E+00 0.  1.
     999900   -1    0    0    0    0 -0.00000000000E+00 -0.00000000000E+00 -0.74505805969E-08  0.93827000000E+00  0.93827000000E+00 0.  1.
     999902    2    1    2    0    0  0.10878420693E-01  0.19056197141E-01 -0.71842343721E-02  0.10208412168E+01  0.10205800792E+01 0.  0.
     999903    2    3    3    0    0  0.12491759469E+00  0.25350788881E-01  0.30732102272E-01  0.13265080721E+00  0.20117320517E-01 0.  0.
         14    1    1    2    0    0 -0.10878420693E-01 -0.19056197141E-01  0.71842343721E-02  0.23088783202E-01  0.00000000000E+00 0.  1.
     999901    1    3    3    0    0 -0.11403917400E+00 -0.62945917398E-02 -0.37916336644E-01  0.88819040958E+00  0.88000000000E+00 0.  1.
        -11    1    4    4    0    0  0.34396753484E-01  0.12332388506E-01  0.16499371692E-01  0.40096319578E-01  0.51100000000E-03 0. -1.
         11    1    4    4    0    0  0.90520841205E-01  0.13018400374E-01  0.14232730580E-01  0.92554487636E-01  0.51100000000E-03 0.  1.
</event>
<event>
 8    1  0.1103774E+005  0.1043930E+01  0.7957747E-01            NaN
         13   -1    0    0    0    0  0.00000000000E+00  0.00000000000E+00  0.74505805969E-08  0.10566000000E+00  0.10566000000E+00 0. -1.
     999900   -1    0    0    0    0 -0.00000000000E+00 -0.00000000000E+00 -0.74505805969E-08  0.93827000000E+00  0.93827000000E+00 0.  1.
     999902    2    1    2    0    0  0.14213050620E-01 -0.70620875373E-02 -0.10227814188E-01  0.10250490024E+01  0.10248750974E+01 0.  0.
     999903    2    3    3    0    0  0.38274331467E-01  0.62301814269E-02  0.12674103886E+00  0.13402930767E+00  0.19920461170E-01 0.  0.
         14    1    1    2    0    0 -0.14213050620E-01  0.70620875373E-02  0.10227814188E-01  0.18880997626E-01  0.00000000000E+00 0.  1.
     999901    1    3    3    0    0 -0.24061280848E-01 -0.13292268964E-01 -0.13696885305E+00  0.89101969471E+00  0.88000000000E+00 0.  1.
        -11    1    4    4    0    0  0.32275577530E-01  0.30992571939E-02  0.73217995998E-01  0.80077801912E-01  0.51100000000E-03 0.  1.
         11    1    4    4    0    0  0.59987539372E-02  0.31309242329E-02  0.53523042859E-01  0.53951505755E-01  0.51100000000E-03 0. -1.
</event>
<event>
 8    1  0.1103774E+005  0.1043930E+01  0.7957747E-01            NaN
         13   -1    0    0    0    0  0.00000000000E+00  0.00000000000E+00  0.74505805969E-08  0.10566000000E+00  0.10566000000E+00 0.  1.
     999900   -1    0    0    0    0 -0.00000000000E+00 -0.00000000000E+00 -0.74505805969E-08  0.93827000000E+00  0.93827000000E+00 0. -1.
     999902    2    1    2    0    0  0.22203457055E-01  0.39121882352E-02 -0.76430014244E-02  0.10201242403E+01  0.10198464353E+01 0.  0.
     999903    2    3    3    0    0 -0.59209946517E-01  0.94073668556E-01 -0.64082682412E-01  0.12998791797E+00  0.20846960254E-01 0.  0.
         14    1    1    2    0    0 -0.22203457055E-01 -0.39121882352E-02  0.76430014244E-02  0.23805759655E-01  0.00000000000E+00 0. -1.
     999901    1    3    3    0    0  0.81413403572E-01 -0.90161480321E-01  0.56439680988E-01  0.89013632237E+00  0.88000000000E+00 0.  1.
        -11    1    4    4    0    0 -0.37884486114E-02  0.20908922508E-01 -0.13599266275E-01  0.25233639206E-01  0.51100000000E-03 0. -1.
         11    1    4    4    0    0 -0.55421497906E-01  0.73164746048E-01 -0.50483416137E-01  0.10475427877E+00  0.51100000000E-03 0.  1.
</event>
<event>
 8    1  0.1103774E+005  0.1043930E+01  0.7957747E-01            NaN
         13   -1    0    0    0    0  0.00000000000E+00  0.00000000000E+00  0.74505805969E-08  0.10566000000E+00  0.10566000000E+00 0. -1.
     999900   -1    0    0    0    0 -0.00000000000E+00 -0.00000000000E+00 -0.74505805969E-08  0.93827000000E+00  0.93827000000E+00 0. -1.
     999902    2    1    2    0    0  0.81124412526E-02  0.54401118043E-02  0.20229751175E-01  0.10214655981E+01  0.10212185460E+01 0.  0.
     999903    2    3    3    0    0 -0.28754397168E-01 -0.12141629349E+00  0.36296657408E-01  0.13146006059E+00  0.19888904242E-01 0.  0.
         14    1    1    2    0    0 -0.81124412526E-02 -0.54401118043E-02 -0.20229751175E-01  0.22464401887E-01  0.00000000000E+00 0.  1.
     999901    1    3    3    0    0  0.36866838421E-01  0.12685640529E+00 -0.16066906232E-01  0.89000553752E+00  0.88000000000E+00 0. -1.
        -11    1    4    4    0    0 -0.18365111292E-01 -0.83112193416E-01  0.15046830436E-01  0.86438314620E-01  0.51100000000E-03 0. -1.
         11    1    4    4    0    0 -0.10389285876E-01 -0.38304100071E-01  0.21249826972E-01  0.45021745974E-01  0.51100000000E-03 0.  1.
</event>
<event>
 8    1  0.1103774E+005  0.1043930E+01  0.7957747E-01            NaN
         13   -1    0    0    0    0  0.00000000000E+00  0.00000000000E+00  0.74505805969E-08  0.10566000000E+00  0.10566000000E+00 0.  1.
     999900   -1    0    0    0    0 -0.00000000000E+00 -0.00000000000E+00 -0.74505805969E-08  0.93827000000E+00  0.93827000000E+00 0.  1.
     999902    2    1    2    0    0  0.57772012463E-02  0.61166140152E-02  0.22355332133E-01  0.10200438137E+01  0.10197641060E+01 0.  0.
     999903    2    3    3    0    0 -0.93345256211E-01 -0.46211678690E-01 -0.71762769956E-01  0.12795540500E+00  0.19334797985E-01 0.  0.
         14    1    1    2    0    0 -0.57772012463E-02 -0.61166140152E-02 -0.22355332133E-01  0.23886186301E-01  0.00000000000E+00 0. -1.
     999901    1    3    3    0    0  0.99122457457E-01  0.52328292705E-01  0.94118102089E-01  0.89208840870E+00  0.88000000000E+00 0. -1.
        -11    1    4    4    0    0 -0.39802956946E-01 -0.11946098229E-01 -0.36192474769E-01  0.55110262161E-01  0.51100000000E-03 0.  1.
         11    1    4    4    0    0 -0.53542299264E-01 -0.34265580461E-01 -0.35570295187E-01  0.72845142841E-01  0.51100000000E-03 0. -1.
</event>
<event>
 8    1  0.1103774E+005  0.1043930E+01  0.7957747E-01            NaN
         13   -1    0    0    0    0  0.00000000000E+00  0.00000000000E+00  0.74505805969E-08  0.10566000000E+00  0.10566000000E+00 0.  1.
     999900   -1    0    0    0    0 -0.00000000000E+00 -0.00000000000E+00 -0.74505805969E-08  0.93827000000E+00  0.93827000000E+00 0.  1.
     999902    2    1    2    0    0  0.29420628165E-02 -0.22384868653E-01  0.99487729163E-02  0.10192578262E+01  0.10189591749E+01 0.  0.
     999903    2    3    3    0    0 -0.72942320959E-01 -0.60394706436E-01 -0.86621251009E-01  0.12991595885E+00  0.20169593100E-01 0.  0.
         14    1    1    2    0    0 -0.29420628165E-02  0.22384868653E-01 -0.99487729163E-02  0.24672173815E-01  0.00000000000E+00 0.  1.
     999901    1    3    3    0    0  0.75884383776E-01  0.38009837784E-01  0.96570023925E-01  0.88934186733E+00  0.88000000000E+00 0. -1.
        -11    1    4    4    0    0 -0.12631476005E-01 -0.12255886704E-01 -0.67539697371E-02  0.18858371435E-01  0.51100000000E-03 0.  1.
         11    1    4    4    0    0 -0.60310844955E-01 -0.48138819732E-01 -0.79867281272E-01  0.11105758742E+00  0.51100000000E-03 0. -1.
</event>
<event>
 8    1  0.1103774E+005  0.1043930E+01  0.7957747E-01            NaN
         13   -1    0    0    0    0  0.00000000000E+00  0.00000000000E+00  0.74505805969E-08  0.10566000000E+00  0.10566000000E+00 0.  1.
     999900   -1    0    0    0    0 -0.00000000000E+00 -0.00000000000E+00 -0.74505805969E-08  0.93827000000E+00  0.93827000000E+00 0.  1.
     999902    2    1    2    0    0  0.22180381799E-01 -0.83190141881E-02  0.26828257871E-02  0.10200894277E+01  0.10198107999E+01 0.  0.
     999903    2    3    3    0    0 -0.62050836301E-01  0.87537117803E-01  0.67629035192E-01  0.12851704910E+00  0.20733842637E-01 0.  0.
         14    1    1    2    0    0 -0.22180381799E-01  0.83190141881E-02 -0.26828257871E-02  0.23840572309E-01  0.00000000000E+00 0. -1.
     999901    1    3    3    0    0  0.84231218100E-01 -0.95856131992E-01 -0.64946209405E-01  0.89157237859E+00  0.88000000000E+00 0. -1.
        -11    1    4    4    0    0 -0.58103564903E-02  0.75614199682E-02 -0.14706650566E-03  0.95508148362E-02  0.51100000000E-03 0. -1.
         11    1    4    4    0    0 -0.56240479811E-01  0.79975697835E-01  0.67776101698E-01  0.11896623427E+00  0.51100000000E-03 0.  1.
</event>
<event>
 8    1  0.1103774E+005  0.1043930E+01  0.7957747E-01            NaN
         13   -1    0    0    0    0  0.00000000000E+00  0.00000000000E+00  0.74505805969E-08  0.10566000000E+00  0.10566000000E+00 0. -1.
     999900   -1    0    0    0    0 -0.00000000000E+00 -0.00000000000E+00 -0.74505805969E-08  0.93827000000E+00  0.93827000000E+00 0.  1.
     999902    2    1    2    0    0  0.14490740762E-01  0.62127406836E-02 -0.17015308348E-01  0.10207330081E+01  0.10204693888E+01 0.  0.
     999903    2    3    3    0    0 -0.12646710213E+00  0.17895529232E-01  0.31904440927E-02  0.12920966380E+00  0.19255658801E-01 0.  0.
         14    1    1    2    0    0 -0.14490740762E-01 -0.62127406836E-02  0.17015308348E-01  0.23196991892E-01  0.00000000000E+00 0. -1.
     999901    1    3    3    0    0  0.14095784290E+00 -0.11682788548E-01 -0.20205752441E-01  0.89152334431E+00  0.88000000000E+00 0.  1.
        -11    1    4    4    0    0 -0.36503673584E-01  0.64213858031E-02  0.95974313438E-02  0.38290001178E-01  0.51100000000E-03 0.  1.
         11    1    4    4    0    0 -0.89963428550E-01  0.11474143429E-01 -0.64069872511E-02  0.90919662618E-01  0.51100000000E-03 0. -1.
</event>
<event>
 8    1  0.1103774E+005  0.1043930E+01  0.7957747E-01            NaN
         13   -1    0    0    0    0  0.00000000000E+00  0.00000000000E+00  0.74505805969E-08  0.10566000000E+00  0.10566000000E+00 0. -1.
     999900   -1    0    0    0    0 -0.00000000000E+00 -0.00000000000E+00 -0.74505805969E-08  0.93827000000E+00  0.93827000000E+00 0. -1.
     999902    2    1    2    0    0  0.12685472228E-01  0.44007149201E-02  0.16278563232E-01  0.10228283622E+01  0.10226106685E+01 0.  0.
     999903    2    3    3    0    0 -0.33619020971E-01 -0.48449240911E-02 -0.12430833172E+00  0.13041911584E+00  0.20071686099E-01 0.  0.
         14    1    1    2    0    0 -0.12685472228E-01 -0.44007149201E-02 -0.16278563232E-01  0.21101637812E-01  0.00000000000E+00 0. -1.
     999901    1    3    3    0    0  0.46304493199E-01  0.92456390112E-02  0.14058689495E+00  0.89240924635E+00  0.88000000000E+00 0.  1.
        -11    1    4    4    0    0 -0.16116986288E-01 -0.12215342717E-01 -0.57109040870E-01  0.60586100013E-01  0.51100000000E-03 0. -1.
         11    1    4    4    0    0 -0.17502034683E-01  0.73704186255E-02 -0.67199290846E-01  0.69833015830E-01  0.51100000000E-03 0.  1.
</event>
<event>
 8    1  0.1103774E+005  0.1043930E+01  0.7957747E-01            NaN
         13   -1    0    0    0    0  0.00000000000E+00  0.00000000000E+00  0.74505805969E-08  0.10566000000E+00  0.10566000000E+00 0. -1.
     999900   -1    0    0    0    0 -0.00000000000E+00 -0.00000000000E+00 -0.74505805969E-08  0.93827000000E+00  0.93827000000E+00 0. -1.
     999902    2    1    2    0    0 -0.19019849676E-01 -0.54763815511E-02  0.12903862269E-01  0.10203025774E+01  0.10200289674E+01 0.  0.
     999903    2    3    3    0    0 -0.10496096608E+00 -0.77102368892E-01  0.19526368345E-01  0.13319490912E+00  0.19950565552E-01 0.  0.
         14    1    1    2    0    0  0.19019849676E-01  0.54763815511E-02 -0.12903862269E-01  0.23627422586E-01  0.00000000000E+00 0.  1.
     999901    1    3    3    0    0  0.85941116407E-01  0.71625987341E-01 -0.66225060761E-02  0.88710766829E+00  0.88000000000E+00 0. -1.
        -11    1    4    4    0    0 -0.62866342557E-01 -0.36737781702E-01  0.44295796161E-02  0.72950146864E-01  0.51100000000E-03 0. -1.
         11    1    4    4    0    0 -0.42094623527E-01 -0.40364587190E-01  0.15096788729E-01  0.60244762260E-01  0.51100000000E-03 0.  1.
</event>
<event>
 8    1  0.1103774E+005  0.1043930E+01  0.7957747E-01            NaN
         13   -1    0    0    0    0  0.00000000000E+00  0.00000000000E+00  0.74505805969E-08  0.10566000000E+00  0.10566000000E+00 0. -1.
     999900   -1    0    0    0    0 -0.00000000000E+00 -0.00000000000E+00 -0.74505805969E-08  0.93827000000E+00  0.93827000000E+00 0.  1.
     999902    2    1    2    0    0  0.28713675899E-02  0.29926516789E-03 -0.23669454170E-01  0.10200851395E+01  0.10198064103E+01 0.  0.
     999903    2    3    3    0    0  0.21720822142E-01 -0.73043342162E-01 -0.10696561742E+00  0.13291396616E+00  0.20429271703E-01 0.  0.
         14    1    1    2    0    0 -0.28713675899E-02 -0.29926516789E-03  0.23669454170E-01  0.23844860499E-01  0.00000000000E+00 0. -1.
     999901    1    3    3    0    0 -0.18849454553E-01  0.73342607330E-01  0.83296163252E-01  0.88717117334E+00  0.88000000000E+00 0. -1.
        -11    1    4    4    0    0  0.84558176892E-02 -0.15497794513E-01 -0.12998273762E-01  0.21929403306E-01  0.51100000000E-03 0.  1.
         11    1    4    4    0    0  0.13265004453E-01 -0.57545547650E-01 -0.93967343661E-01  0.11098456286E+00  0.51100000000E-03 0. -1.
</event>
<event>
 8    1  0.1103774E+005  0.1043930E+01  0.7957747E-01            NaN
         13   -1    0    0    0    0  0.00000000000E+00  0.00000000000E+00  0.74505805969E-08  0.10566000000E+00  0.10566000000E+00 0. -1.
     999900   -1    0    0    0    0 -0.00000000000E+00 -0.00000000000E+00 -0.74505805969E-08  0.93827000000E+00  0.93827000000E+00 0.  1.
     999902    2    1    2    0    0 -0.18492917935E-01 -0.14053777257E-01  0.39587771174E-02  0.10203679843E+01  0.10200959047E+01 0.  0.
     999903    2    3    3    0    0 -0.16462782708E-01  0.11828588751E+00 -0.44961392247E-01  0.12912666381E+00  0.19738138638E-01 0.  0.
         14    1    1    2    0    0  0.18492917935E-01  0.14053777257E-01 -0.39587771174E-02  0.23562015729E-01  0.00000000000E+00 0.  1.
     999901    1    3    3    0    0 -0.20301352268E-02 -0.13233966477E+00  0.48920169364E-01  0.89124132046E+00  0.88000000000E+00 0.  1.
        -11    1    4    4    0    0 -0.10015171881E-01  0.94332286060E-01 -0.27441663235E-01  0.98753176471E-01  0.51100000000E-03 0. -1.
         11    1    4    4    0    0 -0.64476108270E-02  0.23953601449E-01 -0.17519729011E-01  0.30373487343E-01  0.51100000000E-03 0.  1.
</event>
<event>
 8    1  0.1103774E+005  0.1043930E+01  0.7957747E-01            NaN
         13   -1    0    0    0    0  0.00000000000E+00  0.00000000000E+00  0.74505805969E-08  0.10566000000E+00  0.10566000000E+00 0.  1.
     999900   -1    0    0    0    0 -0.00000000000E+00 -0.00000000000E+00 -0.74505805969E-08  0.93827000000E+00  0.93827000000E+00 0.  1.
     999902    2    1    2    0    0  0.92663599990E-02 -0.25764607735E-01 -0.58486006622E-02  0.10159320256E+01  0.10155461556E+01 0.  0.
     999903    2    3    3    0    0  0.12453501239E+00 -0.22614591510E-01 -0.60866851294E-02  0.12840915746E+00  0.20771974524E-01 0.  0.
         14    1    1    2    0    0 -0.92663599990E-02  0.25764607735E-01  0.58486006622E-02  0.27997974375E-01  0.00000000000E+00 0.  1.
     999901    1    3    3    0    0 -0.11526865239E+00 -0.31500162255E-02  0.23808446721E-03  0.88752286816E+00  0.88000000000E+00 0. -1.
        -11    1    4    4    0    0  0.65896906106E-01 -0.41970855012E-02 -0.10161383027E-01  0.66809674353E-01  0.51100000000E-03 0.  1.
         11    1    4    4    0    0  0.58638106280E-01 -0.18417506009E-01  0.40746978974E-02  0.61599483111E-01  0.51100000000E-03 0. -1.
</event>
<event>
 8    1  0.1103774E+005  0.1043930E+01  0.7957747E-01            NaN
         13   -1    0    0    0    0  0.00000000000E+00  0.00000000000E+00  0.74505805969E-08  0.10566000000E+00  0.10566000000E+00 0. -1.
     999900   -1    0    0    0    0 -0.00000000000E+00 -0.00000000000E+00 -0.74505805969E-08  0.93827000000E+00  0.93827000000E+00 0. -1.
     999902    2    1    2    0    0  0.96692946863E-02  0.13859627834E-01 -0.16981162056E-01  0.10199728631E+01  0.10196914715E+01 0.  0.
     999903    2    3    3    0    0 -0.46970878674E-01  0.10438420109E+00  0.59363844596E-01  0.13023617866E+00  0.18304953047E-01 0.  0.
         14    1    1    2    0    0 -0.96692946863E-02 -0.13859627834E-01  0.16981162056E-01  0.23957136895E-01  0.00000000000E+00 0. -1.
     999901    1    3    3    0    0  0.56640173361E-01 -0.90524573260E-01 -0.76345006652E-01  0.88973668444E+00  0.88000000000E+00 0. -1.
        -11    1    4    4    0    0 -0.10002680363E-01  0.43401584080E-01  0.20744867237E-01  0.49136155250E-01  0.51100000000E-03 0. -1.
         11    1    4    4    0    0 -0.36968198312E-01  0.60982617013E-01  0.38618977359E-01  0.81100023412E-01  0.51100000000E-03 0.  1.
</event>
<event>
 8    1  0.1103774E+005  0.1043930E+01  0.7957747E-01            NaN
         13   -1    0    0    0    0  0.00000000000E+00  0.00000000000E+00  0.74505805969E-08  0.10566000000E+00  0.10566000000E+00 0. -1.
     999900   -1    0    0    0    0 -0.00000000000E+00 -0.00000000000E+00 -0.74505805969E-08  0.93827000000E+00  0.93827000000E+00 0.  1.
     999902    2    1    2    0    0  0.70092434463E-02  0.16412052310E-01  0.15414980078E-01  0.10203480882E+01  0.10200755435E+01 0.  0.
     999903    2    3    3    0    0 -0.24673103205E-02 -0.76627984999E-01  0.10370567744E+00  0.13099916854E+00  0.22977791877E-01 0.  0.
         14    1    1    2    0    0 -0.70092434463E-02 -0.16412052310E-01 -0.15414980078E-01  0.23581911830E-01  0.00000000000E+00 0.  1.
     999901    1    3    3    0    0  0.94765537668E-02  0.93040037310E-01 -0.88290697358E-01  0.88934891963E+00  0.88000000000E+00 0.  1.
        -11    1    4    4    0    0 -0.50399723679E-02 -0.51072214285E-01  0.50936597327E-01  0.72308854656E-01  0.51100000000E-03 0. -1.
         11    1    4    4    0    0  0.25726620475E-02 -0.25555770714E-01  0.52769080109E-01  0.58690313880E-01  0.51100000000E-03 0.  1.
</event>
<event>
 8    1  0.1103774E+005  0.1043930E+01  0.7957747E-01            NaN
         13   -1    0    0    0    0  0.00000000000E+00  0.00000000000E+00  0.74505805969E-08  0.10566000000E+00  0.10566000000E+00 0.  1.
     999900   -1    0    0    0    0 -0.00000000000E+00 -0.00000000000E+00 -0.74505805969E-08  0.93827000000E+00  0.93827000000E+00 0. -1.
     999902    2    1    2    0    0 -0.21234118172E-01  0.10180299550E-01  0.74526746244E-02  0.10192304325E+01  0.10189311095E+01 0.  0.
     999903    2    3    3    0    0 -0.10918341029E+00 -0.31751831864E-01  0.63950168157E-01  0.13205212555E+00  0.20468120237E-01 0.  0.
         14    1    1    2    0    0  0.21234118172E-01 -0.10180299550E-01 -0.74526746244E-02  0.24699567456E-01  0.00000000000E+00 0. -1.
     999901    1    3    3    0    0  0.87949292115E-01  0.41932131414E-01 -0.56497493532E-01  0.88717830700E+00  0.88000000000E+00 0. -1.
        -11    1    4    4    0    0 -0.16101062510E-02  0.11024652535E-02 -0.90869571739E-03  0.22124015643E-02  0.51100000000E-03 0. -1.
         11    1    4    4    0    0 -0.10757330404E+00 -0.32854297118E-01  0.64858863874E-01  0.12983972398E+00  0.51100000000E-03 0.  1.
</event>
<event>
 8    1  0.1103774E+005  0.1043930E+01  0.7957747E-01            NaN
         13   -1    0    0    0    0  0.00000000000E+00  0.00000000000E+00  0.74505805969E-08  0.10566000000E+00  0.10566000000E+00 0. -1.
     999900   -1    0    0    0    0 -0.00000000000E+00 -0.00000000000E+00 -0.74505805969E-08  0.93827000000E+00  0.93827000000E+00 0. -1.
     999902    2    1    2    0    0 -0.15006700422E-01  0.57173370568E-03 -0.18514724229E-01  0.10200904750E+01  0.10198118720E+01 0.  0.
     999903    2    3    3    0    0  0.73366604484E-01  0.48747195817E-01  0.90777382338E-01  0.12763572508E+00  0.17070366698E-01 0.  0.
         14    1    1    2    0    0  0.15006700422E-01 -0.57173370568E-03  0.18514724229E-01  0.23839524959E-01  0.00000000000E+00 0. -1.
     999901    1    3    3    0    0 -0.88373304906E-01 -0.48175462111E-01 -0.10929210657E+00  0.89245474996E+00  0.88000000000E+00 0. -1.
        -11    1    4    4    0    0  0.52230478690E-02  0.46968791135E-02  0.15178835432E-01  0.16733172698E-01  0.51100000000E-03 0.  1.
         11    1    4    4    0    0  0.68143556615E-01  0.44050316704E-01  0.75598546905E-01  0.11090255238E+00  0.51100000000E-03 0. -1.
</event>
<event>
 8    1  0.1103774E+005  0.1043930E+01  0.7957747E-01            NaN
         13   -1    0    0    0    0  0.00000000000E+00  0.00000000000E+00  0.74505805969E-08  0.10566000000E+00  0.10566000000E+00 0. -1.
     999900   -1    0    0    0    0 -0.00000000000E+00 -0.00000000000E+00 -0.74505805969E-08  0.93827000000E+00  0.93827000000E+00 0.  1.
     999902    2    1    2    0    0  0.15502200649E-01 -0.17278711692E-01  0.42479980649E-02  0.10203308985E+01  0.10200579517E+01 0.  0.
     999903    2    3    3    0    0  0.38008203364E-01  0.57327637829E-01  0.10926545484E+00  0.13066731392E+00  0.20097903489E-01 0.  0.
         14    1    1    2    0    0 -0.15502200649E-01  0.17278711692E-01 -0.42479980649E-02  0.23599101471E-01  0.00000000000E+00 0.  1.
     999901    1    3    3    0    0 -0.22506002715E-01 -0.74606349520E-01 -0.10501745677E+00  0.88966358461E+00  0.88000000000E+00 0.  1.
        -11    1    4    4    0    0  0.66994736830E-02  0.73314632695E-02  0.56559796412E-02  0.11440477613E-01  0.51100000000E-03 0. -1.
         11    1    4    4    0    0  0.31308729681E-01  0.49996174559E-01  0.10360947520E+00  0.11922683631E+00  0.51100000000E-03 0.  1.
</event>
<event>
 8    1  0.1103774E+005  0.1043930E+01  0.7957747E-01            NaN
         13   -1    0    0    0    0  0.00000000000E+00  0.00000000000E+00  0.74505805969E-08  0.10566000000E+00  0.10566000000E+00 0. -1.
     999900   -1    0    0    0    0 -0.00000000000E+00 -0.00000000000E+00 -0.74505805969E-08  0.93827000000E+00  0.93827000000E+00 0.  1.
     999902    2    1    2    0    0 -0.14012630721E-01  0.13531860025E-01  0.14040437298E-01  0.10199175254E+01  0.10196348169E+01 0.  0.
     999903    2    3    3    0    0  0.12284039396E+00  0.32072863299E-01 -0.84353734897E-02  0.12886327274E+00  0.20399916325E-01 0.  0.
         14    1    1    2    0    0  0.14012630721E-01 -0.13531860025E-01 -0.14040437298E-01  0.24012474570E-01  0.00000000000E+00 0.  1.
     999901    1    3    3    0    0 -0.13685302468E+00 -0.18541003275E-01  0.22475810787E-01  0.89105425269E+00  0.88000000000E+00 0. -1.
        -11    1    4    4    0    0  0.59940954610E-01  0.72800373534E-02  0.21841832726E-02  0.60423081360E-01  0.51100000000E-03 0. -1.
         11    1    4    4    0    0  0.62899439352E-01  0.24792825946E-01 -0.10619556762E-01  0.68440191379E-01  0.51100000000E-03 0.  1.
</event>
<event>
 8    1  0.1103774E+005  0.1043930E+01  0.7957747E-01            NaN
         13   -1    0    0    0    0  0.00000000000E+00  0.00000000000E+00  0.74505805969E-08  0.10566000000E+00  0.10566000000E+00 0. -1.
     999900   -1    0    0    0    0 -0.00000000000E+00 -0.00000000000E+00 -0.74505805969E-08  0.93827000000E+00  0.93827000000E+00 0. -1.
     999902    2    1    2    0    0  0.42052119119E-02  0.38472901872E-02 -0.23227595219E-01  0.10200133399E+01  0.10197329096E+01 0.  0.
     999903    2    3    3    0    0  0.33706804097E-01 -0.80393096592E-01 -0.97684700730E-01  0.13237002910E+00  0.19501928765E-01 0.  0.
         14    1    1    2    0    0 -0.42052119119E-02 -0.38472901872E-02  0.23227595219E-01  0.23916660065E-01  0.00000000000E+00 0. -1.
     999901    1    3    3    0    0 -0.29501592186E-01  0.84240386780E-01  0.74457105511E-01  0.88764331083E+00  0.88000000000E+00 0.  1.
        -11    1    4    4    0    0  0.18918077726E-01 -0.43849721426E-01 -0.67637551006E-01  0.82799705079E-01  0.51100000000E-03 0. -1.
         11    1    4    4    0    0  0.14788726372E-01 -0.36543375166E-01 -0.30047149723E-01  0.49570324023E-01  0.51100000000E-03 0.  1.
</event>
<event>
 8    1  0.1103774E+005  0.1043930E+01  0.7957747E-01            NaN
         13   -1    0    0    0    0  0.00000000000E+00  0.00000000000E+00  0.74505805969E-08  0.10566000000E+00  0.10566000000E+00 0. -1.
     999900   -1    0    0    0    0 -0.00000000000E+00 -0.00000000000E+00 -0.74505805969E-08  0.93827000000E+00  0.93827000000E+00 0. -1.
     999902    2    1    2    0    0 -0.34477404432E-02 -0.18924916339E-01  0.15474488796E-01  0.10192419629E+01  0.10189429227E+01 0.  0.
     999903    2    3    3    0    0 -0.11841769978E+00  0.47404496436E-01 -0.49405088788E-02  0.12905408684E+00  0.18989755088E-01 0.  0.
         14    1    1    2    0    0  0.34477404432E-02  0.18924916339E-01 -0.15474488796E-01  0.24688037105E-01  0.00000000000E+00 0.  1.
     999901    1    3    3    0    0  0.11496995934E+00 -0.66329412775E-01  0.20414997675E-01  0.89018787606E+00  0.88000000000E+00 0.  1.
        -11    1    4    4    0    0 -0.81585632728E-01  0.34783475613E-01 -0.11938523366E-01  0.89492430432E-01  0.51100000000E-03 0. -1.
         11    1    4    4    0    0 -0.36832067050E-01  0.12621020823E-01  0.69980144874E-02  0.39561656406E-01  0.51100000000E-03 0.  1.
</event>
<event>
 8    1  0.1103774E+005  0.1043930E+01  0.7957747E-01            NaN
         13   -1    0    0    0    0  0.00000000000E+00  0.00000000000E+00  0.74505805969E-08  0.10566000000E+00  0.10566000000E+00 0.  1.
     999900   -1    0    0    0    0 -0.00000000000E+00 -0.00000000000E+00 -0.74505805969E-08  0.93827000000E+00  0.93827000000E+00 0.  1.
     999902    2    1    2    0    0  0.10433933571E-01  0.83893345462E-02 -0.18482990741E-01  0.10211074486E+01  0.10208523658E+01 0.  0.
     999903    2    3    3    0    0  0.37818459033E-01 -0.12343281468E+00 -0.25578319393E-02  0.13072517010E+00  0.20411565570E-01 0.  0.
         14    1    1    2    0    0 -0.10433933571E-01 -0.83893345462E-02  0.18482990741E-01  0.22822551361E-01  0.00000000000E+00 0.  1.
     999901    1    3    3    0    0 -0.27384525463E-01  0.13182214923E+00 -0.15925158802E-01  0.89038227854E+00  0.88000000000E+00 0.  1.
        -11    1    4    4    0    0  0.24788597519E-01 -0.50086114187E-01  0.34012886827E-02  0.55990385666E-01  0.51100000000E-03 0.  1.
         11    1    4    4    0    0  0.13029861514E-01 -0.73346700492E-01 -0.59591206221E-02  0.74734784429E-01  0.51100000000E-03 0. -1.
</event>
<event>
 8    1  0.1103774E+005  0.1043930E+01  0.7957747E-01            NaN
         13   -1    0    0    0    0  0.00000000000E+00  0.00000000000E+00  0.74505805969E-08  0.10566000000E+00  0.10566000000E+00 0. -1.
     999900   -1    0    0    0    0 -0.00000000000E+00 -0.00000000000E+00 -0.74505805969E-08  0.93827000000E+00  0.93827000000E+00 0.  1.
     999902    2    1    2    0    0 -0.18582480091E-01 -0.47068848230E-02  0.14366944333E-01  0.10199743656E+01  0.10196930097E+01 0.  0.
     999903    2    3    3    0    0  0.20945164363E-01 -0.10220485016E+00  0.77358859166E-01  0.13147210376E+00  0.20395824830E-01 0.  0.
         14    1    1    2    0    0  0.18582480091E-01  0.47068848230E-02 -0.14366944333E-01  0.23955634422E-01  0.00000000000E+00 0.  1.
     999901    1    3    3    0    0 -0.39527644454E-01  0.97497965332E-01 -0.62991914833E-01  0.88850226182E+00  0.88000000000E+00 0.  1.
        -11    1    4    4    0    0  0.14029534154E-01 -0.78672474940E-01  0.68917634470E-01  0.10552766274E+00  0.51100000000E-03 0.  1.
         11    1    4    4    0    0  0.69156302084E-02 -0.23532375215E-01  0.84412246958E-02  0.25944441019E-01  0.51100000000E-03 0. -1.
</event>
<event>
 8    1  0.1103774E+005  0.1043930E+01  0.7957747E-01            NaN
         13   -1    0    0    0    0  0.00000000000E+00  0.00000000000E+00  0.74505805969E-08  0.10566000000E+00  0.10566000000E+00 0. -1.
     999900   -1    0    0    0    0 -0.00000000000E+00 -0.00000000000E+00 -0.74505805969E-08  0.93827000000E+00  0.93827000000E+00 0.  1.
     999902    2    1    2    0    0 -0.28002228742E-01  0.72709056310E-02  0.41144566133E-02  0.10147080966E+01  0.10142872383E+01 0.  0.
     999903    2    3    3    0    0 -0.60300562677E-01 -0.83335110026E-01  0.71983428855E-01  0.12686867993E+00  0.18252383305E-01 0.  0.
         14    1    1    2    0    0  0.28002228742E-01 -0.72709056310E-02 -0.41144566133E-02  0.29221903368E-01  0.00000000000E+00 0. -1.
     999901    1    3    3    0    0  0.32298333934E-01  0.90606015657E-01 -0.67868972242E-01  0.88783941670E+00  0.88000000000E+00 0.  1.
        -11    1    4    4    0    0 -0.34402675515E-01 -0.48030389355E-01  0.30239813007E-01  0.66371453170E-01  0.51100000000E-03 0. -1.
         11    1    4    4    0    0 -0.25897887162E-01 -0.35304720671E-01  0.41743615848E-01  0.60497226764E-01  0.51100000000E-03 0.  1.
</event>
<event>
 8    1  0.1103774E+005  0.1043930E+01  0.7957747E-01            NaN
         13   -1    0    0    0    0  0.00000000000E+00  0.00000000000E+00  0.74505805969E-08  0.10566000000E+00  0.10566000000E+00 0.  1.
     999900   -1    0    0    0    0 -0.00000000000E+00 -0.00000000000E+00 -0.74505805969E-08  0.93827000000E+00  0.93827000000E+00 0. -1.
     999902    2    1    2    0    0 -0.45700074848E-02  0.19130010742E-01  0.11355176198E-01  0.10212191588E+01  0.10209665950E+01 0.  0.
     999903    2    3    3    0    0  0.80245831764E-01  0.72571299871E-01  0.75199087104E-01  0.13322943879E+00  0.19727989704E-01 0.  0.
         14    1    1    2    0    0  0.45700074848E-02 -0.19130010742E-01 -0.11355176198E-01  0.22710841154E-01  0.00000000000E+00 0. -1.
     999901    1    3    3    0    0 -0.84815839249E-01 -0.53441289129E-01 -0.63843910905E-01  0.88798972006E+00  0.88000000000E+00 0. -1.
        -11    1    4    4    0    0  0.18369292214E-01  0.96357102025E-02  0.21685639376E-01  0.30013428390E-01  0.51100000000E-03 0.  1.
         11    1    4    4    0    0  0.61876539550E-01  0.62935589669E-01  0.53513447728E-01  0.10321601040E+00  0.51100000000E-03 0. -1.
</event>
<event>
 8    1  0.1103774E+005  0.1043930E+01  0.7957747E-01            NaN
         13   -1    0    0    0    0  0.00000000000E+00  0.00000000000E+00  0.74505805969E-08  0.10566000000E+00  0.10566000000E+00 0.  1.
     999900   -1    0    0    0    0 -0.00000000000E+00 -0.00000000000E+00 -0.74505805969E-08  0.93827000000E+00  0.93827000000E+00 0. -1.
     999902    2    1    2    0    0  0.16571339692E-01 -0.16187145512E-01  0.33552063551E-02  0.10205229415E+01  0.10202544701E+01 0.  0.
     999903    2    3    3    0    0  0.67026862526E-01  0.75894680120E-01  0.80732132683E-01  0.13090953604E+00  0.19157938546E-01 0.  0.
         14    1    1    2    0    0 -0.16571339692E-01  0.16187145512E-01 -0.33552063551E-02  0.23407058524E-01  0.00000000000E+00 0.  1.
     999901    1    3    3    0    0 -0.50455522834E-01 -0.92081825632E-01 -0.77376926327E-01  0.88961340543E+00  0.88000000000E+00 0. -1.
        -11    1    4    4    0    0  0.58714266382E-01  0.69854989770E-01  0.78521897981E-01  0.12038701864E+00  0.51100000000E-03 0.  1.
         11    1    4    4    0    0  0.83125961446E-02  0.60396903498E-02  0.22102347020E-02  0.10522517409E-01  0.51100000000E-03 0. -1.
</event>
<event>
 8    1  0.1103774E+005  0.1043930E+01  0.7957747E-01            NaN
         13   -1    0    0    0    0  0.00000000000E+00  0.00000000000E+00  0.74505805969E-08  0.10566000000E+00  0.10566000000E+00 0.  1.
     999900   -1    0    0    0    0 -0.00000000000E+00 -0.00000000000E+00 -0.74505805969E-08  0.93827000000E+00  0.93827000000E+00 0. -1.
     999902    2    1    2    0    0 -0.65078948747E-02  0.22947791156E-01 -0.10215620885E-02  0.10200553816E+01  0.10197759480E+01 0.  0.
     999903    2    3    3    0    0 -0.92578275497E-01  0.90238822835E-02  0.90111416896E-01  0.13106314006E+00  0.20132354105E-01 0.  0.
         14    1    1    2    0    0  0.65078948747E-02 -0.22947791156E-01  0.10215620885E-02  0.23874618400E-01  0.00000000000E+00 0.  1.
     999901    1    3    3    0    0  0.86070380622E-01  0.13923908873E-01 -0.91132978985E-01  0.88899224154E+00  0.88000000000E+00 0. -1.
        -11    1    4    4    0    0 -0.51340089837E-01  0.19993204833E-02  0.36338168379E-01  0.62932707783E-01  0.51100000000E-03 0. -1.
         11    1    4    4    0    0 -0.41238185661E-01  0.70245618002E-02  0.53773248518E-01  0.68130432277E-01  0.51100000000E-03 0.  1.
</event>
<event>
 8    1  0.1103774E+005  0.1043930E+01  0.7957747E-01            NaN
         13   -1    0    0    0    0  0.00000000000E+00  0.00000000000E+00  0.74505805969E-08  0.10566000000E+00  0.10566000000E+00 0.  1.
     999900   -1    0    0    0    0 -0.00000000000E+00 -0.00000000000E+00 -0.74505805969E-08  0.93827000000E+00  0.93827000000E+00 0.  1.
     999902    2    1    2    0    0  0.22471364008E-01  0.84928036616E-02 -0.29071774670E-02  0.10197320332E+01  0.10194448872E+01 0.  0.
     999903    2    3    3    0    0 -0.10802241698E+00  0.12068788529E-01 -0.64714119399E-01  0.12795767130E+00  0.19254873885E-01 0.  0.
         14    1    1    2    0    0 -0.22471364008E-01 -0.84928036616E-02  0.29071774670E-02  0.24197966758E-01  0.00000000000E+00 0.  1.
     999901    1    3    3    0    0  0.13049378099E+00 -0.35759848676E-02  0.61806941932E-01  0.89177436194E+00  0.88000000000E+00 0. -1.
        -11    1    4    4    0    0 -0.58702639404E-01  0.74217399200E-02 -0.46194313515E-01  0.75068354309E-01  0.51100000000E-03 0. -1.
         11    1    4    4    0    0 -0.49319777576E-01  0.46470486092E-02 -0.18519805884E-01  0.52889316992E-01  0.51100000000E-03 0.  1.
</event>
<event>
 8    1  0.1103774E+005  0.1043930E+01  0.7957747E-01            NaN
         13   -1    0    0    0    0  0.00000000000E+00  0.00000000000E+00  0.74505805969E-08  0.10566000000E+00  0.10566000000E+00 0. -1.
     999900   -1    0    0    0    0 -0.00000000000E+00 -0.00000000000E+00 -0.74505805969E-08  0.93827000000E+00  0.93827000000E+00 0. -1.
     999902    2    1    2    0    0  0.16295663556E-02 -0.60103267432E-02  0.17288348899E-01  0.10255542953E+01  0.10253896558E+01 0.  0.
     999903    2    3    3    0    0  0.21549478696E-01 -0.64698448605E-01 -0.11379920199E+00  0.13368824903E+00  0.16493037068E-01 0.  0.
         14    1    1    2    0    0 -0.16295663556E-02  0.60103267432E-02 -0.17288348899E-01  0.18375704659E-01  0.00000000000E+00 0.  1.
     999901    1    3    3    0    0 -0.19919912340E-01  0.58688121862E-01  0.13108755089E+00  0.89186604631E+00  0.88000000000E+00 0.  1.
        -11    1    4    4    0    0  0.18052873939E-01 -0.29520339882E-01 -0.51285481289E-01  0.61869365895E-01  0.51100000000E-03 0.  1.
         11    1    4    4    0    0  0.34966047567E-02 -0.35178108723E-01 -0.62513720704E-01  0.71818883140E-01  0.51100000000E-03 0. -1.
</event>
<event>
 8    1  0.1103774E+005  0.1043930E+01  0.7957747E-01            NaN
         13   -1    0    0    0    0  0.00000000000E+00  0.00000000000E+00  0.74505805969E-08  0.10566000000E+00  0.10566000000E+00 0. -1.
     999900   -1    0    0    0    0 -0.00000000000E+00 -0.00000000000E+00 -0.74505805969E-08  0.93827000000E+00  0.93827000000E+00 0.  1.
     999902    2    1    2    0    0  0.14342507810E-01  0.17145685750E-01  0.65966269170E-02  0.10206234010E+01  0.10203572556E+01 0.  0.
     999903    2    3    3    0    0 -0.22050542633E-01 -0.10271816051E+00  0.72514517679E-01  0.12931146678E+00  0.20636211813E-01 0.  0.
         14    1    1    2    0    0 -0.14342507810E-01 -0.17145685750E-01 -0.65966269170E-02  0.23306598997E-01  0.00000000000E+00 0.  1.
     999901    1    3    3    0    0  0.36393050443E-01  0.11986384626E+00 -0.65917890762E-01  0.89131193422E+00  0.88000000000E+00 0.  1.
        -11    1    4    4    0    0 -0.18827514643E-01 -0.63887647334E-01  0.35093341792E-01  0.75285526820E-01  0.51100000000E-03 0.  1.
         11    1    4    4    0    0 -0.32230279901E-02 -0.38830513178E-01  0.37421175887E-01  0.54025939963E-01  0.51100000000E-03 0. -1.
</event>
<event>
 8    1  0.1103774E+005  0.1043930E+01  0.7957747E-01            NaN
         13   -1    0    0    0    0  0.00000000000E+00  0.00000000000E+00  0.74505805969E-08  0.10566000000E+00  0.10566000000E+00 0.  1.
     999900   -1    0    0    0    0 -0.00000000000E+00 -0.00000000000E+00 -0.74505805969E-08  0.93827000000E+00  0.93827000000E+00 0. -1.
     999902    2    1    2    0    0  0.18086925250E-02 -0.79464205999E-02 -0.22003653265E-01  0.10204656073E+01  0.10201958037E+01 0.  0.
     999903    2    3    3    0    0  0.55664367410E-01 -0.10912342141E+00 -0.46875579580E-01  0.13268419728E+00  0.20033305955E-01 0.  0.
         14    1    1    2    0    0 -0.18086925250E-02  0.79464205999E-02  0.22003653265E-01  0.23464392726E-01  0.00000000000E+00 0.  1.
     999901    1    3    3    0    0 -0.53855674885E-01  0.10117700081E+00  0.24871926315E-01  0.88778140999E+00  0.88000000000E+00 0. -1.
        -11    1    4    4    0    0  0.28793653804E-01 -0.71453305065E-01 -0.36562163763E-01  0.85274276568E-01  0.51100000000E-03 0.  1.
         11    1    4    4    0    0  0.26870713606E-01 -0.37670116346E-01 -0.10313415817E-01  0.47409920713E-01  0.51100000000E-03 0. -1.
</event>
<event>
 8    1  0.1103774E+005  0.1043930E+01  0.7957747E-01            NaN
         13   -1    0    0    0    0  0.00000000000E+00  0.00000000000E+00  0.74505805969E-08  0.10566000000E+00  0.10566000000E+00 0. -1.
     999900   -1    0    0    0    0 -0.00000000000E+00 -0.00000000000E+00 -0.74505805969E-08  0.93827000000E+00  0.93827000000E+00 0.  1.
     999902    2    1    2    0    0 -0.19161437634E-01 -0.76780416160E-02  0.86314433549E-02  0.10215555764E+01  0.10213105213E+01 0.  0.
     999903    2    3    3    0    0  0.85340765475E-01  0.26377973788E-01  0.93225726627E-01  0.13069267150E+00  0.20265599546E-01 0.  0.
         14    1    1    2    0    0  0.19161437634E-01  0.76780416160E-02 -0.86314433549E-02  0.22374423560E-01  0.00000000000E+00 0.  1.
     999901    1    3    3    0    0 -0.10450220311E+00 -0.34056015404E-01 -0.84594283272E-01  0.89086290494E+00  0.88000000000E+00 0.  1.
        -11    1    4    4    0    0  0.23999172785E-01  0.23493770610E-02  0.36529593026E-01  0.43773875252E-01  0.51100000000E-03 0.  1.
         11    1    4    4    0    0  0.61341592690E-01  0.24028596727E-01  0.56696133601E-01  0.86918796245E-01  0.51100000000E-03 0. -1.
</event>
<event>
 8    1  0.1103774E+005  0.1043930E+01  0.7957747E-01            NaN
         13   -1    0    0    0    0  0.00000000000E+00  0.00000000000E+00  0.74505805969E-08  0.10566000000E+00  0.10566000000E+00 0. -1.
     999900   -1    0    0    0    0 -0.00000000000E+00 -0.00000000000E+00 -0.74505805969E-08  0.93827000000E+00  0.93827000000E+00 0.  1.
     999902    2    1    2    0    0  0.13754829839E-01  0.19026145160E-01  0.27229690069E-02  0.10202951930E+01  0.10200214099E+01 0.  0.
     999903    2    3    3    0    0 -0.10707422087E+00  0.71271857949E-01  0.85316357227E-02  0.13048453074E+00  0.20220223642E-01 0.  0.
         14    1    1    2    0    0 -0.13754829839E-01 -0.19026145160E-01 -0.27229690069E-02  0.23634807039E-01  0.00000000000E+00 0.  1.
     999901    1    3    3    0    0  0.12082905070E+00 -0.52245712788E-01 -0.58086667158E-02  0.88981066222E+00  0.88000000000E+00 0.  1.
        -11    1    4    4    0    0 -0.63807017133E-01  0.38695893116E-01 -0.45539837184E-02  0.74764346236E-01  0.51100000000E-03 0. -1.
         11    1    4    4    0    0 -0.43267203733E-01  0.32575964833E-01  0.13085619441E-01  0.55720184501E-01  0.51100000000E-03 0.  1.
</event>
<event>
 8    1  0.1103774E+005  0.1043930E+01  0.7957747E-01            NaN
         13   -1    0    0    0    0  0.00000000000E+00  0.00000000000E+00  0.74505805969E-08  0.10566000000E+00  0.10566000000E+00 0.  1.
     999900   -1    0    0    0    0 -0.00000000000E+00 -0.00000000000E+00 -0.74505805969E-08  0.93827000000E+00  0.93827000000E+00 0.  1.
     999902    2    1    2    0    0 -0.14807927257E-01  0.11124037147E-01  0.14980661285E-01  0.10201090192E+01  0.10198308546E+01 0.  0.
     999903    2    3    3    0    0 -0.11367263813E+00  0.64118612720E-01 -0.11502924457E-01  0.13259336506E+00  0.20396520052E-01 0.  0.
         14    1    1    2    0    0  0.14807927257E-01 -0.11124037147E-01 -0.14980661285E-01  0.23820980766E-01  0.00000000000E+00 0. -1.
     999901    1    3    3    0    0  0.98864710869E-01 -0.52994575574E-01  0.26483585742E-01  0.88751565418E+00  0.88000000000E+00 0.  1.
        -11    1    4    4    0    0 -0.75558253385E-01  0.36980760963E-01  0.11111372892E-02  0.84131576017E-01  0.51100000000E-03 0. -1.
         11    1    4    4    0    0 -0.38114384742E-01  0.27137851758E-01 -0.12614061747E-01  0.48461789041E-01  0.51100000000E-03 0.  1.
</event>
<event>
 8    1  0.1103774E+005  0.1043930E+01  0.7957747E-01            NaN
         13   -1    0    0    0    0  0.00000000000E+00  0.00000000000E+00  0.74505805969E-08  0.10566000000E+00  0.10566000000E+00 0.  1.
     999900   -1    0    0    0    0 -0.00000000000E+00 -0.00000000000E+00 -0.74505805969E-08  0.93827000000E+00  0.93827000000E+00 0.  1.
     999902    2    1    2    0    0  0.39832458553E-02 -0.18244340444E-01 -0.14580730424E-01  0.10202378092E+01  0.10199626794E+01 0.  0.
     999903    2    3    3    0    0 -0.95616219745E-01  0.73287487306E-01  0.39043502153E-01  0.12828843430E+00  0.20494146520E-01 0.  0.
         14    1    1    2    0    0 -0.39832458553E-02  0.18244340444E-01  0.14580730424E-01  0.23692190812E-01  0.00000000000E+00 0.  1.
     999901    1    3    3    0    0  0.99599465601E-01 -0.91531827749E-01 -0.53624232576E-01  0.89194937489E+00  0.88000000000E+00 0. -1.
        -11    1    4    4    0    0 -0.59479684815E-01  0.38446744443E-01  0.31541975611E-01  0.77531557513E-01  0.51100000000E-03 0. -1.
         11    1    4    4    0    0 -0.36136534930E-01  0.34840742862E-01  0.75015265412E-02  0.50756876789E-01  0.51100000000E-03 0.  1.
</event>
<event>
 8    1  0.1103774E+005  0.1043930E+01  0.7957747E-01            NaN
         13   -1    0    0    0    0  0.00000000000E+00  0.00000000000E+00  0.74505805969E-08  0.10566000000E+00  0.10566000000E+00 0. -1.
     999900   -1    0    0    0    0 -0.00000000000E+00 -0.00000000000E+00 -0.74505805969E-08  0.93827000000E+00  0.93827000000E+00 0. -1.
     999902    2    1    2    0    0 -0.19690944567E-01  0.57337884971E-02  0.12560647090E-01  0.10198804785E+01  0.10195968865E+01 0.  0.
     999903    2    3    3    0    0 -0.21409591486E-01  0.50053880557E-01  0.11893302611E+00  0.13236579845E+00  0.20294785847E-01 0.  0.
         14    1    1    2    0    0  0.19690944567E-01 -0.57337884971E-02 -0.12560647090E-01  0.24049521488E-01  0.00000000000E+00 0. -1.
     999901    1    3    3    0    0  0.17186469186E-02 -0.44320092060E-01 -0.10637237902E+00  0.88751468006E+00  0.88000000000E+00 0. -1.
        -11    1    4    4    0    0 -0.22387854323E-01  0.38310201117E-01  0.77698971026E-01  0.89477811497E-01  0.51100000000E-03 0.  1.
         11    1    4    4    0    0  0.97826283739E-03  0.11743679440E-01  0.41234055087E-01  0.42887986953E-01  0.51100000000E-03 0. -1.
</event>
<event>
 8    1  0.1103774E+005  0.1043930E+01  0.7957747E-01            NaN
         13   -1    0    0    0    0  0.00000000000E+00  0.00000000000E+00  0.74505805969E-08  0.10566000000E+00  0.10566000000E+00 0.  1.
     999900   -1    0    0    0    0 -0.00000000000E+00 -0.00000000000E+00 -0.74505805969E-08  0.93827000000E+00  0.93827000000E+00 0.  1.
     999902    2    1    2    0    0 -0.20263588400E-02 -0.21813261939E-01  0.75312300718E-02  0.10207644231E+01  0.10205015255E+01 0.  0.
     999903    2    3    3    0    0 -0.65070378802E-01  0.75147615741E-01 -0.79578548025E-01  0.12893255908E+00  0.20237122703E-01 0.  0.
         14    1    1    2    0    0  0.20263588400E-02  0.21813261939E-01 -0.75312300718E-02  0.23165576897E-01  0.00000000000E+00 0. -1.
     999901    1    3    3    0    0  0.63044019962E-01 -0.96960877680E-01  0.87109778096E-01  0.89183186403E+00  0.88000000000E+00 0. -1.
        -11    1    4    4    0    0 -0.35925842341E-01  0.49772936840E-01 -0.38141335906E-01  0.72270561194E-01  0.51100000000E-03 0.  1.
         11    1    4    4    0    0 -0.29144536461E-01  0.25374678900E-01 -0.41437212119E-01  0.56661997882E-01  0.51100000000E-03 0. -1.
</event>
<event>
 8    1  0.1103774E+005  0.1043930E+01  0.7957747E-01            NaN
         13   -1    0    0    0    0  0.00000000000E+00  0.00000000000E+00  0.74505805969E-08  0.10566000000E+00  0.10566000000E+00 0.  1.
     999900   -1    0    0    0    0 -0.00000000000E+00 -0.00000000000E+00 -0.74505805969E-08  0.93827000000E+00  0.93827000000E+00 0.  1.
     999902    2    1    2    0    0 -0.14734885869E-01  0.12234370967E-01 -0.14282277751E-01  0.10200389943E+01  0.10197591724E+01 0.  0.
     999903    2    3    3    0    0 -0.12051007960E+00  0.51565437792E-01  0.45821402707E-02  0.13263199035E+00  0.19712310759E-01 0.  0.
         14    1    1    2    0    0  0.14734885869E-01 -0.12234370967E-01  0.14282277751E-01  0.23891005677E-01  0.00000000000E+00 0. -1.
     999901    1    3    3    0    0  0.10577519373E+00 -0.39331066825E-01 -0.18864418021E-01  0.88740700397E+00  0.88000000000E+00 0.  1.
        -11    1    4    4    0    0 -0.93123315330E-02  0.37278815794E-02  0.57518046602E-02  0.11574152129E-01  0.51100000000E-03 0. -1.
         11    1    4    4    0    0 -0.11119774807E+00  0.47837556213E-01 -0.11696643895E-02  0.12105783822E+00  0.51100000000E-03 0.  1.
</event>
<event>
 8    1  0.1103774E+005  0.1043930E+01  0.7957747E-01            NaN
         13   -1    0    0    0    0  0.00000000000E+00  0.00000000000E+00  0.74505805969E-08  0.10566000000E+00  0.10566000000E+00 0. -1.
     999900   -1    0    0    0    0 -0.00000000000E+00 -0.00000000000E+00 -0.74505805969E-08  0.93827000000E+00  0.93827000000E+00 0. -1.
     999902    2    1    2    0    0  0.10759396769E-01  0.16611990351E-01  0.14187067757E-01  0.10195784963E+01  0.10192876504E+01 0.  0.
     999903    2    3    3    0    0 -0.56153822256E-01  0.65730737537E-01 -0.93880703970E-01  0.12909061118E+00  0.19416943800E-01 0.  0.
         14    1    1    2    0    0 -0.10759396769E-01 -0.16611990351E-01 -0.14187067757E-01  0.24351503728E-01  0.00000000000E+00 0.  1.
     999901    1    3    3    0    0  0.66913219025E-01 -0.49118747185E-01  0.10806777173E+00  0.89048788509E+00  0.88000000000E+00 0.  1.
        -11    1    4    4    0    0 -0.53872686783E-01  0.61563391421E-01 -0.80049973808E-01  0.11445775191E+00  0.51100000000E-03 0. -1.
         11    1    4    4    0    0 -0.22811354725E-02  0.41673461151E-02 -0.13830730162E-01  0.14632859273E-01  0.51100000000E-03 0.  1.
</event>
<event>
 8    1  0.1103774E+005  0.1043930E+01  0.7957747E-01            NaN
         13   -1    0    0    0    0  0.00000000000E+00  0.00000000000E+00  0.74505805969E-08  0.10566000000E+00  0.10566000000E+00 0.  1.
     999900   -1    0    0    0    0 -0.00000000000E+00 -0.00000000000E+00 -0.74505805969E-08  0.93827000000E+00  0.93827000000E+00 0. -1.
     999902    2    1    2    0    0  0.13416065363E-01 -0.80743492795E-04  0.20441074920E-01  0.10194793380E+01  0.10191860898E+01 0.  0.
     999903    2    3    3    0    0  0.29091349191E-01  0.88009726602E-01  0.92819091665E-01  0.13198611392E+00  0.14592186805E-01 0.  0.
         14    1    1    2    0    0 -0.13416065363E-01  0.80743492795E-04 -0.20441074920E-01  0.24450662020E-01  0.00000000000E+00 0. -1.
     999901    1    3    3    0    0 -0.15675283829E-01 -0.88090470095E-01 -0.72378016744E-01  0.88749322406E+00  0.88000000000E+00 0. -1.
        -11    1    4    4    0    0  0.64172694539E-02  0.12536539080E-01  0.79932550079E-02  0.16201833414E-01  0.51100000000E-03 0. -1.
         11    1    4    4    0    0  0.22674079737E-01  0.75473187522E-01  0.84825836657E-01  0.11578428051E+00  0.51100000000E-03 0.  1.
</event>
<event>
 8    1  0.1103774E+005  0.1043930E+01  0.7957747E-01            NaN
         13   -1    0    0    0    0  0.00000000000E+00  0.00000000000E+00  0.74505805969E-08  0.10566000000E+00  0.10566000000E+00 0.  1.
     999900   -1    0    0    0    0 -0.00000000000E+00 -0.00000000000E+00 -0.74505805969E-08  0.93827000000E+00  0.93827000000E+00 0. -1.
     999902    2    1    2    0    0  0.42818455592E-02 -0.28079243258E-02  0.18372345979E-01  0.10248574612E+01  0.10246799764E+01 0.  0.
     999903    2    3    3    0    0 -0.32943454820E-01 -0.12155575658E+00  0.46240585584E-01  0.13566490080E+00  0.20142005386E-01 0.  0.
         14    1    1    2    0    0 -0.42818455592E-02  0.28079243258E-02 -0.18372345979E-01  0.19072538824E-01  0.00000000000E+00 0. -1.
     999901    1    3    3    0    0  0.37225300379E-01  0.11874783225E+00 -0.27868239604E-01  0.88919256038E+00  0.88000000000E+00 0.  1.
        -11    1    4    4    0    0 -0.14141064695E-01 -0.52506074821E-01  0.30644240356E-01  0.62419453633E-01  0.51100000000E-03 0.  1.
         11    1    4    4    0    0 -0.18802390125E-01 -0.69049681755E-01  0.15596345228E-01  0.73245447165E-01  0.51100000000E-03 0. -1.
</event>
<event>
 8    1  0.1103774E+005  0.1043930E+01  0.7957747E-01            NaN
         13   -1    0    0    0    0  0.00000000000E+00  0.00000000000E+00  0.74505805969E-08  0.10566000000E+00  0.10566000000E+00 0.  1.
     999900   -1    0    0    0    0 -0.00000000000E+00 -0.00000000000E+00 -0.74505805969E-08  0.93827000000E+00  0.93827000000E+00 0.  1.
     999902    2    1    2    0    0  0.81429040525E-02 -0.21977337618E-01 -0.13056840237E-02  0.10204562899E+01  0.10201862695E+01 0.  0.
     999903    2    3    3    0    0  0.10992472320E+00  0.33785803884E-01  0.59003611636E-01  0.13078990422E+00  0.19991186700E-01 0.  0.
         14    1    1    2    0    0 -0.81429040525E-02  0.21977337618E-01  0.13056840237E-02  0.23473710102E-01  0.00000000000E+00 0.  1.
     999901    1    3    3    0    0 -0.10178181915E+00 -0.55763141502E-01 -0.60309295660E-01  0.88966638568E+00  0.88000000000E+00 0.  1.
        -11    1    4    4    0    0  0.89717538136E-01  0.34674479121E-01  0.45062437859E-01  0.10621883344E+00  0.51100000000E-03 0.  1.
         11    1    4    4    0    0  0.20207185064E-01 -0.88867523678E-03  0.13941173778E-01  0.24571070778E-01  0.51100000000E-03 0. -1.
</event>
<event>
 8    1  0.1103774E+005  0.1043930E+01  0.7957747E-01            NaN
         13   -1    0    0    0    0  0.00000000000E+00  0.00000000000E+00  0.74505805969E-08  0.10566000000E+00  0.10566000000E+00 0. -1.
     999900   -1    0    0    0    0 -0.00000000000E+00 -0.00000000000E+00 -0.74505805969E-08  0.93827000000E+00  0.93827000000E+00 0.  1.
     999902    2    1    2    0    0 -0.34400926614E-02 -0.93364022989E-02  0.24170954780E-01  0.10177911840E+01  0.10174554814E+01 0.  0.
     999903    2    3    3    0    0  0.83924298579E-01  0.93560883923E-01 -0.34799803921E-02  0.12706958746E+00  0.18375061971E-01 0.  0.
         14    1    1    2    0    0  0.34400926614E-02  0.93364022989E-02 -0.24170954780E-01  0.26138815972E-01  0.00000000000E+00 0.  1.
     999901    1    3    3    0    0 -0.87364391241E-01 -0.10289728622E+00  0.27650935173E-01  0.89072159656E+00  0.88000000000E+00 0. -1.
        -11    1    4    4    0    0  0.66698167344E-01  0.62619969337E-01 -0.49498655575E-02  0.91622422893E-01  0.51100000000E-03 0. -1.
         11    1    4    4    0    0  0.17226131236E-01  0.30940914586E-01  0.14698851654E-02  0.35447164572E-01  0.51100000000E-03 0.  1.
</event>
<event>
 8    1  0.1103774E+005  0.1043930E+01  0.7957747E-01            NaN
         13   -1    0    0    0    0  0.00000000000E+00  0.00000000000E+00  0.74505805969E-08  0.10566000000E+00  0.10566000000E+00 0.  1.
     999900   -1    0    0    0    0 -0.00000000000E+00 -0.00000000000E+00 -0.74505805969E-08  0.93827000000E+00  0.93827000000E+00 0. -1.
     999902    2    1    2    0    0 -0.14347168645E-01 -0.17589252920E-01 -0.74497426600E-02  0.10200402170E+01  0.10197604241E+01 0.  0.
     999903    2    3    3    0    0 -0.11083700408E+00  0.57232289962E-01  0.31791987100E-01  0.13074360451E+00  0.22864452524E-01 0.  0.
         14    1    1    2    0    0  0.14347168645E-01  0.17589252920E-01  0.74497426600E-02  0.23889783007E-01  0.00000000000E+00 0. -1.
     999901    1    3    3    0    0  0.96489835432E-01 -0.74821542882E-01 -0.39241729760E-01  0.88929661248E+00  0.88000000000E+00 0. -1.
        -11    1    4    4    0    0 -0.24876920584E-01  0.13778824835E-01  0.17430131703E-01  0.33358474242E-01  0.51100000000E-03 0. -1.
         11    1    4    4    0    0 -0.85960083493E-01  0.43453465127E-01  0.14361855397E-01  0.97385130268E-01  0.51100000000E-03 0.  1.
</event>
<event>
 8    1  0.1103774E+005  0.1043930E+01  0.7957747E-01            NaN
         13   -1    0    0    0    0  0.00000000000E+00  0.00000000000E+00  0.74505805969E-08  0.10566000000E+00  0.10566000000E+00 0. -1.
     999900   -1    0    0    0    0 -0.00000000000E+00 -0.00000000000E+00 -0.74505805969E-08  0.93827000000E+00  0.93827000000E+00 0.  1.
     999902    2    1    2    0    0  0.23855434304E-01 -0.36179918896E-02 -0.82381141398E-03  0.10197877077E+01  0.10195018973E+01 0.  0.
     999903    2    3    3    0    0 -0.11412041090E+00 -0.52793625152E-01  0.10978196222E-01  0.12760226503E+00  0.18739856132E-01 0.  0.
         14    1    1    2    0    0 -0.23855434304E-01  0.36179918896E-02  0.82381141398E-03  0.24142292277E-01  0.00000000000E+00 0. -1.
     999901    1    3    3    0    0  0.13797584521E+00  0.49175633262E-01 -0.11802007636E-01  0.89218544269E+00  0.88000000000E+00 0.  1.
        -11    1    4    4    0    0 -0.84971181579E-01 -0.43441341892E-01  0.11288553785E-02  0.95439967099E-01  0.51100000000E-03 0. -1.
         11    1    4    4    0    0 -0.29149229322E-01 -0.93522832597E-02  0.98493408435E-02  0.32162297932E-01  0.51100000000E-03 0.  1.
</event>
<event>
 8    1  0.1103774E+005  0.1043930E+01  0.7957747E-01            NaN
         13   -1    0    0    0    0  0.00000000000E+00  0.00000000000E+00  0.74505805969E-08  0.10566000000E+00  0.10566000000E+00 0.  1.
     999900   -1    0    0    0    0 -0.00000000000E+00 -0.00000000000E+00 -0.74505805969E-08  0.93827000000E+00  0.93827000000E+00 0.  1.
     999902    2    1    2    0    0  0.69299101058E-03 -0.21261690402E-01  0.57694253073E-02  0.10218885394E+01  0.10216508019E+01 0.  0.
     999903    2    3    3    0    0  0.12646033820E+00  0.26685309455E-01 -0.13173512739E-01  0.13145315418E+00  0.20051619108E-01 0.  0.
         14    1    1    2    0    0 -0.69299101058E-03  0.21261690402E-01 -0.57694253073E-02  0.22041460561E-01  0.00000000000E+00 0. -1.
     999901    1    3    3    0    0 -0.12576734719E+00 -0.47946999857E-01  0.18942938046E-01  0.89043538526E+00  0.88000000000E+00 0. -1.
        -11    1    4    4    0    0  0.11690366912E+00  0.21911431000E-01 -0.16883990143E-01  0.12013288020E+00  0.51100000000E-03 0. -1.
         11    1    4    4    0    0  0.95566690810E-02  0.47738784557E-02  0.37104774044E-02  0.11320273981E-01  0.51100000000E-03 0.  1.
</event>
<event>
 8    1  0.1103774E+005  0.1043930E+01  0.7957747E-01            NaN
         13   -1    0    0    0    0  0.00000000000E+00  0.00000000000E+00  0.74505805969E-08  0.10566000000E+00  0.10566000000E+00 0.  1.
     999900   -1    0    0    0    0 -0.00000000000E+00 -0.00000000000E+00 -0.74505805969E-08  0.93827000000E+00  0.93827000000E+00 0.  1.
     999902    2    1    2    0    0  0.19054842120E-01 -0.47601680301E-02 -0.17728004559E-01  0.10174719511E+01  0.10171278891E+01 0.  0.
     999903    2    3    3    0    0  0.40125187586E-01 -0.36617809908E-01 -0.11750980973E+00  0.13100972545E+00  0.20102191361E-01 0.  0.
         14    1    1    2    0    0 -0.19054842120E-01  0.47601680301E-02  0.17728004559E-01  0.26458048937E-01  0.00000000000E+00 0.  1.
     999901    1    3    3    0    0 -0.21070345465E-01  0.31857641878E-01  0.99781805169E-01  0.88646222562E+00  0.88000000000E+00 0. -1.
        -11    1    4    4    0    0  0.61544071082E-02 -0.66296764586E-02 -0.41828109857E-01  0.42798145193E-01  0.51100000000E-03 0. -1.
         11    1    4    4    0    0  0.33970780478E-01 -0.29988133450E-01 -0.75681699872E-01  0.88211580252E-01  0.51100000000E-03 0.  1.
</event>
<event>
 8    1  0.1103774E+005  0.1043930E+01  0.7957747E-01            NaN
         13   -1    0    0    0    0  0.00000000000E+00  0.00000000000E+00  0.74505805969E-08  0.10566000000E+00  0.10566000000E+00 0. -1.
     999900   -1    0    0    0    0 -0.00000000000E+00 -0.00000000000E+00 -0.74505805969E-08  0.93827000000E+00  0.93827000000E+00 0.  1.
     999902    2    1    2    0    0  0.21031615266E-01  0.94420683023E-02 -0.56643223553E-02  0.10201904540E+01  0.10199142104E+01 0.  0.
     999903    2    3    3    0    0 -0.10672455954E+00  0.58806492077E-01 -0.38689667825E-01  0.12898387867E+00  0.17076751489E-01 0.  0.
         14    1    1    2    0    0 -0.21031615266E-01 -0.94420683023E-02  0.56643223553E-02  0.23739545957E-01  0.00000000000E+00 0. -1.
     999901    1    3    3    0    0  0.12775617481E+00 -0.49364423775E-01  0.33025345470E-01  0.89120657537E+00  0.88000000000E+00 0. -1.
        -11    1    4    4    0    0 -0.32043995147E-01  0.24424294982E-01 -0.18423082801E-01  0.44306149813E-01  0.51100000000E-03 0.  1.
         11    1    4    4    0    0 -0.74680564396E-01  0.34382197095E-01 -0.20266585024E-01  0.84677728862E-01  0.51100000000E-03 0. -1.
</event>
<event>
 8    1  0.1103774E+005  0.1043930E+01  0.7957747E-01            NaN
         13   -1    0    0    0    0  0.00000000000E+00  0.00000000000E+00  0.74505805969E-08  0.10566000000E+00  0.10566000000E+00 0.  1.
     999900   -1    0    0    0    0 -0.00000000000E+00 -0.00000000000E+00 -0.74505805969E-08  0.93827000000E+00  0.93827000000E+00 0.  1.
     999902    2    1    2    0    0 -0.16371895773E-01  0.51080152675E-02  0.16485796444E-01  0.10201410892E+01  0.10198636819E+01 0.  0.
     999903    2    3    3    0    0 -0.22445869394E-01 -0.10935482827E+00  0.66208086437E-01  0.13131549226E+00  0.19948741310E-01 0.  0.
         14    1    1    2    0    0  0.16371895773E-01 -0.51080152675E-02 -0.16485796444E-01  0.23788910769E-01  0.00000000000E+00 0. -1.
     999901    1    3    3    0    0  0.60739736212E-02  0.11446284354E+00 -0.49722289993E-01  0.88882559697E+00  0.88000000000E+00 0.  1.
        -11    1    4    4    0    0 -0.75004739379E-02 -0.39938530468E-01  0.35460043298E-01  0.53935323462E-01  0.51100000000E-03 0.  1.
         11    1    4    4    0    0 -0.14945395456E-01 -0.69416297800E-01  0.30748043139E-01  0.77380168800E-01  0.51100000000E-03 0. -1.
</event>
<event>
 8    1  0.1103774E+005  0.1043930E+01  0.7957747E-01            NaN
         13   -1    0    0    0    0  0.00000000000E+00  0.00000000000E+00  0.74505805969E-08  0.10566000000E+00  0.10566000000E+00 0. -1.
     999900   -1    0    0    0    0 -0.00000000000E+00 -0.00000000000E+00 -0.74505805969E-08  0.93827000000E+00  0.93827000000E+00 0. -1.
     999902    2    1    2    0    0  0.25647127107E-01 -0.57985907121E-03  0.10180081275E-01  0.10163302641E+01  0.10159554421E+01 0.  0.
     999903    2    3    3    0    0  0.77662056386E-01 -0.91228220655E-01  0.45150682092E-01  0.12945619119E+00  0.19139960779E-01 0.  0.
         14    1    1    2    0    0 -0.25647127107E-01  0.57985907121E-03 -0.10180081275E-01  0.27599735871E-01  0.00000000000E+00 0.  1.
     999901    1    3    3    0    0 -0.52014929280E-01  0.90648361584E-01 -0.34970600817E-01  0.88687407294E+00  0.88000000000E+00 0. -1.
        -11    1    4    4    0    0  0.60067111933E-03 -0.12733256384E-02  0.36504244259E-02  0.39457424478E-02  0.51100000000E-03 0. -1.
         11    1    4    4    0    0  0.77061385267E-01 -0.89954895017E-01  0.41500257666E-01  0.12551044874E+00  0.51100000000E-03 0.  1.
</event>
<event>
 8    1  0.1103774E+005  0.1043930E+01  0.7957747E-01            NaN
         13   -1    0    0    0    0  0.00000000000E+00  0.00000000000E+00  0.74505805969E-08  0.10566000000E+00  0.10566000000E+00 0. -1.
     999900   -1    0    0    0    0 -0.00000000000E+00 -0.00000000000E+00 -0.74505805969E-08  0.93827000000E+00  0.93827000000E+00 0.  1.
     999902    2    1    2    0    0 -0.24213908778E-01  0.22610564662E-01 -0.40204920544E-02  0.10105576257E+01  0.10100064353E+01 0.  0.
     999903    2    3    3    0    0  0.93118666534E-01 -0.29056731468E-02  0.71846110193E-01  0.11916896017E+00  0.18969673843E-01 0.  0.
         14    1    1    2    0    0  0.24213908778E-01 -0.22610564662E-01  0.40204920544E-02  0.33372374339E-01  0.00000000000E+00 0. -1.
     999901    1    3    3    0    0 -0.11733257531E+00  0.25516237809E-01 -0.75866602247E-01  0.89138866549E+00  0.88000000000E+00 0.  1.
        -11    1    4    4    0    0  0.19466411817E-01  0.71224385649E-02  0.16282397754E-01  0.26363761449E-01  0.51100000000E-03 0.  1.
         11    1    4    4    0    0  0.73652254717E-01 -0.10028111712E-01  0.55563712439E-01  0.92805198726E-01  0.51100000000E-03 0. -1.
</event>
<event>
 8    1  0.1103774E+005  0.1043930E+01  0.7957747E-01            NaN
         13   -1    0    0    0    0  0.00000000000E+00  0.00000000000E+00  0.74505805969E-08  0.10566000000E+00  0.10566000000E+00 0.  1.
     999900   -1    0    0    0    0 -0.00000000000E+00 -0.00000000000E+00 -0.74505805969E-08  0.93827000000E+00  0.93827000000E+00 0.  1.
     999902    2    1    2    0    0 -0.13799903867E-01  0.13227013278E-01  0.13968220540E-01  0.10202550679E+01  0.10199803435E+01 0.  0.
     999903    2    3    3    0    0  0.38698371970E-01  0.10960240954E+00 -0.56256219336E-01  0.13066203847E+00  0.19938754088E-01 0.  0.
         14    1    1    2    0    0  0.13799903867E-01 -0.13227013278E-01 -0.13968220540E-01  0.23674932145E-01  0.00000000000E+00 0. -1.
     999901    1    3    3    0    0 -0.52498275837E-01 -0.96375396259E-01  0.70224439876E-01  0.88959302938E+00  0.88000000000E+00 0.  1.
        -11    1    4    4    0    0  0.19447354491E-01  0.28918152091E-01 -0.19445578938E-01  0.39910534678E-01  0.51100000000E-03 0. -1.
         11    1    4    4    0    0  0.19251017479E-01  0.80684257445E-01 -0.36810640397E-01  0.90751503794E-01  0.51100000000E-03 0.  1.
</event>
<event>
 8    1  0.1103774E+005  0.1043930E+01  0.7957747E-01            NaN
         13   -1    0    0    0    0  0.00000000000E+00  0.00000000000E+00  0.74505805969E-08  0.10566000000E+00  0.10566000000E+00 0. -1.
     999900   -1    0    0    0    0 -0.00000000000E+00 -0.00000000000E+00 -0.74505805969E-08  0.93827000000E+00  0.93827000000E+00 0. -1.
     999902    2    1    2    0    0  0.67412666650E-02  0.53119914311E-02 -0.21233869734E-01  0.10210271802E+01  0.10207702796E+01 0.  0.
     999903    2    3    3    0    0 -0.89296081965E-01 -0.75993627797E-01 -0.55918314176E-01  0.13139984998E+00  0.19754518345E-01 0.  0.
         14    1    1    2    0    0 -0.67412666650E-02 -0.53119914311E-02  0.21233869734E-01  0.22902819763E-01  0.00000000000E+00 0. -1.
     999901    1    3    3    0    0  0.96037348630E-01  0.81305619228E-01  0.34684444443E-01  0.88962733025E+00  0.88000000000E+00 0.  1.
        -11    1    4    4    0    0 -0.52834448268E-01 -0.39630614466E-01 -0.21498443168E-01  0.69458683448E-01  0.51100000000E-03 0. -1.
         11    1    4    4    0    0 -0.36461633697E-01 -0.36363013331E-01 -0.34419871009E-01  0.61941166534E-01  0.51100000000E-03 0.  1.
</event>
<event>
 8    1  0.1103774E+005  0.1043930E+01  0.7957747E-01            NaN
         13   -1    0    0    0    0  0.00000000000E+00  0.00000000000E+00  0.74505805969E-08  0.10566000000E+00  0.10566000000E+00 0.  1.
     999900   -1    0    0    0    0 -0.00000000000E+00 -0.00000000000E+00 -0.74505805969E-08  0.93827000000E+00  0.93827000000E+00 0.  1.
     999902    2    1    2    0    0  0.74177961760E-02 -0.18378031311E-01  0.14073096649E-01  0.10196230507E+01  0.10193332810E+01 0.  0.
     999903    2    3    3    0    0  0.78379520168E-03 -0.69642464384E-01 -0.10733205409E+00  0.12978527746E+00  0.21756866258E-01 0.  0.
         14    1    1    2    0    0 -0.74177961760E-02  0.18378031311E-01 -0.14073096649E-01  0.24306949300E-01  0.00000000000E+00 0. -1.
     999901    1    3    3    0    0  0.66340009743E-02  0.51264433073E-01  0.12140515074E+00  0.88983777324E+00  0.88000000000E+00 0. -1.
        -11    1    4    4    0    0  0.11182180862E-01 -0.33477168327E-01 -0.53901367019E-01  0.64431207156E-01  0.51100000000E-03 0. -1.
         11    1    4    4    0    0 -0.10398385660E-01 -0.36165296057E-01 -0.53430687068E-01  0.65354070300E-01  0.51100000000E-03 0.  1.
</event>
<event>
 8    1  0.1103774E+005  0.1043930E+01  0.7957747E-01            NaN
         13   -1    0    0    0    0  0.00000000000E+00  0.00000000000E+00  0.74505805969E-08  0.10566000000E+00  0.10566000000E+00 0.  1.
     999900   -1    0    0    0    0 -0.00000000000E+00 -0.00000000000E+00 -0.74505805969E-08  0.93827000000E+00  0.93827000000E+00 0. -1.
     999902    2    1    2    0    0 -0.72454158930E-03  0.14057009123E-01  0.19620156687E-01  0.10197830537E+01  0.10194971318E+01 0.  0.
     999903    2    3    3    0    0 -0.76168679501E-02  0.13015646430E+00  0.59954660781E-03  0.13192700049E+00  0.20140807511E-01 0.  0.
         14    1    1    2    0    0  0.72454158930E-03 -0.14057009123E-01 -0.19620156687E-01  0.24146946275E-01  0.00000000000E+00 0. -1.
     999901    1    3    3    0    0  0.68923263608E-02 -0.11609945517E+00  0.19020610079E-01  0.88785605323E+00  0.88000000000E+00 0.  1.
        -11    1    4    4    0    0  0.83065254256E-03  0.11062348629E+00 -0.10439044559E-03  0.11062783430E+00  0.51100000000E-03 0. -1.
         11    1    4    4    0    0 -0.84475204927E-02  0.19532978003E-01  0.70393705340E-03  0.21299166193E-01  0.51100000000E-03 0.  1.
</event>
<event>
 8    1  0.1103774E+005  0.1043930E+01  0.7957747E-01            NaN
         13   -1    0    0    0    0  0.00000000000E+00  0.00000000000E+00  0.74505805969E-08  0.10566000000E+00  0.10566000000E+00 0.  1.
     999900   -1    0    0    0    0 -0.00000000000E+00 -0.00000000000E+00 -0.74505805969E-08  0.93827000000E+00  0.93827000000E+00 0.  1.
     999902    2    1    2    0    0 -0.14067988962E-01  0.42396603470E-02 -0.18502560058E-01  0.10203031559E+01  0.10200295595E+01 0.  0.
     999903    2    3    3    0    0  0.39914589362E-01  0.53538210318E-01  0.10777783740E+00  0.12828790683E+00  0.19550201952E-01 0.  0.
         14    1    1    2    0    0  0.14067988962E-01 -0.42396603470E-02  0.18502560058E-01  0.23626844097E-01  0.00000000000E+00 0.  1.
     999901    1    3    3    0    0 -0.53982578323E-01 -0.49298549971E-01 -0.12628039746E+00  0.89201524907E+00  0.88000000000E+00 0.  1.
        -11    1    4    4    0    0  0.26814867983E-01  0.20196752975E-01  0.47510233149E-01  0.58175848516E-01  0.51100000000E-03 0.  1.
         11    1    4    4    0    0  0.13099721378E-01  0.33341457342E-01  0.60267604254E-01  0.70112058317E-01  0.51100000000E-03 0. -1.
</event>
<event>
 8    1  0.1103774E+005  0.1043930E+01  0.7957747E-01            NaN
         13   -1    0    0    0    0  0.00000000000E+00  0.00000000000E+00  0.74505805969E-08  0.10566000000E+00  0.10566000000E+00 0. -1.
     999900   -1    0    0    0    0 -0.00000000000E+00 -0.00000000000E+00 -0.74505805969E-08  0.93827000000E+00  0.93827000000E+00 0. -1.
     999902    2    1    2    0    0  0.85202649591E-02  0.11163244908E-01  0.18725662030E-01  0.10205235186E+01  0.10202550606E+01 0.  0.
     999903    2    3    3    0    0 -0.93999967048E-01 -0.32385759308E-01  0.83132328414E-01  0.13116693524E+00  0.20222503835E-01 0.  0.
         14    1    1    2    0    0 -0.85202649591E-02 -0.11163244908E-01 -0.18725662030E-01  0.23406481374E-01  0.00000000000E+00 0.  1.
     999901    1    3    3    0    0  0.10252023201E+00  0.43549004217E-01 -0.64406666383E-01  0.88935658339E+00  0.88000000000E+00 0.  1.
        -11    1    4    4    0    0 -0.81811200697E-01 -0.28870544812E-01  0.62441137130E-01  0.10689124213E+00  0.51100000000E-03 0. -1.
         11    1    4    4    0    0 -0.12188766352E-01 -0.35152144969E-02  0.20691191284E-01  0.24275693108E-01  0.51100000000E-03 0.  1.
</event>
<event>
 8    1  0.1103774E+005  0.1043930E+01  0.7957747E-01            NaN
         13   -1    0    0    0    0  0.00000000000E+00  0.00000000000E+00  0.74505805969E-08  0.10566000000E+00  0.10566000000E+00 0. -1.
     999900   -1    0    0    0    0 -0.00000000000E+00 -0.00000000000E+00 -0.74505805969E-08  0.93827000000E+00  0.93827000000E+00 0. -1.
     999902    2    1    2    0    0  0.16881395116E-01  0.15459083531E-02  0.15228854172E-01  0.10211420792E+01  0.10208877787E+01 0.  0.
     999903    2    3    3    0    0  0.74481410027E-01 -0.57719252798E-01  0.92576953627E-01  0.13389191747E+00  0.21853160844E-01 0.  0.
         14    1    1    2    0    0 -0.16881395116E-01 -0.15459083531E-02 -0.15228854172E-01  0.22787920772E-01  0.00000000000E+00 0.  1.
     999901    1    3    3    0    0 -0.57600014911E-01  0.59265161151E-01 -0.77348099454E-01  0.88725016175E+00  0.88000000000E+00 0. -1.
        -11    1    4    4    0    0  0.41618420824E-01 -0.18536175888E-01  0.45116822420E-01  0.64120757596E-01  0.51100000000E-03 0.  1.
         11    1    4    4    0    0  0.32862989202E-01 -0.39183076910E-01  0.47460131207E-01  0.69771159878E-01  0.51100000000E-03 0. -1.
</event>
<event>
 8    1  0.1103774E+005  0.1043930E+01  0.7957747E-01            NaN
         13   -1    0    0    0    0  0.00000000000E+00  0.00000000000E+00  0.74505805969E-08  0.10566000000E+00  0.10566000000E+00 0.  1.
     999900   -1    0    0    0    0 -0.00000000000E+00 -0.00000000000E+00 -0.74505805969E-08  0.93827000000E+00  0.93827000000E+00 0. -1.
     999902    2    1    2    0    0 -0.16260455991E-01  0.96221823455E-02  0.13598956893E-01  0.10206508151E+01  0.10203853027E+01 0.  0.
     999903    2    3    3    0    0  0.65208075714E-01 -0.86733423274E-01 -0.64032054840E-01  0.12826743425E+00  0.24034366874E-01 0.  0.
         14    1    1    2    0    0  0.16260455991E-01 -0.96221823455E-02 -0.13598956893E-01  0.23279184923E-01  0.00000000000E+00 0. -1.
     999901    1    3    3    0    0 -0.81468531705E-01  0.96355605620E-01  0.77631011733E-01  0.89238338083E+00  0.88000000000E+00 0.  1.
        -11    1    4    4    0    0  0.21937556015E-01 -0.41575277541E-01 -0.16915828827E-01  0.49961649817E-01  0.51100000000E-03 0.  1.
         11    1    4    4    0    0  0.43270519699E-01 -0.45158145733E-01 -0.47116226013E-01  0.78305784434E-01  0.51100000000E-03 0. -1.
</event>
<event>
 8    1  0.1103774E+005  0.1043930E+01  0.7957747E-01            NaN
         13   -1    0    0    0    0  0.00000000000E+00  0.00000000000E+00  0.74505805969E-08  0.10566000000E+00  0.10566000000E+00 0.  1.
     999900   -1    0    0    0    0 -0.00000000000E+00 -0.00000000000E+00 -0.74505805969E-08  0.93827000000E+00  0.93827000000E+00 0.  1.
     999902    2    1    2    0    0  0.31452846488E-02  0.17474482214E-01 -0.16594064008E-01  0.10196274630E+01  0.10193377998E+01 0.  0.
     999903    2    3    3    0    0  0.12063252884E+00 -0.37545463201E-01 -0.24618438045E-01  0.13007991648E+00  0.18784258276E-01 0.  0.
         14    1    1    2    0    0 -0.31452846488E-02 -0.17474482214E-01  0.16594064008E-01  0.24302536996E-01  0.00000000000E+00 0. -1.
     999901    1    3    3    0    0 -0.11748724419E+00  0.55019945415E-01  0.80243740365E-02  0.88954754652E+00  0.88000000000E+00 0. -1.
        -11    1    4    4    0    0  0.77963610489E-01 -0.16208547173E-01 -0.20278961555E-01  0.82173833820E-01  0.51100000000E-03 0. -1.
         11    1    4    4    0    0  0.42668918352E-01 -0.21336916028E-01 -0.43394764896E-02  0.47906082663E-01  0.51100000000E-03 0.  1.
</event>
<event>
 8    1  0.1103774E+005  0.1043930E+01  0.7957747E-01            NaN
         13   -1    0    0    0    0  0.00000000000E+00  0.00000000000E+00  0.74505805969E-08  0.10566000000E+00  0.10566000000E+00 0.  1.
     999900   -1    0    0    0    0 -0.00000000000E+00 -0.00000000000E+00 -0.74505805969E-08  0.93827000000E+00  0.93827000000E+00 0.  1.
     999902    2    1    2    0    0  0.12927683547E-01 -0.85041165814E-02 -0.13616776836E-01  0.10233178285E+01  0.10231102172E+01 0.  0.
     999903    2    3    3    0    0 -0.58663691777E-01  0.96928954325E-01 -0.61426487780E-01  0.13285321615E+00  0.32250778617E-01 0.  0.
         14    1    1    2    0    0 -0.12927683547E-01  0.85041165814E-02  0.13616776836E-01  0.20612171456E-01  0.00000000000E+00 0.  1.
     999901    1    3    3    0    0  0.71591375325E-01 -0.10543307091E+00  0.47809710944E-01  0.89046461239E+00  0.88000000000E+00 0. -1.
        -11    1    4    4    0    0 -0.10804989013E-01  0.16545177082E-01 -0.26349213688E-01  0.32939836903E-01  0.51100000000E-03 0. -1.
         11    1    4    4    0    0 -0.47858702764E-01  0.80383777243E-01 -0.35077274093E-01  0.99913379249E-01  0.51100000000E-03 0.  1.
</event>
<event>
 8    1  0.1103774E+005  0.1043930E+01  0.7957747E-01            NaN
         13   -1    0    0    0    0  0.00000000000E+00  0.00000000000E+00  0.74505805969E-08  0.10566000000E+00  0.10566000000E+00 0. -1.
     999900   -1    0    0    0    0 -0.00000000000E+00 -0.00000000000E+00 -0.74505805969E-08  0.93827000000E+00  0.93827000000E+00 0. -1.
     999902    2    1    2    0    0 -0.18679981677E-02  0.21846697589E-01  0.79474404199E-02  0.10206077055E+01  0.10203411974E+01 0.  0.
     999903    2    3    3    0    0 -0.80078665145E-01 -0.72948035064E-01  0.67701686470E-01  0.13006095224E+00  0.24460672861E-01 0.  0.
         14    1    1    2    0    0  0.18679981677E-02 -0.21846697589E-01 -0.79474404199E-02  0.23322294526E-01  0.00000000000E+00 0.  1.
     999901    1    3    3    0    0  0.78210666977E-01  0.94794732653E-01 -0.59754246050E-01  0.89054675323E+00  0.88000000000E+00 0.  1.
        -11    1    4    4    0    0 -0.19008995757E-01 -0.54557828349E-02  0.88638573452E-02  0.21678020529E-01  0.51100000000E-03 0. -1.
         11    1    4    4    0    0 -0.61069669388E-01 -0.67492252229E-01  0.58837829125E-01  0.10838293172E+00  0.51100000000E-03 0.  1.
</event>
<event>
 8    1  0.1103774E+005  0.1043930E+01  0.7957747E-01            NaN
         13   -1    0    0    0    0  0.00000000000E+00  0.00000000000E+00  0.74505805969E-08  0.10566000000E+00  0.10566000000E+00 0. -1.
     999900   -1    0    0    0    0 -0.00000000000E+00 -0.00000000000E+00 -0.74505805969E-08  0.93827000000E+00  0.93827000000E+00 0.  1.
     999902    2    1    2    0    0  0.70481555882E-02 -0.49028918259E-02 -0.16704484726E-01  0.10251482361E+01  0.10249761711E+01 0.  0.
     999903    2    3    3    0    0  0.71921709296E-01  0.55636643668E-01  0.95790744912E-01  0.13356044456E+00  0.19858427747E-01 0.  0.
         14    1    1    2    0    0 -0.70481555882E-02  0.49028918259E-02  0.16704484726E-01  0.18781763906E-01  0.00000000000E+00 0. -1.
     999901    1    3    3    0    0 -0.64873553708E-01 -0.60539535494E-01 -0.11249522964E+00  0.89158779154E+00  0.88000000000E+00 0.  1.
        -11    1    4    4    0    0  0.13359102474E-01  0.20366902222E-01  0.30396859711E-01  0.38955186128E-01  0.51100000000E-03 0.  1.
         11    1    4    4    0    0  0.58562606822E-01  0.35269741446E-01  0.65393885202E-01  0.94605258428E-01  0.51100000000E-03 0. -1.
</event>
<event>
 8    1  0.1103774E+005  0.1043930E+01  0.7957747E-01            NaN
         13   -1    0    0    0    0  0.00000000000E+00  0.00000000000E+00  0.74505805969E-08  0.10566000000E+00  0.10566000000E+00 0.  1.
     999900   -1    0    0    0    0 -0.00000000000E+00 -0.00000000000E+00 -0.74505805969E-08  0.93827000000E+00  0.93827000000E+00 0.  1.
     999902    2    1    2    0    0 -0.13976798483E-01  0.41058053554E-02 -0.17801014991E-01  0.10209281595E+01  0.10206690071E+01 0.  0.
     999903    2    3    3    0    0 -0.31720667488E-01  0.12327558526E+00  0.27255331317E-01  0.13157651041E+00  0.19142997170E-01 0.  0.
         14    1    1    2    0    0  0.13976798483E-01 -0.41058053554E-02  0.17801014991E-01  0.23001840538E-01  0.00000000000E+00 0.  1.
     999901    1    3    3    0    0  0.17743869005E-01 -0.11916977990E+00 -0.45056346307E-01  0.88935164905E+00  0.88000000000E+00 0. -1.
        -11    1    4    4    0    0 -0.11617526488E-01  0.62026727700E-01  0.22257543749E-01  0.66917421092E-01  0.51100000000E-03 0.  1.
         11    1    4    4    0    0 -0.20103141000E-01  0.61248857555E-01  0.49977875677E-02  0.64659089318E-01  0.51100000000E-03 0. -1.
</event>
<event>
 8    1  0.1103774E+005  0.1043930E+01  0.7957747E-01            NaN
         13   -1    0    0    0    0  0.00000000000E+00  0.00000000000E+00  0.74505805969E-08  0.10566000000E+00  0.10566000000E+00 0.  1.
     999900   -1    0    0    0    0 -0.00000000000E+00 -0.00000000000E+00 -0.74505805969E-08  0.93827000000E+00  0.93827000000E+00 0. -1.
     999902    2    1    2    0    0  0.18592604190E-01  0.66425716944E-02  0.12227811016E-01  0.10207065625E+01  0.10204423348E+01 0.  0.
     999903    2    3    3    0    0  0.33850688460E-01 -0.12201446740E+00 -0.24402134631E-01  0.13046659718E+00  0.19815888594E-01 0.  0.
         14    1    1    2    0    0 -0.18592604190E-01 -0.66425716944E-02 -0.12227811016E-01  0.23223437547E-01  0.00000000000E+00 0.  1.
     999901    1    3    3    0    0 -0.15258084271E-01  0.12865703910E+00  0.36629945647E-01  0.89023996527E+00  0.88000000000E+00 0. -1.
        -11    1    4    4    0    0  0.27525592934E-01 -0.86769787258E-01 -0.89757717903E-02  0.91473929878E-01  0.51100000000E-03 0. -1.
         11    1    4    4    0    0  0.63250955259E-02 -0.35244680147E-01 -0.15426362840E-01  0.38992667305E-01  0.51100000000E-03 0.  1.
</event>
<event>
 8    1  0.1103774E+005  0.1043930E+01  0.7957747E-01            NaN
         13   -1    0    0    0    0  0.00000000000E+00  0.00000000000E+00  0.74505805969E-08  0.10566000000E+00  0.10566000000E+00 0.  1.
     999900   -1    0    0    0    0 -0.00000000000E+00 -0.00000000000E+00 -0.74505805969E-08  0.93827000000E+00  0.93827000000E+00 0. -1.
     999902    2    1    2    0    0 -0.21880766638E-01 -0.29422319034E-02  0.74588693134E-02  0.10206263649E+01  0.10203602880E+01 0.  0.
     999903    2    3    3    0    0 -0.56478179940E-01 -0.11236973204E+00 -0.35146482043E-01  0.13215206885E+00  0.20301542134E-01 0.  0.
         14    1    1    2    0    0  0.21880766638E-01  0.29422319034E-02 -0.74588693134E-02  0.23303635095E-01  0.00000000000E+00 0. -1.
     999901    1    3    3    0    0  0.34597413303E-01  0.10942750013E+00  0.42605351356E-01  0.88847429606E+00  0.88000000000E+00 0.  1.
        -11    1    4    4    0    0 -0.20754436282E-01 -0.62142721936E-01 -0.14088228107E-01  0.67016444304E-01  0.51100000000E-03 0. -1.
         11    1    4    4    0    0 -0.35723743659E-01 -0.50227010100E-01 -0.21058253936E-01  0.65135624542E-01  0.51100000000E-03 0.  1.
</event>
<event>
 8    1  0.1103774E+005  0.1043930E+01  0.7957747E-01            NaN
         13   -1    0    0    0    0  0.00000000000E+00  0.00000000000E+00  0.74505805969E-08  0.10566000000E+00  0.10566000000E+00 0. -1.
     999900   -1    0    0    0    0 -0.00000000000E+00 -0.00000000000E+00 -0.74505805969E-08  0.93827000000E+00  0.93827000000E+00 0.  1.
     999902    2    1    2    0    0  0.25895155366E-02  0.51822632462E-02 -0.24006883028E-01  0.10192340109E+01  0.10189347757E+01 0.  0.
     999903    2    3    3    0    0 -0.41077026073E-01 -0.96068079999E-01  0.70136301685E-01  0.12737004256E+00  0.19688292509E-01 0.  0.
         14    1    1    2    0    0 -0.25895155366E-02 -0.51822632462E-02  0.24006883028E-01  0.24695989062E-01  0.00000000000E+00 0. -1.
     999901    1    3    3    0    0  0.43666541609E-01  0.10125034324E+00 -0.94143184713E-01  0.89186396838E+00  0.88000000000E+00 0.  1.
        -11    1    4    4    0    0 -0.28422265821E-01 -0.82142405876E-01  0.62485929020E-01  0.10705116760E+00  0.51100000000E-03 0. -1.
         11    1    4    4    0    0 -0.12654760252E-01 -0.13925674123E-01  0.76503726646E-02  0.20318874962E-01  0.51100000000E-03 0.  1.
</event>
<event>
 8    1  0.1103774E+005  0.1043930E+01  0.7957747E-01            NaN
         13   -1    0    0    0    0  0.00000000000E+00  0.00000000000E+00  0.74505805969E-08  0.10566000000E+00  0.10566000000E+00 0. -1.
     999900   -1    0    0    0    0 -0.00000000000E+00 -0.00000000000E+00 -0.74505805969E-08  0.93827000000E+00  0.93827000000E+00 0.  1.
     999902    2    1    2    0    0  0.20491760341E-02 -0.22282032635E-01 -0.59970681401E-02  0.10207642294E+01  0.10205013273E+01 0.  0.
     999903    2    3    3    0    0  0.57804781127E-01  0.92290892493E-01 -0.67320626027E-01  0.12947515093E+00  0.19306642908E-01 0.  0.
         14    1    1    2    0    0 -0.20491760341E-02  0.22282032635E-01  0.59970681401E-02  0.23165770590E-01  0.00000000000E+00 0. -1.
     999901    1    3    3    0    0 -0.55755605093E-01 -0.11457292513E+00  0.61323557887E-01  0.89128907848E+00  0.88000000000E+00 0.  1.
        -11    1    4    4    0    0  0.34904026136E-01  0.46068686621E-01 -0.45066040252E-01  0.73292728373E-01  0.51100000000E-03 0.  1.
         11    1    4    4    0    0  0.22900754991E-01  0.46222205873E-01 -0.22254585776E-01  0.56182422553E-01  0.51100000000E-03 0. -1.
</event>
<event>
 8    1  0.1103774E+005  0.1043930E+01  0.7957747E-01            NaN
         13   -1    0    0    0    0  0.00000000000E+00  0.00000000000E+00  0.74505805969E-08  0.10566000000E+00  0.10566000000E+00 0. -1.
     999900   -1    0    0    0    0 -0.00000000000E+00 -0.00000000000E+00 -0.74505805969E-08  0.93827000000E+00  0.93827000000E+00 0.  1.
     999902    2    1    2    0    0  0.23454468600E-01 -0.15210144815E-02  0.47618881831E-02  0.10199487331E+01  0.10196667676E+01 0.  0.
     999903    2    3    3    0    0 -0.29721842777E-01 -0.64681762609E-01  0.10705249054E+00  0.13018451293E+00  0.20509834782E-01 0.  0.
         14    1    1    2    0    0 -0.23454468600E-01  0.15210144815E-02 -0.47618881831E-02  0.23981266885E-01  0.00000000000E+00 0.  1.
     999901    1    3    3    0    0  0.53176311377E-01  0.63160748128E-01 -0.10229060236E+00  0.88976422019E+00  0.88000000000E+00 0.  1.
        -11    1    4    4    0    0 -0.25708446156E-01 -0.31912097623E-01  0.56296123631E-01  0.69633474962E-01  0.51100000000E-03 0.  1.
         11    1    4    4    0    0 -0.40133966214E-02 -0.32769664986E-01  0.50756366909E-01  0.60551037964E-01  0.51100000000E-03 0. -1.
</event>
<event>
 8    1  0.1103774E+005  0.1043930E+01  0.7957747E-01            NaN
         13   -1    0    0    0    0  0.00000000000E+00  0.00000000000E+00  0.74505805969E-08  0.10566000000E+00  0.10566000000E+00 0. -1.
     999900   -1    0    0    0    0 -0.00000000000E+00 -0.00000000000E+00 -0.74505805969E-08  0.93827000000E+00  0.93827000000E+00 0. -1.
     999902    2    1    2    0    0  0.16317544282E-01  0.39337070046E-03  0.16981750290E-01  0.10203758744E+01  0.10201039791E+01 0.  0.
     999903    2    3    3    0    0  0.39798997152E-01 -0.93948454033E-01 -0.77969490317E-01  0.12994480088E+00  0.19903207418E-01 0.  0.
         14    1    1    2    0    0 -0.16317544282E-01 -0.39337070046E-03 -0.16981750290E-01  0.23554125644E-01  0.00000000000E+00 0.  1.
     999901    1    3    3    0    0 -0.23481452870E-01  0.94341824733E-01  0.94951240607E-01  0.89043107348E+00  0.88000000000E+00 0.  1.
        -11    1    4    4    0    0  0.31700937509E-01 -0.59303475746E-01 -0.41652203616E-01  0.79101320227E-01  0.51100000000E-03 0.  1.
         11    1    4    4    0    0  0.80980596430E-02 -0.34644978287E-01 -0.36317286700E-01  0.50843480651E-01  0.51100000000E-03 0. -1.
</event>
<event>
 8    1  0.1103774E+005  0.1043930E+01  0.7957747E-01            NaN
         13   -1    0    0    0    0  0.00000000000E+00  0.00000000000E+00  0.74505805969E-08  0.10566000000E+00  0.10566000000E+00 0.  1.
     999900   -1    0    0    0    0 -0.00000000000E+00 -0.00000000000E+00 -0.74505805969E-08  0.93827000000E+00  0.93827000000E+00 0. -1.
     999902    2    1    2    0    0 -0.32008082985E-02 -0.22163581449E-01 -0.40494041357E-02  0.10211733045E+01  0.10209197082E+01 0.  0.
     999903    2    3    3    0    0  0.97708155559E-01 -0.72187494236E-01  0.48724186669E-01  0.13242696120E+00  0.20123014161E-01 0.  0.
         14    1    1    2    0    0  0.32008082985E-02  0.22163581449E-01  0.40494041357E-02  0.22756695504E-01  0.00000000000E+00 0. -1.
     999901    1    3    3    0    0 -0.10090896386E+00  0.50023912787E-01 -0.52773590805E-01  0.88874634330E+00  0.88000000000E+00 0. -1.
        -11    1    4    4    0    0  0.23019651845E-01 -0.23950628736E-01  0.20950878995E-01  0.39277696465E-01  0.51100000000E-03 0.  1.
         11    1    4    4    0    0  0.74688503714E-01 -0.48236865500E-01  0.27773307675E-01  0.93149264734E-01  0.51100000000E-03 0. -1.
</event>
<event>
 8    1  0.1103774E+005  0.1043930E+01  0.7957747E-01            NaN
         13   -1    0    0    0    0  0.00000000000E+00  0.00000000000E+00  0.74505805969E-08  0.10566000000E+00  0.10566000000E+00 0. -1.
     999900   -1    0    0    0    0 -0.00000000000E+00 -0.00000000000E+00 -0.74505805969E-08  0.93827000000E+00  0.93827000000E+00 0. -1.
     999902    2    1    2    0    0 -0.17081242010E-01 -0.15731368569E-01  0.41489255106E-02  0.10203406302E+01  0.10200679111E+01 0.  0.
     999903    2    3    3    0    0 -0.69887171596E-01 -0.52124284336E-03 -0.10951046146E+00  0.13133091686E+00  0.19255651312E-01 0.  0.
         14    1    1    2    0    0  0.17081242010E-01  0.15731368569E-01 -0.41489255106E-02  0.23589369820E-01  0.00000000000E+00 0.  1.
     999901    1    3    3    0    0  0.52805929586E-01 -0.15210125725E-01  0.11365938697E+00  0.88900971332E+00  0.88000000000E+00 0.  1.
        -11    1    4    4    0    0 -0.26306643258E-01 -0.13205550121E-02 -0.58980773571E-01  0.64597028701E-01  0.51100000000E-03 0.  1.
         11    1    4    4    0    0 -0.43580528338E-01  0.79931216878E-03 -0.50529687888E-01  0.66733888162E-01  0.51100000000E-03 0. -1.
</event>
<event>
 8    1  0.1103774E+005  0.1043930E+01  0.7957747E-01            NaN
         13   -1    0    0    0    0  0.00000000000E+00  0.00000000000E+00  0.74505805969E-08  0.10566000000E+00  0.10566000000E+00 0.  1.
     999900   -1    0    0    0    0 -0.00000000000E+00 -0.00000000000E+00 -0.74505805969E-08  0.93827000000E+00  0.93827000000E+00 0.  1.
     999902    2    1    2    0    0 -0.22998915109E-01 -0.51517405429E-02  0.42192631601E-02  0.10199864683E+01  0.10197054000E+01 0.  0.
     999903    2    3    3    0    0  0.69566995912E-01  0.10378445396E+00 -0.25539768245E-01  0.12795443847E+00  0.10453648145E-01 0.  0.
         14    1    1    2    0    0  0.22998915109E-01  0.51517405429E-02 -0.42192631601E-02  0.23943531662E-01  0.00000000000E+00 0.  1.
     999901    1    3    3    0    0 -0.92565911021E-01 -0.10893619450E+00  0.29759031405E-01  0.89203202987E+00  0.88000000000E+00 0.  1.
        -11    1    4    4    0    0  0.31236881632E-01  0.46279933047E-01 -0.61473893361E-02  0.56174963228E-01  0.51100000000E-03 0. -1.
         11    1    4    4    0    0  0.38330114280E-01  0.57504520910E-01 -0.19392378909E-01  0.71779475246E-01  0.51100000000E-03 0.  1.
</event>
<event>
 8    1  0.1103774E+005  0.1043930E+01  0.7957747E-01            NaN
         13   -1    0    0    0    0  0.00000000000E+00  0.00000000000E+00  0.74505805969E-08  0.10566000000E+00  0.10566000000E+00 0. -1.
     999900   -1    0    0    0    0 -0.00000000000E+00 -0.00000000000E+00 -0.74505805969E-08  0.93827000000E+00  0.93827000000E+00 0. -1.
     999902    2    1    2    0    0 -0.92160984926E-02 -0.18483154754E-01  0.17112164170E-01  0.10171085600E+01  0.10167548540E+01 0.  0.
     999903    2    3    3    0    0 -0.24357772415E-01 -0.10173571185E-01  0.12599042864E+00  0.13023044214E+00  0.19737713198E-01 0.  0.
         14    1    1    2    0    0  0.92160984926E-02  0.18483154754E-01 -0.17112164170E-01  0.26821440000E-01  0.00000000000E+00 0. -1.
     999901    1    3    3    0    0  0.15141673922E-01 -0.83095835694E-02 -0.10887826447E+00  0.88687811786E+00  0.88000000000E+00 0. -1.
        -11    1    4    4    0    0 -0.68921079101E-02 -0.12383298450E-01  0.39591712413E-01  0.42054869454E-01  0.51100000000E-03 0.  1.
         11    1    4    4    0    0 -0.17465664505E-01  0.22097272653E-02  0.86398716229E-01  0.88175572684E-01  0.51100000000E-03 0. -1.
</event>
<event>
 8    1  0.1103774E+005  0.1043930E+01  0.7957747E-01            NaN
         13   -1    0    0    0    0  0.00000000000E+00  0.00000000000E+00  0.74505805969E-08  0.10566000000E+00  0.10566000000E+00 0. -1.
     999900   -1    0    0    0    0 -0.00000000000E+00 -0.00000000000E+00 -0.74505805969E-08  0.93827000000E+00  0.93827000000E+00 0. -1.
     999902    2    1    2    0    0 -0.16136966499E-01  0.13068395562E-01 -0.11852753183E-01  0.10200203281E+01  0.10197400637E+01 0.  0.
     999903    2    3    3    0    0 -0.71577564571E-01 -0.61491074169E-01  0.86690896828E-01  0.12965881426E+00  0.19788799123E-01 0.  0.
         14    1    1    2    0    0  0.16136966499E-01 -0.13068395562E-01  0.11852753183E-01  0.23909671858E-01  0.00000000000E+00 0. -1.
     999901    1    3    3    0    0  0.55440598072E-01  0.74559469730E-01 -0.98543650011E-01  0.89036151388E+00  0.88000000000E+00 0.  1.
        -11    1    4    4    0    0 -0.42424560132E-01 -0.46763441118E-01  0.50062222738E-01  0.80580084352E-01  0.51100000000E-03 0. -1.
         11    1    4    4    0    0 -0.29153004438E-01 -0.14727633051E-01  0.36628674090E-01  0.49078729910E-01  0.51100000000E-03 0.  1.
</event>
<event>
 8    1  0.1103774E+005  0.1043930E+01  0.7957747E-01            NaN
         13   -1    0    0    0    0  0.00000000000E+00  0.00000000000E+00  0.74505805969E-08  0.10566000000E+00  0.10566000000E+00 0.  1.
     999900   -1    0    0    0    0 -0.00000000000E+00 -0.00000000000E+00 -0.74505805969E-08  0.93827000000E+00  0.93827000000E+00 0.  1.
     999902    2    1    2    0    0 -0.17102359724E-01  0.11339804693E-01  0.11398767519E-01  0.10204563173E+01  0.10201862976E+01 0.  0.
     999903    2    3    3    0    0 -0.69801594327E-03  0.51681829994E-01 -0.11741625101E+00  0.13001266917E+00  0.21100221896E-01 0.  0.
         14    1    1    2    0    0  0.17102359724E-01 -0.11339804693E-01 -0.11398767519E-01  0.23473682701E-01  0.00000000000E+00 0. -1.
     999901    1    3    3    0    0 -0.16404343781E-01 -0.40342025302E-01  0.12881501853E+00  0.89044364813E+00  0.88000000000E+00 0. -1.
        -11    1    4    4    0    0 -0.63156274372E-02  0.11666224854E-01 -0.46846918536E-01  0.48691712329E-01  0.51100000000E-03 0. -1.
         11    1    4    4    0    0  0.56176114939E-02  0.40015605140E-01 -0.70569332476E-01  0.81320956837E-01  0.51100000000E-03 0.  1.
</event>
<event>
 8    1  0.1103774E+005  0.1043930E+01  0.7957747E-01            NaN
         13   -1    0    0    0    0  0.00000000000E+00  0.00000000000E+00  0.74505805969E-08  0.10566000000E+00  0.10566000000E+00 0. -1.
     999900   -1    0    0    0    0 -0.00000000000E+00 -0.00000000000E+00 -0.74505805969E-08  0.93827000000E+00  0.93827000000E+00 0. -1.
     999902    2    1    2    0    0 -0.13488344822E-01 -0.19861312629E-01  0.97337682336E-03  0.10199017947E+01  0.10196187112E+01 0.  0.
     999903    2    3    3    0    0  0.79671010239E-01 -0.10201055457E+00 -0.80068903201E-02  0.13113421625E+00  0.19453772423E-01 0.  0.
         14    1    1    2    0    0  0.13488344822E-01  0.19861312629E-01 -0.97337682336E-03  0.24028205256E-01  0.00000000000E+00 0.  1.
     999901    1    3    3    0    0 -0.93159355061E-01  0.82149241946E-01  0.89802671435E-02  0.88876757850E+00  0.88000000000E+00 0. -1.
        -11    1    4    4    0    0  0.49455121832E-01 -0.75466614724E-01 -0.10481299469E-01  0.90835773640E-01  0.51100000000E-03 0. -1.
         11    1    4    4    0    0  0.30215888407E-01 -0.26543939850E-01  0.24744091494E-02  0.40298442608E-01  0.51100000000E-03 0.  1.
</event>
<event>
 8    1  0.1103774E+005  0.1043930E+01  0.7957747E-01            NaN
         13   -1    0    0    0    0  0.00000000000E+00  0.00000000000E+00  0.74505805969E-08  0.10566000000E+00  0.10566000000E+00 0.  1.
     999900   -1    0    0    0    0 -0.00000000000E+00 -0.00000000000E+00 -0.74505805969E-08  0.93827000000E+00  0.93827000000E+00 0. -1.
     999902    2    1    2    0    0 -0.10796599980E-01 -0.56364543032E-02  0.29039569660E-01  0.10124397984E+01  0.10119499556E+01 0.  0.
     999903    2    3    3    0    0  0.25171034286E-01 -0.11162719228E+00  0.47657935868E-01  0.12515497900E+00  0.17270752582E-01 0.  0.
         14    1    1    2    0    0  0.10796599980E-01  0.56364543032E-02 -0.29039569660E-01  0.31490201560E-01  0.00000000000E+00 0. -1.
     999901    1    3    3    0    0 -0.35967634267E-01  0.10599073797E+00 -0.18618366208E-01  0.88728481944E+00  0.88000000000E+00 0.  1.
        -11    1    4    4    0    0  0.69842549585E-02 -0.32834371133E-01  0.57052470921E-02  0.34054173172E-01  0.51100000000E-03 0. -1.
         11    1    4    4    0    0  0.18186779328E-01 -0.78792821142E-01  0.41952688775E-01  0.91100805827E-01  0.51100000000E-03 0.  1.
</event>
<event>
 8    1  0.1103774E+005  0.1043930E+01  0.7957747E-01            NaN
         13   -1    0    0    0    0  0.00000000000E+00  0.00000000000E+00  0.74505805969E-08  0.10566000000E+00  0.10566000000E+00 0.  1.
     999900   -1    0    0    0    0 -0.00000000000E+00 -0.00000000000E+00 -0.74505805969E-08  0.93827000000E+00  0.93827000000E+00 0.  1.
     999902    2    1    2    0    0  0.11143417514E-01 -0.21997311502E-03 -0.22300839980E-01  0.10189990633E+01  0.10186940362E+01 0.  0.
     999903    2    3    3    0    0  0.97688144834E-01 -0.82103589359E-01  0.13905471543E-01  0.13023260721E+00  0.21981738218E-01 0.  0.
         14    1    1    2    0    0 -0.11143417514E-01  0.21997311502E-03  0.22300839980E-01  0.24930936723E-01  0.00000000000E+00 0.  1.
     999901    1    3    3    0    0 -0.86544727320E-01  0.81883616244E-01 -0.36206311523E-01  0.88876645607E+00  0.88000000000E+00 0.  1.
        -11    1    4    4    0    0  0.46210923457E-01 -0.46409448199E-01 -0.22708547696E-02  0.65533992945E-01  0.51100000000E-03 0. -1.
         11    1    4    4    0    0  0.51477221377E-01 -0.35694141160E-01  0.16176326313E-01  0.64698614265E-01  0.51100000000E-03 0.  1.
</event>
<event>
 8    1  0.1103774E+005  0.1043930E+01  0.7957747E-01            NaN
         13   -1    0    0    0    0  0.00000000000E+00  0.00000000000E+00  0.74505805969E-08  0.10566000000E+00  0.10566000000E+00 0. -1.
     999900   -1    0    0    0    0 -0.00000000000E+00 -0.00000000000E+00 -0.74505805969E-08  0.93827000000E+00  0.93827000000E+00 0. -1.
     999902    2    1    2    0    0  0.17363457044E-01  0.76766911250E-03 -0.17975017450E-01  0.10189263961E+01  0.10186195661E+01 0.  0.
     999903    2    3    3    0    0 -0.74176469541E-01  0.87657760040E-01 -0.55563253917E-01  0.12912736171E+00  0.20014215617E-01 0.  0.
         14    1    1    2    0    0 -0.17363457044E-01 -0.76766911250E-03  0.17975017450E-01  0.25003603914E-01  0.00000000000E+00 0. -1.
     999901    1    3    3    0    0  0.91539926586E-01 -0.86890090927E-01  0.37588236467E-01  0.88979903438E+00  0.88000000000E+00 0.  1.
        -11    1    4    4    0    0 -0.36104754473E-01  0.31551747703E-01 -0.15619606198E-01  0.50431134208E-01  0.51100000000E-03 0. -1.
         11    1    4    4    0    0 -0.38071715068E-01  0.56106012337E-01 -0.39943647718E-01  0.78696227499E-01  0.51100000000E-03 0.  1.
</event>
<event>
 8    1  0.1103774E+005  0.1043930E+01  0.7957747E-01            NaN
         13   -1    0    0    0    0  0.00000000000E+00  0.00000000000E+00  0.74505805969E-08  0.10566000000E+00  0.10566000000E+00 0. -1.
     999900   -1    0    0    0    0 -0.00000000000E+00 -0.00000000000E+00 -0.74505805969E-08  0.93827000000E+00  0.93827000000E+00 0.  1.
     999902    2    1    2    0    0 -0.47280684258E-02 -0.80552227857E-03  0.23335493829E-01  0.10201067179E+01  0.10198284989E+01 0.  0.
     999903    2    3    3    0    0 -0.12389018254E+00 -0.38102283605E-01  0.37920621445E-02  0.13107769501E+00  0.19142127581E-01 0.  0.
         14    1    1    2    0    0  0.47280684258E-02  0.80552227857E-03 -0.23335493829E-01  0.23823282087E-01  0.00000000000E+00 0.  1.
     999901    1    3    3    0    0  0.11916211411E+00  0.37296761326E-01  0.19543431684E-01  0.88902902290E+00  0.88000000000E+00 0.  1.
        -11    1    4    4    0    0 -0.35110340338E-01 -0.92451040299E-02  0.95540924566E-02  0.37546634348E-01  0.51100000000E-03 0. -1.
         11    1    4    4    0    0 -0.88779842199E-01 -0.28857179575E-01 -0.57620303121E-02  0.93531060660E-01  0.51100000000E-03 0.  1.
</event>
<event>
 8    1  0.1103774E+005  0.1043930E+01  0.7957747E-01            NaN
         13   -1    0    0    0    0  0.00000000000E+00  0.00000000000E+00  0.74505805969E-08  0.10566000000E+00  0.10566000000E+00 0.  1.
     999900   -1    0    0    0    0 -0.00000000000E+00 -0.00000000000E+00 -0.74505805969E-08  0.93827000000E+00  0.93827000000E+00 0. -1.
     999902    2    1    2    0    0  0.14320609796E-03  0.18598105699E-01 -0.12646135042E-01  0.10214392291E+01  0.10211915902E+01 0.  0.
     999903    2    3    3    0    0 -0.64248148318E-01 -0.10997661732E+00 -0.14761770783E-01  0.12976542001E+00  0.19961799379E-01 0.  0.
         14    1    1    2    0    0 -0.14320609796E-03 -0.18598105699E-01  0.12646135042E-01  0.22490770887E-01  0.00000000000E+00 0.  1.
     999901    1    3    3    0    0  0.64391354416E-01  0.12857472302E+00  0.21156357415E-02  0.89167380910E+00  0.88000000000E+00 0.  1.
        -11    1    4    4    0    0 -0.22042965032E-01 -0.38398954039E-01 -0.14745393484E-01  0.46669687471E-01  0.51100000000E-03 0. -1.
         11    1    4    4    0    0 -0.42205183286E-01 -0.71577663282E-01 -0.16377298783E-04  0.83095732540E-01  0.51100000000E-03 0.  1.
</event>
<event>
 8    1  0.1297429E+005  0.1043930E+01  0.7957747E-01            NaN
         13   -1    0    0    0    0  0.00000000000E+00  0.00000000000E+00  0.74505805969E-08  0.10566000000E+00  0.10566000000E+00 0.  1.
     999900   -1    0    0    0    0 -0.00000000000E+00 -0.00000000000E+00 -0.74505805969E-08  0.93827000000E+00  0.93827000000E+00 0.  1.
     999902    2    1    2    0    0 -0.14021412062E-01 -0.18727010836E-01  0.16341979843E-01  0.10153929848E+01  0.10149918977E+01 0.  0.
     999903    2    3    3    0    0 -0.43720115166E-01  0.11072864718E+00  0.33293614513E-01  0.12526482646E+00  0.20261544962E-01 0.  0.
         14    1    1    2    0    0  0.14021412062E-01  0.18727010836E-01 -0.16341979843E-01  0.28537015196E-01  0.00000000000E+00 0. -1.
     999901    1    3    3    0    0  0.29698703104E-01 -0.12945565802E+00 -0.16951634669E-01  0.89012815834E+00  0.88000000000E+00 0.  1.
        -11    1    4    4    0    0 -0.17005401194E-01  0.49250754084E-01  0.24761528977E-01  0.57690682835E-01  0.51100000000E-03 0. -1.
         11    1    4    4    0    0 -0.26714713972E-01  0.61477893096E-01  0.85320855353E-02  0.67574143626E-01  0.51100000000E-03 0.  1.
</event>
<event>
 8    1  0.1103774E+005  0.1043930E+01  0.7957747E-01            NaN
         13   -1    0    0    0    0  0.00000000000E+00  0.00000000000E+00  0.74505805969E-08  0.10566000000E+00  0.10566000000E+00 0. -1.
     999900   -1    0    0    0    0 -0.00000000000E+00 -0.00000000000E+00 -0.74505805969E-08  0.93827000000E+00  0.93827000000E+00 0.  1.
     999902    2    1    2    0    0 -0.79567818469E-02 -0.21609700207E-01 -0.55509084252E-02  0.10202424061E+01  0.10199673843E+01 0.  0.
     999903    2    3    3    0    0  0.15498780506E-01  0.11400263752E+00 -0.53046936372E-01  0.12828010745E+00  0.20124486290E-01 0.  0.
         14    1    1    2    0    0  0.79567818469E-02  0.21609700207E-01  0.55509084252E-02  0.23687593900E-01  0.00000000000E+00 0.  1.
     999901    1    3    3    0    0 -0.23455562353E-01 -0.13561233773E+00  0.47496027947E-01  0.89196229865E+00  0.88000000000E+00 0. -1.
        -11    1    4    4    0    0 -0.35039337549E-02  0.47502708041E-01 -0.21686340604E-01  0.52338736255E-01  0.51100000000E-03 0.  1.
         11    1    4    4    0    0  0.19002714261E-01  0.66499929483E-01 -0.31360595768E-01  0.75941371191E-01  0.51100000000E-03 0. -1.
</event>
<event>
 8    1  0.1103774E+005  0.1043930E+01  0.7957747E-01            NaN
         13   -1    0    0    0    0  0.00000000000E+00  0.00000000000E+00  0.74505805969E-08  0.10566000000E+00  0.10566000000E+00 0. -1.
     999900   -1    0    0    0    0 -0.00000000000E+00 -0.00000000000E+00 -0.74505805969E-08  0.93827000000E+00  0.93827000000E+00 0. -1.
     999902    2    1    2    0    0 -0.63667097373E-02 -0.12228147724E-01 -0.18119101428E-01  0.10211623821E+01  0.10209085396E+01 0.  0.
     999903    2    3    3    0    0 -0.11750414469E+00 -0.55445244699E-01 -0.20470349257E-01  0.13311690166E+00  0.20485973965E-01 0.  0.
         14    1    1    2    0    0  0.63667097373E-02  0.12228147724E-01  0.18119101428E-01  0.22767617930E-01  0.00000000000E+00 0. -1.
     999901    1    3    3    0    0  0.11113743495E+00  0.43217096976E-01  0.23512478284E-02  0.88804548041E+00  0.88000000000E+00 0. -1.
        -11    1    4    4    0    0 -0.73563908759E-01 -0.44560154623E-01 -0.94723882008E-02  0.86528858257E-01  0.51100000000E-03 0. -1.
         11    1    4    4    0    0 -0.43940235928E-01 -0.10885090077E-01 -0.10997961056E-01  0.46588043399E-01  0.51100000000E-03 0.  1.
</event>
<event>
 8    1  0.1103774E+005  0.1043930E+01  0.7957747E-01            NaN
         13   -1    0    0    0    0  0.00000000000E+00  0.00000000000E+00  0.74505805969E-08  0.10566000000E+00  0.10566000000E+00 0. -1.
     999900   -1    0    0    0    0 -0.00000000000E+00 -0.00000000000E+00 -0.74505805969E-08  0.93827000000E+00  0.93827000000E+00 0. -1.
     999902    2    1    2    0    0  0.35488742597E-02 -0.19815457363E-01  0.12498155926E-01  0.10202350478E+01  0.10199598531E+01 0.  0.
     999903    2    3    3    0    0 -0.12422376649E+00 -0.13865352152E-01 -0.30833917837E-01  0.12993233517E+00  0.17546768439E-01 0.  0.
         14    1    1    2    0    0 -0.35488742597E-02  0.19815457363E-01 -0.12498155926E-01  0.23694952217E-01  0.00000000000E+00 0.  1.
     999901    1    3    3    0    0  0.12777264074E+00 -0.59501052118E-02  0.43332073763E-01  0.89030271262E+00  0.88000000000E+00 0. -1.
        -11    1    4    4    0    0 -0.67422765814E-01 -0.16100831578E-01 -0.15066117359E-01  0.70938812654E-01  0.51100000000E-03 0.  1.
         11    1    4    4    0    0 -0.56801000672E-01  0.22354794269E-02 -0.15767800478E-01  0.58993522513E-01  0.51100000000E-03 0. -1.
</event>
<event>
 8    1  0.1103774E+005  0.1043930E+01  0.7957747E-01            NaN
         13   -1    0    0    0    0  0.00000000000E+00  0.00000000000E+00  0.74505805969E-08  0.10566000000E+00  0.10566000000E+00 0. -1.
     999900   -1    0    0    0    0 -0.00000000000E+00 -0.00000000000E+00 -0.74505805969E-08  0.93827000000E+00  0.93827000000E+00 0. -1.
     999902    2    1    2    0    0 -0.15956419545E-01  0.10722532477E-01 -0.13706222348E-01  0.10203198209E+01  0.10200466148E+01 0.  0.
     999903    2    3    3    0    0  0.48684731310E-01  0.11997431720E+00 -0.87000896168E-02  0.13119694285E+00  0.19310784653E-01 0.  0.
         14    1    1    2    0    0  0.15956419545E-01 -0.10722532477E-01  0.13706222348E-01  0.23610179128E-01  0.00000000000E+00 0.  1.
     999901    1    3    3    0    0 -0.64641150855E-01 -0.10925178473E+00 -0.50061327316E-02  0.88912287802E+00  0.88000000000E+00 0.  1.
        -11    1    4    4    0    0  0.33103969944E-01  0.92714400377E-01  0.58573065571E-03  0.98450175545E-01  0.51100000000E-03 0.  1.
         11    1    4    4    0    0  0.15580761367E-01  0.27259916825E-01 -0.92858202725E-02  0.32746767309E-01  0.51100000000E-03 0. -1.
</event>
<event>
 8    1  0.1103774E+005  0.1043930E+01  0.7957747E-01            NaN
         13   -1    0    0    0    0  0.00000000000E+00  0.00000000000E+00  0.74505805969E-08  0.10566000000E+00  0.10566000000E+00 0.  1.
     999900   -1    0    0    0    0 -0.00000000000E+00 -0.00000000000E+00 -0.74505805969E-08  0.93827000000E+00  0.93827000000E+00 0.  1.
     999902    2    1    2    0    0 -0.54646454498E-02 -0.18106573712E-01  0.16876931315E-01  0.10185816042E+01  0.10182661455E+01 0.  0.
     999903    2    3    3    0    0  0.12479301488E+00  0.26934227334E-02 -0.20119436378E-01  0.12798156533E+00  0.19847877821E-01 0.  0.
         14    1    1    2    0    0  0.54646454498E-02  0.18106573712E-01 -0.16876931315E-01  0.25348395849E-01  0.00000000000E+00 0. -1.
     999901    1    3    3    0    0 -0.13025766033E+00 -0.20799996445E-01  0.36996367693E-01  0.89060003882E+00  0.88000000000E+00 0. -1.
        -11    1    4    4    0    0  0.33445131972E-01  0.91023791116E-02 -0.83273015867E-02  0.35651581042E-01  0.51100000000E-03 0.  1.
         11    1    4    4    0    0  0.91347882913E-01 -0.64089563782E-02 -0.11792134791E-01  0.92329984287E-01  0.51100000000E-03 0. -1.
</event>
<event>
 8    1  0.1103774E+005  0.1043930E+01  0.7957747E-01            NaN
         13   -1    0    0    0    0  0.00000000000E+00  0.00000000000E+00  0.74505805969E-08  0.10566000000E+00  0.10566000000E+00 0.  1.
     999900   -1    0    0    0    0 -0.00000000000E+00 -0.00000000000E+00 -0.74505805969E-08  0.93827000000E+00  0.93827000000E+00 0. -1.
     999902    2    1    2    0    0  0.74618968264E-02 -0.42816462398E-02  0.21623778978E-01  0.10206576942E+01  0.10203923405E+01 0.  0.
     999903    2    3    3    0    0  0.56238493434E-02 -0.70732812689E-01  0.11109287951E+00  0.13362677262E+00  0.21902694125E-01 0.  0.
         14    1    1    2    0    0 -0.74618968264E-02  0.42816462398E-02 -0.21623778978E-01  0.23272305775E-01  0.00000000000E+00 0. -1.
     999901    1    3    3    0    0  0.18380474830E-02  0.66451166449E-01 -0.89469100531E-01  0.88703092161E+00  0.88000000000E+00 0. -1.
        -11    1    4    4    0    0  0.13072825461E-01 -0.52305101538E-01  0.74244566250E-01  0.91756412043E-01  0.51100000000E-03 0. -1.
         11    1    4    4    0    0 -0.74489761181E-02 -0.18427711151E-01  0.36848313259E-01  0.41870360573E-01  0.51100000000E-03 0.  1.
</event>
<event>
 8    1  0.1103774E+005  0.1043930E+01  0.7957747E-01            NaN
         13   -1    0    0    0    0  0.00000000000E+00  0.00000000000E+00  0.74505805969E-08  0.10566000000E+00  0.10566000000E+00 0. -1.
     999900   -1    0    0    0    0 -0.00000000000E+00 -0.00000000000E+00 -0.74505805969E-08  0.93827000000E+00  0.93827000000E+00 0. -1.
     999902    2    1    2    0    0 -0.77007655749E-03  0.11568495414E-02  0.24203162989E-01  0.10196869718E+01  0.10193987424E+01 0.  0.
     999903    2    3    3    0    0 -0.70451367768E-01 -0.10540765312E-01  0.11020705818E+00  0.13267570549E+00  0.19563849281E-01 0.  0.
         14    1    1    2    0    0  0.77007655749E-03 -0.11568495414E-02 -0.24203162989E-01  0.24243028224E-01  0.00000000000E+00 0.  1.
     999901    1    3    3    0    0  0.69681291211E-01  0.11697614853E-01 -0.86003895194E-01  0.88701126629E+00  0.88000000000E+00 0. -1.
        -11    1    4    4    0    0 -0.44434918453E-01  0.28591279266E-02  0.63562036508E-01  0.77608183824E-01  0.51100000000E-03 0. -1.
         11    1    4    4    0    0 -0.26016449315E-01 -0.13399893238E-01  0.46645021676E-01  0.55067521662E-01  0.51100000000E-03 0.  1.
</event>
<event>
 8    1  0.1103774E+005  0.1043930E+01  0.7957747E-01            NaN
         13   -1    0    0    0    0  0.00000000000E+00  0.00000000000E+00  0.74505805969E-08  0.10566000000E+00  0.10566000000E+00 0.  1.
     999900   -1    0    0    0    0 -0.00000000000E+00 -0.00000000000E+00 -0.74505805969E-08  0.93827000000E+00  0.93827000000E+00 0.  1.
     999902    2    1    2    0    0 -0.45530434551E-02 -0.23584294478E-01 -0.59452156501E-04  0.10199101606E+01  0.10196272765E+01 0.  0.
     999903    2    3    3    0    0  0.10830406086E+00 -0.71544245325E-01 -0.50417902164E-02  0.13139358417E+00  0.19761216452E-01 0.  0.
         14    1    1    2    0    0  0.45530434551E-02  0.23584294478E-01  0.59452156501E-04  0.24019839410E-01  0.00000000000E+00 0. -1.
     999901    1    3    3    0    0 -0.11285710431E+00  0.47959950847E-01  0.49823380599E-02  0.88851657642E+00  0.88000000000E+00 0. -1.
        -11    1    4    4    0    0  0.10379790826E+00 -0.69880394768E-01 -0.10618200984E-02  0.12513458321E+00  0.51100000000E-03 0. -1.
         11    1    4    4    0    0  0.45061525950E-02 -0.16638505573E-02 -0.39799701180E-02  0.62590009607E-02  0.51100000000E-03 0.  1.
</event>
<event>
 8    1  0.1103774E+005  0.1043930E+01  0.7957747E-01            NaN
         13   -1    0    0    0    0  0.00000000000E+00  0.00000000000E+00  0.74505805969E-08  0.10566000000E+00  0.10566000000E+00 0. -1.
     999900   -1    0    0    0    0 -0.00000000000E+00 -0.00000000000E+00 -0.74505805969E-08  0.93827000000E+00  0.93827000000E+00 0.  1.
     999902    2    1    2    0    0  0.12016294832E-01  0.21078377189E-01  0.23831284430E-03  0.10196659088E+01  0.10193771724E+01 0.  0.
     999903    2    3    3    0    0  0.53231179567E-01 -0.11215035216E+00 -0.25367529387E-01  0.12831624670E+00  0.20255558586E-01 0.  0.
         14    1    1    2    0    0 -0.12016294832E-01 -0.21078377189E-01 -0.23831284430E-03  0.24264091152E-01  0.00000000000E+00 0.  1.
     999901    1    3    3    0    0 -0.41214884735E-01  0.13322872935E+00  0.25605842231E-01  0.89134966214E+00  0.88000000000E+00 0. -1.
        -11    1    4    4    0    0  0.72498234148E-02 -0.35878027912E-01 -0.49047302883E-02  0.36933864225E-01  0.51100000000E-03 0. -1.
         11    1    4    4    0    0  0.45981356152E-01 -0.76272324247E-01 -0.20462799099E-01  0.91382382479E-01  0.51100000000E-03 0.  1.
</event>
<event>
 8    1  0.1103774E+005  0.1043930E+01  0.7957747E-01            NaN
         13   -1    0    0    0    0  0.00000000000E+00  0.00000000000E+00  0.74505805969E-08  0.10566000000E+00  0.10566000000E+00 0. -1.
     999900   -1    0    0    0    0 -0.00000000000E+00 -0.00000000000E+00 -0.74505805969E-08  0.93827000000E+00  0.93827000000E+00 0.  1.
     999902    2    1    2    0    0  0.83381428398E-02  0.20207379952E-01 -0.65636522641E-02  0.10211057944E+01  0.10208506742E+01 0.  0.
     999903    2    3    3    0    0 -0.11972617829E+00  0.38792125093E-01  0.28984409604E-01  0.13093191935E+00  0.21537984294E-01 0.  0.
         14    1    1    2    0    0 -0.83381428398E-02 -0.20207379952E-01  0.65636522641E-02  0.22824205607E-01  0.00000000000E+00 0. -1.
     999901    1    3    3    0    0  0.12806432113E+00 -0.18584745141E-01 -0.35548061869E-01  0.89017387504E+00  0.88000000000E+00 0.  1.
        -11    1    4    4    0    0 -0.92040918538E-01  0.31896884809E-01  0.31260971011E-01  0.10230567616E+00  0.51100000000E-03 0.  1.
         11    1    4    4    0    0 -0.27685259756E-01  0.68952402840E-02 -0.22765614063E-02  0.28626243190E-01  0.51100000000E-03 0. -1.
</event>
<event>
 8    1  0.1103774E+005  0.1043930E+01  0.7957747E-01            NaN
         13   -1    0    0    0    0  0.00000000000E+00  0.00000000000E+00  0.74505805969E-08  0.10566000000E+00  0.10566000000E+00 0. -1.
     999900   -1    0    0    0    0 -0.00000000000E+00 -0.00000000000E+00 -0.74505805969E-08  0.93827000000E+00  0.93827000000E+00 0.  1.
     999902    2    1    2    0    0 -0.51882743197E-02 -0.19100352537E-01 -0.11880834788E-01  0.10208454620E+01  0.10205844215E+01 0.  0.
     999903    2    3    3    0    0 -0.73858935416E-01 -0.69743521752E-01 -0.84664135072E-01  0.13372777025E+00  0.19894712933E-01 0.  0.
         14    1    1    2    0    0  0.51882743197E-02  0.19100352537E-01  0.11880834788E-01  0.23084537957E-01  0.00000000000E+00 0. -1.
     999901    1    3    3    0    0  0.68670661096E-01  0.50643169215E-01  0.72783300283E-01  0.88711769179E+00  0.88000000000E+00 0. -1.
        -11    1    4    4    0    0 -0.69274777171E-01 -0.58243849781E-01 -0.69308852425E-01  0.11399701283E+00  0.51100000000E-03 0.  1.
         11    1    4    4    0    0 -0.45841582445E-02 -0.11499671971E-01 -0.15355282647E-01  0.19730757421E-01  0.51100000000E-03 0. -1.
</event>
<event>
 8    1  0.1103774E+005  0.1043930E+01  0.7957747E-01            NaN
         13   -1    0    0    0    0  0.00000000000E+00  0.00000000000E+00  0.74505805969E-08  0.10566000000E+00  0.10566000000E+00 0. -1.
     999900   -1    0    0    0    0 -0.00000000000E+00 -0.00000000000E+00 -0.74505805969E-08  0.93827000000E+00  0.93827000000E+00 0.  1.
     999902    2    1    2    0    0 -0.21893724068E-01 -0.57563849885E-02  0.71504185683E-02  0.10201897471E+01  0.10199134868E+01 0.  0.
     999903    2    3    3    0    0 -0.81561346272E-01  0.53393317689E-01  0.87497903034E-01  0.13254419244E+00  0.20223262195E-01 0.  0.
         14    1    1    2    0    0  0.21893724068E-01  0.57563849885E-02 -0.71504185683E-02  0.23740252893E-01  0.00000000000E+00 0. -1.
     999901    1    3    3    0    0  0.59667622204E-01 -0.59149702677E-01 -0.80347484466E-01  0.88764555467E+00  0.88000000000E+00 0.  1.
        -11    1    4    4    0    0 -0.43350083077E-01  0.17950923077E-01  0.48209884687E-01  0.67274954067E-01  0.51100000000E-03 0. -1.
         11    1    4    4    0    0 -0.38211263194E-01  0.35442394612E-01  0.39288018347E-01  0.65269238370E-01  0.51100000000E-03 0.  1.
</event>
<event>
 8    1  0.1103774E+005  0.1043930E+01  0.7957747E-01            NaN
         13   -1    0    0    0    0  0.00000000000E+00  0.00000000000E+00  0.74505805969E-08  0.10566000000E+00  0.10566000000E+00 0. -1.
     999900   -1    0    0    0    0 -0.00000000000E+00 -0.00000000000E+00 -0.74505805969E-08  0.93827000000E+00  0.93827000000E+00 0. -1.
     999902    2    1    2    0    0 -0.12850018103E-01 -0.43295308527E-02  0.19555631768E-01  0.10201331402E+01  0.10198555453E+01 0.  0.
     999903    2    3    3    0    0  0.18562069406E-01  0.12666998034E+00 -0.31631057537E-02  0.12959188219E+00  0.19854882348E-01 0.  0.
         14    1    1    2    0    0  0.12850018103E-01  0.43295308527E-02 -0.19555631768E-01  0.23796859804E-01  0.00000000000E+00 0.  1.
     999901    1    3    3    0    0 -0.31412087509E-01 -0.13099951119E+00  0.22718737522E-01  0.89054125800E+00  0.88000000000E+00 0.  1.
        -11    1    4    4    0    0  0.44994680243E-02  0.89351144614E-01  0.11697544224E-02  0.89473469268E-01  0.51100000000E-03 0.  1.
         11    1    4    4    0    0  0.14062601382E-01  0.37318835722E-01 -0.43328601761E-02  0.40118412925E-01  0.51100000000E-03 0. -1.
</event>
<event>
 8    1  0.1103774E+005  0.1043930E+01  0.7957747E-01            NaN
         13   -1    0    0    0    0  0.00000000000E+00  0.00000000000E+00  0.74505805969E-08  0.10566000000E+00  0.10566000000E+00 0. -1.
     999900   -1    0    0    0    0 -0.00000000000E+00 -0.00000000000E+00 -0.74505805969E-08  0.93827000000E+00  0.93827000000E+00 0.  1.
     999902    2    1    2    0    0 -0.10440832286E-01 -0.22290866009E-01 -0.93145432417E-04  0.10193149160E+01  0.10190176620E+01 0.  0.
     999903    2    3    3    0    0 -0.10524202707E+00  0.56665096732E-01  0.45724023098E-01  0.12952813053E+00  0.20000821515E-01 0.  0.
         14    1    1    2    0    0  0.10440832286E-01  0.22290866009E-01  0.93145432417E-04  0.24615084041E-01  0.00000000000E+00 0.  1.
     999901    1    3    3    0    0  0.94801194787E-01 -0.78955962741E-01 -0.45817168531E-01  0.88978678543E+00  0.88000000000E+00 0.  1.
        -11    1    4    4    0    0 -0.12545683543E-01  0.14893978025E-01  0.84952794310E-02  0.21252191665E-01  0.51100000000E-03 0. -1.
         11    1    4    4    0    0 -0.92696343530E-01  0.41771118707E-01  0.37228743667E-01  0.10827593887E+00  0.51100000000E-03 0.  1.
</event>
<event>
 8    1  0.1103774E+005  0.1043930E+01  0.7957747E-01            NaN
         13   -1    0    0    0    0  0.00000000000E+00  0.00000000000E+00  0.74505805969E-08  0.10566000000E+00  0.10566000000E+00 0.  1.
     999900   -1    0    0    0    0 -0.00000000000E+00 -0.00000000000E+00 -0.74505805969E-08  0.93827000000E+00  0.93827000000E+00 0.  1.
     999902    2    1    2    0    0  0.32158067610E-02  0.13358154857E-01  0.18956084240E-01  0.10205181474E+01  0.10202495647E+01 0.  0.
     999903    2    3    3    0    0 -0.36786366263E-02 -0.26385921688E-01  0.12858684507E+00  0.13279858089E+00  0.19777187128E-01 0.  0.
         14    1    1    2    0    0 -0.32158067610E-02 -0.13358154857E-01 -0.18956084240E-01  0.23411852639E-01  0.00000000000E+00 0. -1.
     999901    1    3    3    0    0  0.68944433873E-02  0.39744076545E-01 -0.10963076083E+00  0.88771956647E+00  0.88000000000E+00 0.  1.
        -11    1    4    4    0    0 -0.32615642527E-02  0.99361809461E-03  0.38157025993E-01  0.38312463141E-01  0.51100000000E-03 0. -1.
         11    1    4    4    0    0 -0.41707237361E-03 -0.27379539783E-01  0.90429819079E-01  0.94486117751E-01  0.51100000000E-03 0.  1.
</event>
<event>
 8    1  0.1103774E+005  0.1043930E+01  0.7957747E-01            NaN
         13   -1    0    0    0    0  0.00000000000E+00  0.00000000000E+00  0.74505805969E-08  0.10566000000E+00  0.10566000000E+00 0. -1.
     999900   -1    0    0    0    0 -0.00000000000E+00 -0.00000000000E+00 -0.74505805969E-08  0.93827000000E+00  0.93827000000E+00 0. -1.
     999902    2    1    2    0    0 -0.36278609705E-03 -0.71154890326E-02  0.22373552857E-01  0.10204494194E+01  0.10201792391E+01 0.  0.
     999903    2    3    3    0    0  0.75364762550E-01 -0.64714421752E-01 -0.80271261803E-01  0.12938923251E+00  0.20743533987E-01 0.  0.
         14    1    1    2    0    0  0.36278609705E-03  0.71154890326E-02 -0.22373552857E-01  0.23480580602E-01  0.00000000000E+00 0.  1.
     999901    1    3    3    0    0 -0.75727548647E-01  0.57598932719E-01  0.10264481466E+00  0.89106018688E+00  0.88000000000E+00 0.  1.
        -11    1    4    4    0    0  0.56677454291E-01 -0.42878394246E-01 -0.46000864103E-01  0.84659501164E-01  0.51100000000E-03 0. -1.
         11    1    4    4    0    0  0.18687308259E-01 -0.21836027505E-01 -0.34270397699E-01  0.44729731350E-01  0.51100000000E-03 0.  1.
</event>
<event>
 8    1  0.1103774E+005  0.1043930E+01  0.7957747E-01            NaN
         13   -1    0    0    0    0  0.00000000000E+00  0.00000000000E+00  0.74505805969E-08  0.10566000000E+00  0.10566000000E+00 0.  1.
     999900   -1    0    0    0    0 -0.00000000000E+00 -0.00000000000E+00 -0.74505805969E-08  0.93827000000E+00  0.93827000000E+00 0. -1.
     999902    2    1    2    0    0  0.10009279297E-01  0.70928777760E-02  0.20958404300E-01  0.10196452456E+01  0.10193560112E+01 0.  0.
     999903    2    3    3    0    0  0.92131327550E-01 -0.77180420763E-01  0.49217348427E-01  0.13136342791E+00  0.19723182815E-01 0.  0.
         14    1    1    2    0    0 -0.10009279297E-01 -0.70928777760E-02 -0.20958404300E-01  0.24284754435E-01  0.00000000000E+00 0. -1.
     999901    1    3    3    0    0 -0.82122048252E-01  0.84273298539E-01 -0.28258944128E-01  0.88828181766E+00  0.88000000000E+00 0.  1.
        -11    1    4    4    0    0  0.56212530412E-01 -0.39320946082E-01  0.19561513152E-01  0.71336521459E-01  0.51100000000E-03 0.  1.
         11    1    4    4    0    0  0.35918797137E-01 -0.37859474682E-01  0.29655835276E-01  0.60026906449E-01  0.51100000000E-03 0. -1.
</event>
<event>
 8    1  0.1103774E+005  0.1043930E+01  0.7957747E-01            NaN
         13   -1    0    0    0    0  0.00000000000E+00  0.00000000000E+00  0.74505805969E-08  0.10566000000E+00  0.10566000000E+00 0.  1.
     999900   -1    0    0    0    0 -0.00000000000E+00 -0.00000000000E+00 -0.74505805969E-08  0.93827000000E+00  0.93827000000E+00 0. -1.
     999902    2    1    2    0    0  0.21177402647E-01 -0.79772098110E-02  0.54895991066E-02  0.10206436530E+01  0.10203779753E+01 0.  0.
     999903    2    3    3    0    0  0.89889305177E-01 -0.13517632793E-01 -0.94117132559E-01  0.13234554827E+00  0.19861921466E-01 0.  0.
         14    1    1    2    0    0 -0.21177402647E-01  0.79772098110E-02 -0.54895991066E-02  0.23286347021E-01  0.00000000000E+00 0.  1.
     999901    1    3    3    0    0 -0.68711902530E-01  0.55404229824E-02  0.99606731665E-01  0.88829810471E+00  0.88000000000E+00 0.  1.
        -11    1    4    4    0    0  0.52227843082E-01 -0.13500063463E-02 -0.63942208598E-01  0.82573829217E-01  0.51100000000E-03 0. -1.
         11    1    4    4    0    0  0.37661462094E-01 -0.12167626447E-01 -0.30174923960E-01  0.49771719053E-01  0.51100000000E-03 0.  1.
</event>
<event>
 8    1  0.1103774E+005  0.1043930E+01  0.7957747E-01            NaN
         13   -1    0    0    0    0  0.00000000000E+00  0.00000000000E+00  0.74505805969E-08  0.10566000000E+00  0.10566000000E+00 0. -1.
     999900   -1    0    0    0    0 -0.00000000000E+00 -0.00000000000E+00 -0.74505805969E-08  0.93827000000E+00  0.93827000000E+00 0. -1.
     999902    2    1    2    0    0  0.71663076304E-02 -0.13520082341E-01 -0.17647232107E-01  0.10205724874E+01  0.10203051645E+01 0.  0.
     999903    2    3    3    0    0 -0.78848130870E-01 -0.52960071247E-01 -0.90318059508E-01  0.13252122456E+00  0.19563389241E-01 0.  0.
         14    1    1    2    0    0 -0.71663076304E-02  0.13520082341E-01  0.17647232107E-01  0.23357512551E-01  0.00000000000E+00 0. -1.
     999901    1    3    3    0    0  0.86014438500E-01  0.39439988906E-01  0.72670827401E-01  0.88805126288E+00  0.88000000000E+00 0.  1.
        -11    1    4    4    0    0 -0.12572599023E-01 -0.37161851719E-02 -0.20759141947E-01  0.24557755879E-01  0.51100000000E-03 0.  1.
         11    1    4    4    0    0 -0.66275531847E-01 -0.49243886075E-01 -0.69558917561E-01  0.10796346869E+00  0.51100000000E-03 0. -1.
</event>
<event>
 8    1  0.1103774E+005  0.1043930E+01  0.7957747E-01            NaN
         13   -1    0    0    0    0  0.00000000000E+00  0.00000000000E+00  0.74505805969E-08  0.10566000000E+00  0.10566000000E+00 0.  1.
     999900   -1    0    0    0    0 -0.00000000000E+00 -0.00000000000E+00 -0.74505805969E-08  0.93827000000E+00  0.93827000000E+00 0. -1.
     999902    2    1    2    0    0 -0.61700528797E-02  0.73791495758E-02 -0.25006688042E-01  0.10171371680E+01  0.10167842262E+01 0.  0.
     999903    2    3    3    0    0 -0.12126796102E+00 -0.23259875664E-01 -0.31845504959E-01  0.12908702990E+00  0.20059534256E-01 0.  0.
         14    1    1    2    0    0  0.61700528797E-02 -0.73791495758E-02  0.25006688042E-01  0.26792832023E-01  0.00000000000E+00 0.  1.
     999901    1    3    3    0    0  0.11509790814E+00  0.30639025240E-01  0.68388169172E-02  0.88805013808E+00  0.88000000000E+00 0.  1.
        -11    1    4    4    0    0 -0.77759430861E-01 -0.85561330937E-02 -0.12381511636E-01  0.79204163102E-01  0.51100000000E-03 0.  1.
         11    1    4    4    0    0 -0.43508530163E-01 -0.14703742570E-01 -0.19463993323E-01  0.49882866794E-01  0.51100000000E-03 0. -1.
</event>
<event>
 8    1  0.1103774E+005  0.1043930E+01  0.7957747E-01            NaN
         13   -1    0    0    0    0  0.00000000000E+00  0.00000000000E+00  0.74505805969E-08  0.10566000000E+00  0.10566000000E+00 0.  1.
     999900   -1    0    0    0    0 -0.00000000000E+00 -0.00000000000E+00 -0.74505805969E-08  0.93827000000E+00  0.93827000000E+00 0. -1.
     999902    2    1    2    0    0  0.21539591747E-01  0.71870602560E-02  0.49713686100E-02  0.10206851650E+01  0.10204204446E+01 0.  0.
     999903    2    3    3    0    0  0.37343456653E-01  0.37452084614E-01  0.11997092387E+00  0.13254630675E+00  0.19450153258E-01 0.  0.
         14    1    1    2    0    0 -0.21539591747E-01 -0.71870602560E-02 -0.49713686100E-02  0.23244834988E-01  0.00000000000E+00 0.  1.
     999901    1    3    3    0    0 -0.15803864907E-01 -0.30265024358E-01 -0.11499955526E+00  0.88813885826E+00  0.88000000000E+00 0. -1.
        -11    1    4    4    0    0  0.39460131550E-01  0.33279601620E-01  0.11094375281E+00  0.12236589097E+00  0.51100000000E-03 0. -1.
         11    1    4    4    0    0 -0.21166748961E-02  0.41724829940E-02  0.90271710633E-02  0.10180415775E-01  0.51100000000E-03 0.  1.
</event>
<event>
 8    1  0.1103774E+005  0.1043930E+01  0.7957747E-01            NaN
         13   -1    0    0    0    0  0.00000000000E+00  0.00000000000E+00  0.74505805969E-08  0.10566000000E+00  0.10566000000E+00 0.  1.
     999900   -1    0    0    0    0 -0.00000000000E+00 -0.00000000000E+00 -0.74505805969E-08  0.93827000000E+00  0.93827000000E+00 0. -1.
     999902    2    1    2    0    0 -0.15506172809E-02 -0.32335708696E-02  0.24069241705E-01  0.10195950706E+01  0.10193046253E+01 0.  0.
     999903    2    3    3    0    0  0.10917091994E+00  0.45079672543E-02  0.70256162989E-01  0.13142142655E+00  0.19926148408E-01 0.  0.
         14    1    1    2    0    0  0.15506172809E-02  0.32335708696E-02 -0.24069241705E-01  0.24334929439E-01  0.00000000000E+00 0. -1.
     999901    1    3    3    0    0 -0.11072153722E+00 -0.77415381239E-02 -0.46186921284E-01  0.88817364401E+00  0.88000000000E+00 0. -1.
        -11    1    4    4    0    0  0.76805552782E-01  0.82275559379E-02  0.40143138666E-01  0.87054685789E-01  0.51100000000E-03 0.  1.
         11    1    4    4    0    0  0.32365367154E-01 -0.37195886836E-02  0.30113024323E-01  0.44366740762E-01  0.51100000000E-03 0. -1.
</event>
<event>
 8    1  0.1103774E+005  0.1043930E+01  0.7957747E-01            NaN
         13   -1    0    0    0    0  0.00000000000E+00  0.00000000000E+00  0.74505805969E-08  0.10566000000E+00  0.10566000000E+00 0.  1.
     999900   -1    0    0    0    0 -0.00000000000E+00 -0.00000000000E+00 -0.74505805969E-08  0.93827000000E+00  0.93827000000E+00 0.  1.
     999902    2    1    2    0    0  0.82469425527E-02  0.15077182002E-01 -0.14860494128E-01  0.10212106742E+01  0.10209579195E+01 0.  0.
     999903    2    3    3    0    0 -0.84415683938E-01 -0.43184893777E-01 -0.88547997561E-01  0.13137322839E+00  0.20669652153E-01 0.  0.
         14    1    1    2    0    0 -0.82469425527E-02 -0.15077182002E-01  0.14860494128E-01  0.22719325790E-01  0.00000000000E+00 0.  1.
     999901    1    3    3    0    0  0.92662626491E-01  0.58262075780E-01  0.73687503433E-01  0.88983744582E+00  0.88000000000E+00 0. -1.
        -11    1    4    4    0    0 -0.49805349602E-01 -0.30140028149E-01 -0.41354269850E-01  0.71410299689E-01  0.51100000000E-03 0.  1.
         11    1    4    4    0    0 -0.34610334336E-01 -0.13044865628E-01 -0.47193727711E-01  0.59962928701E-01  0.51100000000E-03 0. -1.
</event>
<event>
 8    1  0.1103774E+005  0.1043930E+01  0.7957747E-01            NaN
         13   -1    0    0    0    0  0.00000000000E+00  0.00000000000E+00  0.74505805969E-08  0.10566000000E+00  0.10566000000E+00 0.  1.
     999900   -1    0    0    0    0 -0.00000000000E+00 -0.00000000000E+00 -0.74505805969E-08  0.93827000000E+00  0.93827000000E+00 0.  1.
     999902    2    1    2    0    0 -0.83462513174E-02 -0.17876757166E-01 -0.13512559552E-01  0.10200170825E+01  0.10197367410E+01 0.  0.
     999903    2    3    3    0    0 -0.15183227666E-01  0.35703758865E-02  0.12613578590E+00  0.12872118093E+00  0.20386955398E-01 0.  0.
         14    1    1    2    0    0  0.83462513174E-02  0.17876757166E-01  0.13512559552E-01  0.23912917502E-01  0.00000000000E+00 0. -1.
     999901    1    3    3    0    0  0.68369763486E-02 -0.21447133052E-01 -0.13964834545E+00  0.89129590157E+00  0.88000000000E+00 0.  1.
        -11    1    4    4    0    0 -0.19521988934E-01  0.60550774495E-02  0.10703151096E+00  0.10896686411E+00  0.51100000000E-03 0.  1.
         11    1    4    4    0    0  0.43387612678E-02 -0.24847015630E-02  0.19104274941E-01  0.19754316825E-01  0.51100000000E-03 0. -1.
</event>
<event>
 8    1  0.1103774E+005  0.1043930E+01  0.7957747E-01            NaN
         13   -1    0    0    0    0  0.00000000000E+00  0.00000000000E+00  0.74505805969E-08  0.10566000000E+00  0.10566000000E+00 0.  1.
     999900   -1    0    0    0    0 -0.00000000000E+00 -0.00000000000E+00 -0.74505805969E-08  0.93827000000E+00  0.93827000000E+00 0. -1.
     999902    2    1    2    0    0  0.13155127094E-02 -0.22646922003E-01 -0.72344234466E-02  0.10201192769E+01  0.10198413547E+01 0.  0.
     999903    2    3    3    0    0 -0.71246570062E-01  0.49935719427E-01  0.89828913990E-01  0.12885344277E+00  0.31053600504E-01 0.  0.
         14    1    1    2    0    0 -0.13155127094E-02  0.22646922003E-01  0.72344234466E-02  0.23810723057E-01  0.00000000000E+00 0.  1.
     999901    1    3    3    0    0  0.72562082772E-01 -0.72582641430E-01 -0.97063337437E-01  0.89126583417E+00  0.88000000000E+00 0.  1.
        -11    1    4    4    0    0 -0.31787927115E-01  0.11769434628E-01  0.52397039869E-01  0.62407554108E-01  0.51100000000E-03 0. -1.
         11    1    4    4    0    0 -0.39458642948E-01  0.38166284799E-01  0.37431874121E-01  0.66445888660E-01  0.51100000000E-03 0.  1.
</event>
<event>
 8    1  0.1103774E+005  0.1043930E+01  0.7957747E-01            NaN
         13   -1    0    0    0    0  0.00000000000E+00  0.00000000000E+00  0.74505805969E-08  0.10566000000E+00  0.10566000000E+00 0. -1.
     999900   -1    0    0    0    0 -0.00000000000E+00 -0.00000000000E+00 -0.74505805969E-08  0.93827000000E+00  0.93827000000E+00 0.  1.
     999902    2    1    2    0    0  0.60580848910E-03 -0.23615579876E-01 -0.52141714704E-02  0.10197380550E+01  0.10194510536E+01 0.  0.
     999903    2    3    3    0    0  0.91626114214E-01 -0.44590469469E-01  0.79411224559E-01  0.13075768422E+00  0.20193430211E-01 0.  0.
         14    1    1    2    0    0 -0.60580848910E-03  0.23615579876E-01  0.52141714704E-02  0.24191944960E-01  0.00000000000E+00 0. -1.
     999901    1    3    3    0    0 -0.91020305725E-01  0.20974889593E-01 -0.84625396030E-01  0.88898037082E+00  0.88000000000E+00 0.  1.
        -11    1    4    4    0    0  0.64787859915E-01 -0.36738812303E-01  0.66913922398E-01  0.10012462861E+00  0.51100000000E-03 0.  1.
         11    1    4    4    0    0  0.26838254299E-01 -0.78516571658E-02  0.12497302161E-01  0.30633055616E-01  0.51100000000E-03 0. -1.
</event>
<event>
 8    1  0.1103774E+005  0.1043930E+01  0.7957747E-01            NaN
         13   -1    0    0    0    0  0.00000000000E+00  0.00000000000E+00  0.74505805969E-08  0.10566000000E+00  0.10566000000E+00 0.  1.
     999900   -1    0    0    0    0 -0.00000000000E+00 -0.00000000000E+00 -0.74505805969E-08  0.93827000000E+00  0.93827000000E+00 0. -1.
     999902    2    1    2    0    0 -0.18988606143E-01 -0.29183877220E-01 -0.61185740179E-02  0.10085788642E+01  0.10079591373E+01 0.  0.
     999903    2    3    3    0    0 -0.78266700055E-01  0.42588683590E-01  0.77487886546E-01  0.11972835196E+00  0.19774564316E-01 0.  0.
         14    1    1    2    0    0  0.18988606143E-01  0.29183877220E-01  0.61185740179E-02  0.35351135778E-01  0.00000000000E+00 0. -1.
     999901    1    3    3    0    0  0.59278093912E-01 -0.71772560809E-01 -0.83606460564E-01  0.88885051226E+00  0.88000000000E+00 0. -1.
        -11    1    4    4    0    0 -0.55404370717E-01  0.19676295882E-01  0.47225022592E-01  0.75413956228E-01  0.51100000000E-03 0.  1.
         11    1    4    4    0    0 -0.22862329338E-01  0.22912387707E-01  0.30262863954E-01  0.44314395730E-01  0.51100000000E-03 0. -1.
</event>
<event>
 8    1  0.1103774E+005  0.1043930E+01  0.7957747E-01            NaN
         13   -1    0    0    0    0  0.00000000000E+00  0.00000000000E+00  0.74505805969E-08  0.10566000000E+00  0.10566000000E+00 0.  1.
     999900   -1    0    0    0    0 -0.00000000000E+00 -0.00000000000E+00 -0.74505805969E-08  0.93827000000E+00  0.93827000000E+00 0. -1.
     999902    2    1    2    0    0  0.17199695401E-01 -0.14400564180E-01 -0.31254714846E-02  0.10212810631E+01  0.10210298896E+01 0.  0.
     999903    2    3    3    0    0 -0.10456815617E-02 -0.55995069821E-01 -0.11854833094E+00  0.13258233284E+00  0.19693321664E-01 0.  0.
         14    1    1    2    0    0 -0.17199695401E-01  0.14400564180E-01  0.31254714846E-02  0.22648936897E-01  0.00000000000E+00 0.  1.
     999901    1    3    3    0    0  0.18245376963E-01  0.41594505641E-01  0.11542285946E+00  0.88869873026E+00  0.88000000000E+00 0.  1.
        -11    1    4    4    0    0 -0.33117624748E-02 -0.16257847451E-01 -0.56292584903E-01  0.58689024617E-01  0.51100000000E-03 0. -1.
         11    1    4    4    0    0  0.22660809131E-02 -0.39737222370E-01 -0.62255746041E-01  0.73893308226E-01  0.51100000000E-03 0.  1.
</event>
<event>
 8    1  0.1103774E+005  0.1043930E+01  0.7957747E-01            NaN
         13   -1    0    0    0    0  0.00000000000E+00  0.00000000000E+00  0.74505805969E-08  0.10566000000E+00  0.10566000000E+00 0.  1.
     999900   -1    0    0    0    0 -0.00000000000E+00 -0.00000000000E+00 -0.74505805969E-08  0.93827000000E+00  0.93827000000E+00 0.  1.
     999902    2    1    2    0    0  0.56634012360E-02 -0.19798974541E-01 -0.12287172892E-01  0.10199498389E+01  0.10196678998E+01 0.  0.
     999903    2    3    3    0    0 -0.51585246668E-01  0.64251659178E-01  0.95337624502E-01  0.12757939248E+00  0.19948066544E-01 0.  0.
         14    1    1    2    0    0 -0.56634012360E-02  0.19798974541E-01  0.12287172892E-01  0.23980161052E-01  0.00000000000E+00 0.  1.
     999901    1    3    3    0    0  0.57248647904E-01 -0.84050633719E-01 -0.10762479739E+00  0.89237044647E+00  0.88000000000E+00 0. -1.
        -11    1    4    4    0    0 -0.27297552706E-01  0.30680166378E-01  0.62126255717E-01  0.74473899878E-01  0.51100000000E-03 0.  1.
         11    1    4    4    0    0 -0.24287693962E-01  0.33571492800E-01  0.33211368785E-01  0.53105492601E-01  0.51100000000E-03 0. -1.
</event>
<event>
 8    1  0.1103774E+005  0.1043930E+01  0.7957747E-01            NaN
         13   -1    0    0    0    0  0.00000000000E+00  0.00000000000E+00  0.74505805969E-08  0.10566000000E+00  0.10566000000E+00 0.  1.
     999900   -1    0    0    0    0 -0.00000000000E+00 -0.00000000000E+00 -0.74505805969E-08  0.93827000000E+00  0.93827000000E+00 0. -1.
     999902    2    1    2    0    0  0.84803067539E-02  0.19925276739E-01  0.10109402347E-01  0.10200316262E+01  0.10197516296E+01 0.  0.
     999903    2    3    3    0    0  0.44606408716E-01  0.11944919747E+00 -0.29847432335E-01  0.13278495547E+00  0.21980279924E-01 0.  0.
         14    1    1    2    0    0 -0.84803067539E-02 -0.19925276739E-01 -0.10109402347E-01  0.23898373827E-01  0.00000000000E+00 0. -1.
     999901    1    3    3    0    0 -0.36126101963E-01 -0.99523920735E-01  0.39956834682E-01  0.88724667071E+00  0.88000000000E+00 0.  1.
        -11    1    4    4    0    0  0.31294876221E-02  0.12628252741E-01  0.34195932337E-02  0.13461842332E-01  0.51100000000E-03 0.  1.
         11    1    4    4    0    0  0.41476921094E-01  0.10682094473E+00 -0.33267025569E-01  0.11932311314E+00  0.51100000000E-03 0. -1.
</event>
<event>
 8    1  0.1103774E+005  0.1043930E+01  0.7957747E-01            NaN
         13   -1    0    0    0    0  0.00000000000E+00  0.00000000000E+00  0.74505805969E-08  0.10566000000E+00  0.10566000000E+00 0. -1.
     999900   -1    0    0    0    0 -0.00000000000E+00 -0.00000000000E+00 -0.74505805969E-08  0.93827000000E+00  0.93827000000E+00 0.  1.
     999902    2    1    2    0    0 -0.68728188966E-02 -0.20363923153E-01  0.87088807231E-03  0.10224199221E+01  0.10221936282E+01 0.  0.
     999903    2    3    3    0    0  0.80322206756E-01 -0.78671514295E-01  0.69553794043E-01  0.13353292744E+00  0.18773608737E-01 0.  0.
         14    1    1    2    0    0  0.68728188966E-02  0.20363923153E-01 -0.87088807231E-03  0.21510077913E-01  0.00000000000E+00 0. -1.
     999901    1    3    3    0    0 -0.87195025652E-01  0.58307591141E-01 -0.68682905970E-01  0.88888699465E+00  0.88000000000E+00 0.  1.
        -11    1    4    4    0    0  0.25395107131E-01 -0.36984999927E-01  0.30942066842E-01  0.54502057826E-01  0.51100000000E-03 0.  1.
         11    1    4    4    0    0  0.54927099624E-01 -0.41686514368E-01  0.38611727201E-01  0.79030869613E-01  0.51100000000E-03 0. -1.
</event>
<event>
 7    1  0.1103774E+005  0.1043930E+01  0.7957747E-01            NaN
         13   -1    0    0    0    0  0.00000000000E+00  0.00000000000E+00  0.74505805969E-08  0.10566000000E+00  0.10566000000E+00 0.  1.
     999900   -1    0    0    0    0 -0.00000000000E+00 -0.00000000000E+00 -0.74505805969E-08  0.93827000000E+00  0.93827000000E+00 0. -1.
     999903    2    1    2    0    0 -0.10497026423E+00 -0.25653939844E-01 -0.38961647155E-01  0.11658364102E+00  0.19921204844E-01 0.  0.
         14    1    1    2    0    0  0.75980035930E-02 -0.38094952450E-01  0.43020099197E-03  0.38847652872E-01  0.00000000000E+00 0.  1.
     999901    1    1    2    0    0  0.97372260638E-01  0.63748892295E-01  0.38531446163E-01  0.88849870611E+00  0.88000000000E+00 0.  1.
        -11    1    3    3    0    0 -0.62471494649E-01 -0.17012121733E-01 -0.33404574085E-01  0.72857577645E-01  0.51100000000E-03 0.  1.
         11    1    3    3    0    0 -0.42498769581E-01 -0.86418181117E-02 -0.55570730702E-02  0.43726063375E-01  0.51100000000E-03 0. -1.
</event>
<event>
 8    1  0.1103774E+005  0.1043930E+01  0.7957747E-01            NaN
         13   -1    0    0    0    0  0.00000000000E+00  0.00000000000E+00  0.74505805969E-08  0.10566000000E+00  0.10566000000E+00 0.  1.
     999900   -1    0    0    0    0 -0.00000000000E+00 -0.00000000000E+00 -0.74505805969E-08  0.93827000000E+00  0.93827000000E+00 0. -1.
     999902    2    1    2    0    0 -0.15685576994E-01 -0.16882824378E-01 -0.10272194845E-01  0.10186993624E+01  0.10183868646E+01 0.  0.
     999903    2    3    3    0    0  0.84913831404E-01  0.28400008334E-01 -0.89807911901E-01  0.12825188718E+00  0.19135472004E-01 0.  0.
         14    1    1    2    0    0  0.15685576994E-01  0.16882824378E-01  0.10272194845E-01  0.25230637557E-01  0.00000000000E+00 0.  1.
     999901    1    3    3    0    0 -0.10059940840E+00 -0.45282832712E-01  0.79535717056E-01  0.89044747526E+00  0.88000000000E+00 0.  1.
        -11    1    4    4    0    0  0.28179386226E-01  0.28047294303E-03 -0.25703642657E-01  0.38145705394E-01  0.51100000000E-03 0.  1.
         11    1    4    4    0    0  0.56734445178E-01  0.28119535391E-01 -0.64104269245E-01  0.90106181789E-01  0.51100000000E-03 0. -1.
</event>
<event>
 8    1  0.1103774E+005  0.1043930E+01  0.7957747E-01            NaN
         13   -1    0    0    0    0  0.00000000000E+00  0.00000000000E+00  0.74505805969E-08  0.10566000000E+00  0.10566000000E+00 0. -1.
     999900   -1    0    0    0    0 -0.00000000000E+00 -0.00000000000E+00 -0.74505805969E-08  0.93827000000E+00  0.93827000000E+00 0. -1.
     999902    2    1    2    0    0  0.19834353176E-01 -0.12991349475E-01  0.31100069313E-02  0.10200166382E+01  0.10197362862E+01 0.  0.
     999903    2    3    3    0    0 -0.10127345838E+00 -0.76669664277E-01  0.12257760630E-01  0.12939566882E+00  0.21411109749E-01 0.  0.
         14    1    1    2    0    0 -0.19834353176E-01  0.12991349475E-01 -0.31100069313E-02  0.23913361751E-01  0.00000000000E+00 0.  1.
     999901    1    3    3    0    0  0.12110781155E+00  0.63678314802E-01 -0.91477536986E-02  0.89062096943E+00  0.88000000000E+00 0. -1.
        -11    1    4    4    0    0 -0.17293375178E-01 -0.72200400790E-02 -0.41190118960E-02  0.19194196618E-01  0.51100000000E-03 0. -1.
         11    1    4    4    0    0 -0.83980083199E-01 -0.69449624198E-01  0.16376772526E-01  0.11020147220E+00  0.51100000000E-03 0.  1.
</event>
<event>
 8    1  0.1103774E+005  0.1043930E+01  0.7957747E-01            NaN
         13   -1    0    0    0    0  0.00000000000E+00  0.00000000000E+00  0.74505805969E-08  0.10566000000E+00  0.10566000000E+00 0. -1.
     999900   -1    0    0    0    0 -0.00000000000E+00 -0.00000000000E+00 -0.74505805969E-08  0.93827000000E+00  0.93827000000E+00 0. -1.
     999902    2    1    2    0    0  0.98990413392E-02 -0.18577484505E-01 -0.76043977697E-02  0.10215482928E+01  0.10213030764E+01 0.  0.
     999903    2    3    3    0    0 -0.56909396496E-01 -0.64178657431E-01 -0.99755022131E-01  0.13304698620E+00  0.19820610893E-01 0.  0.
         14    1    1    2    0    0 -0.98990413392E-02  0.18577484505E-01  0.76043977697E-02  0.22381707160E-01  0.00000000000E+00 0.  1.
     999901    1    3    3    0    0  0.66808437835E-01  0.45601172926E-01  0.92150624361E-01  0.88850130664E+00  0.88000000000E+00 0.  1.
        -11    1    4    4    0    0 -0.96558009509E-02 -0.56362734700E-02 -0.22943407759E-01  0.25527693809E-01  0.51100000000E-03 0. -1.
         11    1    4    4    0    0 -0.47253595545E-01 -0.58542383961E-01 -0.76811614372E-01  0.10751929239E+00  0.51100000000E-03 0.  1.
</event>
<event>
 8    1  0.1103774E+005  0.1043930E+01  0.7957747E-01            NaN
         13   -1    0    0    0    0  0.00000000000E+00  0.00000000000E+00  0.74505805969E-08  0.10566000000E+00  0.10566000000E+00 0. -1.
     999900   -1    0    0    0    0 -0.00000000000E+00 -0.00000000000E+00 -0.74505805969E-08  0.93827000000E+00  0.93827000000E+00 0.  1.
     999902    2    1    2    0    0 -0.10456116162E-02 -0.21642999883E-01 -0.85216949225E-02  0.10206462711E+01  0.10203806538E+01 0.  0.
     999903    2    3    3    0    0 -0.48515613238E-01  0.10730833586E+00 -0.48275432896E-01  0.12909581950E+00  0.21595590236E-01 0.  0.
         14    1    1    2    0    0  0.10456116162E-02  0.21642999883E-01  0.85216949225E-02  0.23283728910E-01  0.00000000000E+00 0. -1.
     999901    1    3    3    0    0  0.47470001622E-01 -0.12895133575E+00  0.39753737974E-01  0.89155045159E+00  0.88000000000E+00 0. -1.
        -11    1    4    4    0    0 -0.25673944026E-01  0.67878299005E-01 -0.19309772132E-01  0.75098224336E-01  0.51100000000E-03 0. -1.
         11    1    4    4    0    0 -0.22841669212E-01  0.39430036858E-01 -0.28965660764E-01  0.53997595165E-01  0.51100000000E-03 0.  1.
</event>
<event>
 8    1  0.1103774E+005  0.1043930E+01  0.7957747E-01            NaN
         13   -1    0    0    0    0  0.00000000000E+00  0.00000000000E+00  0.74505805969E-08  0.10566000000E+00  0.10566000000E+00 0.  1.
     999900   -1    0    0    0    0 -0.00000000000E+00 -0.00000000000E+00 -0.74505805969E-08  0.93827000000E+00  0.93827000000E+00 0.  1.
     999902    2    1    2    0    0  0.29866565689E-02 -0.19704480728E-01  0.12747194810E-01  0.10202724927E+01  0.10199981773E+01 0.  0.
     999903    2    3    3    0    0  0.81214884326E-01  0.49931329573E-01  0.87334351310E-01  0.13092888886E+00  0.20641945422E-01 0.  0.
         14    1    1    2    0    0 -0.29866565689E-02  0.19704480728E-01 -0.12747194810E-01  0.23657507344E-01  0.00000000000E+00 0. -1.
     999901    1    3    3    0    0 -0.78228227757E-01 -0.69635810301E-01 -0.74587156500E-01  0.88934360379E+00  0.88000000000E+00 0.  1.
        -11    1    4    4    0    0  0.22896140202E-01  0.25072472114E-01  0.34403812385E-01  0.48339895756E-01  0.51100000000E-03 0. -1.
         11    1    4    4    0    0  0.58318744124E-01  0.24858857460E-01  0.52930538925E-01  0.82588993106E-01  0.51100000000E-03 0.  1.
</event>
<event>
 8    1  0.1103774E+005  0.1043930E+01  0.7957747E-01            NaN
         13   -1    0    0    0    0  0.00000000000E+00  0.00000000000E+00  0.74505805969E-08  0.10566000000E+00  0.10566000000E+00 0.  1.
     999900   -1    0    0    0    0 -0.00000000000E+00 -0.00000000000E+00 -0.74505805969E-08  0.93827000000E+00  0.93827000000E+00 0. -1.
     999902    2    1    2    0    0 -0.16323889529E-01 -0.15574677894E-01  0.31394100204E-02  0.10211507143E+01  0.10208966086E+01 0.  0.
     999903    2    3    3    0    0  0.88107757495E-01 -0.90297059286E-01 -0.29872251063E-01  0.13121859727E+00  0.20234451820E-01 0.  0.
         14    1    1    2    0    0  0.16323889529E-01  0.15574677894E-01 -0.31394100204E-02  0.22779285681E-01  0.00000000000E+00 0. -1.
     999901    1    3    3    0    0 -0.10443164702E+00  0.74722381392E-01  0.33011661084E-01  0.88993211705E+00  0.88000000000E+00 0. -1.
        -11    1    4    4    0    0  0.41328928841E-01 -0.56323215010E-01 -0.13824258950E-01  0.71216263344E-01  0.51100000000E-03 0. -1.
         11    1    4    4    0    0  0.46778828654E-01 -0.33973844276E-01 -0.16047992113E-01  0.60002333930E-01  0.51100000000E-03 0.  1.
</event>
<event>
 8    1  0.1103774E+005  0.1043930E+01  0.7957747E-01            NaN
         13   -1    0    0    0    0  0.00000000000E+00  0.00000000000E+00  0.74505805969E-08  0.10566000000E+00  0.10566000000E+00 0.  1.
     999900   -1    0    0    0    0 -0.00000000000E+00 -0.00000000000E+00 -0.74505805969E-08  0.93827000000E+00  0.93827000000E+00 0.  1.
     999902    2    1    2    0    0 -0.22097897005E-01 -0.95482294137E-02  0.56262075070E-02  0.10192087551E+01  0.10189089000E+01 0.  0.
     999903    2    3    3    0    0 -0.11396048424E+00  0.47659310187E-01 -0.39915788488E-01  0.13141063004E+00  0.20422578229E-01 0.  0.
         14    1    1    2    0    0  0.22097897005E-01  0.95482294137E-02 -0.56262075070E-02  0.24721244869E-01  0.00000000000E+00 0.  1.
     999901    1    3    3    0    0  0.91862587231E-01 -0.57207539601E-01  0.45541995995E-01  0.88779812509E+00  0.88000000000E+00 0. -1.
        -11    1    4    4    0    0 -0.82296788155E-01  0.36353511591E-01 -0.38193144116E-01  0.97741068769E-01  0.51100000000E-03 0.  1.
         11    1    4    4    0    0 -0.31663696081E-01  0.11305798596E-01 -0.17226443718E-02  0.33669561268E-01  0.51100000000E-03 0. -1.
</event>
<event>
 8    1  0.1103774E+005  0.1043930E+01  0.7957747E-01            NaN
         13   -1    0    0    0    0  0.00000000000E+00  0.00000000000E+00  0.74505805969E-08  0.10566000000E+00  0.10566000000E+00 0.  1.
     999900   -1    0    0    0    0 -0.00000000000E+00 -0.00000000000E+00 -0.74505805969E-08  0.93827000000E+00  0.93827000000E+00 0. -1.
     999902    2    1    2    0    0 -0.19683739733E-01 -0.12984835190E-01  0.13033319518E-02  0.10203131791E+01  0.10200398175E+01 0.  0.
     999903    2    3    3    0    0  0.21114537510E-01  0.66626114236E-01 -0.10677987448E+00  0.12919905499E+00  0.20139300500E-01 0.  0.
         14    1    1    2    0    0  0.19683739733E-01  0.12984835190E-01 -0.13033319518E-02  0.23616820891E-01  0.00000000000E+00 0. -1.
     999901    1    3    3    0    0 -0.40798277243E-01 -0.79610949426E-01  0.10808320643E+00  0.89111412412E+00  0.88000000000E+00 0. -1.
        -11    1    4    4    0    0  0.14598866078E-01  0.35590880082E-01 -0.41301674373E-01  0.56444017068E-01  0.51100000000E-03 0. -1.
         11    1    4    4    0    0  0.65156714314E-02  0.31035234154E-01 -0.65478200103E-01  0.72755037921E-01  0.51100000000E-03 0.  1.
</event>
<event>
 8    1  0.1103774E+005  0.1043930E+01  0.7957747E-01            NaN
         13   -1    0    0    0    0  0.00000000000E+00  0.00000000000E+00  0.74505805969E-08  0.10566000000E+00  0.10566000000E+00 0.  1.
     999900   -1    0    0    0    0 -0.00000000000E+00 -0.00000000000E+00 -0.74505805969E-08  0.93827000000E+00  0.93827000000E+00 0. -1.
     999902    2    1    2    0    0  0.27416618071E-01 -0.95477997567E-03  0.37254095724E-02  0.10162449638E+01  0.10158677893E+01 0.  0.
     999903    2    3    3    0    0 -0.17851904888E-01 -0.44343664300E-01  0.11592253797E+00  0.12690811534E+00  0.19559751019E-01 0.  0.
         14    1    1    2    0    0 -0.27416618071E-01  0.95477997567E-03 -0.37254095724E-02  0.27685036170E-01  0.00000000000E+00 0. -1.
     999901    1    3    3    0    0  0.45268522958E-01  0.43388884324E-01 -0.11219712840E+00  0.88933684849E+00  0.88000000000E+00 0. -1.
        -11    1    4    4    0    0 -0.20927556036E-02 -0.19797335864E-01  0.28672319728E-01  0.34909557042E-01  0.51100000000E-03 0.  1.
         11    1    4    4    0    0 -0.15759149284E-01 -0.24546328436E-01  0.87250218240E-01  0.91998558302E-01  0.51100000000E-03 0. -1.
</event>
<event>
 8    1  0.1170815E+005  0.1043930E+01  0.7957747E-01            NaN
         13   -1    0    0    0    0  0.00000000000E+00  0.00000000000E+00  0.74505805969E-08  0.10566000000E+00  0.10566000000E+00 0. -1.
     999900   -1    0    0    0    0 -0.00000000000E+00 -0.00000000000E+00 -0.74505805969E-08  0.93827000000E+00  0.93827000000E+00 0. -1.
     999902    2    1    2    0    0 -0.18615891168E-02  0.16249500298E-01 -0.17239605338E-01  0.10201662510E+01  0.10198894371E+01 0.  0.
     999903    2    3    3    0    0  0.85491685223E-01 -0.77526662121E-01 -0.56212028724E-01  0.13002951266E+00  0.20704357197E-01 0.  0.
         14    1    1    2    0    0  0.18615891168E-02 -0.16249500298E-01  0.17239605338E-01  0.23763748992E-01  0.00000000000E+00 0. -1.
     999901    1    3    3    0    0 -0.87353274339E-01  0.93776162419E-01  0.38972423386E-01  0.89013673835E+00  0.88000000000E+00 0. -1.
        -11    1    4    4    0    0  0.66983868708E-01 -0.51046689578E-01 -0.34015494179E-01  0.90829060048E-01  0.51100000000E-03 0.  1.
         11    1    4    4    0    0  0.18507816515E-01 -0.26479972543E-01 -0.22196534545E-01  0.39200452610E-01  0.51100000000E-03 0. -1.
</event>
<event>
 8    1  0.1103774E+005  0.1043930E+01  0.7957747E-01            NaN
         13   -1    0    0    0    0  0.00000000000E+00  0.00000000000E+00  0.74505805969E-08  0.10566000000E+00  0.10566000000E+00 0. -1.
     999900   -1    0    0    0    0 -0.00000000000E+00 -0.00000000000E+00 -0.74505805969E-08  0.93827000000E+00  0.93827000000E+00 0. -1.
     999902    2    1    2    0    0  0.19998117520E-01 -0.12784983922E-01 -0.28967131051E-02  0.10200182568E+01  0.10197379431E+01 0.  0.
     999903    2    3    3    0    0  0.80323078658E-01  0.85545378199E-01 -0.53020514985E-01  0.13107486341E+00  0.24487468493E-01 0.  0.
         14    1    1    2    0    0 -0.19998117520E-01  0.12784983922E-01  0.28967131051E-02  0.23911743245E-01  0.00000000000E+00 0. -1.
     999901    1    3    3    0    0 -0.60324961138E-01 -0.98330362120E-01  0.50123801880E-01  0.88894339334E+00  0.88000000000E+00 0. -1.
        -11    1    4    4    0    0  0.17162821822E-01  0.31153948227E-01 -0.84895919214E-02  0.36571371796E-01  0.51100000000E-03 0.  1.
         11    1    4    4    0    0  0.63160256836E-01  0.54391429971E-01 -0.44530923063E-01  0.94503491617E-01  0.51100000000E-03 0. -1.
</event>
<event>
 8    1  0.1103774E+005  0.1043930E+01  0.7957747E-01            NaN
         13   -1    0    0    0    0  0.00000000000E+00  0.00000000000E+00  0.74505805969E-08  0.10566000000E+00  0.10566000000E+00 0. -1.
     999900   -1    0    0    0    0 -0.00000000000E+00 -0.00000000000E+00 -0.74505805969E-08  0.93827000000E+00  0.93827000000E+00 0. -1.
     999902    2    1    2    0    0  0.14761618876E-01 -0.35772928215E-02  0.18593595334E-01  0.10199211641E+01  0.10196385422E+01 0.  0.
     999903    2    3    3    0    0 -0.14566424130E-01 -0.12499233446E+00  0.20020683643E-01  0.13109959421E+00  0.30838473445E-01 0.  0.
         14    1    1    2    0    0 -0.14761618876E-01  0.35772928215E-02 -0.18593595334E-01  0.24008835941E-01  0.00000000000E+00 0.  1.
     999901    1    3    3    0    0  0.29328043005E-01  0.12141504164E+00 -0.14270883087E-02  0.88882156985E+00  0.88000000000E+00 0. -1.
        -11    1    4    4    0    0 -0.49501795653E-02 -0.11327705323E+00  0.12211733781E-01  0.11404202133E+00  0.51100000000E-03 0.  1.
         11    1    4    4    0    0 -0.96162445644E-02 -0.11715281232E-01  0.78089498622E-02  0.17057572887E-01  0.51100000000E-03 0. -1.
</event>
<event>
 8    1  0.1103774E+005  0.1043930E+01  0.7957747E-01            NaN
         13   -1    0    0    0    0  0.00000000000E+00  0.00000000000E+00  0.74505805969E-08  0.10566000000E+00  0.10566000000E+00 0. -1.
     999900   -1    0    0    0    0 -0.00000000000E+00 -0.00000000000E+00 -0.74505805969E-08  0.93827000000E+00  0.93827000000E+00 0. -1.
     999902    2    1    2    0    0 -0.89344455792E-02  0.13403380815E-01  0.17267547274E-01  0.10203155315E+01  0.10200422249E+01 0.  0.
     999903    2    3    3    0    0 -0.35699852490E-01 -0.11972784965E+00 -0.24631198490E-01  0.12891449017E+00  0.20075168451E-01 0.  0.
         14    1    1    2    0    0  0.89344455792E-02 -0.13403380815E-01 -0.17267547274E-01  0.23614468529E-01  0.00000000000E+00 0.  1.
     999901    1    3    3    0    0  0.26765406911E-01  0.13313123046E+00  0.41898745763E-01  0.89140104130E+00  0.88000000000E+00 0. -1.
        -11    1    4    4    0    0 -0.18357760375E-01 -0.30200358847E-01 -0.70518937185E-02  0.36042466154E-01  0.51100000000E-03 0. -1.
         11    1    4    4    0    0 -0.17342092115E-01 -0.89527490800E-01 -0.17579304771E-01  0.92872024018E-01  0.51100000000E-03 0.  1.
</event>
<event>
 8    1  0.1103774E+005  0.1043930E+01  0.7957747E-01            NaN
         13   -1    0    0    0    0  0.00000000000E+00  0.00000000000E+00  0.74505805969E-08  0.10566000000E+00  0.10566000000E+00 0.  1.
     999900   -1    0    0    0    0 -0.00000000000E+00 -0.00000000000E+00 -0.74505805969E-08  0.93827000000E+00  0.93827000000E+00 0.  1.
     999902    2    1    2    0    0  0.18875303733E-02 -0.21064674822E-01  0.30259611893E-01  0.10070121533E+01  0.10063352073E+01 0.  0.
     999903    2    3    3    0    0 -0.74525622524E-01  0.14025120029E-01  0.92081999315E-01  0.12084497308E+00  0.19329783135E-01 0.  0.
         14    1    1    2    0    0 -0.18875303733E-02  0.21064674822E-01 -0.30259611893E-01  0.36917846743E-01  0.00000000000E+00 0. -1.
     999901    1    3    3    0    0  0.76413152898E-01 -0.35089794851E-01 -0.61822387422E-01  0.88616718018E+00  0.88000000000E+00 0.  1.
        -11    1    4    4    0    0 -0.68225446869E-01  0.16743784542E-01  0.76794500895E-01  0.10408036515E+00  0.51100000000E-03 0. -1.
         11    1    4    4    0    0 -0.63001756557E-02 -0.27186645130E-02  0.15287498420E-01  0.16764607928E-01  0.51100000000E-03 0.  1.
</event>
<event>
 8    1  0.1103774E+005  0.1043930E+01  0.7957747E-01            NaN
         13   -1    0    0    0    0  0.00000000000E+00  0.00000000000E+00  0.74505805969E-08  0.10566000000E+00  0.10566000000E+00 0. -1.
     999900   -1    0    0    0    0 -0.00000000000E+00 -0.00000000000E+00 -0.74505805969E-08  0.93827000000E+00  0.93827000000E+00 0.  1.
     999902    2    1    2    0    0  0.32532554993E-02  0.13422295207E-01 -0.17709052448E-01  0.10214722125E+01  0.10212253075E+01 0.  0.
     999903    2    3    3    0    0  0.40334041925E-01  0.11681171853E+00  0.43322360761E-01  0.13254634892E+00  0.20491343172E-01 0.  0.
         14    1    1    2    0    0 -0.32532554993E-02 -0.13422295207E-01  0.17709052448E-01  0.22457787481E-01  0.00000000000E+00 0. -1.
     999901    1    3    3    0    0 -0.37080786426E-01 -0.10338942333E+00 -0.61031413209E-01  0.88892586360E+00  0.88000000000E+00 0.  1.
        -11    1    4    4    0    0  0.86957224178E-02  0.50639420983E-01  0.11856500054E-01  0.52733331588E-01  0.51100000000E-03 0.  1.
         11    1    4    4    0    0  0.31638319507E-01  0.66172297551E-01  0.31465860708E-01  0.79813017331E-01  0.51100000000E-03 0. -1.
</event>
<event>
 8    1  0.1103774E+005  0.1043930E+01  0.7957747E-01            NaN
         13   -1    0    0    0    0  0.00000000000E+00  0.00000000000E+00  0.74505805969E-08  0.10566000000E+00  0.10566000000E+00 0.  1.
     999900   -1    0    0    0    0 -0.00000000000E+00 -0.00000000000E+00 -0.74505805969E-08  0.93827000000E+00  0.93827000000E+00 0.  1.
     999902    2    1    2    0    0  0.23420130862E-01  0.17149166727E-02  0.17971906782E-02  0.10203784955E+01  0.10201066615E+01 0.  0.
     999903    2    3    3    0    0  0.75603604145E-01  0.10442967583E+00 -0.23905609556E-01  0.13249670690E+00  0.19037778660E-01 0.  0.
         14    1    1    2    0    0 -0.23420130862E-01 -0.17149166727E-02 -0.17971906782E-02  0.23551504477E-01  0.00000000000E+00 0.  1.
     999901    1    3    3    0    0 -0.52183473284E-01 -0.10271475916E+00  0.25702800235E-01  0.88788178863E+00  0.88000000000E+00 0.  1.
        -11    1    4    4    0    0  0.20449332029E-01  0.43896180660E-01 -0.87470067141E-02  0.49212001630E-01  0.51100000000E-03 0.  1.
         11    1    4    4    0    0  0.55154272116E-01  0.60533495173E-01 -0.15158602842E-01  0.83284705268E-01  0.51100000000E-03 0. -1.
</event>
<event>
 8    1  0.1103774E+005  0.1043930E+01  0.7957747E-01            NaN
         13   -1    0    0    0    0  0.00000000000E+00  0.00000000000E+00  0.74505805969E-08  0.10566000000E+00  0.10566000000E+00 0.  1.
     999900   -1    0    0    0    0 -0.00000000000E+00 -0.00000000000E+00 -0.74505805969E-08  0.93827000000E+00  0.93827000000E+00 0.  1.
     999902    2    1    2    0    0  0.57683124659E-02  0.95907266121E-02 -0.20994475430E-01  0.10201387524E+01  0.10198612899E+01 0.  0.
     999903    2    3    3    0    0 -0.33621208091E-01 -0.82652057214E-01 -0.94292866958E-01  0.13141330561E+00  0.20409898030E-01 0.  0.
         14    1    1    2    0    0 -0.57683124659E-02 -0.95907266121E-02  0.20994475430E-01  0.23791247639E-01  0.00000000000E+00 0.  1.
     999901    1    3    3    0    0  0.39389520557E-01  0.92242783826E-01  0.73298391529E-01  0.88872544675E+00  0.88000000000E+00 0. -1.
        -11    1    4    4    0    0 -0.27334816765E-01 -0.40597781653E-01 -0.48013838886E-01  0.68563561229E-01  0.51100000000E-03 0.  1.
         11    1    4    4    0    0 -0.62863913262E-02 -0.42054275561E-01 -0.46279028072E-01  0.62849744384E-01  0.51100000000E-03 0. -1.
</event>
<event>
 7    1  0.1103774E+005  0.1043930E+01  0.7957747E-01            NaN
         13   -1    0    0    0    0  0.00000000000E+00  0.00000000000E+00  0.74505805969E-08  0.10566000000E+00  0.10566000000E+00 0.  1.
     999900   -1    0    0    0    0 -0.00000000000E+00 -0.00000000000E+00 -0.74505805969E-08  0.93827000000E+00  0.93827000000E+00 0. -1.
     999903    2    1    2    0    0 -0.70111567154E-01 -0.55985630679E-01  0.32181780981E-01  0.97445465626E-01  0.20246704736E-01 0.  0.
         14    1    1    2    0    0  0.31849448042E-01 -0.43331915282E-01  0.22704075351E-01  0.58373943332E-01  0.00000000000E+00 0.  1.
     999901    1    1    2    0    0  0.38262119112E-01  0.99317545961E-01 -0.54885856333E-01  0.88811059104E+00  0.88000000000E+00 0. -1.
        -11    1    3    3    0    0 -0.64821911073E-01 -0.42595003156E-01  0.27524727611E-01  0.82304837039E-01  0.51100000000E-03 0. -1.
         11    1    3    3    0    0 -0.52896560815E-02 -0.13390627523E-01  0.46570533704E-02  0.15140628587E-01  0.51100000000E-03 0.  1.
</event>
<event>
 8    1  0.1103774E+005  0.1043930E+01  0.7957747E-01            NaN
         13   -1    0    0    0    0  0.00000000000E+00  0.00000000000E+00  0.74505805969E-08  0.10566000000E+00  0.10566000000E+00 0. -1.
     999900   -1    0    0    0    0 -0.00000000000E+00 -0.00000000000E+00 -0.74505805969E-08  0.93827000000E+00  0.93827000000E+00 0.  1.
     999902    2    1    2    0    0  0.97375151075E-02  0.13719372913E-01 -0.15848966022E-01  0.10208165814E+01  0.10205548799E+01 0.  0.
     999903    2    3    3    0    0  0.10620308321E-01 -0.59322560861E-01 -0.11590374833E+00  0.13213955188E+00  0.19880269562E-01 0.  0.
         14    1    1    2    0    0 -0.97375151075E-02 -0.13719372913E-01  0.15848966022E-01  0.23113418561E-01  0.00000000000E+00 0. -1.
     999901    1    3    3    0    0 -0.88279321308E-03  0.73041933774E-01  0.10005478230E+00  0.88867702956E+00  0.88000000000E+00 0. -1.
        -11    1    4    4    0    0  0.14882147626E-01 -0.26987510062E-01 -0.57896515142E-01  0.65590179172E-01  0.51100000000E-03 0. -1.
         11    1    4    4    0    0 -0.42618393058E-02 -0.32335050799E-01 -0.58007233184E-01  0.66549372703E-01  0.51100000000E-03 0.  1.
</event>
<event>
 8    1  0.1103774E+005  0.1043930E+01  0.7957747E-01            NaN
         13   -1    0    0    0    0  0.00000000000E+00  0.00000000000E+00  0.74505805969E-08  0.10566000000E+00  0.10566000000E+00 0.  1.
     999900   -1    0    0    0    0 -0.00000000000E+00 -0.00000000000E+00 -0.74505805969E-08  0.93827000000E+00  0.93827000000E+00 0.  1.
     999902    2    1    2    0    0  0.16597038666E-01  0.59275271714E-02  0.16179833578E-01  0.10200054460E+01  0.10197248283E+01 0.  0.
     999903    2    3    3    0    0  0.72852598394E-01  0.25245665124E-01  0.10694554783E+00  0.13333961639E+00  0.19931342129E-01 0.  0.
         14    1    1    2    0    0 -0.16597038666E-01 -0.59275271714E-02 -0.16179833578E-01  0.23924554029E-01  0.00000000000E+00 0. -1.
     999901    1    3    3    0    0 -0.56255559728E-01 -0.19318137953E-01 -0.90765714253E-01  0.88666582958E+00  0.88000000000E+00 0.  1.
        -11    1    4    4    0    0  0.26578673941E-01  0.23273158688E-02  0.25551031082E-01  0.36945346364E-01  0.51100000000E-03 0.  1.
         11    1    4    4    0    0  0.46273924453E-01  0.22918349256E-01  0.81394516750E-01  0.96394270031E-01  0.51100000000E-03 0. -1.
</event>
<event>
 8    1  0.1103774E+005  0.1043930E+01  0.7957747E-01            NaN
         13   -1    0    0    0    0  0.00000000000E+00  0.00000000000E+00  0.74505805969E-08  0.10566000000E+00  0.10566000000E+00 0.  1.
     999900   -1    0    0    0    0 -0.00000000000E+00 -0.00000000000E+00 -0.74505805969E-08  0.93827000000E+00  0.93827000000E+00 0.  1.
     999902    2    1    2    0    0 -0.86929961677E-02 -0.20442626948E-01  0.79512720672E-02  0.10203356806E+01  0.10200628457E+01 0.  0.
     999903    2    3    3    0    0  0.11163478236E+00 -0.24867810876E-01 -0.57880238599E-01  0.12969987160E+00  0.19778827609E-01 0.  0.
         14    1    1    2    0    0  0.86929961677E-02  0.20442626948E-01 -0.79512720672E-02  0.23594319367E-01  0.00000000000E+00 0. -1.
     999901    1    3    3    0    0 -0.12032777853E+00  0.44251839276E-02  0.65831510666E-01  0.89063580903E+00  0.88000000000E+00 0. -1.
        -11    1    4    4    0    0  0.45605879069E-01 -0.79635046412E-02 -0.12995025702E-01  0.48087892716E-01  0.51100000000E-03 0. -1.
         11    1    4    4    0    0  0.66028903292E-01 -0.16904306235E-01 -0.44885212897E-01  0.81611978882E-01  0.51100000000E-03 0.  1.
</event>
<event>
 8    1  0.1103774E+005  0.1043930E+01  0.7957747E-01            NaN
         13   -1    0    0    0    0  0.00000000000E+00  0.00000000000E+00  0.74505805969E-08  0.10566000000E+00  0.10566000000E+00 0.  1.
     999900   -1    0    0    0    0 -0.00000000000E+00 -0.00000000000E+00 -0.74505805969E-08  0.93827000000E+00  0.93827000000E+00 0.  1.
     999902    2    1    2    0    0 -0.23132806643E-01  0.84227312562E-03 -0.26097037158E-02  0.10206352212E+01  0.10203693488E+01 0.  0.
     999903    2    3    3    0    0  0.49505786577E-01 -0.65830537262E-01  0.97642282944E-01  0.12947188614E+00  0.21082488992E-01 0.  0.
         14    1    1    2    0    0  0.23132806643E-01 -0.84227312562E-03  0.26097037158E-02  0.23294778829E-01  0.00000000000E+00 0. -1.
     999901    1    3    3    0    0 -0.72638593219E-01  0.66672810387E-01 -0.10025198666E+00  0.89116333503E+00  0.88000000000E+00 0.  1.
        -11    1    4    4    0    0  0.49800835719E-01 -0.55326168884E-01  0.83868262215E-01  0.11213944324E+00  0.51100000000E-03 0. -1.
         11    1    4    4    0    0 -0.29504914223E-03 -0.10504368378E-01  0.13774020729E-01  0.17332442906E-01  0.51100000000E-03 0.  1.
</event>
<event>
 8    1  0.1103774E+005  0.1043930E+01  0.7957747E-01            NaN
         13   -1    0    0    0    0  0.00000000000E+00  0.00000000000E+00  0.74505805969E-08  0.10566000000E+00  0.10566000000E+00 0.  1.
     999900   -1    0    0    0    0 -0.00000000000E+00 -0.00000000000E+00 -0.74505805969E-08  0.93827000000E+00  0.93827000000E+00 0.  1.
     999902    2    1    2    0    0  0.14415102922E-02 -0.90213135139E-02 -0.19669442194E-01  0.10222424689E+01  0.10220123855E+01 0.  0.
     999903    2    3    3    0    0  0.49026379032E-01  0.66762395991E-01 -0.10324597731E+00  0.13376482281E+00  0.19300068168E-01 0.  0.
         14    1    1    2    0    0 -0.14415102922E-02  0.90213135139E-02  0.19669442194E-01  0.21687531110E-01  0.00000000000E+00 0.  1.
     999901    1    3    3    0    0 -0.47584868740E-01 -0.75783709505E-01  0.83576535118E-01  0.88847764608E+00  0.88000000000E+00 0. -1.
        -11    1    4    4    0    0  0.27727676897E-01  0.30995024175E-01 -0.37812011824E-01  0.56209651741E-01  0.51100000000E-03 0. -1.
         11    1    4    4    0    0  0.21298702135E-01  0.35767371816E-01 -0.65433965488E-01  0.77555171070E-01  0.51100000000E-03 0.  1.
</event>
<event>
 8    1  0.1103774E+005  0.1043930E+01  0.7957747E-01            NaN
         13   -1    0    0    0    0  0.00000000000E+00  0.00000000000E+00  0.74505805969E-08  0.10566000000E+00  0.10566000000E+00 0. -1.
     999900   -1    0    0    0    0 -0.00000000000E+00 -0.00000000000E+00 -0.74505805969E-08  0.93827000000E+00  0.93827000000E+00 0. -1.
     999902    2    1    2    0    0 -0.14102022230E-01  0.31295412714E-02  0.19281954857E-01  0.10198373695E+01  0.10195527478E+01 0.  0.
     999903    2    3    3    0    0 -0.66227693490E-02 -0.11724680859E-01  0.13046016953E+00  0.13268620848E+00  0.20110814806E-01 0.  0.
         14    1    1    2    0    0  0.14102022230E-01 -0.31295412714E-02 -0.19281954857E-01  0.24092630464E-01  0.00000000000E+00 0.  1.
     999901    1    3    3    0    0 -0.74792528814E-02  0.14854222131E-01 -0.11117821468E+00  0.88715116105E+00  0.88000000000E+00 0. -1.
        -11    1    4    4    0    0  0.63875595403E-03 -0.15779558062E-01  0.90074984138E-01  0.91450349099E-01  0.51100000000E-03 0.  1.
         11    1    4    4    0    0 -0.72615253030E-02  0.40548772025E-02  0.40385185394E-01  0.41235859384E-01  0.51100000000E-03 0. -1.
</event>
<event>
 8    1  0.1103774E+005  0.1043930E+01  0.7957747E-01            NaN
         13   -1    0    0    0    0  0.00000000000E+00  0.00000000000E+00  0.74505805969E-08  0.10566000000E+00  0.10566000000E+00 0. -1.
     999900   -1    0    0    0    0 -0.00000000000E+00 -0.00000000000E+00 -0.74505805969E-08  0.93827000000E+00  0.93827000000E+00 0.  1.
     999902    2    1    2    0    0  0.21167713300E-01 -0.18537540989E-01  0.98267230450E-02  0.10141260238E+01  0.10136879772E+01 0.  0.
     999903    2    3    3    0    0  0.71857880341E-01 -0.37784921696E-02 -0.10106516775E+00  0.12559671420E+00  0.19558489606E-01 0.  0.
         14    1    1    2    0    0 -0.21167713300E-01  0.18537540989E-01 -0.98267230450E-02  0.29803976213E-01  0.00000000000E+00 0. -1.
     999901    1    3    3    0    0 -0.50690167041E-01 -0.14759048820E-01  0.11089189079E+00  0.88852930959E+00  0.88000000000E+00 0. -1.
        -11    1    4    4    0    0  0.16318611684E-01  0.73482227166E-02 -0.25485584927E-01  0.31145940738E-01  0.51100000000E-03 0. -1.
         11    1    4    4    0    0  0.55539268657E-01 -0.11126714886E-01 -0.75579582819E-01  0.94450773460E-01  0.51100000000E-03 0.  1.
</event>
<event>
 8    1  0.1103774E+005  0.1043930E+01  0.7957747E-01            NaN
         13   -1    0    0    0    0  0.00000000000E+00  0.00000000000E+00  0.74505805969E-08  0.10566000000E+00  0.10566000000E+00 0.  1.
     999900   -1    0    0    0    0 -0.00000000000E+00 -0.00000000000E+00 -0.74505805969E-08  0.93827000000E+00  0.93827000000E+00 0. -1.
     999902    2    1    2    0    0  0.11775608888E-01  0.18950819353E-01 -0.80866168205E-02  0.10201983357E+01  0.10199222776E+01 0.  0.
     999903    2    3    3    0    0 -0.40982854477E-01 -0.21162363527E-01 -0.12058762385E+00  0.13056414151E+00  0.19446851398E-01 0.  0.
         14    1    1    2    0    0 -0.11775608888E-01 -0.18950819353E-01  0.80866168205E-02  0.23731664299E-01  0.00000000000E+00 0.  1.
     999901    1    3    3    0    0  0.52758463365E-01  0.40113182879E-01  0.11250100703E+00  0.88963419419E+00  0.88000000000E+00 0.  1.
        -11    1    4    4    0    0 -0.67391585365E-02 -0.13295728352E-01 -0.36455253999E-01  0.39388314451E-01  0.51100000000E-03 0.  1.
         11    1    4    4    0    0 -0.34243695941E-01 -0.78666351746E-02 -0.84132369855E-01  0.91175827055E-01  0.51100000000E-03 0. -1.
</event>
<event>
 8    1  0.1103774E+005  0.1043930E+01  0.7957747E-01            NaN
         13   -1    0    0    0    0  0.00000000000E+00  0.00000000000E+00  0.74505805969E-08  0.10566000000E+00  0.10566000000E+00 0.  1.
     999900   -1    0    0    0    0 -0.00000000000E+00 -0.00000000000E+00 -0.74505805969E-08  0.93827000000E+00  0.93827000000E+00 0. -1.
     999902    2    1    2    0    0  0.18989465974E-01  0.13723214161E-01 -0.24567959557E-02  0.10203723628E+01  0.10201003855E+01 0.  0.
     999903    2    3    3    0    0  0.65883051992E-01  0.10526936405E-01  0.11193824377E+00  0.13172426049E+00  0.19228038184E-01 0.  0.
         14    1    1    2    0    0 -0.18989465974E-01 -0.13723214161E-01  0.24567959557E-02  0.23557637217E-01  0.00000000000E+00 0. -1.
     999901    1    3    3    0    0 -0.46893586018E-01  0.31962777560E-02 -0.11439503973E+00  0.88864810230E+00  0.88000000000E+00 0. -1.
        -11    1    4    4    0    0  0.12012164294E-01 -0.50861699249E-02  0.26138760510E-01  0.29217411548E-01  0.51100000000E-03 0.  1.
         11    1    4    4    0    0  0.53870887698E-01  0.15613106330E-01  0.85799483260E-01  0.10250684894E+00  0.51100000000E-03 0. -1.
</event>
<event>
 8    1  0.1103774E+005  0.1043930E+01  0.7957747E-01            NaN
         13   -1    0    0    0    0  0.00000000000E+00  0.00000000000E+00  0.74505805969E-08  0.10566000000E+00  0.10566000000E+00 0. -1.
     999900   -1    0    0    0    0 -0.00000000000E+00 -0.00000000000E+00 -0.74505805969E-08  0.93827000000E+00  0.93827000000E+00 0. -1.
     999902    2    1    2    0    0  0.44973092968E-02 -0.23123594242E-01 -0.29469404006E-02  0.10201895101E+01  0.10199132442E+01 0.  0.
     999903    2    3    3    0    0  0.71042612619E-01 -0.10985727016E+00  0.15047926756E-01  0.13324259899E+00  0.20284907502E-01 0.  0.
         14    1    1    2    0    0 -0.44973092968E-02  0.23123594242E-01  0.29469404006E-02  0.23740489871E-01  0.00000000000E+00 0.  1.
     999901    1    3    3    0    0 -0.66545303322E-01  0.86733675915E-01 -0.17994867156E-01  0.88694691114E+00  0.88000000000E+00 0. -1.
        -11    1    4    4    0    0  0.39788036475E-01 -0.48214233828E-01  0.14274038304E-01  0.64122612865E-01  0.51100000000E-03 0.  1.
         11    1    4    4    0    0  0.31254576144E-01 -0.61643036330E-01  0.77388845200E-03  0.69119986127E-01  0.51100000000E-03 0. -1.
</event>
<event>
 8    1  0.1103774E+005  0.1043930E+01  0.7957747E-01            NaN
         13   -1    0    0    0    0  0.00000000000E+00  0.00000000000E+00  0.74505805969E-08  0.10566000000E+00  0.10566000000E+00 0. -1.
     999900   -1    0    0    0    0 -0.00000000000E+00 -0.00000000000E+00 -0.74505805969E-08  0.93827000000E+00  0.93827000000E+00 0. -1.
     999902    2    1    2    0    0 -0.15068900531E-01  0.16182468746E-01  0.76950400442E-02  0.10205172321E+01  0.10202486282E+01 0.  0.
     999903    2    3    3    0    0  0.67428976971E-01 -0.92887243426E-01  0.54824385364E-01  0.12870824076E+00  0.19631380033E-01 0.  0.
         14    1    1    2    0    0  0.15068900531E-01 -0.16182468746E-01 -0.76950400442E-02  0.23412767867E-01  0.00000000000E+00 0. -1.
     999901    1    3    3    0    0 -0.82497877501E-01  0.10906971217E+00 -0.47129345320E-01  0.89180899137E+00  0.88000000000E+00 0. -1.
        -11    1    4    4    0    0  0.40694319894E-01 -0.58037424721E-01  0.23208543873E-01  0.74587317753E-01  0.51100000000E-03 0. -1.
         11    1    4    4    0    0  0.26734657077E-01 -0.34849818705E-01  0.31615841491E-01  0.54120923006E-01  0.51100000000E-03 0.  1.
</event>
<event>
 8    1  0.1103774E+005  0.1043930E+01  0.7957747E-01            NaN
         13   -1    0    0    0    0  0.00000000000E+00  0.00000000000E+00  0.74505805969E-08  0.10566000000E+00  0.10566000000E+00 0. -1.
     999900   -1    0    0    0    0 -0.00000000000E+00 -0.00000000000E+00 -0.74505805969E-08  0.93827000000E+00  0.93827000000E+00 0.  1.
     999902    2    1    2    0    0  0.20435138776E-01 -0.10235698032E-02  0.13485633025E-01  0.10194247987E+01  0.10191302249E+01 0.  0.
     999903    2    3    3    0    0  0.10621960315E+00  0.74682417720E-01 -0.87302292389E-02  0.13174021768E+00  0.20474385023E-01 0.  0.
         14    1    1    2    0    0 -0.20435138776E-01  0.10235698032E-02 -0.13485633025E-01  0.24505201285E-01  0.00000000000E+00 0.  1.
     999901    1    3    3    0    0 -0.85784464371E-01 -0.75705987523E-01  0.22215862264E-01  0.88768458104E+00  0.88000000000E+00 0. -1.
        -11    1    4    4    0    0  0.72219567864E-01  0.44213019020E-01  0.25165567605E-02  0.84717478788E-01  0.51100000000E-03 0. -1.
         11    1    4    4    0    0  0.34000035284E-01  0.30469398700E-01 -0.11246785999E-01  0.47022738890E-01  0.51100000000E-03 0.  1.
</event>
<event>
 8    1  0.1103774E+005  0.1043930E+01  0.7957747E-01            NaN
         13   -1    0    0    0    0  0.00000000000E+00  0.00000000000E+00  0.74505805969E-08  0.10566000000E+00  0.10566000000E+00 0.  1.
     999900   -1    0    0    0    0 -0.00000000000E+00 -0.00000000000E+00 -0.74505805969E-08  0.93827000000E+00  0.93827000000E+00 0.  1.
     999902    2    1    2    0    0  0.80175825759E-02  0.13917337045E-01  0.17745804816E-01  0.10199949318E+01  0.10197140645E+01 0.  0.
     999903    2    3    3    0    0 -0.44723985904E-01 -0.95512067464E-01  0.73478031869E-01  0.12990361697E+00  0.18791982026E-01 0.  0.
         14    1    1    2    0    0 -0.80175825759E-02 -0.13917337045E-01 -0.17745804816E-01  0.23935068191E-01  0.00000000000E+00 0. -1.
     999901    1    3    3    0    0  0.52741568480E-01  0.10942940451E+00 -0.55732227054E-01  0.89009131484E+00  0.88000000000E+00 0.  1.
        -11    1    4    4    0    0 -0.20153368455E-01 -0.50993118146E-01  0.48694022309E-01  0.73333657266E-01  0.51100000000E-03 0.  1.
         11    1    4    4    0    0 -0.24570617449E-01 -0.44518949317E-01  0.24784009560E-01  0.56569959705E-01  0.51100000000E-03 0. -1.
</event>
<event>
 8    1  0.1103774E+005  0.1043930E+01  0.7957747E-01            NaN
         13   -1    0    0    0    0  0.00000000000E+00  0.00000000000E+00  0.74505805969E-08  0.10566000000E+00  0.10566000000E+00 0.  1.
     999900   -1    0    0    0    0 -0.00000000000E+00 -0.00000000000E+00 -0.74505805969E-08  0.93827000000E+00  0.93827000000E+00 0. -1.
     999902    2    1    2    0    0 -0.20561204021E-01  0.92601429981E-02 -0.65513816629E-02  0.10204473690E+01  0.10201771409E+01 0.  0.
     999903    2    3    3    0    0  0.12336172218E+00 -0.15237251928E-01  0.23740953762E-01  0.12790518136E+00  0.18596079902E-01 0.  0.
         14    1    1    2    0    0  0.20561204021E-01 -0.92601429981E-02  0.65513816629E-02  0.23482631046E-01  0.00000000000E+00 0.  1.
     999901    1    3    3    0    0 -0.14392292620E+00  0.24497394926E-01 -0.30292335425E-01  0.89254218759E+00  0.88000000000E+00 0. -1.
        -11    1    4    4    0    0  0.48415196434E-01 -0.86472418529E-02  0.59388578095E-03  0.49187598627E-01  0.51100000000E-03 0. -1.
         11    1    4    4    0    0  0.74946525749E-01 -0.65900100754E-02  0.23147067981E-01  0.78717582736E-01  0.51100000000E-03 0.  1.
</event>
<event>
 8    1  0.1103774E+005  0.1043930E+01  0.7957747E-01            NaN
         13   -1    0    0    0    0  0.00000000000E+00  0.00000000000E+00  0.74505805969E-08  0.10566000000E+00  0.10566000000E+00 0.  1.
     999900   -1    0    0    0    0 -0.00000000000E+00 -0.00000000000E+00 -0.74505805969E-08  0.93827000000E+00  0.93827000000E+00 0.  1.
     999902    2    1    2    0    0 -0.41352445988E-02 -0.10477383989E-01  0.19514474382E-01  0.10213980109E+01  0.10211494534E+01 0.  0.
     999903    2    3    3    0    0 -0.95735021262E-01 -0.85934463761E-01  0.28829054522E-01  0.13338277938E+00  0.20246606965E-01 0.  0.
         14    1    1    2    0    0  0.41352445988E-02  0.10477383989E-01 -0.19514474382E-01  0.22531989116E-01  0.00000000000E+00 0. -1.
     999901    1    3    3    0    0  0.91599776663E-01  0.75457079772E-01 -0.93145801399E-02  0.88801523150E+00  0.88000000000E+00 0. -1.
        -11    1    4    4    0    0 -0.41227423161E-01 -0.28970674518E-01  0.32560878388E-02  0.50496174425E-01  0.51100000000E-03 0. -1.
         11    1    4    4    0    0 -0.54507598100E-01 -0.56963789243E-01  0.25572966683E-01  0.82886604959E-01  0.51100000000E-03 0.  1.
</event>
<event>
 8    1  0.1103774E+005  0.1043930E+01  0.7957747E-01            NaN
         13   -1    0    0    0    0  0.00000000000E+00  0.00000000000E+00  0.74505805969E-08  0.10566000000E+00  0.10566000000E+00 0.  1.
     999900   -1    0    0    0    0 -0.00000000000E+00 -0.00000000000E+00 -0.74505805969E-08  0.93827000000E+00  0.93827000000E+00 0. -1.
     999902    2    1    2    0    0  0.16357617430E-01 -0.14702097889E-02 -0.17938142805E-01  0.10196090187E+01  0.10193189103E+01 0.  0.
     999903    2    3    3    0    0  0.34171943942E-01  0.28617053969E-01 -0.12327890559E+00  0.13263705184E+00  0.20204985169E-01 0.  0.
         14    1    1    2    0    0 -0.16357617430E-01  0.14702097889E-02  0.17938142805E-01  0.24320981314E-01  0.00000000000E+00 0. -1.
     999901    1    3    3    0    0 -0.17814326512E-01 -0.30087263758E-01  0.10534076279E+00  0.88697196685E+00  0.88000000000E+00 0.  1.
        -11    1    4    4    0    0  0.29671806087E-01  0.16869935278E-01 -0.10524977813E+00  0.11064713150E+00  0.51100000000E-03 0.  1.
         11    1    4    4    0    0  0.45001378551E-02  0.11747118691E-01 -0.18029127465E-01  0.21989920337E-01  0.51100000000E-03 0. -1.
</event>
<event>
 8    1  0.1103774E+005  0.1043930E+01  0.7957747E-01            NaN
         13   -1    0    0    0    0  0.00000000000E+00  0.00000000000E+00  0.74505805969E-08  0.10566000000E+00  0.10566000000E+00 0.  1.
     999900   -1    0    0    0    0 -0.00000000000E+00 -0.00000000000E+00 -0.74505805969E-08  0.93827000000E+00  0.93827000000E+00 0. -1.
     999902    2    1    2    0    0  0.17473203816E-01  0.73186665957E-02 -0.14316854581E-01  0.10201845150E+01  0.10199081315E+01 0.  0.
     999903    2    3    3    0    0 -0.57661191846E-02  0.30225550836E-01  0.12379697595E+00  0.12881465818E+00  0.17907899213E-01 0.  0.
         14    1    1    2    0    0 -0.17473203816E-01 -0.73186665957E-02  0.14316854581E-01  0.23745484990E-01  0.00000000000E+00 0. -1.
     999901    1    3    3    0    0  0.23239323000E-01 -0.22906884240E-01 -0.13811383053E+00  0.89136985683E+00  0.88000000000E+00 0. -1.
        -11    1    4    4    0    0 -0.11717415581E-01  0.13731748387E-01  0.62216176402E-01  0.64784044863E-01  0.51100000000E-03 0.  1.
         11    1    4    4    0    0  0.59512963962E-02  0.16493802449E-01  0.61580799547E-01  0.64030613318E-01  0.51100000000E-03 0. -1.
</event>
<event>
 8    1  0.1103774E+005  0.1043930E+01  0.7957747E-01            NaN
         13   -1    0    0    0    0  0.00000000000E+00  0.00000000000E+00  0.74505805969E-08  0.10566000000E+00  0.10566000000E+00 0.  1.
     999900   -1    0    0    0    0 -0.00000000000E+00 -0.00000000000E+00 -0.74505805969E-08  0.93827000000E+00  0.93827000000E+00 0. -1.
     999902    2    1    2    0    0 -0.23730036052E-01  0.21493144370E-02 -0.54645858065E-03  0.10200965617E+01  0.10198181026E+01 0.  0.
     999903    2    3    3    0    0  0.26638982502E-01  0.98033068167E-01 -0.78531209884E-01  0.13003344390E+00  0.20528705833E-01 0.  0.
         14    1    1    2    0    0  0.23730036052E-01 -0.21493144370E-02  0.54645858065E-03  0.23833438286E-01  0.00000000000E+00 0. -1.
     999901    1    3    3    0    0 -0.50369018554E-01 -0.95883753730E-01  0.77984751303E-01  0.89006311782E+00  0.88000000000E+00 0.  1.
        -11    1    4    4    0    0  0.11001032996E-01  0.40167002535E-01 -0.19812208443E-01  0.46121530157E-01  0.51100000000E-03 0.  1.
         11    1    4    4    0    0  0.15637949506E-01  0.57866065632E-01 -0.58719001441E-01  0.83911913741E-01  0.51100000000E-03 0. -1.
</event>
<event>
 8    1  0.1103774E+005  0.1043930E+01  0.7957747E-01            NaN
         13   -1    0    0    0    0  0.00000000000E+00  0.00000000000E+00  0.74505805969E-08  0.10566000000E+00  0.10566000000E+00 0.  1.
     999900   -1    0    0    0    0 -0.00000000000E+00 -0.00000000000E+00 -0.74505805969E-08  0.93827000000E+00  0.93827000000E+00 0. -1.
     999902    2    1    2    0    0 -0.75977903947E-02  0.19103683887E-02 -0.22635410996E-01  0.10199771764E+01  0.10196958873E+01 0.  0.
     999903    2    3    3    0    0 -0.70648618708E-01  0.45214275761E-01 -0.98848458247E-01  0.13337745619E+00  0.31352353418E-01 0.  0.
         14    1    1    2    0    0  0.75977903947E-02 -0.19103683887E-02  0.22635410996E-01  0.23952823575E-01  0.00000000000E+00 0.  1.
     999901    1    3    3    0    0  0.63050828313E-01 -0.43303907373E-01  0.76213047251E-01  0.88659972023E+00  0.88000000000E+00 0.  1.
        -11    1    4    4    0    0 -0.56821092838E-01  0.29791403866E-01 -0.53570327032E-01  0.83583523466E-01  0.51100000000E-03 0.  1.
         11    1    4    4    0    0 -0.13827525870E-01  0.15422871895E-01 -0.45278131214E-01  0.49793932727E-01  0.51100000000E-03 0. -1.
</event>
<event>
 8    1  0.1103774E+005  0.1043930E+01  0.7957747E-01            NaN
         13   -1    0    0    0    0  0.00000000000E+00  0.00000000000E+00  0.74505805969E-08  0.10566000000E+00  0.10566000000E+00 0.  1.
     999900   -1    0    0    0    0 -0.00000000000E+00 -0.00000000000E+00 -0.74505805969E-08  0.93827000000E+00  0.93827000000E+00 0.  1.
     999902    2    1    2    0    0  0.16524535095E-01 -0.55059902050E-04 -0.14114197188E-01  0.10221981374E+01  0.10219671023E+01 0.  0.
     999903    2    3    3    0    0 -0.10758506772E+00  0.71139749479E-01 -0.47046188843E-02  0.13059259982E+00  0.19921921046E-01 0.  0.
         14    1    1    2    0    0 -0.16524535095E-01  0.55059902050E-04  0.14114197188E-01  0.21731862644E-01  0.00000000000E+00 0.  1.
     999901    1    3    3    0    0  0.12410960281E+00 -0.71194809381E-01 -0.94095783039E-02  0.89160553753E+00  0.88000000000E+00 0. -1.
        -11    1    4    4    0    0 -0.26785563800E-01  0.28543003355E-01 -0.24559948195E-02  0.39223239287E-01  0.51100000000E-03 0.  1.
         11    1    4    4    0    0 -0.80799503919E-01  0.42596746124E-01 -0.22486240648E-02  0.91369360538E-01  0.51100000000E-03 0. -1.
</event>
<event>
 8    1  0.1103774E+005  0.1043930E+01  0.7957747E-01            NaN
         13   -1    0    0    0    0  0.00000000000E+00  0.00000000000E+00  0.74505805969E-08  0.10566000000E+00  0.10566000000E+00 0. -1.
     999900   -1    0    0    0    0 -0.00000000000E+00 -0.00000000000E+00 -0.74505805969E-08  0.93827000000E+00  0.93827000000E+00 0. -1.
     999902    2    1    2    0    0  0.18245515310E-01 -0.56479161353E-03  0.14969232134E-01  0.10203228882E+01  0.10200497539E+01 0.  0.
     999903    2    3    3    0    0  0.55810633406E-01 -0.41082521997E-01  0.11133725165E+00  0.13333944990E+00  0.24100308721E-01 0.  0.
         14    1    1    2    0    0 -0.18245515310E-01  0.56479161353E-03 -0.14969232134E-01  0.23607111835E-01  0.00000000000E+00 0.  1.
     999901    1    3    3    0    0 -0.37565118096E-01  0.40517730384E-01 -0.96368019513E-01  0.88698343827E+00  0.88000000000E+00 0. -1.
        -11    1    4    4    0    0  0.31382073947E-01 -0.27709885699E-01  0.45389113042E-01  0.61750344407E-01  0.51100000000E-03 0.  1.
         11    1    4    4    0    0  0.24428559459E-01 -0.13372636299E-01  0.65948138605E-01  0.71589105493E-01  0.51100000000E-03 0. -1.
</event>
<event>
 8    1  0.1103774E+005  0.1043930E+01  0.7957747E-01            NaN
         13   -1    0    0    0    0  0.00000000000E+00  0.00000000000E+00  0.74505805969E-08  0.10566000000E+00  0.10566000000E+00 0.  1.
     999900   -1    0    0    0    0 -0.00000000000E+00 -0.00000000000E+00 -0.74505805969E-08  0.93827000000E+00  0.93827000000E+00 0. -1.
     999902    2    1    2    0    0 -0.16846271764E-01 -0.95146053279E-02 -0.14065423616E-01  0.10200101186E+01  0.10197296118E+01 0.  0.
     999903    2    3    3    0    0 -0.84636319395E-01 -0.82287209222E-01 -0.58576501689E-01  0.13328999444E+00  0.20013113345E-01 0.  0.
         14    1    1    2    0    0  0.16846271764E-01  0.95146053279E-02  0.14065423616E-01  0.23919881446E-01  0.00000000000E+00 0.  1.
     999901    1    3    3    0    0  0.67790047632E-01  0.72772603894E-01  0.44511078072E-01  0.88672012411E+00  0.88000000000E+00 0.  1.
        -11    1    4    4    0    0 -0.50916270919E-01 -0.38851483050E-01 -0.24366014348E-01  0.68526404806E-01  0.51100000000E-03 0.  1.
         11    1    4    4    0    0 -0.33720048476E-01 -0.43435726172E-01 -0.34210487341E-01  0.64763589635E-01  0.51100000000E-03 0. -1.
</event>
<event>
 8    1  0.1103774E+005  0.1043930E+01  0.7957747E-01            NaN
         13   -1    0    0    0    0  0.00000000000E+00  0.00000000000E+00  0.74505805969E-08  0.10566000000E+00  0.10566000000E+00 0.  1.
     999900   -1    0    0    0    0 -0.00000000000E+00 -0.00000000000E+00 -0.74505805969E-08  0.93827000000E+00  0.93827000000E+00 0.  1.
     999902    2    1    2    0    0 -0.10308277071E-01  0.17868276663E-01 -0.95967338510E-02  0.10211784465E+01  0.10209249661E+01 0.  0.
     999903    2    3    3    0    0 -0.24046654267E-01  0.10498093660E+00  0.75072470110E-01  0.13272685374E+00  0.19526989150E-01 0.  0.
         14    1    1    2    0    0  0.10308277071E-01 -0.17868276663E-01  0.95967338510E-02  0.22751553523E-01  0.00000000000E+00 0. -1.
     999901    1    3    3    0    0  0.13738377196E-01 -0.87112659939E-01 -0.84669203961E-01  0.88845159273E+00  0.88000000000E+00 0. -1.
        -11    1    4    4    0    0 -0.69372973164E-02  0.58082295997E-01  0.31377599402E-01  0.66381428635E-01  0.51100000000E-03 0. -1.
         11    1    4    4    0    0 -0.17109356950E-01  0.46898640605E-01  0.43694870707E-01  0.66345425110E-01  0.51100000000E-03 0.  1.
</event>
<event>
 8    1  0.1103774E+005  0.1043930E+01  0.7957747E-01            NaN
         13   -1    0    0    0    0  0.00000000000E+00  0.00000000000E+00  0.74505805969E-08  0.10566000000E+00  0.10566000000E+00 0. -1.
     999900   -1    0    0    0    0 -0.00000000000E+00 -0.00000000000E+00 -0.74505805969E-08  0.93827000000E+00  0.93827000000E+00 0. -1.
     999902    2    1    2    0    0 -0.24370876208E-02  0.22872065518E-01 -0.52611468754E-02  0.10203344402E+01  0.10200615763E+01 0.  0.
     999903    2    3    3    0    0  0.24738088918E-01  0.16675984083E-01 -0.12654959854E+00  0.13157813491E+00  0.20197603999E-01 0.  0.
         14    1    1    2    0    0  0.24370876208E-02 -0.22872065518E-01  0.52611468754E-02  0.23595559828E-01  0.00000000000E+00 0. -1.
     999901    1    3    3    0    0 -0.27175176539E-01  0.61960814355E-02  0.12128845166E+00  0.88875630527E+00  0.88000000000E+00 0.  1.
        -11    1    4    4    0    0  0.12398150198E-01  0.19246053519E-01 -0.70474609328E-01  0.74101662501E-01  0.51100000000E-03 0.  1.
         11    1    4    4    0    0  0.12339938720E-01 -0.25700694368E-02 -0.56074989208E-01  0.57476472405E-01  0.51100000000E-03 0. -1.
</event>
<event>
 8    1  0.1103774E+005  0.1043930E+01  0.7957747E-01            NaN
         13   -1    0    0    0    0  0.00000000000E+00  0.00000000000E+00  0.74505805969E-08  0.10566000000E+00  0.10566000000E+00 0.  1.
     999900   -1    0    0    0    0 -0.00000000000E+00 -0.00000000000E+00 -0.74505805969E-08  0.93827000000E+00  0.93827000000E+00 0. -1.
     999902    2    1    2    0    0 -0.21439318843E-01 -0.11868703112E-01  0.85724937586E-04  0.10194245342E+01  0.10191299540E+01 0.  0.
     999903    2    3    3    0    0 -0.24678181586E-02  0.73628957632E-01 -0.10401819728E+00  0.12897105732E+00  0.19657943265E-01 0.  0.
         14    1    1    2    0    0  0.21439318843E-01  0.11868703112E-01 -0.85724937586E-04  0.24505465815E-01  0.00000000000E+00 0. -1.
     999901    1    3    3    0    0 -0.18971500685E-01 -0.85497660744E-01  0.10410392222E+00  0.89045347686E+00  0.88000000000E+00 0. -1.
        -11    1    4    4    0    0  0.29114388827E-02  0.23309889919E-01 -0.48224736230E-01  0.53644326353E-01  0.51100000000E-03 0.  1.
         11    1    4    4    0    0 -0.53792570413E-02  0.50319067713E-01 -0.55793461051E-01  0.75326730972E-01  0.51100000000E-03 0. -1.
</event>
<event>
 8    1  0.1103774E+005  0.1043930E+01  0.7957747E-01            NaN
         13   -1    0    0    0    0  0.00000000000E+00  0.00000000000E+00  0.74505805969E-08  0.10566000000E+00  0.10566000000E+00 0.  1.
     999900   -1    0    0    0    0 -0.00000000000E+00 -0.00000000000E+00 -0.74505805969E-08  0.93827000000E+00  0.93827000000E+00 0. -1.
     999902    2    1    2    0    0  0.27278750765E-02  0.16727014460E-01 -0.16023443655E-01  0.10206065127E+01  0.10203399770E+01 0.  0.
     999903    2    3    3    0    0  0.59905416443E-01  0.11041079528E+00 -0.43816992990E-01  0.13335322108E+00  0.91624268274E-02 0.  0.
         14    1    1    2    0    0 -0.27278750765E-02 -0.16727014460E-01  0.16023443655E-01  0.23323487341E-01  0.00000000000E+00 0.  1.
     999901    1    3    3    0    0 -0.57177541367E-01 -0.93683780819E-01  0.27793549335E-01  0.88725329157E+00  0.88000000000E+00 0.  1.
        -11    1    4    4    0    0  0.51693489430E-01  0.10075168171E+00 -0.38676394607E-01  0.11966303873E+00  0.51100000000E-03 0. -1.
         11    1    4    4    0    0  0.82119270127E-02  0.96591135716E-02 -0.51405983834E-02  0.13690182358E-01  0.51100000000E-03 0.  1.
</event>
<event>
 8    1  0.1103774E+005  0.1043930E+01  0.7957747E-01            NaN
         13   -1    0    0    0    0  0.00000000000E+00  0.00000000000E+00  0.74505805969E-08  0.10566000000E+00  0.10566000000E+00 0.  1.
     999900   -1    0    0    0    0 -0.00000000000E+00 -0.00000000000E+00 -0.74505805969E-08  0.93827000000E+00  0.93827000000E+00 0.  1.
     999902    2    1    2    0    0 -0.47312608397E-02  0.93761052761E-02  0.20324548798E-01  0.10210524244E+01  0.10207960962E+01 0.  0.
     999903    2    3    3    0    0  0.73777845652E-01 -0.27008218048E-02  0.10879607623E+00  0.13305651053E+00  0.20420182242E-01 0.  0.
         14    1    1    2    0    0  0.47312608397E-02 -0.93761052761E-02 -0.20324548798E-01  0.22877575552E-01  0.00000000000E+00 0. -1.
     999901    1    3    3    0    0 -0.78509106492E-01  0.12076927081E-01 -0.88471527436E-01  0.88799591392E+00  0.88000000000E+00 0.  1.
        -11    1    4    4    0    0  0.43929242118E-01  0.68330198709E-02  0.73070367044E-01  0.85533666673E-01  0.51100000000E-03 0. -1.
         11    1    4    4    0    0  0.29848603534E-01 -0.95338416757E-02  0.35725709191E-01  0.47522843856E-01  0.51100000000E-03 0.  1.
</event>
<event>
 7    1  0.1103774E+005  0.1043930E+01  0.7957747E-01            NaN
         13   -1    0    0    0    0  0.00000000000E+00  0.00000000000E+00  0.74505805969E-08  0.10566000000E+00  0.10566000000E+00 0. -1.
     999900   -1    0    0    0    0 -0.00000000000E+00 -0.00000000000E+00 -0.74505805969E-08  0.93827000000E+00  0.93827000000E+00 0. -1.
     999903    2    1    2    0    0  0.81523591188E-01 -0.95149761980E-02  0.34676288903E-01  0.91491758751E-01  0.20776578520E-01 0.  0.
         14    1    1    2    0    0  0.94418610188E-02 -0.26276835024E-01  0.55818875858E-01  0.62412880885E-01  0.00000000000E+00 0. -1.
     999901    1    1    2    0    0 -0.90965452207E-01  0.35791811222E-01 -0.90495164761E-01  0.89002536036E+00  0.88000000000E+00 0. -1.
        -11    1    3    3    0    0  0.84913173760E-02  0.52247348928E-02  0.60618308286E-02  0.11679350987E-01  0.51100000000E-03 0.  1.
         11    1    3    3    0    0  0.73032273812E-01 -0.14739711091E-01  0.28614458074E-01  0.79812407764E-01  0.51100000000E-03 0. -1.
</event>
<event>
 7    1  0.1405286E+005  0.1043930E+01  0.7957747E-01            NaN
         13   -1    0    0    0    0  0.00000000000E+00  0.00000000000E+00  0.74505805969E-08  0.10566000000E+00  0.10566000000E+00 0. -1.
     999900   -1    0    0    0    0 -0.00000000000E+00 -0.00000000000E+00 -0.74505805969E-08  0.93827000000E+00  0.93827000000E+00 0. -1.
     999903    2    1    2    0    0  0.68267963256E-01  0.33749961856E-01 -0.63862225910E-01  0.10129809835E+00  0.19579226176E-01 0.  0.
         14    1    1    2    0    0  0.97829825976E-03 -0.53856227464E-01  0.23478657559E-01  0.58759660184E-01  0.00000000000E+00 0. -1.
     999901    1    1    2    0    0 -0.69246261516E-01  0.20106265608E-01  0.40383568351E-01  0.88387224147E+00  0.88000000000E+00 0.  1.
        -11    1    3    3    0    0  0.27559221184E-01  0.35031406430E-02 -0.19873689464E-01  0.34161488852E-01  0.51100000000E-03 0. -1.
         11    1    3    3    0    0  0.40708742072E-01  0.30246821213E-01 -0.43988536446E-01  0.67136609494E-01  0.51100000000E-03 0.  1.
</event>
<event>
 8    1  0.1103774E+005  0.1043930E+01  0.7957747E-01            NaN
         13   -1    0    0    0    0  0.00000000000E+00  0.00000000000E+00  0.74505805969E-08  0.10566000000E+00  0.10566000000E+00 0. -1.
     999900   -1    0    0    0    0 -0.00000000000E+00 -0.00000000000E+00 -0.74505805969E-08  0.93827000000E+00  0.93827000000E+00 0.  1.
     999902    2    1    2    0    0  0.13777859788E-01 -0.18311810223E-01 -0.87074502376E-02  0.10194152799E+01  0.10191204744E+01 0.  0.
     999903    2    3    3    0    0 -0.30245698447E-01 -0.95282918199E-01  0.81265343705E-01  0.13039462273E+00  0.20126221094E-01 0.  0.
         14    1    1    2    0    0 -0.13777859788E-01  0.18311810223E-01  0.87074502376E-02  0.24514720142E-01  0.00000000000E+00 0.  1.
     999901    1    3    3    0    0  0.44023558235E-01  0.76971107976E-01 -0.89972793943E-01  0.88902065712E+00  0.88000000000E+00 0.  1.
        -11    1    4    4    0    0 -0.79747082962E-02 -0.52740075254E-01  0.35631225033E-01  0.64147929262E-01  0.51100000000E-03 0.  1.
         11    1    4    4    0    0 -0.22270990150E-01 -0.42542842946E-01  0.45634118672E-01  0.66246693473E-01  0.51100000000E-03 0. -1.
</event>
<event>
 8    1  0.1103774E+005  0.1043930E+01  0.7957747E-01            NaN
         13   -1    0    0    0    0  0.00000000000E+00  0.00000000000E+00  0.74505805969E-08  0.10566000000E+00  0.10566000000E+00 0.  1.
     999900   -1    0    0    0    0 -0.00000000000E+00 -0.00000000000E+00 -0.74505805969E-08  0.93827000000E+00  0.93827000000E+00 0.  1.
     999902    2    1    2    0    0  0.72620630933E-02 -0.22166729370E-01 -0.36950496454E-02  0.10203131661E+01  0.10200398042E+01 0.  0.
     999903    2    3    3    0    0 -0.41941268733E-01  0.11898654502E+00  0.22001660953E-04  0.12769957042E+00  0.19756312448E-01 0.  0.
         14    1    1    2    0    0 -0.72620630933E-02  0.22166729370E-01  0.36950496454E-02  0.23616833894E-01  0.00000000000E+00 0.  1.
     999901    1    3    3    0    0  0.49203331826E-01 -0.14115327439E+00 -0.37170513063E-02  0.89261359569E+00  0.88000000000E+00 0.  1.
        -11    1    4    4    0    0 -0.12846079287E-01  0.51349446717E-01 -0.83683453423E-02  0.53591769480E-01  0.51100000000E-03 0. -1.
         11    1    4    4    0    0 -0.29095189446E-01  0.67637098306E-01  0.83903470032E-02  0.74107800939E-01  0.51100000000E-03 0.  1.
</event>
<event>
 7    1  0.1103774E+005  0.1043930E+01  0.7957747E-01            NaN
         13   -1    0    0    0    0  0.00000000000E+00  0.00000000000E+00  0.74505805969E-08  0.10566000000E+00  0.10566000000E+00 0.  1.
     999900   -1    0    0    0    0 -0.00000000000E+00 -0.00000000000E+00 -0.74505805969E-08  0.93827000000E+00  0.93827000000E+00 0. -1.
     999903    2    1    2    0    0 -0.11865330345E-01  0.45836249931E-01  0.23355369441E-01  0.56597849854E-01  0.20398417938E-01 0.  0.
         14    1    1    2    0    0 -0.54350855777E-02 -0.22657689948E-01  0.96015197117E-01  0.98801969345E-01  0.00000000000E+00 0.  1.
     999901    1    1    2    0    0  0.17300415923E-01 -0.23178559983E-01 -0.11937056656E+00  0.88853018080E+00  0.88000000000E+00 0. -1.
        -11    1    3    3    0    0 -0.17300423240E-01  0.32559857268E-01  0.13892098793E-01  0.39404320569E-01  0.51100000000E-03 0.  1.
         11    1    3    3    0    0  0.54350928948E-02  0.13276392663E-01  0.94632706480E-02  0.17193529285E-01  0.51100000000E-03 0. -1.
</event>
<event>
 8    1  0.1103774E+005  0.1043930E+01  0.7957747E-01            NaN
         13   -1    0    0    0    0  0.00000000000E+00  0.00000000000E+00  0.74505805969E-08  0.10566000000E+00  0.10566000000E+00 0. -1.
     999900   -1    0    0    0    0 -0.00000000000E+00 -0.00000000000E+00 -0.74505805969E-08  0.93827000000E+00  0.93827000000E+00 0.  1.
     999902    2    1    2    0    0  0.73955736269E-02 -0.11227130345E-01  0.19315395198E-01  0.10203964610E+01  0.10201250464E+01 0.  0.
     999903    2    3    3    0    0 -0.12513485281E+00  0.30579197803E-02  0.29900042021E-01  0.13029511211E+00  0.20364711294E-01 0.  0.
         14    1    1    2    0    0 -0.73955736269E-02  0.11227130345E-01 -0.19315395198E-01  0.23533538975E-01  0.00000000000E+00 0.  1.
     999901    1    3    3    0    0  0.13253042644E+00 -0.14285050125E-01 -0.10584646823E-01  0.89010134891E+00  0.88000000000E+00 0.  1.
        -11    1    4    4    0    0 -0.11075050341E+00  0.28258024574E-02  0.19390868035E-01  0.11247189004E+00  0.51100000000E-03 0. -1.
         11    1    4    4    0    0 -0.14384349399E-01  0.23211732297E-03  0.10509173986E-01  0.17823222070E-01  0.51100000000E-03 0.  1.
</event>
<event>
 8    1  0.1103774E+005  0.1043930E+01  0.7957747E-01            NaN
         13   -1    0    0    0    0  0.00000000000E+00  0.00000000000E+00  0.74505805969E-08  0.10566000000E+00  0.10566000000E+00 0.  1.
     999900   -1    0    0    0    0 -0.00000000000E+00 -0.00000000000E+00 -0.74505805969E-08  0.93827000000E+00  0.93827000000E+00 0.  1.
     999902    2    1    2    0    0 -0.19592090344E-01  0.11213472119E-01 -0.57998426779E-02  0.10206227021E+01  0.10203565406E+01 0.  0.
     999903    2    3    3    0    0 -0.77335698524E-02  0.81796231656E-01 -0.10179606293E+00  0.13251357323E+00  0.21141831645E-01 0.  0.
         14    1    1    2    0    0  0.19592090344E-01 -0.11213472119E-01  0.57998426779E-02  0.23307297915E-01  0.00000000000E+00 0.  1.
     999901    1    3    3    0    0 -0.11858520492E-01 -0.70582759538E-01  0.95996220257E-01  0.88810912886E+00  0.88000000000E+00 0. -1.
        -11    1    4    4    0    0 -0.91711670923E-02  0.66766696351E-01 -0.69247589574E-01  0.96630180742E-01  0.51100000000E-03 0.  1.
         11    1    4    4    0    0  0.14375972399E-02  0.15029535306E-01 -0.32548473361E-01  0.35883392488E-01  0.51100000000E-03 0. -1.
</event>
<event>
 8    1  0.1103774E+005  0.1043930E+01  0.7957747E-01            NaN
         13   -1    0    0    0    0  0.00000000000E+00  0.00000000000E+00  0.74505805969E-08  0.10566000000E+00  0.10566000000E+00 0.  1.
     999900   -1    0    0    0    0 -0.00000000000E+00 -0.00000000000E+00 -0.74505805969E-08  0.93827000000E+00  0.93827000000E+00 0.  1.
     999902    2    1    2    0    0  0.21860711198E-01 -0.69997913855E-03  0.69581820820E-02  0.10209779421E+01  0.10207199230E+01 0.  0.
     999903    2    3    3    0    0 -0.10116497194E+00  0.33209985530E-01 -0.68790757479E-01  0.12855253553E+00  0.21361914476E-01 0.  0.
         14    1    1    2    0    0 -0.21860711198E-01  0.69997913855E-03 -0.69581820820E-02  0.22952057920E-01  0.00000000000E+00 0. -1.
     999901    1    3    3    0    0  0.12302568314E+00 -0.33909964669E-01  0.75748939561E-01  0.89242540655E+00  0.88000000000E+00 0. -1.
        -11    1    4    4    0    0 -0.48063611551E-01  0.21419634361E-01 -0.44759124616E-01  0.69083658335E-01  0.51100000000E-03 0. -1.
         11    1    4    4    0    0 -0.53101360386E-01  0.11790351169E-01 -0.24031632863E-01  0.59468877193E-01  0.51100000000E-03 0.  1.
</event>
<event>
 8    1  0.1103774E+005  0.1043930E+01  0.7957747E-01            NaN
         13   -1    0    0    0    0  0.00000000000E+00  0.00000000000E+00  0.74505805969E-08  0.10566000000E+00  0.10566000000E+00 0.  1.
     999900   -1    0    0    0    0 -0.00000000000E+00 -0.00000000000E+00 -0.74505805969E-08  0.93827000000E+00  0.93827000000E+00 0. -1.
     999902    2    1    2    0    0  0.18314136818E-01 -0.10639456360E-01  0.98922351096E-02  0.10205534743E+01  0.10202857109E+01 0.  0.
     999903    2    3    3    0    0 -0.90458436332E-01 -0.14627778381E-01  0.90436961470E-01  0.13019689834E+00  0.19382665810E-01 0.  0.
         14    1    1    2    0    0 -0.18314136818E-01  0.10639456360E-01 -0.98922351096E-02  0.23376525715E-01  0.00000000000E+00 0.  1.
     999901    1    3    3    0    0  0.10877257315E+00  0.39883220212E-02 -0.80544726360E-01  0.89035657594E+00  0.88000000000E+00 0.  1.
        -11    1    4    4    0    0 -0.34755951267E-01 -0.77400584752E-02  0.48313951068E-01  0.60019860400E-01  0.51100000000E-03 0.  1.
         11    1    4    4    0    0 -0.55702485065E-01 -0.68877199057E-02  0.42123010402E-01  0.70177037941E-01  0.51100000000E-03 0. -1.
</event>
<event>
 8    1  0.1103774E+005  0.1043930E+01  0.7957747E-01            NaN
         13   -1    0    0    0    0  0.00000000000E+00  0.00000000000E+00  0.74505805969E-08  0.10566000000E+00  0.10566000000E+00 0. -1.
     999900   -1    0    0    0    0 -0.00000000000E+00 -0.00000000000E+00 -0.74505805969E-08  0.93827000000E+00  0.93827000000E+00 0.  1.
     999902    2    1    2    0    0 -0.12887854839E-01  0.19290631807E-01  0.46597458741E-02  0.10202669801E+01  0.10199925354E+01 0.  0.
     999903    2    3    3    0    0 -0.83336227997E-01  0.10094551702E+00  0.17104600474E-01  0.13359603329E+00  0.20503864283E-01 0.  0.
         14    1    1    2    0    0  0.12887854839E-01 -0.19290631807E-01 -0.46597458741E-02  0.23663019873E-01  0.00000000000E+00 0.  1.
     999901    1    3    3    0    0  0.70448373158E-01 -0.81654885211E-01 -0.12444854600E-01  0.88667094684E+00  0.88000000000E+00 0.  1.
        -11    1    4    4    0    0 -0.29915209170E-01  0.49916169083E-01  0.12830285892E-01  0.59593800287E-01  0.51100000000E-03 0.  1.
         11    1    4    4    0    0 -0.53421018827E-01  0.51029347936E-01  0.42743145821E-02  0.74002233003E-01  0.51100000000E-03 0. -1.
</event>
<event>
 8    1  0.1103774E+005  0.1043930E+01  0.7957747E-01            NaN
         13   -1    0    0    0    0  0.00000000000E+00  0.00000000000E+00  0.74505805969E-08  0.10566000000E+00  0.10566000000E+00 0. -1.
     999900   -1    0    0    0    0 -0.00000000000E+00 -0.00000000000E+00 -0.74505805969E-08  0.93827000000E+00  0.93827000000E+00 0. -1.
     999902    2    1    2    0    0 -0.14598888346E-01  0.19156001059E-01 -0.29156910593E-02  0.10196693081E+01  0.10193806535E+01 0.  0.
     999903    2    3    3    0    0 -0.36423902260E-02 -0.88223639475E-01 -0.91432037258E-01  0.12866674042E+00  0.19965847954E-01 0.  0.
         14    1    1    2    0    0  0.14598888346E-01 -0.19156001059E-01  0.29156910593E-02  0.24260691908E-01  0.00000000000E+00 0.  1.
     999901    1    3    3    0    0 -0.10956498120E-01  0.10737964053E+00  0.88516346198E-01  0.89100256767E+00  0.88000000000E+00 0.  1.
        -11    1    4    4    0    0 -0.32606864808E-02 -0.33098629258E-01 -0.48417251191E-01  0.58742171129E-01  0.51100000000E-03 0. -1.
         11    1    4    4    0    0 -0.38170374527E-03 -0.55125010217E-01 -0.43014786066E-01  0.69924569291E-01  0.51100000000E-03 0.  1.
</event>
<event>
 8    1  0.1103774E+005  0.1043930E+01  0.7957747E-01            NaN
         13   -1    0    0    0    0  0.00000000000E+00  0.00000000000E+00  0.74505805969E-08  0.10566000000E+00  0.10566000000E+00 0. -1.
     999900   -1    0    0    0    0 -0.00000000000E+00 -0.00000000000E+00 -0.74505805969E-08  0.93827000000E+00  0.93827000000E+00 0.  1.
     999902    2    1    2    0    0  0.69027356629E-02 -0.18085445424E-01 -0.13413762688E-01  0.10203787766E+01  0.10201069491E+01 0.  0.
     999903    2    3    3    0    0  0.12172774125E+00  0.42970474376E-01  0.20142653161E-02  0.13068746420E+00  0.20274402030E-01 0.  0.
         14    1    1    2    0    0 -0.69027356629E-02  0.18085445424E-01  0.13413762688E-01  0.23551223434E-01  0.00000000000E+00 0. -1.
     999901    1    3    3    0    0 -0.11482500558E+00 -0.61055919800E-01 -0.15428028004E-01  0.88969131236E+00  0.88000000000E+00 0.  1.
        -11    1    4    4    0    0  0.63817390139E-01  0.32217864679E-01  0.53513751297E-02  0.71690643918E-01  0.51100000000E-03 0. -1.
         11    1    4    4    0    0  0.57910351106E-01  0.10752609697E-01 -0.33371098136E-02  0.58996820283E-01  0.51100000000E-03 0.  1.
</event>
<event>
 8    1  0.1103774E+005  0.1043930E+01  0.7957747E-01            NaN
         13   -1    0    0    0    0  0.00000000000E+00  0.00000000000E+00  0.74505805969E-08  0.10566000000E+00  0.10566000000E+00 0. -1.
     999900   -1    0    0    0    0 -0.00000000000E+00 -0.00000000000E+00 -0.74505805969E-08  0.93827000000E+00  0.93827000000E+00 0.  1.
     999902    2    1    2    0    0  0.17092353482E-01 -0.16141656718E-01 -0.28043442017E-02  0.10202537255E+01  0.10199789696E+01 0.  0.
     999903    2    3    3    0    0 -0.11575376914E-01  0.20426271946E-01 -0.12685120357E+00  0.13033986700E+00  0.18601912482E-01 0.  0.
         14    1    1    2    0    0 -0.17092353482E-01  0.16141656718E-01  0.28043442017E-02  0.23676274528E-01  0.00000000000E+00 0. -1.
     999901    1    3    3    0    0  0.28667730396E-01 -0.36567928664E-01  0.12404685937E+00  0.88991385847E+00  0.88000000000E+00 0. -1.
        -11    1    4    4    0    0  0.38631553332E-02  0.10082090009E-01 -0.59307524523E-01  0.60284459806E-01  0.51100000000E-03 0. -1.
         11    1    4    4    0    0 -0.15438532247E-01  0.10344181937E-01 -0.67543679044E-01  0.70055407199E-01  0.51100000000E-03 0.  1.
</event>
<event>
 8    1  0.1103774E+005  0.1043930E+01  0.7957747E-01            NaN
         13   -1    0    0    0    0  0.00000000000E+00  0.00000000000E+00  0.74505805969E-08  0.10566000000E+00  0.10566000000E+00 0.  1.
     999900   -1    0    0    0    0 -0.00000000000E+00 -0.00000000000E+00 -0.74505805969E-08  0.93827000000E+00  0.93827000000E+00 0.  1.
     999902    2    1    2    0    0 -0.79984669629E-02  0.65119094598E-03 -0.21300334276E-01  0.10211681072E+01  0.10209143938E+01 0.  0.
     999903    2    3    3    0    0  0.56827978093E-01 -0.63866876440E-01 -0.10005623904E+00  0.13292965862E+00  0.18725548607E-01 0.  0.
         14    1    1    2    0    0  0.79984669629E-02 -0.65119094598E-03  0.21300334276E-01  0.22761892796E-01  0.00000000000E+00 0.  1.
     999901    1    3    3    0    0 -0.64826445056E-01  0.64518067386E-01  0.78755904766E-01  0.88823844858E+00  0.88000000000E+00 0.  1.
        -11    1    4    4    0    0  0.21765146697E-01 -0.12192093145E-01 -0.25558644758E-01  0.35719381138E-01  0.51100000000E-03 0. -1.
         11    1    4    4    0    0  0.35062831396E-01 -0.51674783294E-01 -0.74497594284E-01  0.97210277487E-01  0.51100000000E-03 0.  1.
</event>
<event>
 8    1  0.1103774E+005  0.1043930E+01  0.7957747E-01            NaN
         13   -1    0    0    0    0  0.00000000000E+00  0.00000000000E+00  0.74505805969E-08  0.10566000000E+00  0.10566000000E+00 0. -1.
     999900   -1    0    0    0    0 -0.00000000000E+00 -0.00000000000E+00 -0.74505805969E-08  0.93827000000E+00  0.93827000000E+00 0. -1.
     999902    2    1    2    0    0 -0.41351589457E-03  0.21684978354E-01 -0.91427962717E-02  0.10203927953E+01  0.10201212951E+01 0.  0.
     999903    2    3    3    0    0  0.72013790941E-01 -0.83294607785E-01  0.62549792863E-01  0.12831305916E+00  0.20683007351E-01 0.  0.
         14    1    1    2    0    0  0.41351589457E-03 -0.21684978354E-01  0.91427962717E-02  0.23537204704E-01  0.00000000000E+00 0. -1.
     999901    1    3    3    0    0 -0.72427306835E-01  0.10497958614E+00 -0.71692589135E-01  0.89207973613E+00  0.88000000000E+00 0.  1.
        -11    1    4    4    0    0  0.26889577244E-01 -0.17224336916E-01  0.20142756421E-01  0.37758693089E-01  0.51100000000E-03 0.  1.
         11    1    4    4    0    0  0.45124213697E-01 -0.66070270869E-01  0.42407036442E-01  0.90554366075E-01  0.51100000000E-03 0. -1.
</event>
<event>
 8    1  0.1103774E+005  0.1043930E+01  0.7957747E-01            NaN
         13   -1    0    0    0    0  0.00000000000E+00  0.00000000000E+00  0.74505805969E-08  0.10566000000E+00  0.10566000000E+00 0.  1.
     999900   -1    0    0    0    0 -0.00000000000E+00 -0.00000000000E+00 -0.74505805969E-08  0.93827000000E+00  0.93827000000E+00 0.  1.
     999902    2    1    2    0    0  0.18682788970E-01  0.60543910324E-02  0.85910200945E-02  0.10224938651E+01  0.10222691408E+01 0.  0.
     999903    2    3    3    0    0 -0.62618756098E-01  0.78266555720E-01 -0.82138142316E-01  0.13117107344E+00  0.20307971981E-01 0.  0.
         14    1    1    2    0    0 -0.18682788970E-01 -0.60543910324E-02 -0.85910200945E-02  0.21436134930E-01  0.00000000000E+00 0.  1.
     999901    1    3    3    0    0  0.81301545068E-01 -0.72212164688E-01  0.90729162410E-01  0.89132279163E+00  0.88000000000E+00 0. -1.
        -11    1    4    4    0    0 -0.53396145203E-01  0.64039519198E-01 -0.76872423055E-01  0.11341004757E+00  0.51100000000E-03 0. -1.
         11    1    4    4    0    0 -0.92226108954E-02  0.14227036522E-01 -0.52657192607E-02  0.17761025878E-01  0.51100000000E-03 0.  1.
</event>
<event>
 8    1  0.1103774E+005  0.1043930E+01  0.7957747E-01            NaN
         13   -1    0    0    0    0  0.00000000000E+00  0.00000000000E+00  0.74505805969E-08  0.10566000000E+00  0.10566000000E+00 0. -1.
     999900   -1    0    0    0    0 -0.00000000000E+00 -0.00000000000E+00 -0.74505805969E-08  0.93827000000E+00  0.93827000000E+00 0. -1.
     999902    2    1    2    0    0 -0.16374324402E-01 -0.11339771829E-01 -0.12047127869E-01  0.10206524955E+01  0.10203870219E+01 0.  0.
     999903    2    3    3    0    0 -0.16126735180E-01 -0.45652437173E-01  0.11930639724E+00  0.13024182125E+00  0.19613744509E-01 0.  0.
         14    1    1    2    0    0  0.16374324402E-01  0.11339771829E-01  0.12047127869E-01  0.23277504476E-01  0.00000000000E+00 0. -1.
     999901    1    3    3    0    0 -0.24758922122E-03  0.34312665344E-01 -0.13135352511E+00  0.89041067427E+00  0.88000000000E+00 0. -1.
        -11    1    4    4    0    0 -0.67032085704E-02 -0.30709609643E-02  0.29400740824E-01  0.30315482651E-01  0.51100000000E-03 0.  1.
         11    1    4    4    0    0 -0.94235266099E-02 -0.42581476209E-01  0.89905656413E-01  0.99926338599E-01  0.51100000000E-03 0. -1.
</event>
<event>
 8    1  0.1103774E+005  0.1043930E+01  0.7957747E-01            NaN
         13   -1    0    0    0    0  0.00000000000E+00  0.00000000000E+00  0.74505805969E-08  0.10566000000E+00  0.10566000000E+00 0.  1.
     999900   -1    0    0    0    0 -0.00000000000E+00 -0.00000000000E+00 -0.74505805969E-08  0.93827000000E+00  0.93827000000E+00 0.  1.
     999902    2    1    2    0    0  0.22245536897E-01 -0.20265891251E-02  0.51161515166E-02  0.10210139362E+01  0.10207567349E+01 0.  0.
     999903    2    3    3    0    0 -0.59560633259E-02  0.29958013669E-01  0.12661839459E+00  0.13164273124E+00  0.19095380777E-01 0.  0.
         14    1    1    2    0    0 -0.22245536897E-01  0.20265891251E-02 -0.51161515166E-02  0.22916063835E-01  0.00000000000E+00 0. -1.
     999901    1    3    3    0    0  0.28201600223E-01 -0.31984602794E-01 -0.12150224308E+00  0.88937120492E+00  0.88000000000E+00 0.  1.
        -11    1    4    4    0    0  0.15951829100E-02  0.26972740727E-01  0.83529043472E-01  0.87792001773E-01  0.51100000000E-03 0.  1.
         11    1    4    4    0    0 -0.75512462359E-02  0.29852729415E-02  0.43089351119E-01  0.43850729471E-01  0.51100000000E-03 0. -1.
</event>
<event>
 8    1  0.1103774E+005  0.1043930E+01  0.7957747E-01            NaN
         13   -1    0    0    0    0  0.00000000000E+00  0.00000000000E+00  0.74505805969E-08  0.10566000000E+00  0.10566000000E+00 0.  1.
     999900   -1    0    0    0    0 -0.00000000000E+00 -0.00000000000E+00 -0.74505805969E-08  0.93827000000E+00  0.93827000000E+00 0.  1.
     999902    2    1    2    0    0 -0.19539002717E-03  0.15450116008E-01  0.17029220042E-01  0.10209356834E+01  0.10206767025E+01 0.  0.
     999903    2    3    3    0    0  0.29590080222E-01  0.10058901579E+00  0.81039999409E-01  0.13401224453E+00  0.19951872967E-01 0.  0.
         14    1    1    2    0    0  0.19539002717E-03 -0.15450116008E-01 -0.17029220042E-01  0.22994316628E-01  0.00000000000E+00 0. -1.
     999901    1    3    3    0    0 -0.29785470249E-01 -0.85138899780E-01 -0.64010779367E-01  0.88692343884E+00  0.88000000000E+00 0. -1.
        -11    1    4    4    0    0  0.26283954308E-01  0.92644893580E-01  0.66237201188E-01  0.11688263559E+00  0.51100000000E-03 0. -1.
         11    1    4    4    0    0  0.33061259138E-02  0.79441222083E-02  0.14802798221E-01  0.17129608938E-01  0.51100000000E-03 0.  1.
</event>
<event>
 8    1  0.1103774E+005  0.1043930E+01  0.7957747E-01            NaN
         13   -1    0    0    0    0  0.00000000000E+00  0.00000000000E+00  0.74505805969E-08  0.10566000000E+00  0.10566000000E+00 0.  1.
     999900   -1    0    0    0    0 -0.00000000000E+00 -0.00000000000E+00 -0.74505805969E-08  0.93827000000E+00  0.93827000000E+00 0. -1.
     999902    2    1    2    0    0 -0.20901443499E-01  0.30579130307E-02  0.13317314408E-01  0.10189585756E+01  0.10186525447E+01 0.  0.
     999903    2    3    3    0    0  0.52394448413E-01  0.11459761731E+00  0.17282176442E-01  0.12888604289E+00  0.20860160860E-01 0.  0.
         14    1    1    2    0    0  0.20901443499E-01 -0.30579130307E-02 -0.13317314408E-01  0.24971424378E-01  0.00000000000E+00 0.  1.
     999901    1    3    3    0    0 -0.73295891912E-01 -0.11153970428E+00 -0.39648620342E-02  0.89007253274E+00  0.88000000000E+00 0. -1.
        -11    1    4    4    0    0  0.47642087434E-02  0.68059894301E-02  0.64731537042E-02  0.10544288357E-01  0.51100000000E-03 0. -1.
         11    1    4    4    0    0  0.47630239670E-01  0.10779162788E+00  0.10809022738E-01  0.11834175453E+00  0.51100000000E-03 0.  1.
</event>
<event>
 8    1  0.1103774E+005  0.1043930E+01  0.7957747E-01            NaN
         13   -1    0    0    0    0  0.00000000000E+00  0.00000000000E+00  0.74505805969E-08  0.10566000000E+00  0.10566000000E+00 0. -1.
     999900   -1    0    0    0    0 -0.00000000000E+00 -0.00000000000E+00 -0.74505805969E-08  0.93827000000E+00  0.93827000000E+00 0.  1.
     999902    2    1    2    0    0 -0.21938409449E-01  0.34604773764E-03 -0.70867441234E-02  0.10208727777E+01  0.10206123616E+01 0.  0.
     999903    2    3    3    0    0 -0.71673347832E-01 -0.82040820156E-01  0.70942603991E-01  0.13219412978E+00  0.23972274092E-01 0.  0.
         14    1    1    2    0    0  0.21938409449E-01 -0.34604773764E-03  0.70867441234E-02  0.23057222305E-01  0.00000000000E+00 0. -1.
     999901    1    3    3    0    0  0.49734938383E-01  0.82386867894E-01 -0.78029348115E-01  0.88867864792E+00  0.88000000000E+00 0.  1.
        -11    1    4    4    0    0 -0.14318996272E-01 -0.26129691422E-01  0.96135029603E-02  0.31312537237E-01  0.51100000000E-03 0. -1.
         11    1    4    4    0    0 -0.57354351559E-01 -0.55911128734E-01  0.61329101031E-01  0.10088159254E+00  0.51100000000E-03 0.  1.
</event>
<event>
 8    1  0.1103774E+005  0.1043930E+01  0.7957747E-01            NaN
         13   -1    0    0    0    0  0.00000000000E+00  0.00000000000E+00  0.74505805969E-08  0.10566000000E+00  0.10566000000E+00 0. -1.
     999900   -1    0    0    0    0 -0.00000000000E+00 -0.00000000000E+00 -0.74505805969E-08  0.93827000000E+00  0.93827000000E+00 0.  1.
     999902    2    1    2    0    0  0.10644016674E-01 -0.15180393060E-01 -0.12595280756E-01  0.10215161533E+01  0.10212702243E+01 0.  0.
     999903    2    3    3    0    0  0.10237904471E+00  0.78340954546E-01 -0.19398603973E-01  0.13179268899E+00  0.19345104770E-01 0.  0.
         14    1    1    2    0    0 -0.10644016674E-01  0.15180393060E-01  0.12595280756E-01  0.22413846652E-01  0.00000000000E+00 0. -1.
     999901    1    3    3    0    0 -0.91735028041E-01 -0.93521347606E-01  0.68033232167E-02  0.88972346436E+00  0.88000000000E+00 0. -1.
        -11    1    4    4    0    0  0.59277910043E-01  0.35668874209E-01 -0.44658691708E-02  0.69327803332E-01  0.51100000000E-03 0.  1.
         11    1    4    4    0    0  0.43101134671E-01  0.42672080336E-01 -0.14932734802E-01  0.62464885655E-01  0.51100000000E-03 0. -1.
</event>
<event>
 8    1  0.1103774E+005  0.1043930E+01  0.7957747E-01            NaN
         13   -1    0    0    0    0  0.00000000000E+00  0.00000000000E+00  0.74505805969E-08  0.10566000000E+00  0.10566000000E+00 0. -1.
     999900   -1    0    0    0    0 -0.00000000000E+00 -0.00000000000E+00 -0.74505805969E-08  0.93827000000E+00  0.93827000000E+00 0. -1.
     999902    2    1    2    0    0  0.22827479819E-02  0.16184956868E-01  0.19286523798E-01  0.10186489049E+01  0.10183351402E+01 0.  0.
     999903    2    3    3    0    0  0.51020374250E-01 -0.77969594137E-01  0.87821558473E-01  0.12963963240E+00  0.20284771559E-01 0.  0.
         14    1    1    2    0    0 -0.22827479819E-02 -0.16184956868E-01 -0.19286523798E-01  0.25281095059E-01  0.00000000000E+00 0.  1.
     999901    1    3    3    0    0 -0.48737626268E-01  0.94154551005E-01 -0.68535034675E-01  0.88900927254E+00  0.88000000000E+00 0. -1.
        -11    1    4    4    0    0  0.40019673246E-01 -0.43865386280E-01  0.51294889647E-01  0.78467656937E-01  0.51100000000E-03 0. -1.
         11    1    4    4    0    0  0.11000701004E-01 -0.34104207857E-01  0.36526668826E-01  0.51171975462E-01  0.51100000000E-03 0.  1.
</event>
<event>
 8    1  0.1103774E+005  0.1043930E+01  0.7957747E-01            NaN
         13   -1    0    0    0    0  0.00000000000E+00  0.00000000000E+00  0.74505805969E-08  0.10566000000E+00  0.10566000000E+00 0.  1.
     999900   -1    0    0    0    0 -0.00000000000E+00 -0.00000000000E+00 -0.74505805969E-08  0.93827000000E+00  0.93827000000E+00 0.  1.
     999902    2    1    2    0    0  0.17790551040E-01  0.12312221920E-01 -0.12545865560E-01  0.10189201368E+01  0.10186131513E+01 0.  0.
     999903    2    3    3    0    0  0.46201714664E-01 -0.42302649642E-01 -0.11337856746E+00  0.13102531634E+00  0.19718553649E-01 0.  0.
         14    1    1    2    0    0 -0.17790551040E-01 -0.12312221920E-01  0.12545865560E-01  0.25009863206E-01  0.00000000000E+00 0.  1.
     999901    1    3    3    0    0 -0.28411163624E-01  0.54614871562E-01  0.10083270190E+00  0.88789482045E+00  0.88000000000E+00 0. -1.
        -11    1    4    4    0    0  0.37150160757E-01 -0.26237759415E-01 -0.65748707657E-01  0.79948159096E-01  0.51100000000E-03 0.  1.
         11    1    4    4    0    0  0.90515539066E-02 -0.16064890227E-01 -0.47629859806E-01  0.51077157245E-01  0.51100000000E-03 0. -1.
</event>
<event>
 8    1  0.1103774E+005  0.1043930E+01  0.7957747E-01            NaN
         13   -1    0    0    0    0  0.00000000000E+00  0.00000000000E+00  0.74505805969E-08  0.10566000000E+00  0.10566000000E+00 0. -1.
     999900   -1    0    0    0    0 -0.00000000000E+00 -0.00000000000E+00 -0.74505805969E-08  0.93827000000E+00  0.93827000000E+00 0. -1.
     999902    2    1    2    0    0  0.19533834374E-01 -0.13927691570E-01  0.19601381958E-02  0.10198594076E+01  0.10195753125E+01 0.  0.
     999903    2    3    3    0    0 -0.10471991392E+00 -0.72626609698E-01 -0.44862524113E-02  0.12917084646E+00  0.20593598694E-01 0.  0.
         14    1    1    2    0    0 -0.19533834374E-01  0.13927691570E-01 -0.19601381958E-02  0.24070592423E-01  0.00000000000E+00 0. -1.
     999901    1    3    3    0    0  0.12425374829E+00  0.58698918128E-01  0.64463906071E-02  0.89068856112E+00  0.88000000000E+00 0.  1.
        -11    1    4    4    0    0 -0.72115031587E-01 -0.45807819191E-01  0.60693716794E-02  0.85650641991E-01  0.51100000000E-03 0.  1.
         11    1    4    4    0    0 -0.32604882331E-01 -0.26818790507E-01 -0.10555624091E-01  0.43520204469E-01  0.51100000000E-03 0. -1.
</event>
<event>
 8    1  0.1103774E+005  0.1043930E+01  0.7957747E-01            NaN
         13   -1    0    0    0    0  0.00000000000E+00  0.00000000000E+00  0.74505805969E-08  0.10566000000E+00  0.10566000000E+00 0. -1.
     999900   -1    0    0    0    0 -0.00000000000E+00 -0.00000000000E+00 -0.74505805969E-08  0.93827000000E+00  0.93827000000E+00 0.  1.
     999902    2    1    2    0    0 -0.23072158741E-01 -0.15659761646E-04  0.61676367003E-02  0.10200476949E+01  0.10197680792E+01 0.  0.
     999903    2    3    3    0    0  0.32445228479E-01  0.12138076151E+00 -0.24070072344E-01  0.12946721542E+00  0.19910031916E-01 0.  0.
         14    1    1    2    0    0  0.23072158741E-01  0.15659761646E-04 -0.61676367003E-02  0.23882305095E-01  0.00000000000E+00 0. -1.
     999901    1    3    3    0    0 -0.55517387220E-01 -0.12139642127E+00  0.30237709044E-01  0.89058047948E+00  0.88000000000E+00 0. -1.
        -11    1    4    4    0    0  0.54684986136E-02  0.15330719006E-01  0.34164197063E-02  0.16639364980E-01  0.51100000000E-03 0. -1.
         11    1    4    4    0    0  0.26976729865E-01  0.10605004251E+00 -0.27486492050E-01  0.11282785044E+00  0.51100000000E-03 0.  1.
</event>
<event>
 8    1  0.1103774E+005  0.1043930E+01  0.7957747E-01            NaN
         13   -1    0    0    0    0  0.00000000000E+00  0.00000000000E+00  0.74505805969E-08  0.10566000000E+00  0.10566000000E+00 0. -1.
     999900   -1    0    0    0    0 -0.00000000000E+00 -0.00000000000E+00 -0.74505805969E-08  0.93827000000E+00  0.93827000000E+00 0.  1.
     999902    2    1    2    0    0  0.17783420839E-01 -0.59236356223E-04 -0.93096672700E-02  0.10238570463E+01  0.10236602599E+01 0.  0.
     999903    2    3    3    0    0  0.11549426414E+00 -0.64032498130E-01  0.22853521979E-01  0.13555841528E+00  0.20364543223E-01 0.  0.
         14    1    1    2    0    0 -0.17783420839E-01  0.59236356223E-04  0.93096672700E-02  0.20072953703E-01  0.00000000000E+00 0.  1.
     999901    1    3    3    0    0 -0.97710843302E-01  0.63973261773E-01 -0.32163189249E-01  0.88829863102E+00  0.88000000000E+00 0. -1.
        -11    1    4    4    0    0  0.80953262740E-01 -0.44856551439E-01  0.25377004843E-01  0.95967673990E-01  0.51100000000E-03 0. -1.
         11    1    4    4    0    0  0.34541001401E-01 -0.19175946690E-01 -0.25234828643E-02  0.39590741292E-01  0.51100000000E-03 0.  1.
</event>
<event>
 8    1  0.1103774E+005  0.1043930E+01  0.7957747E-01            NaN
         13   -1    0    0    0    0  0.00000000000E+00  0.00000000000E+00  0.74505805969E-08  0.10566000000E+00  0.10566000000E+00 0.  1.
     999900   -1    0    0    0    0 -0.00000000000E+00 -0.00000000000E+00 -0.74505805969E-08  0.93827000000E+00  0.93827000000E+00 0.  1.
     999902    2    1    2    0    0  0.11977269040E-01  0.12767574519E-01  0.15496738924E-01  0.10205502042E+01  0.10202823651E+01 0.  0.
     999903    2    3    3    0    0  0.11542646328E-01 -0.85728537227E-01  0.96681790421E-01  0.13134118184E+00  0.20506649358E-01 0.  0.
         14    1    1    2    0    0 -0.11977269040E-01 -0.12767574519E-01 -0.15496738924E-01  0.23379795766E-01  0.00000000000E+00 0. -1.
     999901    1    3    3    0    0  0.43462271159E-03  0.98496111746E-01 -0.81185051497E-01  0.88920902240E+00  0.88000000000E+00 0.  1.
        -11    1    4    4    0    0  0.14089002916E-01 -0.76334858863E-01  0.92445270727E-01  0.12071412461E+00  0.51100000000E-03 0. -1.
         11    1    4    4    0    0 -0.25463565874E-02 -0.93936783642E-02  0.42365196946E-02  0.10627057222E-01  0.51100000000E-03 0.  1.
</event>
<event>
 8    1  0.1103774E+005  0.1043930E+01  0.7957747E-01            NaN
         13   -1    0    0    0    0  0.00000000000E+00  0.00000000000E+00  0.74505805969E-08  0.10566000000E+00  0.10566000000E+00 0.  1.
     999900   -1    0    0    0    0 -0.00000000000E+00 -0.00000000000E+00 -0.74505805969E-08  0.93827000000E+00  0.93827000000E+00 0.  1.
     999902    2    1    2    0    0  0.56853417221E-02  0.55860607731E-02 -0.22579029241E-01  0.10199854861E+01  0.10197043945E+01 0.  0.
     999903    2    3    3    0    0 -0.23801642244E-01  0.22543965357E-01 -0.12742821147E+00  0.13310871687E+00  0.20130396925E-01 0.  0.
         14    1    1    2    0    0 -0.56853417221E-02 -0.55860607731E-02  0.22579029241E-01  0.23944513921E-01  0.00000000000E+00 0. -1.
     999901    1    3    3    0    0  0.29486983966E-01 -0.16957904584E-01  0.10484918223E+00  0.88687676921E+00  0.88000000000E+00 0. -1.
        -11    1    4    4    0    0 -0.24407053378E-01  0.21917241965E-01 -0.92147738430E-01  0.97813785167E-01  0.51100000000E-03 0. -1.
         11    1    4    4    0    0  0.60541113487E-03  0.62672339202E-03 -0.35280473040E-01  0.35294931701E-01  0.51100000000E-03 0.  1.
</event>
<event>
 8    1  0.1103774E+005  0.1043930E+01  0.7957747E-01            NaN
         13   -1    0    0    0    0  0.00000000000E+00  0.00000000000E+00  0.74505805969E-08  0.10566000000E+00  0.10566000000E+00 0.  1.
     999900   -1    0    0    0    0 -0.00000000000E+00 -0.00000000000E+00 -0.74505805969E-08  0.93827000000E+00  0.93827000000E+00 0. -1.
     999902    2    1    2    0    0 -0.83162941744E-02  0.11644758374E-01 -0.18244335046E-01  0.10207434326E+01  0.10204800529E+01 0.  0.
     999903    2    3    3    0    0 -0.86470774644E-01  0.58533247806E-01 -0.80822421413E-01  0.13382592226E+00  0.21766435157E-01 0.  0.
         14    1    1    2    0    0  0.83162941744E-02 -0.11644758374E-01  0.18244335046E-01  0.23186567397E-01  0.00000000000E+00 0.  1.
     999901    1    3    3    0    0  0.78154480470E-01 -0.46888489432E-01  0.62578086368E-01  0.88691751034E+00  0.88000000000E+00 0.  1.
        -11    1    4    4    0    0 -0.75164974298E-01  0.40612596310E-01 -0.66047773767E-01  0.10798947116E+00  0.51100000000E-03 0.  1.
         11    1    4    4    0    0 -0.11305800346E-01  0.17920651497E-01 -0.14774647646E-01  0.25836451103E-01  0.51100000000E-03 0. -1.
</event>
<event>
 8    1  0.1103774E+005  0.1043930E+01  0.7957747E-01            NaN
         13   -1    0    0    0    0  0.00000000000E+00  0.00000000000E+00  0.74505805969E-08  0.10566000000E+00  0.10566000000E+00 0. -1.
     999900   -1    0    0    0    0 -0.00000000000E+00 -0.00000000000E+00 -0.74505805969E-08  0.93827000000E+00  0.93827000000E+00 0. -1.
     999902    2    1    2    0    0  0.89448555918E-02 -0.16824969155E-01 -0.14393576758E-01  0.10200497764E+01  0.10197702100E+01 0.  0.
     999903    2    3    3    0    0 -0.17392125961E-02 -0.96897797462E-01  0.85545499494E-01  0.13071652831E+00  0.19405418744E-01 0.  0.
         14    1    1    2    0    0 -0.89448555918E-02  0.16824969155E-01  0.14393576758E-01  0.23880223627E-01  0.00000000000E+00 0. -1.
     999901    1    3    3    0    0  0.10684068188E-01  0.80072828307E-01 -0.99939076252E-01  0.88933324806E+00  0.88000000000E+00 0. -1.
        -11    1    4    4    0    0  0.79335625614E-02 -0.33933077479E-01  0.25621141235E-01  0.43256203732E-01  0.51100000000E-03 0. -1.
         11    1    4    4    0    0 -0.96727751574E-02 -0.62964719983E-01  0.59924358258E-01  0.87460324579E-01  0.51100000000E-03 0.  1.
</event>
<event>
 8    1  0.1103774E+005  0.1043930E+01  0.7957747E-01            NaN
         13   -1    0    0    0    0  0.00000000000E+00  0.00000000000E+00  0.74505805969E-08  0.10566000000E+00  0.10566000000E+00 0. -1.
     999900   -1    0    0    0    0 -0.00000000000E+00 -0.00000000000E+00 -0.74505805969E-08  0.93827000000E+00  0.93827000000E+00 0.  1.
     999902    2    1    2    0    0  0.15672897931E-01  0.39604213876E-02  0.20061360460E-01  0.10181660164E+01  0.10178399944E+01 0.  0.
     999903    2    3    3    0    0 -0.82152431627E-01 -0.93931670755E-01 -0.65068711700E-02  0.12695418539E+00  0.22424206186E-01 0.  0.
         14    1    1    2    0    0 -0.15672897931E-01 -0.39604213876E-02 -0.20061360460E-01  0.25763983594E-01  0.00000000000E+00 0.  1.
     999901    1    3    3    0    0  0.97825329558E-01  0.97892092143E-01  0.26568231630E-01  0.89121183101E+00  0.88000000000E+00 0.  1.
        -11    1    4    4    0    0 -0.72068411244E-01 -0.68524936041E-01 -0.49747635500E-02  0.99571743743E-01  0.51100000000E-03 0. -1.
         11    1    4    4    0    0 -0.10084020384E-01 -0.25406734714E-01 -0.15321076200E-02  0.27382441649E-01  0.51100000000E-03 0.  1.
</event>
<event>
 8    1  0.1103774E+005  0.1043930E+01  0.7957747E-01            NaN
         13   -1    0    0    0    0  0.00000000000E+00  0.00000000000E+00  0.74505805969E-08  0.10566000000E+00  0.10566000000E+00 0. -1.
     999900   -1    0    0    0    0 -0.00000000000E+00 -0.00000000000E+00 -0.74505805969E-08  0.93827000000E+00  0.93827000000E+00 0.  1.
     999902    2    1    2    0    0  0.17966347507E-01 -0.15133370479E-01 -0.12962797917E-02  0.10204036555E+01  0.10201324087E+01 0.  0.
     999903    2    3    3    0    0  0.78341287750E-01  0.18808871459E-01  0.10225275150E+00  0.13162943721E+00  0.19482108187E-01 0.  0.
         14    1    1    2    0    0 -0.17966347507E-01  0.15133370479E-01  0.12962797917E-02  0.23526344512E-01  0.00000000000E+00 0. -1.
     999901    1    3    3    0    0 -0.60374940243E-01 -0.33942241938E-01 -0.10354903129E+00  0.88877421828E+00  0.88000000000E+00 0.  1.
        -11    1    4    4    0    0  0.52989354017E-01  0.32262196316E-02  0.67401420220E-01  0.85799141610E-01  0.51100000000E-03 0.  1.
         11    1    4    4    0    0  0.25351933733E-01  0.15582651827E-01  0.34851331276E-01  0.45830295599E-01  0.51100000000E-03 0. -1.
</event>
<event>
 8    1  0.1103774E+005  0.1043930E+01  0.7957747E-01            NaN
         13   -1    0    0    0    0  0.00000000000E+00  0.00000000000E+00  0.74505805969E-08  0.10566000000E+00  0.10566000000E+00 0.  1.
     999900   -1    0    0    0    0 -0.00000000000E+00 -0.00000000000E+00 -0.74505805969E-08  0.93827000000E+00  0.93827000000E+00 0. -1.
     999902    2    1    2    0    0  0.33653207731E-02  0.13219660132E-02  0.22973646504E-01  0.10206735727E+01  0.10204085851E+01 0.  0.
     999903    2    3    3    0    0 -0.37155479086E-01  0.18450994865E-01 -0.11950615401E+00  0.12812898981E+00  0.20355548268E-01 0.  0.
         14    1    1    2    0    0 -0.33653207731E-02 -0.13219660132E-02 -0.22973646504E-01  0.23256427321E-01  0.00000000000E+00 0. -1.
     999901    1    3    3    0    0  0.40520799859E-01 -0.17129028852E-01  0.14247980052E+00  0.89254458287E+00  0.88000000000E+00 0.  1.
        -11    1    4    4    0    0 -0.19511914608E-01 -0.99007932710E-03 -0.42750218017E-01  0.47005715932E-01  0.51100000000E-03 0.  1.
         11    1    4    4    0    0 -0.17643564478E-01  0.19441074193E-01 -0.76755935996E-01  0.81123273879E-01  0.51100000000E-03 0. -1.
</event>
<event>
 8    1  0.1103774E+005  0.1043930E+01  0.7957747E-01            NaN
         13   -1    0    0    0    0  0.00000000000E+00  0.00000000000E+00  0.74505805969E-08  0.10566000000E+00  0.10566000000E+00 0.  1.
     999900   -1    0    0    0    0 -0.00000000000E+00 -0.00000000000E+00 -0.74505805969E-08  0.93827000000E+00  0.93827000000E+00 0.  1.
     999902    2    1    2    0    0 -0.21857022298E-02  0.24745052574E-01  0.38829447711E-03  0.10190855702E+01  0.10187826822E+01 0.  0.
     999903    2    3    3    0    0 -0.66735495552E-01 -0.83524623820E-01  0.67127995039E-01  0.12760187078E+00  0.18603240509E-01 0.  0.
         14    1    1    2    0    0  0.21857022298E-02 -0.24745052574E-01 -0.38829447711E-03  0.24844429833E-01  0.00000000000E+00 0. -1.
     999901    1    3    3    0    0  0.64549793322E-01  0.10826967639E+00 -0.66739700562E-01  0.89148369939E+00  0.88000000000E+00 0.  1.
        -11    1    4    4    0    0 -0.47345599896E-01 -0.61423561824E-01  0.57894726161E-01  0.96780784326E-01  0.51100000000E-03 0.  1.
         11    1    4    4    0    0 -0.19389895656E-01 -0.22101061997E-01  0.92332688781E-02  0.30821086453E-01  0.51100000000E-03 0. -1.
</event>
<event>
 8    1  0.1103774E+005  0.1043930E+01  0.7957747E-01            NaN
         13   -1    0    0    0    0  0.00000000000E+00  0.00000000000E+00  0.74505805969E-08  0.10566000000E+00  0.10566000000E+00 0.  1.
     999900   -1    0    0    0    0 -0.00000000000E+00 -0.00000000000E+00 -0.74505805969E-08  0.93827000000E+00  0.93827000000E+00 0.  1.
     999902    2    1    2    0    0 -0.12140867208E-01 -0.20241356398E-01  0.20491424644E-02  0.10202379729E+01  0.10199628469E+01 0.  0.
     999903    2    3    3    0    0  0.82799812170E-01  0.92032083662E-01 -0.23170909402E-01  0.12768259140E+00  0.20981891872E-01 0.  0.
         14    1    1    2    0    0  0.12140867208E-01  0.20241356398E-01 -0.20491424644E-02  0.23692027144E-01  0.00000000000E+00 0.  1.
     999901    1    3    3    0    0 -0.94940679377E-01 -0.11227344006E+00  0.25220051867E-01  0.89255538145E+00  0.88000000000E+00 0. -1.
        -11    1    4    4    0    0  0.20605377627E-01  0.16399477677E-01  0.24813144001E-02  0.26456426391E-01  0.51100000000E-03 0.  1.
         11    1    4    4    0    0  0.62194434542E-01  0.75632605985E-01 -0.25652223802E-01  0.10122616501E+00  0.51100000000E-03 0. -1.
</event>
<event>
 8    1  0.1103774E+005  0.1043930E+01  0.7957747E-01            NaN
         13   -1    0    0    0    0  0.00000000000E+00  0.00000000000E+00  0.74505805969E-08  0.10566000000E+00  0.10566000000E+00 0.  1.
     999900   -1    0    0    0    0 -0.00000000000E+00 -0.00000000000E+00 -0.74505805969E-08  0.93827000000E+00  0.93827000000E+00 0. -1.
     999902    2    1    2    0    0  0.10152901727E-01  0.95736584612E-02  0.18483801831E-01  0.10207699637E+01  0.10205071933E+01 0.  0.
     999903    2    3    3    0    0 -0.74820425105E-01 -0.79057773292E-01  0.70041791648E-01  0.13075073738E+00  0.18484458783E-01 0.  0.
         14    1    1    2    0    0 -0.10152901727E-01 -0.95736584612E-02 -0.18483801831E-01  0.23160036268E-01  0.00000000000E+00 0. -1.
     999901    1    3    3    0    0  0.84973326833E-01  0.88631431753E-01 -0.51557989816E-01  0.89001922635E+00  0.88000000000E+00 0. -1.
        -11    1    4    4    0    0 -0.60030871172E-01 -0.51818339878E-01  0.52883512651E-01  0.95319320563E-01  0.51100000000E-03 0. -1.
         11    1    4    4    0    0 -0.14789553934E-01 -0.27239433414E-01  0.17158278996E-01  0.35431416813E-01  0.51100000000E-03 0.  1.
</event>
<event>
 8    1  0.1103774E+005  0.1043930E+01  0.7957747E-01            NaN
         13   -1    0    0    0    0  0.00000000000E+00  0.00000000000E+00  0.74505805969E-08  0.10566000000E+00  0.10566000000E+00 0.  1.
     999900   -1    0    0    0    0 -0.00000000000E+00 -0.00000000000E+00 -0.74505805969E-08  0.93827000000E+00  0.93827000000E+00 0. -1.
     999902    2    1    2    0    0  0.30216772674E-03  0.13958041338E-01  0.20109873988E-01  0.10194488796E+01  0.10191548915E+01 0.  0.
     999903    2    3    3    0    0 -0.83627146433E-01 -0.50259081789E-01 -0.80046022009E-01  0.12748521882E+00  0.18045510687E-01 0.  0.
         14    1    1    2    0    0 -0.30216772674E-03 -0.13958041338E-01 -0.20109873988E-01  0.24481120381E-01  0.00000000000E+00 0. -1.
     999901    1    3    3    0    0  0.83929314159E-01  0.64217123127E-01  0.10015589600E+00  0.89196366080E+00  0.88000000000E+00 0.  1.
        -11    1    4    4    0    0 -0.34313579460E-01 -0.27194991231E-01 -0.26823496881E-01  0.51349297846E-01  0.51100000000E-03 0.  1.
         11    1    4    4    0    0 -0.49313566973E-01 -0.23064090558E-01 -0.53222525128E-01  0.76135920976E-01  0.51100000000E-03 0. -1.
</event>
<event>
 8    1  0.1103774E+005  0.1043930E+01  0.7957747E-01            NaN
         13   -1    0    0    0    0  0.00000000000E+00  0.00000000000E+00  0.74505805969E-08  0.10566000000E+00  0.10566000000E+00 0.  1.
     999900   -1    0    0    0    0 -0.00000000000E+00 -0.00000000000E+00 -0.74505805969E-08  0.93827000000E+00  0.93827000000E+00 0.  1.
     999902    2    1    2    0    0 -0.68336946390E-02  0.14414538544E-01 -0.16047470732E-01  0.10213025914E+01  0.10210519005E+01 0.  0.
     999903    2    3    3    0    0 -0.15225587108E-01 -0.12694342336E+00 -0.10638352652E-01  0.12996553066E+00  0.20770492948E-01 0.  0.
         14    1    1    2    0    0  0.68336946390E-02 -0.14414538544E-01  0.16047470732E-01  0.22627408617E-01  0.00000000000E+00 0. -1.
     999901    1    3    3    0    0  0.83918924691E-02  0.14135796190E+00 -0.54091180797E-02  0.89133706072E+00  0.88000000000E+00 0. -1.
        -11    1    4    4    0    0  0.41457805591E-02 -0.50289669393E-01 -0.38580106291E-02  0.50610114712E-01  0.51100000000E-03 0.  1.
         11    1    4    4    0    0 -0.19371367667E-01 -0.76653753964E-01 -0.67803420228E-02  0.79355415952E-01  0.51100000000E-03 0. -1.
</event>
<event>
 8    1  0.1103774E+005  0.1043930E+01  0.7957747E-01            NaN
         13   -1    0    0    0    0  0.00000000000E+00  0.00000000000E+00  0.74505805969E-08  0.10566000000E+00  0.10566000000E+00 0.  1.
     999900   -1    0    0    0    0 -0.00000000000E+00 -0.00000000000E+00 -0.74505805969E-08  0.93827000000E+00  0.93827000000E+00 0. -1.
     999902    2    1    2    0    0  0.72577421300E-02  0.18870366938E-01  0.12129478476E-01  0.10203526843E+01  0.10200802471E+01 0.  0.
     999903    2    3    3    0    0 -0.10270369030E+00  0.68055465835E-01 -0.38939140292E-01  0.13067932038E+00  0.19525206756E-01 0.  0.
         14    1    1    2    0    0 -0.72577421300E-02 -0.18870366938E-01 -0.12129478476E-01  0.23577315736E-01  0.00000000000E+00 0. -1.
     999901    1    3    3    0    0  0.10996143243E+00 -0.49185098897E-01  0.51068618768E-01  0.88967336388E+00  0.88000000000E+00 0.  1.
        -11    1    4    4    0    0 -0.48852030532E-01  0.29604241294E-01 -0.27969186451E-01  0.63603997527E-01  0.51100000000E-03 0.  1.
         11    1    4    4    0    0 -0.53851659765E-01  0.38451224541E-01 -0.10969953840E-01  0.67075322857E-01  0.51100000000E-03 0. -1.
</event>
<event>
 8    1  0.1103774E+005  0.1043930E+01  0.7957747E-01            NaN
         13   -1    0    0    0    0  0.00000000000E+00  0.00000000000E+00  0.74505805969E-08  0.10566000000E+00  0.10566000000E+00 0. -1.
     999900   -1    0    0    0    0 -0.00000000000E+00 -0.00000000000E+00 -0.74505805969E-08  0.93827000000E+00  0.93827000000E+00 0.  1.
     999902    2    1    2    0    0 -0.43221700577E-02  0.21238001940E-01 -0.84193201471E-02  0.10206787886E+01  0.10204139212E+01 0.  0.
     999903    2    3    3    0    0 -0.27331636923E-01  0.12824433249E+00 -0.23244766941E-01  0.13377429304E+00  0.12712792630E-01 0.  0.
         14    1    1    2    0    0  0.43221700577E-02 -0.21238001940E-01  0.84193201471E-02  0.23251211413E-01  0.00000000000E+00 0.  1.
     999901    1    3    3    0    0  0.23009466865E-01 -0.10700633055E+00  0.14825446794E-01  0.88690449554E+00  0.88000000000E+00 0. -1.
        -11    1    4    4    0    0 -0.17921647586E-01  0.79943335407E-01 -0.83271033441E-02  0.82351224030E-01  0.51100000000E-03 0. -1.
         11    1    4    4    0    0 -0.94099893365E-02  0.48300997083E-01 -0.14917663597E-01  0.51423069013E-01  0.51100000000E-03 0.  1.
</event>
<event>
 8    1  0.1103774E+005  0.1043930E+01  0.7957747E-01            NaN
         13   -1    0    0    0    0  0.00000000000E+00  0.00000000000E+00  0.74505805969E-08  0.10566000000E+00  0.10566000000E+00 0. -1.
     999900   -1    0    0    0    0 -0.00000000000E+00 -0.00000000000E+00 -0.74505805969E-08  0.93827000000E+00  0.93827000000E+00 0.  1.
     999902    2    1    2    0    0 -0.12181116903E-02 -0.16564091157E-01  0.19720584981E-01  0.10181471688E+01  0.10178206635E+01 0.  0.
     999903    2    3    3    0    0  0.40742165070E-01  0.94687467521E-01  0.73055425997E-01  0.12855053022E+00  0.23717146367E-01 0.  0.
         14    1    1    2    0    0  0.12181116903E-02  0.16564091157E-01 -0.19720584981E-01  0.25782831186E-01  0.00000000000E+00 0. -1.
     999901    1    3    3    0    0 -0.41960276761E-01 -0.11125155868E+00 -0.53334841017E-01  0.88959663860E+00  0.88000000000E+00 0. -1.
        -11    1    4    4    0    0  0.18829804561E-01  0.67524256387E-01  0.41303513772E-01  0.81365398735E-01  0.51100000000E-03 0.  1.
         11    1    4    4    0    0  0.21912360509E-01  0.27163211134E-01  0.31751912225E-01  0.47185131484E-01  0.51100000000E-03 0. -1.
</event>
<event>
 8    1  0.1103774E+005  0.1043930E+01  0.7957747E-01            NaN
         13   -1    0    0    0    0  0.00000000000E+00  0.00000000000E+00  0.74505805969E-08  0.10566000000E+00  0.10566000000E+00 0.  1.
     999900   -1    0    0    0    0 -0.00000000000E+00 -0.00000000000E+00 -0.74505805969E-08  0.93827000000E+00  0.93827000000E+00 0. -1.
     999902    2    1    2    0    0 -0.93834611906E-02  0.12386591659E-01  0.17958719665E-01  0.10201814714E+01  0.10199050162E+01 0.  0.
     999903    2    3    3    0    0 -0.65829363069E-01  0.97556937750E-01 -0.54938305064E-01  0.13127534371E+00  0.19082383459E-01 0.  0.
         14    1    1    2    0    0  0.93834611906E-02 -0.12386591659E-01 -0.17958719665E-01  0.23748528562E-01  0.00000000000E+00 0. -1.
     999901    1    3    3    0    0  0.56445901879E-01 -0.85170346091E-01  0.72897024729E-01  0.88890612772E+00  0.88000000000E+00 0. -1.
        -11    1    4    4    0    0 -0.34383775418E-01  0.67331172910E-01 -0.35266280649E-01  0.83424831611E-01  0.51100000000E-03 0. -1.
         11    1    4    4    0    0 -0.31445587652E-01  0.30225764840E-01 -0.19672024415E-01  0.47850512103E-01  0.51100000000E-03 0.  1.
</event>
<event>
 8    1  0.1103774E+005  0.1043930E+01  0.7957747E-01            NaN
         13   -1    0    0    0    0  0.00000000000E+00  0.00000000000E+00  0.74505805969E-08  0.10566000000E+00  0.10566000000E+00 0. -1.
     999900   -1    0    0    0    0 -0.00000000000E+00 -0.00000000000E+00 -0.74505805969E-08  0.93827000000E+00  0.93827000000E+00 0.  1.
     999902    2    1    2    0    0 -0.20181116050E-01 -0.28816254181E-02 -0.11348039211E-01  0.10205984933E+01  0.10203317722E+01 0.  0.
     999903    2    3    3    0    0 -0.12920162823E+00 -0.14438037184E-02  0.25444563171E-01  0.13310695252E+00  0.19362068776E-01 0.  0.
         14    1    1    2    0    0  0.20181116050E-01  0.28816254181E-02  0.11348039211E-01  0.23331506681E-01  0.00000000000E+00 0. -1.
     999901    1    3    3    0    0  0.10902051218E+00 -0.14378216997E-02 -0.36792602382E-01  0.88749154080E+00  0.88000000000E+00 0.  1.
        -11    1    4    4    0    0 -0.50215867720E-01  0.21931680823E-02  0.19132340328E-01  0.53784299981E-01  0.51100000000E-03 0. -1.
         11    1    4    4    0    0 -0.78985760508E-01 -0.36369718007E-02  0.63122228433E-02  0.79322652535E-01  0.51100000000E-03 0.  1.
</event>
<event>
 8    1  0.1103774E+005  0.1043930E+01  0.7957747E-01            NaN
         13   -1    0    0    0    0  0.00000000000E+00  0.00000000000E+00  0.74505805969E-08  0.10566000000E+00  0.10566000000E+00 0. -1.
     999900   -1    0    0    0    0 -0.00000000000E+00 -0.00000000000E+00 -0.74505805969E-08  0.93827000000E+00  0.93827000000E+00 0.  1.
     999902    2    1    2    0    0  0.15994834696E-01  0.14785401864E-02 -0.17473356060E-01  0.10201952367E+01  0.10199191056E+01 0.  0.
     999903    2    3    3    0    0  0.11257651351E+00  0.15608911333E-01 -0.67081622050E-01  0.13340965486E+00  0.19521334121E-01 0.  0.
         14    1    1    2    0    0 -0.15994834696E-01 -0.14785401864E-02  0.17473356060E-01  0.23734763324E-01  0.00000000000E+00 0. -1.
     999901    1    3    3    0    0 -0.96581678809E-01 -0.14130371146E-01  0.49608265990E-01  0.88678558182E+00  0.88000000000E+00 0. -1.
        -11    1    4    4    0    0  0.10506202625E+00  0.19334503888E-01 -0.60793468693E-01  0.12291443917E+00  0.51100000000E-03 0.  1.
         11    1    4    4    0    0  0.75144872551E-02 -0.37255925551E-02 -0.62881533565E-02  0.10495215683E-01  0.51100000000E-03 0. -1.
</event>
<event>
 8    1  0.1103774E+005  0.1043930E+01  0.7957747E-01            NaN
         13   -1    0    0    0    0  0.00000000000E+00  0.00000000000E+00  0.74505805969E-08  0.10566000000E+00  0.10566000000E+00 0.  1.
     999900   -1    0    0    0    0 -0.00000000000E+00 -0.00000000000E+00 -0.74505805969E-08  0.93827000000E+00  0.93827000000E+00 0.  1.
     999902    2    1    2    0    0 -0.23633035335E-01  0.36234197952E-02  0.82466624765E-03  0.10200065888E+01  0.10197259983E+01 0.  0.
     999903    2    3    3    0    0  0.75768455069E-01 -0.19996095243E-01 -0.99633672577E-01  0.12841788560E+00  0.20581108407E-01 0.  0.
         14    1    1    2    0    0  0.23633035335E-01 -0.36234197952E-02 -0.82466624765E-03  0.23923411224E-01  0.00000000000E+00 0. -1.
     999901    1    3    3    0    0 -0.99401490404E-01  0.23619515039E-01  0.10045833882E+00  0.89158870317E+00  0.88000000000E+00 0. -1.
        -11    1    4    4    0    0  0.57401720264E-01 -0.17373637939E-01 -0.88063174124E-01  0.10654663083E+00  0.51100000000E-03 0.  1.
         11    1    4    4    0    0  0.18366734805E-01 -0.26224573049E-02 -0.11570498453E-01  0.21871254769E-01  0.51100000000E-03 0. -1.
</event>
<event>
 8    1  0.1103774E+005  0.1043930E+01  0.7957747E-01            NaN
         13   -1    0    0    0    0  0.00000000000E+00  0.00000000000E+00  0.74505805969E-08  0.10566000000E+00  0.10566000000E+00 0.  1.
     999900   -1    0    0    0    0 -0.00000000000E+00 -0.00000000000E+00 -0.74505805969E-08  0.93827000000E+00  0.93827000000E+00 0. -1.
     999902    2    1    2    0    0  0.39166225726E-02 -0.22836034818E-01  0.70255631433E-02  0.10197187845E+01  0.10194313201E+01 0.  0.
     999903    2    3    3    0    0  0.34211607595E-01 -0.86774681401E-01 -0.90492806714E-01  0.13150947971E+00  0.20137421912E-01 0.  0.
         14    1    1    2    0    0 -0.39166225726E-02  0.22836034818E-01 -0.70255631433E-02  0.24211215502E-01  0.00000000000E+00 0. -1.
     999901    1    3    3    0    0 -0.30294985023E-01  0.63938646583E-01  0.97518369857E-01  0.88820930478E+00  0.88000000000E+00 0.  1.
        -11    1    4    4    0    0  0.30285071936E-01 -0.50219967767E-01 -0.56476926351E-01  0.81419500586E-01  0.51100000000E-03 0. -1.
         11    1    4    4    0    0  0.39265356590E-02 -0.36554713635E-01 -0.34015880363E-01  0.50089979129E-01  0.51100000000E-03 0.  1.
</event>
<event>
 8    1  0.1103774E+005  0.1043930E+01  0.7957747E-01            NaN
         13   -1    0    0    0    0  0.00000000000E+00  0.00000000000E+00  0.74505805969E-08  0.10566000000E+00  0.10566000000E+00 0. -1.
     999900   -1    0    0    0    0 -0.00000000000E+00 -0.00000000000E+00 -0.74505805969E-08  0.93827000000E+00  0.93827000000E+00 0.  1.
     999902    2    1    2    0    0 -0.15267261772E-01 -0.17898335090E-01 -0.14420051753E-02  0.10203605482E+01  0.10200882948E+01 0.  0.
     999903    2    3    3    0    0 -0.69621978221E-01 -0.75170255699E-01 -0.83522833481E-01  0.13302083280E+00  0.14855674069E-01 0.  0.
         14    1    1    2    0    0  0.15267261772E-01  0.17898335090E-01  0.14420051753E-02  0.23569451837E-01  0.00000000000E+00 0.  1.
     999901    1    3    3    0    0  0.54354716449E-01  0.57271920609E-01  0.82080828306E-01  0.88733971537E+00  0.88000000000E+00 0. -1.
        -11    1    4    4    0    0 -0.30278701177E-01 -0.31581792875E-01 -0.45156622323E-01  0.62877587794E-01  0.51100000000E-03 0. -1.
         11    1    4    4    0    0 -0.39343277044E-01 -0.43588462824E-01 -0.38366211158E-01  0.70143245002E-01  0.51100000000E-03 0.  1.
</event>
<event>
 8    1  0.1103774E+005  0.1043930E+01  0.7957747E-01            NaN
         13   -1    0    0    0    0  0.00000000000E+00  0.00000000000E+00  0.74505805969E-08  0.10566000000E+00  0.10566000000E+00 0.  1.
     999900   -1    0    0    0    0 -0.00000000000E+00 -0.00000000000E+00 -0.74505805969E-08  0.93827000000E+00  0.93827000000E+00 0. -1.
     999902    2    1    2    0    0 -0.14859488096E-02 -0.19984843675E-01 -0.12066647801E-01  0.10205375651E+01  0.10202694329E+01 0.  0.
     999903    2    3    3    0    0 -0.21736414646E-01 -0.74012888663E-01 -0.10728166814E+00  0.13352290283E+00  0.19199735723E-01 0.  0.
         14    1    1    2    0    0  0.14859488096E-02  0.19984843675E-01  0.12066647801E-01  0.23392434883E-01  0.00000000000E+00 0.  1.
     999901    1    3    3    0    0  0.20250465836E-01  0.54028044988E-01  0.95215020338E-01  0.88701466229E+00  0.88000000000E+00 0.  1.
        -11    1    4    4    0    0 -0.16026983342E-01 -0.60735724665E-01 -0.97779769924E-01  0.11621891831E+00  0.51100000000E-03 0.  1.
         11    1    4    4    0    0 -0.57094313032E-02 -0.13277163998E-01 -0.95018982154E-02  0.17303984522E-01  0.51100000000E-03 0. -1.
</event>
<event>
 8    1  0.1103774E+005  0.1043930E+01  0.7957747E-01            NaN
         13   -1    0    0    0    0  0.00000000000E+00  0.00000000000E+00  0.74505805969E-08  0.10566000000E+00  0.10566000000E+00 0.  1.
     999900   -1    0    0    0    0 -0.00000000000E+00 -0.00000000000E+00 -0.74505805969E-08  0.93827000000E+00  0.93827000000E+00 0.  1.
     999902    2    1    2    0    0 -0.57479216717E-02 -0.37503745435E-02  0.22158784588E-01  0.10207326802E+01  0.10204690533E+01 0.  0.
     999903    2    3    3    0    0 -0.54166986646E-01 -0.49001458818E-01 -0.10465919184E+00  0.12917512980E+00  0.19936456901E-01 0.  0.
         14    1    1    2    0    0  0.57479216717E-02  0.37503745435E-02 -0.22158784588E-01  0.23197319827E-01  0.00000000000E+00 0. -1.
     999901    1    3    3    0    0  0.48419064975E-01  0.45251084275E-01  0.12681797643E+00  0.89155755037E+00  0.88000000000E+00 0. -1.
        -11    1    4    4    0    0 -0.28318251679E-01 -0.34284504996E-01 -0.74830846632E-01  0.87047500766E-01  0.51100000000E-03 0.  1.
         11    1    4    4    0    0 -0.25848734967E-01 -0.14716953822E-01 -0.29828345208E-01  0.42127629034E-01  0.51100000000E-03 0. -1.
</event>
<event>
 8    1  0.1103774E+005  0.1043930E+01  0.7957747E-01            NaN
         13   -1    0    0    0    0  0.00000000000E+00  0.00000000000E+00  0.74505805969E-08  0.10566000000E+00  0.10566000000E+00 0.  1.
     999900   -1    0    0    0    0 -0.00000000000E+00 -0.00000000000E+00 -0.74505805969E-08  0.93827000000E+00  0.93827000000E+00 0. -1.
     999902    2    1    2    0    0 -0.15917011804E-01 -0.32811141597E-02 -0.19009668839E-01  0.10189203122E+01  0.10186133310E+01 0.  0.
     999903    2    3    3    0    0 -0.47999825776E-01  0.87787059717E-01  0.77997614706E-01  0.12834008992E+00  0.19416478874E-01 0.  0.
         14    1    1    2    0    0  0.15917011804E-01  0.32811141597E-02  0.19009668839E-01  0.25009687808E-01  0.00000000000E+00 0.  1.
     999901    1    3    3    0    0  0.32082813972E-01 -0.91068173877E-01 -0.97007283545E-01  0.89058022227E+00  0.88000000000E+00 0.  1.
        -11    1    4    4    0    0 -0.31507904478E-01  0.50604178484E-01  0.34909420037E-01  0.69082991054E-01  0.51100000000E-03 0. -1.
         11    1    4    4    0    0 -0.16491921298E-01  0.37182881233E-01  0.43088194669E-01  0.59257098864E-01  0.51100000000E-03 0.  1.
</event>
<event>
 7    1  0.1103774E+005  0.1043930E+01  0.7957747E-01            NaN
         13   -1    0    0    0    0  0.00000000000E+00  0.00000000000E+00  0.74505805969E-08  0.10566000000E+00  0.10566000000E+00 0. -1.
     999900   -1    0    0    0    0 -0.00000000000E+00 -0.00000000000E+00 -0.74505805969E-08  0.93827000000E+00  0.93827000000E+00 0.  1.
     999903    2    1    2    0    0  0.29584524772E-01 -0.70555111348E-01 -0.41855725046E-01  0.89725446849E-01  0.21106545189E-01 0.  0.
         14    1    1    2    0    0  0.29213758546E-01  0.61360154243E-01  0.23809891124E-01  0.72009882186E-01  0.00000000000E+00 0. -1.
     999901    1    1    2    0    0 -0.58798283318E-01  0.91949571044E-02  0.18045833922E-01  0.88219467097E+00  0.88000000000E+00 0. -1.
        -11    1    3    3    0    0 -0.15061367248E-02 -0.14830017453E-01 -0.12601642302E-01  0.19525889870E-01  0.51100000000E-03 0. -1.
         11    1    3    3    0    0  0.31090661497E-01 -0.55725093894E-01 -0.29254082744E-01  0.70199556979E-01  0.51100000000E-03 0.  1.
</event>
<event>
 8    1  0.1103774E+005  0.1043930E+01  0.7957747E-01            NaN
         13   -1    0    0    0    0  0.00000000000E+00  0.00000000000E+00  0.74505805969E-08  0.10566000000E+00  0.10566000000E+00 0.  1.
     999900   -1    0    0    0    0 -0.00000000000E+00 -0.00000000000E+00 -0.74505805969E-08  0.93827000000E+00  0.93827000000E+00 0.  1.
     999902    2    1    2    0    0  0.63990314591E-02 -0.20224186520E-01  0.10897307248E-01  0.10200822196E+01  0.10198034213E+01 0.  0.
     999903    2    3    3    0    0  0.41284619831E-01  0.76990493826E-01 -0.91711823786E-01  0.12812015085E+00  0.19281038787E-01 0.  0.
         14    1    1    2    0    0 -0.63990314591E-02  0.20224186520E-01 -0.10897307248E-01  0.23847780384E-01  0.00000000000E+00 0. -1.
     999901    1    3    3    0    0 -0.34885588372E-01 -0.97214680346E-01  0.10260913103E+00  0.89196206877E+00  0.88000000000E+00 0. -1.
        -11    1    4    4    0    0 -0.21859829512E-03  0.61874630319E-03 -0.59628167201E-02  0.60205428692E-02  0.51100000000E-03 0. -1.
         11    1    4    4    0    0  0.41503218126E-01  0.76371747523E-01 -0.85749007065E-01  0.12209960798E+00  0.51100000000E-03 0.  1.
</event>
<event>
 8    1  0.1103774E+005  0.1043930E+01  0.7957747E-01            NaN
         13   -1    0    0    0    0  0.00000000000E+00  0.00000000000E+00  0.74505805969E-08  0.10566000000E+00  0.10566000000E+00 0. -1.
     999900   -1    0    0    0    0 -0.00000000000E+00 -0.00000000000E+00 -0.74505805969E-08  0.93827000000E+00  0.93827000000E+00 0.  1.
     999902    2    1    2    0    0 -0.16286507265E-01 -0.14063746206E-01 -0.10160280954E-01  0.10201335594E+01  0.10198559744E+01 0.  0.
     999903    2    3    3    0    0  0.98049599392E-01  0.74907753319E-01 -0.27548082277E-01  0.12811842015E+00  0.20749392672E-01 0.  0.
         14    1    1    2    0    0  0.16286507265E-01  0.14063746206E-01  0.10160280954E-01  0.23796440602E-01  0.00000000000E+00 0. -1.
     999901    1    3    3    0    0 -0.11433610666E+00 -0.88971499525E-01  0.17387801323E-01  0.89201513925E+00  0.88000000000E+00 0.  1.
        -11    1    4    4    0    0  0.73092980795E-01  0.47702952465E-01 -0.26362811854E-01  0.91177927621E-01  0.51100000000E-03 0. -1.
         11    1    4    4    0    0  0.24956618598E-01  0.27204800854E-01 -0.11852704227E-02  0.36940492529E-01  0.51100000000E-03 0.  1.
</event>
<event>
 8    1  0.1103774E+005  0.1043930E+01  0.7957747E-01            NaN
         13   -1    0    0    0    0  0.00000000000E+00  0.00000000000E+00  0.74505805969E-08  0.10566000000E+00  0.10566000000E+00 0.  1.
     999900   -1    0    0    0    0 -0.00000000000E+00 -0.00000000000E+00 -0.74505805969E-08  0.93827000000E+00  0.93827000000E+00 0. -1.
     999902    2    1    2    0    0  0.14656453746E-01 -0.29147518548E-02  0.18319431115E-01  0.10202887443E+01  0.10200148101E+01 0.  0.
     999903    2    3    3    0    0 -0.67546438158E-01 -0.10300235882E+00  0.36655141871E-01  0.13061968066E+00  0.23364381429E-01 0.  0.
         14    1    1    2    0    0 -0.14656453746E-01  0.29147518548E-02 -0.18319431115E-01  0.23641255702E-01  0.00000000000E+00 0.  1.
     999901    1    3    3    0    0  0.82202891904E-01  0.10008760697E+00 -0.18335710757E-01  0.88966906364E+00  0.88000000000E+00 0.  1.
        -11    1    4    4    0    0 -0.11415867536E-01 -0.55466275772E-02  0.60177441066E-02  0.14055656307E-01  0.51100000000E-03 0.  1.
         11    1    4    4    0    0 -0.56130570622E-01 -0.97455731244E-01  0.30637397765E-01  0.11656402435E+00  0.51100000000E-03 0. -1.
</event>
<event>
 8    1  0.1103774E+005  0.1043930E+01  0.7957747E-01            NaN
         13   -1    0    0    0    0  0.00000000000E+00  0.00000000000E+00  0.74505805969E-08  0.10566000000E+00  0.10566000000E+00 0. -1.
     999900   -1    0    0    0    0 -0.00000000000E+00 -0.00000000000E+00 -0.74505805969E-08  0.93827000000E+00  0.93827000000E+00 0. -1.
     999902    2    1    2    0    0 -0.21975976960E-03  0.21470729545E-01 -0.10623912858E-01  0.10199736220E+01  0.10196922485E+01 0.  0.
     999903    2    3    3    0    0  0.45424646195E-01 -0.92032533665E-01  0.73008416505E-01  0.12758314187E+00  0.20343143146E-01 0.  0.
         14    1    1    2    0    0  0.21975976960E-03 -0.21470729545E-01  0.10623912858E-01  0.23956377980E-01  0.00000000000E+00 0.  1.
     999901    1    3    3    0    0 -0.45644405964E-01  0.11350326321E+00 -0.83632329363E-01  0.89239048015E+00  0.88000000000E+00 0. -1.
        -11    1    4    4    0    0  0.23113910409E-01 -0.50760674493E-01  0.51696954403E-01  0.76050872085E-01  0.51100000000E-03 0.  1.
         11    1    4    4    0    0  0.22310735785E-01 -0.41271859172E-01  0.21311462102E-01  0.51532269781E-01  0.51100000000E-03 0. -1.
</event>
<event>
 8    1  0.1103774E+005  0.1043930E+01  0.7957747E-01            NaN
         13   -1    0    0    0    0  0.00000000000E+00  0.00000000000E+00  0.74505805969E-08  0.10566000000E+00  0.10566000000E+00 0.  1.
     999900   -1    0    0    0    0 -0.00000000000E+00 -0.00000000000E+00 -0.74505805969E-08  0.93827000000E+00  0.93827000000E+00 0.  1.
     999902    2    1    2    0    0 -0.11653750775E-01  0.25894667863E-02 -0.20759123074E-01  0.10199830495E+01  0.10197019000E+01 0.  0.
     999903    2    3    3    0    0  0.58832237633E-01 -0.42714308387E-01 -0.10659797029E+00  0.13184510176E+00  0.27097218722E-01 0.  0.
         14    1    1    2    0    0  0.11653750775E-01 -0.25894667863E-02  0.20759123074E-01  0.23946950457E-01  0.00000000000E+00 0.  1.
     999901    1    3    3    0    0 -0.70485988408E-01  0.45303775173E-01  0.85838847212E-01  0.88813794779E+00  0.88000000000E+00 0. -1.
        -11    1    4    4    0    0  0.39389804133E-01 -0.33305061521E-01 -0.52546548464E-01  0.73635485121E-01  0.51100000000E-03 0. -1.
         11    1    4    4    0    0  0.19442433500E-01 -0.94092468660E-02 -0.54051421822E-01  0.58209616636E-01  0.51100000000E-03 0.  1.
</event>
<event>
 8    1  0.1103774E+005  0.1043930E+01  0.7957747E-01            NaN
         13   -1    0    0    0    0  0.00000000000E+00  0.00000000000E+00  0.74505805969E-08  0.10566000000E+00  0.10566000000E+00 0.  1.
     999900   -1    0    0    0    0 -0.00000000000E+00 -0.00000000000E+00 -0.74505805969E-08  0.93827000000E+00  0.93827000000E+00 0.  1.
     999902    2    1    2    0    0  0.10898275985E-01  0.99298818132E-02 -0.15255094659E-01  0.10227146073E+01  0.10224945355E+01 0.  0.
     999903    2    3    3    0    0 -0.12554915899E+00  0.34283898180E-01  0.37132270752E-02  0.13166420594E+00  0.19588212580E-01 0.  0.
         14    1    1    2    0    0 -0.10898275985E-01 -0.99298818132E-02  0.15255094659E-01  0.21215392650E-01  0.00000000000E+00 0. -1.
     999901    1    3    3    0    0  0.13644743498E+00 -0.24354016367E-01 -0.18968321734E-01  0.89105040141E+00  0.88000000000E+00 0.  1.
        -11    1    4    4    0    0 -0.30027238257E-01  0.16215013977E-01 -0.26970471027E-02  0.34235900743E-01  0.51100000000E-03 0. -1.
         11    1    4    4    0    0 -0.95521920735E-01  0.18068884204E-01  0.64102741779E-02  0.97428305196E-01  0.51100000000E-03 0.  1.
</event>
<event>
 8    1  0.1103774E+005  0.1043930E+01  0.7957747E-01            NaN
         13   -1    0    0    0    0  0.00000000000E+00  0.00000000000E+00  0.74505805969E-08  0.10566000000E+00  0.10566000000E+00 0. -1.
     999900   -1    0    0    0    0 -0.00000000000E+00 -0.00000000000E+00 -0.74505805969E-08  0.93827000000E+00  0.93827000000E+00 0. -1.
     999902    2    1    2    0    0 -0.98643350723E-02 -0.59619936641E-02  0.19056602105E-01  0.10216588402E+01  0.10214160666E+01 0.  0.
     999903    2    3    3    0    0 -0.11823280295E+00 -0.79150780638E-04 -0.54896929347E-01  0.13191311389E+00  0.20208780428E-01 0.  0.
         14    1    1    2    0    0  0.98643350723E-02  0.59619936641E-02 -0.19056602105E-01  0.22271159796E-01  0.00000000000E+00 0.  1.
     999901    1    3    3    0    0  0.10836846788E+00 -0.58828428835E-02  0.73953531452E-01  0.88974572631E+00  0.88000000000E+00 0.  1.
        -11    1    4    4    0    0 -0.53891900242E-01 -0.94487975524E-02 -0.21211521524E-01  0.58683953967E-01  0.51100000000E-03 0.  1.
         11    1    4    4    0    0 -0.64340902712E-01  0.93696467717E-02 -0.33685407824E-01  0.73229159928E-01  0.51100000000E-03 0. -1.
</event>
<event>
 8    1  0.1103774E+005  0.1043930E+01  0.7957747E-01            NaN
         13   -1    0    0    0    0  0.00000000000E+00  0.00000000000E+00  0.74505805969E-08  0.10566000000E+00  0.10566000000E+00 0.  1.
     999900   -1    0    0    0    0 -0.00000000000E+00 -0.00000000000E+00 -0.74505805969E-08  0.93827000000E+00  0.93827000000E+00 0.  1.
     999902    2    1    2    0    0 -0.86616137379E-02  0.74859930762E-03  0.21720375363E-01  0.10205343025E+01  0.10202660947E+01 0.  0.
     999903    2    3    3    0    0 -0.52902545109E-01 -0.11360902732E+00 -0.28469181986E-01  0.13061637462E+00  0.23333508705E-01 0.  0.
         14    1    1    2    0    0  0.86616137379E-02 -0.74859930762E-03 -0.21720375363E-01  0.23395697455E-01  0.00000000000E+00 0. -1.
     999901    1    3    3    0    0  0.44240931371E-01  0.11435762663E+00  0.50189557350E-01  0.88991792793E+00  0.88000000000E+00 0.  1.
        -11    1    4    4    0    0 -0.28705736990E-01 -0.67174342403E-01 -0.28046148683E-01  0.78251256797E-01  0.51100000000E-03 0. -1.
         11    1    4    4    0    0 -0.24196808119E-01 -0.46434684916E-01 -0.42303330335E-03  0.52365117823E-01  0.51100000000E-03 0.  1.
</event>
<event>
 8    1  0.1103774E+005  0.1043930E+01  0.7957747E-01            NaN
         13   -1    0    0    0    0  0.00000000000E+00  0.00000000000E+00  0.74505805969E-08  0.10566000000E+00  0.10566000000E+00 0. -1.
     999900   -1    0    0    0    0 -0.00000000000E+00 -0.00000000000E+00 -0.74505805969E-08  0.93827000000E+00  0.93827000000E+00 0.  1.
     999902    2    1    2    0    0  0.16833133304E-01  0.16836795096E-01 -0.22407480685E-02  0.10200165519E+01  0.10197361979E+01 0.  0.
     999903    2    3    3    0    0 -0.67180619365E-01  0.77278943811E-01 -0.78686736352E-01  0.13065973205E+00  0.19876929476E-01 0.  0.
         14    1    1    2    0    0 -0.16833133304E-01 -0.16836795096E-01  0.22407480685E-02  0.23913448054E-01  0.00000000000E+00 0. -1.
     999901    1    3    3    0    0  0.84013752670E-01 -0.60442148716E-01  0.76445988284E-01  0.88935681990E+00  0.88000000000E+00 0.  1.
        -11    1    4    4    0    0 -0.60663266660E-01  0.58142801716E-01 -0.65119340125E-01  0.10630807539E+00  0.51100000000E-03 0.  1.
         11    1    4    4    0    0 -0.65173527050E-02  0.19136142096E-01 -0.13567396227E-01  0.24351656658E-01  0.51100000000E-03 0. -1.
</event>
<event>
 8    1  0.1103774E+005  0.1043930E+01  0.7957747E-01            NaN
         13   -1    0    0    0    0  0.00000000000E+00  0.00000000000E+00  0.74505805969E-08  0.10566000000E+00  0.10566000000E+00 0.  1.
     999900   -1    0    0    0    0 -0.00000000000E+00 -0.00000000000E+00 -0.74505805969E-08  0.93827000000E+00  0.93827000000E+00 0.  1.
     999902    2    1    2    0    0  0.14173034494E-01 -0.17569927199E-01 -0.72440997902E-02  0.10202223171E+01  0.10199468231E+01 0.  0.
     999903    2    3    3    0    0 -0.30390215421E-01 -0.11064106940E+00 -0.63111375313E-01  0.13243333694E+00  0.19761872580E-01 0.  0.
         14    1    1    2    0    0 -0.14173034494E-01  0.17569927199E-01  0.72440997902E-02  0.23707682938E-01  0.00000000000E+00 0.  1.
     999901    1    3    3    0    0  0.44563249914E-01  0.93071142200E-01  0.55867275523E-01  0.88778898012E+00  0.88000000000E+00 0.  1.
        -11    1    4    4    0    0 -0.12210415384E-01 -0.33929354333E-01 -0.10173091278E-01  0.37470631653E-01  0.51100000000E-03 0.  1.
         11    1    4    4    0    0 -0.18179800037E-01 -0.76711715065E-01 -0.52938284035E-01  0.94962705286E-01  0.51100000000E-03 0. -1.
</event>
<event>
 8    1  0.1103774E+005  0.1043930E+01  0.7957747E-01            NaN
         13   -1    0    0    0    0  0.00000000000E+00  0.00000000000E+00  0.74505805969E-08  0.10566000000E+00  0.10566000000E+00 0. -1.
     999900   -1    0    0    0    0 -0.00000000000E+00 -0.00000000000E+00 -0.74505805969E-08  0.93827000000E+00  0.93827000000E+00 0.  1.
     999902    2    1    2    0    0 -0.14439632305E-01 -0.15901723222E-01  0.43699308492E-02  0.10220105092E+01  0.10217754238E+01 0.  0.
     999903    2    3    3    0    0 -0.97892369157E-01 -0.89531048553E-01 -0.13347759007E-01  0.13482419651E+00  0.20016910360E-01 0.  0.
         14    1    1    2    0    0  0.14439632305E-01  0.15901723222E-01 -0.43699308492E-02  0.21919490828E-01  0.00000000000E+00 0. -1.
     999901    1    3    3    0    0  0.83452736852E-01  0.73629325331E-01  0.17717689857E-01  0.88718631266E+00  0.88000000000E+00 0. -1.
        -11    1    4    4    0    0 -0.52732178143E-01 -0.41652006164E-01 -0.15522940588E-01  0.68969522506E-01  0.51100000000E-03 0.  1.
         11    1    4    4    0    0 -0.45160191014E-01 -0.47879042389E-01  0.21751815809E-02  0.65854674006E-01  0.51100000000E-03 0. -1.
</event>
<event>
 8    1  0.1103774E+005  0.1043930E+01  0.7957747E-01            NaN
         13   -1    0    0    0    0  0.00000000000E+00  0.00000000000E+00  0.74505805969E-08  0.10566000000E+00  0.10566000000E+00 0. -1.
     999900   -1    0    0    0    0 -0.00000000000E+00 -0.00000000000E+00 -0.74505805969E-08  0.93827000000E+00  0.93827000000E+00 0. -1.
     999902    2    1    2    0    0  0.66192218669E-02  0.74673445991E-02 -0.24195980778E-01  0.10177570976E+01  0.10174205074E+01 0.  0.
     999903    2    3    3    0    0  0.68446175800E-01  0.58407641348E-01  0.87556114639E-01  0.12707981773E+00  0.19669146267E-01 0.  0.
         14    1    1    2    0    0 -0.66192218669E-02 -0.74673445991E-02  0.24195980778E-01  0.26172902386E-01  0.00000000000E+00 0. -1.
     999901    1    3    3    0    0 -0.61826953933E-01 -0.50940296749E-01 -0.11175209542E+00  0.89067727988E+00  0.88000000000E+00 0. -1.
        -11    1    4    4    0    0  0.33362177743E-01  0.37078554508E-01  0.37904444673E-01  0.62648720299E-01  0.51100000000E-03 0. -1.
         11    1    4    4    0    0  0.35083998057E-01  0.21329086840E-01  0.49651669967E-01  0.64431097434E-01  0.51100000000E-03 0.  1.
</event>
<event>
 8    1  0.1103774E+005  0.1043930E+01  0.7957747E-01            NaN
         13   -1    0    0    0    0  0.00000000000E+00  0.00000000000E+00  0.74505805969E-08  0.10566000000E+00  0.10566000000E+00 0. -1.
     999900   -1    0    0    0    0 -0.00000000000E+00 -0.00000000000E+00 -0.74505805969E-08  0.93827000000E+00  0.93827000000E+00 0. -1.
     999902    2    1    2    0    0  0.15425483144E-01 -0.15703611468E-01  0.15270004919E-02  0.10218646273E+01  0.10216263680E+01 0.  0.
     999903    2    3    3    0    0 -0.38574766445E-01 -0.10009333138E+00  0.76167352352E-01  0.13304021609E+00  0.19787519804E-01 0.  0.
         14    1    1    2    0    0 -0.15425483144E-01  0.15703611468E-01 -0.15270004919E-02  0.22065372733E-01  0.00000000000E+00 0. -1.
     999901    1    3    3    0    0  0.54000249589E-01  0.84389719909E-01 -0.74640351860E-01  0.88882441118E+00  0.88000000000E+00 0. -1.
        -11    1    4    4    0    0 -0.22617443565E-01 -0.39671621172E-01  0.23764523077E-01  0.51482035293E-01  0.51100000000E-03 0. -1.
         11    1    4    4    0    0 -0.15957322881E-01 -0.60421710205E-01  0.52402829275E-01  0.81558180795E-01  0.51100000000E-03 0.  1.
</event>
<event>
 8    1  0.1103774E+005  0.1043930E+01  0.7957747E-01            NaN
         13   -1    0    0    0    0  0.00000000000E+00  0.00000000000E+00  0.74505805969E-08  0.10566000000E+00  0.10566000000E+00 0. -1.
     999900   -1    0    0    0    0 -0.00000000000E+00 -0.00000000000E+00 -0.74505805969E-08  0.93827000000E+00  0.93827000000E+00 0.  1.
     999902    2    1    2    0    0 -0.12227465754E-01  0.77402985190E-02  0.17838672006E-01  0.10209595547E+01  0.10207011173E+01 0.  0.
     999903    2    3    3    0    0 -0.30585264516E-01 -0.11879847788E+00  0.42385893098E-01  0.13138008280E+00  0.20386894530E-01 0.  0.
         14    1    1    2    0    0  0.12227465754E-01 -0.77402985190E-02 -0.17838672006E-01  0.22970445335E-01  0.00000000000E+00 0.  1.
     999901    1    3    3    0    0  0.18357798763E-01  0.12653877640E+00 -0.24547221091E-01  0.88957947187E+00  0.88000000000E+00 0. -1.
        -11    1    4    4    0    0 -0.18800205348E-02 -0.40039280052E-01  0.18930307560E-01  0.44331660127E-01  0.51100000000E-03 0.  1.
         11    1    4    4    0    0 -0.28705243982E-01 -0.78759197832E-01  0.23455585538E-01  0.87048422669E-01  0.51100000000E-03 0. -1.
</event>
<event>
 8    1  0.1103774E+005  0.1043930E+01  0.7957747E-01            NaN
         13   -1    0    0    0    0  0.00000000000E+00  0.00000000000E+00  0.74505805969E-08  0.10566000000E+00  0.10566000000E+00 0.  1.
     999900   -1    0    0    0    0 -0.00000000000E+00 -0.00000000000E+00 -0.74505805969E-08  0.93827000000E+00  0.93827000000E+00 0. -1.
     999902    2    1    2    0    0  0.19997599907E-01  0.97078226467E-02  0.63353053626E-02  0.10208154609E+01  0.10205537337E+01 0.  0.
     999903    2    3    3    0    0 -0.63129864942E-01 -0.58033855155E-01  0.95555911118E-01  0.12982756717E+00  0.19260240299E-01 0.  0.
         14    1    1    2    0    0 -0.19997599907E-01 -0.97078226467E-02 -0.63353053626E-02  0.23114539075E-01  0.00000000000E+00 0. -1.
     999901    1    3    3    0    0  0.83127464849E-01  0.67741677802E-01 -0.89220605756E-01  0.89098789375E+00  0.88000000000E+00 0.  1.
        -11    1    4    4    0    0 -0.22097314641E-01 -0.32418749758E-01  0.47945933134E-01  0.61954340246E-01  0.51100000000E-03 0.  1.
         11    1    4    4    0    0 -0.41032550301E-01 -0.25615105398E-01  0.47609977984E-01  0.67873226926E-01  0.51100000000E-03 0. -1.
</event>
<event>
 8    1  0.1103774E+005  0.1043930E+01  0.7957747E-01            NaN
         13   -1    0    0    0    0  0.00000000000E+00  0.00000000000E+00  0.74505805969E-08  0.10566000000E+00  0.10566000000E+00 0. -1.
     999900   -1    0    0    0    0 -0.00000000000E+00 -0.00000000000E+00 -0.74505805969E-08  0.93827000000E+00  0.93827000000E+00 0.  1.
     999902    2    1    2    0    0  0.18051904240E-02 -0.23263150813E-01  0.29680311853E-02  0.10204089008E+01  0.10201377763E+01 0.  0.
     999903    2    3    3    0    0 -0.12813023016E+00 -0.12936706055E-01  0.12430080570E-01  0.13075763241E+00  0.18929798871E-01 0.  0.
         14    1    1    2    0    0 -0.18051904240E-02  0.23263150813E-01 -0.29680311853E-02  0.23521099194E-01  0.00000000000E+00 0. -1.
     999901    1    3    3    0    0  0.12993542058E+00 -0.10326444758E-01 -0.94620493849E-02  0.88965126840E+00  0.88000000000E+00 0. -1.
        -11    1    4    4    0    0 -0.10587394209E+00 -0.10530297304E-01  0.17426244717E-01  0.10781518400E+00  0.51100000000E-03 0.  1.
         11    1    4    4    0    0 -0.22256288074E-01 -0.24064087510E-02 -0.49961641470E-02  0.22942448411E-01  0.51100000000E-03 0. -1.
</event>
<event>
 8    1  0.1103774E+005  0.1043930E+01  0.7957747E-01            NaN
         13   -1    0    0    0    0  0.00000000000E+00  0.00000000000E+00  0.74505805969E-08  0.10566000000E+00  0.10566000000E+00 0.  1.
     999900   -1    0    0    0    0 -0.00000000000E+00 -0.00000000000E+00 -0.74505805969E-08  0.93827000000E+00  0.93827000000E+00 0. -1.
     999902    2    1    2    0    0  0.90605778451E-02 -0.24821079995E-01 -0.18949605337E-01  0.10114143480E+01  0.10108915450E+01 0.  0.
     999903    2    3    3    0    0  0.90912587516E-01  0.51879381756E-01  0.57422496252E-01  0.12101252285E+00  0.19751425009E-01 0.  0.
         14    1    1    2    0    0 -0.90605778451E-02  0.24821079995E-01  0.18949605337E-01  0.32515652007E-01  0.00000000000E+00 0.  1.
     999901    1    3    3    0    0 -0.81852009671E-01 -0.76700461752E-01 -0.76372101589E-01  0.89040182514E+00  0.88000000000E+00 0. -1.
        -11    1    4    4    0    0  0.56310803169E-01  0.36815205842E-01  0.46279421372E-01  0.81659732416E-01  0.51100000000E-03 0. -1.
         11    1    4    4    0    0  0.34601784347E-01  0.15064175914E-01  0.11143074880E-01  0.39352790432E-01  0.51100000000E-03 0.  1.
</event>
<event>
 8    1  0.1103774E+005  0.1043930E+01  0.7957747E-01            NaN
         13   -1    0    0    0    0  0.00000000000E+00  0.00000000000E+00  0.74505805969E-08  0.10566000000E+00  0.10566000000E+00 0.  1.
     999900   -1    0    0    0    0 -0.00000000000E+00 -0.00000000000E+00 -0.74505805969E-08  0.93827000000E+00  0.93827000000E+00 0.  1.
     999902    2    1    2    0    0  0.37373100764E-02  0.12215427168E-01 -0.19854796062E-01  0.10203207418E+01  0.10200475572E+01 0.  0.
     999903    2    3    3    0    0  0.99923062863E-01  0.81968924126E-01 -0.21090722089E-01  0.13233494409E+00  0.19083916098E-01 0.  0.
         14    1    1    2    0    0 -0.37373100764E-02 -0.12215427168E-01  0.19854796062E-01  0.23609258230E-01  0.00000000000E+00 0.  1.
     999901    1    3    3    0    0 -0.96185752786E-01 -0.69753496958E-01  0.12359260275E-02  0.88798579768E+00  0.88000000000E+00 0. -1.
        -11    1    4    4    0    0  0.56171812330E-01  0.35057153211E-01 -0.15027275187E-01  0.67899606864E-01  0.51100000000E-03 0. -1.
         11    1    4    4    0    0  0.43751250533E-01  0.46911770915E-01 -0.60634469017E-02  0.64435337222E-01  0.51100000000E-03 0.  1.
</event>
<event>
 8    1  0.1103774E+005  0.1043930E+01  0.7957747E-01            NaN
         13   -1    0    0    0    0  0.00000000000E+00  0.00000000000E+00  0.74505805969E-08  0.10566000000E+00  0.10566000000E+00 0.  1.
     999900   -1    0    0    0    0 -0.00000000000E+00 -0.00000000000E+00 -0.74505805969E-08  0.93827000000E+00  0.93827000000E+00 0.  1.
     999902    2    1    2    0    0 -0.22843876900E-01 -0.74695727601E-02 -0.40208859362E-02  0.10195618907E+01  0.10192706432E+01 0.  0.
     999903    2    3    3    0    0 -0.74061668912E-01 -0.10795190549E+00  0.23968378632E-02  0.13234086488E+00  0.19225373456E-01 0.  0.
         14    1    1    2    0    0  0.22843876900E-01  0.74695727601E-02  0.40208859362E-02  0.24368109339E-01  0.00000000000E+00 0.  1.
     999901    1    3    3    0    0  0.51217792012E-01  0.10048233273E+00 -0.64177237994E-02  0.88722102578E+00  0.88000000000E+00 0. -1.
        -11    1    4    4    0    0 -0.60866787137E-01 -0.86786900265E-01  0.94263308915E-02  0.10642297059E+00  0.51100000000E-03 0. -1.
         11    1    4    4    0    0 -0.13194881775E-01 -0.21165005225E-01 -0.70294930283E-02  0.25917894291E-01  0.51100000000E-03 0.  1.
</event>
<event>
 8    1  0.1103774E+005  0.1043930E+01  0.7957747E-01            NaN
         13   -1    0    0    0    0  0.00000000000E+00  0.00000000000E+00  0.74505805969E-08  0.10566000000E+00  0.10566000000E+00 0.  1.
     999900   -1    0    0    0    0 -0.00000000000E+00 -0.00000000000E+00 -0.74505805969E-08  0.93827000000E+00  0.93827000000E+00 0.  1.
     999902    2    1    2    0    0  0.28914649291E-02 -0.23563876788E-01 -0.22929397289E-02  0.10200789113E+01  0.10198000348E+01 0.  0.
     999903    2    3    3    0    0  0.38472906434E-01 -0.11531171983E+00  0.50220504459E-01  0.13303811885E+00  0.20002118384E-01 0.  0.
         14    1    1    2    0    0 -0.28914649291E-02  0.23563876788E-01  0.22929397289E-02  0.23851088682E-01  0.00000000000E+00 0.  1.
     999901    1    3    3    0    0 -0.35581441505E-01  0.91747843040E-01 -0.52513444188E-01  0.88704079247E+00  0.88000000000E+00 0.  1.
        -11    1    4    4    0    0  0.20263006986E-01 -0.50704509281E-01  0.12420825627E-01  0.56000667352E-01  0.51100000000E-03 0. -1.
         11    1    4    4    0    0  0.18209899448E-01 -0.64607210546E-01  0.37799678833E-01  0.77037451498E-01  0.51100000000E-03 0.  1.
</event>
<event>
 8    1  0.1103774E+005  0.1043930E+01  0.7957747E-01            NaN
         13   -1    0    0    0    0  0.00000000000E+00  0.00000000000E+00  0.74505805969E-08  0.10566000000E+00  0.10566000000E+00 0.  1.
     999900   -1    0    0    0    0 -0.00000000000E+00 -0.00000000000E+00 -0.74505805969E-08  0.93827000000E+00  0.93827000000E+00 0.  1.
     999902    2    1    2    0    0 -0.27201192660E-02  0.30105217934E-02 -0.24582832834E-01  0.10190145839E+01  0.10187099412E+01 0.  0.
     999903    2    3    3    0    0 -0.36115454268E-01 -0.91065968358E-01 -0.84932937114E-01  0.13131656682E+00  0.20811061614E-01 0.  0.
         14    1    1    2    0    0  0.27201192660E-02 -0.30105217934E-02  0.24582832834E-01  0.24915416120E-01  0.00000000000E+00 0.  1.
     999901    1    3    3    0    0  0.33395335002E-01  0.94076490152E-01  0.60350104281E-01  0.88769801706E+00  0.88000000000E+00 0.  1.
        -11    1    4    4    0    0 -0.17582829860E-01 -0.20472826518E-01 -0.19567884481E-01  0.33338502600E-01  0.51100000000E-03 0. -1.
         11    1    4    4    0    0 -0.18532624408E-01 -0.70593141840E-01 -0.65365052634E-01  0.97978064224E-01  0.51100000000E-03 0.  1.
</event>
<event>
 8    1  0.1103774E+005  0.1043930E+01  0.7957747E-01            NaN
         13   -1    0    0    0    0  0.00000000000E+00  0.00000000000E+00  0.74505805969E-08  0.10566000000E+00  0.10566000000E+00 0. -1.
     999900   -1    0    0    0    0 -0.00000000000E+00 -0.00000000000E+00 -0.74505805969E-08  0.93827000000E+00  0.93827000000E+00 0.  1.
     999902    2    1    2    0    0  0.91453455591E-02 -0.20411155690E-01 -0.90940316990E-02  0.10197855589E+01  0.10194996970E+01 0.  0.
     999903    2    3    3    0    0  0.19295570340E-01 -0.35710208564E-01  0.12177590240E+00  0.12991813750E+00  0.20045299088E-01 0.  0.
         14    1    1    2    0    0 -0.91453455591E-02  0.20411155690E-01  0.90940316990E-02  0.24144441069E-01  0.00000000000E+00 0. -1.
     999901    1    3    3    0    0 -0.10150224781E-01  0.15299052874E-01 -0.13086993410E+00  0.88986742144E+00  0.88000000000E+00 0.  1.
        -11    1    4    4    0    0 -0.10582936799E-02  0.20286145580E-02  0.51372152214E-02  0.56468897429E-02  0.51100000000E-03 0. -1.
         11    1    4    4    0    0  0.20353864020E-01 -0.37738823122E-01  0.11663868717E+00  0.12427124775E+00  0.51100000000E-03 0.  1.
</event>
<event>
 8    1  0.1103774E+005  0.1043930E+01  0.7957747E-01            NaN
         13   -1    0    0    0    0  0.00000000000E+00  0.00000000000E+00  0.74505805969E-08  0.10566000000E+00  0.10566000000E+00 0.  1.
     999900   -1    0    0    0    0 -0.00000000000E+00 -0.00000000000E+00 -0.74505805969E-08  0.93827000000E+00  0.93827000000E+00 0.  1.
     999902    2    1    2    0    0  0.12949327387E-01 -0.71819070850E-02  0.18170615846E-01  0.10204899456E+01  0.10202207080E+01 0.  0.
     999903    2    3    3    0    0  0.51192670687E-01 -0.11978969546E+00 -0.73127383853E-02  0.13212489191E+00  0.20814664307E-01 0.  0.
         14    1    1    2    0    0 -0.12949327387E-01  0.71819070850E-02 -0.18170615846E-01  0.23440054381E-01  0.00000000000E+00 0. -1.
     999901    1    3    3    0    0 -0.38243343299E-01  0.11260778837E+00  0.25483354232E-01  0.88836505371E+00  0.88000000000E+00 0.  1.
        -11    1    4    4    0    0  0.40687763098E-01 -0.69878142979E-01 -0.62979707602E-02  0.81107179022E-01  0.51100000000E-03 0.  1.
         11    1    4    4    0    0  0.10504907589E-01 -0.49911552476E-01 -0.10147676251E-02  0.51017712888E-01  0.51100000000E-03 0. -1.
</event>
<event>
 8    1  0.1103774E+005  0.1043930E+01  0.7957747E-01            NaN
         13   -1    0    0    0    0  0.00000000000E+00  0.00000000000E+00  0.74505805969E-08  0.10566000000E+00  0.10566000000E+00 0.  1.
     999900   -1    0    0    0    0 -0.00000000000E+00 -0.00000000000E+00 -0.74505805969E-08  0.93827000000E+00  0.93827000000E+00 0.  1.
     999902    2    1    2    0    0  0.93506785980E-02  0.19492816004E-01 -0.98669826043E-02  0.10201652696E+01  0.10198884326E+01 0.  0.
     999903    2    3    3    0    0  0.12611020984E+00 -0.14919462672E-01 -0.26821605089E-01  0.13162463895E+00  0.21892274616E-01 0.  0.
         14    1    1    2    0    0 -0.93506785980E-02 -0.19492816004E-01  0.98669826043E-02  0.23764730416E-01  0.00000000000E+00 0. -1.
     999901    1    3    3    0    0 -0.11675953124E+00  0.34412278676E-01  0.16954622484E-01  0.88854063063E+00  0.88000000000E+00 0. -1.
        -11    1    4    4    0    0  0.10963302548E+00 -0.76427124263E-02 -0.17330883530E-01  0.11125840181E+00  0.51100000000E-03 0. -1.
         11    1    4    4    0    0  0.16477184363E-01 -0.72767502456E-02 -0.94907215591E-02  0.20366237143E-01  0.51100000000E-03 0.  1.
</event>
<event>
 8    1  0.1103774E+005  0.1043930E+01  0.7957747E-01            NaN
         13   -1    0    0    0    0  0.00000000000E+00  0.00000000000E+00  0.74505805969E-08  0.10566000000E+00  0.10566000000E+00 0.  1.
     999900   -1    0    0    0    0 -0.00000000000E+00 -0.00000000000E+00 -0.74505805969E-08  0.93827000000E+00  0.93827000000E+00 0.  1.
     999902    2    1    2    0    0 -0.60094942828E-03  0.28672431243E-02 -0.24247103663E-01  0.10195065633E+01  0.10192139758E+01 0.  0.
     999903    2    3    3    0    0  0.11636902131E+00 -0.52018226653E-01 -0.56050850888E-02  0.12987635154E+00  0.24265297993E-01 0.  0.
         14    1    1    2    0    0  0.60094942828E-03 -0.28672431243E-02  0.24247103663E-01  0.24423436683E-01  0.00000000000E+00 0.  1.
     999901    1    3    3    0    0 -0.11696997074E+00  0.54885469777E-01 -0.18642018574E-01  0.88963021178E+00  0.88000000000E+00 0.  1.
        -11    1    4    4    0    0  0.46573095470E-01 -0.29080978634E-01  0.69295406700E-02  0.55344703404E-01  0.51100000000E-03 0.  1.
         11    1    4    4    0    0  0.69795925838E-01 -0.22937248019E-01 -0.12534625759E-01  0.74531648138E-01  0.51100000000E-03 0. -1.
</event>
<event>
 8    1  0.1103774E+005  0.1043930E+01  0.7957747E-01            NaN
         13   -1    0    0    0    0  0.00000000000E+00  0.00000000000E+00  0.74505805969E-08  0.10566000000E+00  0.10566000000E+00 0.  1.
     999900   -1    0    0    0    0 -0.00000000000E+00 -0.00000000000E+00 -0.74505805969E-08  0.93827000000E+00  0.93827000000E+00 0.  1.
     999902    2    1    2    0    0 -0.18986402433E-01 -0.94774200902E-03  0.15142820154E-01  0.10196259531E+01  0.10193362534E+01 0.  0.
     999903    2    3    3    0    0  0.15298537220E-01 -0.12470852308E+00 -0.25071917495E-01  0.12939597546E+00  0.18123367465E-01 0.  0.
         14    1    1    2    0    0  0.18986402433E-01  0.94774200902E-03 -0.15142820154E-01  0.24304046874E-01  0.00000000000E+00 0. -1.
     999901    1    3    3    0    0 -0.34284939653E-01  0.12376078107E+00  0.40214737648E-01  0.89022997767E+00  0.88000000000E+00 0.  1.
        -11    1    4    4    0    0  0.97925135682E-03 -0.78650191256E-01 -0.17305535461E-01  0.80539146981E-01  0.51100000000E-03 0.  1.
         11    1    4    4    0    0  0.14319285863E-01 -0.46058331821E-01 -0.77663820332E-02  0.48856828475E-01  0.51100000000E-03 0. -1.
</event>
<event>
 8    1  0.1103774E+005  0.1043930E+01  0.7957747E-01            NaN
         13   -1    0    0    0    0  0.00000000000E+00  0.00000000000E+00  0.74505805969E-08  0.10566000000E+00  0.10566000000E+00 0.  1.
     999900   -1    0    0    0    0 -0.00000000000E+00 -0.00000000000E+00 -0.74505805969E-08  0.93827000000E+00  0.93827000000E+00 0. -1.
     999902    2    1    2    0    0  0.16036626786E-01  0.11086186181E-01  0.13094614582E-01  0.10204449866E+01  0.10201747031E+01 0.  0.
     999903    2    3    3    0    0  0.11011104983E+00 -0.41697029062E-01 -0.54597359171E-01  0.13127780987E+00  0.19746042849E-01 0.  0.
         14    1    1    2    0    0 -0.16036626786E-01 -0.11086186181E-01 -0.13094614582E-01  0.23485013387E-01  0.00000000000E+00 0. -1.
     999901    1    3    3    0    0 -0.94074423047E-01  0.52783215244E-01  0.67691973753E-01  0.88916717674E+00  0.88000000000E+00 0.  1.
        -11    1    4    4    0    0  0.67012649382E-01 -0.23690162937E-01 -0.43266200871E-01  0.83211443059E-01  0.51100000000E-03 0.  1.
         11    1    4    4    0    0  0.43098400452E-01 -0.18006866125E-01 -0.11331158300E-01  0.48066366813E-01  0.51100000000E-03 0. -1.
</event>
<event>
 8    1  0.1103774E+005  0.1043930E+01  0.7957747E-01            NaN
         13   -1    0    0    0    0  0.00000000000E+00  0.00000000000E+00  0.74505805969E-08  0.10566000000E+00  0.10566000000E+00 0. -1.
     999900   -1    0    0    0    0 -0.00000000000E+00 -0.00000000000E+00 -0.74505805969E-08  0.93827000000E+00  0.93827000000E+00 0.  1.
     999902    2    1    2    0    0  0.19114203959E-01 -0.12863436149E-01  0.52438923949E-02  0.10203012211E+01  0.10200275794E+01 0.  0.
     999903    2    3    3    0    0 -0.24142508509E-01  0.10432025398E+00 -0.68020249787E-01  0.12846558891E+00  0.20275035028E-01 0.  0.
         14    1    1    2    0    0 -0.19114203959E-01  0.12863436149E-01 -0.52438923949E-02  0.23628778851E-01  0.00000000000E+00 0. -1.
     999901    1    3    3    0    0  0.43256712468E-01 -0.11718369013E+00  0.73264142182E-01  0.89183563224E+00  0.88000000000E+00 0.  1.
        -11    1    4    4    0    0 -0.16917947320E-01  0.34528535866E-01 -0.29134861947E-01  0.48244564795E-01  0.51100000000E-03 0.  1.
         11    1    4    4    0    0 -0.72245611892E-02  0.69791718111E-01 -0.38885387840E-01  0.80221024113E-01  0.51100000000E-03 0. -1.
</event>
<event>
 8    1  0.1103774E+005  0.1043930E+01  0.7957747E-01            NaN
         13   -1    0    0    0    0  0.00000000000E+00  0.00000000000E+00  0.74505805969E-08  0.10566000000E+00  0.10566000000E+00 0. -1.
     999900   -1    0    0    0    0 -0.00000000000E+00 -0.00000000000E+00 -0.74505805969E-08  0.93827000000E+00  0.93827000000E+00 0.  1.
     999902    2    1    2    0    0 -0.46024565979E-02  0.64873237971E-02 -0.22130014103E-01  0.10204139310E+01  0.10201429239E+01 0.  0.
     999903    2    3    3    0    0  0.12545356449E+00 -0.65941326869E-02 -0.30367954368E-01  0.13072097454E+00  0.19587779417E-01 0.  0.
         14    1    1    2    0    0  0.46024565979E-02 -0.64873237971E-02  0.22130014103E-01  0.23516068995E-01  0.00000000000E+00 0. -1.
     999901    1    3    3    0    0 -0.13005602109E+00  0.13081456484E-01  0.82379402649E-02  0.88969295647E+00  0.88000000000E+00 0.  1.
        -11    1    4    4    0    0  0.73225826679E-02 -0.32767709375E-02 -0.60634951938E-02  0.10068989009E-01  0.51100000000E-03 0.  1.
         11    1    4    4    0    0  0.11813098182E+00 -0.33173617494E-02 -0.24304459174E-01  0.12065198553E+00  0.51100000000E-03 0. -1.
</event>
<event>
 8    1  0.1103774E+005  0.1043930E+01  0.7957747E-01            NaN
         13   -1    0    0    0    0  0.00000000000E+00  0.00000000000E+00  0.74505805969E-08  0.10566000000E+00  0.10566000000E+00 0.  1.
     999900   -1    0    0    0    0 -0.00000000000E+00 -0.00000000000E+00 -0.74505805969E-08  0.93827000000E+00  0.93827000000E+00 0.  1.
     999902    2    1    2    0    0  0.24228013719E-01  0.29846078881E-02 -0.78538526727E-02  0.10182865304E+01  0.10179635899E+01 0.  0.
     999903    2    3    3    0    0  0.44734858928E-01  0.60236178842E-01 -0.10511518018E+00  0.13084186229E+00  0.20994927423E-01 0.  0.
         14    1    1    2    0    0 -0.24228013719E-01 -0.29846078881E-02  0.78538526727E-02  0.25643469633E-01  0.00000000000E+00 0. -1.
     999901    1    3    3    0    0 -0.20506845209E-01 -0.57251570954E-01  0.97261327506E-01  0.88744466808E+00  0.88000000000E+00 0. -1.
        -11    1    4    4    0    0  0.37327200046E-01  0.46800835202E-01 -0.95549744810E-01  0.11275483534E+00  0.51100000000E-03 0.  1.
         11    1    4    4    0    0  0.74076588815E-02  0.13435343641E-01 -0.95654353694E-02  0.18087026943E-01  0.51100000000E-03 0. -1.
</event>
<event>
 8    1  0.1103774E+005  0.1043930E+01  0.7957747E-01            NaN
         13   -1    0    0    0    0  0.00000000000E+00  0.00000000000E+00  0.74505805969E-08  0.10566000000E+00  0.10566000000E+00 0. -1.
     999900   -1    0    0    0    0 -0.00000000000E+00 -0.00000000000E+00 -0.74505805969E-08  0.93827000000E+00  0.93827000000E+00 0. -1.
     999902    2    1    2    0    0  0.17251471986E-01  0.51612792655E-02 -0.16440381046E-01  0.10195468456E+01  0.10192552341E+01 0.  0.
     999903    2    3    3    0    0 -0.92993211558E-01  0.83146869514E-01  0.22153750757E-01  0.12840984741E+00  0.20908393867E-01 0.  0.
         14    1    1    2    0    0 -0.17251471986E-01 -0.51612792655E-02  0.16440381046E-01  0.24383154396E-01  0.00000000000E+00 0.  1.
     999901    1    3    3    0    0  0.11024468354E+00 -0.77985590249E-01 -0.38594131803E-01  0.89113699819E+00  0.88000000000E+00 0. -1.
        -11    1    4    4    0    0 -0.75581446416E-01  0.55360039852E-01  0.16267785223E-01  0.95090435964E-01  0.51100000000E-03 0. -1.
         11    1    4    4    0    0 -0.17411765142E-01  0.27786829662E-01  0.58859655338E-02  0.33319411449E-01  0.51100000000E-03 0.  1.
</event>
<event>
 8    1  0.1103774E+005  0.1043930E+01  0.7957747E-01            NaN
         13   -1    0    0    0    0  0.00000000000E+00  0.00000000000E+00  0.74505805969E-08  0.10566000000E+00  0.10566000000E+00 0. -1.
     999900   -1    0    0    0    0 -0.00000000000E+00 -0.00000000000E+00 -0.74505805969E-08  0.93827000000E+00  0.93827000000E+00 0. -1.
     999902    2    1    2    0    0  0.21105355310E-01  0.96530848145E-02  0.16008469360E-02  0.10206667075E+01  0.10204015616E+01 0.  0.
     999903    2    3    3    0    0  0.11536707011E+00  0.47307509439E-01 -0.45243320481E-01  0.13359427378E+00  0.15903163892E-01 0.  0.
         14    1    1    2    0    0 -0.21105355310E-01 -0.96530848145E-02 -0.16008469360E-02  0.23263292546E-01  0.00000000000E+00 0.  1.
     999901    1    3    3    0    0 -0.94261714802E-01 -0.37654424624E-01  0.46844167417E-01  0.88707243368E+00  0.88000000000E+00 0.  1.
        -11    1    4    4    0    0  0.71545157756E-01  0.22708686762E-01 -0.32154085482E-01  0.81661131433E-01  0.51100000000E-03 0.  1.
         11    1    4    4    0    0  0.43821912356E-01  0.24598822677E-01 -0.13089234999E-01  0.51933142342E-01  0.51100000000E-03 0. -1.
</event>
<event>
 8    1  0.1347077E+005  0.1043930E+01  0.7957747E-01            NaN
         13   -1    0    0    0    0  0.00000000000E+00  0.00000000000E+00  0.74505805969E-08  0.10566000000E+00  0.10566000000E+00 0.  1.
     999900   -1    0    0    0    0 -0.00000000000E+00 -0.00000000000E+00 -0.74505805969E-08  0.93827000000E+00  0.93827000000E+00 0.  1.
     999902    2    1    2    0    0 -0.92660606438E-02 -0.10903613001E-01 -0.12835180400E-01  0.10247078640E+01  0.10245275575E+01 0.  0.
     999903    2    3    3    0    0  0.30227847345E-02 -0.78946389988E-01 -0.10969772186E+00  0.13669706049E+00  0.20268854085E-01 0.  0.
         14    1    1    2    0    0  0.92660606438E-02  0.10903613001E-01  0.12835180400E-01  0.19222135996E-01  0.00000000000E+00 0.  1.
     999901    1    3    3    0    0 -0.12288845378E-01  0.68042776987E-01  0.96862541458E-01  0.88801080351E+00  0.88000000000E+00 0. -1.
        -11    1    4    4    0    0 -0.79676768592E-02 -0.47576288549E-01 -0.67856992388E-01  0.83257550069E-01  0.51100000000E-03 0.  1.
         11    1    4    4    0    0  0.10990461594E-01 -0.31370101439E-01 -0.41840729470E-01  0.53439510420E-01  0.51100000000E-03 0. -1.
</event>
<event>
 8    1  0.1103774E+005  0.1043930E+01  0.7957747E-01            NaN
         13   -1    0    0    0    0  0.00000000000E+00  0.00000000000E+00  0.74505805969E-08  0.10566000000E+00  0.10566000000E+00 0.  1.
     999900   -1    0    0    0    0 -0.00000000000E+00 -0.00000000000E+00 -0.74505805969E-08  0.93827000000E+00  0.93827000000E+00 0.  1.
     999902    2    1    2    0    0 -0.10391071632E-01  0.25144453057E-01  0.35970150493E-02  0.10164863048E+01  0.10161157667E+01 0.  0.
     999903    2    3    3    0    0 -0.48553629674E-01  0.91462352477E-01  0.76358858203E-01  0.13017443506E+00  0.19796248160E-01 0.  0.
         14    1    1    2    0    0  0.10391071632E-01 -0.25144453057E-01 -0.35970150493E-02  0.27443695205E-01  0.00000000000E+00 0.  1.
     999901    1    3    3    0    0  0.38162558042E-01 -0.66317899420E-01 -0.72761843154E-01  0.88631186974E+00  0.88000000000E+00 0.  1.
        -11    1    4    4    0    0 -0.24780437399E-01  0.66412993940E-01  0.51554818473E-01  0.87652246237E-01  0.51100000000E-03 0.  1.
         11    1    4    4    0    0 -0.23773192275E-01  0.25049358537E-01  0.24804039731E-01  0.42522188820E-01  0.51100000000E-03 0. -1.
</event>
<event>
 8    1  0.1103774E+005  0.1043930E+01  0.7957747E-01            NaN
         13   -1    0    0    0    0  0.00000000000E+00  0.00000000000E+00  0.74505805969E-08  0.10566000000E+00  0.10566000000E+00 0. -1.
     999900   -1    0    0    0    0 -0.00000000000E+00 -0.00000000000E+00 -0.74505805969E-08  0.93827000000E+00  0.93827000000E+00 0.  1.
     999902    2    1    2    0    0 -0.17179339065E-01  0.13404839973E-01 -0.11467172822E-02  0.10221094962E+01  0.10218765522E+01 0.  0.
     999903    2    3    3    0    0  0.76890079365E-01 -0.17873835205E-01  0.10160482008E+00  0.13060218303E+00  0.22401617340E-01 0.  0.
         14    1    1    2    0    0  0.17179339065E-01 -0.13404839973E-01  0.11467172822E-02  0.21820503796E-01  0.00000000000E+00 0. -1.
     999901    1    3    3    0    0 -0.94069418430E-01  0.31278675178E-01 -0.10275153737E+00  0.89150731317E+00  0.88000000000E+00 0.  1.
        -11    1    4    4    0    0  0.18524992063E-01  0.50264796445E-02  0.27343322171E-01  0.33411962182E-01  0.51100000000E-03 0.  1.
         11    1    4    4    0    0  0.58365087302E-01 -0.22900314850E-01  0.74261497912E-01  0.97190220851E-01  0.51100000000E-03 0. -1.
</event>
<event>
 8    1  0.1103774E+005  0.1043930E+01  0.7957747E-01            NaN
         13   -1    0    0    0    0  0.00000000000E+00  0.00000000000E+00  0.74505805969E-08  0.10566000000E+00  0.10566000000E+00 0.  1.
     999900   -1    0    0    0    0 -0.00000000000E+00 -0.00000000000E+00 -0.74505805969E-08  0.93827000000E+00  0.93827000000E+00 0.  1.
     999902    2    1    2    0    0  0.14243304249E-01 -0.14355022794E-01 -0.12327497064E-01  0.10202465547E+01  0.10199716304E+01 0.  0.
     999903    2    3    3    0    0 -0.94486135610E-02  0.12341863866E+00 -0.30852240252E-01  0.12901928021E+00  0.19304851001E-01 0.  0.
         14    1    1    2    0    0 -0.14243304249E-01  0.14355022794E-01  0.12327497064E-01  0.23683445256E-01  0.00000000000E+00 0. -1.
     999901    1    3    3    0    0  0.23691917810E-01 -0.13777366145E+00  0.18524743188E-01  0.89122727453E+00  0.88000000000E+00 0.  1.
        -11    1    4    4    0    0  0.32634403925E-02  0.29334448109E-01 -0.13691272592E-01  0.32540312771E-01  0.51100000000E-03 0. -1.
         11    1    4    4    0    0 -0.12712053953E-01  0.94084190547E-01 -0.17160967660E-01  0.96478967442E-01  0.51100000000E-03 0.  1.
</event>
<event>
 8    1  0.1103774E+005  0.1043930E+01  0.7957747E-01            NaN
         13   -1    0    0    0    0  0.00000000000E+00  0.00000000000E+00  0.74505805969E-08  0.10566000000E+00  0.10566000000E+00 0.  1.
     999900   -1    0    0    0    0 -0.00000000000E+00 -0.00000000000E+00 -0.74505805969E-08  0.93827000000E+00  0.93827000000E+00 0. -1.
     999902    2    1    2    0    0  0.16258418221E-02  0.22510516653E-01  0.10852524975E-01  0.10188871563E+01  0.10185793505E+01 0.  0.
     999903    2    3    3    0    0  0.27962530359E-01  0.94252278184E-01 -0.83869552962E-01  0.13051067443E+00  0.18263055045E-01 0.  0.
         14    1    1    2    0    0 -0.16258418221E-02 -0.22510516653E-01 -0.10852524975E-01  0.25042843688E-01  0.00000000000E+00 0.  1.
     999901    1    3    3    0    0 -0.26336688537E-01 -0.71741761530E-01  0.94722077937E-01  0.88837648188E+00  0.88000000000E+00 0.  1.
        -11    1    4    4    0    0  0.23859059035E-01  0.73596262137E-01 -0.55689394719E-01  0.95326986230E-01  0.51100000000E-03 0.  1.
         11    1    4    4    0    0  0.41034713235E-02  0.20656016047E-01 -0.28180158243E-01  0.35183688201E-01  0.51100000000E-03 0. -1.
</event>
<event>
 8    1  0.1103774E+005  0.1043930E+01  0.7957747E-01            NaN
         13   -1    0    0    0    0  0.00000000000E+00  0.00000000000E+00  0.74505805969E-08  0.10566000000E+00  0.10566000000E+00 0.  1.
     999900   -1    0    0    0    0 -0.00000000000E+00 -0.00000000000E+00 -0.74505805969E-08  0.93827000000E+00  0.93827000000E+00 0. -1.
     999902    2    1    2    0    0  0.15548061753E-01  0.16578181223E-01  0.73097583250E-02  0.10200550993E+01  0.10197756590E+01 0.  0.
     999903    2    3    3    0    0 -0.29670446905E-01 -0.11832010688E+00 -0.32360459120E-01  0.12774574273E+00  0.19793745479E-01 0.  0.
         14    1    1    2    0    0 -0.15548061753E-01 -0.16578181223E-01 -0.73097583250E-02  0.23874900706E-01  0.00000000000E+00 0. -1.
     999901    1    3    3    0    0  0.45218508658E-01  0.13489828810E+00  0.39670217445E-01  0.89230935656E+00  0.88000000000E+00 0.  1.
        -11    1    4    4    0    0 -0.14394393883E-01 -0.43746090882E-01 -0.21582044416E-01  0.50862213920E-01  0.51100000000E-03 0.  1.
         11    1    4    4    0    0 -0.15276053021E-01 -0.74574015997E-01 -0.10778414704E-01  0.76883528811E-01  0.51100000000E-03 0. -1.
</event>
<event>
 8    1  0.1103774E+005  0.1043930E+01  0.7957747E-01            NaN
         13   -1    0    0    0    0  0.00000000000E+00  0.00000000000E+00  0.74505805969E-08  0.10566000000E+00  0.10566000000E+00 0. -1.
     999900   -1    0    0    0    0 -0.00000000000E+00 -0.00000000000E+00 -0.74505805969E-08  0.93827000000E+00  0.93827000000E+00 0.  1.
     999902    2    1    2    0    0 -0.34055354669E-02 -0.47667393240E-02  0.19141446977E-01  0.10239121463E+01  0.10237164494E+01 0.  0.
     999903    2    3    3    0    0 -0.87917852289E-01  0.75612446569E-01  0.66163921488E-01  0.13497218298E+00  0.19825106431E-01 0.  0.
         14    1    1    2    0    0  0.34055354669E-02  0.47667393240E-02 -0.19141446977E-01  0.20017853731E-01  0.00000000000E+00 0.  1.
     999901    1    3    3    0    0  0.84512316822E-01 -0.80379185893E-01 -0.47022474511E-01  0.88893996329E+00  0.88000000000E+00 0.  1.
        -11    1    4    4    0    0 -0.25447147488E-01  0.31277099853E-01  0.15887940811E-01  0.43341689800E-01  0.51100000000E-03 0. -1.
         11    1    4    4    0    0 -0.62470704802E-01  0.44335346716E-01  0.50275980678E-01  0.91630493183E-01  0.51100000000E-03 0.  1.
</event>
<event>
 8    1  0.1103774E+005  0.1043930E+01  0.7957747E-01            NaN
         13   -1    0    0    0    0  0.00000000000E+00  0.00000000000E+00  0.74505805969E-08  0.10566000000E+00  0.10566000000E+00 0.  1.
     999900   -1    0    0    0    0 -0.00000000000E+00 -0.00000000000E+00 -0.74505805969E-08  0.93827000000E+00  0.93827000000E+00 0.  1.
     999902    2    1    2    0    0 -0.20103575276E-01 -0.15075914602E-02 -0.17412867369E-01  0.10172910338E+01  0.10169421876E+01 0.  0.
     999903    2    3    3    0    0 -0.12366507271E+00  0.75306961665E-02  0.32723330868E-01  0.12975494282E+00  0.20390370514E-01 0.  0.
         14    1    1    2    0    0  0.20103575276E-01  0.15075914602E-02  0.17412867369E-01  0.26638966213E-01  0.00000000000E+00 0.  1.
     999901    1    3    3    0    0  0.10356149744E+00 -0.90382876267E-02 -0.50136198237E-01  0.88753609097E+00  0.88000000000E+00 0.  1.
        -11    1    4    4    0    0 -0.46679461676E-01  0.59924620174E-02  0.28199297859E-02  0.47149706981E-01  0.51100000000E-03 0. -1.
         11    1    4    4    0    0 -0.76985611036E-01  0.15382341491E-02  0.29903401082E-01  0.82605235840E-01  0.51100000000E-03 0.  1.
</event>
<event>
 8    1  0.1103774E+005  0.1043930E+01  0.7957747E-01            NaN
         13   -1    0    0    0    0  0.00000000000E+00  0.00000000000E+00  0.74505805969E-08  0.10566000000E+00  0.10566000000E+00 0. -1.
     999900   -1    0    0    0    0 -0.00000000000E+00 -0.00000000000E+00 -0.74505805969E-08  0.93827000000E+00  0.93827000000E+00 0.  1.
     999902    2    1    2    0    0 -0.12580391673E-02 -0.19257262534E-01 -0.32862488331E-02  0.10243538856E+01  0.10241668120E+01 0.  0.
     999903    2    3    3    0    0  0.78033514118E-01 -0.30880085022E-01 -0.10387951575E+00  0.13500510939E+00  0.19814560156E-01 0.  0.
         14    1    1    2    0    0  0.12580391673E-02  0.19257262534E-01  0.32862488331E-02  0.19576114381E-01  0.00000000000E+00 0.  1.
     999901    1    3    3    0    0 -0.79291553285E-01  0.11622822488E-01  0.10059326691E+00  0.88934877623E+00  0.88000000000E+00 0. -1.
        -11    1    4    4    0    0  0.26391787726E-01 -0.19219562626E-01 -0.31876496802E-01  0.45632118253E-01  0.51100000000E-03 0.  1.
         11    1    4    4    0    0  0.51641726392E-01 -0.11660522395E-01 -0.72003018945E-01  0.89372991141E-01  0.51100000000E-03 0. -1.
</event>
<event>
 8    1  0.1103774E+005  0.1043930E+01  0.7957747E-01            NaN
         13   -1    0    0    0    0  0.00000000000E+00  0.00000000000E+00  0.74505805969E-08  0.10566000000E+00  0.10566000000E+00 0.  1.
     999900   -1    0    0    0    0 -0.00000000000E+00 -0.00000000000E+00 -0.74505805969E-08  0.93827000000E+00  0.93827000000E+00 0.  1.
     999902    2    1    2    0    0 -0.57468685928E-02 -0.19275387998E-01  0.13072162204E-01  0.10199414922E+01  0.10196593544E+01 0.  0.
     999903    2    3    3    0    0 -0.44191613829E-01 -0.30858972355E-01  0.12007949030E+00  0.13255051518E+00  0.15664615419E-01 0.  0.
         14    1    1    2    0    0  0.57468685928E-02  0.19275387998E-01 -0.13072162204E-01  0.23988507786E-01  0.00000000000E+00 0. -1.
     999901    1    3    3    0    0  0.38444745236E-01  0.11583584357E-01 -0.10700732809E+00  0.88739097704E+00  0.88000000000E+00 0.  1.
        -11    1    4    4    0    0 -0.44143644388E-01 -0.26180205801E-01  0.11199189372E+00  0.12319297827E+00  0.51100000000E-03 0.  1.
         11    1    4    4    0    0 -0.47969440830E-04 -0.46787665540E-02  0.80875965729E-02  0.93575369013E-02  0.51100000000E-03 0. -1.
</event>
<event>
 8    1  0.1103774E+005  0.1043930E+01  0.7957747E-01            NaN
         13   -1    0    0    0    0  0.00000000000E+00  0.00000000000E+00  0.74505805969E-08  0.10566000000E+00  0.10566000000E+00 0. -1.
     999900   -1    0    0    0    0 -0.00000000000E+00 -0.00000000000E+00 -0.74505805969E-08  0.93827000000E+00  0.93827000000E+00 0. -1.
     999902    2    1    2    0    0 -0.31876588695E-02  0.21714640333E-01 -0.87860924169E-02  0.10202893106E+01  0.10200153897E+01 0.  0.
     999903    2    3    3    0    0  0.12983156974E-01 -0.94177633417E-01  0.82943908219E-01  0.12781695396E+00  0.20481523601E-01 0.  0.
         14    1    1    2    0    0  0.31876588695E-02 -0.21714640333E-01  0.87860924169E-02  0.23640689368E-01  0.00000000000E+00 0. -1.
     999901    1    3    3    0    0 -0.16170815843E-01  0.11589227375E+00 -0.91730000636E-01  0.89247235667E+00  0.88000000000E+00 0.  1.
        -11    1    4    4    0    0 -0.17942905628E-02 -0.15085599005E-01  0.22619395691E-01  0.27252393627E-01  0.51100000000E-03 0.  1.
         11    1    4    4    0    0  0.14777447536E-01 -0.79092034412E-01  0.60324512528E-01  0.10056456034E+00  0.51100000000E-03 0. -1.
</event>
<event>
 8    1  0.1103774E+005  0.1043930E+01  0.7957747E-01            NaN
         13   -1    0    0    0    0  0.00000000000E+00  0.00000000000E+00  0.74505805969E-08  0.10566000000E+00  0.10566000000E+00 0. -1.
     999900   -1    0    0    0    0 -0.00000000000E+00 -0.00000000000E+00 -0.74505805969E-08  0.93827000000E+00  0.93827000000E+00 0.  1.
     999902    2    1    2    0    0 -0.22522117787E-01 -0.53118315600E-02 -0.80400237025E-02  0.10194329935E+01  0.10191386191E+01 0.  0.
     999903    2    3    3    0    0  0.99009534872E-02 -0.10844960307E+00  0.67178835962E-01  0.12963159306E+00  0.20784817295E-01 0.  0.
         14    1    1    2    0    0  0.22522117787E-01  0.53118315600E-02  0.80400237025E-02  0.24497006455E-01  0.00000000000E+00 0. -1.
     999901    1    3    3    0    0 -0.32423071274E-01  0.10313777151E+00 -0.75218859664E-01  0.88980140049E+00  0.88000000000E+00 0.  1.
        -11    1    4    4    0    0 -0.29586760605E-02 -0.73345164999E-01  0.46681691972E-01  0.86992577149E-01  0.51100000000E-03 0. -1.
         11    1    4    4    0    0  0.12859629548E-01 -0.35104438075E-01  0.20497143990E-01  0.42639015906E-01  0.51100000000E-03 0.  1.
</event>
<event>
 8    1  0.1103774E+005  0.1043930E+01  0.7957747E-01            NaN
         13   -1    0    0    0    0  0.00000000000E+00  0.00000000000E+00  0.74505805969E-08  0.10566000000E+00  0.10566000000E+00 0. -1.
     999900   -1    0    0    0    0 -0.00000000000E+00 -0.00000000000E+00 -0.74505805969E-08  0.93827000000E+00  0.93827000000E+00 0.  1.
     999902    2    1    2    0    0  0.23429818387E-01 -0.63096731539E-02  0.10483390115E-02  0.10196428145E+01  0.10193535215E+01 0.  0.
     999903    2    3    3    0    0 -0.46863095260E-01 -0.11488196765E+00 -0.31646699036E-01  0.12958775870E+00  0.19936335051E-01 0.  0.
         14    1    1    2    0    0 -0.23429818387E-01  0.63096731539E-02 -0.10483390115E-02  0.24287185502E-01  0.00000000000E+00 0. -1.
     999901    1    3    3    0    0  0.70292913646E-01  0.10857229450E+00  0.32695038047E-01  0.89005505580E+00  0.88000000000E+00 0.  1.
        -11    1    4    4    0    0 -0.15640158901E-01 -0.64650636079E-01 -0.16784943401E-01  0.68602585679E-01  0.51100000000E-03 0.  1.
         11    1    4    4    0    0 -0.31222936359E-01 -0.50231331574E-01 -0.14861755635E-01  0.60985173019E-01  0.51100000000E-03 0. -1.
</event>
<event>
 8    1  0.1103774E+005  0.1043930E+01  0.7957747E-01            NaN
         13   -1    0    0    0    0  0.00000000000E+00  0.00000000000E+00  0.74505805969E-08  0.10566000000E+00  0.10566000000E+00 0. -1.
     999900   -1    0    0    0    0 -0.00000000000E+00 -0.00000000000E+00 -0.74505805969E-08  0.93827000000E+00  0.93827000000E+00 0.  1.
     999902    2    1    2    0    0  0.13451507416E-01 -0.47324486256E-02 -0.16534685719E-01  0.10220957390E+01  0.10218624980E+01 0.  0.
     999903    2    3    3    0    0  0.12718449265E+00 -0.37844537190E-01 -0.18143502415E-02  0.13403701874E+00  0.18828870418E-01 0.  0.
         14    1    1    2    0    0 -0.13451507416E-01  0.47324486256E-02  0.16534685719E-01  0.21834261003E-01  0.00000000000E+00 0. -1.
     999901    1    3    3    0    0 -0.11373298523E+00  0.33112088565E-01 -0.14720335477E-01  0.88805872025E+00  0.88000000000E+00 0.  1.
        -11    1    4    4    0    0  0.10386420514E+00 -0.38204064281E-01 -0.47272329158E-03  0.11066981624E+00  0.51100000000E-03 0.  1.
         11    1    4    4    0    0  0.23320287506E-01  0.35952709103E-03 -0.13416269499E-02  0.23367202506E-01  0.51100000000E-03 0. -1.
</event>
<event>
 8    1  0.1103774E+005  0.1043930E+01  0.7957747E-01            NaN
         13   -1    0    0    0    0  0.00000000000E+00  0.00000000000E+00  0.74505805969E-08  0.10566000000E+00  0.10566000000E+00 0.  1.
     999900   -1    0    0    0    0 -0.00000000000E+00 -0.00000000000E+00 -0.74505805969E-08  0.93827000000E+00  0.93827000000E+00 0. -1.
     999902    2    1    2    0    0  0.39788866481E-02  0.36352739367E-02  0.22795228366E-01  0.10205063113E+01  0.10202374538E+01 0.  0.
     999903    2    3    3    0    0  0.76616348554E-02  0.59340030836E-02  0.13187405790E+00  0.13376111801E+00  0.20183074694E-01 0.  0.
         14    1    1    2    0    0 -0.39788866481E-02 -0.36352739367E-02 -0.22795228366E-01  0.23423688690E-01  0.00000000000E+00 0. -1.
     999901    1    3    3    0    0 -0.36827482073E-02 -0.22987291469E-02 -0.10907882953E+00  0.88674519330E+00  0.88000000000E+00 0. -1.
        -11    1    4    4    0    0  0.12063177669E-02 -0.46402411899E-03  0.11075465822E+00  0.11076337824E+00  0.51100000000E-03 0.  1.
         11    1    4    4    0    0  0.64553170885E-02  0.63980272026E-02  0.21119399673E-01  0.22997739766E-01  0.51100000000E-03 0. -1.
</event>
<event>
 8    1  0.1103774E+005  0.1043930E+01  0.7957747E-01            NaN
         13   -1    0    0    0    0  0.00000000000E+00  0.00000000000E+00  0.74505805969E-08  0.10566000000E+00  0.10566000000E+00 0. -1.
     999900   -1    0    0    0    0 -0.00000000000E+00 -0.00000000000E+00 -0.74505805969E-08  0.93827000000E+00  0.93827000000E+00 0. -1.
     999902    2    1    2    0    0 -0.94289881716E-02  0.14659032706E-01  0.15699103083E-01  0.10204724874E+01  0.10202028439E+01 0.  0.
     999903    2    3    3    0    0  0.10565918435E+00  0.74653071183E-01 -0.35578374097E-03  0.13080831962E+00  0.19332501808E-01 0.  0.
         14    1    1    2    0    0  0.94289881716E-02 -0.14659032706E-01 -0.15699103083E-01  0.23457512558E-01  0.00000000000E+00 0.  1.
     999901    1    3    3    0    0 -0.11508817252E+00 -0.59994038477E-01  0.16054886824E-01  0.88966416782E+00  0.88000000000E+00 0. -1.
        -11    1    4    4    0    0  0.13636528677E-01  0.13591535938E-01 -0.61461923209E-02  0.20216863371E-01  0.51100000000E-03 0.  1.
         11    1    4    4    0    0  0.92022655674E-01  0.61061535245E-01  0.57904085799E-02  0.11059145625E+00  0.51100000000E-03 0. -1.
</event>
<event>
 8    1  0.1103774E+005  0.1043930E+01  0.7957747E-01            NaN
         13   -1    0    0    0    0  0.00000000000E+00  0.00000000000E+00  0.74505805969E-08  0.10566000000E+00  0.10566000000E+00 0.  1.
     999900   -1    0    0    0    0 -0.00000000000E+00 -0.00000000000E+00 -0.74505805969E-08  0.93827000000E+00  0.93827000000E+00 0. -1.
     999902    2    1    2    0    0 -0.22820006078E-01  0.50985439115E-02  0.39431219600E-02  0.10202172178E+01  0.10199416040E+01 0.  0.
     999903    2    3    3    0    0 -0.11063274475E+00 -0.66653341732E-01  0.22854231873E-01  0.13273930811E+00  0.20374882261E-01 0.  0.
         14    1    1    2    0    0  0.22820006078E-01 -0.50985439115E-02 -0.39431219600E-02  0.23712782169E-01  0.00000000000E+00 0. -1.
     999901    1    3    3    0    0  0.87812738674E-01  0.71751885644E-01 -0.18911109913E-01  0.88747790972E+00  0.88000000000E+00 0. -1.
        -11    1    4    4    0    0 -0.66318464508E-01 -0.28194683212E-01  0.11616479427E-01  0.72995086215E-01  0.51100000000E-03 0. -1.
         11    1    4    4    0    0 -0.44314280244E-01 -0.38458658520E-01  0.11237752446E-01  0.59744221894E-01  0.51100000000E-03 0.  1.
</event>
<event>
 8    1  0.1103774E+005  0.1043930E+01  0.7957747E-01            NaN
         13   -1    0    0    0    0  0.00000000000E+00  0.00000000000E+00  0.74505805969E-08  0.10566000000E+00  0.10566000000E+00 0. -1.
     999900   -1    0    0    0    0 -0.00000000000E+00 -0.00000000000E+00 -0.74505805969E-08  0.93827000000E+00  0.93827000000E+00 0.  1.
     999902    2    1    2    0    0 -0.10642484792E-02  0.17139438158E-01 -0.21013539234E-01  0.10167921704E+01  0.10164299562E+01 0.  0.
     999903    2    3    3    0    0  0.86755137733E-01  0.89233516382E-01 -0.27389050962E-01  0.12946447000E+00  0.22843259661E-01 0.  0.
         14    1    1    2    0    0  0.10642484792E-02 -0.17139438158E-01  0.21013539234E-01  0.27137829617E-01  0.00000000000E+00 0. -1.
     999901    1    3    3    0    0 -0.87819386212E-01 -0.72094078223E-01  0.63755117282E-02  0.88732770038E+00  0.88000000000E+00 0.  1.
        -11    1    4    4    0    0  0.51745981502E-01  0.53089346400E-01 -0.27694728744E-01  0.79141546763E-01  0.51100000000E-03 0. -1.
         11    1    4    4    0    0  0.35009156230E-01  0.36144169981E-01  0.30567778166E-03  0.50322923241E-01  0.51100000000E-03 0.  1.
</event>
<event>
 8    1  0.1103774E+005  0.1043930E+01  0.7957747E-01            NaN
         13   -1    0    0    0    0  0.00000000000E+00  0.00000000000E+00  0.74505805969E-08  0.10566000000E+00  0.10566000000E+00 0.  1.
     999900   -1    0    0    0    0 -0.00000000000E+00 -0.00000000000E+00 -0.74505805969E-08  0.93827000000E+00  0.93827000000E+00 0. -1.
     999902    2    1    2    0    0  0.23852106508E-01  0.11233884620E-02 -0.15012061642E-01  0.10157245576E+01  0.10153328666E+01 0.  0.
     999903    2    3    3    0    0 -0.58323930825E-01  0.90688864281E-01  0.58609036398E-01  0.12432400697E+00  0.19881864886E-01 0.  0.
         14    1    1    2    0    0 -0.23852106508E-01 -0.11233884620E-02  0.15012061642E-01  0.28205442405E-01  0.00000000000E+00 0. -1.
     999901    1    3    3    0    0  0.82176037333E-01 -0.89565475819E-01 -0.73621098040E-01  0.89140055062E+00  0.88000000000E+00 0. -1.
        -11    1    4    4    0    0 -0.21011999843E-01  0.38197666690E-01  0.34346087530E-01  0.55502078587E-01  0.51100000000E-03 0. -1.
         11    1    4    4    0    0 -0.37311930982E-01  0.52491197591E-01  0.24262948868E-01  0.68821928387E-01  0.51100000000E-03 0.  1.
</event>
<event>
 8    1  0.1103774E+005  0.1043930E+01  0.7957747E-01            NaN
         13   -1    0    0    0    0  0.00000000000E+00  0.00000000000E+00  0.74505805969E-08  0.10566000000E+00  0.10566000000E+00 0.  1.
     999900   -1    0    0    0    0 -0.00000000000E+00 -0.00000000000E+00 -0.74505805969E-08  0.93827000000E+00  0.93827000000E+00 0.  1.
     999902    2    1    2    0    0 -0.16628337141E-01  0.73643354940E-02  0.10895096832E-01  0.10227300432E+01  0.10225102949E+01 0.  0.
     999903    2    3    3    0    0  0.47317238992E-01  0.15063830114E-01  0.12220076914E+00  0.13338350129E+00  0.19806321085E-01 0.  0.
         14    1    1    2    0    0  0.16628337141E-01 -0.73643354940E-02 -0.10895096832E-01  0.21199956800E-01  0.00000000000E+00 0. -1.
     999901    1    3    3    0    0 -0.63945576133E-01 -0.76994946199E-02 -0.11130567230E+00  0.88934654191E+00  0.88000000000E+00 0.  1.
        -11    1    4    4    0    0  0.20552835264E-01  0.83937876748E-03  0.30414308010E-01  0.36720768604E-01  0.51100000000E-03 0. -1.
         11    1    4    4    0    0  0.26764403728E-01  0.14224451346E-01  0.91786461125E-01  0.96662732684E-01  0.51100000000E-03 0.  1.
</event>
<event>
 8    1  0.1103774E+005  0.1043930E+01  0.7957747E-01            NaN
         13   -1    0    0    0    0  0.00000000000E+00  0.00000000000E+00  0.74505805969E-08  0.10566000000E+00  0.10566000000E+00 0. -1.
     999900   -1    0    0    0    0 -0.00000000000E+00 -0.00000000000E+00 -0.74505805969E-08  0.93827000000E+00  0.93827000000E+00 0.  1.
     999902    2    1    2    0    0  0.87958353464E-02  0.14879287650E-01 -0.14637591065E-01  0.10212800774E+01  0.10210288818E+01 0.  0.
     999903    2    3    3    0    0  0.48038453134E-01 -0.84286084309E-01  0.83248892289E-01  0.12945301029E+00  0.20392812929E-01 0.  0.
         14    1    1    2    0    0 -0.87958353464E-02 -0.14879287650E-01  0.14637591065E-01  0.22649922574E-01  0.00000000000E+00 0. -1.
     999901    1    3    3    0    0 -0.39242617788E-01  0.99165371959E-01 -0.97886483354E-01  0.89182706713E+00  0.88000000000E+00 0.  1.
        -11    1    4    4    0    0  0.38548519815E-01 -0.65934756082E-01  0.75459785419E-01  0.10736768963E+00  0.51100000000E-03 0. -1.
         11    1    4    4    0    0  0.94899333195E-02 -0.18351328227E-01  0.77891068702E-02  0.22085320666E-01  0.51100000000E-03 0.  1.
</event>
<event>
 8    1  0.1103774E+005  0.1043930E+01  0.7957747E-01            NaN
         13   -1    0    0    0    0  0.00000000000E+00  0.00000000000E+00  0.74505805969E-08  0.10566000000E+00  0.10566000000E+00 0. -1.
     999900   -1    0    0    0    0 -0.00000000000E+00 -0.00000000000E+00 -0.74505805969E-08  0.93827000000E+00  0.93827000000E+00 0. -1.
     999902    2    1    2    0    0 -0.55670845507E-02  0.22414433769E-01 -0.60399932663E-02  0.10200578239E+01  0.10197784482E+01 0.  0.
     999903    2    3    3    0    0  0.31737292145E-01 -0.20201573730E-02 -0.12522130668E+00  0.13090493987E+00  0.21080580845E-01 0.  0.
         14    1    1    2    0    0  0.55670845507E-02 -0.22414433769E-01  0.60399932663E-02  0.23872176068E-01  0.00000000000E+00 0. -1.
     999901    1    3    3    0    0 -0.37304376695E-01  0.24434591142E-01  0.11918131341E+00  0.88915288406E+00  0.88000000000E+00 0.  1.
        -11    1    4    4    0    0  0.20124714425E-01 -0.10821497278E-02 -0.39038980525E-01  0.43937208607E-01  0.51100000000E-03 0.  1.
         11    1    4    4    0    0  0.11612577720E-01 -0.93800764522E-03 -0.86182326152E-01  0.86967731266E-01  0.51100000000E-03 0. -1.
</event>
<event>
 8    1  0.1103774E+005  0.1043930E+01  0.7957747E-01            NaN
         13   -1    0    0    0    0  0.00000000000E+00  0.00000000000E+00  0.74505805969E-08  0.10566000000E+00  0.10566000000E+00 0. -1.
     999900   -1    0    0    0    0 -0.00000000000E+00 -0.00000000000E+00 -0.74505805969E-08  0.93827000000E+00  0.93827000000E+00 0. -1.
     999902    2    1    2    0    0 -0.20323910967E-01 -0.12522148712E-01  0.13927072339E-04  0.10200581388E+01  0.10197787705E+01 0.  0.
     999903    2    3    3    0    0  0.10502129501E+00  0.43257224605E-01 -0.54903721002E-01  0.12773605160E+00  0.20035478831E-01 0.  0.
         14    1    1    2    0    0  0.20323910967E-01  0.12522148712E-01 -0.13927072339E-04  0.23871861246E-01  0.00000000000E+00 0. -1.
     999901    1    3    3    0    0 -0.12534520598E+00 -0.55779373317E-01  0.54917648075E-01  0.89232208715E+00  0.88000000000E+00 0.  1.
        -11    1    4    4    0    0  0.82222597690E-01  0.25548192440E-01 -0.36654466012E-01  0.93579253616E-01  0.51100000000E-03 0.  1.
         11    1    4    4    0    0  0.22798697324E-01  0.17709032165E-01 -0.18249254991E-01  0.34156797985E-01  0.51100000000E-03 0. -1.
</event>
<event>
 8    1  0.1103774E+005  0.1043930E+01  0.7957747E-01            NaN
         13   -1    0    0    0    0  0.00000000000E+00  0.00000000000E+00  0.74505805969E-08  0.10566000000E+00  0.10566000000E+00 0.  1.
     999900   -1    0    0    0    0 -0.00000000000E+00 -0.00000000000E+00 -0.74505805969E-08  0.93827000000E+00  0.93827000000E+00 0.  1.
     999902    2    1    2    0    0 -0.56798407967E-02  0.22188975074E-01  0.92877781412E-02  0.10192141341E+01  0.10189144110E+01 0.  0.
     999903    2    3    3    0    0 -0.88270603170E-01  0.95507033414E-01  0.13969727431E-01  0.13229886620E+00  0.19863129131E-01 0.  0.
         14    1    1    2    0    0  0.56798407967E-02 -0.22188975074E-01 -0.92877781412E-02  0.24715865939E-01  0.00000000000E+00 0. -1.
     999901    1    3    3    0    0  0.82590762374E-01 -0.73318058340E-01 -0.46819492900E-02  0.88691526786E+00  0.88000000000E+00 0.  1.
        -11    1    4    4    0    0 -0.33695336529E-01  0.27061018468E-01  0.11494485600E-01  0.44722016329E-01  0.51100000000E-03 0. -1.
         11    1    4    4    0    0 -0.54575266641E-01  0.68446014946E-01  0.24752418309E-02  0.87576849875E-01  0.51100000000E-03 0.  1.
</event>
<event>
 8    1  0.1103774E+005  0.1043930E+01  0.7957747E-01            NaN
         13   -1    0    0    0    0  0.00000000000E+00  0.00000000000E+00  0.74505805969E-08  0.10566000000E+00  0.10566000000E+00 0. -1.
     999900   -1    0    0    0    0 -0.00000000000E+00 -0.00000000000E+00 -0.74505805969E-08  0.93827000000E+00  0.93827000000E+00 0.  1.
     999902    2    1    2    0    0  0.22399132124E-01 -0.20093532397E-02  0.49239242642E-02  0.10209081918E+01  0.10206485843E+01 0.  0.
     999903    2    3    3    0    0  0.97852195850E-02  0.43404734544E-01  0.12256194959E+00  0.13182987406E+00  0.19441262943E-01 0.  0.
         14    1    1    2    0    0 -0.22399132124E-01  0.20093532397E-02 -0.49239242642E-02  0.23021808151E-01  0.00000000000E+00 0.  1.
     999901    1    3    3    0    0  0.12613912539E-01 -0.45414087783E-01 -0.11763802532E+00  0.88907831779E+00  0.88000000000E+00 0.  1.
        -11    1    4    4    0    0 -0.11979105781E-02  0.29058468235E-01  0.59512135148E-01  0.66240357161E-01  0.51100000000E-03 0. -1.
         11    1    4    4    0    0  0.10983130163E-01  0.14346266308E-01  0.63049814440E-01  0.65589516900E-01  0.51100000000E-03 0.  1.
</event>
<event>
 8    1  0.1103774E+005  0.1043930E+01  0.7957747E-01            NaN
         13   -1    0    0    0    0  0.00000000000E+00  0.00000000000E+00  0.74505805969E-08  0.10566000000E+00  0.10566000000E+00 0.  1.
     999900   -1    0    0    0    0 -0.00000000000E+00 -0.00000000000E+00 -0.74505805969E-08  0.93827000000E+00  0.93827000000E+00 0.  1.
     999902    2    1    2    0    0  0.14014008919E-01 -0.12474475085E-01  0.14044777529E-01  0.10204936874E+01  0.10202245366E+01 0.  0.
     999903    2    3    3    0    0 -0.52711996538E-01 -0.10621151412E+00 -0.50863103688E-01  0.13063300987E+00  0.20456970456E-01 0.  0.
         14    1    1    2    0    0 -0.14014008919E-01  0.12474475085E-01 -0.14044777529E-01  0.23436312646E-01  0.00000000000E+00 0.  1.
     999901    1    3    3    0    0  0.66726005457E-01  0.93737039033E-01  0.64907881216E-01  0.88986067749E+00  0.88000000000E+00 0. -1.
        -11    1    4    4    0    0 -0.91224221645E-02 -0.31814411465E-01 -0.67705973830E-02  0.33785758434E-01  0.51100000000E-03 0. -1.
         11    1    4    4    0    0 -0.43589574374E-01 -0.74397102653E-01 -0.44092506305E-01  0.96847251435E-01  0.51100000000E-03 0.  1.
</event>
<event>
 8    1  0.1103774E+005  0.1043930E+01  0.7957747E-01            NaN
         13   -1    0    0    0    0  0.00000000000E+00  0.00000000000E+00  0.74505805969E-08  0.10566000000E+00  0.10566000000E+00 0. -1.
     999900   -1    0    0    0    0 -0.00000000000E+00 -0.00000000000E+00 -0.74505805969E-08  0.93827000000E+00  0.93827000000E+00 0. -1.
     999902    2    1    2    0    0  0.58979662474E-02  0.89683869307E-02  0.19388439486E-01  0.10217685570E+01  0.10215281957E+01 0.  0.
     999903    2    3    3    0    0  0.76404274994E-01  0.98671599381E-01 -0.40033423955E-01  0.13241555411E+00  0.18907833705E-01 0.  0.
         14    1    1    2    0    0 -0.58979662474E-02 -0.89683869307E-02 -0.19388439486E-01  0.22161442997E-01  0.00000000000E+00 0.  1.
     999901    1    3    3    0    0 -0.70506308747E-01 -0.89703212450E-01  0.59421863441E-01  0.88935300289E+00  0.88000000000E+00 0. -1.
        -11    1    4    4    0    0  0.35696695488E-01  0.41801717272E-01 -0.27105389098E-01  0.61291115790E-01  0.51100000000E-03 0. -1.
         11    1    4    4    0    0  0.40707579507E-01  0.56869882109E-01 -0.12928034858E-01  0.71124438322E-01  0.51100000000E-03 0.  1.
</event>
<event>
 8    1  0.1103774E+005  0.1043930E+01  0.7957747E-01            NaN
         13   -1    0    0    0    0  0.00000000000E+00  0.00000000000E+00  0.74505805969E-08  0.10566000000E+00  0.10566000000E+00 0.  1.
     999900   -1    0    0    0    0 -0.00000000000E+00 -0.00000000000E+00 -0.74505805969E-08  0.93827000000E+00  0.93827000000E+00 0. -1.
     999902    2    1    2    0    0 -0.21048502822E-01  0.58216830537E-02 -0.27446425875E-02  0.10219194451E+01  0.10216823810E+01 0.  0.
     999903    2    3    3    0    0  0.18776293763E-01 -0.74273984499E-01 -0.10479979622E+00  0.13151696038E+00  0.21084107748E-01 0.  0.
         14    1    1    2    0    0  0.21048502822E-01 -0.58216830537E-02  0.27446425875E-02  0.22010554912E-01  0.00000000000E+00 0. -1.
     999901    1    3    3    0    0 -0.39824796585E-01  0.80095667552E-01  0.10205515363E+00  0.89040248470E+00  0.88000000000E+00 0.  1.
        -11    1    4    4    0    0  0.17031059594E-01 -0.25795031124E-01 -0.38996179794E-01  0.49763478387E-01  0.51100000000E-03 0. -1.
         11    1    4    4    0    0  0.17452341684E-02 -0.48478953375E-01 -0.65803616428E-01  0.81753481997E-01  0.51100000000E-03 0.  1.
</event>
<event>
 8    1  0.1103774E+005  0.1043930E+01  0.7957747E-01            NaN
         13   -1    0    0    0    0  0.00000000000E+00  0.00000000000E+00  0.74505805969E-08  0.10566000000E+00  0.10566000000E+00 0.  1.
     999900   -1    0    0    0    0 -0.00000000000E+00 -0.00000000000E+00 -0.74505805969E-08  0.93827000000E+00  0.93827000000E+00 0. -1.
     999902    2    1    2    0    0 -0.17640779126E-01  0.71441044355E-02 -0.12798061266E-01  0.10209947501E+01  0.10207371131E+01 0.  0.
     999903    2    3    3    0    0  0.86217088095E-01  0.59718921481E-02  0.93113445408E-01  0.12857944435E+00  0.19837086952E-01 0.  0.
         14    1    1    2    0    0  0.17640779126E-01 -0.71441044355E-02  0.12798061266E-01  0.22935249912E-01  0.00000000000E+00 0.  1.
     999901    1    3    3    0    0 -0.10385786722E+00  0.11722122875E-02 -0.10591150667E+00  0.89241530574E+00  0.88000000000E+00 0. -1.
        -11    1    4    4    0    0  0.45246660198E-01  0.12922121927E-01  0.51674651907E-01  0.69891145826E-01  0.51100000000E-03 0. -1.
         11    1    4    4    0    0  0.40970427897E-01 -0.69502297793E-02  0.41438793501E-01  0.58688298526E-01  0.51100000000E-03 0.  1.
</event>
<event>
 8    1  0.1103774E+005  0.1043930E+01  0.7957747E-01            NaN
         13   -1    0    0    0    0  0.00000000000E+00  0.00000000000E+00  0.74505805969E-08  0.10566000000E+00  0.10566000000E+00 0.  1.
     999900   -1    0    0    0    0 -0.00000000000E+00 -0.00000000000E+00 -0.74505805969E-08  0.93827000000E+00  0.93827000000E+00 0. -1.
     999902    2    1    2    0    0 -0.40239193581E-02  0.12763497212E-01 -0.20435802947E-01  0.10195021301E+01  0.10192094350E+01 0.  0.
     999903    2    3    3    0    0  0.11008133719E+00  0.49496839608E-01  0.41245537072E-01  0.12923591384E+00  0.20805988821E-01 0.  0.
         14    1    1    2    0    0  0.40239193581E-02 -0.12763497212E-01  0.20435802947E-01  0.24427869947E-01  0.00000000000E+00 0.  1.
     999901    1    3    3    0    0 -0.11410525654E+00 -0.36733342395E-01 -0.61681340019E-01  0.89026621621E+00  0.88000000000E+00 0. -1.
        -11    1    4    4    0    0  0.51301682463E-01  0.21052458917E-01  0.82332693477E-02  0.56063504129E-01  0.51100000000E-03 0.  1.
         11    1    4    4    0    0  0.58779654723E-01  0.28444380691E-01  0.33012267725E-01  0.73172409716E-01  0.51100000000E-03 0. -1.
</event>
<event>
 8    1  0.1103774E+005  0.1043930E+01  0.7957747E-01            NaN
         13   -1    0    0    0    0  0.00000000000E+00  0.00000000000E+00  0.74505805969E-08  0.10566000000E+00  0.10566000000E+00 0. -1.
     999900   -1    0    0    0    0 -0.00000000000E+00 -0.00000000000E+00 -0.74505805969E-08  0.93827000000E+00  0.93827000000E+00 0.  1.
     999902    2    1    2    0    0 -0.55530067706E-02 -0.21302423500E-01 -0.84086810099E-02  0.10203644521E+01  0.10200922900E+01 0.  0.
     999903    2    3    3    0    0 -0.10611686322E+00 -0.77056164212E-01 -0.90665988757E-02  0.13288374714E+00  0.19427967889E-01 0.  0.
         14    1    1    2    0    0  0.55530067706E-02  0.21302423500E-01  0.84086810099E-02  0.23565547893E-01  0.00000000000E+00 0. -1.
     999901    1    3    3    0    0  0.10056385645E+00  0.55753740712E-01  0.65791786578E-03  0.88748070496E+00  0.88000000000E+00 0. -1.
        -11    1    4    4    0    0 -0.67579599055E-01 -0.56622367433E-01 -0.12847200925E-01  0.89097735070E-01  0.51100000000E-03 0.  1.
         11    1    4    4    0    0 -0.38537264168E-01 -0.20433796779E-01  0.37806020490E-02  0.43786012072E-01  0.51100000000E-03 0. -1.
</event>
<event>
 8    1  0.1103774E+005  0.1043930E+01  0.7957747E-01            NaN
         13   -1    0    0    0    0  0.00000000000E+00  0.00000000000E+00  0.74505805969E-08  0.10566000000E+00  0.10566000000E+00 0. -1.
     999900   -1    0    0    0    0 -0.00000000000E+00 -0.00000000000E+00 -0.74505805969E-08  0.93827000000E+00  0.93827000000E+00 0. -1.
     999902    2    1    2    0    0  0.17230500267E-01  0.16411901368E-01  0.23938562994E-03  0.10201329844E+01  0.10198553858E+01 0.  0.
     999903    2    3    3    0    0  0.61943359249E-01 -0.10236588392E+00  0.46304203819E-01  0.12983563547E+00  0.19936373829E-01 0.  0.
         14    1    1    2    0    0 -0.17230500267E-01 -0.16411901368E-01 -0.23938562994E-03  0.23797015599E-01  0.00000000000E+00 0.  1.
     999901    1    3    3    0    0 -0.44712858982E-01  0.11877778529E+00 -0.46064818189E-01  0.89029734893E+00  0.88000000000E+00 0. -1.
        -11    1    4    4    0    0  0.18103175998E-01 -0.15881771203E-01  0.59550874489E-02  0.24812896350E-01  0.51100000000E-03 0. -1.
         11    1    4    4    0    0  0.43840183251E-01 -0.86484112716E-01  0.40349116370E-01  0.10502273912E+00  0.51100000000E-03 0.  1.
</event>
<event>
 8    1  0.1103774E+005  0.1043930E+01  0.7957747E-01            NaN
         13   -1    0    0    0    0  0.00000000000E+00  0.00000000000E+00  0.74505805969E-08  0.10566000000E+00  0.10566000000E+00 0. -1.
     999900   -1    0    0    0    0 -0.00000000000E+00 -0.00000000000E+00 -0.74505805969E-08  0.93827000000E+00  0.93827000000E+00 0.  1.
     999902    2    1    2    0    0 -0.24085850318E-01 -0.73669600725E-03 -0.21981597742E-02  0.10197328346E+01  0.10194457078E+01 0.  0.
     999903    2    3    3    0    0 -0.56458452465E-01 -0.11321546727E+00  0.29740228514E-01  0.13140883966E+00  0.19455155261E-01 0.  0.
         14    1    1    2    0    0  0.24085850318E-01  0.73669600725E-03  0.21981597742E-02  0.24197165390E-01  0.00000000000E+00 0.  1.
     999901    1    3    3    0    0  0.32372602147E-01  0.11247877126E+00 -0.31938388288E-01  0.88832399495E+00  0.88000000000E+00 0. -1.
        -11    1    4    4    0    0 -0.35119096035E-01 -0.81611976846E-01  0.13137818134E-01  0.89814971232E-01  0.51100000000E-03 0. -1.
         11    1    4    4    0    0 -0.21339356430E-01 -0.31603490420E-01  0.16602410380E-01  0.41593868430E-01  0.51100000000E-03 0.  1.
</event>
<event>
 8    1  0.1103774E+005  0.1043930E+01  0.7957747E-01            NaN
         13   -1    0    0    0    0  0.00000000000E+00  0.00000000000E+00  0.74505805969E-08  0.10566000000E+00  0.10566000000E+00 0.  1.
     999900   -1    0    0    0    0 -0.00000000000E+00 -0.00000000000E+00 -0.74505805969E-08  0.93827000000E+00  0.93827000000E+00 0. -1.
     999902    2    1    2    0    0 -0.14768605024E-01  0.13559820074E-01  0.12695503119E-01  0.10201990874E+01  0.10199230469E+01 0.  0.
     999903    2    3    3    0    0  0.41946021521E-01 -0.30897977589E-01  0.11839637918E+00  0.13094899890E+00  0.20390781508E-01 0.  0.
         14    1    1    2    0    0  0.14768605024E-01 -0.13559820074E-01 -0.12695503119E-01  0.23730912630E-01  0.00000000000E+00 0.  1.
     999901    1    3    3    0    0 -0.56714626545E-01  0.44457797663E-01 -0.10570087606E+00  0.88925008847E+00  0.88000000000E+00 0. -1.
        -11    1    4    4    0    0  0.18968531395E-01 -0.21885191932E-01  0.45042960090E-01  0.53552742076E-01  0.51100000000E-03 0. -1.
         11    1    4    4    0    0  0.22977490125E-01 -0.90127856570E-02  0.73353419090E-01  0.77396256828E-01  0.51100000000E-03 0.  1.
</event>
<event>
 8    1  0.1103774E+005  0.1043930E+01  0.7957747E-01            NaN
         13   -1    0    0    0    0  0.00000000000E+00  0.00000000000E+00  0.74505805969E-08  0.10566000000E+00  0.10566000000E+00 0.  1.
     999900   -1    0    0    0    0 -0.00000000000E+00 -0.00000000000E+00 -0.74505805969E-08  0.93827000000E+00  0.93827000000E+00 0.  1.
     999902    2    1    2    0    0  0.18814051168E-01  0.11661255916E-01  0.45190534355E-02  0.10213385137E+01  0.10210886270E+01 0.  0.
     999903    2    3    3    0    0 -0.71135336960E-01 -0.10554639771E+00 -0.17643127571E-02  0.12900000884E+00  0.20919159842E-01 0.  0.
         14    1    1    2    0    0 -0.18814051168E-01 -0.11661255916E-01 -0.45190534355E-02  0.22591486336E-01  0.00000000000E+00 0.  1.
     999901    1    3    3    0    0  0.89949388128E-01  0.11720765363E+00  0.62833661925E-02  0.89233850482E+00  0.88000000000E+00 0. -1.
        -11    1    4    4    0    0 -0.58415069217E-01 -0.91412178764E-01  0.55359604423E-02  0.10862511089E+00  0.51100000000E-03 0.  1.
         11    1    4    4    0    0 -0.12720267744E-01 -0.14134218946E-01 -0.73002731993E-02  0.20374897950E-01  0.51100000000E-03 0. -1.
</event>
<event>
 8    1  0.1103774E+005  0.1043930E+01  0.7957747E-01            NaN
         13   -1    0    0    0    0  0.00000000000E+00  0.00000000000E+00  0.74505805969E-08  0.10566000000E+00  0.10566000000E+00 0.  1.
     999900   -1    0    0    0    0 -0.00000000000E+00 -0.00000000000E+00 -0.74505805969E-08  0.93827000000E+00  0.93827000000E+00 0.  1.
     999902    2    1    2    0    0 -0.16949000609E-01 -0.19289568790E-02 -0.20033482832E-01  0.10176178368E+01  0.10172776081E+01 0.  0.
     999903    2    3    3    0    0  0.50127973057E-01 -0.11140322828E-01  0.11244351861E+00  0.12513011951E+00  0.19418585277E-01 0.  0.
         14    1    1    2    0    0  0.16949000609E-01  0.19289568790E-02  0.20033482832E-01  0.26312163170E-01  0.00000000000E+00 0.  1.
     999901    1    3    3    0    0 -0.67076973666E-01  0.92113659492E-02 -0.13247700145E+00  0.89248771732E+00  0.88000000000E+00 0. -1.
        -11    1    4    4    0    0  0.31663413304E-01 -0.14358480103E-01  0.58885961731E-01  0.68385344211E-01  0.51100000000E-03 0.  1.
         11    1    4    4    0    0  0.18464559753E-01  0.32181572751E-02  0.53557556883E-01  0.56744775296E-01  0.51100000000E-03 0. -1.
</event>
<event>
 8    1  0.1103774E+005  0.1043930E+01  0.7957747E-01            NaN
         13   -1    0    0    0    0  0.00000000000E+00  0.00000000000E+00  0.74505805969E-08  0.10566000000E+00  0.10566000000E+00 0.  1.
     999900   -1    0    0    0    0 -0.00000000000E+00 -0.00000000000E+00 -0.74505805969E-08  0.93827000000E+00  0.93827000000E+00 0. -1.
     999902    2    1    2    0    0  0.97716849442E-03  0.18965967590E-01 -0.11003399583E-01  0.10219814787E+01  0.10217457635E+01 0.  0.
     999903    2    3    3    0    0 -0.67879004701E-01  0.14643603626E-01  0.10937751841E+00  0.13111032032E+00  0.20111692002E-01 0.  0.
         14    1    1    2    0    0 -0.97716849442E-03 -0.18965967590E-01  0.11003399583E-01  0.21948521300E-01  0.00000000000E+00 0. -1.
     999901    1    3    3    0    0  0.68856173196E-01  0.43223639642E-02 -0.12038091799E+00  0.89087115838E+00  0.88000000000E+00 0. -1.
        -11    1    4    4    0    0 -0.92833818300E-02  0.42037443769E-02  0.31375554168E-01  0.32993016918E-01  0.51100000000E-03 0. -1.
         11    1    4    4    0    0 -0.58595622871E-01  0.10439859249E-01  0.78001964239E-01  0.98117303402E-01  0.51100000000E-03 0.  1.
</event>
<event>
 8    1  0.1103774E+005  0.1043930E+01  0.7957747E-01            NaN
         13   -1    0    0    0    0  0.00000000000E+00  0.00000000000E+00  0.74505805969E-08  0.10566000000E+00  0.10566000000E+00 0. -1.
     999900   -1    0    0    0    0 -0.00000000000E+00 -0.00000000000E+00 -0.74505805969E-08  0.93827000000E+00  0.93827000000E+00 0. -1.
     999902    2    1    2    0    0  0.16813227121E-01  0.32660028045E-02 -0.16606995387E-01  0.10200732677E+01  0.10197942576E+01 0.  0.
     999903    2    3    3    0    0  0.39861597650E-01 -0.36419310061E-01  0.11557646121E+00  0.12901848956E+00  0.19301273233E-01 0.  0.
         14    1    1    2    0    0 -0.16813227121E-01 -0.32660028045E-02  0.16606995387E-01  0.23856732306E-01  0.00000000000E+00 0.  1.
     999901    1    3    3    0    0 -0.23048370529E-01  0.39685312865E-01 -0.13218345660E+00  0.89105477814E+00  0.88000000000E+00 0. -1.
        -11    1    4    4    0    0  0.38206053416E-01 -0.34698284952E-01  0.93435682287E-01  0.10674343700E+00  0.51100000000E-03 0.  1.
         11    1    4    4    0    0  0.16555442342E-02 -0.17210251090E-02  0.22140778926E-01  0.22275052561E-01  0.51100000000E-03 0. -1.
</event>
<event>
 8    1  0.1103774E+005  0.1043930E+01  0.7957747E-01            NaN
         13   -1    0    0    0    0  0.00000000000E+00  0.00000000000E+00  0.74505805969E-08  0.10566000000E+00  0.10566000000E+00 0.  1.
     999900   -1    0    0    0    0 -0.00000000000E+00 -0.00000000000E+00 -0.74505805969E-08  0.93827000000E+00  0.93827000000E+00 0. -1.
     999902    2    1    2    0    0 -0.16418339754E-01  0.19536267618E-01 -0.40880192813E-02  0.10180854738E+01  0.10177573839E+01 0.  0.
     999903    2    3    3    0    0  0.21150431027E-01 -0.11880205868E+00 -0.29366196353E-01  0.12612813665E+00  0.22015074118E-01 0.  0.
         14    1    1    2    0    0  0.16418339754E-01 -0.19536267618E-01  0.40880192813E-02  0.25844526198E-01  0.00000000000E+00 0. -1.
     999901    1    3    3    0    0 -0.37568770781E-01  0.13833832630E+00  0.25278177072E-01  0.89195733715E+00  0.88000000000E+00 0.  1.
        -11    1    4    4    0    0  0.88305893900E-03 -0.67224517068E-01 -0.16920891394E-01  0.69328876918E-01  0.51100000000E-03 0. -1.
         11    1    4    4    0    0  0.20267372088E-01 -0.51577541609E-01 -0.12445304959E-01  0.56799259734E-01  0.51100000000E-03 0.  1.
</event>
<event>
 8    1  0.1103774E+005  0.1043930E+01  0.7957747E-01            NaN
         13   -1    0    0    0    0  0.00000000000E+00  0.00000000000E+00  0.74505805969E-08  0.10566000000E+00  0.10566000000E+00 0.  1.
     999900   -1    0    0    0    0 -0.00000000000E+00 -0.00000000000E+00 -0.74505805969E-08  0.93827000000E+00  0.93827000000E+00 0. -1.
     999902    2    1    2    0    0 -0.36704625701E-02  0.22165914843E-01 -0.76765955109E-02  0.10201869969E+01  0.10199106718E+01 0.  0.
     999903    2    3    3    0    0 -0.59931516273E-02  0.13103293032E-01  0.12556303341E+00  0.13010816631E+00  0.30894100172E-01 0.  0.
         14    1    1    2    0    0  0.36704625701E-02 -0.22165914843E-01  0.76765955109E-02  0.23743003073E-01  0.00000000000E+00 0. -1.
     999901    1    3    3    0    0  0.23226890572E-02  0.90626218103E-02 -0.13323962892E+00  0.89007883062E+00  0.88000000000E+00 0. -1.
        -11    1    4    4    0    0  0.10114710792E-01  0.88980517832E-02  0.27341069813E-01  0.30484060088E-01  0.51100000000E-03 0.  1.
         11    1    4    4    0    0 -0.16107862419E-01  0.42052412492E-02  0.98221963600E-01  0.99624106220E-01  0.51100000000E-03 0. -1.
</event>
<event>
 7    1  0.1103774E+005  0.1043930E+01  0.7957747E-01            NaN
         13   -1    0    0    0    0  0.00000000000E+00  0.00000000000E+00  0.74505805969E-08  0.10566000000E+00  0.10566000000E+00 0.  1.
     999900   -1    0    0    0    0 -0.00000000000E+00 -0.00000000000E+00 -0.74505805969E-08  0.93827000000E+00  0.93827000000E+00 0.  1.
     999903    2    1    2    0    0 -0.70428801974E-01 -0.37986112558E-01 -0.63164132659E-01  0.10384353143E+00  0.19763867807E-01 0.  0.
         14    1    1    2    0    0  0.16610591980E-01  0.24944072198E-01 -0.42536003961E-01  0.52032971631E-01  0.00000000000E+00 0. -1.
     999901    1    1    2    0    0  0.53818209994E-01  0.13042040361E-01  0.10570013662E+00  0.88805349694E+00  0.88000000000E+00 0.  1.
        -11    1    3    3    0    0 -0.39472815573E-01 -0.17351886743E-01 -0.45397485220E-01  0.62612969329E-01  0.51100000000E-03 0.  1.
         11    1    3    3    0    0 -0.30955986401E-01 -0.20634225816E-01 -0.17766647438E-01  0.41230562102E-01  0.51100000000E-03 0. -1.
</event>
<event>
 8    1  0.1103774E+005  0.1043930E+01  0.7957747E-01            NaN
         13   -1    0    0    0    0  0.00000000000E+00  0.00000000000E+00  0.74505805969E-08  0.10566000000E+00  0.10566000000E+00 0.  1.
     999900   -1    0    0    0    0 -0.00000000000E+00 -0.00000000000E+00 -0.74505805969E-08  0.93827000000E+00  0.93827000000E+00 0. -1.
     999902    2    1    2    0    0 -0.90787458337E-02  0.21337932808E-01  0.61805752120E-03  0.10207327373E+01  0.10204691117E+01 0.  0.
     999903    2    3    3    0    0  0.30218746269E-01 -0.11895946159E+00  0.31272784732E-01  0.12822651094E+00  0.19988119374E-01 0.  0.
         14    1    1    2    0    0  0.90787458337E-02 -0.21337932808E-01 -0.61805752120E-03  0.23197262716E-01  0.00000000000E+00 0.  1.
     999901    1    3    3    0    0 -0.39297492103E-01  0.14029739440E+00 -0.30654727211E-01  0.89250622634E+00  0.88000000000E+00 0. -1.
        -11    1    4    4    0    0  0.18256551663E-01 -0.92486537442E-01  0.16766885541E-01  0.95752027960E-01  0.51100000000E-03 0.  1.
         11    1    4    4    0    0  0.11962194606E-01 -0.26472924145E-01  0.14505899191E-01  0.32474482981E-01  0.51100000000E-03 0. -1.
</event>
<event>
 8    1  0.1103774E+005  0.1043930E+01  0.7957747E-01            NaN
         13   -1    0    0    0    0  0.00000000000E+00  0.00000000000E+00  0.74505805969E-08  0.10566000000E+00  0.10566000000E+00 0.  1.
     999900   -1    0    0    0    0 -0.00000000000E+00 -0.00000000000E+00 -0.74505805969E-08  0.93827000000E+00  0.93827000000E+00 0.  1.
     999902    2    1    2    0    0 -0.11955328552E-01  0.17614636045E-01  0.98399136079E-02  0.10204772990E+01  0.10202077674E+01 0.  0.
     999903    2    3    3    0    0  0.96776225565E-01  0.81051025569E-01  0.29253754239E-01  0.13130711081E+00  0.21233667426E-01 0.  0.
         14    1    1    2    0    0  0.11955328552E-01 -0.17614636045E-01 -0.98399136079E-02  0.23452700987E-01  0.00000000000E+00 0.  1.
     999901    1    3    3    0    0 -0.10873155412E+00 -0.63436389524E-01 -0.19413840631E-01  0.88917018820E+00  0.88000000000E+00 0. -1.
        -11    1    4    4    0    0  0.22604650867E-01  0.16703700318E-01 -0.22005398209E-02  0.28197293161E-01  0.51100000000E-03 0. -1.
         11    1    4    4    0    0  0.74171574699E-01  0.64347325251E-01  0.31454294060E-01  0.10310981765E+00  0.51100000000E-03 0.  1.
</event>
<event>
 8    1  0.1103774E+005  0.1043930E+01  0.7957747E-01            NaN
         13   -1    0    0    0    0  0.00000000000E+00  0.00000000000E+00  0.74505805969E-08  0.10566000000E+00  0.10566000000E+00 0. -1.
     999900   -1    0    0    0    0 -0.00000000000E+00 -0.00000000000E+00 -0.74505805969E-08  0.93827000000E+00  0.93827000000E+00 0.  1.
     999902    2    1    2    0    0  0.48883511479E-02  0.21096893794E-01 -0.61349826376E-02  0.10214219366E+01  0.10211739126E+01 0.  0.
     999903    2    3    3    0    0  0.26931691756E-01  0.97026540036E-01 -0.86525703444E-01  0.13422754528E+00  0.19770459389E-01 0.  0.
         14    1    1    2    0    0 -0.48883511479E-02 -0.21096893794E-01  0.61349826376E-02  0.22508063370E-01  0.00000000000E+00 0. -1.
     999901    1    3    3    0    0 -0.22043340608E-01 -0.75929646242E-01  0.80390720806E-01  0.88719439135E+00  0.88000000000E+00 0. -1.
        -11    1    4    4    0    0  0.12786498187E-01  0.23364606104E-01 -0.14950060763E-01  0.30547746105E-01  0.51100000000E-03 0.  1.
         11    1    4    4    0    0  0.14145193569E-01  0.73661933932E-01 -0.71575642681E-01  0.10367979918E+00  0.51100000000E-03 0. -1.
</event>
<event>
 8    1  0.1103774E+005  0.1043930E+01  0.7957747E-01            NaN
         13   -1    0    0    0    0  0.00000000000E+00  0.00000000000E+00  0.74505805969E-08  0.10566000000E+00  0.10566000000E+00 0.  1.
     999900   -1    0    0    0    0 -0.00000000000E+00 -0.00000000000E+00 -0.74505805969E-08  0.93827000000E+00  0.93827000000E+00 0. -1.
     999902    2    1    2    0    0  0.31935697271E-02 -0.12371867727E-01 -0.20055341785E-01  0.10201502033E+01  0.10198730110E+01 0.  0.
     999903    2    3    3    0    0 -0.12761101044E+00  0.11442509508E-01  0.61345774805E-02  0.12977787967E+00  0.19727240057E-01 0.  0.
         14    1    1    2    0    0 -0.31935697271E-02  0.12371867727E-01  0.20055341785E-01  0.23779796735E-01  0.00000000000E+00 0.  1.
     999901    1    3    3    0    0  0.13080458017E+00 -0.23814377235E-01 -0.26189919266E-01  0.89037232360E+00  0.88000000000E+00 0. -1.
        -11    1    4    4    0    0 -0.60452772271E-01 -0.76433335639E-03 -0.47878330132E-02  0.60649042422E-01  0.51100000000E-03 0.  1.
         11    1    4    4    0    0 -0.67158238171E-01  0.12206842864E-01  0.10922410494E-01  0.69128837245E-01  0.51100000000E-03 0. -1.
</event>
<event>
 8    1  0.1103774E+005  0.1043930E+01  0.7957747E-01            NaN
         13   -1    0    0    0    0  0.00000000000E+00  0.00000000000E+00  0.74505805969E-08  0.10566000000E+00  0.10566000000E+00 0.  1.
     999900   -1    0    0    0    0 -0.00000000000E+00 -0.00000000000E+00 -0.74505805969E-08  0.93827000000E+00  0.93827000000E+00 0.  1.
     999902    2    1    2    0    0 -0.19243633280E-02 -0.14803360022E-01 -0.17528832253E-01  0.10209060429E+01  0.10206463862E+01 0.  0.
     999903    2    3    3    0    0 -0.28456523873E-01 -0.80705116118E-02 -0.12851882411E+00  0.13351206887E+00  0.20820121830E-01 0.  0.
         14    1    1    2    0    0  0.19243633280E-02  0.14803360022E-01  0.17528832253E-01  0.23023957139E-01  0.00000000000E+00 0.  1.
     999901    1    3    3    0    0  0.26532160545E-01 -0.67328484106E-02  0.11098999186E+00  0.88739397400E+00  0.88000000000E+00 0. -1.
        -11    1    4    4    0    0 -0.42968533311E-02 -0.92755342298E-02 -0.59530800109E-01  0.60404269438E-01  0.51100000000E-03 0. -1.
         11    1    4    4    0    0 -0.24159670542E-01  0.12050226181E-02 -0.68988024003E-01  0.73107799427E-01  0.51100000000E-03 0.  1.
</event>
<event>
 8    1  0.1103774E+005  0.1043930E+01  0.7957747E-01            NaN
         13   -1    0    0    0    0  0.00000000000E+00  0.00000000000E+00  0.74505805969E-08  0.10566000000E+00  0.10566000000E+00 0.  1.
     999900   -1    0    0    0    0 -0.00000000000E+00 -0.00000000000E+00 -0.74505805969E-08  0.93827000000E+00  0.93827000000E+00 0.  1.
     999902    2    1    2    0    0  0.79527171349E-02  0.13904780827E-01 -0.17192131701E-01  0.10204319568E+01  0.10201613698E+01 0.  0.
     999903    2    3    3    0    0 -0.11275233908E+00 -0.14429764374E-01 -0.62482798496E-01  0.13058713804E+00  0.15086167401E-01 0.  0.
         14    1    1    2    0    0 -0.79527171349E-02 -0.13904780827E-01  0.17192131701E-01  0.23498043154E-01  0.00000000000E+00 0.  1.
     999901    1    3    3    0    0  0.12070505622E+00  0.28334545201E-01  0.45290666796E-01  0.88984481880E+00  0.88000000000E+00 0.  1.
        -11    1    4    4    0    0 -0.59431783319E-01 -0.19136572273E-02 -0.26859713911E-01  0.65249554058E-01  0.51100000000E-03 0. -1.
         11    1    4    4    0    0 -0.53320555761E-01 -0.12516107147E-01 -0.35623084586E-01  0.65337583987E-01  0.51100000000E-03 0.  1.
</event>
<event>
 8    1  0.1103774E+005  0.1043930E+01  0.7957747E-01            NaN
         13   -1    0    0    0    0  0.00000000000E+00  0.00000000000E+00  0.74505805969E-08  0.10566000000E+00  0.10566000000E+00 0. -1.
     999900   -1    0    0    0    0 -0.00000000000E+00 -0.00000000000E+00 -0.74505805969E-08  0.93827000000E+00  0.93827000000E+00 0. -1.
     999902    2    1    2    0    0  0.31340809511E-02  0.19914717170E-01  0.13734578064E-01  0.10195362086E+01  0.10192443395E+01 0.  0.
     999903    2    3    3    0    0  0.88938569490E-01  0.65561767447E-01  0.69965209528E-01  0.13240152472E+00  0.20654750335E-01 0.  0.
         14    1    1    2    0    0 -0.31340809511E-02 -0.19914717170E-01 -0.13734578064E-01  0.24393791382E-01  0.00000000000E+00 0.  1.
     999901    1    3    3    0    0 -0.85804488539E-01 -0.45647050276E-01 -0.56230631463E-01  0.88713468389E+00  0.88000000000E+00 0. -1.
        -11    1    4    4    0    0  0.76676450494E-02  0.12781311574E-01  0.14211068800E-01  0.20600250085E-01  0.51100000000E-03 0. -1.
         11    1    4    4    0    0  0.81270924440E-01  0.52780455873E-01  0.55754140728E-01  0.11180127464E+00  0.51100000000E-03 0.  1.
</event>
<event>
 8    1  0.1103774E+005  0.1043930E+01  0.7957747E-01            NaN
         13   -1    0    0    0    0  0.00000000000E+00  0.00000000000E+00  0.74505805969E-08  0.10566000000E+00  0.10566000000E+00 0.  1.
     999900   -1    0    0    0    0 -0.00000000000E+00 -0.00000000000E+00 -0.74505805969E-08  0.93827000000E+00  0.93827000000E+00 0.  1.
     999902    2    1    2    0    0  0.17960721964E-01 -0.59826440520E-02 -0.14972081067E-01  0.10197940771E+01  0.10195084192E+01 0.  0.
     999903    2    3    3    0    0 -0.35618700429E-02  0.31683263679E-01  0.12245610124E+00  0.12807189621E+00  0.19758485571E-01 0.  0.
         14    1    1    2    0    0 -0.17960721964E-01  0.59826440520E-02  0.14972081067E-01  0.24135922912E-01  0.00000000000E+00 0.  1.
     999901    1    3    3    0    0  0.21522592007E-01 -0.37665907731E-01 -0.13742818231E+00  0.89172218088E+00  0.88000000000E+00 0.  1.
        -11    1    4    4    0    0  0.23894549986E-02  0.17131996873E-01  0.33190920697E-01  0.37431446002E-01  0.51100000000E-03 0. -1.
         11    1    4    4    0    0 -0.59513250415E-02  0.14551266807E-01  0.89265180547E-01  0.90640450211E-01  0.51100000000E-03 0.  1.
</event>
<event>
 8    1  0.1103774E+005  0.1043930E+01  0.7957747E-01            NaN
         13   -1    0    0    0    0  0.00000000000E+00  0.00000000000E+00  0.74505805969E-08  0.10566000000E+00  0.10566000000E+00 0. -1.
     999900   -1    0    0    0    0 -0.00000000000E+00 -0.00000000000E+00 -0.74505805969E-08  0.93827000000E+00  0.93827000000E+00 0. -1.
     999902    2    1    2    0    0  0.55145299312E-02  0.15513176665E-01 -0.15497550289E-01  0.10213193221E+01  0.10210690060E+01 0.  0.
     999903    2    3    3    0    0 -0.33817472605E-01 -0.12307602301E+00  0.66350387564E-02  0.12933063147E+00  0.19775227030E-01 0.  0.
         14    1    1    2    0    0 -0.55145299312E-02 -0.15513176665E-01  0.15497550289E-01  0.22610677910E-01  0.00000000000E+00 0. -1.
     999901    1    3    3    0    0  0.39332002536E-01  0.13858919968E+00 -0.22132589045E-01  0.89198869062E+00  0.88000000000E+00 0.  1.
        -11    1    4    4    0    0  0.53205346559E-03 -0.22474763013E-01  0.48840780323E-02  0.23011158003E-01  0.51100000000E-03 0. -1.
         11    1    4    4    0    0 -0.34349526070E-01 -0.10060126000E+00  0.17509607241E-02  0.10631947347E+00  0.51100000000E-03 0.  1.
</event>
<event>
 8    1  0.1103774E+005  0.1043930E+01  0.7957747E-01            NaN
         13   -1    0    0    0    0  0.00000000000E+00  0.00000000000E+00  0.74505805969E-08  0.10566000000E+00  0.10566000000E+00 0.  1.
     999900   -1    0    0    0    0 -0.00000000000E+00 -0.00000000000E+00 -0.74505805969E-08  0.93827000000E+00  0.93827000000E+00 0. -1.
     999902    2    1    2    0    0 -0.16853212900E-01  0.12819846535E-01 -0.45318978096E-02  0.10222755005E+01  0.10220461250E+01 0.  0.
     999903    2    3    3    0    0 -0.10718429008E+00  0.68687776491E-01  0.38981928249E-01  0.13482162444E+00  0.21231980787E-01 0.  0.
         14    1    1    2    0    0  0.16853212900E-01 -0.12819846535E-01  0.45318978096E-02  0.21654499486E-01  0.00000000000E+00 0. -1.
     999901    1    3    3    0    0  0.90331077176E-01 -0.55867929955E-01 -0.43513826059E-01  0.88745387607E+00  0.88000000000E+00 0.  1.
        -11    1    4    4    0    0 -0.64558336339E-01  0.51136733467E-01  0.31189732319E-01  0.88067047320E-01  0.51100000000E-03 0. -1.
         11    1    4    4    0    0 -0.42625953737E-01  0.17551043024E-01  0.77921959301E-02  0.46754577119E-01  0.51100000000E-03 0.  1.
</event>
<event>
 8    1  0.1103774E+005  0.1043930E+01  0.7957747E-01            NaN
         13   -1    0    0    0    0  0.00000000000E+00  0.00000000000E+00  0.74505805969E-08  0.10566000000E+00  0.10566000000E+00 0. -1.
     999900   -1    0    0    0    0 -0.00000000000E+00 -0.00000000000E+00 -0.74505805969E-08  0.93827000000E+00  0.93827000000E+00 0.  1.
     999902    2    1    2    0    0 -0.16033525251E-02 -0.22297063941E-01 -0.12189759585E-01  0.10184678705E+01  0.10181495387E+01 0.  0.
     999903    2    3    3    0    0 -0.91019844550E-01 -0.66477773243E-01  0.61730407780E-01  0.12975451106E+00  0.17935536157E-01 0.  0.
         14    1    1    2    0    0  0.16033525251E-02  0.22297063941E-01  0.12189759585E-01  0.25462129495E-01  0.00000000000E+00 0. -1.
     999901    1    3    3    0    0  0.89416492025E-01  0.44180709302E-01 -0.73920167364E-01  0.88871335945E+00  0.88000000000E+00 0. -1.
        -11    1    4    4    0    0 -0.18916522003E-01 -0.55420156024E-02  0.11186619551E-01  0.22670472417E-01  0.51100000000E-03 0.  1.
         11    1    4    4    0    0 -0.72103322547E-01 -0.60935757641E-01  0.50543788229E-01  0.10708403864E+00  0.51100000000E-03 0. -1.
</event>
<event>
 8    1  0.1103774E+005  0.1043930E+01  0.7957747E-01            NaN
         13   -1    0    0    0    0  0.00000000000E+00  0.00000000000E+00  0.74505805969E-08  0.10566000000E+00  0.10566000000E+00 0. -1.
     999900   -1    0    0    0    0 -0.00000000000E+00 -0.00000000000E+00 -0.74505805969E-08  0.93827000000E+00  0.93827000000E+00 0.  1.
     999902    2    1    2    0    0 -0.21362077548E-01  0.73189390439E-02 -0.48115157510E-02  0.10208419964E+01  0.10205808766E+01 0.  0.
     999903    2    3    3    0    0 -0.10055015882E+00  0.67189627518E-01 -0.54275370035E-01  0.13387980757E+00  0.18793791495E-01 0.  0.
         14    1    1    2    0    0  0.21362077548E-01 -0.73189390439E-02  0.48115157510E-02  0.23088003588E-01  0.00000000000E+00 0. -1.
     999901    1    3    3    0    0  0.79188081268E-01 -0.59870688475E-01  0.49463854284E-01  0.88696218884E+00  0.88000000000E+00 0. -1.
        -11    1    4    4    0    0 -0.39350021875E-01  0.37029632770E-01 -0.21066830504E-01  0.57997330914E-01  0.51100000000E-03 0. -1.
         11    1    4    4    0    0 -0.61200136941E-01  0.30159994749E-01 -0.33208539530E-01  0.75882476657E-01  0.51100000000E-03 0.  1.
</event>
<event>
 8    1  0.1103774E+005  0.1043930E+01  0.7957747E-01            NaN
         13   -1    0    0    0    0  0.00000000000E+00  0.00000000000E+00  0.74505805969E-08  0.10566000000E+00  0.10566000000E+00 0. -1.
     999900   -1    0    0    0    0 -0.00000000000E+00 -0.00000000000E+00 -0.74505805969E-08  0.93827000000E+00  0.93827000000E+00 0.  1.
     999902    2    1    2    0    0 -0.90717590452E-02  0.41956364342E-02  0.33040518832E-02  0.10334030377E+01  0.10333494188E+01 0.  0.
     999903    2    3    3    0    0  0.74535696199E-01 -0.11474933127E+00  0.28985512388E-01  0.14110395701E+00  0.18632974041E-01 0.  0.
         14    1    1    2    0    0  0.90717590452E-02 -0.41956364342E-02 -0.33040518832E-02  0.10526962340E-01  0.00000000000E+00 0.  1.
     999901    1    3    3    0    0 -0.83607455244E-01  0.11894496770E+00 -0.25681460505E-01  0.89229908065E+00  0.88000000000E+00 0.  1.
        -11    1    4    4    0    0  0.10750534732E-01 -0.30874698093E-01  0.57585082143E-02  0.33200037910E-01  0.51100000000E-03 0.  1.
         11    1    4    4    0    0  0.63785161467E-01 -0.83874633174E-01  0.23227004173E-01  0.10790391910E+00  0.51100000000E-03 0. -1.
</event>
<event>
 8    1  0.1103774E+005  0.1043930E+01  0.7957747E-01            NaN
         13   -1    0    0    0    0  0.00000000000E+00  0.00000000000E+00  0.74505805969E-08  0.10566000000E+00  0.10566000000E+00 0. -1.
     999900   -1    0    0    0    0 -0.00000000000E+00 -0.00000000000E+00 -0.74505805969E-08  0.93827000000E+00  0.93827000000E+00 0.  1.
     999902    2    1    2    0    0  0.14887057769E-01  0.13147843040E-01 -0.31563627530E-02  0.10238189858E+01  0.10236214451E+01 0.  0.
     999903    2    3    3    0    0 -0.23669241658E-01 -0.11629353234E+00 -0.52010974233E-01  0.13217531767E+00  0.26091272398E-01 0.  0.
         14    1    1    2    0    0 -0.14887057769E-01 -0.13147843040E-01  0.31563627530E-02  0.20111014183E-01  0.00000000000E+00 0. -1.
     999901    1    3    3    0    0  0.38556299427E-01  0.12944137538E+00  0.48854611480E-01  0.89164366815E+00  0.88000000000E+00 0. -1.
        -11    1    4    4    0    0 -0.18600853161E-01 -0.34086362517E-01 -0.21135527000E-01  0.44213611824E-01  0.51100000000E-03 0.  1.
         11    1    4    4    0    0 -0.50683884976E-02 -0.82207169824E-01 -0.30875447233E-01  0.87961705845E-01  0.51100000000E-03 0. -1.
</event>
<event>
 8    1  0.1103774E+005  0.1043930E+01  0.7957747E-01            NaN
         13   -1    0    0    0    0  0.00000000000E+00  0.00000000000E+00  0.74505805969E-08  0.10566000000E+00  0.10566000000E+00 0. -1.
     999900   -1    0    0    0    0 -0.00000000000E+00 -0.00000000000E+00 -0.74505805969E-08  0.93827000000E+00  0.93827000000E+00 0. -1.
     999902    2    1    2    0    0  0.50068733431E-02 -0.65543940592E-02 -0.23359370356E-01  0.10191572520E+01  0.10188561308E+01 0.  0.
     999903    2    3    3    0    0  0.66684421457E-01 -0.68544462162E-01 -0.90206238246E-01  0.13230022164E+00  0.14867006023E-01 0.  0.
         14    1    1    2    0    0 -0.50068733431E-02  0.65543940592E-02  0.23359370356E-01  0.24772748043E-01  0.00000000000E+00 0. -1.
     999901    1    3    3    0    0 -0.61677548114E-01  0.61990068102E-01  0.66846867890E-01  0.88685703032E+00  0.88000000000E+00 0. -1.
        -11    1    4    4    0    0  0.98872460710E-03 -0.57093033741E-02 -0.44227955107E-02  0.73072541010E-02  0.51100000000E-03 0. -1.
         11    1    4    4    0    0  0.65695696850E-01 -0.62835158788E-01 -0.85783442736E-01  0.12499296753E+00  0.51100000000E-03 0.  1.
</event>
<event>
 8    1  0.1103774E+005  0.1043930E+01  0.7957747E-01            NaN
         13   -1    0    0    0    0  0.00000000000E+00  0.00000000000E+00  0.74505805969E-08  0.10566000000E+00  0.10566000000E+00 0. -1.
     999900   -1    0    0    0    0 -0.00000000000E+00 -0.00000000000E+00 -0.74505805969E-08  0.93827000000E+00  0.93827000000E+00 0.  1.
     999902    2    1    2    0    0  0.41689000676E-02 -0.40623170410E-02 -0.23429090021E-01  0.10197886577E+01  0.10195028700E+01 0.  0.
     999903    2    3    3    0    0  0.11981222579E+00 -0.98112717996E-02 -0.50171792730E-01  0.13180126963E+00  0.20078231706E-01 0.  0.
         14    1    1    2    0    0 -0.41689000676E-02  0.40623170410E-02  0.23429090021E-01  0.24141342273E-01  0.00000000000E+00 0. -1.
     999901    1    3    3    0    0 -0.11564332572E+00  0.57489547586E-02  0.26742702709E-01  0.88798738809E+00  0.88000000000E+00 0. -1.
        -11    1    4    4    0    0  0.79330984685E-01 -0.28453950355E-02 -0.42385384379E-01  0.89990462461E-01  0.51100000000E-03 0. -1.
         11    1    4    4    0    0  0.40481241104E-01 -0.69658767642E-02 -0.77864083513E-02  0.41810807172E-01  0.51100000000E-03 0.  1.
</event>
<event>
 8    1  0.1103774E+005  0.1043930E+01  0.7957747E-01            NaN
         13   -1    0    0    0    0  0.00000000000E+00  0.00000000000E+00  0.74505805969E-08  0.10566000000E+00  0.10566000000E+00 0. -1.
     999900   -1    0    0    0    0 -0.00000000000E+00 -0.00000000000E+00 -0.74505805969E-08  0.93827000000E+00  0.93827000000E+00 0. -1.
     999902    2    1    2    0    0  0.16552474311E-01 -0.15505639427E-01  0.66006101420E-02  0.10203084566E+01  0.10200349843E+01 0.  0.
     999903    2    3    3    0    0  0.44571333637E-01 -0.97605624751E-01  0.76518780648E-01  0.13328308228E+00  0.19894583792E-01 0.  0.
         14    1    1    2    0    0 -0.16552474311E-01  0.15505639427E-01 -0.66006101420E-02  0.23621543432E-01  0.00000000000E+00 0. -1.
     999901    1    3    3    0    0 -0.28018859327E-01  0.82099985325E-01 -0.69918170506E-01  0.88702537429E+00  0.88000000000E+00 0. -1.
        -11    1    4    4    0    0  0.13155098953E-01 -0.26171654428E-01  0.32220111328E-01  0.43547776280E-01  0.51100000000E-03 0.  1.
         11    1    4    4    0    0  0.31416234685E-01 -0.71433970324E-01  0.44298669320E-01  0.89735305998E-01  0.51100000000E-03 0. -1.
</event>
<event>
 8    1  0.1103774E+005  0.1043930E+01  0.7957747E-01            NaN
         13   -1    0    0    0    0  0.00000000000E+00  0.00000000000E+00  0.74505805969E-08  0.10566000000E+00  0.10566000000E+00 0.  1.
     999900   -1    0    0    0    0 -0.00000000000E+00 -0.00000000000E+00 -0.74505805969E-08  0.93827000000E+00  0.93827000000E+00 0.  1.
     999902    2    1    2    0    0 -0.61967238743E-02  0.11964504885E-01 -0.19297238605E-01  0.10203942361E+01  0.10201227695E+01 0.  0.
     999903    2    3    3    0    0 -0.35669543798E-01 -0.77255234819E-01  0.93747722475E-01  0.12820144737E+00  0.20156586415E-01 0.  0.
         14    1    1    2    0    0  0.61967238743E-02 -0.11964504885E-01  0.19297238605E-01  0.23535763886E-01  0.00000000000E+00 0.  1.
     999901    1    3    3    0    0  0.29472819924E-01  0.89219739704E-01 -0.11304496108E+00  0.89219278875E+00  0.88000000000E+00 0.  1.
        -11    1    4    4    0    0 -0.20838081243E-01 -0.31063666784E-01  0.52830246279E-01  0.64733863370E-01  0.51100000000E-03 0. -1.
         11    1    4    4    0    0 -0.14831462556E-01 -0.46191568035E-01  0.40917476196E-01  0.63467583996E-01  0.51100000000E-03 0.  1.
</event>
<event>
 8    1  0.1103774E+005  0.1043930E+01  0.7957747E-01            NaN
         13   -1    0    0    0    0  0.00000000000E+00  0.00000000000E+00  0.74505805969E-08  0.10566000000E+00  0.10566000000E+00 0.  1.
     999900   -1    0    0    0    0 -0.00000000000E+00 -0.00000000000E+00 -0.74505805969E-08  0.93827000000E+00  0.93827000000E+00 0.  1.
     999902    2    1    2    0    0  0.10721925487E-01  0.13586083784E-02  0.22295075185E-01  0.10191534813E+01  0.10188522673E+01 0.  0.
     999903    2    3    3    0    0 -0.82726391998E-01  0.15012714912E-01 -0.90506123745E-01  0.12694098800E+00  0.29216749599E-01 0.  0.
         14    1    1    2    0    0 -0.10721925487E-01 -0.13586083784E-02 -0.22295075185E-01  0.24776518731E-01  0.00000000000E+00 0. -1.
     999901    1    3    3    0    0  0.93448317485E-01 -0.13654106533E-01  0.11280119893E+00  0.89221249327E+00  0.88000000000E+00 0. -1.
        -11    1    4    4    0    0 -0.19103708852E-01  0.11135143926E-02 -0.40620478630E-01  0.44905189136E-01  0.51100000000E-03 0. -1.
         11    1    4    4    0    0 -0.63622683146E-01  0.13899200519E-01 -0.49885645115E-01  0.82035798864E-01  0.51100000000E-03 0.  1.
</event>
<event>
 8    1  0.1103774E+005  0.1043930E+01  0.7957747E-01            NaN
         13   -1    0    0    0    0  0.00000000000E+00  0.00000000000E+00  0.74505805969E-08  0.10566000000E+00  0.10566000000E+00 0.  1.
     999900   -1    0    0    0    0 -0.00000000000E+00 -0.00000000000E+00 -0.74505805969E-08  0.93827000000E+00  0.93827000000E+00 0. -1.
     999902    2    1    2    0    0 -0.16234538820E-01  0.14464405514E-01 -0.93389587315E-02  0.10202657775E+01  0.10199913045E+01 0.  0.
     999903    2    3    3    0    0 -0.13810138417E-01 -0.74906350204E-01  0.10172479577E+00  0.12879050173E+00  0.20913585010E-01 0.  0.
         14    1    1    2    0    0  0.16234538820E-01 -0.14464405514E-01  0.93389587315E-02  0.23664222525E-01  0.00000000000E+00 0. -1.
     999901    1    3    3    0    0 -0.24244004029E-02  0.89370755718E-01 -0.11106375450E+00  0.89147527574E+00  0.88000000000E+00 0. -1.
        -11    1    4    4    0    0 -0.17691390407E-01 -0.49475506194E-01  0.76085262191E-01  0.92466422291E-01  0.51100000000E-03 0.  1.
         11    1    4    4    0    0  0.38812519905E-02 -0.25430844010E-01  0.25639533580E-01  0.36324079441E-01  0.51100000000E-03 0. -1.
</event>
<event>
 8    1  0.1103774E+005  0.1043930E+01  0.7957747E-01            NaN
         13   -1    0    0    0    0  0.00000000000E+00  0.00000000000E+00  0.74505805969E-08  0.10566000000E+00  0.10566000000E+00 0.  1.
     999900   -1    0    0    0    0 -0.00000000000E+00 -0.00000000000E+00 -0.74505805969E-08  0.93827000000E+00  0.93827000000E+00 0.  1.
     999902    2    1    2    0    0 -0.16570257202E-01 -0.14995779835E-01  0.96830631386E-02  0.10195741270E+01  0.10192831755E+01 0.  0.
     999903    2    3    3    0    0  0.53727311407E-01 -0.57418169410E-02  0.11689272816E+00  0.13023656667E+00  0.19443789480E-01 0.  0.
         14    1    1    2    0    0  0.16570257202E-01  0.14995779835E-01 -0.96830631386E-02  0.24355872974E-01  0.00000000000E+00 0. -1.
     999901    1    3    3    0    0 -0.70297568610E-01 -0.92539628937E-02 -0.10720966502E+00  0.88933756035E+00  0.88000000000E+00 0.  1.
        -11    1    4    4    0    0  0.16839974727E-01 -0.56165670265E-02  0.58770245151E-01  0.61394897264E-01  0.51100000000E-03 0. -1.
         11    1    4    4    0    0  0.36887336680E-01 -0.12524991444E-03  0.58122483008E-01  0.68841669408E-01  0.51100000000E-03 0.  1.
</event>
<event>
 8    1  0.1103774E+005  0.1043930E+01  0.7957747E-01            NaN
         13   -1    0    0    0    0  0.00000000000E+00  0.00000000000E+00  0.74505805969E-08  0.10566000000E+00  0.10566000000E+00 0.  1.
     999900   -1    0    0    0    0 -0.00000000000E+00 -0.00000000000E+00 -0.74505805969E-08  0.93827000000E+00  0.93827000000E+00 0.  1.
     999902    2    1    2    0    0 -0.87944981106E-02 -0.56193085455E-02  0.13280497257E-01  0.10270394277E+01  0.10269005281E+01 0.  0.
     999903    2    3    3    0    0 -0.87127070710E-01  0.10153426302E+00 -0.18857637180E-01  0.13650546455E+00  0.19437035581E-01 0.  0.
         14    1    1    2    0    0  0.87944981106E-02  0.56193085455E-02 -0.13280497257E-01  0.16890572309E-01  0.00000000000E+00 0. -1.
     999901    1    3    3    0    0  0.78332572600E-01 -0.10715357157E+00  0.32138134437E-01  0.89053396315E+00  0.88000000000E+00 0.  1.
        -11    1    4    4    0    0 -0.23616359740E-01  0.36400325123E-01 -0.13195521835E-01  0.45355253653E-01  0.51100000000E-03 0. -1.
         11    1    4    4    0    0 -0.63510710971E-01  0.65133937902E-01 -0.56621153454E-02  0.91150210892E-01  0.51100000000E-03 0.  1.
</event>
<event>
 8    1  0.1103774E+005  0.1043930E+01  0.7957747E-01            NaN
         13   -1    0    0    0    0  0.00000000000E+00  0.00000000000E+00  0.74505805969E-08  0.10566000000E+00  0.10566000000E+00 0. -1.
     999900   -1    0    0    0    0 -0.00000000000E+00 -0.00000000000E+00 -0.74505805969E-08  0.93827000000E+00  0.93827000000E+00 0.  1.
     999902    2    1    2    0    0  0.21370359648E-01 -0.37809631242E-02 -0.93477551274E-02  0.10203001782E+01  0.10200265120E+01 0.  0.
     999903    2    3    3    0    0  0.11289846418E+00  0.66941095992E-01  0.14046684919E-02  0.13266589640E+00  0.19263785405E-01 0.  0.
         14    1    1    2    0    0 -0.21370359648E-01  0.37809631242E-02  0.93477551274E-02  0.23629821827E-01  0.00000000000E+00 0. -1.
     999901    1    3    3    0    0 -0.91528104528E-01 -0.70722059116E-01 -0.10752423619E-01  0.88763428177E+00  0.88000000000E+00 0. -1.
        -11    1    4    4    0    0  0.81680776899E-01  0.57582407126E-01  0.35431772290E-02  0.10000149074E+00  0.51100000000E-03 0. -1.
         11    1    4    4    0    0  0.31217687277E-01  0.93586888666E-02 -0.21385087370E-02  0.32664405656E-01  0.51100000000E-03 0.  1.
</event>
<event>
 8    1  0.1103774E+005  0.1043930E+01  0.7957747E-01            NaN
         13   -1    0    0    0    0  0.00000000000E+00  0.00000000000E+00  0.74505805969E-08  0.10566000000E+00  0.10566000000E+00 0.  1.
     999900   -1    0    0    0    0 -0.00000000000E+00 -0.00000000000E+00 -0.74505805969E-08  0.93827000000E+00  0.93827000000E+00 0. -1.
     999902    2    1    2    0    0 -0.18259463391E-01 -0.42810750154E-02  0.13284766172E-01  0.10209469493E+01  0.10206882250E+01 0.  0.
     999903    2    3    3    0    0  0.71031782338E-01 -0.10228885183E+00 -0.32360355765E-01  0.12984542421E+00  0.17438986553E-01 0.  0.
         14    1    1    2    0    0  0.18259463391E-01  0.42810750154E-02 -0.13284766172E-01  0.22983050686E-01  0.00000000000E+00 0. -1.
     999901    1    3    3    0    0 -0.89291245729E-01  0.98007776819E-01  0.45645121937E-01  0.89110152510E+00  0.88000000000E+00 0.  1.
        -11    1    4    4    0    0  0.64654588732E-01 -0.99454961463E-01 -0.31870206654E-01  0.12283108889E+00  0.51100000000E-03 0. -1.
         11    1    4    4    0    0  0.63771936056E-02 -0.28338903710E-02 -0.49014911136E-03  0.70143353263E-02  0.51100000000E-03 0.  1.
</event>
<event>
 8    1  0.1103774E+005  0.1043930E+01  0.7957747E-01            NaN
         13   -1    0    0    0    0  0.00000000000E+00  0.00000000000E+00  0.74505805969E-08  0.10566000000E+00  0.10566000000E+00 0.  1.
     999900   -1    0    0    0    0 -0.00000000000E+00 -0.00000000000E+00 -0.74505805969E-08  0.93827000000E+00  0.93827000000E+00 0.  1.
     999902    2    1    2    0    0  0.14245954833E-01  0.18793528105E-01 -0.48361650264E-02  0.10198565204E+01  0.10195723563E+01 0.  0.
     999903    2    3    3    0    0 -0.96640797669E-01 -0.65313533750E-01  0.47049222396E-01  0.12740934372E+00  0.20352151604E-01 0.  0.
         14    1    1    2    0    0 -0.14245954833E-01 -0.18793528105E-01  0.48361650264E-02  0.24073479597E-01  0.00000000000E+00 0. -1.
     999901    1    3    3    0    0  0.11088675250E+00  0.84107061856E-01 -0.51885387423E-01  0.89244717668E+00  0.88000000000E+00 0. -1.
        -11    1    4    4    0    0 -0.81268429229E-01 -0.56982635975E-01  0.31864531883E-01  0.10424580522E+00  0.51100000000E-03 0.  1.
         11    1    4    4    0    0 -0.15372368439E-01 -0.83308977753E-02  0.15184690514E-01  0.23163538507E-01  0.51100000000E-03 0. -1.
</event>
<event>
 8    1  0.1103774E+005  0.1043930E+01  0.7957747E-01            NaN
         13   -1    0    0    0    0  0.00000000000E+00  0.00000000000E+00  0.74505805969E-08  0.10566000000E+00  0.10566000000E+00 0.  1.
     999900   -1    0    0    0    0 -0.00000000000E+00 -0.00000000000E+00 -0.74505805969E-08  0.93827000000E+00  0.93827000000E+00 0.  1.
     999902    2    1    2    0    0 -0.71247713501E-02 -0.20662767430E-01 -0.92886660328E-02  0.10201814918E+01  0.10199050370E+01 0.  0.
     999903    2    3    3    0    0 -0.66759098252E-01  0.87729175629E-01 -0.66499310979E-01  0.12968830028E+00  0.15611259160E-01 0.  0.
         14    1    1    2    0    0  0.71247713501E-02  0.20662767430E-01  0.92886660328E-02  0.23748508191E-01  0.00000000000E+00 0.  1.
     999901    1    3    3    0    0  0.59634326902E-01 -0.10839194306E+00  0.57210644946E-01  0.89049319153E+00  0.88000000000E+00 0.  1.
        -11    1    4    4    0    0 -0.30443660142E-01  0.49236413802E-01 -0.41031471103E-01  0.70956913891E-01  0.51100000000E-03 0. -1.
         11    1    4    4    0    0 -0.36315438110E-01  0.38492761827E-01 -0.25467839875E-01  0.58731386388E-01  0.51100000000E-03 0.  1.
</event>
<event>
 8    1  0.1103774E+005  0.1043930E+01  0.7957747E-01            NaN
         13   -1    0    0    0    0  0.00000000000E+00  0.00000000000E+00  0.74505805969E-08  0.10566000000E+00  0.10566000000E+00 0.  1.
     999900   -1    0    0    0    0 -0.00000000000E+00 -0.00000000000E+00 -0.74505805969E-08  0.93827000000E+00  0.93827000000E+00 0.  1.
     999902    2    1    2    0    0  0.15473708342E-01  0.98447883942E-02  0.16151307995E-01  0.10194919097E+01  0.10191989667E+01 0.  0.
     999903    2    3    3    0    0 -0.11782268811E+00 -0.40524688587E-01  0.22057712678E-01  0.12801005393E+00  0.19380273503E-01 0.  0.
         14    1    1    2    0    0 -0.15473708342E-01 -0.98447883942E-02 -0.16151307995E-01  0.24438090317E-01  0.00000000000E+00 0. -1.
     999901    1    3    3    0    0  0.13329639645E+00  0.50369476981E-01 -0.59064046832E-02  0.89148185575E+00  0.88000000000E+00 0.  1.
        -11    1    4    4    0    0 -0.98451730209E-01 -0.29031872288E-01  0.12020378169E-01  0.10334574690E+00  0.51100000000E-03 0. -1.
         11    1    4    4    0    0 -0.19370957899E-01 -0.11492816298E-01  0.10037334509E-01  0.24664307033E-01  0.51100000000E-03 0.  1.
</event>
<event>
 8    1  0.1103774E+005  0.1043930E+01  0.7957747E-01            NaN
         13   -1    0    0    0    0  0.00000000000E+00  0.00000000000E+00  0.74505805969E-08  0.10566000000E+00  0.10566000000E+00 0. -1.
     999900   -1    0    0    0    0 -0.00000000000E+00 -0.00000000000E+00 -0.74505805969E-08  0.93827000000E+00  0.93827000000E+00 0.  1.
     999902    2    1    2    0    0  0.12056857197E-01  0.18944327127E-01 -0.72078855608E-02  0.10203459174E+01  0.10200733220E+01 0.  0.
     999903    2    3    3    0    0  0.10913235217E+00  0.47501967807E-02  0.70366579775E-01  0.13150233012E+00  0.20223071389E-01 0.  0.
         14    1    1    2    0    0 -0.12056857197E-01 -0.18944327127E-01  0.72078855608E-02  0.23584082556E-01  0.00000000000E+00 0. -1.
     999901    1    3    3    0    0 -0.97075494976E-01  0.14194130346E-01 -0.77574465336E-01  0.88884358733E+00  0.88000000000E+00 0.  1.
        -11    1    4    4    0    0  0.97340879050E-01  0.95242572440E-02  0.57778093632E-01  0.11359809609E+00  0.51100000000E-03 0. -1.
         11    1    4    4    0    0  0.11791473123E-01 -0.47740604634E-02  0.12588486143E-01  0.17904234027E-01  0.51100000000E-03 0.  1.
</event>
<event>
 8    1  0.1103774E+005  0.1043930E+01  0.7957747E-01            NaN
         13   -1    0    0    0    0  0.00000000000E+00  0.00000000000E+00  0.74505805969E-08  0.10566000000E+00  0.10566000000E+00 0.  1.
     999900   -1    0    0    0    0 -0.00000000000E+00 -0.00000000000E+00 -0.74505805969E-08  0.93827000000E+00  0.93827000000E+00 0. -1.
     999902    2    1    2    0    0 -0.41574122963E-02 -0.13638707320E-01 -0.18583535645E-01  0.10205068019E+01  0.10202379558E+01 0.  0.
     999903    2    3    3    0    0  0.21127190643E-01  0.65579666262E-01 -0.11088479389E+00  0.13178053121E+00  0.17989443554E-01 0.  0.
         14    1    1    2    0    0  0.41574122963E-02  0.13638707320E-01  0.18583535645E-01  0.23423198147E-01  0.00000000000E+00 0.  1.
     999901    1    3    3    0    0 -0.25284602939E-01 -0.79218373582E-01  0.92301258240E-01  0.88872627064E+00  0.88000000000E+00 0.  1.
        -11    1    4    4    0    0  0.19644452851E-01  0.55847724225E-01 -0.10428168605E+00  0.11991582046E+00  0.51100000000E-03 0. -1.
         11    1    4    4    0    0  0.14827377921E-02  0.97319420378E-02 -0.66031078310E-02  0.11864710751E-01  0.51100000000E-03 0.  1.
</event>
<event>
 8    1  0.1103774E+005  0.1043930E+01  0.7957747E-01            NaN
         13   -1    0    0    0    0  0.00000000000E+00  0.00000000000E+00  0.74505805969E-08  0.10566000000E+00  0.10566000000E+00 0.  1.
     999900   -1    0    0    0    0 -0.00000000000E+00 -0.00000000000E+00 -0.74505805969E-08  0.93827000000E+00  0.93827000000E+00 0.  1.
     999902    2    1    2    0    0  0.11476285465E-01  0.30392526151E-02  0.20804728096E-01  0.10199763177E+01  0.10196950082E+01 0.  0.
     999903    2    3    3    0    0  0.11249855194E+00  0.20360669500E-01 -0.59387615493E-01  0.13040544263E+00  0.20204196164E-01 0.  0.
         14    1    1    2    0    0 -0.11476285465E-01 -0.30392526151E-02 -0.20804728096E-01  0.23953682299E-01  0.00000000000E+00 0. -1.
     999901    1    3    3    0    0 -0.10102226647E+00 -0.17321416885E-01  0.80192343589E-01  0.88957087507E+00  0.88000000000E+00 0. -1.
        -11    1    4    4    0    0  0.51010236688E-01  0.19460687392E-01 -0.27548721518E-01  0.61155177859E-01  0.51100000000E-03 0.  1.
         11    1    4    4    0    0  0.61488315250E-01  0.89998210809E-03 -0.31838893975E-01  0.69250264770E-01  0.51100000000E-03 0. -1.
</event>
<event>
 8    1  0.1103774E+005  0.1043930E+01  0.7957747E-01            NaN
         13   -1    0    0    0    0  0.00000000000E+00  0.00000000000E+00  0.74505805969E-08  0.10566000000E+00  0.10566000000E+00 0. -1.
     999900   -1    0    0    0    0 -0.00000000000E+00 -0.00000000000E+00 -0.74505805969E-08  0.93827000000E+00  0.93827000000E+00 0.  1.
     999902    2    1    2    0    0 -0.20355935040E-01  0.11363551858E-01  0.41445664749E-02  0.10202514901E+01  0.10199766817E+01 0.  0.
     999903    2    3    3    0    0 -0.39762014449E-01 -0.33010830170E-01  0.11897660976E+00  0.13147025720E+00  0.21407058577E-01 0.  0.
         14    1    1    2    0    0  0.20355935040E-01 -0.11363551858E-01 -0.41445664749E-02  0.23678509950E-01  0.00000000000E+00 0. -1.
     999901    1    3    3    0    0  0.19406079409E-01  0.44374382028E-01 -0.11483204329E+00  0.88878123285E+00  0.88000000000E+00 0.  1.
        -11    1    4    4    0    0 -0.37225995096E-01 -0.22011126763E-01  0.80677622379E-01  0.91539086111E-01  0.51100000000E-03 0.  1.
         11    1    4    4    0    0 -0.25360193523E-02 -0.10999703407E-01  0.38298987382E-01  0.39931171090E-01  0.51100000000E-03 0. -1.
</event>
<event>
 8    1  0.1103774E+005  0.1043930E+01  0.7957747E-01            NaN
         13   -1    0    0    0    0  0.00000000000E+00  0.00000000000E+00  0.74505805969E-08  0.10566000000E+00  0.10566000000E+00 0.  1.
     999900   -1    0    0    0    0 -0.00000000000E+00 -0.00000000000E+00 -0.74505805969E-08  0.93827000000E+00  0.93827000000E+00 0. -1.
     999902    2    1    2    0    0  0.11131709151E-01 -0.20543653120E-01  0.54683086039E-02  0.10199329370E+01  0.10196505956E+01 0.  0.
     999903    2    3    3    0    0  0.89003034271E-02  0.12575284965E+00  0.10826983636E-01  0.12783632719E+00  0.18218352795E-01 0.  0.
         14    1    1    2    0    0 -0.11131709151E-01  0.20543653120E-01 -0.54683086039E-02  0.23997062969E-01  0.00000000000E+00 0. -1.
     999901    1    3    3    0    0  0.22314057243E-02 -0.14629650277E+00 -0.53586750326E-02  0.89209660984E+00  0.88000000000E+00 0. -1.
        -11    1    4    4    0    0  0.13680345095E-01  0.94222098405E-01  0.44863334045E-02  0.95317070759E-01  0.51100000000E-03 0. -1.
         11    1    4    4    0    0 -0.47800416683E-02  0.31530751245E-01  0.63406502319E-02  0.32519256430E-01  0.51100000000E-03 0.  1.
</event>
<event>
 8    1  0.1103774E+005  0.1043930E+01  0.7957747E-01            NaN
         13   -1    0    0    0    0  0.00000000000E+00  0.00000000000E+00  0.74505805969E-08  0.10566000000E+00  0.10566000000E+00 0. -1.
     999900   -1    0    0    0    0 -0.00000000000E+00 -0.00000000000E+00 -0.74505805969E-08  0.93827000000E+00  0.93827000000E+00 0.  1.
     999902    2    1    2    0    0  0.14856957534E-01 -0.16634117901E-01 -0.10186467119E-01  0.10194108814E+01  0.10191159688E+01 0.  0.
     999903    2    3    3    0    0 -0.30039564175E-01  0.12214430543E+00  0.37866696058E-02  0.12729519550E+00  0.19186483969E-01 0.  0.
         14    1    1    2    0    0 -0.14856957534E-01  0.16634117901E-01  0.10186467119E-01  0.24519118620E-01  0.00000000000E+00 0. -1.
     999901    1    3    3    0    0  0.44896521709E-01 -0.13877842333E+00 -0.13973136725E-01  0.89211568588E+00  0.88000000000E+00 0.  1.
        -11    1    4    4    0    0 -0.45966294920E-02  0.50364017750E-01  0.70641456322E-02  0.51066883213E-01  0.51100000000E-03 0. -1.
         11    1    4    4    0    0 -0.25442934683E-01  0.71780287676E-01 -0.32774760264E-02  0.76228312288E-01  0.51100000000E-03 0.  1.
</event>
<event>
 8    1  0.1103774E+005  0.1043930E+01  0.7957747E-01            NaN
         13   -1    0    0    0    0  0.00000000000E+00  0.00000000000E+00  0.74505805969E-08  0.10566000000E+00  0.10566000000E+00 0. -1.
     999900   -1    0    0    0    0 -0.00000000000E+00 -0.00000000000E+00 -0.74505805969E-08  0.93827000000E+00  0.93827000000E+00 0.  1.
     999902    2    1    2    0    0  0.24931754671E-02 -0.21803986419E-01  0.59172594493E-02  0.10212002022E+01  0.10209472118E+01 0.  0.
     999903    2    3    3    0    0 -0.40970227094E-02 -0.12986982355E+00 -0.24851625662E-01  0.13403145832E+00  0.21537684574E-01 0.  0.
         14    1    1    2    0    0 -0.24931754671E-02  0.21803986419E-01 -0.59172594493E-02  0.22729797779E-01  0.00000000000E+00 0.  1.
     999901    1    3    3    0    0  0.65901981766E-02  0.10806583713E+00  0.30768885111E-01  0.88716874390E+00  0.88000000000E+00 0.  1.
        -11    1    4    4    0    0  0.49802177033E-02 -0.70474387981E-01 -0.53306655447E-02  0.70852798434E-01  0.51100000000E-03 0. -1.
         11    1    4    4    0    0 -0.90772404127E-02 -0.59395435569E-01 -0.19520960117E-01  0.63178659885E-01  0.51100000000E-03 0.  1.
</event>
<event>
 8    1  0.1103774E+005  0.1043930E+01  0.7957747E-01            NaN
         13   -1    0    0    0    0  0.00000000000E+00  0.00000000000E+00  0.74505805969E-08  0.10566000000E+00  0.10566000000E+00 0. -1.
     999900   -1    0    0    0    0 -0.00000000000E+00 -0.00000000000E+00 -0.74505805969E-08  0.93827000000E+00  0.93827000000E+00 0.  1.
     999902    2    1    2    0    0  0.63732396373E-02 -0.22306314023E-01 -0.89083133367E-02  0.10190794894E+01  0.10187764514E+01 0.  0.
     999903    2    3    3    0    0 -0.62545968441E-01  0.97295532121E-01  0.47254867391E-01  0.12655007159E+00  0.20086796398E-01 0.  0.
         14    1    1    2    0    0 -0.63732396373E-02  0.22306314023E-01  0.89083133367E-02  0.24850510564E-01  0.00000000000E+00 0. -1.
     999901    1    3    3    0    0  0.68919208078E-01 -0.11960184614E+00 -0.56163180728E-01  0.89252941784E+00  0.88000000000E+00 0. -1.
        -11    1    4    4    0    0 -0.17841383844E-01  0.18699632209E-01  0.34608745327E-02  0.26081219215E-01  0.51100000000E-03 0.  1.
         11    1    4    4    0    0 -0.44704584597E-01  0.78595899912E-01  0.43793992859E-01  0.10046885238E+00  0.51100000000E-03 0. -1.
</event>
<event>
 8    1  0.1103774E+005  0.1043930E+01  0.7957747E-01            NaN
         13   -1    0    0    0    0  0.00000000000E+00  0.00000000000E+00  0.74505805969E-08  0.10566000000E+00  0.10566000000E+00 0.  1.
     999900   -1    0    0    0    0 -0.00000000000E+00 -0.00000000000E+00 -0.74505805969E-08  0.93827000000E+00  0.93827000000E+00 0. -1.
     999902    2    1    2    0    0 -0.10471641673E-01  0.66242777262E-03  0.19376181219E-01  0.10218952436E+01  0.10216576523E+01 0.  0.
     999903    2    3    3    0    0 -0.44344068794E-01  0.52164362736E-01  0.11430872810E+00  0.13464557240E+00  0.19375956028E-01 0.  0.
         14    1    1    2    0    0  0.10471641673E-01 -0.66242777262E-03 -0.19376181219E-01  0.22034756375E-01  0.00000000000E+00 0. -1.
     999901    1    3    3    0    0  0.33872427121E-01 -0.51501934964E-01 -0.94932546877E-01  0.88724967122E+00  0.88000000000E+00 0. -1.
        -11    1    4    4    0    0 -0.16994387509E-01  0.29836782439E-01  0.42627368216E-01  0.54739349970E-01  0.51100000000E-03 0. -1.
         11    1    4    4    0    0 -0.27349681285E-01  0.22327580297E-01  0.71681359880E-01  0.79906222434E-01  0.51100000000E-03 0.  1.
</event>
<event>
 8    1  0.1103774E+005  0.1043930E+01  0.7957747E-01            NaN
         13   -1    0    0    0    0  0.00000000000E+00  0.00000000000E+00  0.74505805969E-08  0.10566000000E+00  0.10566000000E+00 0.  1.
     999900   -1    0    0    0    0 -0.00000000000E+00 -0.00000000000E+00 -0.74505805969E-08  0.93827000000E+00  0.93827000000E+00 0.  1.
     999902    2    1    2    0    0 -0.13417169892E-01 -0.11773485003E-01  0.23839356380E-01  0.10141482890E+01  0.10137109064E+01 0.  0.
     999903    2    3    3    0    0  0.66358268708E-02 -0.12428050392E+00  0.12733060115E-01  0.12668938754E+00  0.19959765578E-01 0.  0.
         14    1    1    2    0    0  0.13417169892E-01  0.11773485003E-01 -0.23839356380E-01  0.29781710993E-01  0.00000000000E+00 0. -1.
     999901    1    3    3    0    0 -0.20052996763E-01  0.11250701892E+00  0.11106296265E-01  0.88745890147E+00  0.88000000000E+00 0. -1.
        -11    1    4    4    0    0  0.46429562890E-03 -0.38707400673E-01 -0.51320916350E-02  0.39052246066E-01  0.51100000000E-03 0. -1.
         11    1    4    4    0    0  0.61715312419E-02 -0.85573103245E-01  0.17865151750E-01  0.87637141470E-01  0.51100000000E-03 0.  1.
</event>
<event>
 8    1  0.1103774E+005  0.1043930E+01  0.7957747E-01            NaN
         13   -1    0    0    0    0  0.00000000000E+00  0.00000000000E+00  0.74505805969E-08  0.10566000000E+00  0.10566000000E+00 0.  1.
     999900   -1    0    0    0    0 -0.00000000000E+00 -0.00000000000E+00 -0.74505805969E-08  0.93827000000E+00  0.93827000000E+00 0. -1.
     999902    2    1    2    0    0  0.14797932571E-01 -0.16926300449E-01  0.11658923892E-01  0.10186039470E+01  0.10182890512E+01 0.  0.
     999903    2    3    3    0    0  0.47095870972E-01 -0.41138255109E-01 -0.11113923584E+00  0.12916099569E+00  0.20500145561E-01 0.  0.
         14    1    1    2    0    0 -0.14797932571E-01  0.16926300449E-01 -0.11658923892E-01  0.25326053020E-01  0.00000000000E+00 0. -1.
     999901    1    3    3    0    0 -0.32297938401E-01  0.24211954660E-01  0.12279815973E+00  0.88944295129E+00  0.88000000000E+00 0.  1.
        -11    1    4    4    0    0  0.32085900163E-01 -0.17155111021E-01 -0.50498617390E-01  0.62242865476E-01  0.51100000000E-03 0. -1.
         11    1    4    4    0    0  0.15009970809E-01 -0.23983144088E-01 -0.60640618448E-01  0.66918130210E-01  0.51100000000E-03 0.  1.
</event>
<event>
 8    1  0.1103774E+005  0.1043930E+01  0.7957747E-01            NaN
         13   -1    0    0    0    0  0.00000000000E+00  0.00000000000E+00  0.74505805969E-08  0.10566000000E+00  0.10566000000E+00 0.  1.
     999900   -1    0    0    0    0 -0.00000000000E+00 -0.00000000000E+00 -0.74505805969E-08  0.93827000000E+00  0.93827000000E+00 0.  1.
     999902    2    1    2    0    0 -0.19604021465E-01 -0.11013584645E-01 -0.72534846134E-02  0.10203031140E+01  0.10200295166E+01 0.  0.
     999903    2    3    3    0    0 -0.10777641420E+00 -0.11539074990E-01 -0.74938166758E-01  0.13331051920E+00  0.20175727576E-01 0.  0.
         14    1    1    2    0    0  0.19604021465E-01  0.11013584645E-01  0.72534846134E-02  0.23626886028E-01  0.00000000000E+00 0.  1.
     999901    1    3    3    0    0  0.88172392735E-01  0.52549034546E-03  0.67684682145E-01  0.88699259477E+00  0.88000000000E+00 0. -1.
        -11    1    4    4    0    0 -0.27014024777E-01  0.40581708484E-02 -0.25303771957E-01  0.37239337824E-01  0.51100000000E-03 0. -1.
         11    1    4    4    0    0 -0.80762389423E-01 -0.15597245838E-01 -0.49634394802E-01  0.96071181378E-01  0.51100000000E-03 0.  1.
</event>
<event>
 8    1  0.1103774E+005  0.1043930E+01  0.7957747E-01            NaN
         13   -1    0    0    0    0  0.00000000000E+00  0.00000000000E+00  0.74505805969E-08  0.10566000000E+00  0.10566000000E+00 0. -1.
     999900   -1    0    0    0    0 -0.00000000000E+00 -0.00000000000E+00 -0.74505805969E-08  0.93827000000E+00  0.93827000000E+00 0.  1.
     999902    2    1    2    0    0 -0.76549414846E-02  0.76510532268E-02  0.21825891246E-01  0.10195680158E+01  0.10192769165E+01 0.  0.
     999903    2    3    3    0    0 -0.75119352461E-03  0.57732266717E-01  0.11793828048E+00  0.13289255036E+00  0.20430688368E-01 0.  0.
         14    1    1    2    0    0  0.76549414846E-02 -0.76510532268E-02 -0.21825891246E-01  0.24361984182E-01  0.00000000000E+00 0.  1.
     999901    1    3    3    0    0 -0.69037479600E-02 -0.50081213490E-01 -0.96112389231E-01  0.88667546546E+00  0.88000000000E+00 0.  1.
        -11    1    4    4    0    0  0.18824910287E-02  0.50731277923E-01  0.11309310665E+00  0.12396579457E+00  0.51100000000E-03 0. -1.
         11    1    4    4    0    0 -0.26336845533E-02  0.70009887940E-02  0.48451738300E-02  0.89267557860E-02  0.51100000000E-03 0.  1.
</event>
<event>
 8    1  0.1103774E+005  0.1043930E+01  0.7957747E-01            NaN
         13   -1    0    0    0    0  0.00000000000E+00  0.00000000000E+00  0.74505805969E-08  0.10566000000E+00  0.10566000000E+00 0. -1.
     999900   -1    0    0    0    0 -0.00000000000E+00 -0.00000000000E+00 -0.74505805969E-08  0.93827000000E+00  0.93827000000E+00 0.  1.
     999902    2    1    2    0    0 -0.13203495904E-01  0.18279429115E-02 -0.20073389764E-01  0.10198340531E+01  0.10195493520E+01 0.  0.
     999903    2    3    3    0    0 -0.10555894054E+00  0.13125616902E-02  0.73286133920E-01  0.13008926138E+00  0.20197667061E-01 0.  0.
         14    1    1    2    0    0  0.13203495904E-01 -0.18279429115E-02  0.20073389764E-01  0.24095946879E-01  0.00000000000E+00 0. -1.
     999901    1    3    3    0    0  0.92355444637E-01  0.51538122132E-03 -0.93359523684E-01  0.88974479174E+00  0.88000000000E+00 0. -1.
        -11    1    4    4    0    0 -0.69162518238E-01  0.15888020627E-02  0.59212157770E-01  0.91062170904E-01  0.51100000000E-03 0.  1.
         11    1    4    4    0    0 -0.36396422303E-01 -0.27624037248E-03  0.14073976150E-01  0.39027090474E-01  0.51100000000E-03 0. -1.
</event>
<event>
 8    1  0.1103774E+005  0.1043930E+01  0.7957747E-01            NaN
         13   -1    0    0    0    0  0.00000000000E+00  0.00000000000E+00  0.74505805969E-08  0.10566000000E+00  0.10566000000E+00 0. -1.
     999900   -1    0    0    0    0 -0.00000000000E+00 -0.00000000000E+00 -0.74505805969E-08  0.93827000000E+00  0.93827000000E+00 0.  1.
     999902    2    1    2    0    0  0.23201166123E-01 -0.73370807907E-03 -0.20949596465E-02  0.10206228918E+01  0.10203567347E+01 0.  0.
     999903    2    3    3    0    0 -0.11504584336E+00  0.38018656071E-01  0.36834945823E-01  0.12813786733E+00  0.19532934357E-01 0.  0.
         14    1    1    2    0    0 -0.23201166123E-01  0.73370807907E-03  0.20949596465E-02  0.23307108206E-01  0.00000000000E+00 0. -1.
     999901    1    3    3    0    0  0.13824700949E+00 -0.38752364150E-01 -0.38929905469E-01  0.89248502447E+00  0.88000000000E+00 0. -1.
        -11    1    4    4    0    0 -0.60423747782E-01  0.30038404818E-01  0.21979363511E-01  0.70969631543E-01  0.51100000000E-03 0.  1.
         11    1    4    4    0    0 -0.54622095582E-01  0.79802512537E-02  0.14855582312E-01  0.57168235784E-01  0.51100000000E-03 0. -1.
</event>
<event>
 8    1  0.1103774E+005  0.1043930E+01  0.7957747E-01            NaN
         13   -1    0    0    0    0  0.00000000000E+00  0.00000000000E+00  0.74505805969E-08  0.10566000000E+00  0.10566000000E+00 0. -1.
     999900   -1    0    0    0    0 -0.00000000000E+00 -0.00000000000E+00 -0.74505805969E-08  0.93827000000E+00  0.93827000000E+00 0.  1.
     999902    2    1    2    0    0 -0.10152965596E-01  0.22142878790E-01  0.34635214271E-02  0.10193254116E+01  0.10190284142E+01 0.  0.
     999903    2    3    3    0    0  0.17659603976E-01  0.46764292195E-01  0.11940187564E+00  0.13094404357E+00  0.19768004505E-01 0.  0.
         14    1    1    2    0    0  0.10152965596E-01 -0.22142878790E-01 -0.34635214271E-02  0.24604588437E-01  0.00000000000E+00 0. -1.
     999901    1    3    3    0    0 -0.27812569572E-01 -0.24621413405E-01 -0.11593835421E+00  0.88838136800E+00  0.88000000000E+00 0.  1.
        -11    1    4    4    0    0  0.82625045969E-02  0.17239587403E-01  0.24312279610E-01  0.30932513912E-01  0.51100000000E-03 0.  1.
         11    1    4    4    0    0  0.93970993789E-02  0.29524704792E-01  0.95089596031E-01  0.10001152966E+00  0.51100000000E-03 0. -1.
</event>
<event>
 8    1  0.1103774E+005  0.1043930E+01  0.7957747E-01            NaN
         13   -1    0    0    0    0  0.00000000000E+00  0.00000000000E+00  0.74505805969E-08  0.10566000000E+00  0.10566000000E+00 0. -1.
     999900   -1    0    0    0    0 -0.00000000000E+00 -0.00000000000E+00 -0.74505805969E-08  0.93827000000E+00  0.93827000000E+00 0. -1.
     999902    2    1    2    0    0 -0.20986064955E-01  0.78580443064E-02 -0.93803480765E-02  0.10196368999E+01  0.10193474643E+01 0.  0.
     999903    2    3    3    0    0  0.43123193122E-01 -0.23616522928E-01 -0.11789955064E+00  0.13009934438E+00  0.24661415742E-01 0.  0.
         14    1    1    2    0    0  0.20986064955E-01 -0.78580443064E-02  0.93803480765E-02  0.24293100104E-01  0.00000000000E+00 0. -1.
     999901    1    3    3    0    0 -0.64109258076E-01  0.31474567234E-01  0.10851920256E+00  0.88953755552E+00  0.88000000000E+00 0.  1.
        -11    1    4    4    0    0  0.30897901771E-01 -0.26144905395E-01 -0.72751473666E-01  0.83254275888E-01  0.51100000000E-03 0.  1.
         11    1    4    4    0    0  0.12225291351E-01  0.25283824669E-02 -0.45148076972E-01  0.46845068490E-01  0.51100000000E-03 0. -1.
</event>
<event>
 8    1  0.1103774E+005  0.1043930E+01  0.7957747E-01            NaN
         13   -1    0    0    0    0  0.00000000000E+00  0.00000000000E+00  0.74505805969E-08  0.10566000000E+00  0.10566000000E+00 0. -1.
     999900   -1    0    0    0    0 -0.00000000000E+00 -0.00000000000E+00 -0.74505805969E-08  0.93827000000E+00  0.93827000000E+00 0.  1.
     999902    2    1    2    0    0  0.11681776939E-01 -0.20012276645E-01 -0.36563601009E-02  0.10204710124E+01  0.10202013346E+01 0.  0.
     999903    2    3    3    0    0  0.11608639900E+00 -0.41955630671E-01  0.44478605752E-01  0.13272171739E+00  0.20009520731E-01 0.  0.
         14    1    1    2    0    0 -0.11681776939E-01  0.20012276645E-01  0.36563601009E-02  0.23458987578E-01  0.00000000000E+00 0. -1.
     999901    1    3    3    0    0 -0.10440462206E+00  0.21943354026E-01 -0.48134965853E-01  0.88774929503E+00  0.88000000000E+00 0.  1.
        -11    1    4    4    0    0  0.76565072332E-01 -0.24948517351E-01  0.19086864968E-01  0.82759944143E-01  0.51100000000E-03 0. -1.
         11    1    4    4    0    0  0.39521326666E-01 -0.17007113320E-01  0.25391740784E-01  0.49961773247E-01  0.51100000000E-03 0.  1.
</event>
<event>
 8    1  0.1103774E+005  0.1043930E+01  0.7957747E-01            NaN
         13   -1    0    0    0    0  0.00000000000E+00  0.00000000000E+00  0.74505805969E-08  0.10566000000E+00  0.10566000000E+00 0. -1.
     999900   -1    0    0    0    0 -0.00000000000E+00 -0.00000000000E+00 -0.74505805969E-08  0.93827000000E+00  0.93827000000E+00 0. -1.
     999902    2    1    2    0    0  0.58762860371E-02 -0.11094049936E-02  0.21261457026E-01  0.10218435546E+01  0.10216048350E+01 0.  0.
     999903    2    3    3    0    0  0.31020441151E-01  0.11995658555E+00 -0.38935706052E-01  0.13116241013E+00  0.18323166762E-01 0.  0.
         14    1    1    2    0    0 -0.58762860371E-02  0.11094049936E-02 -0.21261457026E-01  0.22086445434E-01  0.00000000000E+00 0. -1.
     999901    1    3    3    0    0 -0.25144155114E-01 -0.12106599055E+00  0.60197163078E-01  0.89068114443E+00  0.88000000000E+00 0.  1.
        -11    1    4    4    0    0  0.17702547609E-01  0.34908224787E-01 -0.13263286838E-01  0.41329653379E-01  0.51100000000E-03 0.  1.
         11    1    4    4    0    0  0.13317893542E-01  0.85048360764E-01 -0.25672419214E-01  0.89832756756E-01  0.51100000000E-03 0. -1.
</event>
<event>
 8    1  0.1103774E+005  0.1043930E+01  0.7957747E-01            NaN
         13   -1    0    0    0    0  0.00000000000E+00  0.00000000000E+00  0.74505805969E-08  0.10566000000E+00  0.10566000000E+00 0. -1.
     999900   -1    0    0    0    0 -0.00000000000E+00 -0.00000000000E+00 -0.74505805969E-08  0.93827000000E+00  0.93827000000E+00 0.  1.
     999902    2    1    2    0    0 -0.17336155847E-01 -0.33556676788E-02  0.14735042106E-01  0.10209316463E+01  0.10206725735E+01 0.  0.
     999903    2    3    3    0    0  0.70984232780E-01 -0.47808329945E-01  0.97942884568E-01  0.13149357920E+00  0.19322396810E-01 0.  0.
         14    1    1    2    0    0  0.17336155847E-01  0.33556676788E-02 -0.14735042106E-01  0.22998353658E-01  0.00000000000E+00 0.  1.
     999901    1    3    3    0    0 -0.88320388627E-01  0.44452662266E-01 -0.83207842462E-01  0.88943806714E+00  0.88000000000E+00 0.  1.
        -11    1    4    4    0    0  0.48124462513E-01 -0.22391386519E-01  0.66078195856E-01  0.84758050774E-01  0.51100000000E-03 0. -1.
         11    1    4    4    0    0  0.22859770267E-01 -0.25416943426E-01  0.31864688712E-01  0.46735528428E-01  0.51100000000E-03 0.  1.
</event>
<event>
 8    1  0.1103774E+005  0.1043930E+01  0.7957747E-01            NaN
         13   -1    0    0    0    0  0.00000000000E+00  0.00000000000E+00  0.74505805969E-08  0.10566000000E+00  0.10566000000E+00 0. -1.
     999900   -1    0    0    0    0 -0.00000000000E+00 -0.00000000000E+00 -0.74505805969E-08  0.93827000000E+00  0.93827000000E+00 0.  1.
     999902    2    1    2    0    0  0.18936857104E-01  0.17516360237E-01  0.85925078743E-02  0.10167406892E+01  0.10163770808E+01 0.  0.
     999903    2    3    3    0    0 -0.91204788675E-01  0.86479394114E-02  0.84974917342E-01  0.12654739357E+00  0.20010145133E-01 0.  0.
         14    1    1    2    0    0 -0.18936857104E-01 -0.17516360237E-01 -0.85925078743E-02  0.27189310850E-01  0.00000000000E+00 0.  1.
     999901    1    3    3    0    0  0.11014164578E+00  0.88684208255E-02 -0.76382409468E-01  0.89019329558E+00  0.88000000000E+00 0.  1.
        -11    1    4    4    0    0 -0.40018519993E-01  0.14663019501E-02  0.50335889574E-01  0.64324139202E-01  0.51100000000E-03 0.  1.
         11    1    4    4    0    0 -0.51186268682E-01  0.71816374613E-02  0.34639027768E-01  0.62223254366E-01  0.51100000000E-03 0. -1.
</event>
<event>
 8    1  0.1103774E+005  0.1043930E+01  0.7957747E-01            NaN
         13   -1    0    0    0    0  0.00000000000E+00  0.00000000000E+00  0.74505805969E-08  0.10566000000E+00  0.10566000000E+00 0. -1.
     999900   -1    0    0    0    0 -0.00000000000E+00 -0.00000000000E+00 -0.74505805969E-08  0.93827000000E+00  0.93827000000E+00 0. -1.
     999902    2    1    2    0    0 -0.60757867436E-02 -0.20808064971E-01 -0.44386759710E-02  0.10218032606E+01  0.10215636597E+01 0.  0.
     999903    2    3    3    0    0 -0.98434268141E-01  0.49612499147E-01  0.68866299661E-01  0.13115026173E+00  0.17524802594E-01 0.  0.
         14    1    1    2    0    0  0.60757867436E-02  0.20808064971E-01  0.44386759710E-02  0.22126739407E-01  0.00000000000E+00 0.  1.
     999901    1    3    3    0    0  0.92358481398E-01 -0.70420564118E-01 -0.73304975632E-01  0.89065299887E+00  0.88000000000E+00 0. -1.
        -11    1    4    4    0    0 -0.67811652043E-01  0.28618213607E-01  0.53354752633E-01  0.90908817243E-01  0.51100000000E-03 0. -1.
         11    1    4    4    0    0 -0.30622616098E-01  0.20994285539E-01  0.15511547028E-01  0.40241444485E-01  0.51100000000E-03 0.  1.
</event>
<event>
 8    1  0.1103774E+005  0.1043930E+01  0.7957747E-01            NaN
         13   -1    0    0    0    0  0.00000000000E+00  0.00000000000E+00  0.74505805969E-08  0.10566000000E+00  0.10566000000E+00 0.  1.
     999900   -1    0    0    0    0 -0.00000000000E+00 -0.00000000000E+00 -0.74505805969E-08  0.93827000000E+00  0.93827000000E+00 0. -1.
     999902    2    1    2    0    0 -0.39734930594E-02 -0.17746934296E-01 -0.14893439028E-01  0.10204234722E+01  0.10201526875E+01 0.  0.
     999903    2    3    3    0    0 -0.48404864819E-01 -0.12159564249E+00 -0.14903101045E-01  0.13320382571E+00  0.19814781151E-01 0.  0.
         14    1    1    2    0    0  0.39734930594E-02  0.17746934296E-01  0.14893439028E-01  0.23506527818E-01  0.00000000000E+00 0. -1.
     999901    1    3    3    0    0  0.44431371760E-01  0.10384870820E+00  0.96620169678E-05  0.88721964647E+00  0.88000000000E+00 0. -1.
        -11    1    4    4    0    0 -0.34600340137E-01 -0.76712630525E-01 -0.18291012823E-01  0.86121039768E-01  0.51100000000E-03 0.  1.
         11    1    4    4    0    0 -0.13804524683E-01 -0.44883011967E-01  0.33879117774E-02  0.47082785943E-01  0.51100000000E-03 0. -1.
</event>
<event>
 8    1  0.1103774E+005  0.1043930E+01  0.7957747E-01            NaN
         13   -1    0    0    0    0  0.00000000000E+00  0.00000000000E+00  0.74505805969E-08  0.10566000000E+00  0.10566000000E+00 0.  1.
     999900   -1    0    0    0    0 -0.00000000000E+00 -0.00000000000E+00 -0.74505805969E-08  0.93827000000E+00  0.93827000000E+00 0.  1.
     999902    2    1    2    0    0  0.20073306821E-02  0.12908807079E-01 -0.22135235382E-01  0.10182271729E+01  0.10179027165E+01 0.  0.
     999903    2    3    3    0    0  0.10771218977E+00 -0.67521909928E-01 -0.64022921232E-02  0.12812035739E+00  0.14584666226E-01 0.  0.
         14    1    1    2    0    0 -0.20073306821E-02 -0.12908807079E-01  0.22135235382E-01  0.25702827122E-01  0.00000000000E+00 0.  1.
     999901    1    3    3    0    0 -0.10570485908E+00  0.80430717007E-01 -0.15732943259E-01  0.89010681549E+00  0.88000000000E+00 0. -1.
        -11    1    4    4    0    0  0.36446307331E-01 -0.30349037731E-01 -0.53735870336E-02  0.47733991745E-01  0.51100000000E-03 0. -1.
         11    1    4    4    0    0  0.71265882435E-01 -0.37172872197E-01 -0.10287050896E-02  0.80386365646E-01  0.51100000000E-03 0.  1.
</event>
<event>
 8    1  0.1103774E+005  0.1043930E+01  0.7957747E-01            NaN
         13   -1    0    0    0    0  0.00000000000E+00  0.00000000000E+00  0.74505805969E-08  0.10566000000E+00  0.10566000000E+00 0.  1.
     999900   -1    0    0    0    0 -0.00000000000E+00 -0.00000000000E+00 -0.74505805969E-08  0.93827000000E+00  0.93827000000E+00 0.  1.
     999902    2    1    2    0    0 -0.16308234045E-01  0.74091723011E-03  0.19217568172E-01  0.10187144813E+01  0.10184023626E+01 0.  0.
     999903    2    3    3    0    0 -0.91618445305E-01 -0.81528653919E-01  0.42546171875E-01  0.13136779934E+00  0.20160878780E-01 0.  0.
         14    1    1    2    0    0  0.16308234045E-01 -0.74091723011E-03 -0.19217568172E-01  0.25215518683E-01  0.00000000000E+00 0. -1.
     999901    1    3    3    0    0  0.75310211260E-01  0.82269571149E-01 -0.23328603703E-01  0.88734668197E+00  0.88000000000E+00 0.  1.
        -11    1    4    4    0    0 -0.80439806368E-01 -0.64321102006E-01  0.29854796298E-01  0.10723495976E+00  0.51100000000E-03 0. -1.
         11    1    4    4    0    0 -0.11178638938E-01 -0.17207551913E-01  0.12691375577E-01  0.24132839584E-01  0.51100000000E-03 0.  1.
</event>
<event>
 8    1  0.1103774E+005  0.1043930E+01  0.7957747E-01            NaN
         13   -1    0    0    0    0  0.00000000000E+00  0.00000000000E+00  0.74505805969E-08  0.10566000000E+00  0.10566000000E+00 0. -1.
     999900   -1    0    0    0    0 -0.00000000000E+00 -0.00000000000E+00 -0.74505805969E-08  0.93827000000E+00  0.93827000000E+00 0. -1.
     999902    2    1    2    0    0  0.32744311071E-03  0.22318511699E-01 -0.76494773876E-02  0.10203347105E+01  0.10200618529E+01 0.  0.
     999903    2    3    3    0    0 -0.14299062292E-01 -0.24477528168E-01 -0.12636077718E+00  0.13101127285E+00  0.19831667559E-01 0.  0.
         14    1    1    2    0    0 -0.32744311071E-03 -0.22318511699E-01  0.76494773876E-02  0.23595289525E-01  0.00000000000E+00 0.  1.
     999901    1    3    3    0    0  0.14626505403E-01  0.46796039867E-01  0.11871129979E+00  0.88932343762E+00  0.88000000000E+00 0.  1.
        -11    1    4    4    0    0 -0.15443331544E-01 -0.10725338715E-01 -0.50187644474E-01  0.53596549876E-01  0.51100000000E-03 0. -1.
         11    1    4    4    0    0  0.11442692520E-02 -0.13752189452E-01 -0.76173132703E-01  0.77414722977E-01  0.51100000000E-03 0.  1.
</event>
<event>
 8    1  0.1103774E+005  0.1043930E+01  0.7957747E-01            NaN
         13   -1    0    0    0    0  0.00000000000E+00  0.00000000000E+00  0.74505805969E-08  0.10566000000E+00  0.10566000000E+00 0.  1.
     999900   -1    0    0    0    0 -0.00000000000E+00 -0.00000000000E+00 -0.74505805969E-08  0.93827000000E+00  0.93827000000E+00 0.  1.
     999902    2    1    2    0    0 -0.25368799604E-01  0.11713808661E-02  0.56753193293E-02  0.10179077523E+01  0.10175750758E+01 0.  0.
     999903    2    3    3    0    0 -0.93733345508E-01  0.78051160399E-01 -0.42278173423E-01  0.13061763677E+00  0.19889680400E-01 0.  0.
         14    1    1    2    0    0  0.25368799604E-01 -0.11713808661E-02 -0.56753193293E-02  0.26022247712E-01  0.00000000000E+00 0.  1.
     999901    1    3    3    0    0  0.68364545904E-01 -0.76879779533E-01  0.47953492752E-01  0.88729011552E+00  0.88000000000E+00 0.  1.
        -11    1    4    4    0    0 -0.74493656566E-01  0.71039118518E-01 -0.37733722539E-01  0.10963556068E+00  0.51100000000E-03 0.  1.
         11    1    4    4    0    0 -0.19239688942E-01  0.70120418805E-02 -0.45444508840E-02  0.20982076083E-01  0.51100000000E-03 0. -1.
</event>
<event>
 8    1  0.1103774E+005  0.1043930E+01  0.7957747E-01            NaN
         13   -1    0    0    0    0  0.00000000000E+00  0.00000000000E+00  0.74505805969E-08  0.10566000000E+00  0.10566000000E+00 0.  1.
     999900   -1    0    0    0    0 -0.00000000000E+00 -0.00000000000E+00 -0.74505805969E-08  0.93827000000E+00  0.93827000000E+00 0. -1.
     999902    2    1    2    0    0 -0.16562009697E-01  0.11743250377E-01  0.13074408716E-01  0.10197816200E+01  0.10194956636E+01 0.  0.
     999903    2    3    3    0    0  0.73893112470E-01 -0.51311548738E-01 -0.87757449598E-01  0.12718703089E+00  0.19547474550E-01 0.  0.
         14    1    1    2    0    0  0.16562009697E-01 -0.11743250377E-01 -0.13074408716E-01  0.24148380026E-01  0.00000000000E+00 0. -1.
     999901    1    3    3    0    0 -0.90455122167E-01  0.63054799115E-01  0.10083185831E+00  0.89259458909E+00  0.88000000000E+00 0.  1.
        -11    1    4    4    0    0  0.41676009298E-01 -0.19350331806E-01 -0.36184653484E-01  0.58488591715E-01  0.51100000000E-03 0.  1.
         11    1    4    4    0    0  0.32217103172E-01 -0.31961216932E-01 -0.51572796114E-01  0.68698439171E-01  0.51100000000E-03 0. -1.
</event>
<event>
 8    1  0.1103774E+005  0.1043930E+01  0.7957747E-01            NaN
         13   -1    0    0    0    0  0.00000000000E+00  0.00000000000E+00  0.74505805969E-08  0.10566000000E+00  0.10566000000E+00 0. -1.
     999900   -1    0    0    0    0 -0.00000000000E+00 -0.00000000000E+00 -0.74505805969E-08  0.93827000000E+00  0.93827000000E+00 0. -1.
     999902    2    1    2    0    0  0.15538868535E-01  0.17658933265E-01  0.14361806323E-03  0.10204073516E+01  0.10201361911E+01 0.  0.
     999903    2    3    3    0    0 -0.50056533422E-01 -0.90543231038E-01  0.73146403434E-01  0.12836482363E+00  0.20576646598E-01 0.  0.
         14    1    1    2    0    0 -0.15538868535E-01 -0.17658933265E-01 -0.14361806323E-03  0.23522648354E-01  0.00000000000E+00 0. -1.
     999901    1    3    3    0    0  0.65595401957E-01  0.10820216430E+00 -0.73002785371E-01  0.89204252802E+00  0.88000000000E+00 0.  1.
        -11    1    4    4    0    0 -0.31450542574E-01 -0.41291158282E-01  0.44803814011E-01  0.68569229626E-01  0.51100000000E-03 0.  1.
         11    1    4    4    0    0 -0.18605990848E-01 -0.49252072755E-01  0.28342589423E-01  0.59795594004E-01  0.51100000000E-03 0. -1.
</event>
<event>
 8    1  0.1103774E+005  0.1043930E+01  0.7957747E-01            NaN
         13   -1    0    0    0    0  0.00000000000E+00  0.00000000000E+00  0.74505805969E-08  0.10566000000E+00  0.10566000000E+00 0. -1.
     999900   -1    0    0    0    0 -0.00000000000E+00 -0.00000000000E+00 -0.74505805969E-08  0.93827000000E+00  0.93827000000E+00 0.  1.
     999902    2    1    2    0    0 -0.18891491212E-02  0.17018260065E-01 -0.15817483902E-01  0.10206194261E+01  0.10203531889E+01 0.  0.
     999903    2    3    3    0    0 -0.26671687355E-01 -0.12302416709E+00  0.13691891898E-01  0.12871311997E+00  0.23092742458E-01 0.  0.
         14    1    1    2    0    0  0.18891491212E-02 -0.17018260065E-01  0.15817483902E-01  0.23310573931E-01  0.00000000000E+00 0. -1.
     999901    1    3    3    0    0  0.24782538234E-01  0.14004242715E+00 -0.29509375800E-01  0.89190630610E+00  0.88000000000E+00 0.  1.
        -11    1    4    4    0    0 -0.32430900416E-02 -0.36519584051E-01  0.13550068928E-01  0.39090448210E-01  0.51100000000E-03 0. -1.
         11    1    4    4    0    0 -0.23428597313E-01 -0.86504583035E-01  0.14182297057E-03  0.89622671757E-01  0.51100000000E-03 0.  1.
</event>
<event>
 8    1  0.1103774E+005  0.1043930E+01  0.7957747E-01            NaN
         13   -1    0    0    0    0  0.00000000000E+00  0.00000000000E+00  0.74505805969E-08  0.10566000000E+00  0.10566000000E+00 0.  1.
     999900   -1    0    0    0    0 -0.00000000000E+00 -0.00000000000E+00 -0.74505805969E-08  0.93827000000E+00  0.93827000000E+00 0.  1.
     999902    2    1    2    0    0  0.65592253151E-03  0.89784991542E-02 -0.22236160551E-01  0.10199406166E+01  0.10196584579E+01 0.  0.
     999903    2    3    3    0    0 -0.70185557943E-02 -0.12718277613E+00  0.33652454980E-02  0.12906788576E+00  0.20554210919E-01 0.  0.
         14    1    1    2    0    0 -0.65592253151E-03 -0.89784991542E-02  0.22236160551E-01  0.23989383433E-01  0.00000000000E+00 0.  1.
     999901    1    3    3    0    0  0.76744783258E-02  0.13616127529E+00 -0.25601406049E-01  0.89087273081E+00  0.88000000000E+00 0.  1.
        -11    1    4    4    0    0  0.27747857736E-02 -0.57502564209E-01 -0.67945714859E-02  0.57971300221E-01  0.51100000000E-03 0. -1.
         11    1    4    4    0    0 -0.97933415679E-02 -0.69680211925E-01  0.10159816984E-01  0.71096585538E-01  0.51100000000E-03 0.  1.
</event>
<event>
 8    1  0.1103774E+005  0.1043930E+01  0.7957747E-01            NaN
         13   -1    0    0    0    0  0.00000000000E+00  0.00000000000E+00  0.74505805969E-08  0.10566000000E+00  0.10566000000E+00 0.  1.
     999900   -1    0    0    0    0 -0.00000000000E+00 -0.00000000000E+00 -0.74505805969E-08  0.93827000000E+00  0.93827000000E+00 0.  1.
     999902    2    1    2    0    0 -0.50352463449E-02 -0.18385450494E-01 -0.10364731137E-01  0.10222319322E+01  0.10220016228E+01 0.  0.
     999903    2    3    3    0    0 -0.52905645486E-01 -0.11093748254E+00 -0.52523699079E-01  0.13508209572E+00  0.19552525771E-01 0.  0.
         14    1    1    2    0    0  0.50352463449E-02  0.18385450494E-01  0.10364731137E-01  0.21698067821E-01  0.00000000000E+00 0. -1.
     999901    1    3    3    0    0  0.47870399141E-01  0.92552032042E-01  0.42158967942E-01  0.88714983646E+00  0.88000000000E+00 0.  1.
        -11    1    4    4    0    0 -0.44975681838E-01 -0.77622924955E-01 -0.32556547359E-01  0.95437520568E-01  0.51100000000E-03 0.  1.
         11    1    4    4    0    0 -0.79299636479E-02 -0.33314557581E-01 -0.19967151721E-01  0.39644575153E-01  0.51100000000E-03 0. -1.
</event>
<event>
 8    1  0.1103774E+005  0.1043930E+01  0.7957747E-01            NaN
         13   -1    0    0    0    0  0.00000000000E+00  0.00000000000E+00  0.74505805969E-08  0.10566000000E+00  0.10566000000E+00 0.  1.
     999900   -1    0    0    0    0 -0.00000000000E+00 -0.00000000000E+00 -0.74505805969E-08  0.93827000000E+00  0.93827000000E+00 0.  1.
     999902    2    1    2    0    0  0.12473007664E-01  0.16574138799E-01 -0.11388540618E-01  0.10202661699E+01  0.10199917061E+01 0.  0.
     999903    2    3    3    0    0 -0.11559366459E+00 -0.34322942283E-02  0.52314367443E-01  0.12849299785E+00  0.19999537999E-01 0.  0.
         14    1    1    2    0    0 -0.12473007664E-01 -0.16574138799E-01  0.11388540618E-01  0.23663830090E-01  0.00000000000E+00 0.  1.
     999901    1    3    3    0    0  0.12806667225E+00  0.20006433027E-01 -0.63702908061E-01  0.89177317206E+00  0.88000000000E+00 0.  1.
        -11    1    4    4    0    0 -0.77132556802E-01 -0.11359371001E-01  0.37539076483E-01  0.86532710651E-01  0.51100000000E-03 0.  1.
         11    1    4    4    0    0 -0.38461107785E-01  0.79270767729E-02  0.14775290960E-01  0.41960287203E-01  0.51100000000E-03 0. -1.
</event>
<event>
 8    1  0.1103774E+005  0.1043930E+01  0.7957747E-01            NaN
         13   -1    0    0    0    0  0.00000000000E+00  0.00000000000E+00  0.74505805969E-08  0.10566000000E+00  0.10566000000E+00 0. -1.
     999900   -1    0    0    0    0 -0.00000000000E+00 -0.00000000000E+00 -0.74505805969E-08  0.93827000000E+00  0.93827000000E+00 0.  1.
     999902    2    1    2    0    0  0.37085016135E-02 -0.80773930771E-02  0.22019964526E-01  0.10201839245E+01  0.10199075271E+01 0.  0.
     999903    2    3    3    0    0 -0.95908395253E-01  0.29883096275E-01  0.82882473633E-01  0.13166337331E+00  0.19347343850E-01 0.  0.
         14    1    1    2    0    0 -0.37085016135E-02  0.80773930771E-02 -0.22019964526E-01  0.23746075484E-01  0.00000000000E+00 0.  1.
     999901    1    3    3    0    0  0.99616896866E-01 -0.37960489352E-01 -0.60862509107E-01  0.88852055120E+00  0.88000000000E+00 0.  1.
        -11    1    4    4    0    0 -0.11327270291E-01  0.16852282657E-02  0.18213302755E-01  0.21520514976E-01  0.51100000000E-03 0. -1.
         11    1    4    4    0    0 -0.84581124962E-01  0.28197868009E-01  0.64669170878E-01  0.11014285834E+00  0.51100000000E-03 0.  1.
</event>
<event>
 8    1  0.1103774E+005  0.1043930E+01  0.7957747E-01            NaN
         13   -1    0    0    0    0  0.00000000000E+00  0.00000000000E+00  0.74505805969E-08  0.10566000000E+00  0.10566000000E+00 0.  1.
     999900   -1    0    0    0    0 -0.00000000000E+00 -0.00000000000E+00 -0.74505805969E-08  0.93827000000E+00  0.93827000000E+00 0. -1.
     999902    2    1    2    0    0  0.18886631832E-01 -0.10241090663E-01 -0.98923448228E-02  0.10202774465E+01  0.10200032473E+01 0.  0.
     999903    2    3    3    0    0 -0.75251046105E-01 -0.19346499317E-01  0.10034424184E+00  0.12837110844E+00  0.19317547363E-01 0.  0.
         14    1    1    2    0    0 -0.18886631832E-01  0.10241090663E-01  0.98923448228E-02  0.23652553478E-01  0.00000000000E+00 0.  1.
     999901    1    3    3    0    0  0.94137677937E-01  0.91054086540E-02 -0.11023658666E+00  0.89190633808E+00  0.88000000000E+00 0. -1.
        -11    1    4    4    0    0 -0.37498513058E-01 -0.41092562981E-02  0.61184357085E-01  0.71880533817E-01  0.51100000000E-03 0.  1.
         11    1    4    4    0    0 -0.37752533047E-01 -0.15237243019E-01  0.39159884753E-01  0.56490574622E-01  0.51100000000E-03 0. -1.
</event>
<event>
 8    1  0.1103774E+005  0.1043930E+01  0.7957747E-01            NaN
         13   -1    0    0    0    0  0.00000000000E+00  0.00000000000E+00  0.74505805969E-08  0.10566000000E+00  0.10566000000E+00 0. -1.
     999900   -1    0    0    0    0 -0.00000000000E+00 -0.00000000000E+00 -0.74505805969E-08  0.93827000000E+00  0.93827000000E+00 0. -1.
     999902    2    1    2    0    0 -0.21646559821E-01  0.12699726359E-02 -0.81553141944E-02  0.10207633099E+01  0.10205003867E+01 0.  0.
     999903    2    3    3    0    0  0.11759634360E+00  0.39408351958E-01  0.26225375802E-01  0.12833675603E+00  0.20015853196E-01 0.  0.
         14    1    1    2    0    0  0.21646559821E-01 -0.12699726359E-02  0.81553141944E-02  0.23166690143E-01  0.00000000000E+00 0. -1.
     999901    1    3    3    0    0 -0.13924290342E+00 -0.38138379323E-01 -0.34380689997E-01  0.89242655383E+00  0.88000000000E+00 0.  1.
        -11    1    4    4    0    0  0.33908141567E-01  0.24822367800E-02  0.99254225824E-02  0.35421726361E-01  0.51100000000E-03 0. -1.
         11    1    4    4    0    0  0.83688202037E-01  0.36926115178E-01  0.16299953220E-01  0.92915029668E-01  0.51100000000E-03 0.  1.
</event>
<event>
 8    1  0.1103774E+005  0.1043930E+01  0.7957747E-01            NaN
         13   -1    0    0    0    0  0.00000000000E+00  0.00000000000E+00  0.74505805969E-08  0.10566000000E+00  0.10566000000E+00 0. -1.
     999900   -1    0    0    0    0 -0.00000000000E+00 -0.00000000000E+00 -0.74505805969E-08  0.93827000000E+00  0.93827000000E+00 0.  1.
     999902    2    1    2    0    0 -0.62762086824E-02 -0.41615537379E-02  0.23086817154E-01  0.10196460454E+01  0.10193568303E+01 0.  0.
     999903    2    3    3    0    0 -0.80044042470E-01 -0.10126335533E+00 -0.60427729838E-02  0.13075967122E+00  0.20006515059E-01 0.  0.
         14    1    1    2    0    0  0.62762086824E-02  0.41615537379E-02 -0.23086817154E-01  0.24283954605E-01  0.00000000000E+00 0.  1.
     999901    1    3    3    0    0  0.73767833788E-01  0.97101801590E-01  0.29129590138E-01  0.88888637418E+00  0.88000000000E+00 0.  1.
        -11    1    4    4    0    0 -0.44673612265E-01 -0.50944122301E-01 -0.12535781100E-01  0.68908941065E-01  0.51100000000E-03 0.  1.
         11    1    4    4    0    0 -0.35370430205E-01 -0.50319233027E-01  0.64930081157E-02  0.61850730155E-01  0.51100000000E-03 0. -1.
</event>
<event>
 8    1  0.1103774E+005  0.1043930E+01  0.7957747E-01            NaN
         13   -1    0    0    0    0  0.00000000000E+00  0.00000000000E+00  0.74505805969E-08  0.10566000000E+00  0.10566000000E+00 0. -1.
     999900   -1    0    0    0    0 -0.00000000000E+00 -0.00000000000E+00 -0.74505805969E-08  0.93827000000E+00  0.93827000000E+00 0.  1.
     999902    2    1    2    0    0 -0.35406384864E-02 -0.17242783814E-01 -0.17424600948E-01  0.10191617455E+01  0.10188607348E+01 0.  0.
     999903    2    3    3    0    0  0.73985598203E-02 -0.71518991722E-01  0.10494401095E+00  0.12897095132E+00  0.21226304063E-01 0.  0.
         14    1    1    2    0    0  0.35406384864E-02  0.17242783814E-01  0.17424600948E-01  0.24768254536E-01  0.00000000000E+00 0. -1.
     999901    1    3    3    0    0 -0.10939198307E-01  0.54276207908E-01 -0.12236861190E+00  0.89019079415E+00  0.88000000000E+00 0.  1.
        -11    1    4    4    0    0  0.19916510109E-02 -0.57375318081E-01  0.67717993550E-01  0.88779961534E-01  0.51100000000E-03 0. -1.
         11    1    4    4    0    0  0.54069088094E-02 -0.14143673642E-01  0.37226017405E-01  0.40190989784E-01  0.51100000000E-03 0.  1.
</event>
<event>
 8    1  0.1103774E+005  0.1043930E+01  0.7957747E-01            NaN
         13   -1    0    0    0    0  0.00000000000E+00  0.00000000000E+00  0.74505805969E-08  0.10566000000E+00  0.10566000000E+00 0. -1.
     999900   -1    0    0    0    0 -0.00000000000E+00 -0.00000000000E+00 -0.74505805969E-08  0.93827000000E+00  0.93827000000E+00 0.  1.
     999902    2    1    2    0    0 -0.83383102389E-02  0.14302423887E-01 -0.16081441183E-01  0.10208497163E+01  0.10205887731E+01 0.  0.
     999903    2    3    3    0    0  0.79508427960E-01 -0.66441617525E-01 -0.77100384346E-01  0.13070368271E+00  0.20072487419E-01 0.  0.
         14    1    1    2    0    0  0.83383102389E-02 -0.14302423887E-01  0.16081441183E-01  0.23080283733E-01  0.00000000000E+00 0.  1.
     999901    1    3    3    0    0 -0.87846738198E-01  0.80744041413E-01  0.61018943163E-01  0.89014603356E+00  0.88000000000E+00 0. -1.
        -11    1    4    4    0    0  0.46150131312E-01 -0.30091605098E-01 -0.31209401824E-01  0.63321617167E-01  0.51100000000E-03 0. -1.
         11    1    4    4    0    0  0.33358296648E-01 -0.36350012428E-01 -0.45890982522E-01  0.67382065541E-01  0.51100000000E-03 0.  1.
</event>
<event>
 8    1  0.1103774E+005  0.1043930E+01  0.7957747E-01            NaN
         13   -1    0    0    0    0  0.00000000000E+00  0.00000000000E+00  0.74505805969E-08  0.10566000000E+00  0.10566000000E+00 0. -1.
     999900   -1    0    0    0    0 -0.00000000000E+00 -0.00000000000E+00 -0.74505805969E-08  0.93827000000E+00  0.93827000000E+00 0. -1.
     999902    2    1    2    0    0  0.49641938061E-02  0.13474517960E-01  0.17386117399E-01  0.10213804339E+01  0.10211314841E+01 0.  0.
     999903    2    3    3    0    0  0.87910956692E-01  0.80867154839E-01  0.57567441689E-01  0.13400426121E+00  0.19372626110E-01 0.  0.
         14    1    1    2    0    0 -0.49641938061E-02 -0.13474517960E-01 -0.17386117399E-01  0.22549566129E-01  0.00000000000E+00 0.  1.
     999901    1    3    3    0    0 -0.82946762886E-01 -0.67392636880E-01 -0.40181324290E-01  0.88737617266E+00  0.88000000000E+00 0.  1.
        -11    1    4    4    0    0  0.10334239064E-01  0.19364669170E-01  0.89309681011E-02  0.23702536179E-01  0.51100000000E-03 0.  1.
         11    1    4    4    0    0  0.77576717629E-01  0.61502485669E-01  0.48636473588E-01  0.11030172503E+00  0.51100000000E-03 0. -1.
</event>
<event>
 8    1  0.1103774E+005  0.1043930E+01  0.7957747E-01            NaN
         13   -1    0    0    0    0  0.00000000000E+00  0.00000000000E+00  0.74505805969E-08  0.10566000000E+00  0.10566000000E+00 0. -1.
     999900   -1    0    0    0    0 -0.00000000000E+00 -0.00000000000E+00 -0.74505805969E-08  0.93827000000E+00  0.93827000000E+00 0.  1.
     999902    2    1    2    0    0  0.15612034530E-01  0.17811029152E-01  0.28520168542E-02  0.10200741332E+01  0.10197951435E+01 0.  0.
     999903    2    3    3    0    0  0.58422924857E-01  0.11502835194E+00  0.17839290667E-01  0.13355927230E+00  0.29581734690E-01 0.  0.
         14    1    1    2    0    0 -0.15612034530E-01 -0.17811029152E-01 -0.28520168542E-02  0.23855866821E-01  0.00000000000E+00 0.  1.
     999901    1    3    3    0    0 -0.42810890327E-01 -0.97217322788E-01 -0.14987273813E-01  0.88651486088E+00  0.88000000000E+00 0.  1.
        -11    1    4    4    0    0  0.26577141145E-01  0.43417423781E-01 -0.68978449176E-02  0.51373714142E-01  0.51100000000E-03 0. -1.
         11    1    4    4    0    0  0.31845783712E-01  0.71610928159E-01  0.24737135585E-01  0.82185558159E-01  0.51100000000E-03 0.  1.
</event>
<event>
 8    1  0.1103774E+005  0.1043930E+01  0.7957747E-01            NaN
         13   -1    0    0    0    0  0.00000000000E+00  0.00000000000E+00  0.74505805969E-08  0.10566000000E+00  0.10566000000E+00 0.  1.
     999900   -1    0    0    0    0 -0.00000000000E+00 -0.00000000000E+00 -0.74505805969E-08  0.93827000000E+00  0.93827000000E+00 0.  1.
     999902    2    1    2    0    0 -0.93530002912E-02 -0.21782685833E-01  0.82236602554E-04  0.10202240771E+01  0.10199486246E+01 0.  0.
     999903    2    3    3    0    0 -0.95866348216E-01 -0.90066682962E-01  0.43972052902E-02  0.13333858136E+00  0.21388729880E-01 0.  0.
         14    1    1    2    0    0  0.93530002912E-02  0.21782685833E-01 -0.82236602554E-04  0.23705922876E-01  0.00000000000E+00 0. -1.
     999901    1    3    3    0    0  0.86513347925E-01  0.68283997129E-01 -0.43149686876E-02  0.88688549576E+00  0.88000000000E+00 0. -1.
        -11    1    4    4    0    0 -0.24610012326E-01 -0.36658465232E-01  0.33185539897E-02  0.44280579281E-01  0.51100000000E-03 0.  1.
         11    1    4    4    0    0 -0.71256335890E-01 -0.53408217730E-01  0.10786513004E-02  0.89058002084E-01  0.51100000000E-03 0. -1.
</event>
<event>
 8    1  0.1103774E+005  0.1043930E+01  0.7957747E-01            NaN
         13   -1    0    0    0    0  0.00000000000E+00  0.00000000000E+00  0.74505805969E-08  0.10566000000E+00  0.10566000000E+00 0.  1.
     999900   -1    0    0    0    0 -0.00000000000E+00 -0.00000000000E+00 -0.74505805969E-08  0.93827000000E+00  0.93827000000E+00 0. -1.
     999902    2    1    2    0    0  0.56231175537E-02 -0.20035351308E-01 -0.90484164286E-02  0.10212384026E+01  0.10209862714E+01 0.  0.
     999903    2    3    3    0    0  0.81357102313E-01 -0.45958701024E-02 -0.10301690295E+00  0.13286680777E+00  0.20025139093E-01 0.  0.
         14    1    1    2    0    0 -0.56231175537E-02  0.20035351308E-01  0.90484164286E-02  0.22691597408E-01  0.00000000000E+00 0.  1.
     999901    1    3    3    0    0 -0.75733984760E-01 -0.15439481206E-01  0.93968486517E-01  0.88837159482E+00  0.88000000000E+00 0.  1.
        -11    1    4    4    0    0  0.22947190825E-02 -0.42096003057E-02 -0.51962204914E-02  0.70886034447E-02  0.51100000000E-03 0. -1.
         11    1    4    4    0    0  0.79062383231E-01 -0.38626979669E-03 -0.97820682454E-01  0.12577820433E+00  0.51100000000E-03 0.  1.
</event>
<event>
 8    1  0.1103774E+005  0.1043930E+01  0.7957747E-01            NaN
         13   -1    0    0    0    0  0.00000000000E+00  0.00000000000E+00  0.74505805969E-08  0.10566000000E+00  0.10566000000E+00 0.  1.
     999900   -1    0    0    0    0 -0.00000000000E+00 -0.00000000000E+00 -0.74505805969E-08  0.93827000000E+00  0.93827000000E+00 0. -1.
     999902    2    1    2    0    0  0.54519636769E-02  0.36897236945E-02  0.21601607871E-01  0.10213475415E+01  0.10210978568E+01 0.  0.
     999903    2    3    3    0    0  0.11903314530E+00  0.60425674612E-02  0.56577187629E-01  0.13335569928E+00  0.19425809340E-01 0.  0.
         14    1    1    2    0    0 -0.54519636769E-02 -0.36897236945E-02 -0.21601607871E-01  0.22582458490E-01  0.00000000000E+00 0. -1.
     999901    1    3    3    0    0 -0.11358118162E+00 -0.23528437666E-02 -0.34975579758E-01  0.88799184223E+00  0.88000000000E+00 0. -1.
        -11    1    4    4    0    0  0.18388207334E-01  0.79723209534E-02  0.10778245649E-01  0.22762156546E-01  0.51100000000E-03 0.  1.
         11    1    4    4    0    0  0.10064493796E+00 -0.19297534922E-02  0.45798941980E-01  0.11059354273E+00  0.51100000000E-03 0. -1.
</event>
<event>
 8    1  0.1103774E+005  0.1043930E+01  0.7957747E-01            NaN
         13   -1    0    0    0    0  0.00000000000E+00  0.00000000000E+00  0.74505805969E-08  0.10566000000E+00  0.10566000000E+00 0. -1.
     999900   -1    0    0    0    0 -0.00000000000E+00 -0.00000000000E+00 -0.74505805969E-08  0.93827000000E+00  0.93827000000E+00 0. -1.
     999902    2    1    2    0    0 -0.21911440906E-01 -0.18628562669E-02 -0.70666366901E-02  0.10208319735E+01  0.10205706243E+01 0.  0.
     999903    2    3    3    0    0  0.72150631048E-01  0.10482600941E+00 -0.11506251586E-01  0.12940059774E+00  0.20442970918E-01 0.  0.
         14    1    1    2    0    0  0.21911440906E-01  0.18628562669E-02  0.70666366901E-02  0.23098026543E-01  0.00000000000E+00 0. -1.
     999901    1    3    3    0    0 -0.94062071954E-01 -0.10668886567E+00  0.44396148961E-02  0.89143137572E+00  0.88000000000E+00 0.  1.
        -11    1    4    4    0    0  0.33146188134E-01  0.57710671457E-01 -0.14668438332E-01  0.68151416654E-01  0.51100000000E-03 0. -1.
         11    1    4    4    0    0  0.39004442914E-01  0.47115337951E-01  0.31621867459E-02  0.61249181083E-01  0.51100000000E-03 0.  1.
</event>
<event>
 8    1  0.1103774E+005  0.1043930E+01  0.7957747E-01            NaN
         13   -1    0    0    0    0  0.00000000000E+00  0.00000000000E+00  0.74505805969E-08  0.10566000000E+00  0.10566000000E+00 0.  1.
     999900   -1    0    0    0    0 -0.00000000000E+00 -0.00000000000E+00 -0.74505805969E-08  0.93827000000E+00  0.93827000000E+00 0. -1.
     999902    2    1    2    0    0  0.20210634670E-02 -0.16873396311E-01  0.17880082955E-01  0.10192623376E+01  0.10189637969E+01 0.  0.
     999903    2    3    3    0    0  0.62423864170E-01 -0.94397492148E-01 -0.61062493920E-01  0.13027954015E+00  0.20892703876E-01 0.  0.
         14    1    1    2    0    0 -0.20210634670E-02  0.16873396311E-01 -0.17880082955E-01  0.24667662376E-01  0.00000000000E+00 0. -1.
     999901    1    3    3    0    0 -0.60402800703E-01  0.77524095837E-01  0.78942576874E-01  0.88898279748E+00  0.88000000000E+00 0. -1.
        -11    1    4    4    0    0  0.91426841547E-02 -0.30705272176E-01 -0.17142202938E-01  0.36338941310E-01  0.51100000000E-03 0.  1.
         11    1    4    4    0    0  0.53281180015E-01 -0.63692219972E-01 -0.43920290981E-01  0.93940598836E-01  0.51100000000E-03 0. -1.
</event>
<event>
 8    1  0.1103774E+005  0.1043930E+01  0.7957747E-01            NaN
         13   -1    0    0    0    0  0.00000000000E+00  0.00000000000E+00  0.74505805969E-08  0.10566000000E+00  0.10566000000E+00 0.  1.
     999900   -1    0    0    0    0 -0.00000000000E+00 -0.00000000000E+00 -0.74505805969E-08  0.93827000000E+00  0.93827000000E+00 0.  1.
     999902    2    1    2    0    0 -0.13406711874E-01 -0.17099493881E-01  0.10604089595E-01  0.10197519246E+01  0.10194652561E+01 0.  0.
     999903    2    3    3    0    0 -0.78009558946E-01 -0.96497586921E-01 -0.41371655098E-01  0.13229541126E+00  0.19828928996E-01 0.  0.
         14    1    1    2    0    0  0.13406711874E-01  0.17099493881E-01 -0.10604089595E-01  0.24178075408E-01  0.00000000000E+00 0.  1.
     999901    1    3    3    0    0  0.64602847071E-01  0.79398093040E-01  0.51975744694E-01  0.88745651334E+00  0.88000000000E+00 0. -1.
        -11    1    4    4    0    0 -0.38169344418E-01 -0.48113781291E-01 -0.30887549512E-01  0.68746902761E-01  0.51100000000E-03 0.  1.
         11    1    4    4    0    0 -0.39840214528E-01 -0.48383805630E-01 -0.10484105586E-01  0.63548508494E-01  0.51100000000E-03 0. -1.
</event>
<event>
 7    1  0.1183540E+005  0.1043930E+01  0.7957747E-01            NaN
         13   -1    0    0    0    0  0.00000000000E+00  0.00000000000E+00  0.74505805969E-08  0.10566000000E+00  0.10566000000E+00 0. -1.
     999900   -1    0    0    0    0 -0.00000000000E+00 -0.00000000000E+00 -0.74505805969E-08  0.93827000000E+00  0.93827000000E+00 0. -1.
     999903    2    1    2    0    0  0.37375293886E-01 -0.91026924024E-01  0.41344334176E-01  0.10854131913E+00  0.19724363091E-01 0.  0.
         14    1    1    2    0    0  0.16495223824E-01  0.78647964628E-02  0.42109981682E-01  0.45904226272E-01  0.00000000000E+00 0. -1.
     999901    1    1    2    0    0 -0.53870517710E-01  0.83162127561E-01 -0.83454315857E-01  0.88948445460E+00  0.88000000000E+00 0. -1.
        -11    1    3    3    0    0  0.15445297930E-01 -0.60742088320E-01  0.29833867014E-01  0.69415266791E-01  0.51100000000E-03 0.  1.
         11    1    3    3    0    0  0.21929995956E-01 -0.30284835704E-01  0.11510467161E-01  0.39126052338E-01  0.51100000000E-03 0. -1.
</event>
<event>
 8    1  0.1103774E+005  0.1043930E+01  0.7957747E-01            NaN
         13   -1    0    0    0    0  0.00000000000E+00  0.00000000000E+00  0.74505805969E-08  0.10566000000E+00  0.10566000000E+00 0. -1.
     999900   -1    0    0    0    0 -0.00000000000E+00 -0.00000000000E+00 -0.74505805969E-08  0.93827000000E+00  0.93827000000E+00 0.  1.
     999902    2    1    2    0    0 -0.19488170133E-01 -0.69534763497E-02 -0.12381203079E-01  0.10198170616E+01  0.10195319541E+01 0.  0.
     999903    2    3    3    0    0 -0.12729374501E+00  0.19329280939E-01 -0.23857587878E-01  0.13277448500E+00  0.21967265348E-01 0.  0.
         14    1    1    2    0    0  0.19488170133E-01  0.69534763497E-02  0.12381203079E-01  0.24112938398E-01  0.00000000000E+00 0.  1.
     999901    1    3    3    0    0  0.10780557487E+00 -0.26282757289E-01  0.11476384799E-01  0.88704257661E+00  0.88000000000E+00 0.  1.
        -11    1    4    4    0    0 -0.81140068072E-01  0.89890694597E-02 -0.48000490377E-02  0.81779065831E-01  0.51100000000E-03 0.  1.
         11    1    4    4    0    0 -0.46153676936E-01  0.10340211480E-01 -0.19057538840E-01  0.50995419165E-01  0.51100000000E-03 0. -1.
</event>
<event>
 8    1  0.1103774E+005  0.1043930E+01  0.7957747E-01            NaN
         13   -1    0    0    0    0  0.00000000000E+00  0.00000000000E+00  0.74505805969E-08  0.10566000000E+00  0.10566000000E+00 0. -1.
     999900   -1    0    0    0    0 -0.00000000000E+00 -0.00000000000E+00 -0.74505805969E-08  0.93827000000E+00  0.93827000000E+00 0. -1.
     999902    2    1    2    0    0 -0.52715536305E-02  0.95472121484E-02 -0.20775281007E-01  0.10204661802E+01  0.10201963900E+01 0.  0.
     999903    2    3    3    0    0  0.26841328657E-01  0.10252342528E+00 -0.77926192328E-01  0.13314321756E+00  0.20569766043E-01 0.  0.
         14    1    1    2    0    0  0.52715536305E-02 -0.95472121484E-02  0.20775281007E-01  0.23463819774E-01  0.00000000000E+00 0. -1.
     999901    1    3    3    0    0 -0.32112882287E-01 -0.92976213132E-01  0.57150911321E-01  0.88732296267E+00  0.88000000000E+00 0.  1.
        -11    1    4    4    0    0  0.24365928761E-01  0.90662563709E-01 -0.59714173252E-01  0.11126294330E+00  0.51100000000E-03 0.  1.
         11    1    4    4    0    0  0.24753998959E-02  0.11860861571E-01 -0.18212019076E-01  0.21880274259E-01  0.51100000000E-03 0. -1.
</event>
<event>
 8    1  0.1103774E+005  0.1043930E+01  0.7957747E-01            NaN
         13   -1    0    0    0    0  0.00000000000E+00  0.00000000000E+00  0.74505805969E-08  0.10566000000E+00  0.10566000000E+00 0. -1.
     999900   -1    0    0    0    0 -0.00000000000E+00 -0.00000000000E+00 -0.74505805969E-08  0.93827000000E+00  0.93827000000E+00 0. -1.
     999902    2    1    2    0    0  0.17077167303E-01 -0.80422316030E-03 -0.24853534976E-02  0.10266541961E+01  0.10265088334E+01 0.  0.
     999903    2    3    3    0    0 -0.12172539816E+00  0.50555173006E-01  0.10621683487E-01  0.13419930416E+00  0.22885257281E-01 0.  0.
         14    1    1    2    0    0 -0.17077167303E-01  0.80422316030E-03  0.24853534976E-02  0.17275803888E-01  0.00000000000E+00 0. -1.
     999901    1    3    3    0    0  0.13880256547E+00 -0.51359396166E-01 -0.13107036984E-01  0.89245489195E+00  0.88000000000E+00 0. -1.
        -11    1    4    4    0    0 -0.79234049696E-01  0.35647091148E-01  0.17538724743E-01  0.88637563849E-01  0.51100000000E-03 0.  1.
         11    1    4    4    0    0 -0.42491348466E-01  0.14908081858E-01 -0.69170412560E-02  0.45561740308E-01  0.51100000000E-03 0. -1.
</event>
<event>
 8    1  0.1103774E+005  0.1043930E+01  0.7957747E-01            NaN
         13   -1    0    0    0    0  0.00000000000E+00  0.00000000000E+00  0.74505805969E-08  0.10566000000E+00  0.10566000000E+00 0.  1.
     999900   -1    0    0    0    0 -0.00000000000E+00 -0.00000000000E+00 -0.74505805969E-08  0.93827000000E+00  0.93827000000E+00 0. -1.
     999902    2    1    2    0    0  0.43962422191E-02 -0.24165620344E-01 -0.26270931482E-02  0.10192276566E+01  0.10189282655E+01 0.  0.
     999903    2    3    3    0    0 -0.50272265083E-01  0.48407686589E-01  0.10532554459E+00  0.12798733962E+00  0.20412839132E-01 0.  0.
         14    1    1    2    0    0 -0.43962422191E-02  0.24165620344E-01  0.26270931482E-02  0.24702343425E-01  0.00000000000E+00 0.  1.
     999901    1    3    3    0    0  0.54668507302E-01 -0.72573306933E-01 -0.10795263774E+00  0.89124031695E+00  0.88000000000E+00 0.  1.
        -11    1    4    4    0    0 -0.22889564201E-01  0.31193945293E-01  0.43563480766E-01  0.58266906128E-01  0.51100000000E-03 0. -1.
         11    1    4    4    0    0 -0.27382700882E-01  0.17213741296E-01  0.61762063829E-01  0.69720433493E-01  0.51100000000E-03 0.  1.
</event>
<event>
 8    1  0.1103774E+005  0.1043930E+01  0.7957747E-01            NaN
         13   -1    0    0    0    0  0.00000000000E+00  0.00000000000E+00  0.74505805969E-08  0.10566000000E+00  0.10566000000E+00 0.  1.
     999900   -1    0    0    0    0 -0.00000000000E+00 -0.00000000000E+00 -0.74505805969E-08  0.93827000000E+00  0.93827000000E+00 0.  1.
     999902    2    1    2    0    0  0.69586486934E-02  0.15931708763E-01  0.14737884667E-01  0.10211386117E+01  0.10208842329E+01 0.  0.
     999903    2    3    3    0    0  0.98656333361E-01 -0.77868870167E-01 -0.28032058700E-01  0.13038820782E+00  0.20461069604E-01 0.  0.
         14    1    1    2    0    0 -0.69586486934E-02 -0.15931708763E-01 -0.14737884667E-01  0.22791388290E-01  0.00000000000E+00 0. -1.
     999901    1    3    3    0    0 -0.91697684667E-01  0.93800578930E-01  0.42769943367E-01  0.89075040389E+00  0.88000000000E+00 0.  1.
        -11    1    4    4    0    0  0.29490310804E-01 -0.27398722993E-01 -0.18272867026E-01  0.44210035550E-01  0.51100000000E-03 0. -1.
         11    1    4    4    0    0  0.69166022556E-01 -0.50470147174E-01 -0.97591916738E-02  0.86178172266E-01  0.51100000000E-03 0.  1.
</event>
<event>
 8    1  0.1103774E+005  0.1043930E+01  0.7957747E-01            NaN
         13   -1    0    0    0    0  0.00000000000E+00  0.00000000000E+00  0.74505805969E-08  0.10566000000E+00  0.10566000000E+00 0. -1.
     999900   -1    0    0    0    0 -0.00000000000E+00 -0.00000000000E+00 -0.74505805969E-08  0.93827000000E+00  0.93827000000E+00 0. -1.
     999902    2    1    2    0    0  0.19145569505E-01 -0.98409977882E-02  0.10163789809E-01  0.10201245239E+01  0.10198467255E+01 0.  0.
     999903    2    3    3    0    0 -0.72722644419E-01 -0.58921773022E-01 -0.85737652917E-01  0.12880764537E+00  0.21911321992E-01 0.  0.
         14    1    1    2    0    0 -0.19145569505E-01  0.98409977882E-02 -0.10163789809E-01  0.23805476102E-01  0.00000000000E+00 0.  1.
     999901    1    3    3    0    0  0.91868213924E-01  0.49080775234E-01  0.95901442726E-01  0.89131687853E+00  0.88000000000E+00 0.  1.
        -11    1    4    4    0    0 -0.18268591482E-01 -0.27948874055E-01 -0.27252173724E-01  0.43102471964E-01  0.51100000000E-03 0.  1.
         11    1    4    4    0    0 -0.54454052937E-01 -0.30972898967E-01 -0.58485479193E-01  0.85705173409E-01  0.51100000000E-03 0. -1.
</event>
<event>
 8    1  0.1103774E+005  0.1043930E+01  0.7957747E-01            NaN
         13   -1    0    0    0    0  0.00000000000E+00  0.00000000000E+00  0.74505805969E-08  0.10566000000E+00  0.10566000000E+00 0. -1.
     999900   -1    0    0    0    0 -0.00000000000E+00 -0.00000000000E+00 -0.74505805969E-08  0.93827000000E+00  0.93827000000E+00 0. -1.
     999902    2    1    2    0    0 -0.19488144695E-01  0.11571088582E-01  0.10878482223E-01  0.10187900070E+01  0.10184797784E+01 0.  0.
     999903    2    3    3    0    0  0.10121048805E+00  0.75939807781E-01  0.48594068875E-03  0.12816129819E+00  0.20363322900E-01 0.  0.
         14    1    1    2    0    0  0.19488144695E-01 -0.11571088582E-01 -0.10878482223E-01  0.25139993041E-01  0.00000000000E+00 0.  1.
     999901    1    3    3    0    0 -0.12069863274E+00 -0.64368719199E-01  0.10392541534E-01  0.89062870877E+00  0.88000000000E+00 0. -1.
        -11    1    4    4    0    0  0.50755528003E-01  0.28138753562E-01  0.64900910467E-02  0.58397735210E-01  0.51100000000E-03 0.  1.
         11    1    4    4    0    0  0.50454960045E-01  0.47801054219E-01 -0.60041503580E-02  0.69763562984E-01  0.51100000000E-03 0. -1.
</event>
<event>
 8    1  0.1103774E+005  0.1043930E+01  0.7957747E-01            NaN
         13   -1    0    0    0    0  0.00000000000E+00  0.00000000000E+00  0.74505805969E-08  0.10566000000E+00  0.10566000000E+00 0. -1.
     999900   -1    0    0    0    0 -0.00000000000E+00 -0.00000000000E+00 -0.74505805969E-08  0.93827000000E+00  0.93827000000E+00 0. -1.
     999902    2    1    2    0    0 -0.24074640635E-02  0.25364209016E-01  0.82461175647E-02  0.10171505781E+01  0.10167979942E+01 0.  0.
     999903    2    3    3    0    0 -0.25485878126E-01 -0.11207868645E+00  0.45881787471E-01  0.12538849865E+00  0.20148827040E-01 0.  0.
         14    1    1    2    0    0  0.24074640635E-02 -0.25364209016E-01 -0.82461175647E-02  0.26779421897E-01  0.00000000000E+00 0. -1.
     999901    1    3    3    0    0  0.23078414062E-01  0.13744289547E+00 -0.37635669906E-01  0.89176207946E+00  0.88000000000E+00 0. -1.
        -11    1    4    4    0    0 -0.11091639977E-01 -0.76900248366E-01  0.23044711991E-01  0.81043152381E-01  0.51100000000E-03 0. -1.
         11    1    4    4    0    0 -0.14394238149E-01 -0.35178438083E-01  0.22837075480E-01  0.44345346264E-01  0.51100000000E-03 0.  1.
</event>
<event>
 8    1  0.1103774E+005  0.1043930E+01  0.7957747E-01            NaN
         13   -1    0    0    0    0  0.00000000000E+00  0.00000000000E+00  0.74505805969E-08  0.10566000000E+00  0.10566000000E+00 0. -1.
     999900   -1    0    0    0    0 -0.00000000000E+00 -0.00000000000E+00 -0.74505805969E-08  0.93827000000E+00  0.93827000000E+00 0. -1.
     999902    2    1    2    0    0 -0.14106097267E-01  0.99862522041E-02  0.15095302946E-01  0.10209827696E+01  0.10207248603E+01 0.  0.
     999903    2    3    3    0    0  0.31380675286E-01  0.76768647728E-01  0.10199256350E+00  0.13301876765E+00  0.20330702938E-01 0.  0.
         14    1    1    2    0    0  0.14106097267E-01 -0.99862522041E-02 -0.15095302946E-01  0.22947230426E-01  0.00000000000E+00 0.  1.
     999901    1    3    3    0    0 -0.45486772552E-01 -0.66782395523E-01 -0.86897260551E-01  0.88796400193E+00  0.88000000000E+00 0. -1.
        -11    1    4    4    0    0  0.22561554058E-01  0.65006002237E-01  0.93303895342E-01  0.11593395558E+00  0.51100000000E-03 0. -1.
         11    1    4    4    0    0  0.88191212280E-02  0.11762645491E-01  0.86886681551E-02  0.17084812071E-01  0.51100000000E-03 0.  1.
</event>
<event>
 8    1  0.1103774E+005  0.1043930E+01  0.7957747E-01            NaN
         13   -1    0    0    0    0  0.00000000000E+00  0.00000000000E+00  0.74505805969E-08  0.10566000000E+00  0.10566000000E+00 0.  1.
     999900   -1    0    0    0    0 -0.00000000000E+00 -0.00000000000E+00 -0.74505805969E-08  0.93827000000E+00  0.93827000000E+00 0. -1.
     999902    2    1    2    0    0  0.21175388495E-01 -0.97644988162E-02  0.43845510819E-02  0.10202030785E+01  0.10199271320E+01 0.  0.
     999903    2    3    3    0    0 -0.77514276220E-01 -0.33578635318E-01  0.96833239133E-01  0.12955526768E+00  0.16489494080E-01 0.  0.
         14    1    1    2    0    0 -0.21175388495E-01  0.97644988162E-02 -0.43845510819E-02  0.23726921486E-01  0.00000000000E+00 0. -1.
     999901    1    3    3    0    0  0.98689664715E-01  0.23814136502E-01 -0.92448688052E-01  0.89064781083E+00  0.88000000000E+00 0.  1.
        -11    1    4    4    0    0 -0.58655059727E-01 -0.19310795075E-01  0.76870041178E-01  0.98603180424E-01  0.51100000000E-03 0.  1.
         11    1    4    4    0    0 -0.18859216493E-01 -0.14267840244E-01  0.19963197955E-01  0.30952087256E-01  0.51100000000E-03 0. -1.
</event>
<event>
 8    1  0.1103774E+005  0.1043930E+01  0.7957747E-01            NaN
         13   -1    0    0    0    0  0.00000000000E+00  0.00000000000E+00  0.74505805969E-08  0.10566000000E+00  0.10566000000E+00 0.  1.
     999900   -1    0    0    0    0 -0.00000000000E+00 -0.00000000000E+00 -0.74505805969E-08  0.93827000000E+00  0.93827000000E+00 0. -1.
     999902    2    1    2    0    0 -0.11246374502E-01 -0.26412473095E-02 -0.20714636047E-01  0.10202117945E+01  0.10199360531E+01 0.  0.
     999903    2    3    3    0    0  0.12530189415E+00 -0.59532868362E-02  0.21433366704E-01  0.12867780555E+00  0.19041589501E-01 0.  0.
         14    1    1    2    0    0  0.11246374502E-01  0.26412473095E-02  0.20714636047E-01  0.23718205525E-01  0.00000000000E+00 0.  1.
     999901    1    3    3    0    0 -0.13654826865E+00  0.33120395267E-02 -0.42148002751E-01  0.89153398893E+00  0.88000000000E+00 0. -1.
        -11    1    4    4    0    0  0.45702917578E-01 -0.91072881101E-02  0.18401150451E-02  0.46640610162E-01  0.51100000000E-03 0. -1.
         11    1    4    4    0    0  0.79598976571E-01  0.31540012739E-02  0.19593251659E-01  0.82037195385E-01  0.51100000000E-03 0.  1.
</event>
<event>
 8    1  0.1103774E+005  0.1043930E+01  0.7957747E-01            NaN
         13   -1    0    0    0    0  0.00000000000E+00  0.00000000000E+00  0.74505805969E-08  0.10566000000E+00  0.10566000000E+00 0.  1.
     999900   -1    0    0    0    0 -0.00000000000E+00 -0.00000000000E+00 -0.74505805969E-08  0.93827000000E+00  0.93827000000E+00 0.  1.
     999902    2    1    2    0    0  0.13426630342E-01  0.15995556391E-01 -0.12140738741E-01  0.10197736393E+01  0.10194874916E+01 0.  0.
     999903    2    3    3    0    0  0.11118556375E+00 -0.65229945702E-01 -0.60114884245E-02  0.13062125696E+00  0.20213841165E-01 0.  0.
         14    1    1    2    0    0 -0.13426630342E-01 -0.15995556391E-01  0.12140738741E-01  0.24156360731E-01  0.00000000000E+00 0. -1.
     999901    1    3    3    0    0 -0.97758933408E-01  0.81225502093E-01 -0.61292503167E-02  0.88915238231E+00  0.88000000000E+00 0. -1.
        -11    1    4    4    0    0  0.92416471403E-01 -0.50275400510E-01 -0.11977041371E-01  0.10588734922E+00  0.51100000000E-03 0. -1.
         11    1    4    4    0    0  0.18769092347E-01 -0.14954545192E-01  0.59655529468E-02  0.24733907746E-01  0.51100000000E-03 0.  1.
</event>
<event>
 8    1  0.1103774E+005  0.1043930E+01  0.7957747E-01            NaN
         13   -1    0    0    0    0  0.00000000000E+00  0.00000000000E+00  0.74505805969E-08  0.10566000000E+00  0.10566000000E+00 0. -1.
     999900   -1    0    0    0    0 -0.00000000000E+00 -0.00000000000E+00 -0.74505805969E-08  0.93827000000E+00  0.93827000000E+00 0.  1.
     999902    2    1    2    0    0 -0.14129630133E-01  0.39057723718E-02  0.18232975766E-01  0.10205346391E+01  0.10202664391E+01 0.  0.
     999903    2    3    3    0    0 -0.82993407712E-01 -0.94623280302E-01 -0.30770137761E-01  0.13101145268E+00  0.19383716246E-01 0.  0.
         14    1    1    2    0    0  0.14129630133E-01 -0.39057723718E-02 -0.18232975766E-01  0.23395360883E-01  0.00000000000E+00 0.  1.
     999901    1    3    3    0    0  0.68863777578E-01  0.98529052674E-01  0.49003113528E-01  0.88952318644E+00  0.88000000000E+00 0.  1.
        -11    1    4    4    0    0 -0.46080284692E-01 -0.65820346987E-01 -0.22733306043E-01  0.83503143889E-01  0.51100000000E-03 0.  1.
         11    1    4    4    0    0 -0.36913123020E-01 -0.28802933315E-01 -0.80368317182E-02  0.47508308786E-01  0.51100000000E-03 0. -1.
</event>
<event>
 7    1  0.1103774E+005  0.1043930E+01  0.7957747E-01            NaN
         13   -1    0    0    0    0  0.00000000000E+00  0.00000000000E+00  0.74505805969E-08  0.10566000000E+00  0.10566000000E+00 0. -1.
     999900   -1    0    0    0    0 -0.00000000000E+00 -0.00000000000E+00 -0.74505805969E-08  0.93827000000E+00  0.93827000000E+00 0.  1.
     999903    2    1    2    0    0 -0.64407644818E-02  0.45873777103E-01 -0.97653930825E-01  0.10995723192E+00  0.20209299188E-01 0.  0.
         14    1    1    2    0    0 -0.32231965108E-03 -0.20098877140E-02 -0.41832354937E-01  0.41881851178E-01  0.00000000000E+00 0.  1.
     999901    1    1    2    0    0  0.67630841329E-02 -0.43863889389E-01  0.13948628576E+00  0.89209091690E+00  0.88000000000E+00 0. -1.
        -11    1    3    3    0    0 -0.12875690253E-01  0.30508893668E-01 -0.73440669357E-01  0.80562826595E-01  0.51100000000E-03 0.  1.
         11    1    3    3    0    0  0.64349257709E-02  0.15364883435E-01 -0.24213261467E-01  0.29394405327E-01  0.51100000000E-03 0. -1.
</event>
<event>
 8    1  0.1103774E+005  0.1043930E+01  0.7957747E-01            NaN
         13   -1    0    0    0    0  0.00000000000E+00  0.00000000000E+00  0.74505805969E-08  0.10566000000E+00  0.10566000000E+00 0. -1.
     999900   -1    0    0    0    0 -0.00000000000E+00 -0.00000000000E+00 -0.74505805969E-08  0.93827000000E+00  0.93827000000E+00 0. -1.
     999902    2    1    2    0    0 -0.22260033459E-01 -0.28804203658E-04  0.79911482974E-02  0.10202790302E+01  0.10200048682E+01 0.  0.
     999903    2    3    3    0    0  0.12327588118E+00 -0.52925163521E-03  0.29492668927E-01  0.12806646124E+00  0.18275064623E-01 0.  0.
         14    1    1    2    0    0  0.22260033459E-01  0.28804203658E-04 -0.79911482974E-02  0.23650969756E-01  0.00000000000E+00 0.  1.
     999901    1    3    3    0    0 -0.14553591464E+00  0.50044743155E-03 -0.21501520630E-01  0.89221256900E+00  0.88000000000E+00 0.  1.
        -11    1    4    4    0    0  0.92772577360E-01  0.71495446399E-02  0.24429041686E-01  0.96202423552E-01  0.51100000000E-03 0. -1.
         11    1    4    4    0    0  0.30503303818E-01 -0.76787962751E-02  0.50636272412E-02  0.31864037689E-01  0.51100000000E-03 0.  1.
</event>
<event>
 8    1  0.1103774E+005  0.1043930E+01  0.7957747E-01            NaN
         13   -1    0    0    0    0  0.00000000000E+00  0.00000000000E+00  0.74505805969E-08  0.10566000000E+00  0.10566000000E+00 0. -1.
     999900   -1    0    0    0    0 -0.00000000000E+00 -0.00000000000E+00 -0.74505805969E-08  0.93827000000E+00  0.93827000000E+00 0.  1.
     999902    2    1    2    0    0  0.16180174946E-01  0.18442797321E-02 -0.15832348650E-01  0.10212173891E+01  0.10209647855E+01 0.  0.
     999903    2    3    3    0    0 -0.87412752568E-01 -0.90952832362E-01  0.21731993759E-01  0.12950337754E+00  0.19632580425E-01 0.  0.
         14    1    1    2    0    0 -0.16180174946E-01 -0.18442797321E-02  0.15832348650E-01  0.22712610875E-01  0.00000000000E+00 0. -1.
     999901    1    3    3    0    0  0.10359292751E+00  0.92797112095E-01 -0.37564342408E-01  0.89171401159E+00  0.88000000000E+00 0.  1.
        -11    1    4    4    0    0 -0.53937846010E-01 -0.55438888881E-01  0.35870187714E-02  0.77433128938E-01  0.51100000000E-03 0. -1.
         11    1    4    4    0    0 -0.33474906558E-01 -0.35513943482E-01  0.18144974987E-01  0.52070248597E-01  0.51100000000E-03 0.  1.
</event>
<event>
 8    1  0.1103774E+005  0.1043930E+01  0.7957747E-01            NaN
         13   -1    0    0    0    0  0.00000000000E+00  0.00000000000E+00  0.74505805969E-08  0.10566000000E+00  0.10566000000E+00 0.  1.
     999900   -1    0    0    0    0 -0.00000000000E+00 -0.00000000000E+00 -0.74505805969E-08  0.93827000000E+00  0.93827000000E+00 0. -1.
     999902    2    1    2    0    0  0.19009924861E-01  0.56785082789E-02  0.17916558802E-01  0.10171975145E+01  0.10168461820E+01 0.  0.
     999903    2    3    3    0    0  0.93838989548E-01 -0.14013718047E-02  0.88354343102E-01  0.13118905235E+00  0.24420436287E-01 0.  0.
         14    1    1    2    0    0 -0.19009924861E-01 -0.56785082789E-02 -0.17916558802E-01  0.26732485458E-01  0.00000000000E+00 0. -1.
     999901    1    3    3    0    0 -0.74829064687E-01  0.70798800836E-02 -0.70437784300E-01  0.88600846219E+00  0.88000000000E+00 0. -1.
        -11    1    4    4    0    0  0.42361492199E-01  0.10639171195E-01  0.33901142599E-01  0.55292283146E-01  0.51100000000E-03 0.  1.
         11    1    4    4    0    0  0.51477497349E-01 -0.12040543000E-01  0.54453200503E-01  0.75896769201E-01  0.51100000000E-03 0. -1.
</event>
<event>
 8    1  0.1103774E+005  0.1043930E+01  0.7957747E-01            NaN
         13   -1    0    0    0    0  0.00000000000E+00  0.00000000000E+00  0.74505805969E-08  0.10566000000E+00  0.10566000000E+00 0. -1.
     999900   -1    0    0    0    0 -0.00000000000E+00 -0.00000000000E+00 -0.74505805969E-08  0.93827000000E+00  0.93827000000E+00 0. -1.
     999902    2    1    2    0    0 -0.15031176157E-02  0.32867309815E-02  0.20631836834E-01  0.10229840062E+01  0.10227695451E+01 0.  0.
     999903    2    3    3    0    0 -0.33819530295E-02  0.13185783037E+00  0.34716606380E-02  0.13347373128E+00  0.20131057551E-01 0.  0.
         14    1    1    2    0    0  0.15031176157E-02 -0.32867309815E-02 -0.20631836834E-01  0.20945993752E-01  0.00000000000E+00 0.  1.
     999901    1    3    3    0    0  0.18788354138E-02 -0.12857109939E+00  0.17160176196E-01  0.88951027496E+00  0.88000000000E+00 0.  1.
        -11    1    4    4    0    0 -0.93577529228E-02  0.71279036710E-01 -0.47341521009E-02  0.72048191727E-01  0.51100000000E-03 0.  1.
         11    1    4    4    0    0  0.59757998933E-02  0.60578793663E-01  0.82058127389E-02  0.61425539556E-01  0.51100000000E-03 0. -1.
</event>
<event>
 8    1  0.1103774E+005  0.1043930E+01  0.7957747E-01            NaN
         13   -1    0    0    0    0  0.00000000000E+00  0.00000000000E+00  0.74505805969E-08  0.10566000000E+00  0.10566000000E+00 0. -1.
     999900   -1    0    0    0    0 -0.00000000000E+00 -0.00000000000E+00 -0.74505805969E-08  0.93827000000E+00  0.93827000000E+00 0. -1.
     999902    2    1    2    0    0 -0.15823440244E-01  0.11002363652E-01  0.17940913364E-01  0.10175992264E+01  0.10172585099E+01 0.  0.
     999903    2    3    3    0    0 -0.36925389960E-01 -0.56698932218E-01 -0.10519570539E+00  0.12620067095E+00  0.16799392190E-01 0.  0.
         14    1    1    2    0    0  0.15823440244E-01 -0.11002363652E-01 -0.17940913364E-01  0.26330773620E-01  0.00000000000E+00 0.  1.
     999901    1    3    3    0    0  0.21101949716E-01  0.67701295870E-01  0.12313661875E+00  0.89139855543E+00  0.88000000000E+00 0. -1.
        -11    1    4    4    0    0 -0.45194187149E-02 -0.20983347245E-01 -0.31100875698E-01  0.37792216095E-01  0.51100000000E-03 0.  1.
         11    1    4    4    0    0 -0.32405971245E-01 -0.35715584973E-01 -0.74094829690E-01  0.88408454856E-01  0.51100000000E-03 0. -1.
</event>
<event>
 8    1  0.1103774E+005  0.1043930E+01  0.7957747E-01            NaN
         13   -1    0    0    0    0  0.00000000000E+00  0.00000000000E+00  0.74505805969E-08  0.10566000000E+00  0.10566000000E+00 0.  1.
     999900   -1    0    0    0    0 -0.00000000000E+00 -0.00000000000E+00 -0.74505805969E-08  0.93827000000E+00  0.93827000000E+00 0.  1.
     999902    2    1    2    0    0  0.78469158258E-02  0.73480086782E-02  0.29078603951E-01  0.10129278625E+01  0.10124533185E+01 0.  0.
     999903    2    3    3    0    0  0.52617360449E-03 -0.10963820799E+00  0.54355903082E-01  0.12479594103E+00  0.24467308550E-01 0.  0.
         14    1    1    2    0    0 -0.78469158258E-02 -0.73480086782E-02 -0.29078603951E-01  0.31002137462E-01  0.00000000000E+00 0. -1.
     999901    1    3    3    0    0  0.73207422213E-02  0.11698621666E+00 -0.25277299131E-01  0.88813192151E+00  0.88000000000E+00 0.  1.
        -11    1    4    4    0    0 -0.11253719767E-01 -0.34976961190E-01  0.17322306841E-01  0.40624591789E-01  0.51100000000E-03 0.  1.
         11    1    4    4    0    0  0.11779893371E-01 -0.74661246796E-01  0.37033596241E-01  0.84171349238E-01  0.51100000000E-03 0. -1.
</event>
<event>
 8    1  0.1103774E+005  0.1043930E+01  0.7957747E-01            NaN
         13   -1    0    0    0    0  0.00000000000E+00  0.00000000000E+00  0.74505805969E-08  0.10566000000E+00  0.10566000000E+00 0. -1.
     999900   -1    0    0    0    0 -0.00000000000E+00 -0.00000000000E+00 -0.74505805969E-08  0.93827000000E+00  0.93827000000E+00 0.  1.
     999902    2    1    2    0    0 -0.64536507206E-02  0.47087710142E-03 -0.23056191320E-01  0.10199829899E+01  0.10197018390E+01 0.  0.
     999903    2    3    3    0    0 -0.80674792771E-01 -0.13575916647E-01 -0.10301691788E+00  0.13313474579E+00  0.20485298776E-01 0.  0.
         14    1    1    2    0    0  0.64536507206E-02 -0.47087710142E-03  0.23056191320E-01  0.23947010065E-01  0.00000000000E+00 0. -1.
     999901    1    3    3    0    0  0.74221142050E-01  0.14046793748E-01  0.79960726565E-01  0.88684824414E+00  0.88000000000E+00 0. -1.
        -11    1    4    4    0    0 -0.36934932528E-01 -0.12526622056E-01 -0.61444713931E-01  0.72779251797E-01  0.51100000000E-03 0. -1.
         11    1    4    4    0    0 -0.43739860243E-01 -0.10492945907E-02 -0.41572203953E-01  0.60355493998E-01  0.51100000000E-03 0.  1.
</event>
<event>
 8    1  0.1103774E+005  0.1043930E+01  0.7957747E-01            NaN
         13   -1    0    0    0    0  0.00000000000E+00  0.00000000000E+00  0.74505805969E-08  0.10566000000E+00  0.10566000000E+00 0.  1.
     999900   -1    0    0    0    0 -0.00000000000E+00 -0.00000000000E+00 -0.74505805969E-08  0.93827000000E+00  0.93827000000E+00 0.  1.
     999902    2    1    2    0    0  0.14073440527E-02  0.89915502249E-02  0.21612721856E-01  0.10204792359E+01  0.10202097493E+01 0.  0.
     999903    2    3    3    0    0  0.80981999705E-01 -0.94771889634E-01 -0.28544172485E-01  0.12940421583E+00  0.19770835855E-01 0.  0.
         14    1    1    2    0    0 -0.14073440527E-02 -0.89915502249E-02 -0.21612721856E-01  0.23450764140E-01  0.00000000000E+00 0. -1.
     999901    1    3    3    0    0 -0.79574655652E-01  0.10376343986E+00  0.50156894341E-01  0.89107502003E+00  0.88000000000E+00 0. -1.
        -11    1    4    4    0    0  0.36255099980E-01 -0.27908029323E-01 -0.11328697061E-01  0.47136937463E-01  0.51100000000E-03 0. -1.
         11    1    4    4    0    0  0.44726899724E-01 -0.66863860311E-01 -0.17215475424E-01  0.82267278366E-01  0.51100000000E-03 0.  1.
</event>
<event>
 8    1  0.1103774E+005  0.1043930E+01  0.7957747E-01            NaN
         13   -1    0    0    0    0  0.00000000000E+00  0.00000000000E+00  0.74505805969E-08  0.10566000000E+00  0.10566000000E+00 0.  1.
     999900   -1    0    0    0    0 -0.00000000000E+00 -0.00000000000E+00 -0.74505805969E-08  0.93827000000E+00  0.93827000000E+00 0. -1.
     999902    2    1    2    0    0 -0.87723337044E-02  0.17916577677E-01 -0.70110060360E-02  0.10227849817E+01  0.10225663827E+01 0.  0.
     999903    2    3    3    0    0 -0.10164008642E+00  0.76126862602E-01 -0.41963695030E-01  0.13529720867E+00  0.20454256218E-01 0.  0.
         14    1    1    2    0    0  0.87723337044E-02 -0.17916577677E-01  0.70110060360E-02  0.21145018324E-01  0.00000000000E+00 0. -1.
     999901    1    3    3    0    0  0.92867752712E-01 -0.58210284926E-01  0.34952688994E-01  0.88748777300E+00  0.88000000000E+00 0.  1.
        -11    1    4    4    0    0 -0.71953081847E-01  0.43673362367E-01 -0.22043105038E-01  0.87010161294E-01  0.51100000000E-03 0.  1.
         11    1    4    4    0    0 -0.29687004569E-01  0.32453500236E-01 -0.19920589992E-01  0.48287047377E-01  0.51100000000E-03 0. -1.
</event>
<event>
 7    1  0.1103774E+005  0.1043930E+01  0.7957747E-01            NaN
         13   -1    0    0    0    0  0.00000000000E+00  0.00000000000E+00  0.74505805969E-08  0.10566000000E+00  0.10566000000E+00 0.  1.
     999900   -1    0    0    0    0 -0.00000000000E+00 -0.00000000000E+00 -0.74505805969E-08  0.93827000000E+00  0.93827000000E+00 0. -1.
     999902    2    1    2    0    0  0.19304380266E-01 -0.38343667534E-02 -0.15212080375E-01  0.10190549351E+01  0.10187512905E+01 0.  0.
         14    1    1    2    0    0 -0.19304380266E-01  0.38343667534E-02  0.15212080375E-01  0.24875064928E-01  0.00000000000E+00 0.  1.
     999901    1    3    3    0    0 -0.58161432968E-01 -0.21020895546E-01  0.85018834553E-01  0.88625776869E+00  0.88000000000E+00 0.  1.
        -11    1    3    3    0    0  0.24773238061E-01 -0.10078260733E-01 -0.22136639629E-01  0.34721414119E-01  0.51100000000E-03 0. -1.
         11    1    3    3    0    0  0.52692575173E-01  0.27264789525E-01 -0.78094275300E-01  0.98075752262E-01  0.51100000000E-03 0.  1.
</event>
<event>
 8    1  0.1103774E+005  0.1043930E+01  0.7957747E-01            NaN
         13   -1    0    0    0    0  0.00000000000E+00  0.00000000000E+00  0.74505805969E-08  0.10566000000E+00  0.10566000000E+00 0. -1.
     999900   -1    0    0    0    0 -0.00000000000E+00 -0.00000000000E+00 -0.74505805969E-08  0.93827000000E+00  0.93827000000E+00 0. -1.
     999902    2    1    2    0    0  0.95778445888E-02  0.21667846497E-01 -0.25314853938E-02  0.10201048222E+01  0.10198265584E+01 0.  0.
     999903    2    3    3    0    0 -0.89132836048E-01  0.93224437000E-01 -0.16625849677E-01  0.13158763316E+00  0.20085522342E-01 0.  0.
         14    1    1    2    0    0 -0.95778445888E-02 -0.21667846497E-01  0.25314853938E-02  0.23825177797E-01  0.00000000000E+00 0. -1.
     999901    1    3    3    0    0  0.98710680637E-01 -0.71556590503E-01  0.14094364283E-01  0.88851718904E+00  0.88000000000E+00 0. -1.
        -11    1    4    4    0    0 -0.15274339342E-01  0.15228544989E-01  0.46802581403E-02  0.22076683674E-01  0.51100000000E-03 0. -1.
         11    1    4    4    0    0 -0.73858496706E-01  0.77995892011E-01 -0.21306107817E-01  0.10951094949E+00  0.51100000000E-03 0.  1.
</event>
<event>
 8    1  0.1103774E+005  0.1043930E+01  0.7957747E-01            NaN
         13   -1    0    0    0    0  0.00000000000E+00  0.00000000000E+00  0.74505805969E-08  0.10566000000E+00  0.10566000000E+00 0. -1.
     999900   -1    0    0    0    0 -0.00000000000E+00 -0.00000000000E+00 -0.74505805969E-08  0.93827000000E+00  0.93827000000E+00 0.  1.
     999902    2    1    2    0    0 -0.13246912310E-01 -0.17919385806E-01 -0.72752407059E-02  0.10204882808E+01  0.10202190044E+01 0.  0.
     999903    2    3    3    0    0 -0.72127044399E-02 -0.13041505173E+00 -0.17328959188E-01  0.13324943819E+00  0.19874886855E-01 0.  0.
         14    1    1    2    0    0  0.13246912310E-01  0.17919385806E-01  0.72752407059E-02  0.23441719236E-01  0.00000000000E+00 0. -1.
     999901    1    3    3    0    0 -0.60342078704E-02  0.11249566593E+00  0.10053718482E-01  0.88723884257E+00  0.88000000000E+00 0.  1.
        -11    1    4    4    0    0 -0.24848646662E-02 -0.58392193427E-01 -0.17700704417E-01  0.61068804340E-01  0.51100000000E-03 0.  1.
         11    1    4    4    0    0 -0.47278397737E-02 -0.72022858306E-01  0.37174522861E-03  0.72180633850E-01  0.51100000000E-03 0. -1.
</event>
