<event>
 8    1  0.1112929E+005  0.1043930E+01  0.7957747E-01            NaN
         13   -1    0    0    0    0  0.00000000000E+00  0.00000000000E+00  0.74505805969E-08  0.10566000000E+00  0.10566000000E+00 0.  1.
     999900   -1    0    0    0    0 -0.00000000000E+00 -0.00000000000E+00 -0.74505805969E-08  0.93827000000E+00  0.93827000000E+00 0. -1.
     999902    2    1    2    0    0  0.23330757112E-01  0.58996961651E-03  0.66172268827E-03  0.10205824055E+01  0.10203153122E+01 0.  0.
     999903    2    3    3    0    0  0.81727871518E-01 -0.46899968782E-01 -0.91270768481E-01  0.13259755195E+00  0.19305583373E-01 0.  0.
         14    1    1    2    0    0 -0.23330757112E-01 -0.58996961651E-03 -0.66172268827E-03  0.23347594490E-01  0.00000000000E+00 0. -1.
     999901    1    3    3    0    0 -0.58397114406E-01  0.47489938398E-01  0.91932491169E-01  0.88798485356E+00  0.88000000000E+00 0.  1.
        -11    1    4    4    0    0  0.38940556286E-01 -0.14120496859E-01 -0.48531333308E-01  0.63806792657E-01  0.51100000000E-03 0. -1.
         11    1    4    4    0    0  0.42787315232E-01 -0.32779471923E-01 -0.42739435173E-01  0.68790759293E-01  0.51100000000E-03 0.  1.
</event>
<event>
 8    1  0.1112929E+005  0.1043930E+01  0.7957747E-01            NaN
         13   -1    0    0    0    0  0.00000000000E+00  0.00000000000E+00  0.74505805969E-08  0.10566000000E+00  0.10566000000E+00 0.  1.
     999900   -1    0    0    0    0 -0.00000000000E+00 -0.00000000000E+00 -0.74505805969E-08  0.93827000000E+00  0.93827000000E+00 0. -1.
     999902    2    1    2    0    0 -0.17008939219E-01  0.16235611608E-01  0.13651503434E-02  0.10203765983E+01  0.10201047199E+01 0.  0.
     999903    2    3    3    0    0 -0.11483177662E+00  0.31643169992E-01 -0.55922926645E-01  0.13297104040E+00  0.19138880132E-01 0.  0.
         14    1    1    2    0    0  0.17008939219E-01 -0.16235611608E-01 -0.13651503434E-02  0.23553401731E-01  0.00000000000E+00 0.  1.
     999901    1    3    3    0    0  0.97822837396E-01 -0.15407558384E-01  0.57288076989E-01  0.88740555787E+00  0.88000000000E+00 0.  1.
        -11    1    4    4    0    0 -0.75570045654E-01  0.11882699873E-01 -0.39011410914E-01  0.85873055488E-01  0.51100000000E-03 0. -1.
         11    1    4    4    0    0 -0.39261730962E-01  0.19760470119E-01 -0.16911515731E-01  0.47097984912E-01  0.51100000000E-03 0.  1.
</event>
<event>
 8    1  0.1112929E+005  0.1043930E+01  0.7957747E-01            NaN
         13   -1    0    0    0    0  0.00000000000E+00  0.00000000000E+00  0.74505805969E-08  0.10566000000E+00  0.10566000000E+00 0. -1.
     999900   -1    0    0    0    0 -0.00000000000E+00 -0.00000000000E+00 -0.74505805969E-08  0.93827000000E+00  0.93827000000E+00 0.  1.
     999902    2    1    2    0    0  0.73258590358E-02 -0.21828125688E-01  0.41943922783E-02  0.10205264061E+01  0.10202580151E+01 0.  0.
     999903    2    3    3    0    0 -0.68964287605E-01  0.10565176695E+00  0.10584324746E-01  0.12805111750E+00  0.19149202023E-01 0.  0.
         14    1    1    2    0    0 -0.73258590358E-02  0.21828125688E-01 -0.41943922783E-02  0.23403593917E-01  0.00000000000E+00 0. -1.
     999901    1    3    3    0    0  0.76290146641E-01 -0.12747989263E+00 -0.63899324681E-02  0.89247528859E+00  0.88000000000E+00 0.  1.
        -11    1    4    4    0    0 -0.25911993846E-01  0.56202145294E-01  0.19767429918E-02  0.61921572934E-01  0.51100000000E-03 0.  1.
         11    1    4    4    0    0 -0.43052293759E-01  0.49449621651E-01  0.86075817546E-02  0.66129544563E-01  0.51100000000E-03 0. -1.
</event>
<event>
 8    1  0.1112929E+005  0.1043930E+01  0.7957747E-01            NaN
         13   -1    0    0    0    0  0.00000000000E+00  0.00000000000E+00  0.74505805969E-08  0.10566000000E+00  0.10566000000E+00 0.  1.
     999900   -1    0    0    0    0 -0.00000000000E+00 -0.00000000000E+00 -0.74505805969E-08  0.93827000000E+00  0.93827000000E+00 0.  1.
     999902    2    1    2    0    0  0.79683739961E-02  0.40141964198E-02 -0.22135839895E-01  0.10200636185E+01  0.10197843800E+01 0.  0.
     999903    2    3    3    0    0  0.63721742333E-01 -0.63617944812E-01 -0.95356209942E-01  0.13268333522E+00  0.20108637982E-01 0.  0.
         14    1    1    2    0    0 -0.79683739961E-02 -0.40141964198E-02  0.22135839895E-01  0.23866381479E-01  0.00000000000E+00 0.  1.
     999901    1    3    3    0    0 -0.55753368337E-01  0.67632141232E-01  0.73220370048E-01  0.88738028331E+00  0.88000000000E+00 0. -1.
        -11    1    4    4    0    0  0.47174231352E-01 -0.38118679131E-01 -0.53004323732E-01  0.80549123258E-01  0.51100000000E-03 0. -1.
         11    1    4    4    0    0  0.16547510981E-01 -0.25499265681E-01 -0.42351886211E-01  0.52134211959E-01  0.51100000000E-03 0.  1.
</event>
<event>
 8    1  0.1112929E+005  0.1043930E+01  0.7957747E-01            NaN
         13   -1    0    0    0    0  0.00000000000E+00  0.00000000000E+00  0.74505805969E-08  0.10566000000E+00  0.10566000000E+00 0. -1.
     999900   -1    0    0    0    0 -0.00000000000E+00 -0.00000000000E+00 -0.74505805969E-08  0.93827000000E+00  0.93827000000E+00 0.  1.
     999902    2    1    2    0    0 -0.56492192687E-03 -0.10217205413E-01  0.20757141827E-01  0.10207876285E+01  0.10205252633E+01 0.  0.
     999903    2    3    3    0    0 -0.24383843409E-01 -0.88902863900E-01  0.95048773452E-01  0.13383891496E+00  0.19501148507E-01 0.  0.
         14    1    1    2    0    0  0.56492192687E-03  0.10217205413E-01 -0.20757141827E-01  0.23142371530E-01  0.00000000000E+00 0.  1.
     999901    1    3    3    0    0  0.23818921483E-01  0.78685658487E-01 -0.74291631626E-01  0.88694871351E+00  0.88000000000E+00 0.  1.
        -11    1    4    4    0    0 -0.22793846947E-01 -0.56735190491E-01  0.53346898831E-01  0.81145511487E-01  0.51100000000E-03 0. -1.
         11    1    4    4    0    0 -0.15899964626E-02 -0.32167673409E-01  0.41701874621E-01  0.52693403470E-01  0.51100000000E-03 0.  1.
</event>
<event>
 8    1  0.1112929E+005  0.1043930E+01  0.7957747E-01            NaN
         13   -1    0    0    0    0  0.00000000000E+00  0.00000000000E+00  0.74505805969E-08  0.10566000000E+00  0.10566000000E+00 0. -1.
     999900   -1    0    0    0    0 -0.00000000000E+00 -0.00000000000E+00 -0.74505805969E-08  0.93827000000E+00  0.93827000000E+00 0. -1.
     999902    2    1    2    0    0  0.10120688823E-01  0.95882110477E-02  0.18897007499E-01  0.10204468353E+01  0.10201765948E+01 0.  0.
     999903    2    3    3    0    0 -0.10882245028E+00 -0.11604874576E-01  0.68570109950E-01  0.13080419110E+00  0.20757592142E-01 0.  0.
         14    1    1    2    0    0 -0.10120688823E-01 -0.95882110477E-02 -0.18897007499E-01  0.23483164731E-01  0.00000000000E+00 0.  1.
     999901    1    3    3    0    0  0.11894313910E+00  0.21193085624E-01 -0.49673102451E-01  0.88964264417E+00  0.88000000000E+00 0. -1.
        -11    1    4    4    0    0 -0.22214855935E-01  0.58293509425E-02  0.16074771949E-01  0.28038198423E-01  0.51100000000E-03 0.  1.
         11    1    4    4    0    0 -0.86607594346E-01 -0.17434225519E-01  0.52495338001E-01  0.10276599268E+00  0.51100000000E-03 0. -1.
</event>
<event>
 8    1  0.1112929E+005  0.1043930E+01  0.7957747E-01            NaN
         13   -1    0    0    0    0  0.00000000000E+00  0.00000000000E+00  0.74505805969E-08  0.10566000000E+00  0.10566000000E+00 0.  1.
     999900   -1    0    0    0    0 -0.00000000000E+00 -0.00000000000E+00 -0.74505805969E-08  0.93827000000E+00  0.93827000000E+00 0.  1.
     999902    2    1    2    0    0  0.19654282238E-01  0.77887740762E-03  0.13912492978E-01  0.10198373679E+01  0.10195527461E+01 0.  0.
     999903    2    3    3    0    0  0.92522430092E-01 -0.49664255938E-01 -0.74238141420E-01  0.13100396900E+00  0.24975985734E-01 0.  0.
         14    1    1    2    0    0 -0.19654282238E-01 -0.77887740762E-03 -0.13912492978E-01  0.24092632093E-01  0.00000000000E+00 0. -1.
     999901    1    3    3    0    0 -0.72868147854E-01  0.50443133346E-01  0.88150634398E-01  0.88883339891E+00  0.88000000000E+00 0. -1.
        -11    1    4    4    0    0  0.66697303428E-01 -0.24947898083E-01 -0.40903737891E-01  0.82123716414E-01  0.51100000000E-03 0. -1.
         11    1    4    4    0    0  0.25825126664E-01 -0.24716357856E-01 -0.33334403529E-01  0.48880252583E-01  0.51100000000E-03 0.  1.
</event>
<event>
 8    1  0.1112929E+005  0.1043930E+01  0.7957747E-01            NaN
         13   -1    0    0    0    0  0.00000000000E+00  0.00000000000E+00  0.74505805969E-08  0.10566000000E+00  0.10566000000E+00 0. -1.
     999900   -1    0    0    0    0 -0.00000000000E+00 -0.00000000000E+00 -0.74505805969E-08  0.93827000000E+00  0.93827000000E+00 0. -1.
     999902    2    1    2    0    0  0.47855518826E-04 -0.20213604619E-01 -0.12472489280E-01  0.10201780508E+01  0.10199015150E+01 0.  0.
     999903    2    3    3    0    0 -0.98093636940E-01 -0.76218559742E-01  0.39204921479E-01  0.13144926072E+00  0.17613966570E-01 0.  0.
         14    1    1    2    0    0 -0.47855518826E-04  0.20213604619E-01  0.12472489280E-01  0.23751949197E-01  0.00000000000E+00 0. -1.
     999901    1    3    3    0    0  0.98141492459E-01  0.56004955124E-01 -0.51677410759E-01  0.88872879008E+00  0.88000000000E+00 0. -1.
        -11    1    4    4    0    0 -0.63284882718E-01 -0.45184095900E-01  0.16134644167E-01  0.79417672884E-01  0.51100000000E-03 0. -1.
         11    1    4    4    0    0 -0.34808754222E-01 -0.31034463843E-01  0.23070277312E-01  0.52031587836E-01  0.51100000000E-03 0.  1.
</event>
<event>
 8    1  0.1112929E+005  0.1043930E+01  0.7957747E-01            NaN
         13   -1    0    0    0    0  0.00000000000E+00  0.00000000000E+00  0.74505805969E-08  0.10566000000E+00  0.10566000000E+00 0. -1.
     999900   -1    0    0    0    0 -0.00000000000E+00 -0.00000000000E+00 -0.74505805969E-08  0.93827000000E+00  0.93827000000E+00 0. -1.
     999902    2    1    2    0    0 -0.42476648918E-02 -0.19182001292E-01  0.14027256544E-01  0.10197896654E+01  0.10195039018E+01 0.  0.
     999903    2    3    3    0    0 -0.79867217245E-01  0.69784279930E-01  0.72682272378E-01  0.13014157382E+00  0.20136990892E-01 0.  0.
         14    1    1    2    0    0  0.42476648918E-02  0.19182001292E-01 -0.14027256544E-01  0.24140334644E-01  0.00000000000E+00 0.  1.
     999901    1    3    3    0    0  0.75619552353E-01 -0.88966281222E-01 -0.58655015834E-01  0.88964809154E+00  0.88000000000E+00 0. -1.
        -11    1    4    4    0    0 -0.64316313891E-01  0.45015008391E-01  0.49391877665E-01  0.92751053435E-01  0.51100000000E-03 0. -1.
         11    1    4    4    0    0 -0.15550903353E-01  0.24769271539E-01  0.23290394713E-01  0.37390520384E-01  0.51100000000E-03 0.  1.
</event>
<event>
 8    1  0.1112929E+005  0.1043930E+01  0.7957747E-01            NaN
         13   -1    0    0    0    0  0.00000000000E+00  0.00000000000E+00  0.74505805969E-08  0.10566000000E+00  0.10566000000E+00 0. -1.
     999900   -1    0    0    0    0 -0.00000000000E+00 -0.00000000000E+00 -0.74505805969E-08  0.93827000000E+00  0.93827000000E+00 0.  1.
     999902    2    1    2    0    0  0.20387533787E-01  0.73502942492E-02  0.11267697161E-01  0.10195037977E+01  0.10192111431E+01 0.  0.
     999903    2    3    3    0    0  0.52861205839E-01 -0.11723035528E+00  0.19035073634E-02  0.13008681694E+00  0.19536973169E-01 0.  0.
         14    1    1    2    0    0 -0.20387533787E-01 -0.73502942492E-02 -0.11267697161E-01  0.24426202299E-01  0.00000000000E+00 0.  1.
     999901    1    3    3    0    0 -0.32473672053E-01  0.12458064953E+00  0.93641897973E-02  0.88941698076E+00  0.88000000000E+00 0.  1.
        -11    1    4    4    0    0  0.35923882937E-01 -0.91245094663E-01 -0.54159636051E-02  0.98212964766E-01  0.51100000000E-03 0. -1.
         11    1    4    4    0    0  0.16937322902E-01 -0.25985260614E-01  0.73194709685E-02  0.31873852176E-01  0.51100000000E-03 0.  1.
</event>
<event>
 8    1  0.1112929E+005  0.1043930E+01  0.7957747E-01            NaN
         13   -1    0    0    0    0  0.00000000000E+00  0.00000000000E+00  0.74505805969E-08  0.10566000000E+00  0.10566000000E+00 0.  1.
     999900   -1    0    0    0    0 -0.00000000000E+00 -0.00000000000E+00 -0.74505805969E-08  0.93827000000E+00  0.93827000000E+00 0. -1.
     999902    2    1    2    0    0 -0.10509194618E-01 -0.19562752671E-01 -0.13684777094E-01  0.10178451847E+01  0.10175108857E+01 0.  0.
     999903    2    3    3    0    0  0.36776489456E-01  0.64786997276E-01  0.99171696661E-01  0.12538375705E+00  0.18335646139E-01 0.  0.
         14    1    1    2    0    0  0.10509194618E-01  0.19562752671E-01  0.13684777094E-01  0.26084815271E-01  0.00000000000E+00 0.  1.
     999901    1    3    3    0    0 -0.47285684074E-01 -0.84349749948E-01 -0.11285647376E+00  0.89246142768E+00  0.88000000000E+00 0. -1.
        -11    1    4    4    0    0  0.45893881839E-02  0.38416009686E-02  0.17571703707E-01  0.18570036997E-01  0.51100000000E-03 0.  1.
         11    1    4    4    0    0  0.32187101272E-01  0.60945396308E-01  0.81599992954E-01  0.10681372005E+00  0.51100000000E-03 0. -1.
</event>
<event>
 8    1  0.1112929E+005  0.1043930E+01  0.7957747E-01            NaN
         13   -1    0    0    0    0  0.00000000000E+00  0.00000000000E+00  0.74505805969E-08  0.10566000000E+00  0.10566000000E+00 0.  1.
     999900   -1    0    0    0    0 -0.00000000000E+00 -0.00000000000E+00 -0.74505805969E-08  0.93827000000E+00  0.93827000000E+00 0.  1.
     999902    2    1    2    0    0  0.11482692350E-01  0.74466471814E-02  0.19424652175E-01  0.10201682263E+01  0.10198914589E+01 0.  0.
     999903    2    3    3    0    0 -0.29795097481E-04 -0.84812325220E-01 -0.93683762626E-01  0.12807082754E+00  0.20793222209E-01 0.  0.
         14    1    1    2    0    0 -0.11482692350E-01 -0.74466471814E-02 -0.19424652175E-01  0.23761773713E-01  0.00000000000E+00 0. -1.
     999901    1    3    3    0    0  0.11512487448E-01  0.92258972401E-01  0.11310841480E+00  0.89209739875E+00  0.88000000000E+00 0.  1.
        -11    1    4    4    0    0  0.65508152752E-02 -0.52035655548E-01 -0.45567778825E-01  0.69478818478E-01  0.51100000000E-03 0.  1.
         11    1    4    4    0    0 -0.65806103727E-02 -0.32776669672E-01 -0.48115983801E-01  0.58592009061E-01  0.51100000000E-03 0. -1.
</event>
<event>
 8    1  0.1112929E+005  0.1043930E+01  0.7957747E-01            NaN
         13   -1    0    0    0    0  0.00000000000E+00  0.00000000000E+00  0.74505805969E-08  0.10566000000E+00  0.10566000000E+00 0. -1.
     999900   -1    0    0    0    0 -0.00000000000E+00 -0.00000000000E+00 -0.74505805969E-08  0.93827000000E+00  0.93827000000E+00 0.  1.
     999902    2    1    2    0    0 -0.22038624504E-01 -0.18243931081E-01  0.58427898329E-02  0.10147293119E+01  0.10143090734E+01 0.  0.
     999903    2    3    3    0    0  0.11436868482E+00 -0.18603077225E-02  0.41776921113E-01  0.12334463685E+00  0.19619671016E-01 0.  0.
         14    1    1    2    0    0  0.22038624504E-01  0.18243931081E-01 -0.58427898329E-02  0.29200688080E-01  0.00000000000E+00 0. -1.
     999901    1    3    3    0    0 -0.13640730932E+00 -0.16383623358E-01 -0.35934131280E-01  0.89138467507E+00  0.88000000000E+00 0.  1.
        -11    1    4    4    0    0  0.57305526205E-01  0.99861825943E-04  0.10571517288E-01  0.58274792190E-01  0.51100000000E-03 0.  1.
         11    1    4    4    0    0  0.57063158615E-01 -0.19601695485E-02  0.31205403824E-01  0.65069844664E-01  0.51100000000E-03 0. -1.
</event>
<event>
 8    1  0.1112929E+005  0.1043930E+01  0.7957747E-01            NaN
         13   -1    0    0    0    0  0.00000000000E+00  0.00000000000E+00  0.74505805969E-08  0.10566000000E+00  0.10566000000E+00 0.  1.
     999900   -1    0    0    0    0 -0.00000000000E+00 -0.00000000000E+00 -0.74505805969E-08  0.93827000000E+00  0.93827000000E+00 0. -1.
     999902    2    1    2    0    0 -0.16750532130E-01 -0.61931755315E-02  0.15692809597E-01  0.10201560642E+01  0.10198790101E+01 0.  0.
     999903    2    3    3    0    0 -0.94034302487E-01  0.12421770693E-01 -0.87395481777E-01  0.13057948336E+00  0.20402960763E-01 0.  0.
         14    1    1    2    0    0  0.16750532130E-01  0.61931755315E-02 -0.15692809597E-01  0.23773935788E-01  0.00000000000E+00 0. -1.
     999901    1    3    3    0    0  0.77283770356E-01 -0.18614946225E-01  0.10308829137E+00  0.88957658085E+00  0.88000000000E+00 0.  1.
        -11    1    4    4    0    0 -0.28087026649E-01 -0.16979560080E-03 -0.37856419184E-01  0.47141059502E-01  0.51100000000E-03 0. -1.
         11    1    4    4    0    0 -0.65947275837E-01  0.12591566294E-01 -0.49539062593E-01  0.83438423857E-01  0.51100000000E-03 0.  1.
</event>
<event>
 8    1  0.1112929E+005  0.1043930E+01  0.7957747E-01            NaN
         13   -1    0    0    0    0  0.00000000000E+00  0.00000000000E+00  0.74505805969E-08  0.10566000000E+00  0.10566000000E+00 0.  1.
     999900   -1    0    0    0    0 -0.00000000000E+00 -0.00000000000E+00 -0.74505805969E-08  0.93827000000E+00  0.93827000000E+00 0.  1.
     999902    2    1    2    0    0 -0.28316432501E-01  0.95659301136E-02  0.91354568038E-02  0.10126764572E+01  0.10121940639E+01 0.  0.
     999903    2    3    3    0    0  0.91412086583E-01  0.70806850403E-01 -0.31633652220E-01  0.12152692491E+00  0.19958103291E-01 0.  0.
         14    1    1    2    0    0  0.28316432501E-01 -0.95659301136E-02 -0.91354568038E-02  0.31253542832E-01  0.00000000000E+00 0.  1.
     999901    1    3    3    0    0 -0.11972851908E+00 -0.61240920289E-01  0.40769109024E-01  0.89114953226E+00  0.88000000000E+00 0. -1.
        -11    1    4    4    0    0  0.81448818073E-01  0.67142507782E-01 -0.23493896418E-01  0.10813995842E+00  0.51100000000E-03 0.  1.
         11    1    4    4    0    0  0.99632685104E-02  0.36643426212E-02 -0.81397558022E-02  0.13386966489E-01  0.51100000000E-03 0. -1.
</event>
<event>
 8    1  0.1112929E+005  0.1043930E+01  0.7957747E-01            NaN
         13   -1    0    0    0    0  0.00000000000E+00  0.00000000000E+00  0.74505805969E-08  0.10566000000E+00  0.10566000000E+00 0.  1.
     999900   -1    0    0    0    0 -0.00000000000E+00 -0.00000000000E+00 -0.74505805969E-08  0.93827000000E+00  0.93827000000E+00 0.  1.
     999902    2    1    2    0    0 -0.91630869173E-02  0.19155154187E-01 -0.62343378015E-02  0.10217997252E+01  0.10215600469E+01 0.  0.
     999903    2    3    3    0    0  0.11750696053E+00  0.50199618555E-01 -0.26246604224E-01  0.13196291407E+00  0.19935871670E-01 0.  0.
         14    1    1    2    0    0  0.91630869173E-02 -0.19155154187E-01  0.62343378015E-02  0.22130274775E-01  0.00000000000E+00 0. -1.
     999901    1    3    3    0    0 -0.12667004745E+00 -0.31044464368E-01  0.20012266422E-01  0.88983681116E+00  0.88000000000E+00 0.  1.
        -11    1    4    4    0    0  0.11273185200E+00  0.51274783743E-01 -0.22730666883E-01  0.12591472607E+00  0.51100000000E-03 0. -1.
         11    1    4    4    0    0  0.47751085351E-02 -0.10751651878E-02 -0.35159373407E-02  0.60481880003E-02  0.51100000000E-03 0.  1.
</event>
<event>
 8    1  0.1112929E+005  0.1043930E+01  0.7957747E-01            NaN
         13   -1    0    0    0    0  0.00000000000E+00  0.00000000000E+00  0.74505805969E-08  0.10566000000E+00  0.10566000000E+00 0. -1.
     999900   -1    0    0    0    0 -0.00000000000E+00 -0.00000000000E+00 -0.74505805969E-08  0.93827000000E+00  0.93827000000E+00 0. -1.
     999902    2    1    2    0    0 -0.46800924769E-02 -0.15805090752E-01  0.16903946373E-01  0.10203196726E+01  0.10200464630E+01 0.  0.
     999903    2    3    3    0    0 -0.68257874249E-01  0.67789795362E-01  0.86998433166E-01  0.13130703125E+00  0.20450313671E-01 0.  0.
         14    1    1    2    0    0  0.46800924769E-02  0.15805090752E-01 -0.16903946373E-01  0.23610327449E-01  0.00000000000E+00 0.  1.
     999901    1    3    3    0    0  0.63577781772E-01 -0.83594886114E-01 -0.70094486793E-01  0.88901264130E+00  0.88000000000E+00 0. -1.
        -11    1    4    4    0    0 -0.39488907987E-01  0.49789213927E-01  0.48218054161E-01  0.79772059930E-01  0.51100000000E-03 0. -1.
         11    1    4    4    0    0 -0.28768966262E-01  0.18000581435E-01  0.38780379006E-01  0.51534971316E-01  0.51100000000E-03 0.  1.
</event>
<event>
 8    1  0.1112929E+005  0.1043930E+01  0.7957747E-01            NaN
         13   -1    0    0    0    0  0.00000000000E+00  0.00000000000E+00  0.74505805969E-08  0.10566000000E+00  0.10566000000E+00 0.  1.
     999900   -1    0    0    0    0 -0.00000000000E+00 -0.00000000000E+00 -0.74505805969E-08  0.93827000000E+00  0.93827000000E+00 0. -1.
     999902    2    1    2    0    0  0.10337048957E-01 -0.13546986417E-01  0.16561031603E-01  0.10201677781E+01  0.10198910002E+01 0.  0.
     999903    2    3    3    0    0 -0.83665203481E-01  0.94705511336E-01  0.11288659745E-01  0.12854968461E+00  0.20702353063E-01 0.  0.
         14    1    1    2    0    0 -0.10337048957E-01  0.13546986417E-01 -0.16561031603E-01  0.23762221905E-01  0.00000000000E+00 0. -1.
     999901    1    3    3    0    0  0.94002252438E-01 -0.10825249775E+00  0.52723718583E-02  0.89161809349E+00  0.88000000000E+00 0.  1.
        -11    1    4    4    0    0 -0.19335256740E-01  0.10269308306E-01  0.16139947657E-02  0.21958527874E-01  0.51100000000E-03 0. -1.
         11    1    4    4    0    0 -0.64329946741E-01  0.84436203030E-01  0.96746649792E-02  0.10659115673E+00  0.51100000000E-03 0.  1.
</event>
<event>
 8    1  0.1112929E+005  0.1043930E+01  0.7957747E-01            NaN
         13   -1    0    0    0    0  0.00000000000E+00  0.00000000000E+00  0.74505805969E-08  0.10566000000E+00  0.10566000000E+00 0.  1.
     999900   -1    0    0    0    0 -0.00000000000E+00 -0.00000000000E+00 -0.74505805969E-08  0.93827000000E+00  0.93827000000E+00 0.  1.
     999902    2    1    2    0    0 -0.57623789649E-02  0.13485212179E-01  0.18536014778E-01  0.10202944378E+01  0.10200206370E+01 0.  0.
     999903    2    3    3    0    0  0.41790372811E-02  0.12607692836E+00  0.36733608045E-01  0.13287859458E+00  0.19862193276E-01 0.  0.
         14    1    1    2    0    0  0.57623789649E-02 -0.13485212179E-01 -0.18536014778E-01  0.23635562246E-01  0.00000000000E+00 0. -1.
     999901    1    3    3    0    0 -0.99414162460E-02 -0.11259171618E+00 -0.18197593267E-01  0.88741584317E+00  0.88000000000E+00 0.  1.
        -11    1    4    4    0    0 -0.71830494714E-02  0.73508805037E-01  0.23181313970E-01  0.77413016063E-01  0.51100000000E-03 0.  1.
         11    1    4    4    0    0  0.11362086753E-01  0.52568123322E-01  0.13552294074E-01  0.55465578520E-01  0.51100000000E-03 0. -1.
</event>
<event>
 8    1  0.1112929E+005  0.1043930E+01  0.7957747E-01            NaN
         13   -1    0    0    0    0  0.00000000000E+00  0.00000000000E+00  0.74505805969E-08  0.10566000000E+00  0.10566000000E+00 0.  1.
     999900   -1    0    0    0    0 -0.00000000000E+00 -0.00000000000E+00 -0.74505805969E-08  0.93827000000E+00  0.93827000000E+00 0. -1.
     999902    2    1    2    0    0  0.29582416181E-02 -0.20499769290E-02 -0.23929898659E-01  0.10197309577E+01  0.10194437858E+01 0.  0.
     999903    2    3    3    0    0 -0.74342055911E-01 -0.10420118653E+00 -0.14932900303E-01  0.13041034531E+00  0.19980943490E-01 0.  0.
         14    1    1    2    0    0 -0.29582416181E-02  0.20499769290E-02  0.23929898659E-01  0.24199042310E-01  0.00000000000E+00 0.  1.
     999901    1    3    3    0    0  0.77300297529E-01  0.10215120960E+00 -0.89969983557E-02  0.88932061238E+00  0.88000000000E+00 0. -1.
        -11    1    4    4    0    0 -0.47746477097E-01 -0.68579802273E-01 -0.19218147786E-01  0.85746799826E-01  0.51100000000E-03 0.  1.
         11    1    4    4    0    0 -0.26595578815E-01 -0.35621384252E-01  0.42852474829E-02  0.44663545487E-01  0.51100000000E-03 0. -1.
</event>
<event>
 8    1  0.1112929E+005  0.1043930E+01  0.7957747E-01            NaN
         13   -1    0    0    0    0  0.00000000000E+00  0.00000000000E+00  0.74505805969E-08  0.10566000000E+00  0.10566000000E+00 0.  1.
     999900   -1    0    0    0    0 -0.00000000000E+00 -0.00000000000E+00 -0.74505805969E-08  0.93827000000E+00  0.93827000000E+00 0.  1.
     999902    2    1    2    0    0 -0.33833699061E-02  0.95667566208E-02 -0.21140605734E-01  0.10204801549E+01  0.10202106897E+01 0.  0.
     999903    2    3    3    0    0 -0.21481172483E-01 -0.12610522280E+00  0.24270806016E-02  0.12958742719E+00  0.20567998850E-01 0.  0.
         14    1    1    2    0    0  0.33833699061E-02 -0.95667566208E-02  0.21140605734E-01  0.23449845094E-01  0.00000000000E+00 0.  1.
     999901    1    3    3    0    0  0.18097802577E-01  0.13567197942E+00 -0.23567686335E-01  0.89089272772E+00  0.88000000000E+00 0.  1.
        -11    1    4    4    0    0 -0.16932552510E-02 -0.10247711213E-01  0.59826754692E-02  0.11997342423E-01  0.51100000000E-03 0. -1.
         11    1    4    4    0    0 -0.19787917232E-01 -0.11585751159E+00 -0.35555948676E-02  0.11759008477E+00  0.51100000000E-03 0.  1.
</event>
<event>
 8    1  0.1112929E+005  0.1043930E+01  0.7957747E-01            NaN
         13   -1    0    0    0    0  0.00000000000E+00  0.00000000000E+00  0.74505805969E-08  0.10566000000E+00  0.10566000000E+00 0. -1.
     999900   -1    0    0    0    0 -0.00000000000E+00 -0.00000000000E+00 -0.74505805969E-08  0.93827000000E+00  0.93827000000E+00 0. -1.
     999902    2    1    2    0    0 -0.14143330756E-01 -0.14599734302E-01 -0.12577740721E-01  0.10200263265E+01  0.10197462043E+01 0.  0.
     999903    2    3    3    0    0  0.73016515633E-01  0.10291363673E+00  0.24264129587E-02  0.12782043329E+00  0.20237280140E-01 0.  0.
         14    1    1    2    0    0  0.14143330756E-01  0.14599734302E-01  0.12577740721E-01  0.23903673529E-01  0.00000000000E+00 0. -1.
     999901    1    3    3    0    0 -0.87159846389E-01 -0.11751337103E+00 -0.15004153679E-01  0.89220589318E+00  0.88000000000E+00 0. -1.
        -11    1    4    4    0    0  0.14132345799E-01  0.32714369694E-01 -0.45435687354E-02  0.35928516809E-01  0.51100000000E-03 0. -1.
         11    1    4    4    0    0  0.58884169834E-01  0.70199267035E-01  0.69699816941E-02  0.91891916484E-01  0.51100000000E-03 0.  1.
</event>
<event>
 8    1  0.1112929E+005  0.1043930E+01  0.7957747E-01            NaN
         13   -1    0    0    0    0  0.00000000000E+00  0.00000000000E+00  0.74505805969E-08  0.10566000000E+00  0.10566000000E+00 0. -1.
     999900   -1    0    0    0    0 -0.00000000000E+00 -0.00000000000E+00 -0.74505805969E-08  0.93827000000E+00  0.93827000000E+00 0. -1.
     999902    2    1    2    0    0 -0.17253936115E-01 -0.15386088081E-01 -0.32798325466E-03  0.10208099310E+01  0.10205480771E+01 0.  0.
     999903    2    3    3    0    0 -0.76049160666E-01 -0.10606266033E+00  0.22603976529E-01  0.13390238566E+00  0.19650607519E-01 0.  0.
         14    1    1    2    0    0  0.17253936115E-01  0.15386088081E-01  0.32798325466E-03  0.23120069007E-01  0.00000000000E+00 0.  1.
     999901    1    3    3    0    0  0.58795224551E-01  0.90676572253E-01 -0.22931959784E-01  0.88690754533E+00  0.88000000000E+00 0.  1.
        -11    1    4    4    0    0 -0.24244230278E-01 -0.31767517219E-01  0.16126942337E-01  0.43096371566E-01  0.51100000000E-03 0.  1.
         11    1    4    4    0    0 -0.51804930388E-01 -0.74295143115E-01  0.64770341917E-02  0.90806014095E-01  0.51100000000E-03 0. -1.
</event>
<event>
 8    1  0.1112929E+005  0.1043930E+01  0.7957747E-01            NaN
         13   -1    0    0    0    0  0.00000000000E+00  0.00000000000E+00  0.74505805969E-08  0.10566000000E+00  0.10566000000E+00 0.  1.
     999900   -1    0    0    0    0 -0.00000000000E+00 -0.00000000000E+00 -0.74505805969E-08  0.93827000000E+00  0.93827000000E+00 0.  1.
     999902    2    1    2    0    0  0.22918090407E-03  0.20133285903E-01  0.12329881865E-01  0.10203200929E+01  0.10200468932E+01 0.  0.
     999903    2    3    3    0    0  0.62684948949E-01  0.11267029067E+00  0.26552165974E-01  0.13315263772E+00  0.20015248955E-01 0.  0.
         14    1    1    2    0    0 -0.22918090407E-03 -0.20133285903E-01 -0.12329881865E-01  0.23609907072E-01  0.00000000000E+00 0.  1.
     999901    1    3    3    0    0 -0.62455768045E-01 -0.92537004763E-01 -0.14222284109E-01  0.88716745521E+00  0.88000000000E+00 0. -1.
        -11    1    4    4    0    0  0.33311112343E-01  0.58518594406E-01  0.36848846114E-02  0.67438087105E-01  0.51100000000E-03 0. -1.
         11    1    4    4    0    0  0.29373836606E-01  0.54151696260E-01  0.22867281363E-01  0.65714550617E-01  0.51100000000E-03 0.  1.
</event>
<event>
 8    1  0.1112929E+005  0.1043930E+01  0.7957747E-01            NaN
         13   -1    0    0    0    0  0.00000000000E+00  0.00000000000E+00  0.74505805969E-08  0.10566000000E+00  0.10566000000E+00 0.  1.
     999900   -1    0    0    0    0 -0.00000000000E+00 -0.00000000000E+00 -0.74505805969E-08  0.93827000000E+00  0.93827000000E+00 0.  1.
     999902    2    1    2    0    0  0.26635596906E-02  0.20795077071E-01 -0.11335817865E-01  0.10200966086E+01  0.10198181506E+01 0.  0.
     999903    2    3    3    0    0  0.12277827916E+00 -0.35353588847E-01 -0.13234908087E-01  0.13016187778E+00  0.21037337197E-01 0.  0.
         14    1    1    2    0    0 -0.26635596906E-02 -0.20795077071E-01  0.11335817865E-01  0.23833391435E-01  0.00000000000E+00 0.  1.
     999901    1    3    3    0    0 -0.12011471947E+00  0.56148665918E-01  0.18990902223E-02  0.88993473079E+00  0.88000000000E+00 0. -1.
        -11    1    4    4    0    0  0.70470934527E-01 -0.29049095055E-01 -0.13833012098E-01  0.77470096691E-01  0.51100000000E-03 0.  1.
         11    1    4    4    0    0  0.52307344635E-01 -0.63044937924E-02  0.59810401079E-03  0.52691781087E-01  0.51100000000E-03 0. -1.
</event>
<event>
 8    1  0.1112929E+005  0.1043930E+01  0.7957747E-01            NaN
         13   -1    0    0    0    0  0.00000000000E+00  0.00000000000E+00  0.74505805969E-08  0.10566000000E+00  0.10566000000E+00 0.  1.
     999900   -1    0    0    0    0 -0.00000000000E+00 -0.00000000000E+00 -0.74505805969E-08  0.93827000000E+00  0.93827000000E+00 0.  1.
     999902    2    1    2    0    0 -0.59393783438E-02  0.32029739488E-01 -0.95562641542E-02  0.10099814711E+01  0.10094107536E+01 0.  0.
     999903    2    3    3    0    0 -0.49560209635E-01  0.25475898697E-01  0.10572774101E+00  0.12136674496E+00  0.21125713489E-01 0.  0.
         14    1    1    2    0    0  0.59393783438E-02 -0.32029739488E-01  0.95562641542E-02  0.33948528854E-01  0.00000000000E+00 0.  1.
     999901    1    3    3    0    0  0.43620831291E-01  0.65538407910E-02 -0.11528400516E+00  0.88861472619E+00  0.88000000000E+00 0.  1.
        -11    1    4    4    0    0 -0.42251208020E-01  0.29208543590E-01  0.90594266027E-01  0.10414358240E+00  0.51100000000E-03 0. -1.
         11    1    4    4    0    0 -0.73090016144E-02 -0.37326448934E-02  0.15133474978E-01  0.17223162555E-01  0.51100000000E-03 0.  1.
</event>
<event>
 8    1  0.1112929E+005  0.1043930E+01  0.7957747E-01            NaN
         13   -1    0    0    0    0  0.00000000000E+00  0.00000000000E+00  0.74505805969E-08  0.10566000000E+00  0.10566000000E+00 0.  1.
     999900   -1    0    0    0    0 -0.00000000000E+00 -0.00000000000E+00 -0.74505805969E-08  0.93827000000E+00  0.93827000000E+00 0.  1.
     999902    2    1    2    0    0  0.70254035994E-02  0.13871536184E-01  0.17774710935E-01  0.10203139851E+01  0.10200406423E+01 0.  0.
     999903    2    3    3    0    0 -0.12400459590E+00  0.27762778936E-01 -0.16388635529E-01  0.12984839808E+00  0.21073856066E-01 0.  0.
         14    1    1    2    0    0 -0.70254035994E-02 -0.13871536184E-01 -0.17774710935E-01  0.23616014920E-01  0.00000000000E+00 0.  1.
     999901    1    3    3    0    0  0.13102999950E+00 -0.13891242752E-01  0.34163346465E-01  0.89046558700E+00  0.88000000000E+00 0.  1.
        -11    1    4    4    0    0 -0.96603970284E-02 -0.29630913095E-02  0.10404301677E-02  0.10170879843E-01  0.51100000000E-03 0.  1.
         11    1    4    4    0    0 -0.11434419887E+00  0.30725870246E-01 -0.17429065697E-01  0.11967751823E+00  0.51100000000E-03 0. -1.
</event>
<event>
 8    1  0.1112929E+005  0.1043930E+01  0.7957747E-01            NaN
         13   -1    0    0    0    0  0.00000000000E+00  0.00000000000E+00  0.74505805969E-08  0.10566000000E+00  0.10566000000E+00 0. -1.
     999900   -1    0    0    0    0 -0.00000000000E+00 -0.00000000000E+00 -0.74505805969E-08  0.93827000000E+00  0.93827000000E+00 0.  1.
     999902    2    1    2    0    0  0.19729876490E-01 -0.11183144563E-01  0.56936315781E-02  0.10205473528E+01  0.10202794476E+01 0.  0.
     999903    2    3    3    0    0  0.13070162927E+00 -0.16535708907E-01  0.57553294900E-02  0.13356179281E+00  0.21196299604E-01 0.  0.
         14    1    1    2    0    0 -0.19729876490E-01  0.11183144563E-01 -0.56936315781E-02  0.23382647181E-01  0.00000000000E+00 0. -1.
     999901    1    3    3    0    0 -0.11097175278E+00  0.53525643437E-02 -0.61697911882E-04  0.88698556001E+00  0.88000000000E+00 0. -1.
        -11    1    4    4    0    0  0.58096563536E-01 -0.17516697696E-01 -0.44956911413E-03  0.60683676769E-01  0.51100000000E-03 0. -1.
         11    1    4    4    0    0  0.72605065738E-01  0.98098878867E-03  0.62048986041E-02  0.72878116039E-01  0.51100000000E-03 0.  1.
</event>
<event>
 8    1  0.1112929E+005  0.1043930E+01  0.7957747E-01            NaN
         13   -1    0    0    0    0  0.00000000000E+00  0.00000000000E+00  0.74505805969E-08  0.10566000000E+00  0.10566000000E+00 0.  1.
     999900   -1    0    0    0    0 -0.00000000000E+00 -0.00000000000E+00 -0.74505805969E-08  0.93827000000E+00  0.93827000000E+00 0. -1.
     999902    2    1    2    0    0  0.33901264797E-02  0.10205165430E-01  0.22811998639E-01  0.10187104512E+01  0.10183982314E+01 0.  0.
     999903    2    3    3    0    0  0.11143401716E+00 -0.11915617885E-01 -0.58601936798E-01  0.12809771818E+00  0.20379310011E-01 0.  0.
         14    1    1    2    0    0 -0.33901264797E-02 -0.10205165430E-01 -0.22811998639E-01  0.25219548785E-01  0.00000000000E+00 0. -1.
     999901    1    3    3    0    0 -0.10804389068E+00  0.22120783315E-01  0.81413935437E-01  0.89061273304E+00  0.88000000000E+00 0. -1.
        -11    1    4    4    0    0  0.88711983343E-01 -0.60268567498E-02 -0.37400698940E-01  0.96463528824E-01  0.51100000000E-03 0.  1.
         11    1    4    4    0    0  0.22722033812E-01 -0.58887611351E-02 -0.21201237858E-01  0.31634189352E-01  0.51100000000E-03 0. -1.
</event>
<event>
 8    1  0.1112929E+005  0.1043930E+01  0.7957747E-01            NaN
         13   -1    0    0    0    0  0.00000000000E+00  0.00000000000E+00  0.74505805969E-08  0.10566000000E+00  0.10566000000E+00 0. -1.
     999900   -1    0    0    0    0 -0.00000000000E+00 -0.00000000000E+00 -0.74505805969E-08  0.93827000000E+00  0.93827000000E+00 0.  1.
     999902    2    1    2    0    0 -0.68024234611E-02  0.16030225107E-01  0.15699543692E-01  0.10204839608E+01  0.10202145840E+01 0.  0.
     999903    2    3    3    0    0  0.28592801044E-01  0.11642796845E+00 -0.50303627131E-01  0.13161448369E+00  0.20466980819E-01 0.  0.
         14    1    1    2    0    0  0.68024234611E-02 -0.16030225107E-01 -0.15699543692E-01  0.23446039198E-01  0.00000000000E+00 0.  1.
     999901    1    3    3    0    0 -0.35395224505E-01 -0.10039774335E+00  0.66003170823E-01  0.88886947711E+00  0.88000000000E+00 0. -1.
        -11    1    4    4    0    0  0.23988817163E-01  0.10506343698E+00 -0.38094157147E-01  0.11430317174E+00  0.51100000000E-03 0.  1.
         11    1    4    4    0    0  0.46039838807E-02  0.11364531473E-01 -0.12209469985E-01  0.17311311951E-01  0.51100000000E-03 0. -1.
</event>
<event>
 8    1  0.1112929E+005  0.1043930E+01  0.7957747E-01            NaN
         13   -1    0    0    0    0  0.00000000000E+00  0.00000000000E+00  0.74505805969E-08  0.10566000000E+00  0.10566000000E+00 0. -1.
     999900   -1    0    0    0    0 -0.00000000000E+00 -0.00000000000E+00 -0.74505805969E-08  0.93827000000E+00  0.93827000000E+00 0. -1.
     999902    2    1    2    0    0  0.83415283460E-02 -0.21175570107E-01 -0.75506963468E-02  0.10199508657E+01  0.10196689510E+01 0.  0.
     999903    2    3    3    0    0 -0.55720911052E-01 -0.10323056355E+00  0.56152998042E-01  0.13152800540E+00  0.19623655017E-01 0.  0.
         14    1    1    2    0    0 -0.83415283460E-02  0.21175570107E-01  0.75506963468E-02  0.23979134259E-01  0.00000000000E+00 0.  1.
     999901    1    3    3    0    0  0.64062439398E-01  0.82054993447E-01 -0.63703694389E-01  0.88842286034E+00  0.88000000000E+00 0. -1.
        -11    1    4    4    0    0 -0.45729377104E-01 -0.96340534320E-01  0.52342513282E-01  0.11879677732E+00  0.51100000000E-03 0. -1.
         11    1    4    4    0    0 -0.99915339474E-02 -0.68900292340E-02  0.38104847605E-02  0.12731228086E-01  0.51100000000E-03 0.  1.
</event>
<event>
 8    1  0.1112929E+005  0.1043930E+01  0.7957747E-01            NaN
         13   -1    0    0    0    0  0.00000000000E+00  0.00000000000E+00  0.74505805969E-08  0.10566000000E+00  0.10566000000E+00 0.  1.
     999900   -1    0    0    0    0 -0.00000000000E+00 -0.00000000000E+00 -0.74505805969E-08  0.93827000000E+00  0.93827000000E+00 0.  1.
     999902    2    1    2    0    0  0.20573331779E-01  0.94847812070E-02  0.60540481745E-02  0.10204805959E+01  0.10202111409E+01 0.  0.
     999903    2    3    3    0    0  0.78148325131E-01  0.82182242894E-01 -0.65877427101E-01  0.13268898860E+00  0.20135802095E-01 0.  0.
         14    1    1    2    0    0 -0.20573331779E-01 -0.94847812070E-02 -0.60540481745E-02  0.23449404136E-01  0.00000000000E+00 0. -1.
     999901    1    3    3    0    0 -0.57574993351E-01 -0.72697461687E-01  0.71931475276E-01  0.88779160727E+00  0.88000000000E+00 0. -1.
        -11    1    4    4    0    0  0.48678125020E-01  0.54375136775E-01 -0.52907130316E-01  0.90142336968E-01  0.51100000000E-03 0. -1.
         11    1    4    4    0    0  0.29470200111E-01  0.27807106118E-01 -0.12970296785E-01  0.42546651631E-01  0.51100000000E-03 0.  1.
</event>
<event>
 8    1  0.1112929E+005  0.1043930E+01  0.7957747E-01            NaN
         13   -1    0    0    0    0  0.00000000000E+00  0.00000000000E+00  0.74505805969E-08  0.10566000000E+00  0.10566000000E+00 0. -1.
     999900   -1    0    0    0    0 -0.00000000000E+00 -0.00000000000E+00 -0.74505805969E-08  0.93827000000E+00  0.93827000000E+00 0. -1.
     999902    2    1    2    0    0  0.10947905871E-01  0.28915101402E-01 -0.18218738159E-03  0.10130111882E+01  0.10125392311E+01 0.  0.
     999903    2    3    3    0    0 -0.33290577094E-01  0.89969064848E-01  0.79072040252E-01  0.12623846509E+00  0.21933247930E-01 0.  0.
         14    1    1    2    0    0 -0.10947905871E-01 -0.28915101402E-01  0.18218738159E-03  0.30918811819E-01  0.00000000000E+00 0.  1.
     999901    1    3    3    0    0  0.44238482965E-01 -0.61053963447E-01 -0.79254227634E-01  0.88677272310E+00  0.88000000000E+00 0. -1.
        -11    1    4    4    0    0 -0.11444503986E-01  0.49966716701E-01  0.30602522802E-01  0.59702805396E-01  0.51100000000E-03 0.  1.
         11    1    4    4    0    0 -0.21846073108E-01  0.40002348148E-01  0.48469517450E-01  0.66535659690E-01  0.51100000000E-03 0. -1.
</event>
<event>
 8    1  0.1112929E+005  0.1043930E+01  0.7957747E-01            NaN
         13   -1    0    0    0    0  0.00000000000E+00  0.00000000000E+00  0.74505805969E-08  0.10566000000E+00  0.10566000000E+00 0. -1.
     999900   -1    0    0    0    0 -0.00000000000E+00 -0.00000000000E+00 -0.74505805969E-08  0.93827000000E+00  0.93827000000E+00 0. -1.
     999902    2    1    2    0    0  0.11232828665E-01 -0.16726399248E-01  0.12926536841E-01  0.10199916578E+01  0.10197107128E+01 0.  0.
     999903    2    3    3    0    0  0.12129122636E+00 -0.47672209067E-01  0.15433598569E-01  0.13259277377E+00  0.18932685567E-01 0.  0.
         14    1    1    2    0    0 -0.11232828665E-01  0.16726399248E-01 -0.12926536841E-01  0.23938342180E-01  0.00000000000E+00 0.  1.
     999901    1    3    3    0    0 -0.11005839770E+00  0.30945809819E-01 -0.25070617284E-02  0.88739888405E+00  0.88000000000E+00 0. -1.
        -11    1    4    4    0    0  0.34235251789E-01 -0.49879927930E-02  0.66854418907E-02  0.35240442554E-01  0.51100000000E-03 0. -1.
         11    1    4    4    0    0  0.87055974572E-01 -0.42684216274E-01  0.87481566786E-02  0.97352331219E-01  0.51100000000E-03 0.  1.
</event>
<event>
 8    1  0.1112929E+005  0.1043930E+01  0.7957747E-01            NaN
         13   -1    0    0    0    0  0.00000000000E+00  0.00000000000E+00  0.74505805969E-08  0.10566000000E+00  0.10566000000E+00 0. -1.
     999900   -1    0    0    0    0 -0.00000000000E+00 -0.00000000000E+00 -0.74505805969E-08  0.93827000000E+00  0.93827000000E+00 0.  1.
     999902    2    1    2    0    0  0.13818061319E-01 -0.14549861807E-01 -0.11547344006E-01  0.10207787916E+01  0.10205162237E+01 0.  0.
     999903    2    3    3    0    0 -0.68845403788E-01 -0.68504851262E-02  0.10696791392E+00  0.12896132415E+00  0.20056663487E-01 0.  0.
         14    1    1    2    0    0 -0.13818061319E-01  0.14549861807E-01  0.11547344006E-01  0.23151208409E-01  0.00000000000E+00 0. -1.
     999901    1    3    3    0    0  0.82663465107E-01 -0.76993766808E-02 -0.11851525792E+00  0.89181746744E+00  0.88000000000E+00 0.  1.
        -11    1    4    4    0    0 -0.29562241869E-01  0.48063684626E-02  0.56515549423E-01  0.63963237643E-01  0.51100000000E-03 0. -1.
         11    1    4    4    0    0 -0.39283161919E-01 -0.11656853589E-01  0.50452364495E-01  0.64998086511E-01  0.51100000000E-03 0.  1.
</event>
<event>
 8    1  0.1112929E+005  0.1043930E+01  0.7957747E-01            NaN
         13   -1    0    0    0    0  0.00000000000E+00  0.00000000000E+00  0.74505805969E-08  0.10566000000E+00  0.10566000000E+00 0. -1.
     999900   -1    0    0    0    0 -0.00000000000E+00 -0.00000000000E+00 -0.74505805969E-08  0.93827000000E+00  0.93827000000E+00 0.  1.
     999902    2    1    2    0    0 -0.12064970117E-01 -0.12699713818E-01 -0.54078774863E-02  0.10255972050E+01  0.10254333403E+01 0.  0.
     999903    2    3    3    0    0 -0.55942122816E-01 -0.10492196327E+00  0.64764716433E-01  0.13691596809E+00  0.20331609456E-01 0.  0.
         14    1    1    2    0    0  0.12064970117E-01  0.12699713818E-01  0.54078774863E-02  0.18332795037E-01  0.00000000000E+00 0. -1.
     999901    1    3    3    0    0  0.43877152698E-01  0.92222249453E-01 -0.70172593919E-01  0.88868123687E+00  0.88000000000E+00 0.  1.
        -11    1    4    4    0    0 -0.26312479044E-01 -0.48225656660E-01  0.41467152731E-01  0.68832015736E-01  0.51100000000E-03 0. -1.
         11    1    4    4    0    0 -0.29629643772E-01 -0.56696306611E-01  0.23297563702E-01  0.68083952359E-01  0.51100000000E-03 0.  1.
</event>
<event>
 8    1  0.1112929E+005  0.1043930E+01  0.7957747E-01            NaN
         13   -1    0    0    0    0  0.00000000000E+00  0.00000000000E+00  0.74505805969E-08  0.10566000000E+00  0.10566000000E+00 0. -1.
     999900   -1    0    0    0    0 -0.00000000000E+00 -0.00000000000E+00 -0.74505805969E-08  0.93827000000E+00  0.93827000000E+00 0.  1.
     999902    2    1    2    0    0 -0.91189439923E-02 -0.22501764550E-01  0.29022759945E-02  0.10194778477E+01  0.10191845633E+01 0.  0.
     999903    2    3    3    0    0  0.12283449942E-01  0.58410208480E-01  0.11234897187E+00  0.12875713438E+00  0.19836143176E-01 0.  0.
         14    1    1    2    0    0  0.91189439923E-02  0.22501764550E-01 -0.29022759945E-02  0.24452152326E-01  0.00000000000E+00 0. -1.
     999901    1    3    3    0    0 -0.21402393935E-01 -0.80911973031E-01 -0.10944669588E+00  0.89072071329E+00  0.88000000000E+00 0.  1.
        -11    1    4    4    0    0  0.13921753494E-01  0.29679936153E-01  0.72815100091E-01  0.79856206726E-01  0.51100000000E-03 0. -1.
         11    1    4    4    0    0 -0.16383035520E-02  0.28730272328E-01  0.39533871784E-01  0.48900927658E-01  0.51100000000E-03 0.  1.
</event>
<event>
 8    1  0.1112929E+005  0.1043930E+01  0.7957747E-01            NaN
         13   -1    0    0    0    0  0.00000000000E+00  0.00000000000E+00  0.74505805969E-08  0.10566000000E+00  0.10566000000E+00 0.  1.
     999900   -1    0    0    0    0 -0.00000000000E+00 -0.00000000000E+00 -0.74505805969E-08  0.93827000000E+00  0.93827000000E+00 0. -1.
     999902    2    1    2    0    0  0.20927999799E-02 -0.10631294017E-01 -0.20883019631E-01  0.10204033187E+01  0.10201320640E+01 0.  0.
     999903    2    3    3    0    0  0.12834725825E+00 -0.10244796503E-01 -0.16578236505E-01  0.13138202043E+00  0.20209473336E-01 0.  0.
         14    1    1    2    0    0 -0.20927999799E-02  0.10631294017E-01  0.20883019631E-01  0.23526681303E-01  0.00000000000E+00 0.  1.
     999901    1    3    3    0    0 -0.12625445827E+00 -0.38649751466E-03 -0.43047831259E-02  0.88902129827E+00  0.88000000000E+00 0.  1.
        -11    1    4    4    0    0  0.52107819258E-01  0.55373669470E-02 -0.45497802054E-02  0.52600844874E-01  0.51100000000E-03 0.  1.
         11    1    4    4    0    0  0.76239438988E-01 -0.15782163450E-01 -0.12028456299E-01  0.78781175558E-01  0.51100000000E-03 0. -1.
</event>
<event>
 8    1  0.1112929E+005  0.1043930E+01  0.7957747E-01            NaN
         13   -1    0    0    0    0  0.00000000000E+00  0.00000000000E+00  0.74505805969E-08  0.10566000000E+00  0.10566000000E+00 0. -1.
     999900   -1    0    0    0    0 -0.00000000000E+00 -0.00000000000E+00 -0.74505805969E-08  0.93827000000E+00  0.93827000000E+00 0.  1.
     999902    2    1    2    0    0  0.99867048711E-04  0.20673908132E-01 -0.10811580223E-01  0.10205995324E+01  0.10203328353E+01 0.  0.
     999903    2    3    3    0    0  0.96701247297E-01  0.27678996720E-01  0.80773058382E-01  0.13056096923E+00  0.20115209093E-01 0.  0.
         14    1    1    2    0    0 -0.99867048711E-04 -0.20673908132E-01  0.10811580223E-01  0.23330467586E-01  0.00000000000E+00 0. -1.
     999901    1    3    3    0    0 -0.96601380248E-01 -0.70050885874E-02 -0.91584638605E-01  0.89003856319E+00  0.88000000000E+00 0.  1.
        -11    1    4    4    0    0  0.66862192047E-01  0.93273175049E-02  0.54671313269E-01  0.86872119767E-01  0.51100000000E-03 0. -1.
         11    1    4    4    0    0  0.29839055249E-01  0.18351679215E-01  0.26101745113E-01  0.43688849460E-01  0.51100000000E-03 0.  1.
</event>
<event>
 8    1  0.1112929E+005  0.1043930E+01  0.7957747E-01            NaN
         13   -1    0    0    0    0  0.00000000000E+00  0.00000000000E+00  0.74505805969E-08  0.10566000000E+00  0.10566000000E+00 0. -1.
     999900   -1    0    0    0    0 -0.00000000000E+00 -0.00000000000E+00 -0.74505805969E-08  0.93827000000E+00  0.93827000000E+00 0.  1.
     999902    2    1    2    0    0 -0.15951691276E-01  0.59377795518E-02  0.16801959145E-01  0.10200130706E+01  0.10197326339E+01 0.  0.
     999903    2    3    3    0    0 -0.10620702101E+00  0.69521983956E-01 -0.30393776956E-01  0.13185969809E+00  0.18707237630E-01 0.  0.
         14    1    1    2    0    0  0.15951691276E-01 -0.59377795518E-02 -0.16801959145E-01  0.23916929395E-01  0.00000000000E+00 0. -1.
     999901    1    3    3    0    0  0.90255329730E-01 -0.63584204404E-01  0.47195736102E-01  0.88815337251E+00  0.88000000000E+00 0. -1.
        -11    1    4    4    0    0 -0.51555438689E-01  0.29538275825E-01 -0.23090718174E-01  0.63748846138E-01  0.51100000000E-03 0. -1.
         11    1    4    4    0    0 -0.54651582317E-01  0.39983708131E-01 -0.73030587818E-02  0.68110851957E-01  0.51100000000E-03 0.  1.
</event>
<event>
 8    1  0.1112929E+005  0.1043930E+01  0.7957747E-01            NaN
         13   -1    0    0    0    0  0.00000000000E+00  0.00000000000E+00  0.74505805969E-08  0.10566000000E+00  0.10566000000E+00 0. -1.
     999900   -1    0    0    0    0 -0.00000000000E+00 -0.00000000000E+00 -0.74505805969E-08  0.93827000000E+00  0.93827000000E+00 0.  1.
     999902    2    1    2    0    0  0.12603437999E-02 -0.22132290220E-01  0.63222455025E-02  0.10208779388E+01  0.10206176407E+01 0.  0.
     999903    2    3    3    0    0  0.72285558464E-01 -0.11042006725E+00  0.41105281321E-02  0.13361010755E+00  0.20419872310E-01 0.  0.
         14    1    1    2    0    0 -0.12603437999E-02  0.22132290220E-01 -0.63222455025E-02  0.23052061189E-01  0.00000000000E+00 0.  1.
     999901    1    3    3    0    0 -0.71025214664E-01  0.88287777028E-01  0.22117173704E-02  0.88726783126E+00  0.88000000000E+00 0. -1.
        -11    1    4    4    0    0  0.91556541640E-02 -0.16152353998E-01  0.76799203270E-02  0.20098926341E-01  0.51100000000E-03 0. -1.
         11    1    4    4    0    0  0.63129904300E-01 -0.94267713251E-01 -0.35693921949E-02  0.11351118121E+00  0.51100000000E-03 0.  1.
</event>
<event>
 8    1  0.1112929E+005  0.1043930E+01  0.7957747E-01            NaN
         13   -1    0    0    0    0  0.00000000000E+00  0.00000000000E+00  0.74505805969E-08  0.10566000000E+00  0.10566000000E+00 0.  1.
     999900   -1    0    0    0    0 -0.00000000000E+00 -0.00000000000E+00 -0.74505805969E-08  0.93827000000E+00  0.93827000000E+00 0. -1.
     999902    2    1    2    0    0 -0.15617285318E-01 -0.59938156179E-02 -0.14670351164E-01  0.10216804016E+01  0.10214381030E+01 0.  0.
     999903    2    3    3    0    0  0.91752694666E-01  0.83950844411E-01 -0.27336519880E-01  0.13051330934E+00  0.28638040086E-01 0.  0.
         14    1    1    2    0    0  0.15617285318E-01  0.59938156179E-02  0.14670351164E-01  0.22249598415E-01  0.00000000000E+00 0.  1.
     999901    1    3    3    0    0 -0.10736997998E+00 -0.89944660029E-01  0.12666168716E-01  0.89116709224E+00  0.88000000000E+00 0. -1.
        -11    1    4    4    0    0  0.60281170997E-01  0.41838549033E-01 -0.55056194924E-02  0.73585710086E-01  0.51100000000E-03 0.  1.
         11    1    4    4    0    0  0.31471523670E-01  0.42112295378E-01 -0.21830900388E-01  0.56927599254E-01  0.51100000000E-03 0. -1.
</event>
<event>
 8    1  0.1112929E+005  0.1043930E+01  0.7957747E-01            NaN
         13   -1    0    0    0    0  0.00000000000E+00  0.00000000000E+00  0.74505805969E-08  0.10566000000E+00  0.10566000000E+00 0.  1.
     999900   -1    0    0    0    0 -0.00000000000E+00 -0.00000000000E+00 -0.74505805969E-08  0.93827000000E+00  0.93827000000E+00 0.  1.
     999902    2    1    2    0    0 -0.12999535624E-01  0.16621770917E-01  0.46592052242E-02  0.10223202941E+01  0.10220918767E+01 0.  0.
     999903    2    3    3    0    0 -0.25509552179E-01 -0.11437695589E-03  0.12925047568E+00  0.13329859369E+00  0.20299735986E-01 0.  0.
         14    1    1    2    0    0  0.12999535624E-01 -0.16621770917E-01 -0.46592052242E-02  0.21609705879E-01  0.00000000000E+00 0.  1.
     999901    1    3    3    0    0  0.12510016556E-01  0.16736147873E-01 -0.12459127046E+00  0.88902170043E+00  0.88000000000E+00 0.  1.
        -11    1    4    4    0    0 -0.38732372347E-03 -0.28215371144E-02  0.50701623454E-01  0.50784119892E-01  0.51100000000E-03 0. -1.
         11    1    4    4    0    0 -0.25122228456E-01  0.27071601585E-02  0.78548852230E-01  0.82514473800E-01  0.51100000000E-03 0.  1.
</event>
<event>
 8    1  0.1112929E+005  0.1043930E+01  0.7957747E-01            NaN
         13   -1    0    0    0    0  0.00000000000E+00  0.00000000000E+00  0.74505805969E-08  0.10566000000E+00  0.10566000000E+00 0.  1.
     999900   -1    0    0    0    0 -0.00000000000E+00 -0.00000000000E+00 -0.74505805969E-08  0.93827000000E+00  0.93827000000E+00 0. -1.
     999902    2    1    2    0    0  0.87990678483E-02 -0.20374667415E-01 -0.83999121090E-02  0.10202000782E+01  0.10199240610E+01 0.  0.
     999903    2    3    3    0    0 -0.60286459472E-01  0.87440160087E-01  0.67585365326E-01  0.12769203365E+00  0.21383055462E-01 0.  0.
         14    1    1    2    0    0 -0.87990678483E-02  0.20374667415E-01  0.83999121090E-02  0.23729921844E-01  0.00000000000E+00 0.  1.
     999901    1    3    3    0    0  0.69085527320E-01 -0.10781482750E+00 -0.75985277435E-01  0.89250804450E+00  0.88000000000E+00 0. -1.
        -11    1    4    4    0    0 -0.29218509310E-01  0.24450508273E-01  0.23596397676E-01  0.44817404492E-01  0.51100000000E-03 0. -1.
         11    1    4    4    0    0 -0.31067950162E-01  0.62989651814E-01  0.43988967650E-01  0.82874629162E-01  0.51100000000E-03 0.  1.
</event>
<event>
 8    1  0.1112929E+005  0.1043930E+01  0.7957747E-01            NaN
         13   -1    0    0    0    0  0.00000000000E+00  0.00000000000E+00  0.74505805969E-08  0.10566000000E+00  0.10566000000E+00 0. -1.
     999900   -1    0    0    0    0 -0.00000000000E+00 -0.00000000000E+00 -0.74505805969E-08  0.93827000000E+00  0.93827000000E+00 0.  1.
     999902    2    1    2    0    0 -0.21858838164E-01  0.52153820478E-02  0.62179272272E-02  0.10206132328E+01  0.10203468524E+01 0.  0.
     999903    2    3    3    0    0  0.72826386483E-02 -0.41484273646E-01 -0.12105617057E+00  0.12975478189E+00  0.20192206504E-01 0.  0.
         14    1    1    2    0    0  0.21858838164E-01 -0.52153820478E-02 -0.62179272272E-02  0.23316767246E-01  0.00000000000E+00 0. -1.
     999901    1    3    3    0    0 -0.29141476812E-01  0.46699655694E-01  0.12727409780E+00  0.89085845087E+00  0.88000000000E+00 0. -1.
        -11    1    4    4    0    0  0.12575194762E-01 -0.18383191098E-01 -0.47327327353E-01  0.52308835522E-01  0.51100000000E-03 0.  1.
         11    1    4    4    0    0 -0.52925561134E-02 -0.23101082548E-01 -0.73728843217E-01  0.77445946364E-01  0.51100000000E-03 0. -1.
</event>
<event>
 8    1  0.1112929E+005  0.1043930E+01  0.7957747E-01            NaN
         13   -1    0    0    0    0  0.00000000000E+00  0.00000000000E+00  0.74505805969E-08  0.10566000000E+00  0.10566000000E+00 0.  1.
     999900   -1    0    0    0    0 -0.00000000000E+00 -0.00000000000E+00 -0.74505805969E-08  0.93827000000E+00  0.93827000000E+00 0. -1.
     999902    2    1    2    0    0 -0.28047418603E-02  0.13545596943E-01 -0.18622687692E-01  0.10207318477E+01  0.10204682017E+01 0.  0.
     999903    2    3    3    0    0 -0.11856815490E+00  0.35278800285E-01  0.38776577150E-01  0.13103067566E+00  0.19037172112E-01 0.  0.
         14    1    1    2    0    0  0.28047418603E-02 -0.13545596943E-01  0.18622687692E-01  0.23198152304E-01  0.00000000000E+00 0.  1.
     999901    1    3    3    0    0  0.11576341304E+00 -0.21733203342E-01 -0.57399264842E-01  0.88970117204E+00  0.88000000000E+00 0.  1.
        -11    1    4    4    0    0 -0.67516621260E-01  0.22106677330E-01  0.12562087139E-01  0.72147532759E-01  0.51100000000E-03 0.  1.
         11    1    4    4    0    0 -0.51051533638E-01  0.13172122955E-01  0.26214490011E-01  0.58883142897E-01  0.51100000000E-03 0. -1.
</event>
<event>
 8    1  0.1112929E+005  0.1043930E+01  0.7957747E-01            NaN
         13   -1    0    0    0    0  0.00000000000E+00  0.00000000000E+00  0.74505805969E-08  0.10566000000E+00  0.10566000000E+00 0.  1.
     999900   -1    0    0    0    0 -0.00000000000E+00 -0.00000000000E+00 -0.74505805969E-08  0.93827000000E+00  0.93827000000E+00 0. -1.
     999902    2    1    2    0    0 -0.13602297426E-01  0.86318332693E-02 -0.14029486900E-01  0.10225674734E+01  0.10223443060E+01 0.  0.
     999903    2    3    3    0    0 -0.11477343933E+00  0.26284211631E-01  0.59636848685E-01  0.13353770143E+00  0.20296842727E-01 0.  0.
         14    1    1    2    0    0  0.13602297426E-01 -0.86318332693E-02  0.14029486900E-01  0.21362526619E-01  0.00000000000E+00 0.  1.
     999901    1    3    3    0    0  0.10117114191E+00 -0.17652378361E-01 -0.73666335585E-01  0.88902977195E+00  0.88000000000E+00 0. -1.
        -11    1    4    4    0    0 -0.68041002480E-01  0.86344008499E-02  0.42669599678E-01  0.80778009100E-01  0.51100000000E-03 0.  1.
         11    1    4    4    0    0 -0.46732436854E-01  0.17649810781E-01  0.16967249006E-01  0.52759692330E-01  0.51100000000E-03 0. -1.
</event>
<event>
 8    1  0.1112929E+005  0.1043930E+01  0.7957747E-01            NaN
         13   -1    0    0    0    0  0.00000000000E+00  0.00000000000E+00  0.74505805969E-08  0.10566000000E+00  0.10566000000E+00 0.  1.
     999900   -1    0    0    0    0 -0.00000000000E+00 -0.00000000000E+00 -0.74505805969E-08  0.93827000000E+00  0.93827000000E+00 0.  1.
     999902    2    1    2    0    0  0.20493089019E-03 -0.11163932244E-02 -0.23239917953E-01  0.10206623805E+01  0.10203971349E+01 0.  0.
     999903    2    3    3    0    0 -0.11041182597E+00  0.67667105976E-01  0.11452876754E-02  0.13073998225E+00  0.17944991775E-01 0.  0.
         14    1    1    2    0    0 -0.20493089019E-03  0.11163932244E-02  0.23239917953E-01  0.23267619495E-01  0.00000000000E+00 0.  1.
     999901    1    3    3    0    0  0.11061675686E+00 -0.68783499201E-01 -0.24385205628E-01  0.88992239825E+00  0.88000000000E+00 0. -1.
        -11    1    4    4    0    0 -0.26012781985E-01  0.79777152467E-02  0.27589359145E-02  0.27352908722E-01  0.51100000000E-03 0. -1.
         11    1    4    4    0    0 -0.84399043985E-01  0.59689390730E-01 -0.16136482391E-02  0.10338707353E+00  0.51100000000E-03 0.  1.
</event>
<event>
 8    1  0.1112929E+005  0.1043930E+01  0.7957747E-01            NaN
         13   -1    0    0    0    0  0.00000000000E+00  0.00000000000E+00  0.74505805969E-08  0.10566000000E+00  0.10566000000E+00 0.  1.
     999900   -1    0    0    0    0 -0.00000000000E+00 -0.00000000000E+00 -0.74505805969E-08  0.93827000000E+00  0.93827000000E+00 0. -1.
     999902    2    1    2    0    0  0.21000708281E-01  0.76445071547E-02 -0.78556582013E-02  0.10202407703E+01  0.10199657101E+01 0.  0.
     999903    2    3    3    0    0 -0.36797962663E-02  0.88832673561E-01 -0.95288426950E-01  0.13184607495E+00  0.19967933734E-01 0.  0.
         14    1    1    2    0    0 -0.21000708281E-01 -0.76445071547E-02  0.78556582013E-02  0.23689229699E-01  0.00000000000E+00 0.  1.
     999901    1    3    3    0    0  0.24680504547E-01 -0.81188166407E-01  0.87432768749E-01  0.88839469535E+00  0.88000000000E+00 0.  1.
        -11    1    4    4    0    0 -0.10235334829E-01  0.45044833904E-01 -0.56490869494E-01  0.72974506492E-01  0.51100000000E-03 0. -1.
         11    1    4    4    0    0  0.65555385626E-02  0.43787839657E-01 -0.38797557456E-01  0.58871568463E-01  0.51100000000E-03 0.  1.
</event>
<event>
 7    1  0.1112929E+005  0.1043930E+01  0.7957747E-01            NaN
         13   -1    0    0    0    0  0.00000000000E+00  0.00000000000E+00  0.74505805969E-08  0.10566000000E+00  0.10566000000E+00 0.  1.
     999900   -1    0    0    0    0 -0.00000000000E+00 -0.00000000000E+00 -0.74505805969E-08  0.93827000000E+00  0.93827000000E+00 0.  1.
     999902    2    1    2    0    0  0.55741205520E-02  0.42092730850E-03  0.23026485828E-01  0.10202347041E+01  0.10199595013E+01 0.  0.
         14    1    1    2    0    0 -0.55741205520E-02 -0.42092730850E-03 -0.23026485828E-01  0.23695295932E-01  0.00000000000E+00 0. -1.
     999901    1    3    3    0    0  0.10821902224E+00 -0.23380434391E-01  0.87472384015E-01  0.89124038253E+00  0.88000000000E+00 0. -1.
        -11    1    3    3    0    0 -0.44073948345E-01  0.12630958603E-02 -0.84753027727E-02  0.44902118123E-01  0.51100000000E-03 0.  1.
         11    1    3    3    0    0 -0.58570953347E-01  0.22538265839E-01 -0.55970595414E-01  0.84092203414E-01  0.51100000000E-03 0. -1.
</event>
<event>
 8    1  0.1112929E+005  0.1043930E+01  0.7957747E-01            NaN
         13   -1    0    0    0    0  0.00000000000E+00  0.00000000000E+00  0.74505805969E-08  0.10566000000E+00  0.10566000000E+00 0.  1.
     999900   -1    0    0    0    0 -0.00000000000E+00 -0.00000000000E+00 -0.74505805969E-08  0.93827000000E+00  0.93827000000E+00 0. -1.
     999902    2    1    2    0    0  0.94422788049E-02 -0.14328320729E-01 -0.15566133936E-01  0.10207618769E+01  0.10204989208E+01 0.  0.
     999903    2    3    3    0    0  0.12498609242E+00 -0.22566761557E-02  0.35965074330E-01  0.13163221090E+00  0.20172666884E-01 0.  0.
         14    1    1    2    0    0 -0.94422788049E-02  0.14328320729E-01  0.15566133936E-01  0.23168123136E-01  0.00000000000E+00 0.  1.
     999901    1    3    3    0    0 -0.11554381362E+00 -0.12071644573E-01 -0.51531208266E-01  0.88912966596E+00  0.88000000000E+00 0. -1.
        -11    1    4    4    0    0  0.76900918516E-01 -0.96566933067E-02  0.27541442418E-01  0.82254453774E-01  0.51100000000E-03 0.  1.
         11    1    4    4    0    0  0.48085173906E-01  0.74000171510E-02  0.84236319125E-02  0.49377757128E-01  0.51100000000E-03 0. -1.
</event>
<event>
 8    1  0.1112929E+005  0.1043930E+01  0.7957747E-01            NaN
         13   -1    0    0    0    0  0.00000000000E+00  0.00000000000E+00  0.74505805969E-08  0.10566000000E+00  0.10566000000E+00 0. -1.
     999900   -1    0    0    0    0 -0.00000000000E+00 -0.00000000000E+00 -0.74505805969E-08  0.93827000000E+00  0.93827000000E+00 0. -1.
     999902    2    1    2    0    0  0.39823652964E-02 -0.13814011218E-01 -0.18793933465E-01  0.10202678345E+01  0.10199934098E+01 0.  0.
     999903    2    3    3    0    0 -0.56760164325E-01  0.76328427559E-01 -0.86978679043E-01  0.13096222132E+00  0.23196286271E-01 0.  0.
         14    1    1    2    0    0 -0.39823652964E-02  0.13814011218E-01  0.18793933465E-01  0.23662165462E-01  0.00000000000E+00 0. -1.
     999901    1    3    3    0    0  0.60742529621E-01 -0.90142438778E-01  0.68184745578E-01  0.88930561322E+00  0.88000000000E+00 0.  1.
        -11    1    4    4    0    0 -0.41766482985E-01  0.39302852737E-01 -0.44024369617E-01  0.72301864260E-01  0.51100000000E-03 0.  1.
         11    1    4    4    0    0 -0.14993681340E-01  0.37025574822E-01 -0.42954309425E-01  0.58660357059E-01  0.51100000000E-03 0. -1.
</event>
<event>
 8    1  0.1112929E+005  0.1043930E+01  0.7957747E-01            NaN
         13   -1    0    0    0    0  0.00000000000E+00  0.00000000000E+00  0.74505805969E-08  0.10566000000E+00  0.10566000000E+00 0. -1.
     999900   -1    0    0    0    0 -0.00000000000E+00 -0.00000000000E+00 -0.74505805969E-08  0.93827000000E+00  0.93827000000E+00 0.  1.
     999902    2    1    2    0    0  0.45776738752E-02 -0.51644942355E-02  0.24914423347E-01  0.10180774259E+01  0.10177491289E+01 0.  0.
     999903    2    3    3    0    0 -0.49387393143E-01  0.82225568179E-01  0.85064416140E-01  0.13006432174E+00  0.21922915678E-01 0.  0.
         14    1    1    2    0    0 -0.45776738752E-02  0.51644942355E-02 -0.24914423347E-01  0.25852574137E-01  0.00000000000E+00 0.  1.
     999901    1    3    3    0    0  0.53965067018E-01 -0.87390062414E-01 -0.60149992793E-01  0.88801310413E+00  0.88000000000E+00 0.  1.
        -11    1    4    4    0    0 -0.22715748514E-01  0.51891556747E-01  0.38883125738E-01  0.68708787505E-01  0.51100000000E-03 0.  1.
         11    1    4    4    0    0 -0.26671644629E-01  0.30334011432E-01  0.46181290401E-01  0.61355534232E-01  0.51100000000E-03 0. -1.
</event>
<event>
 8    1  0.1112929E+005  0.1043930E+01  0.7957747E-01            NaN
         13   -1    0    0    0    0  0.00000000000E+00  0.00000000000E+00  0.74505805969E-08  0.10566000000E+00  0.10566000000E+00 0.  1.
     999900   -1    0    0    0    0 -0.00000000000E+00 -0.00000000000E+00 -0.74505805969E-08  0.93827000000E+00  0.93827000000E+00 0.  1.
     999902    2    1    2    0    0 -0.18768473604E-01  0.52211140624E-03  0.14060805695E-01  0.10204729231E+01  0.10202032897E+01 0.  0.
     999903    2    3    3    0    0  0.29869815129E-02  0.10773626557E+00  0.73095848612E-01  0.13173600418E+00  0.19883328107E-01 0.  0.
         14    1    1    2    0    0  0.18768473604E-01 -0.52211140624E-03 -0.14060805695E-01  0.23457076939E-01  0.00000000000E+00 0. -1.
     999901    1    3    3    0    0 -0.21755455117E-01 -0.10721415416E+00 -0.59035042917E-01  0.88873691888E+00  0.88000000000E+00 0.  1.
        -11    1    4    4    0    0 -0.63128099630E-02  0.47464744645E-01  0.24703026970E-01  0.53881854240E-01  0.51100000000E-03 0.  1.
         11    1    4    4    0    0  0.92997914758E-02  0.60271520926E-01  0.48392821641E-01  0.77854149945E-01  0.51100000000E-03 0. -1.
</event>
<event>
 8    1  0.1112929E+005  0.1043930E+01  0.7957747E-01            NaN
         13   -1    0    0    0    0  0.00000000000E+00  0.00000000000E+00  0.74505805969E-08  0.10566000000E+00  0.10566000000E+00 0. -1.
     999900   -1    0    0    0    0 -0.00000000000E+00 -0.00000000000E+00 -0.74505805969E-08  0.93827000000E+00  0.93827000000E+00 0. -1.
     999902    2    1    2    0    0 -0.12965376874E-01 -0.17909125473E-01  0.97205681711E-02  0.10197778320E+01  0.10194917849E+01 0.  0.
     999903    2    3    3    0    0 -0.21032348906E-01 -0.13793223859E-01 -0.12544047470E+00  0.12941244399E+00  0.19484743836E-01 0.  0.
         14    1    1    2    0    0  0.12965376874E-01  0.17909125473E-01 -0.97205681711E-02  0.24152167982E-01  0.00000000000E+00 0.  1.
     999901    1    3    3    0    0  0.80669720324E-02 -0.41159016135E-02  0.13516104287E+00  0.89036538803E+00  0.88000000000E+00 0.  1.
        -11    1    4    4    0    0 -0.17029350689E-01 -0.16667145896E-02 -0.48839469192E-01  0.51752599880E-01  0.51100000000E-03 0. -1.
         11    1    4    4    0    0 -0.40029982171E-02 -0.12126509270E-01 -0.76601005507E-01  0.77659844112E-01  0.51100000000E-03 0.  1.
</event>
<event>
 8    1  0.1112929E+005  0.1043930E+01  0.7957747E-01            NaN
         13   -1    0    0    0    0  0.00000000000E+00  0.00000000000E+00  0.74505805969E-08  0.10566000000E+00  0.10566000000E+00 0.  1.
     999900   -1    0    0    0    0 -0.00000000000E+00 -0.00000000000E+00 -0.74505805969E-08  0.93827000000E+00  0.93827000000E+00 0. -1.
     999902    2    1    2    0    0 -0.16958277322E-01 -0.23430644544E-02  0.15931001645E-01  0.10205447496E+01  0.10202767841E+01 0.  0.
     999903    2    3    3    0    0 -0.62725771542E-01 -0.29054434753E-01  0.11260913717E+00  0.13366548914E+00  0.20173314473E-01 0.  0.
         14    1    1    2    0    0  0.16958277322E-01  0.23430644544E-02 -0.15931001645E-01  0.23385250355E-01  0.00000000000E+00 0. -1.
     999901    1    3    3    0    0  0.45767494221E-01  0.26711370298E-01 -0.96678135528E-01  0.88687926051E+00  0.88000000000E+00 0. -1.
        -11    1    4    4    0    0 -0.39687016484E-01 -0.13167230844E-01  0.50682665813E-01  0.65707145581E-01  0.51100000000E-03 0.  1.
         11    1    4    4    0    0 -0.23038755058E-01 -0.15887203909E-01  0.61926471360E-01  0.67958343555E-01  0.51100000000E-03 0. -1.
</event>
<event>
 8    1  0.1112929E+005  0.1043930E+01  0.7957747E-01            NaN
         13   -1    0    0    0    0  0.00000000000E+00  0.00000000000E+00  0.74505805969E-08  0.10566000000E+00  0.10566000000E+00 0. -1.
     999900   -1    0    0    0    0 -0.00000000000E+00 -0.00000000000E+00 -0.74505805969E-08  0.93827000000E+00  0.93827000000E+00 0.  1.
     999902    2    1    2    0    0 -0.94932042170E-02 -0.48149334425E-02 -0.20766172924E-01  0.10205946524E+01  0.10203278424E+01 0.  0.
     999903    2    3    3    0    0  0.48389426904E-01 -0.90830668335E-01 -0.81138633158E-01  0.13245393178E+00  0.19204668917E-01 0.  0.
         14    1    1    2    0    0  0.94932042170E-02  0.48149334425E-02  0.20766172924E-01  0.23335347614E-01  0.00000000000E+00 0. -1.
     999901    1    3    3    0    0 -0.57882631121E-01  0.86015734892E-01  0.60372460234E-01  0.88814072060E+00  0.88000000000E+00 0. -1.
        -11    1    4    4    0    0  0.32862683775E-01 -0.53071516589E-01 -0.59527058142E-01  0.86257020757E-01  0.51100000000E-03 0. -1.
         11    1    4    4    0    0  0.15526743130E-01 -0.37759151746E-01 -0.21611575016E-01  0.46196911028E-01  0.51100000000E-03 0.  1.
</event>
<event>
 8    1  0.1112929E+005  0.1043930E+01  0.7957747E-01            NaN
         13   -1    0    0    0    0  0.00000000000E+00  0.00000000000E+00  0.74505805969E-08  0.10566000000E+00  0.10566000000E+00 0.  1.
     999900   -1    0    0    0    0 -0.00000000000E+00 -0.00000000000E+00 -0.74505805969E-08  0.93827000000E+00  0.93827000000E+00 0. -1.
     999902    2    1    2    0    0  0.20011948207E-01 -0.11450260020E-01 -0.47760566024E-02  0.10203843583E+01  0.10201126612E+01 0.  0.
     999903    2    3    3    0    0 -0.11242373029E+00 -0.12663527764E-01  0.57204462774E-01  0.12831806833E+00  0.19842278858E-01 0.  0.
         14    1    1    2    0    0 -0.20011948207E-01  0.11450260020E-01  0.47760566024E-02  0.23545641683E-01  0.00000000000E+00 0. -1.
     999901    1    3    3    0    0  0.13243567850E+00  0.12132677437E-02 -0.61980519376E-01  0.89206628999E+00  0.88000000000E+00 0. -1.
        -11    1    4    4    0    0 -0.93614228263E-01 -0.11092975806E-01  0.38776494020E-01  0.10193407406E+00  0.51100000000E-03 0.  1.
         11    1    4    4    0    0 -0.18809502025E-01 -0.15705519579E-02  0.18427968754E-01  0.26383994263E-01  0.51100000000E-03 0. -1.
</event>
<event>
 8    1  0.1112929E+005  0.1043930E+01  0.7957747E-01            NaN
         13   -1    0    0    0    0  0.00000000000E+00  0.00000000000E+00  0.74505805969E-08  0.10566000000E+00  0.10566000000E+00 0.  1.
     999900   -1    0    0    0    0 -0.00000000000E+00 -0.00000000000E+00 -0.74505805969E-08  0.93827000000E+00  0.93827000000E+00 0. -1.
     999902    2    1    2    0    0 -0.26983909422E-02 -0.68801564931E-02 -0.23434083953E-01  0.10193581837E+01  0.10190619866E+01 0.  0.
     999903    2    3    3    0    0 -0.49478693584E-01  0.11857728261E-02 -0.12173536173E+00  0.13261323886E+00  0.17810829539E-01 0.  0.
         14    1    1    2    0    0  0.26983909422E-02  0.68801564931E-02  0.23434083953E-01  0.24571816330E-01  0.00000000000E+00 0.  1.
     999901    1    3    3    0    0  0.46780302642E-01 -0.80659293192E-02  0.98301277780E-01  0.88674494481E+00  0.88000000000E+00 0.  1.
        -11    1    4    4    0    0 -0.16246434686E-01 -0.74407232378E-02 -0.34343053285E-01  0.38717146489E-01  0.51100000000E-03 0.  1.
         11    1    4    4    0    0 -0.33232258898E-01  0.86264960640E-02 -0.87392308448E-01  0.93896092372E-01  0.51100000000E-03 0. -1.
</event>
<event>
 8    1  0.1112929E+005  0.1043930E+01  0.7957747E-01            NaN
         13   -1    0    0    0    0  0.00000000000E+00  0.00000000000E+00  0.74505805969E-08  0.10566000000E+00  0.10566000000E+00 0.  1.
     999900   -1    0    0    0    0 -0.00000000000E+00 -0.00000000000E+00 -0.74505805969E-08  0.93827000000E+00  0.93827000000E+00 0.  1.
     999902    2    1    2    0    0 -0.20643344637E-01  0.15910861567E-01 -0.41630083419E-02  0.10175361781E+01  0.10171938065E+01 0.  0.
     999903    2    3    3    0    0  0.90590996420E-01 -0.80743527729E-01  0.21701652283E-01  0.12490852326E+00  0.20122911530E-01 0.  0.
         14    1    1    2    0    0  0.20643344637E-01 -0.15910861567E-01  0.41630083419E-02  0.26393821854E-01  0.00000000000E+00 0. -1.
     999901    1    3    3    0    0 -0.11123434106E+00  0.96654389296E-01 -0.25864660625E-01  0.89262765489E+00  0.88000000000E+00 0.  1.
        -11    1    4    4    0    0  0.59244181778E-02 -0.18288327255E-02  0.49712983931E-02  0.79635600454E-02  0.51100000000E-03 0. -1.
         11    1    4    4    0    0  0.84666578242E-01 -0.78914695004E-01  0.16730353890E-01  0.11694496321E+00  0.51100000000E-03 0.  1.
</event>
<event>
 8    1  0.1112929E+005  0.1043930E+01  0.7957747E-01            NaN
         13   -1    0    0    0    0  0.00000000000E+00  0.00000000000E+00  0.74505805969E-08  0.10566000000E+00  0.10566000000E+00 0.  1.
     999900   -1    0    0    0    0 -0.00000000000E+00 -0.00000000000E+00 -0.74505805969E-08  0.93827000000E+00  0.93827000000E+00 0. -1.
     999902    2    1    2    0    0 -0.17517521664E-01 -0.11199412493E-01 -0.12352857967E-01  0.10197456351E+01  0.10194588157E+01 0.  0.
     999903    2    3    3    0    0 -0.10775303235E+00 -0.64258770576E-01 -0.39785004009E-01  0.13311704009E+00  0.19934749593E-01 0.  0.
         14    1    1    2    0    0  0.17517521664E-01  0.11199412493E-01  0.12352857967E-01  0.24184364895E-01  0.00000000000E+00 0. -1.
     999901    1    3    3    0    0  0.90235510684E-01  0.53059358082E-01  0.27432146042E-01  0.88662859502E+00  0.88000000000E+00 0. -1.
        -11    1    4    4    0    0 -0.63800097974E-01 -0.27107340269E-01 -0.25035176649E-01  0.73704013383E-01  0.51100000000E-03 0. -1.
         11    1    4    4    0    0 -0.43952934374E-01 -0.37151430306E-01 -0.14749827359E-01  0.59413026703E-01  0.51100000000E-03 0.  1.
</event>
<event>
 8    1  0.1112929E+005  0.1043930E+01  0.7957747E-01            NaN
         13   -1    0    0    0    0  0.00000000000E+00  0.00000000000E+00  0.74505805969E-08  0.10566000000E+00  0.10566000000E+00 0. -1.
     999900   -1    0    0    0    0 -0.00000000000E+00 -0.00000000000E+00 -0.74505805969E-08  0.93827000000E+00  0.93827000000E+00 0. -1.
     999902    2    1    2    0    0  0.20468246021E-01 -0.49626820577E-02 -0.99788453758E-02  0.10206243212E+01  0.10203581971E+01 0.  0.
     999903    2    3    3    0    0  0.12494735392E+00 -0.68570735164E-02 -0.42802255662E-01  0.13383412677E+00  0.20510477583E-01 0.  0.
         14    1    1    2    0    0 -0.20468246021E-01  0.49626820577E-02  0.99788453758E-02  0.23305678781E-01  0.00000000000E+00 0. -1.
     999901    1    3    3    0    0 -0.10447910790E+00  0.18943914588E-02  0.32823410286E-01  0.88679019445E+00  0.88000000000E+00 0. -1.
        -11    1    4    4    0    0  0.39577846023E-01 -0.93258670373E-03 -0.23727505621E-01  0.46157678210E-01  0.51100000000E-03 0. -1.
         11    1    4    4    0    0  0.85369507895E-01 -0.59244868127E-02 -0.19074750042E-01  0.87676448561E-01  0.51100000000E-03 0.  1.
</event>
<event>
 8    1  0.1112929E+005  0.1043930E+01  0.7957747E-01            NaN
         13   -1    0    0    0    0  0.00000000000E+00  0.00000000000E+00  0.74505805969E-08  0.10566000000E+00  0.10566000000E+00 0.  1.
     999900   -1    0    0    0    0 -0.00000000000E+00 -0.00000000000E+00 -0.74505805969E-08  0.93827000000E+00  0.93827000000E+00 0. -1.
     999902    2    1    2    0    0  0.56423111403E-02  0.19909302063E-01  0.13688094190E-01  0.10191191172E+01  0.10188170567E+01 0.  0.
     999903    2    3    3    0    0 -0.89385155706E-01  0.18417752956E-01 -0.87138534590E-01  0.12827768727E+00  0.23089416548E-01 0.  0.
         14    1    1    2    0    0 -0.56423111403E-02 -0.19909302063E-01 -0.13688094190E-01  0.24810882818E-01  0.00000000000E+00 0. -1.
     999901    1    3    3    0    0  0.95027466847E-01  0.14915491074E-02  0.10082662878E+00  0.89084142991E+00  0.88000000000E+00 0.  1.
        -11    1    4    4    0    0 -0.35171640283E-01  0.10012360849E-01 -0.20380370751E-01  0.41867795296E-01  0.51100000000E-03 0.  1.
         11    1    4    4    0    0 -0.54213515423E-01  0.84053921067E-02 -0.66758163839E-01  0.86409891975E-01  0.51100000000E-03 0. -1.
</event>
<event>
 8    1  0.1112929E+005  0.1043930E+01  0.7957747E-01            NaN
         13   -1    0    0    0    0  0.00000000000E+00  0.00000000000E+00  0.74505805969E-08  0.10566000000E+00  0.10566000000E+00 0.  1.
     999900   -1    0    0    0    0 -0.00000000000E+00 -0.00000000000E+00 -0.74505805969E-08  0.93827000000E+00  0.93827000000E+00 0. -1.
     999902    2    1    2    0    0  0.43795176724E-02  0.18227575840E-01 -0.16481526426E-01  0.10189687218E+01  0.10186629426E+01 0.  0.
     999903    2    3    3    0    0 -0.31724371116E-01  0.12401190714E+00 -0.24546614093E-01  0.13186170392E+00  0.19989593849E-01 0.  0.
         14    1    1    2    0    0 -0.43795176724E-02 -0.18227575840E-01  0.16481526426E-01  0.24961278200E-01  0.00000000000E+00 0.  1.
     999901    1    3    3    0    0  0.36103888788E-01 -0.10578433130E+00  0.80650876672E-02  0.88710701788E+00  0.88000000000E+00 0.  1.
        -11    1    4    4    0    0 -0.24884960859E-01  0.57155695615E-01 -0.12613830108E-01  0.63603495573E-01  0.51100000000E-03 0. -1.
         11    1    4    4    0    0 -0.68394102567E-02  0.66856211524E-01 -0.11932783984E-01  0.68258208346E-01  0.51100000000E-03 0.  1.
</event>
<event>
 8    1  0.1112929E+005  0.1043930E+01  0.7957747E-01            NaN
         13   -1    0    0    0    0  0.00000000000E+00  0.00000000000E+00  0.74505805969E-08  0.10566000000E+00  0.10566000000E+00 0. -1.
     999900   -1    0    0    0    0 -0.00000000000E+00 -0.00000000000E+00 -0.74505805969E-08  0.93827000000E+00  0.93827000000E+00 0.  1.
     999902    2    1    2    0    0  0.11962554458E-01  0.56101849819E-02 -0.22444992095E-01  0.10178847595E+01  0.10175514871E+01 0.  0.
     999903    2    3    3    0    0  0.11617937851E+00  0.44467900879E-01  0.29543021709E-01  0.12936136524E+00  0.19660378582E-01 0.  0.
         14    1    1    2    0    0 -0.11962554458E-01 -0.56101849819E-02  0.22444992095E-01  0.26045240541E-01  0.00000000000E+00 0. -1.
     999901    1    3    3    0    0 -0.10421682405E+00 -0.38857715897E-01 -0.51988013804E-01  0.88852339422E+00  0.88000000000E+00 0. -1.
        -11    1    4    4    0    0  0.40764108959E-01  0.17382515242E-01  0.11070757645E-02  0.44332281163E-01  0.51100000000E-03 0.  1.
         11    1    4    4    0    0  0.75415269547E-01  0.27085385637E-01  0.28435945944E-01  0.85029084075E-01  0.51100000000E-03 0. -1.
</event>
<event>
 8    1  0.1112929E+005  0.1043930E+01  0.7957747E-01            NaN
         13   -1    0    0    0    0  0.00000000000E+00  0.00000000000E+00  0.74505805969E-08  0.10566000000E+00  0.10566000000E+00 0. -1.
     999900   -1    0    0    0    0 -0.00000000000E+00 -0.00000000000E+00 -0.74505805969E-08  0.93827000000E+00  0.93827000000E+00 0. -1.
     999902    2    1    2    0    0 -0.11448650090E-02  0.33629339587E-01  0.78371717561E-02  0.10093805505E+01  0.10087890916E+01 0.  0.
     999903    2    3    3    0    0  0.46482522617E-01 -0.10562580416E+00  0.34595369750E-02  0.11714766233E+00  0.19853739705E-01 0.  0.
         14    1    1    2    0    0  0.11448650090E-02 -0.33629339587E-01 -0.78371717561E-02  0.34549449461E-01  0.00000000000E+00 0. -1.
     999901    1    3    3    0    0 -0.47627387626E-01  0.13925514375E+00  0.43776347811E-02  0.89223288821E+00  0.88000000000E+00 0. -1.
        -11    1    4    4    0    0  0.23988050454E-01 -0.40723017700E-01  0.94268186073E-02  0.48196646825E-01  0.51100000000E-03 0.  1.
         11    1    4    4    0    0  0.22494472163E-01 -0.64902786461E-01 -0.59672816323E-02  0.68951015507E-01  0.51100000000E-03 0. -1.
</event>
<event>
 8    1  0.1112929E+005  0.1043930E+01  0.7957747E-01            NaN
         13   -1    0    0    0    0  0.00000000000E+00  0.00000000000E+00  0.74505805969E-08  0.10566000000E+00  0.10566000000E+00 0. -1.
     999900   -1    0    0    0    0 -0.00000000000E+00 -0.00000000000E+00 -0.74505805969E-08  0.93827000000E+00  0.93827000000E+00 0.  1.
     999902    2    1    2    0    0 -0.13579251276E-01 -0.11700149268E-01 -0.68885042914E-02  0.10247273687E+01  0.10245474313E+01 0.  0.
     999903    2    3    3    0    0 -0.12141991291E+00 -0.58415480451E-01 -0.15922219239E-01  0.13686840552E+00  0.18007769344E-01 0.  0.
         14    1    1    2    0    0  0.13579251276E-01  0.11700149268E-01  0.68885042914E-02  0.19202631317E-01  0.00000000000E+00 0. -1.
     999901    1    3    3    0    0  0.10784066163E+00  0.46715331184E-01  0.90337149476E-02  0.88785896317E+00  0.88000000000E+00 0. -1.
        -11    1    4    4    0    0 -0.54207940632E-01 -0.35501734798E-01 -0.46542791176E-02  0.64967664544E-01  0.51100000000E-03 0. -1.
         11    1    4    4    0    0 -0.67211972274E-01 -0.22913745654E-01 -0.11267940121E-01  0.71900740973E-01  0.51100000000E-03 0.  1.
</event>
<event>
 8    1  0.1112929E+005  0.1043930E+01  0.7957747E-01            NaN
         13   -1    0    0    0    0  0.00000000000E+00  0.00000000000E+00  0.74505805969E-08  0.10566000000E+00  0.10566000000E+00 0.  1.
     999900   -1    0    0    0    0 -0.00000000000E+00 -0.00000000000E+00 -0.74505805969E-08  0.93827000000E+00  0.93827000000E+00 0.  1.
     999902    2    1    2    0    0  0.98247794528E-02  0.20822713538E-01 -0.46779124876E-02  0.10204354356E+01  0.10201649297E+01 0.  0.
     999903    2    3    3    0    0 -0.47180715619E-01 -0.80678032245E-01 -0.86560068194E-01  0.12900023590E+00  0.20333485785E-01 0.  0.
         14    1    1    2    0    0 -0.98247794528E-02 -0.20822713538E-01  0.46779124876E-02  0.23494564384E-01  0.00000000000E+00 0.  1.
     999901    1    3    3    0    0  0.57005495072E-01  0.10150074578E+00  0.81882155707E-01  0.89143519971E+00  0.88000000000E+00 0.  1.
        -11    1    4    4    0    0 -0.40868006691E-01 -0.54351679468E-01 -0.55358132249E-01  0.87687416195E-01  0.51100000000E-03 0.  1.
         11    1    4    4    0    0 -0.63127089283E-02 -0.26326352777E-01 -0.31201935945E-01  0.41312819709E-01  0.51100000000E-03 0. -1.
</event>
<event>
 8    1  0.1112929E+005  0.1043930E+01  0.7957747E-01            NaN
         13   -1    0    0    0    0  0.00000000000E+00  0.00000000000E+00  0.74505805969E-08  0.10566000000E+00  0.10566000000E+00 0. -1.
     999900   -1    0    0    0    0 -0.00000000000E+00 -0.00000000000E+00 -0.74505805969E-08  0.93827000000E+00  0.93827000000E+00 0. -1.
     999902    2    1    2    0    0 -0.15892510258E-02  0.15238159084E-01  0.17470629166E-01  0.10206931737E+01  0.10204286378E+01 0.  0.
     999903    2    3    3    0    0 -0.56182746041E-01 -0.91180479660E-01 -0.68273077068E-01  0.12847270798E+00  0.19329842705E-01 0.  0.
         14    1    1    2    0    0  0.15892510258E-02 -0.15238159084E-01 -0.17470629166E-01  0.23236826258E-01  0.00000000000E+00 0.  1.
     999901    1    3    3    0    0  0.54593495015E-01  0.10641863874E+00  0.85743706234E-01  0.89222046576E+00  0.88000000000E+00 0. -1.
        -11    1    4    4    0    0 -0.35402271831E-01 -0.71645798940E-01 -0.45421222445E-01  0.91922738895E-01  0.51100000000E-03 0. -1.
         11    1    4    4    0    0 -0.20780474209E-01 -0.19534680720E-01 -0.22851854623E-01  0.36549969082E-01  0.51100000000E-03 0.  1.
</event>
<event>
 8    1  0.1112929E+005  0.1043930E+01  0.7957747E-01            NaN
         13   -1    0    0    0    0  0.00000000000E+00  0.00000000000E+00  0.74505805969E-08  0.10566000000E+00  0.10566000000E+00 0.  1.
     999900   -1    0    0    0    0 -0.00000000000E+00 -0.00000000000E+00 -0.74505805969E-08  0.93827000000E+00  0.93827000000E+00 0.  1.
     999902    2    1    2    0    0  0.18802376484E-01 -0.70565858899E-02  0.12270821469E-01  0.10203949660E+01  0.10201235164E+01 0.  0.
     999903    2    3    3    0    0  0.12112616943E+00  0.47525624108E-01  0.16164670650E-01  0.13277762823E+00  0.20937242282E-01 0.  0.
         14    1    1    2    0    0 -0.18802376484E-01  0.70565858899E-02 -0.12270821469E-01  0.23535034000E-01  0.00000000000E+00 0. -1.
     999901    1    3    3    0    0 -0.10232379294E+00 -0.54582209997E-01 -0.38938491805E-02  0.88761733777E+00  0.88000000000E+00 0. -1.
        -11    1    4    4    0    0  0.66205448908E-01  0.37000616564E-01  0.80914169394E-02  0.76275417012E-01  0.51100000000E-03 0. -1.
         11    1    4    4    0    0  0.54920720517E-01  0.10525007543E-01  0.80732537106E-02  0.56502211217E-01  0.51100000000E-03 0.  1.
</event>
<event>
 8    1  0.1112929E+005  0.1043930E+01  0.7957747E-01            NaN
         13   -1    0    0    0    0  0.00000000000E+00  0.00000000000E+00  0.74505805969E-08  0.10566000000E+00  0.10566000000E+00 0. -1.
     999900   -1    0    0    0    0 -0.00000000000E+00 -0.00000000000E+00 -0.74505805969E-08  0.93827000000E+00  0.93827000000E+00 0.  1.
     999902    2    1    2    0    0  0.13089977956E-01  0.16889017084E-01  0.10591147700E-01  0.10200813348E+01  0.10198025156E+01 0.  0.
     999903    2    3    3    0    0  0.11657442524E-01 -0.73271275071E-01  0.10575702397E+00  0.13036931712E+00  0.17522414533E-01 0.  0.
         14    1    1    2    0    0 -0.13089977956E-01 -0.16889017084E-01 -0.10591147700E-01  0.23848665173E-01  0.00000000000E+00 0.  1.
     999901    1    3    3    0    0  0.14325354320E-02  0.90160292155E-01 -0.95165876271E-01  0.88971201770E+00  0.88000000000E+00 0.  1.
        -11    1    4    4    0    0  0.10880286561E-01 -0.29899640225E-01  0.55526571250E-01  0.63998674650E-01  0.51100000000E-03 0.  1.
         11    1    4    4    0    0  0.77715596292E-03 -0.43371634846E-01  0.50230452722E-01  0.66370642473E-01  0.51100000000E-03 0. -1.
</event>
<event>
 8    1  0.1112929E+005  0.1043930E+01  0.7957747E-01            NaN
         13   -1    0    0    0    0  0.00000000000E+00  0.00000000000E+00  0.74505805969E-08  0.10566000000E+00  0.10566000000E+00 0. -1.
     999900   -1    0    0    0    0 -0.00000000000E+00 -0.00000000000E+00 -0.74505805969E-08  0.93827000000E+00  0.93827000000E+00 0. -1.
     999902    2    1    2    0    0 -0.23477962681E-02 -0.17918226739E-01  0.15607892204E-01  0.10200515307E+01  0.10197720059E+01 0.  0.
     999903    2    3    3    0    0  0.95173878760E-01 -0.37513788243E-01 -0.77044275088E-01  0.12961406112E+00  0.19965796022E-01 0.  0.
         14    1    1    2    0    0  0.23477962681E-02  0.17918226739E-01 -0.15607892204E-01  0.23878469294E-01  0.00000000000E+00 0.  1.
     999901    1    3    3    0    0 -0.97521675028E-01  0.19595561505E-01  0.92652167291E-01  0.89043746958E+00  0.88000000000E+00 0.  1.
        -11    1    4    4    0    0  0.84305640819E-02 -0.78683544563E-02 -0.14971312810E-01  0.18904675105E-01  0.51100000000E-03 0. -1.
         11    1    4    4    0    0  0.86743314678E-01 -0.29645433787E-01 -0.62072962278E-01  0.11070938602E+00  0.51100000000E-03 0.  1.
</event>
<event>
 8    1  0.1112929E+005  0.1043930E+01  0.7957747E-01            NaN
         13   -1    0    0    0    0  0.00000000000E+00  0.00000000000E+00  0.74505805969E-08  0.10566000000E+00  0.10566000000E+00 0. -1.
     999900   -1    0    0    0    0 -0.00000000000E+00 -0.00000000000E+00 -0.74505805969E-08  0.93827000000E+00  0.93827000000E+00 0. -1.
     999902    2    1    2    0    0 -0.12034755551E-01 -0.45182927760E-02  0.20557963254E-01  0.10196837598E+01  0.10193954531E+01 0.  0.
     999903    2    3    3    0    0 -0.15570497807E-01  0.12257230793E+00 -0.31993390958E-01  0.12899516826E+00  0.18702013166E-01 0.  0.
         14    1    1    2    0    0  0.12034755551E-01  0.45182927760E-02 -0.20557963254E-01  0.24246240202E-01  0.00000000000E+00 0.  1.
     999901    1    3    3    0    0  0.35357422560E-02 -0.12709060071E+00  0.52551354212E-01  0.89068859154E+00  0.88000000000E+00 0.  1.
        -11    1    4    4    0    0 -0.65780699179E-02  0.85186388996E-01 -0.29755436055E-01  0.90474521109E-01  0.51100000000E-03 0.  1.
         11    1    4    4    0    0 -0.89924278894E-02  0.37385918936E-01 -0.22379549030E-02  0.38520647154E-01  0.51100000000E-03 0. -1.
</event>
<event>
 8    1  0.1112929E+005  0.1043930E+01  0.7957747E-01            NaN
         13   -1    0    0    0    0  0.00000000000E+00  0.00000000000E+00  0.74505805969E-08  0.10566000000E+00  0.10566000000E+00 0.  1.
     999900   -1    0    0    0    0 -0.00000000000E+00 -0.00000000000E+00 -0.74505805969E-08  0.93827000000E+00  0.93827000000E+00 0. -1.
     999902    2    1    2    0    0 -0.24423426428E-01  0.21726922846E-01 -0.89711322283E-02  0.10100324463E+01  0.10094634706E+01 0.  0.
     999903    2    3    3    0    0  0.11255891735E+00  0.32579031552E-01  0.82810861554E-02  0.11920161508E+00  0.20237230028E-01 0.  0.
         14    1    1    2    0    0  0.24423426428E-01 -0.21726922846E-01  0.89711322283E-02  0.33897553721E-01  0.00000000000E+00 0. -1.
     999901    1    3    3    0    0 -0.13698234378E+00 -0.10852108706E-01 -0.17252218384E-01  0.89083083120E+00  0.88000000000E+00 0.  1.
        -11    1    4    4    0    0  0.61790811820E-01  0.17725202460E-01 -0.55511094524E-02  0.64524128547E-01  0.51100000000E-03 0.  1.
         11    1    4    4    0    0  0.50768105528E-01  0.14853829092E-01  0.13832195608E-01  0.54677486536E-01  0.51100000000E-03 0. -1.
</event>
<event>
 8    1  0.1112929E+005  0.1043930E+01  0.7957747E-01            NaN
         13   -1    0    0    0    0  0.00000000000E+00  0.00000000000E+00  0.74505805969E-08  0.10566000000E+00  0.10566000000E+00 0. -1.
     999900   -1    0    0    0    0 -0.00000000000E+00 -0.00000000000E+00 -0.74505805969E-08  0.93827000000E+00  0.93827000000E+00 0. -1.
     999902    2    1    2    0    0  0.34337773038E-02 -0.17854326649E-01  0.18076577048E-01  0.10182915436E+01  0.10179687311E+01 0.  0.
     999903    2    3    3    0    0 -0.20496685215E-01 -0.12558591136E+00 -0.19907938876E-01  0.13058574506E+00  0.21549374606E-01 0.  0.
         14    1    1    2    0    0 -0.34337773038E-02  0.17854326649E-01 -0.18076577048E-01  0.25638456359E-01  0.00000000000E+00 0. -1.
     999901    1    3    3    0    0  0.23930462519E-01  0.10773158471E+00  0.37984515924E-01  0.88770579858E+00  0.88000000000E+00 0.  1.
        -11    1    4    4    0    0 -0.33901914807E-02 -0.13994227070E-01 -0.93958092383E-02  0.17200992466E-01  0.51100000000E-03 0. -1.
         11    1    4    4    0    0 -0.17106493735E-01 -0.11159168429E+00 -0.10512129637E-01  0.11338475260E+00  0.51100000000E-03 0.  1.
</event>
<event>
 8    1  0.1112929E+005  0.1043930E+01  0.7957747E-01            NaN
         13   -1    0    0    0    0  0.00000000000E+00  0.00000000000E+00  0.74505805969E-08  0.10566000000E+00  0.10566000000E+00 0. -1.
     999900   -1    0    0    0    0 -0.00000000000E+00 -0.00000000000E+00 -0.74505805969E-08  0.93827000000E+00  0.93827000000E+00 0.  1.
     999902    2    1    2    0    0 -0.31677711600E-02  0.12045254278E-01 -0.19882288611E-01  0.10204687911E+01  0.10201990616E+01 0.  0.
     999903    2    3    3    0    0 -0.12211530828E+00 -0.31510832524E-01 -0.30639127073E-01  0.13133361637E+00  0.20116699486E-01 0.  0.
         14    1    1    2    0    0  0.31677711600E-02 -0.12045254278E-01  0.19882288611E-01  0.23461208945E-01  0.00000000000E+00 0. -1.
     999901    1    3    3    0    0  0.11894753712E+00  0.43556086802E-01  0.10756838463E-01  0.88913517468E+00  0.88000000000E+00 0. -1.
        -11    1    4    4    0    0 -0.57583083813E-01 -0.76005000149E-02 -0.67107548701E-02  0.58471142402E-01  0.51100000000E-03 0.  1.
         11    1    4    4    0    0 -0.64532224470E-01 -0.23910332509E-01 -0.23928372203E-01  0.72862473970E-01  0.51100000000E-03 0. -1.
</event>
<event>
 7    1  0.1112929E+005  0.1043930E+01  0.7957747E-01            NaN
         13   -1    0    0    0    0  0.00000000000E+00  0.00000000000E+00  0.74505805969E-08  0.10566000000E+00  0.10566000000E+00 0. -1.
     999900   -1    0    0    0    0 -0.00000000000E+00 -0.00000000000E+00 -0.74505805969E-08  0.93827000000E+00  0.93827000000E+00 0.  1.
     999902    2    1    2    0    0  0.20262277273E-01  0.14350788203E-01 -0.10451006162E-02  0.10190784963E+01  0.10187754337E+01 0.  0.
         14    1    1    2    0    0 -0.20262277273E-01 -0.14350788203E-01  0.10451006162E-02  0.24851503729E-01  0.00000000000E+00 0. -1.
     999901    1    3    3    0    0 -0.94742206335E-01  0.81208858753E-02  0.50703803325E-01  0.88657369131E+00  0.88000000000E+00 0. -1.
        -11    1    3    3    0    0  0.11809537424E-02  0.79886009076E-02 -0.24888788039E-02  0.84656975438E-02  0.51100000000E-03 0.  1.
         11    1    3    3    0    0  0.11382352986E+00 -0.17586985800E-02 -0.49260025138E-01  0.12403910742E+00  0.51100000000E-03 0. -1.
</event>
<event>
 8    1  0.1112929E+005  0.1043930E+01  0.7957747E-01            NaN
         13   -1    0    0    0    0  0.00000000000E+00  0.00000000000E+00  0.74505805969E-08  0.10566000000E+00  0.10566000000E+00 0.  1.
     999900   -1    0    0    0    0 -0.00000000000E+00 -0.00000000000E+00 -0.74505805969E-08  0.93827000000E+00  0.93827000000E+00 0.  1.
     999902    2    1    2    0    0  0.12284688375E-01 -0.17861829394E-01  0.94218556965E-02  0.10202925322E+01  0.10200186868E+01 0.  0.
     999903    2    3    3    0    0 -0.34098495710E-01  0.72699172649E-01 -0.97650868425E-01  0.12798246106E+00  0.19898269321E-01 0.  0.
         14    1    1    2    0    0 -0.12284688375E-01  0.17861829394E-01 -0.94218556965E-02  0.23637467769E-01  0.00000000000E+00 0. -1.
     999901    1    3    3    0    0  0.46383184085E-01 -0.90561002043E-01  0.10707272412E+00  0.89231007117E+00  0.88000000000E+00 0. -1.
        -11    1    4    4    0    0 -0.34145912381E-01  0.55904422993E-01 -0.72252360129E-01  0.97529034178E-01  0.51100000000E-03 0.  1.
         11    1    4    4    0    0  0.47416671016E-04  0.16794749655E-01 -0.25398508297E-01  0.30453426885E-01  0.51100000000E-03 0. -1.
</event>
<event>
 8    1  0.1112929E+005  0.1043930E+01  0.7957747E-01            NaN
         13   -1    0    0    0    0  0.00000000000E+00  0.00000000000E+00  0.74505805969E-08  0.10566000000E+00  0.10566000000E+00 0. -1.
     999900   -1    0    0    0    0 -0.00000000000E+00 -0.00000000000E+00 -0.74505805969E-08  0.93827000000E+00  0.93827000000E+00 0. -1.
     999902    2    1    2    0    0  0.18240502901E-02 -0.22800388987E-01 -0.14246831059E-02  0.10210124386E+01  0.10207552034E+01 0.  0.
     999903    2    3    3    0    0  0.67831049323E-01 -0.75800402658E-01 -0.83523290722E-01  0.13314639764E+00  0.20126371128E-01 0.  0.
         14    1    1    2    0    0 -0.18240502901E-02  0.22800388987E-01  0.14246831059E-02  0.22917561375E-01  0.00000000000E+00 0. -1.
     999901    1    3    3    0    0 -0.66006999033E-01  0.53000013672E-01  0.82098607616E-01  0.88786604099E+00  0.88000000000E+00 0.  1.
        -11    1    4    4    0    0  0.10980156137E-01 -0.56276922160E-02 -0.16840265544E-01  0.20882777906E-01  0.51100000000E-03 0.  1.
         11    1    4    4    0    0  0.56850893186E-01 -0.70172710442E-01 -0.66683025178E-01  0.11226361973E+00  0.51100000000E-03 0. -1.
</event>
<event>
 8    1  0.1112929E+005  0.1043930E+01  0.7957747E-01            NaN
         13   -1    0    0    0    0  0.00000000000E+00  0.00000000000E+00  0.74505805969E-08  0.10566000000E+00  0.10566000000E+00 0. -1.
     999900   -1    0    0    0    0 -0.00000000000E+00 -0.00000000000E+00 -0.74505805969E-08  0.93827000000E+00  0.93827000000E+00 0.  1.
     999902    2    1    2    0    0 -0.24147135997E-01 -0.17291809211E-02  0.27912774885E-02  0.10195606448E+01  0.10192693672E+01 0.  0.
     999903    2    3    3    0    0 -0.10216500667E+00  0.36590484803E-01 -0.72485399293E-01  0.13208007430E+00  0.20358309138E-01 0.  0.
         14    1    1    2    0    0  0.24147135997E-01  0.17291809211E-02 -0.27912774885E-02  0.24369355214E-01  0.00000000000E+00 0. -1.
     999901    1    3    3    0    0  0.78017870669E-01 -0.38319665724E-01  0.75276676781E-01  0.88748057049E+00  0.88000000000E+00 0. -1.
        -11    1    4    4    0    0 -0.71603138100E-01  0.16112503159E-01 -0.44251141207E-01  0.85703248264E-01  0.51100000000E-03 0. -1.
         11    1    4    4    0    0 -0.30561868566E-01  0.20477981643E-01 -0.28234258086E-01  0.46376826035E-01  0.51100000000E-03 0.  1.
</event>
<event>
 8    1  0.1112929E+005  0.1043930E+01  0.7957747E-01            NaN
         13   -1    0    0    0    0  0.00000000000E+00  0.00000000000E+00  0.74505805969E-08  0.10566000000E+00  0.10566000000E+00 0. -1.
     999900   -1    0    0    0    0 -0.00000000000E+00 -0.00000000000E+00 -0.74505805969E-08  0.93827000000E+00  0.93827000000E+00 0. -1.
     999902    2    1    2    0    0  0.56557763371E-02 -0.18028004607E-01 -0.15384814115E-01  0.10195642605E+01  0.10192730704E+01 0.  0.
     999903    2    3    3    0    0 -0.52081941317E-01  0.52421794412E-01  0.10167598650E+00  0.12715177221E+00  0.19209211440E-01 0.  0.
         14    1    1    2    0    0 -0.56557763371E-02  0.18028004607E-01  0.15384814115E-01  0.24365739501E-01  0.00000000000E+00 0. -1.
     999901    1    3    3    0    0  0.57737717654E-01 -0.70449799019E-01 -0.11706080061E+00  0.89241248829E+00  0.88000000000E+00 0. -1.
        -11    1    4    4    0    0 -0.31810494925E-01  0.41872685711E-01  0.79392580853E-01  0.95229577399E-01  0.51100000000E-03 0.  1.
         11    1    4    4    0    0 -0.20271446391E-01  0.10549108701E-01  0.22283405645E-01  0.31922194807E-01  0.51100000000E-03 0. -1.
</event>
<event>
 8    1  0.1112929E+005  0.1043930E+01  0.7957747E-01            NaN
         13   -1    0    0    0    0  0.00000000000E+00  0.00000000000E+00  0.74505805969E-08  0.10566000000E+00  0.10566000000E+00 0. -1.
     999900   -1    0    0    0    0 -0.00000000000E+00 -0.00000000000E+00 -0.74505805969E-08  0.93827000000E+00  0.93827000000E+00 0.  1.
     999902    2    1    2    0    0  0.16186713816E-01 -0.13804265407E-01 -0.98294692247E-02  0.10204952840E+01  0.10202261704E+01 0.  0.
     999903    2    3    3    0    0 -0.97970414404E-01  0.69941490006E-01  0.38278003069E-01  0.12788140873E+00  0.19960838099E-01 0.  0.
         14    1    1    2    0    0 -0.16186713816E-01  0.13804265407E-01  0.98294692247E-02  0.23434715975E-01  0.00000000000E+00 0. -1.
     999901    1    3    3    0    0  0.11415712822E+00 -0.83745755414E-01 -0.48107472294E-01  0.89261387529E+00  0.88000000000E+00 0.  1.
        -11    1    4    4    0    0 -0.57980144567E-01  0.53083387658E-01  0.25223415928E-01  0.82559221419E-01  0.51100000000E-03 0.  1.
         11    1    4    4    0    0 -0.39990269837E-01  0.16858102348E-01  0.13054587142E-01  0.45322187314E-01  0.51100000000E-03 0. -1.
</event>
<event>
 8    1  0.1112929E+005  0.1043930E+01  0.7957747E-01            NaN
         13   -1    0    0    0    0  0.00000000000E+00  0.00000000000E+00  0.74505805969E-08  0.10566000000E+00  0.10566000000E+00 0.  1.
     999900   -1    0    0    0    0 -0.00000000000E+00 -0.00000000000E+00 -0.74505805969E-08  0.93827000000E+00  0.93827000000E+00 0. -1.
     999902    2    1    2    0    0 -0.16893844005E-01  0.15976984356E-01 -0.41529165417E-02  0.10203098241E+01  0.10200363839E+01 0.  0.
     999903    2    3    3    0    0  0.90339651987E-01  0.78969797977E-01  0.46245568681E-01  0.13013729893E+00  0.19989553188E-01 0.  0.
         14    1    1    2    0    0  0.16893844005E-01 -0.15976984356E-01  0.41529165417E-02  0.23620175913E-01  0.00000000000E+00 0. -1.
     999901    1    3    3    0    0 -0.10723349599E+00 -0.62992813621E-01 -0.50398485223E-01  0.89017252516E+00  0.88000000000E+00 0.  1.
        -11    1    4    4    0    0  0.79511328087E-01  0.64853298288E-01  0.45716045376E-01  0.11233084847E+00  0.51100000000E-03 0. -1.
         11    1    4    4    0    0  0.10828323900E-01  0.14116499688E-01  0.52952330513E-03  0.17806450457E-01  0.51100000000E-03 0.  1.
</event>
<event>
 8    1  0.1112929E+005  0.1043930E+01  0.7957747E-01            NaN
         13   -1    0    0    0    0  0.00000000000E+00  0.00000000000E+00  0.74505805969E-08  0.10566000000E+00  0.10566000000E+00 0.  1.
     999900   -1    0    0    0    0 -0.00000000000E+00 -0.00000000000E+00 -0.74505805969E-08  0.93827000000E+00  0.93827000000E+00 0.  1.
     999902    2    1    2    0    0  0.12700524026E-01  0.31475946302E-02  0.20466777584E-01  0.10196380333E+01  0.10193486250E+01 0.  0.
     999903    2    3    3    0    0 -0.37529807055E-02 -0.68940692839E-01 -0.10509935327E+00  0.12765468578E+00  0.21975912958E-01 0.  0.
         14    1    1    2    0    0 -0.12700524026E-01 -0.31475946302E-02 -0.20466777584E-01  0.24291966721E-01  0.00000000000E+00 0. -1.
     999901    1    3    3    0    0  0.16453504732E-01  0.72088287469E-01  0.12556613085E+00  0.89198334750E+00  0.88000000000E+00 0. -1.
        -11    1    4    4    0    0  0.90010022119E-02 -0.29523353099E-01 -0.49021109485E-01  0.57930792461E-01  0.51100000000E-03 0.  1.
         11    1    4    4    0    0 -0.12753982917E-01 -0.39417339740E-01 -0.56078243780E-01  0.69723893314E-01  0.51100000000E-03 0. -1.
</event>
<event>
 8    1  0.1112929E+005  0.1043930E+01  0.7957747E-01            NaN
         13   -1    0    0    0    0  0.00000000000E+00  0.00000000000E+00  0.74505805969E-08  0.10566000000E+00  0.10566000000E+00 0.  1.
     999900   -1    0    0    0    0 -0.00000000000E+00 -0.00000000000E+00 -0.74505805969E-08  0.93827000000E+00  0.93827000000E+00 0.  1.
     999902    2    1    2    0    0 -0.59926941728E-02  0.16646742951E-01  0.18367256538E-01  0.10184274012E+01  0.10181080438E+01 0.  0.
     999903    2    3    3    0    0 -0.31954515652E-01 -0.11295383067E+00 -0.43343438325E-01  0.12641925395E+00  0.17986528008E-01 0.  0.
         14    1    1    2    0    0  0.59926941728E-02 -0.16646742951E-01 -0.18367256538E-01  0.25502598829E-01  0.00000000000E+00 0. -1.
     999901    1    3    3    0    0  0.25961821479E-01  0.12960057362E+00  0.61710694863E-01  0.89200814723E+00  0.88000000000E+00 0. -1.
        -11    1    4    4    0    0 -0.20590051997E-01 -0.42813468835E-01 -0.13879826805E-01  0.49496000526E-01  0.51100000000E-03 0.  1.
         11    1    4    4    0    0 -0.11364463655E-01 -0.70140361830E-01 -0.29463611520E-01  0.76923253419E-01  0.51100000000E-03 0. -1.
</event>
<event>
 8    1  0.1112929E+005  0.1043930E+01  0.7957747E-01            NaN
         13   -1    0    0    0    0  0.00000000000E+00  0.00000000000E+00  0.74505805969E-08  0.10566000000E+00  0.10566000000E+00 0. -1.
     999900   -1    0    0    0    0 -0.00000000000E+00 -0.00000000000E+00 -0.74505805969E-08  0.93827000000E+00  0.93827000000E+00 0. -1.
     999902    2    1    2    0    0  0.14627872703E-01 -0.51123307277E-02 -0.18237906752E-01  0.10199981838E+01  0.10197173937E+01 0.  0.
     999903    2    3    3    0    0 -0.52285026184E-01  0.32595509312E-01 -0.11433542963E+00  0.13144095368E+00  0.20197590114E-01 0.  0.
         14    1    1    2    0    0 -0.14627872703E-01  0.51123307277E-02  0.18237906752E-01  0.23931816228E-01  0.00000000000E+00 0. -1.
     999901    1    3    3    0    0  0.66912898887E-01 -0.37707840039E-01  0.96097522878E-01  0.88855723009E+00  0.88000000000E+00 0.  1.
        -11    1    4    4    0    0 -0.39801336913E-01  0.13716594309E-01 -0.77760398138E-01  0.88426421499E-01  0.51100000000E-03 0.  1.
         11    1    4    4    0    0 -0.12483689271E-01  0.18878915003E-01 -0.36575031492E-01  0.43014532185E-01  0.51100000000E-03 0. -1.
</event>
<event>
 8    1  0.1112929E+005  0.1043930E+01  0.7957747E-01            NaN
         13   -1    0    0    0    0  0.00000000000E+00  0.00000000000E+00  0.74505805969E-08  0.10566000000E+00  0.10566000000E+00 0.  1.
     999900   -1    0    0    0    0 -0.00000000000E+00 -0.00000000000E+00 -0.74505805969E-08  0.93827000000E+00  0.93827000000E+00 0.  1.
     999902    2    1    2    0    0  0.14514473661E-01  0.30280623087E-02 -0.18465441285E-01  0.10202485383E+01  0.10199736606E+01 0.  0.
     999903    2    3    3    0    0  0.19744634259E-02  0.45003156181E-01  0.11886850692E+00  0.12852000690E+00  0.18933770456E-01 0.  0.
         14    1    1    2    0    0 -0.14514473661E-01 -0.30280623087E-02  0.18465441285E-01  0.23681461713E-01  0.00000000000E+00 0. -1.
     999901    1    3    3    0    0  0.12540010235E-01 -0.41975093873E-01 -0.13733394821E+00  0.89172853139E+00  0.88000000000E+00 0.  1.
        -11    1    4    4    0    0  0.45429443551E-02  0.30277627949E-01  0.99151225296E-01  0.10377186370E+00  0.51100000000E-03 0. -1.
         11    1    4    4    0    0 -0.25684809292E-02  0.14725528232E-01  0.19717281625E-01  0.24748143196E-01  0.51100000000E-03 0.  1.
</event>
<event>
 8    1  0.1112929E+005  0.1043930E+01  0.7957747E-01            NaN
         13   -1    0    0    0    0  0.00000000000E+00  0.00000000000E+00  0.74505805969E-08  0.10566000000E+00  0.10566000000E+00 0.  1.
     999900   -1    0    0    0    0 -0.00000000000E+00 -0.00000000000E+00 -0.74505805969E-08  0.93827000000E+00  0.93827000000E+00 0.  1.
     999902    2    1    2    0    0  0.19465085697E-01  0.11834185049E-01  0.58006227948E-02  0.10204228793E+01  0.10201520808E+01 0.  0.
     999903    2    3    3    0    0 -0.11788909251E+00 -0.36997958277E-01 -0.26430817700E-01  0.12784816860E+00  0.19490485937E-01 0.  0.
         14    1    1    2    0    0 -0.19465085697E-01 -0.11834185049E-01 -0.58006227948E-02  0.23507120661E-01  0.00000000000E+00 0.  1.
     999901    1    3    3    0    0  0.13735417820E+00  0.48832143326E-01  0.32231440495E-01  0.89257471074E+00  0.88000000000E+00 0. -1.
        -11    1    4    4    0    0 -0.56636773750E-01 -0.27861132562E-01 -0.14817112409E-01  0.64836523577E-01  0.51100000000E-03 0. -1.
         11    1    4    4    0    0 -0.61252318756E-01 -0.91368257143E-02 -0.11613705291E-01  0.63011645024E-01  0.51100000000E-03 0.  1.
</event>
<event>
 8    1  0.1112929E+005  0.1043930E+01  0.7957747E-01            NaN
         13   -1    0    0    0    0  0.00000000000E+00  0.00000000000E+00  0.74505805969E-08  0.10566000000E+00  0.10566000000E+00 0.  1.
     999900   -1    0    0    0    0 -0.00000000000E+00 -0.00000000000E+00 -0.74505805969E-08  0.93827000000E+00  0.93827000000E+00 0.  1.
     999902    2    1    2    0    0 -0.10967666001E-02  0.21655144555E-01 -0.71710140616E-02  0.10210920573E+01  0.10208366265E+01 0.  0.
     999903    2    3    3    0    0 -0.95553577183E-01 -0.81424035746E-01 -0.25796489401E-01  0.12986014879E+00  0.20924618700E-01 0.  0.
         14    1    1    2    0    0  0.10967666001E-02 -0.21655144555E-01  0.71710140616E-02  0.22837942669E-01  0.00000000000E+00 0.  1.
     999901    1    3    3    0    0  0.94456810583E-01  0.10307918030E+00  0.18625475340E-01  0.89123190854E+00  0.88000000000E+00 0. -1.
        -11    1    4    4    0    0 -0.42893968413E-01 -0.36921637163E-01 -0.10557215160E-02  0.56608086753E-01  0.51100000000E-03 0. -1.
         11    1    4    4    0    0 -0.52659608771E-01 -0.44502398583E-01 -0.24740767885E-01  0.73252062033E-01  0.51100000000E-03 0.  1.
</event>
<event>
 8    1  0.1112929E+005  0.1043930E+01  0.7957747E-01            NaN
         13   -1    0    0    0    0  0.00000000000E+00  0.00000000000E+00  0.74505805969E-08  0.10566000000E+00  0.10566000000E+00 0.  1.
     999900   -1    0    0    0    0 -0.00000000000E+00 -0.00000000000E+00 -0.74505805969E-08  0.93827000000E+00  0.93827000000E+00 0. -1.
     999902    2    1    2    0    0  0.10840199083E-01  0.10338214670E-01 -0.18407652191E-01  0.10201975274E+01  0.10199214502E+01 0.  0.
     999903    2    3    3    0    0 -0.37923138112E-02 -0.12359725865E+00 -0.33599335398E-01  0.12981356036E+00  0.20784155585E-01 0.  0.
         14    1    1    2    0    0 -0.10840199083E-01 -0.10338214670E-01  0.18407652191E-01  0.23732472646E-01  0.00000000000E+00 0.  1.
     999901    1    3    3    0    0  0.14632512894E-01  0.13393547332E+00  0.15191683207E-01  0.89038396700E+00  0.88000000000E+00 0.  1.
        -11    1    4    4    0    0 -0.10431859568E-01 -0.10184137588E+00 -0.30686284177E-01  0.10687562254E+00  0.51100000000E-03 0. -1.
         11    1    4    4    0    0  0.66395457572E-02 -0.21755882767E-01 -0.29130512205E-02  0.22937937816E-01  0.51100000000E-03 0.  1.
</event>
<event>
 8    1  0.1112929E+005  0.1043930E+01  0.7957747E-01            NaN
         13   -1    0    0    0    0  0.00000000000E+00  0.00000000000E+00  0.74505805969E-08  0.10566000000E+00  0.10566000000E+00 0.  1.
     999900   -1    0    0    0    0 -0.00000000000E+00 -0.00000000000E+00 -0.74505805969E-08  0.93827000000E+00  0.93827000000E+00 0.  1.
     999902    2    1    2    0    0 -0.10048497105E-01  0.20488429846E-01 -0.10704179809E-02  0.10210850039E+01  0.10208294135E+01 0.  0.
     999903    2    3    3    0    0  0.95917877183E-01 -0.66420373413E-01  0.51174946799E-01  0.12894623068E+00  0.19908542356E-01 0.  0.
         14    1    1    2    0    0  0.10048497105E-01 -0.20488429846E-01  0.10704179809E-02  0.22844996088E-01  0.00000000000E+00 0.  1.
     999901    1    3    3    0    0 -0.10596637429E+00  0.86908803259E-01 -0.52245364780E-01  0.89213877323E+00  0.88000000000E+00 0.  1.
        -11    1    4    4    0    0  0.29002851448E-01 -0.30652306802E-01  0.14088814922E-01  0.44491405140E-01  0.51100000000E-03 0.  1.
         11    1    4    4    0    0  0.66915025735E-01 -0.35768066611E-01  0.37086131877E-01  0.84454825539E-01  0.51100000000E-03 0. -1.
</event>
<event>
 8    1  0.1112929E+005  0.1043930E+01  0.7957747E-01            NaN
         13   -1    0    0    0    0  0.00000000000E+00  0.00000000000E+00  0.74505805969E-08  0.10566000000E+00  0.10566000000E+00 0.  1.
     999900   -1    0    0    0    0 -0.00000000000E+00 -0.00000000000E+00 -0.74505805969E-08  0.93827000000E+00  0.93827000000E+00 0. -1.
     999902    2    1    2    0    0  0.12723326953E-01 -0.22149709176E-01  0.49647003087E-02  0.10179080686E+01  0.10175754002E+01 0.  0.
     999903    2    3    3    0    0  0.11227641289E+00 -0.28822168904E-01  0.57037421388E-01  0.13074015499E+00  0.20075118320E-01 0.  0.
         14    1    1    2    0    0 -0.12723326953E-01  0.22149709176E-01 -0.49647003087E-02  0.26021931413E-01  0.00000000000E+00 0. -1.
     999901    1    3    3    0    0 -0.99553085938E-01  0.66724597284E-02 -0.52072721079E-01  0.88716791360E+00  0.88000000000E+00 0. -1.
        -11    1    4    4    0    0  0.11068122611E+00 -0.28761690483E-01  0.52367062504E-01  0.12577813407E+00  0.51100000000E-03 0. -1.
         11    1    4    4    0    0  0.15951867775E-02 -0.60478421027E-04  0.46703588844E-02  0.49620209193E-02  0.51100000000E-03 0.  1.
</event>
<event>
 8    1  0.1112929E+005  0.1043930E+01  0.7957747E-01            NaN
         13   -1    0    0    0    0  0.00000000000E+00  0.00000000000E+00  0.74505805969E-08  0.10566000000E+00  0.10566000000E+00 0. -1.
     999900   -1    0    0    0    0 -0.00000000000E+00 -0.00000000000E+00 -0.74505805969E-08  0.93827000000E+00  0.93827000000E+00 0. -1.
     999902    2    1    2    0    0 -0.17533183744E-01  0.14588318195E-01  0.14465867810E-02  0.10210755874E+01  0.10208197839E+01 0.  0.
     999903    2    3    3    0    0  0.12544884563E+00 -0.66816390970E-02 -0.21378264408E-01  0.12898969156E+00  0.19981320516E-01 0.  0.
         14    1    1    2    0    0  0.17533183744E-01 -0.14588318195E-01 -0.14465867810E-02  0.22854412556E-01  0.00000000000E+00 0.  1.
     999901    1    3    3    0    0 -0.14298202937E+00  0.21269957292E-01  0.22824851189E-01  0.89208589589E+00  0.88000000000E+00 0.  1.
        -11    1    4    4    0    0  0.54485100746E-01  0.37588017698E-02 -0.18450042111E-02  0.54648146863E-01  0.51100000000E-03 0. -1.
         11    1    4    4    0    0  0.70963744880E-01 -0.10440440867E-01 -0.19533260197E-01  0.74341544696E-01  0.51100000000E-03 0.  1.
</event>
<event>
 8    1  0.1112929E+005  0.1043930E+01  0.7957747E-01            NaN
         13   -1    0    0    0    0  0.00000000000E+00  0.00000000000E+00  0.74505805969E-08  0.10566000000E+00  0.10566000000E+00 0. -1.
     999900   -1    0    0    0    0 -0.00000000000E+00 -0.00000000000E+00 -0.74505805969E-08  0.93827000000E+00  0.93827000000E+00 0. -1.
     999902    2    1    2    0    0  0.22908596892E-01 -0.34984458443E-02  0.55438141933E-02  0.10201019323E+01  0.10198236002E+01 0.  0.
     999903    2    3    3    0    0 -0.20123596918E-01  0.12622643390E+00 -0.24939462946E-02  0.12951509221E+00  0.20733248051E-01 0.  0.
         14    1    1    2    0    0 -0.22908596892E-01  0.34984458443E-02 -0.55438141933E-02  0.23828067708E-01  0.00000000000E+00 0.  1.
     999901    1    3    3    0    0  0.43032193810E-01 -0.12972487974E+00  0.80377604879E-02  0.89058684008E+00  0.88000000000E+00 0. -1.
        -11    1    4    4    0    0 -0.14255879449E-01  0.95877419921E-01  0.69716383314E-02  0.97183201283E-01  0.51100000000E-03 0. -1.
         11    1    4    4    0    0 -0.58677174682E-02  0.30349013978E-01 -0.94655846260E-02  0.32331890929E-01  0.51100000000E-03 0.  1.
</event>
<event>
 8    1  0.1112929E+005  0.1043930E+01  0.7957747E-01            NaN
         13   -1    0    0    0    0  0.00000000000E+00  0.00000000000E+00  0.74505805969E-08  0.10566000000E+00  0.10566000000E+00 0. -1.
     999900   -1    0    0    0    0 -0.00000000000E+00 -0.00000000000E+00 -0.74505805969E-08  0.93827000000E+00  0.93827000000E+00 0. -1.
     999902    2    1    2    0    0  0.79773055122E-02  0.68845581318E-02 -0.21852932821E-01  0.10196692247E+01  0.10193805681E+01 0.  0.
     999903    2    3    3    0    0 -0.47532302034E-01 -0.54153387141E-01  0.10269507745E+00  0.12707796656E+00  0.20263799682E-01 0.  0.
         14    1    1    2    0    0 -0.79773055122E-02 -0.68845581318E-02  0.21852932821E-01  0.24260775271E-01  0.00000000000E+00 0. -1.
     999901    1    3    3    0    0  0.55509607546E-01  0.61037945273E-01 -0.12454801027E+00  0.89259125817E+00  0.88000000000E+00 0. -1.
        -11    1    4    4    0    0 -0.18214946037E-01 -0.75312102730E-02  0.29288123369E-01  0.35306637885E-01  0.51100000000E-03 0.  1.
         11    1    4    4    0    0 -0.29317355997E-01 -0.46622176868E-01  0.73406954081E-01  0.91771328676E-01  0.51100000000E-03 0. -1.
</event>
<event>
 8    1  0.1112929E+005  0.1043930E+01  0.7957747E-01            NaN
         13   -1    0    0    0    0  0.00000000000E+00  0.00000000000E+00  0.74505805969E-08  0.10566000000E+00  0.10566000000E+00 0.  1.
     999900   -1    0    0    0    0 -0.00000000000E+00 -0.00000000000E+00 -0.74505805969E-08  0.93827000000E+00  0.93827000000E+00 0.  1.
     999902    2    1    2    0    0 -0.13065798337E-01  0.15460494002E-01 -0.12982355615E-01  0.10198824738E+01  0.10195989294E+01 0.  0.
     999903    2    3    3    0    0  0.52509952018E-01  0.27108823221E-01  0.11171536516E+00  0.12859947483E+00  0.23776432824E-01 0.  0.
         14    1    1    2    0    0  0.13065798337E-01 -0.15460494002E-01  0.12982355615E-01  0.24047526240E-01  0.00000000000E+00 0.  1.
     999901    1    3    3    0    0 -0.65575750355E-01 -0.11648329219E-01 -0.12469772077E+00  0.89128299893E+00  0.88000000000E+00 0.  1.
        -11    1    4    4    0    0  0.44928999306E-01  0.13121596296E-01  0.72746158328E-01  0.86504658490E-01  0.51100000000E-03 0. -1.
         11    1    4    4    0    0  0.75809527123E-02  0.13987226925E-01  0.38969206830E-01  0.42094816344E-01  0.51100000000E-03 0.  1.
</event>
<event>
 8    1  0.1112929E+005  0.1043930E+01  0.7957747E-01            NaN
         13   -1    0    0    0    0  0.00000000000E+00  0.00000000000E+00  0.74505805969E-08  0.10566000000E+00  0.10566000000E+00 0. -1.
     999900   -1    0    0    0    0 -0.00000000000E+00 -0.00000000000E+00 -0.74505805969E-08  0.93827000000E+00  0.93827000000E+00 0. -1.
     999902    2    1    2    0    0  0.22373007657E-01 -0.82991535599E-02  0.56533758953E-03  0.10200606257E+01  0.10197813163E+01 0.  0.
     999903    2    3    3    0    0 -0.54028315741E-01 -0.11211408300E+00 -0.33161666024E-01  0.13003129331E+00  0.17883362078E-01 0.  0.
         14    1    1    2    0    0 -0.22373007657E-01  0.82991535599E-02 -0.56533758953E-03  0.23869374269E-01  0.00000000000E+00 0. -1.
     999901    1    3    3    0    0  0.76401323398E-01  0.10381492944E+00  0.33727003613E-01  0.89002933242E+00  0.88000000000E+00 0.  1.
        -11    1    4    4    0    0 -0.17507707801E-01 -0.54887705745E-01 -0.19131874488E-01  0.60708070442E-01  0.51100000000E-03 0. -1.
         11    1    4    4    0    0 -0.36520607941E-01 -0.57226377252E-01 -0.14029791536E-01  0.69323222871E-01  0.51100000000E-03 0.  1.
</event>
<event>
 8    1  0.1112929E+005  0.1043930E+01  0.7957747E-01            NaN
         13   -1    0    0    0    0  0.00000000000E+00  0.00000000000E+00  0.74505805969E-08  0.10566000000E+00  0.10566000000E+00 0. -1.
     999900   -1    0    0    0    0 -0.00000000000E+00 -0.00000000000E+00 -0.74505805969E-08  0.93827000000E+00  0.93827000000E+00 0.  1.
     999902    2    1    2    0    0 -0.33896085778E-02 -0.20580542211E-01 -0.10911702363E-01  0.10203903863E+01  0.10201188299E+01 0.  0.
     999903    2    3    3    0    0  0.10562381600E+00  0.49216615494E-01  0.49029347233E-01  0.12890370700E+00  0.25171870031E-01 0.  0.
         14    1    1    2    0    0  0.33896085778E-02  0.20580542211E-01  0.10911702363E-01  0.23539613686E-01  0.00000000000E+00 0. -1.
     999901    1    3    3    0    0 -0.10901342458E+00 -0.69797157705E-01 -0.59941049597E-01  0.89148667931E+00  0.88000000000E+00 0.  1.
        -11    1    4    4    0    0  0.46422378300E-01  0.14126770014E-01  0.92105612888E-02  0.49393303173E-01  0.51100000000E-03 0. -1.
         11    1    4    4    0    0  0.59201437705E-01  0.35089845480E-01  0.39818785944E-01  0.79510403830E-01  0.51100000000E-03 0.  1.
</event>
<event>
 8    1  0.1112929E+005  0.1043930E+01  0.7957747E-01            NaN
         13   -1    0    0    0    0  0.00000000000E+00  0.00000000000E+00  0.74505805969E-08  0.10566000000E+00  0.10566000000E+00 0. -1.
     999900   -1    0    0    0    0 -0.00000000000E+00 -0.00000000000E+00 -0.74505805969E-08  0.93827000000E+00  0.93827000000E+00 0. -1.
     999902    2    1    2    0    0  0.62496890957E-02 -0.20808937200E-01  0.11394806990E-01  0.10193961029E+01  0.10191008304E+01 0.  0.
     999903    2    3    3    0    0  0.18412081925E-01  0.12438916183E+00  0.79587364700E-02  0.12740831242E+00  0.18917405867E-01 0.  0.
         14    1    1    2    0    0 -0.62496890957E-02  0.20808937200E-01 -0.11394806990E-01  0.24533897113E-01  0.00000000000E+00 0.  1.
     999901    1    3    3    0    0 -0.12162392829E-01 -0.14519809903E+00  0.34360705203E-02  0.89198779047E+00  0.88000000000E+00 0.  1.
        -11    1    4    4    0    0  0.85647774988E-02  0.25030139246E-01  0.77122342687E-02  0.27560895535E-01  0.51100000000E-03 0.  1.
         11    1    4    4    0    0  0.98473044263E-02  0.99359022588E-01  0.24650220136E-03  0.99847416884E-01  0.51100000000E-03 0. -1.
</event>
<event>
 8    1  0.1112929E+005  0.1043930E+01  0.7957747E-01            NaN
         13   -1    0    0    0    0  0.00000000000E+00  0.00000000000E+00  0.74505805969E-08  0.10566000000E+00  0.10566000000E+00 0.  1.
     999900   -1    0    0    0    0 -0.00000000000E+00 -0.00000000000E+00 -0.74505805969E-08  0.93827000000E+00  0.93827000000E+00 0.  1.
     999902    2    1    2    0    0  0.33534824852E-02 -0.23010512387E-01  0.31086898065E-02  0.10204695337E+01  0.10201998215E+01 0.  0.
     999903    2    3    3    0    0 -0.37511916188E-01  0.44530709994E-03  0.12390277522E+00  0.13096890566E+00  0.19839717428E-01 0.  0.
         14    1    1    2    0    0 -0.33534824852E-02  0.23010512387E-01 -0.31086898065E-02  0.23460466266E-01  0.00000000000E+00 0.  1.
     999901    1    3    3    0    0  0.40865398674E-01 -0.23455819487E-01 -0.12079408541E+00  0.88950062808E+00  0.88000000000E+00 0.  1.
        -11    1    4    4    0    0 -0.36630620967E-01 -0.20713184125E-02  0.93452401129E-01  0.10039773479E+00  0.51100000000E-03 0. -1.
         11    1    4    4    0    0 -0.88129522176E-03  0.25166255125E-02  0.30450374091E-01  0.30571170872E-01  0.51100000000E-03 0.  1.
</event>
<event>
 7    1  0.1112929E+005  0.1043930E+01  0.7957747E-01            NaN
         13   -1    0    0    0    0  0.00000000000E+00  0.00000000000E+00  0.74505805969E-08  0.10566000000E+00  0.10566000000E+00 0. -1.
     999900   -1    0    0    0    0 -0.00000000000E+00 -0.00000000000E+00 -0.74505805969E-08  0.93827000000E+00  0.93827000000E+00 0.  1.
     999903    2    1    2    0    0 -0.95166230655E-01  0.26782950560E-01 -0.36028107466E-01  0.10962900962E+00  0.30766171776E-01 0.  0.
         14    1    1    2    0    0 -0.21505156611E-01 -0.40366328704E-01  0.41334373831E-02  0.45923823431E-01  0.00000000000E+00 0.  1.
     999901    1    1    2    0    0  0.11667138727E+00  0.13583378144E-01  0.31894670083E-01  0.88837716694E+00  0.88000000000E+00 0. -1.
        -11    1    3    3    0    0 -0.69592349278E-01  0.29131222016E-01 -0.16163007090E-01  0.77157158406E-01  0.51100000000E-03 0.  1.
         11    1    3    3    0    0 -0.25573881378E-01 -0.23482714561E-02 -0.19865100377E-01  0.32471851218E-01  0.51100000000E-03 0. -1.
</event>
<event>
 8    1  0.1112929E+005  0.1043930E+01  0.7957747E-01            NaN
         13   -1    0    0    0    0  0.00000000000E+00  0.00000000000E+00  0.74505805969E-08  0.10566000000E+00  0.10566000000E+00 0.  1.
     999900   -1    0    0    0    0 -0.00000000000E+00 -0.00000000000E+00 -0.74505805969E-08  0.93827000000E+00  0.93827000000E+00 0. -1.
     999902    2    1    2    0    0 -0.34463459934E-02  0.20957847255E-01  0.68263740745E-02  0.10216206288E+01  0.10213770122E+01 0.  0.
     999903    2    3    3    0    0  0.79935592089E-01 -0.59331792039E-01 -0.80502293693E-01  0.12975445607E+00  0.21110166980E-01 0.  0.
         14    1    1    2    0    0  0.34463459934E-02 -0.20957847255E-01 -0.68263740745E-02  0.22309371243E-01  0.00000000000E+00 0. -1.
     999901    1    3    3    0    0 -0.83381938083E-01  0.80289639294E-01  0.87328667768E-01  0.89186617269E+00  0.88000000000E+00 0.  1.
        -11    1    4    4    0    0  0.70223698457E-01 -0.59417714234E-01 -0.73936808435E-01  0.11802010571E+00  0.51100000000E-03 0. -1.
         11    1    4    4    0    0  0.97118936322E-02  0.85922195244E-04 -0.65654852578E-02  0.11734350353E-01  0.51100000000E-03 0.  1.
</event>
<event>
 8    1  0.1112929E+005  0.1043930E+01  0.7957747E-01            NaN
         13   -1    0    0    0    0  0.00000000000E+00  0.00000000000E+00  0.74505805969E-08  0.10566000000E+00  0.10566000000E+00 0. -1.
     999900   -1    0    0    0    0 -0.00000000000E+00 -0.00000000000E+00 -0.74505805969E-08  0.93827000000E+00  0.93827000000E+00 0.  1.
     999902    2    1    2    0    0 -0.23630287686E-01 -0.37063270648E-02 -0.61850108198E-02  0.10192240955E+01  0.10189246170E+01 0.  0.
     999903    2    3    3    0    0  0.26211832889E-01 -0.63238976802E-01  0.10769149478E+00  0.12849617305E+00  0.15085757176E-01 0.  0.
         14    1    1    2    0    0  0.23630287686E-01  0.37063270648E-02  0.61850108198E-02  0.24705904462E-01  0.00000000000E+00 0.  1.
     999901    1    3    3    0    0 -0.49842120576E-01  0.59532649737E-01 -0.11387650560E+00  0.89072792249E+00  0.88000000000E+00 0.  1.
        -11    1    4    4    0    0  0.22487188018E-02 -0.23836248467E-01  0.38630669671E-01  0.45451218217E-01  0.51100000000E-03 0.  1.
         11    1    4    4    0    0  0.23963114087E-01 -0.39402728335E-01  0.69060825114E-01  0.83044954834E-01  0.51100000000E-03 0. -1.
</event>
<event>
 8    1  0.1112929E+005  0.1043930E+01  0.7957747E-01            NaN
         13   -1    0    0    0    0  0.00000000000E+00  0.00000000000E+00  0.74505805969E-08  0.10566000000E+00  0.10566000000E+00 0. -1.
     999900   -1    0    0    0    0 -0.00000000000E+00 -0.00000000000E+00 -0.74505805969E-08  0.93827000000E+00  0.93827000000E+00 0.  1.
     999902    2    1    2    0    0 -0.88631148600E-02  0.93808256878E-02  0.20372074845E-01  0.10198141104E+01  0.10195289323E+01 0.  0.
     999903    2    3    3    0    0 -0.10783302429E+00  0.73111243055E-01  0.92977958906E-02  0.13190688065E+00  0.18432611435E-01 0.  0.
         14    1    1    2    0    0  0.88631148600E-02 -0.93808256878E-02 -0.20372074845E-01  0.24115889556E-01  0.00000000000E+00 0.  1.
     999901    1    3    3    0    0  0.98969909433E-01 -0.63730417367E-01  0.11074278954E-01  0.88790722980E+00  0.88000000000E+00 0. -1.
        -11    1    4    4    0    0 -0.55318315565E-01  0.46675780512E-01  0.10254593837E-01  0.73103777872E-01  0.51100000000E-03 0.  1.
         11    1    4    4    0    0 -0.52514708728E-01  0.26435462543E-01 -0.95679794683E-03  0.58803102775E-01  0.51100000000E-03 0. -1.
</event>
<event>
 8    1  0.1112929E+005  0.1043930E+01  0.7957747E-01            NaN
         13   -1    0    0    0    0  0.00000000000E+00  0.00000000000E+00  0.74505805969E-08  0.10566000000E+00  0.10566000000E+00 0. -1.
     999900   -1    0    0    0    0 -0.00000000000E+00 -0.00000000000E+00 -0.74505805969E-08  0.93827000000E+00  0.93827000000E+00 0.  1.
     999902    2    1    2    0    0 -0.13342574297E-01  0.16197283940E-01  0.64248671303E-02  0.10219833553E+01  0.10217476808E+01 0.  0.
     999903    2    3    3    0    0  0.67299370563E-01  0.32560196823E-01 -0.10578971124E+00  0.13104958684E+00  0.19828250351E-01 0.  0.
         14    1    1    2    0    0  0.13342574297E-01 -0.16197283940E-01 -0.64248671303E-02  0.21946644699E-01  0.00000000000E+00 0.  1.
     999901    1    3    3    0    0 -0.80641944859E-01 -0.16362912883E-01  0.11221457837E+00  0.89093376846E+00  0.88000000000E+00 0. -1.
        -11    1    4    4    0    0  0.68568124461E-02  0.20541258625E-02 -0.26044648023E-02  0.76341121217E-02  0.51100000000E-03 0.  1.
         11    1    4    4    0    0  0.60442558117E-01  0.30506070960E-01 -0.10318524643E+00  0.12341547472E+00  0.51100000000E-03 0. -1.
</event>
<event>
 8    1  0.1112929E+005  0.1043930E+01  0.7957747E-01            NaN
         13   -1    0    0    0    0  0.00000000000E+00  0.00000000000E+00  0.74505805969E-08  0.10566000000E+00  0.10566000000E+00 0. -1.
     999900   -1    0    0    0    0 -0.00000000000E+00 -0.00000000000E+00 -0.74505805969E-08  0.93827000000E+00  0.93827000000E+00 0. -1.
     999902    2    1    2    0    0 -0.36404793606E-02  0.27967793356E-02 -0.22129282705E-01  0.10213295527E+01  0.10210794656E+01 0.  0.
     999903    2    3    3    0    0 -0.12986883390E+00  0.94508430807E-02 -0.14835552119E-01  0.13226764679E+00  0.17871886541E-01 0.  0.
         14    1    1    2    0    0  0.36404793606E-02 -0.27967793356E-02  0.22129282705E-01  0.22600447289E-01  0.00000000000E+00 0. -1.
     999901    1    3    3    0    0  0.12622835453E+00 -0.66540637451E-02 -0.72937305857E-02  0.88906190592E+00  0.88000000000E+00 0.  1.
        -11    1    4    4    0    0 -0.44725228954E-01  0.49191289336E-02 -0.13544910090E-01  0.46992229621E-01  0.51100000000E-03 0. -1.
         11    1    4    4    0    0 -0.85143604942E-01  0.45317141472E-02 -0.12906420297E-02  0.85275417170E-01  0.51100000000E-03 0.  1.
</event>
<event>
 8    1  0.1112929E+005  0.1043930E+01  0.7957747E-01            NaN
         13   -1    0    0    0    0  0.00000000000E+00  0.00000000000E+00  0.74505805969E-08  0.10566000000E+00  0.10566000000E+00 0. -1.
     999900   -1    0    0    0    0 -0.00000000000E+00 -0.00000000000E+00 -0.74505805969E-08  0.93827000000E+00  0.93827000000E+00 0.  1.
     999902    2    1    2    0    0  0.15348199121E-01 -0.16862431792E-01  0.73992614002E-02  0.10199579769E+01  0.10196762313E+01 0.  0.
     999903    2    3    3    0    0  0.86612813176E-01 -0.91059571200E-01  0.42153999889E-01  0.13328342975E+00  0.13924368089E-01 0.  0.
         14    1    1    2    0    0 -0.15348199121E-01  0.16862431792E-01 -0.73992614002E-02  0.23972023099E-01  0.00000000000E+00 0.  1.
     999901    1    3    3    0    0 -0.71264614055E-01  0.74197139408E-01 -0.34754738489E-01  0.88667454715E+00  0.88000000000E+00 0.  1.
        -11    1    4    4    0    0  0.16664975169E-01 -0.15956438108E-01  0.23297227023E-02  0.23195215958E-01  0.51100000000E-03 0.  1.
         11    1    4    4    0    0  0.69947838008E-01 -0.75103133092E-01  0.39824277187E-01  0.11008821380E+00  0.51100000000E-03 0. -1.
</event>
<event>
 8    1  0.1112929E+005  0.1043930E+01  0.7957747E-01            NaN
         13   -1    0    0    0    0  0.00000000000E+00  0.00000000000E+00  0.74505805969E-08  0.10566000000E+00  0.10566000000E+00 0.  1.
     999900   -1    0    0    0    0 -0.00000000000E+00 -0.00000000000E+00 -0.74505805969E-08  0.93827000000E+00  0.93827000000E+00 0. -1.
     999902    2    1    2    0    0 -0.11880476115E-01  0.15893282022E-01 -0.12793095336E-01  0.10203205651E+01  0.10200473765E+01 0.  0.
     999903    2    3    3    0    0 -0.48062220547E-01 -0.38860423997E-01  0.11158050984E+00  0.12915510316E+00  0.20266250275E-01 0.  0.
         14    1    1    2    0    0  0.11880476115E-01 -0.15893282022E-01  0.12793095336E-01  0.23609434860E-01  0.00000000000E+00 0.  1.
     999901    1    3    3    0    0  0.36181744432E-01  0.54753706019E-01 -0.12437360518E+00  0.89116546198E+00  0.88000000000E+00 0. -1.
        -11    1    4    4    0    0 -0.21330822233E-01 -0.28653804129E-01  0.52420664851E-01  0.63436832303E-01  0.51100000000E-03 0.  1.
         11    1    4    4    0    0 -0.26731398314E-01 -0.10206619868E-01  0.59159844988E-01  0.65718270861E-01  0.51100000000E-03 0. -1.
</event>
<event>
 8    1  0.1112929E+005  0.1043930E+01  0.7957747E-01            NaN
         13   -1    0    0    0    0  0.00000000000E+00  0.00000000000E+00  0.74505805969E-08  0.10566000000E+00  0.10566000000E+00 0.  1.
     999900   -1    0    0    0    0 -0.00000000000E+00 -0.00000000000E+00 -0.74505805969E-08  0.93827000000E+00  0.93827000000E+00 0. -1.
     999902    2    1    2    0    0  0.20782015619E-01  0.91622944991E-02  0.27440851226E-02  0.10210527227E+01  0.10207964012E+01 0.  0.
     999903    2    3    3    0    0 -0.24983271843E-01  0.33097172126E-01 -0.12221449836E+00  0.13072582347E+00  0.20815154059E-01 0.  0.
         14    1    1    2    0    0 -0.20782015619E-01 -0.91622944991E-02 -0.27440851226E-02  0.22877277304E-01  0.00000000000E+00 0.  1.
     999901    1    3    3    0    0  0.45765287462E-01 -0.23934877627E-01  0.12495858348E+00  0.89032689923E+00  0.88000000000E+00 0.  1.
        -11    1    4    4    0    0  0.25114425107E-03  0.15701676506E-01 -0.43789063299E-01  0.46522563387E-01  0.51100000000E-03 0.  1.
         11    1    4    4    0    0 -0.25234416094E-01  0.17395495621E-01 -0.78425435057E-01  0.84203260081E-01  0.51100000000E-03 0. -1.
</event>
<event>
 8    1  0.1112929E+005  0.1043930E+01  0.7957747E-01            NaN
         13   -1    0    0    0    0  0.00000000000E+00  0.00000000000E+00  0.74505805969E-08  0.10566000000E+00  0.10566000000E+00 0.  1.
     999900   -1    0    0    0    0 -0.00000000000E+00 -0.00000000000E+00 -0.74505805969E-08  0.93827000000E+00  0.93827000000E+00 0. -1.
     999902    2    1    2    0    0  0.17579948520E-01 -0.69705098617E-02  0.14186014608E-01  0.10202892384E+01  0.10200153158E+01 0.  0.
     999903    2    3    3    0    0 -0.81740326667E-01 -0.66628576605E-01  0.74622157948E-01  0.13063979655E+00  0.19427860469E-01 0.  0.
         14    1    1    2    0    0 -0.17579948520E-01  0.69705098617E-02 -0.14186014608E-01  0.23640761582E-01  0.00000000000E+00 0. -1.
     999901    1    3    3    0    0  0.99320275186E-01  0.59658066743E-01 -0.60436143340E-01  0.88964944187E+00  0.88000000000E+00 0. -1.
        -11    1    4    4    0    0 -0.32221625095E-02 -0.95418570356E-02  0.84128459080E-02  0.13132648788E-01  0.51100000000E-03 0.  1.
         11    1    4    4    0    0 -0.78518164157E-01 -0.57086719569E-01  0.66209312040E-01  0.11750714776E+00  0.51100000000E-03 0. -1.
</event>
<event>
 8    1  0.1112929E+005  0.1043930E+01  0.7957747E-01            NaN
         13   -1    0    0    0    0  0.00000000000E+00  0.00000000000E+00  0.74505805969E-08  0.10566000000E+00  0.10566000000E+00 0. -1.
     999900   -1    0    0    0    0 -0.00000000000E+00 -0.00000000000E+00 -0.74505805969E-08  0.93827000000E+00  0.93827000000E+00 0.  1.
     999902    2    1    2    0    0 -0.22321649578E-01  0.28346401469E-02 -0.66144559789E-02  0.10204770204E+01  0.10202074823E+01 0.  0.
     999903    2    3    3    0    0  0.90295816077E-01 -0.73580970369E-01 -0.51472393174E-01  0.12888615366E+00  0.19868058430E-01 0.  0.
         14    1    1    2    0    0  0.22321649578E-01 -0.28346401469E-02  0.66144559789E-02  0.23452979609E-01  0.00000000000E+00 0. -1.
     999901    1    3    3    0    0 -0.11261746565E+00  0.76415610516E-01  0.44857937195E-01  0.89159086673E+00  0.88000000000E+00 0. -1.
        -11    1    4    4    0    0  0.23202928950E-01 -0.22346701486E-01 -0.23768829702E-01  0.40037099865E-01  0.51100000000E-03 0. -1.
         11    1    4    4    0    0  0.67092887127E-01 -0.51234268883E-01 -0.27703563472E-01  0.88849053800E-01  0.51100000000E-03 0.  1.
</event>
<event>
 8    1  0.1112929E+005  0.1043930E+01  0.7957747E-01            NaN
         13   -1    0    0    0    0  0.00000000000E+00  0.00000000000E+00  0.74505805969E-08  0.10566000000E+00  0.10566000000E+00 0.  1.
     999900   -1    0    0    0    0 -0.00000000000E+00 -0.00000000000E+00 -0.74505805969E-08  0.93827000000E+00  0.93827000000E+00 0.  1.
     999902    2    1    2    0    0  0.17155830033E-01 -0.12075218075E-01 -0.10434554461E-01  0.10204989667E+01  0.10202299386E+01 0.  0.
     999903    2    3    3    0    0 -0.66225248937E-01 -0.20018396882E-01 -0.10967952097E+00  0.13096815676E+00  0.18345052594E-01 0.  0.
         14    1    1    2    0    0 -0.17155830033E-01  0.12075218075E-01  0.10434554461E-01  0.23431033321E-01  0.00000000000E+00 0.  1.
     999901    1    3    3    0    0  0.83381078970E-01  0.79431788064E-02  0.99244966507E-01  0.88953080992E+00  0.88000000000E+00 0. -1.
        -11    1    4    4    0    0 -0.51656117733E-01 -0.17140755294E-01 -0.70500617671E-01  0.89066032831E-01  0.51100000000E-03 0.  1.
         11    1    4    4    0    0 -0.14569131205E-01 -0.28776415877E-02 -0.39178903297E-01  0.41902123928E-01  0.51100000000E-03 0. -1.
</event>
<event>
 8    1  0.1112929E+005  0.1043930E+01  0.7957747E-01            NaN
         13   -1    0    0    0    0  0.00000000000E+00  0.00000000000E+00  0.74505805969E-08  0.10566000000E+00  0.10566000000E+00 0.  1.
     999900   -1    0    0    0    0 -0.00000000000E+00 -0.00000000000E+00 -0.74505805969E-08  0.93827000000E+00  0.93827000000E+00 0.  1.
     999902    2    1    2    0    0 -0.14735613852E-01 -0.19389035142E-01  0.47569666744E-02  0.10191166622E+01  0.10188145413E+01 0.  0.
     999903    2    3    3    0    0  0.92751194670E-01  0.51728969256E-01  0.67742923986E-01  0.12750104136E+00  0.19716526713E-01 0.  0.
         14    1    1    2    0    0  0.14735613852E-01  0.19389035142E-01 -0.47569666744E-02  0.24813337770E-01  0.00000000000E+00 0.  1.
     999901    1    3    3    0    0 -0.10748680852E+00 -0.71118004398E-01 -0.62985957311E-01  0.89161562087E+00  0.88000000000E+00 0.  1.
        -11    1    4    4    0    0  0.16784175663E-01  0.21987249587E-02  0.14789658056E-01  0.22484173335E-01  0.51100000000E-03 0.  1.
         11    1    4    4    0    0  0.75967019007E-01  0.49530244297E-01  0.52953265930E-01  0.10501686803E+00  0.51100000000E-03 0. -1.
</event>
<event>
 8    1  0.1112929E+005  0.1043930E+01  0.7957747E-01            NaN
         13   -1    0    0    0    0  0.00000000000E+00  0.00000000000E+00  0.74505805969E-08  0.10566000000E+00  0.10566000000E+00 0. -1.
     999900   -1    0    0    0    0 -0.00000000000E+00 -0.00000000000E+00 -0.74505805969E-08  0.93827000000E+00  0.93827000000E+00 0. -1.
     999902    2    1    2    0    0 -0.12723648987E-01  0.19441659690E-01 -0.53799018743E-02  0.10200802050E+01  0.10198013591E+01 0.  0.
     999903    2    3    3    0    0  0.89993400612E-01  0.78383411846E-01 -0.50307251405E-01  0.13101137241E+00  0.19758257805E-01 0.  0.
         14    1    1    2    0    0  0.12723648987E-01 -0.19441659690E-01  0.53799018743E-02  0.23849794952E-01  0.00000000000E+00 0. -1.
     999901    1    3    3    0    0 -0.10271704960E+00 -0.58941752156E-01  0.44927349531E-01  0.88906883263E+00  0.88000000000E+00 0. -1.
        -11    1    4    4    0    0  0.77494567842E-01  0.74678225713E-01 -0.47640985743E-01  0.11769524240E+00  0.51100000000E-03 0.  1.
         11    1    4    4    0    0  0.12498832771E-01  0.37051861332E-02 -0.26662656623E-02  0.13316130012E-01  0.51100000000E-03 0. -1.
</event>
<event>
 8    1  0.1112929E+005  0.1043930E+01  0.7957747E-01            NaN
         13   -1    0    0    0    0  0.00000000000E+00  0.00000000000E+00  0.74505805969E-08  0.10566000000E+00  0.10566000000E+00 0. -1.
     999900   -1    0    0    0    0 -0.00000000000E+00 -0.00000000000E+00 -0.74505805969E-08  0.93827000000E+00  0.93827000000E+00 0.  1.
     999902    2    1    2    0    0 -0.21278727583E-01  0.10507358101E-01  0.30498296272E-02  0.10200032308E+01  0.10197225606E+01 0.  0.
     999903    2    3    3    0    0 -0.12315763329E+00  0.23227469883E-01 -0.40233361438E-01  0.13297755629E+00  0.18894155487E-01 0.  0.
         14    1    1    2    0    0  0.21278727583E-01 -0.10507358101E-01 -0.30498296272E-02  0.23926769163E-01  0.00000000000E+00 0.  1.
     999901    1    3    3    0    0  0.10187890570E+00 -0.12720111782E-01  0.43283191065E-01  0.88702567454E+00  0.88000000000E+00 0. -1.
        -11    1    4    4    0    0 -0.44403211238E-01  0.33532453742E-02 -0.64096611825E-02  0.44991491420E-01  0.51100000000E-03 0. -1.
         11    1    4    4    0    0 -0.78754422048E-01  0.19874224509E-01 -0.33823700255E-01  0.87986064873E-01  0.51100000000E-03 0.  1.
</event>
<event>
 8    1  0.1186448E+005  0.1043930E+01  0.7957747E-01            NaN
         13   -1    0    0    0    0  0.00000000000E+00  0.00000000000E+00  0.74505805969E-08  0.10566000000E+00  0.10566000000E+00 0. -1.
     999900   -1    0    0    0    0 -0.00000000000E+00 -0.00000000000E+00 -0.74505805969E-08  0.93827000000E+00  0.93827000000E+00 0.  1.
     999902    2    1    2    0    0 -0.21397829335E-01  0.87619585245E-02 -0.47711000270E-02  0.10203206287E+01  0.10200474415E+01 0.  0.
     999903    2    3    3    0    0  0.88434374972E-02  0.10239643891E+00  0.80517662795E-01  0.13073863518E+00  0.68014423549E-02 0.  0.
         14    1    1    2    0    0  0.21397829335E-01 -0.87619585245E-02  0.47711000270E-02  0.23609371294E-01  0.00000000000E+00 0. -1.
     999901    1    3    3    0    0 -0.30241266833E-01 -0.93634480390E-01 -0.85288762822E-01  0.88958199352E+00  0.88000000000E+00 0.  1.
        -11    1    4    4    0    0  0.40919805834E-02  0.64219370167E-01  0.54050387218E-01  0.84039141412E-01  0.51100000000E-03 0. -1.
         11    1    4    4    0    0  0.47514569137E-02  0.38177068747E-01  0.26467275577E-01  0.46699493770E-01  0.51100000000E-03 0.  1.
</event>
<event>
 8    1  0.1112929E+005  0.1043930E+01  0.7957747E-01            NaN
         13   -1    0    0    0    0  0.00000000000E+00  0.00000000000E+00  0.74505805969E-08  0.10566000000E+00  0.10566000000E+00 0. -1.
     999900   -1    0    0    0    0 -0.00000000000E+00 -0.00000000000E+00 -0.74505805969E-08  0.93827000000E+00  0.93827000000E+00 0.  1.
     999902    2    1    2    0    0 -0.56258785909E-02 -0.77009047843E-02 -0.15910641444E-01  0.10253799877E+01  0.10252121811E+01 0.  0.
     999903    2    3    3    0    0  0.20463642350E-01 -0.95275956765E-03  0.12986126165E+00  0.13298117088E+00  0.20009400840E-01 0.  0.
         14    1    1    2    0    0  0.56258785909E-02  0.77009047843E-02  0.15910641444E-01  0.18550012280E-01  0.00000000000E+00 0. -1.
     999901    1    3    3    0    0 -0.26089520941E-01 -0.67481452167E-02 -0.14577190309E+00  0.89239881684E+00  0.88000000000E+00 0.  1.
        -11    1    4    4    0    0  0.11688779139E-01  0.19788105617E-02  0.24594379383E-01  0.27307285974E-01  0.51100000000E-03 0. -1.
         11    1    4    4    0    0  0.87748632109E-02 -0.29315701293E-02  0.10526688227E+00  0.10567388491E+00  0.51100000000E-03 0.  1.
</event>
<event>
 8    1  0.1137632E+005  0.1043930E+01  0.7957747E-01            NaN
         13   -1    0    0    0    0  0.00000000000E+00  0.00000000000E+00  0.74505805969E-08  0.10566000000E+00  0.10566000000E+00 0.  1.
     999900   -1    0    0    0    0 -0.00000000000E+00 -0.00000000000E+00 -0.74505805969E-08  0.93827000000E+00  0.93827000000E+00 0. -1.
     999902    2    1    2    0    0 -0.45222472722E-02  0.19074268359E-01  0.13107184850E-01  0.10203487208E+01  0.10200761909E+01 0.  0.
     999903    2    3    3    0    0  0.89353500091E-01  0.19557793588E-01  0.92626767410E-01  0.13179019502E+00  0.20551938918E-01 0.  0.
         14    1    1    2    0    0  0.45222472722E-02 -0.19074268359E-01 -0.13107184850E-01  0.23581279195E-01  0.00000000000E+00 0. -1.
     999901    1    3    3    0    0 -0.93875747363E-01 -0.48352522900E-03 -0.79519582560E-01  0.88855852579E+00  0.88000000000E+00 0.  1.
        -11    1    4    4    0    0  0.60726746184E-01  0.22866922702E-01  0.62439597292E-01  0.90053308029E-01  0.51100000000E-03 0. -1.
         11    1    4    4    0    0  0.28626753906E-01 -0.33091291139E-02  0.30187170118E-01  0.41736886988E-01  0.51100000000E-03 0.  1.
</event>
<event>
 8    1  0.1112929E+005  0.1043930E+01  0.7957747E-01            NaN
         13   -1    0    0    0    0  0.00000000000E+00  0.00000000000E+00  0.74505805969E-08  0.10566000000E+00  0.10566000000E+00 0. -1.
     999900   -1    0    0    0    0 -0.00000000000E+00 -0.00000000000E+00 -0.74505805969E-08  0.93827000000E+00  0.93827000000E+00 0.  1.
     999902    2    1    2    0    0  0.15598769111E-01 -0.11106155919E-01 -0.16530503248E-01  0.10186332446E+01  0.10183190861E+01 0.  0.
     999903    2    3    3    0    0  0.91518219375E-01 -0.92195312901E-01 -0.62734477933E-02  0.13159073066E+00  0.20030078661E-01 0.  0.
         14    1    1    2    0    0 -0.15598769111E-01  0.11106155919E-01  0.16530503248E-01  0.25296755419E-01  0.00000000000E+00 0. -1.
     999901    1    3    3    0    0 -0.75919450263E-01  0.81089156982E-01 -0.10257055455E-01  0.88704251392E+00  0.88000000000E+00 0.  1.
        -11    1    4    4    0    0  0.69484065666E-01 -0.62387589231E-01  0.27991306767E-02  0.93425601015E-01  0.51100000000E-03 0. -1.
         11    1    4    4    0    0  0.22034153709E-01 -0.29807723671E-01 -0.90725784701E-02  0.38165129650E-01  0.51100000000E-03 0.  1.
</event>
<event>
 8    1  0.1112929E+005  0.1043930E+01  0.7957747E-01            NaN
         13   -1    0    0    0    0  0.00000000000E+00  0.00000000000E+00  0.74505805969E-08  0.10566000000E+00  0.10566000000E+00 0.  1.
     999900   -1    0    0    0    0 -0.00000000000E+00 -0.00000000000E+00 -0.74505805969E-08  0.93827000000E+00  0.93827000000E+00 0. -1.
     999902    2    1    2    0    0  0.11716721060E-01 -0.33122719305E-02 -0.19340940208E-01  0.10210755767E+01  0.10208197728E+01 0.  0.
     999903    2    3    3    0    0  0.57349154961E-01 -0.87660083369E-01 -0.80490070121E-01  0.13375596773E+00  0.20947356018E-01 0.  0.
         14    1    1    2    0    0 -0.11716721060E-01  0.33122719305E-02  0.19340940208E-01  0.22854423332E-01  0.00000000000E+00 0.  1.
     999901    1    3    3    0    0 -0.45632433901E-01  0.84347811438E-01  0.61149129913E-01  0.88731960894E+00  0.88000000000E+00 0.  1.
        -11    1    4    4    0    0  0.24073723639E-01 -0.42429569645E-01 -0.50001702199E-01  0.69858742430E-01  0.51100000000E-03 0.  1.
         11    1    4    4    0    0  0.33275431322E-01 -0.45230513724E-01 -0.30488367921E-01  0.63897225299E-01  0.51100000000E-03 0. -1.
</event>
<event>
 8    1  0.1112929E+005  0.1043930E+01  0.7957747E-01            NaN
         13   -1    0    0    0    0  0.00000000000E+00  0.00000000000E+00  0.74505805969E-08  0.10566000000E+00  0.10566000000E+00 0. -1.
     999900   -1    0    0    0    0 -0.00000000000E+00 -0.00000000000E+00 -0.74505805969E-08  0.93827000000E+00  0.93827000000E+00 0.  1.
     999902    2    1    2    0    0 -0.21836619310E-02 -0.70376376371E-02 -0.22698340478E-01  0.10200655624E+01  0.10197863699E+01 0.  0.
     999903    2    3    3    0    0 -0.86047815557E-01 -0.26907474133E-01  0.89733673298E-01  0.12873567709E+00  0.19811706307E-01 0.  0.
         14    1    1    2    0    0  0.21836619310E-02  0.70376376371E-02  0.22698340478E-01  0.23864437630E-01  0.00000000000E+00 0. -1.
     999901    1    3    3    0    0  0.83864153626E-01  0.19869836496E-01 -0.11243201378E+00  0.89132988528E+00  0.88000000000E+00 0.  1.
        -11    1    4    4    0    0 -0.40990576782E-03 -0.27682313236E-02  0.55966467907E-02  0.62781130684E-02  0.51100000000E-03 0. -1.
         11    1    4    4    0    0 -0.85637909789E-01 -0.24139242810E-01  0.84137026508E-01  0.12245756403E+00  0.51100000000E-03 0.  1.
</event>
<event>
 8    1  0.1112929E+005  0.1043930E+01  0.7957747E-01            NaN
         13   -1    0    0    0    0  0.00000000000E+00  0.00000000000E+00  0.74505805969E-08  0.10566000000E+00  0.10566000000E+00 0.  1.
     999900   -1    0    0    0    0 -0.00000000000E+00 -0.00000000000E+00 -0.74505805969E-08  0.93827000000E+00  0.93827000000E+00 0.  1.
     999902    2    1    2    0    0  0.54500870842E-02 -0.14017547428E-01 -0.18528909877E-01  0.10200654743E+01  0.10197862797E+01 0.  0.
     999903    2    3    3    0    0 -0.71189571028E-01  0.99388997979E-01  0.32270149568E-01  0.12803676055E+00  0.20147495035E-01 0.  0.
         14    1    1    2    0    0 -0.54500870842E-02  0.14017547428E-01  0.18528909877E-01  0.23864525689E-01  0.00000000000E+00 0.  1.
     999901    1    3    3    0    0  0.76639658113E-01 -0.11340654541E+00 -0.50799059446E-01  0.89202871376E+00  0.88000000000E+00 0.  1.
        -11    1    4    4    0    0 -0.27112273034E-01  0.41083570296E-01  0.30528529680E-02  0.49320544701E-01  0.51100000000E-03 0.  1.
         11    1    4    4    0    0 -0.44077297994E-01  0.58305427683E-01  0.29217296600E-01  0.78716215848E-01  0.51100000000E-03 0. -1.
</event>
<event>
 8    1  0.1112929E+005  0.1043930E+01  0.7957747E-01            NaN
         13   -1    0    0    0    0  0.00000000000E+00  0.00000000000E+00  0.74505805969E-08  0.10566000000E+00  0.10566000000E+00 0.  1.
     999900   -1    0    0    0    0 -0.00000000000E+00 -0.00000000000E+00 -0.74505805969E-08  0.93827000000E+00  0.93827000000E+00 0.  1.
     999902    2    1    2    0    0 -0.16574586481E-01  0.13840741852E-01 -0.35435144925E-02  0.10220475973E+01  0.10218133155E+01 0.  0.
     999903    2    3    3    0    0 -0.20554058204E-01  0.10650087023E+00 -0.76450161353E-01  0.13417535722E+00  0.19836699477E-01 0.  0.
         14    1    1    2    0    0  0.16574586481E-01 -0.13840741852E-01  0.35435144925E-02  0.21882402678E-01  0.00000000000E+00 0.  1.
     999901    1    3    3    0    0  0.39794717229E-02 -0.92660128378E-01  0.72906646860E-01  0.88787224010E+00  0.88000000000E+00 0.  1.
        -11    1    4    4    0    0 -0.76365504328E-02  0.41564411576E-01 -0.41813680080E-01  0.59452183938E-01  0.51100000000E-03 0. -1.
         11    1    4    4    0    0 -0.12917507771E-01  0.64936458653E-01 -0.34636481273E-01  0.74723173283E-01  0.51100000000E-03 0.  1.
</event>
<event>
 8    1  0.1112929E+005  0.1043930E+01  0.7957747E-01            NaN
         13   -1    0    0    0    0  0.00000000000E+00  0.00000000000E+00  0.74505805969E-08  0.10566000000E+00  0.10566000000E+00 0. -1.
     999900   -1    0    0    0    0 -0.00000000000E+00 -0.00000000000E+00 -0.74505805969E-08  0.93827000000E+00  0.93827000000E+00 0.  1.
     999902    2    1    2    0    0 -0.18332785626E-01  0.58765200989E-02  0.49973469587E-02  0.10240403546E+01  0.10238471809E+01 0.  0.
     999903    2    3    3    0    0 -0.11186178646E+00 -0.19841142136E-01 -0.71062347847E-01  0.13544925105E+00  0.19746192983E-01 0.  0.
         14    1    1    2    0    0  0.18332785626E-01 -0.58765200989E-02 -0.49973469587E-02  0.19889645394E-01  0.00000000000E+00 0. -1.
     999901    1    3    3    0    0  0.93529000832E-01  0.25717662235E-01  0.76059694806E-01  0.88859110356E+00  0.88000000000E+00 0. -1.
        -11    1    4    4    0    0 -0.18488359941E-01 -0.87207340102E-02 -0.67818297689E-02  0.21543560314E-01  0.51100000000E-03 0. -1.
         11    1    4    4    0    0 -0.93373426516E-01 -0.11120408126E-01 -0.64280518078E-01  0.11390569073E+00  0.51100000000E-03 0.  1.
</event>
<event>
 8    1  0.1112929E+005  0.1043930E+01  0.7957747E-01            NaN
         13   -1    0    0    0    0  0.00000000000E+00  0.00000000000E+00  0.74505805969E-08  0.10566000000E+00  0.10566000000E+00 0.  1.
     999900   -1    0    0    0    0 -0.00000000000E+00 -0.00000000000E+00 -0.74505805969E-08  0.93827000000E+00  0.93827000000E+00 0.  1.
     999902    2    1    2    0    0  0.16518846349E-01 -0.17478657121E-01  0.20446483806E-02  0.10197937964E+01  0.10195081318E+01 0.  0.
     999903    2    3    3    0    0 -0.15938943169E-01  0.12392774212E+00 -0.20240439880E-01  0.12763579297E+00  0.16403812484E-01 0.  0.
         14    1    1    2    0    0 -0.16518846349E-01  0.17478657121E-01 -0.20446483806E-02  0.24136203647E-01  0.00000000000E+00 0.  1.
     999901    1    3    3    0    0  0.32457789518E-01 -0.14140639924E+00  0.22285088261E-01  0.89215800339E+00  0.88000000000E+00 0. -1.
        -11    1    4    4    0    0 -0.51822776875E-02  0.20401922390E-01  0.21655001692E-02  0.21167072335E-01  0.51100000000E-03 0. -1.
         11    1    4    4    0    0 -0.10756665481E-01  0.10352581973E+00 -0.22405940049E-01  0.10646872063E+00  0.51100000000E-03 0.  1.
</event>
<event>
 8    1  0.1112929E+005  0.1043930E+01  0.7957747E-01            NaN
         13   -1    0    0    0    0  0.00000000000E+00  0.00000000000E+00  0.74505805969E-08  0.10566000000E+00  0.10566000000E+00 0. -1.
     999900   -1    0    0    0    0 -0.00000000000E+00 -0.00000000000E+00 -0.74505805969E-08  0.93827000000E+00  0.93827000000E+00 0.  1.
     999902    2    1    2    0    0 -0.20204660993E-01 -0.12493105710E-01  0.59438930504E-03  0.10201674388E+01  0.10198906529E+01 0.  0.
     999903    2    3    3    0    0 -0.49422398506E-01  0.23088950863E-01 -0.11660892091E+00  0.13120378664E+00  0.25320348888E-01 0.  0.
         14    1    1    2    0    0  0.20204660993E-01  0.12493105710E-01 -0.59438930504E-03  0.23762561200E-01  0.00000000000E+00 0.  1.
     999901    1    3    3    0    0  0.29217737513E-01 -0.35582056573E-01  0.11720331021E+00  0.88896365216E+00  0.88000000000E+00 0. -1.
        -11    1    4    4    0    0 -0.39807759075E-01  0.20805613728E-01 -0.67315207977E-01  0.80926692698E-01  0.51100000000E-03 0.  1.
         11    1    4    4    0    0 -0.96146394314E-02  0.22833371348E-02 -0.49293712930E-01  0.50277093942E-01  0.51100000000E-03 0. -1.
</event>
<event>
 8    1  0.1112929E+005  0.1043930E+01  0.7957747E-01            NaN
         13   -1    0    0    0    0  0.00000000000E+00  0.00000000000E+00  0.74505805969E-08  0.10566000000E+00  0.10566000000E+00 0. -1.
     999900   -1    0    0    0    0 -0.00000000000E+00 -0.00000000000E+00 -0.74505805969E-08  0.93827000000E+00  0.93827000000E+00 0.  1.
     999902    2    1    2    0    0  0.75316860052E-02  0.18166638097E-01  0.12941850773E-01  0.10203876013E+01  0.10201159799E+01 0.  0.
     999903    2    3    3    0    0 -0.44706234918E-01 -0.30702597260E-01 -0.11453428963E+00  0.12832977309E+00  0.20226968151E-01 0.  0.
         14    1    1    2    0    0 -0.75316860052E-02 -0.18166638097E-01 -0.12941850773E-01  0.23542398672E-01  0.00000000000E+00 0.  1.
     999901    1    3    3    0    0  0.52237920923E-01  0.48869235357E-01  0.12747614041E+00  0.89205782824E+00  0.88000000000E+00 0.  1.
        -11    1    4    4    0    0 -0.17969514248E-01 -0.20846871596E-02 -0.45353647375E-01  0.48830971873E-01  0.51100000000E-03 0.  1.
         11    1    4    4    0    0 -0.26736720670E-01 -0.28617910101E-01 -0.69180642258E-01  0.79498801217E-01  0.51100000000E-03 0. -1.
</event>
<event>
 8    1  0.1112929E+005  0.1043930E+01  0.7957747E-01            NaN
         13   -1    0    0    0    0  0.00000000000E+00  0.00000000000E+00  0.74505805969E-08  0.10566000000E+00  0.10566000000E+00 0. -1.
     999900   -1    0    0    0    0 -0.00000000000E+00 -0.00000000000E+00 -0.74505805969E-08  0.93827000000E+00  0.93827000000E+00 0.  1.
     999902    2    1    2    0    0  0.66859716942E-02 -0.14019661394E-02  0.22858453327E-01  0.10200725774E+01  0.10197935509E+01 0.  0.
     999903    2    3    3    0    0  0.34905453256E-02 -0.36651220519E-01  0.12641756648E+00  0.13329345571E+00  0.20742428656E-01 0.  0.
         14    1    1    2    0    0 -0.66859716942E-02  0.14019661394E-02 -0.22858453327E-01  0.23857422641E-01  0.00000000000E+00 0.  1.
     999901    1    3    3    0    0  0.31954263686E-02  0.35249254379E-01 -0.10355911315E+00  0.88677912165E+00  0.88000000000E+00 0.  1.
        -11    1    4    4    0    0  0.51044065654E-02 -0.33085890698E-01  0.80206911473E-01  0.86914560913E-01  0.51100000000E-03 0. -1.
         11    1    4    4    0    0 -0.16138612398E-02 -0.35653298206E-02  0.46210655009E-01  0.46378894792E-01  0.51100000000E-03 0.  1.
</event>
<event>
 8    1  0.1112929E+005  0.1043930E+01  0.7957747E-01            NaN
         13   -1    0    0    0    0  0.00000000000E+00  0.00000000000E+00  0.74505805969E-08  0.10566000000E+00  0.10566000000E+00 0. -1.
     999900   -1    0    0    0    0 -0.00000000000E+00 -0.00000000000E+00 -0.74505805969E-08  0.93827000000E+00  0.93827000000E+00 0. -1.
     999902    2    1    2    0    0 -0.20889931532E-01 -0.91265399379E-02 -0.83513561207E-02  0.10196518592E+01  0.10193627842E+01 0.  0.
     999903    2    3    3    0    0 -0.35298220366E-01 -0.10746638049E+00 -0.65516262255E-01  0.13221388983E+00  0.19827878042E-01 0.  0.
         14    1    1    2    0    0  0.20889931532E-01  0.91265399379E-02  0.83513561207E-02  0.24278140779E-01  0.00000000000E+00 0. -1.
     999901    1    3    3    0    0  0.14408288834E-01  0.98339840548E-01  0.57164906135E-01  0.88743796939E+00  0.88000000000E+00 0. -1.
        -11    1    4    4    0    0 -0.25456710775E-01 -0.50230512341E-01 -0.38078791581E-01  0.67980908959E-01  0.51100000000E-03 0.  1.
         11    1    4    4    0    0 -0.98415095908E-02 -0.57235868145E-01 -0.27437470674E-01  0.64232980869E-01  0.51100000000E-03 0. -1.
</event>
<event>
 8    1  0.1112929E+005  0.1043930E+01  0.7957747E-01            NaN
         13   -1    0    0    0    0  0.00000000000E+00  0.00000000000E+00  0.74505805969E-08  0.10566000000E+00  0.10566000000E+00 0. -1.
     999900   -1    0    0    0    0 -0.00000000000E+00 -0.00000000000E+00 -0.74505805969E-08  0.93827000000E+00  0.93827000000E+00 0. -1.
     999902    2    1    2    0    0 -0.34050616185E-03 -0.21072706523E-01  0.11432629501E-01  0.10199533463E+01  0.10196714906E+01 0.  0.
     999903    2    3    3    0    0  0.12100761042E+00 -0.37814533870E-01 -0.24710221231E-01  0.13073348608E+00  0.20195756932E-01 0.  0.
         14    1    1    2    0    0  0.34050616185E-03  0.21072706523E-01 -0.11432629501E-01  0.23976653686E-01  0.00000000000E+00 0.  1.
     999901    1    3    3    0    0 -0.12134811658E+00  0.16741827347E-01  0.36142850732E-01  0.88921986024E+00  0.88000000000E+00 0.  1.
        -11    1    4    4    0    0  0.46360917372E-01 -0.14100361514E-01 -0.19497041062E-01  0.52235529916E-01  0.51100000000E-03 0.  1.
         11    1    4    4    0    0  0.74646693046E-01 -0.23714172356E-01 -0.52131801689E-02  0.78497956162E-01  0.51100000000E-03 0. -1.
</event>
<event>
 8    1  0.1112929E+005  0.1043930E+01  0.7957747E-01            NaN
         13   -1    0    0    0    0  0.00000000000E+00  0.00000000000E+00  0.74505805969E-08  0.10566000000E+00  0.10566000000E+00 0. -1.
     999900   -1    0    0    0    0 -0.00000000000E+00 -0.00000000000E+00 -0.74505805969E-08  0.93827000000E+00  0.93827000000E+00 0.  1.
     999902    2    1    2    0    0 -0.64909259616E-02  0.11924194684E-01  0.19074222519E-01  0.10205175139E+01  0.10202489166E+01 0.  0.
     999903    2    3    3    0    0 -0.59723767406E-01 -0.62776660785E-01 -0.92887901938E-01  0.12869383713E+00  0.20642283202E-01 0.  0.
         14    1    1    2    0    0  0.64909259616E-02 -0.11924194684E-01 -0.19074222519E-01  0.23412486057E-01  0.00000000000E+00 0.  1.
     999901    1    3    3    0    0  0.53232841444E-01  0.74700855468E-01  0.11196212446E+00  0.89182367682E+00  0.88000000000E+00 0. -1.
        -11    1    4    4    0    0 -0.24910981324E-01 -0.40801260265E-01 -0.46962127980E-01  0.67014941731E-01  0.51100000000E-03 0. -1.
         11    1    4    4    0    0 -0.34812786082E-01 -0.21975400520E-01 -0.45925773957E-01  0.61678895397E-01  0.51100000000E-03 0.  1.
</event>
<event>
 8    1  0.1112929E+005  0.1043930E+01  0.7957747E-01            NaN
         13   -1    0    0    0    0  0.00000000000E+00  0.00000000000E+00  0.74505805969E-08  0.10566000000E+00  0.10566000000E+00 0. -1.
     999900   -1    0    0    0    0 -0.00000000000E+00 -0.00000000000E+00 -0.74505805969E-08  0.93827000000E+00  0.93827000000E+00 0. -1.
     999902    2    1    2    0    0 -0.16138634007E-01 -0.63739774306E-02 -0.15784448996E-01  0.10204729770E+01  0.10202033449E+01 0.  0.
     999903    2    3    3    0    0  0.44760443723E-01 -0.11776480294E+00  0.26801749987E-01  0.13034366171E+00  0.19977242318E-01 0.  0.
         14    1    1    2    0    0  0.16138634007E-01  0.63739774306E-02  0.15784448996E-01  0.23457022957E-01  0.00000000000E+00 0. -1.
     999901    1    3    3    0    0 -0.60899077730E-01  0.11139082551E+00 -0.42586198983E-01  0.89012931534E+00  0.88000000000E+00 0. -1.
        -11    1    4    4    0    0  0.29202819773E-01 -0.67120419052E-01  0.60760582937E-02  0.73451582296E-01  0.51100000000E-03 0. -1.
         11    1    4    4    0    0  0.15557623951E-01 -0.50644383890E-01  0.20725691693E-01  0.56892079412E-01  0.51100000000E-03 0.  1.
</event>
<event>
 8    1  0.1112929E+005  0.1043930E+01  0.7957747E-01            NaN
         13   -1    0    0    0    0  0.00000000000E+00  0.00000000000E+00  0.74505805969E-08  0.10566000000E+00  0.10566000000E+00 0.  1.
     999900   -1    0    0    0    0 -0.00000000000E+00 -0.00000000000E+00 -0.74505805969E-08  0.93827000000E+00  0.93827000000E+00 0. -1.
     999902    2    1    2    0    0 -0.91763738284E-02 -0.15083391388E-01 -0.15007208239E-01  0.10207582320E+01  0.10204951922E+01 0.  0.
     999903    2    3    3    0    0  0.83556836973E-01  0.95529288495E-01  0.39561501304E-02  0.12879734593E+00  0.21575801967E-01 0.  0.
         14    1    1    2    0    0  0.91763738284E-02  0.15083391388E-01  0.15007208239E-01  0.23171767985E-01  0.00000000000E+00 0.  1.
     999901    1    3    3    0    0 -0.92733210802E-01 -0.11061267988E+00 -0.18963358369E-01  0.89196088608E+00  0.88000000000E+00 0. -1.
        -11    1    4    4    0    0  0.26333124549E-01  0.22030280553E-01 -0.68791817650E-02  0.35019294289E-01  0.51100000000E-03 0. -1.
         11    1    4    4    0    0  0.57223712425E-01  0.73499007943E-01  0.10835331895E-01  0.93778051646E-01  0.51100000000E-03 0.  1.
</event>
<event>
 8    1  0.1112929E+005  0.1043930E+01  0.7957747E-01            NaN
         13   -1    0    0    0    0  0.00000000000E+00  0.00000000000E+00  0.74505805969E-08  0.10566000000E+00  0.10566000000E+00 0. -1.
     999900   -1    0    0    0    0 -0.00000000000E+00 -0.00000000000E+00 -0.74505805969E-08  0.93827000000E+00  0.93827000000E+00 0. -1.
     999902    2    1    2    0    0 -0.17949824086E-01  0.11635089731E-01 -0.18526144195E-02  0.10224590038E+01  0.10222335402E+01 0.  0.
     999903    2    3    3    0    0  0.93714773655E-01 -0.37161205719E-01  0.79691567050E-01  0.13032699878E+00  0.21701768155E-01 0.  0.
         14    1    1    2    0    0  0.17949824086E-01 -0.11635089731E-01  0.18526144195E-02  0.21470996203E-01  0.00000000000E+00 0. -1.
     999901    1    3    3    0    0 -0.11166459774E+00  0.48796295450E-01 -0.81544181469E-01  0.89213200501E+00  0.88000000000E+00 0. -1.
        -11    1    4    4    0    0  0.49739255138E-01 -0.30591978902E-01  0.49800539689E-01  0.76747752730E-01  0.51100000000E-03 0.  1.
         11    1    4    4    0    0  0.43975518517E-01 -0.65692268167E-02  0.29891027361E-01  0.53579246052E-01  0.51100000000E-03 0. -1.
</event>
<event>
 8    1  0.1112929E+005  0.1043930E+01  0.7957747E-01            NaN
         13   -1    0    0    0    0  0.00000000000E+00  0.00000000000E+00  0.74505805969E-08  0.10566000000E+00  0.10566000000E+00 0.  1.
     999900   -1    0    0    0    0 -0.00000000000E+00 -0.00000000000E+00 -0.74505805969E-08  0.93827000000E+00  0.93827000000E+00 0.  1.
     999902    2    1    2    0    0 -0.72957619376E-02 -0.20796625829E-01 -0.73998199237E-02  0.10206816641E+01  0.10204168630E+01 0.  0.
     999903    2    3    3    0    0 -0.15268487598E-01  0.53998473127E-01 -0.11645327565E+00  0.13076564142E+00  0.19731339329E-01 0.  0.
         14    1    1    2    0    0  0.72957619376E-02  0.20796625829E-01  0.73998199237E-02  0.23248335919E-01  0.00000000000E+00 0.  1.
     999901    1    3    3    0    0  0.79727256601E-02 -0.74795098955E-01  0.10905345573E+00  0.88991602266E+00  0.88000000000E+00 0. -1.
        -11    1    4    4    0    0 -0.21608922604E-02  0.37197830665E-01 -0.84543422800E-01  0.92391555465E-01  0.51100000000E-03 0.  1.
         11    1    4    4    0    0 -0.13107595337E-01  0.16800642462E-01 -0.31909852855E-01  0.38374085955E-01  0.51100000000E-03 0. -1.
</event>
<event>
 8    1  0.1112929E+005  0.1043930E+01  0.7957747E-01            NaN
         13   -1    0    0    0    0  0.00000000000E+00  0.00000000000E+00  0.74505805969E-08  0.10566000000E+00  0.10566000000E+00 0. -1.
     999900   -1    0    0    0    0 -0.00000000000E+00 -0.00000000000E+00 -0.74505805969E-08  0.93827000000E+00  0.93827000000E+00 0.  1.
     999902    2    1    2    0    0 -0.90328460048E-02  0.21501557602E-01  0.19413535188E-01  0.10135854019E+01  0.10131310736E+01 0.  0.
     999903    2    3    3    0    0  0.12125504668E+00 -0.81105508964E-02  0.80744420749E-02  0.12342789505E+00  0.20017024769E-01 0.  0.
         14    1    1    2    0    0  0.90328460048E-02 -0.21501557602E-01 -0.19413535188E-01  0.30344598115E-01  0.00000000000E+00 0.  1.
     999901    1    3    3    0    0 -0.13028789268E+00  0.29612108498E-01  0.11339093113E-01  0.89015750684E+00  0.88000000000E+00 0. -1.
        -11    1    4    4    0    0  0.23675316352E-01 -0.82608032700E-02 -0.28293145398E-02  0.25239406031E-01  0.51100000000E-03 0.  1.
         11    1    4    4    0    0  0.97579730323E-01  0.15025237365E-03  0.10903756615E-01  0.98188489015E-01  0.51100000000E-03 0. -1.
</event>
<event>
 8    1  0.1112929E+005  0.1043930E+01  0.7957747E-01            NaN
         13   -1    0    0    0    0  0.00000000000E+00  0.00000000000E+00  0.74505805969E-08  0.10566000000E+00  0.10566000000E+00 0.  1.
     999900   -1    0    0    0    0 -0.00000000000E+00 -0.00000000000E+00 -0.74505805969E-08  0.93827000000E+00  0.93827000000E+00 0. -1.
     999902    2    1    2    0    0  0.22220723603E-01 -0.53018556116E-02 -0.30822388950E-02  0.10208785266E+01  0.10206182419E+01 0.  0.
     999903    2    3    3    0    0 -0.89886611474E-01  0.89666064814E-01 -0.74242082431E-02  0.12868694783E+00  0.19636842224E-01 0.  0.
         14    1    1    2    0    0 -0.22220723603E-01  0.53018556116E-02  0.30822388950E-02  0.23051473423E-01  0.00000000000E+00 0.  1.
     999901    1    3    3    0    0  0.11210733508E+00 -0.94967920425E-01  0.43419693480E-02  0.89219157875E+00  0.88000000000E+00 0. -1.
        -11    1    4    4    0    0 -0.44374091675E-01  0.54722997530E-01  0.22717316314E-02  0.70491760911E-01  0.51100000000E-03 0.  1.
         11    1    4    4    0    0 -0.45512519799E-01  0.34943067284E-01 -0.96959398745E-02  0.58195186920E-01  0.51100000000E-03 0. -1.
</event>
<event>
 8    1  0.1112929E+005  0.1043930E+01  0.7957747E-01            NaN
         13   -1    0    0    0    0  0.00000000000E+00  0.00000000000E+00  0.74505805969E-08  0.10566000000E+00  0.10566000000E+00 0. -1.
     999900   -1    0    0    0    0 -0.00000000000E+00 -0.00000000000E+00 -0.74505805969E-08  0.93827000000E+00  0.93827000000E+00 0. -1.
     999902    2    1    2    0    0  0.49585860655E-02 -0.23957106268E-01  0.43113321903E-02  0.10190881381E+01  0.10187853136E+01 0.  0.
     999903    2    3    3    0    0  0.46943158362E-01 -0.67065773067E-01 -0.10007589704E+00  0.13087771536E+00  0.20305496181E-01 0.  0.
         14    1    1    2    0    0 -0.49585860655E-02  0.23957106268E-01 -0.43113321903E-02  0.24841861882E-01  0.00000000000E+00 0.  1.
     999901    1    3    3    0    0 -0.41984572297E-01  0.43108666799E-01  0.10438722924E+00  0.88821042276E+00  0.88000000000E+00 0.  1.
        -11    1    4    4    0    0  0.19436425806E-01 -0.45186477136E-01 -0.58566188595E-01  0.76484324744E-01  0.51100000000E-03 0. -1.
         11    1    4    4    0    0  0.27506732556E-01 -0.21879295931E-01 -0.41509708450E-01  0.54393390618E-01  0.51100000000E-03 0.  1.
</event>
<event>
 8    1  0.1112929E+005  0.1043930E+01  0.7957747E-01            NaN
         13   -1    0    0    0    0  0.00000000000E+00  0.00000000000E+00  0.74505805969E-08  0.10566000000E+00  0.10566000000E+00 0. -1.
     999900   -1    0    0    0    0 -0.00000000000E+00 -0.00000000000E+00 -0.74505805969E-08  0.93827000000E+00  0.93827000000E+00 0. -1.
     999902    2    1    2    0    0  0.26656324218E-03 -0.18899796930E-01  0.98036555321E-02  0.10226371598E+01  0.10224154614E+01 0.  0.
     999903    2    3    3    0    0 -0.40586936186E-01 -0.74251734193E-02 -0.12314587932E+00  0.13163982303E+00  0.21487271210E-01 0.  0.
         14    1    1    2    0    0 -0.26656324218E-03  0.18899796930E-01 -0.98036555321E-02  0.21292840152E-01  0.00000000000E+00 0.  1.
     999901    1    3    3    0    0  0.40853499428E-01 -0.11474623510E-01  0.13294953485E+00  0.89099733682E+00  0.88000000000E+00 0.  1.
        -11    1    4    4    0    0 -0.12889476399E-01  0.35816650462E-02 -0.64251539621E-01  0.65631458852E-01  0.51100000000E-03 0.  1.
         11    1    4    4    0    0 -0.27697459786E-01 -0.11006838466E-01 -0.58894339701E-01  0.66008364178E-01  0.51100000000E-03 0. -1.
</event>
<event>
 8    1  0.1112929E+005  0.1043930E+01  0.7957747E-01            NaN
         13   -1    0    0    0    0  0.00000000000E+00  0.00000000000E+00  0.74505805969E-08  0.10566000000E+00  0.10566000000E+00 0.  1.
     999900   -1    0    0    0    0 -0.00000000000E+00 -0.00000000000E+00 -0.74505805969E-08  0.93827000000E+00  0.93827000000E+00 0. -1.
     999902    2    1    2    0    0  0.17686862450E-01  0.44809596598E-02  0.14213508038E-01  0.10208014913E+01  0.10205394440E+01 0.  0.
     999903    2    3    3    0    0  0.20379165813E-01 -0.44883345672E-02 -0.12636387441E+00  0.12959461456E+00  0.19785849036E-01 0.  0.
         14    1    1    2    0    0 -0.17686862450E-01 -0.44809596598E-02 -0.14213508038E-01  0.23128508675E-01  0.00000000000E+00 0.  1.
     999901    1    3    3    0    0 -0.26923033627E-02  0.89692942270E-02  0.14057738244E+00  0.89120687676E+00  0.88000000000E+00 0.  1.
        -11    1    4    4    0    0  0.12031200852E-01 -0.11662844016E-01 -0.58998871876E-01  0.61334327485E-01  0.51100000000E-03 0. -1.
         11    1    4    4    0    0  0.83479649608E-02  0.71745094490E-02 -0.67365002530E-01  0.68260287076E-01  0.51100000000E-03 0.  1.
</event>
<event>
 8    1  0.1112929E+005  0.1043930E+01  0.7957747E-01            NaN
         13   -1    0    0    0    0  0.00000000000E+00  0.00000000000E+00  0.74505805969E-08  0.10566000000E+00  0.10566000000E+00 0.  1.
     999900   -1    0    0    0    0 -0.00000000000E+00 -0.00000000000E+00 -0.74505805969E-08  0.93827000000E+00  0.93827000000E+00 0.  1.
     999902    2    1    2    0    0  0.16367146376E-01 -0.15236508198E-01  0.18961436418E-02  0.10214882972E+01  0.10212417497E+01 0.  0.
     999903    2    3    3    0    0 -0.68746134833E-01 -0.88431256327E-01 -0.66337214307E-01  0.13173690896E+00  0.20195767630E-01 0.  0.
         14    1    1    2    0    0 -0.16367146376E-01  0.15236508198E-01 -0.18961436418E-02  0.22441702771E-01  0.00000000000E+00 0.  1.
     999901    1    3    3    0    0  0.85113281208E-01  0.73194748129E-01  0.68233357949E-01  0.88975138827E+00  0.88000000000E+00 0.  1.
        -11    1    4    4    0    0 -0.30844393367E-01 -0.24974978012E-01 -0.27017722254E-01  0.48014003850E-01  0.51100000000E-03 0.  1.
         11    1    4    4    0    0 -0.37901741466E-01 -0.63456278314E-01 -0.39319492053E-01  0.83722905109E-01  0.51100000000E-03 0. -1.
</event>
<event>
 8    1  0.1112929E+005  0.1043930E+01  0.7957747E-01            NaN
         13   -1    0    0    0    0  0.00000000000E+00  0.00000000000E+00  0.74505805969E-08  0.10566000000E+00  0.10566000000E+00 0. -1.
     999900   -1    0    0    0    0 -0.00000000000E+00 -0.00000000000E+00 -0.74505805969E-08  0.93827000000E+00  0.93827000000E+00 0.  1.
     999902    2    1    2    0    0 -0.15828194277E-01  0.95872074159E-02 -0.15662586389E-01  0.10196861783E+01  0.10193979298E+01 0.  0.
     999903    2    3    3    0    0 -0.10800901903E+00 -0.69479217785E-01  0.14899719402E-01  0.13082012616E+00  0.19964815883E-01 0.  0.
         14    1    1    2    0    0  0.15828194277E-01 -0.95872074159E-02  0.15662586389E-01  0.24243821739E-01  0.00000000000E+00 0. -1.
     999901    1    3    3    0    0  0.92180824756E-01  0.79066425201E-01 -0.30562305790E-01  0.88886605210E+00  0.88000000000E+00 0.  1.
        -11    1    4    4    0    0 -0.36391843081E-01 -0.25553011500E-01 -0.41744031700E-02  0.44665528121E-01  0.51100000000E-03 0. -1.
         11    1    4    4    0    0 -0.71617175952E-01 -0.43926206285E-01  0.19074122572E-01  0.86154598037E-01  0.51100000000E-03 0.  1.
</event>
<event>
 8    1  0.1112929E+005  0.1043930E+01  0.7957747E-01            NaN
         13   -1    0    0    0    0  0.00000000000E+00  0.00000000000E+00  0.74505805969E-08  0.10566000000E+00  0.10566000000E+00 0.  1.
     999900   -1    0    0    0    0 -0.00000000000E+00 -0.00000000000E+00 -0.74505805969E-08  0.93827000000E+00  0.93827000000E+00 0.  1.
     999902    2    1    2    0    0 -0.55823445857E-02  0.22280317546E-01 -0.28363171933E-02  0.10207865384E+01  0.10205241482E+01 0.  0.
     999903    2    3    3    0    0  0.10795342437E+00 -0.19557027034E-01  0.66724218964E-01  0.12978743488E+00  0.18874260664E-01 0.  0.
         14    1    1    2    0    0  0.55823445857E-02 -0.22280317546E-01  0.28363171933E-02  0.23143461630E-01  0.00000000000E+00 0.  1.
     999901    1    3    3    0    0 -0.11353576896E+00  0.41837344579E-01 -0.69560536157E-01  0.89099910349E+00  0.88000000000E+00 0.  1.
        -11    1    4    4    0    0  0.42488376475E-01  0.13781163372E-02  0.27833812058E-01  0.50814796613E-01  0.51100000000E-03 0.  1.
         11    1    4    4    0    0  0.65465047897E-01 -0.20935143371E-01  0.38890406906E-01  0.78972638265E-01  0.51100000000E-03 0. -1.
</event>
<event>
 8    1  0.1112929E+005  0.1043930E+01  0.7957747E-01            NaN
         13   -1    0    0    0    0  0.00000000000E+00  0.00000000000E+00  0.74505805969E-08  0.10566000000E+00  0.10566000000E+00 0. -1.
     999900   -1    0    0    0    0 -0.00000000000E+00 -0.00000000000E+00 -0.74505805969E-08  0.93827000000E+00  0.93827000000E+00 0. -1.
     999902    2    1    2    0    0  0.15481491007E-01 -0.91335637770E-02  0.15283956910E-01  0.10203355538E+01  0.10200627160E+01 0.  0.
     999903    2    3    3    0    0 -0.77318481943E-01 -0.10041530901E+00 -0.21496385168E-01  0.13000023186E+00  0.19405766559E-01 0.  0.
         14    1    1    2    0    0 -0.15481491007E-01  0.91335637770E-02 -0.15283956910E-01  0.23594446166E-01  0.00000000000E+00 0.  1.
     999901    1    3    3    0    0  0.92799972950E-01  0.91281745228E-01  0.36780342078E-01  0.89033532197E+00  0.88000000000E+00 0.  1.
        -11    1    4    4    0    0 -0.37504147599E-01 -0.34262259894E-01 -0.50043098930E-02  0.51046721527E-01  0.51100000000E-03 0.  1.
         11    1    4    4    0    0 -0.39814334344E-01 -0.66153049111E-01 -0.16492075275E-01  0.78953510333E-01  0.51100000000E-03 0. -1.
</event>
<event>
 8    1  0.1112929E+005  0.1043930E+01  0.7957747E-01            NaN
         13   -1    0    0    0    0  0.00000000000E+00  0.00000000000E+00  0.74505805969E-08  0.10566000000E+00  0.10566000000E+00 0. -1.
     999900   -1    0    0    0    0 -0.00000000000E+00 -0.00000000000E+00 -0.74505805969E-08  0.93827000000E+00  0.93827000000E+00 0.  1.
     999902    2    1    2    0    0 -0.19459846378E-03 -0.13309291614E-01  0.21346685714E-01  0.10187733686E+01  0.10184627242E+01 0.  0.
     999903    2    3    3    0    0  0.30085620544E-01 -0.90475230478E-01  0.89083444824E-01  0.13228606339E+00  0.21744666757E-01 0.  0.
         14    1    1    2    0    0  0.19459846378E-03  0.13309291614E-01 -0.21346685714E-01  0.25156631388E-01  0.00000000000E+00 0.  1.
     999901    1    3    3    0    0 -0.30280219007E-01  0.77165938864E-01 -0.67736759110E-01  0.88648730522E+00  0.88000000000E+00 0.  1.
        -11    1    4    4    0    0  0.15613247032E-01 -0.38625714316E-01  0.24993500640E-01  0.48586577205E-01  0.51100000000E-03 0. -1.
         11    1    4    4    0    0  0.14472373512E-01 -0.51849516162E-01  0.64089944184E-01  0.83699486186E-01  0.51100000000E-03 0.  1.
</event>
<event>
 8    1  0.1112929E+005  0.1043930E+01  0.7957747E-01            NaN
         13   -1    0    0    0    0  0.00000000000E+00  0.00000000000E+00  0.74505805969E-08  0.10566000000E+00  0.10566000000E+00 0.  1.
     999900   -1    0    0    0    0 -0.00000000000E+00 -0.00000000000E+00 -0.74505805969E-08  0.93827000000E+00  0.93827000000E+00 0. -1.
     999902    2    1    2    0    0  0.12653607261E-01  0.15272741436E-01  0.12821051642E-01  0.10203132735E+01  0.10200399140E+01 0.  0.
     999903    2    3    3    0    0 -0.40507453049E-01  0.83548573454E-01  0.92531760610E-01  0.13248362498E+00  0.19198080344E-01 0.  0.
         14    1    1    2    0    0 -0.12653607261E-01 -0.15272741436E-01 -0.12821051642E-01  0.23616726549E-01  0.00000000000E+00 0.  1.
     999901    1    3    3    0    0  0.53161060310E-01 -0.68275832018E-01 -0.79710708967E-01  0.88782964847E+00  0.88000000000E+00 0. -1.
        -11    1    4    4    0    0 -0.24100159039E-01  0.65127504203E-01  0.75010742863E-01  0.10222173025E+00  0.51100000000E-03 0.  1.
         11    1    4    4    0    0 -0.16407294010E-01  0.18421069250E-01  0.17521017746E-01  0.30261894734E-01  0.51100000000E-03 0. -1.
</event>
<event>
 8    1  0.1112929E+005  0.1043930E+01  0.7957747E-01            NaN
         13   -1    0    0    0    0  0.00000000000E+00  0.00000000000E+00  0.74505805969E-08  0.10566000000E+00  0.10566000000E+00 0.  1.
     999900   -1    0    0    0    0 -0.00000000000E+00 -0.00000000000E+00 -0.74505805969E-08  0.93827000000E+00  0.93827000000E+00 0.  1.
     999902    2    1    2    0    0 -0.16285644836E-01  0.23153139416E-02 -0.17336875137E-01  0.10200312522E+01  0.10197512468E+01 0.  0.
     999903    2    3    3    0    0  0.62448117616E-01 -0.86945566228E-01  0.65659329771E-01  0.12814847958E+00  0.25526189561E-01 0.  0.
         14    1    1    2    0    0  0.16285644836E-01 -0.23153139416E-02  0.17336875137E-01  0.23898747789E-01  0.00000000000E+00 0.  1.
     999901    1    3    3    0    0 -0.78733762451E-01  0.89260880169E-01 -0.82996204908E-01  0.89188277263E+00  0.88000000000E+00 0.  1.
        -11    1    4    4    0    0  0.55857174450E-01 -0.84312306327E-01  0.54429418188E-01  0.11485387073E+00  0.51100000000E-03 0. -1.
         11    1    4    4    0    0  0.65909431654E-02 -0.26332599008E-02  0.11229911583E-01  0.13294608857E-01  0.51100000000E-03 0.  1.
</event>
<event>
 8    1  0.1112929E+005  0.1043930E+01  0.7957747E-01            NaN
         13   -1    0    0    0    0  0.00000000000E+00  0.00000000000E+00  0.74505805969E-08  0.10566000000E+00  0.10566000000E+00 0. -1.
     999900   -1    0    0    0    0 -0.00000000000E+00 -0.00000000000E+00 -0.74505805969E-08  0.93827000000E+00  0.93827000000E+00 0.  1.
     999902    2    1    2    0    0 -0.12923221344E-01 -0.12355746877E-01 -0.15524381776E-01  0.10202513058E+01  0.10199764930E+01 0.  0.
     999903    2    3    3    0    0 -0.84999904777E-01 -0.33829629572E-01 -0.95096775790E-01  0.13346613347E+00  0.20009606887E-01 0.  0.
         14    1    1    2    0    0  0.12923221344E-01  0.12355746877E-01  0.15524381776E-01  0.23678694227E-01  0.00000000000E+00 0.  1.
     999901    1    3    3    0    0  0.72076683433E-01  0.21473882695E-01  0.79572394014E-01  0.88678517231E+00  0.88000000000E+00 0. -1.
        -11    1    4    4    0    0 -0.54119485414E-02 -0.85421609978E-02 -0.10952891635E-01  0.14915919606E-01  0.51100000000E-03 0.  1.
         11    1    4    4    0    0 -0.79587956236E-01 -0.25287468574E-01 -0.84143884155E-01  0.11855021386E+00  0.51100000000E-03 0. -1.
</event>
<event>
 8    1  0.1112929E+005  0.1043930E+01  0.7957747E-01            NaN
         13   -1    0    0    0    0  0.00000000000E+00  0.00000000000E+00  0.74505805969E-08  0.10566000000E+00  0.10566000000E+00 0. -1.
     999900   -1    0    0    0    0 -0.00000000000E+00 -0.00000000000E+00 -0.74505805969E-08  0.93827000000E+00  0.93827000000E+00 0. -1.
     999902    2    1    2    0    0  0.20710076441E-01 -0.14753581093E-01 -0.48439874342E-02  0.10180448762E+01  0.10177157414E+01 0.  0.
     999903    2    3    3    0    0 -0.66697745942E-03 -0.36849124190E-01 -0.12263923060E+00  0.12966381448E+00  0.20347508245E-01 0.  0.
         14    1    1    2    0    0 -0.20710076441E-01  0.14753581093E-01  0.48439874342E-02  0.25885123827E-01  0.00000000000E+00 0.  1.
     999901    1    3    3    0    0  0.21377053901E-01  0.22095543097E-01  0.11779524316E+00  0.88838106169E+00  0.88000000000E+00 0.  1.
        -11    1    4    4    0    0 -0.50917044055E-02 -0.11521562554E-01 -0.69439169450E-01  0.70574295833E-01  0.51100000000E-03 0.  1.
         11    1    4    4    0    0  0.44247269461E-02 -0.25327561636E-01 -0.53200061149E-01  0.59089518649E-01  0.51100000000E-03 0. -1.
</event>
<event>
 8    1  0.1112929E+005  0.1043930E+01  0.7957747E-01            NaN
         13   -1    0    0    0    0  0.00000000000E+00  0.00000000000E+00  0.74505805969E-08  0.10566000000E+00  0.10566000000E+00 0. -1.
     999900   -1    0    0    0    0 -0.00000000000E+00 -0.00000000000E+00 -0.74505805969E-08  0.93827000000E+00  0.93827000000E+00 0. -1.
     999902    2    1    2    0    0  0.12233293444E-01 -0.16677114212E-01  0.12111920689E-01  0.10199617245E+01  0.10196800681E+01 0.  0.
     999903    2    3    3    0    0 -0.72625883948E-01  0.98232481058E-01 -0.29663462863E-01  0.12746495828E+00  0.21053626904E-01 0.  0.
         14    1    1    2    0    0 -0.12233293444E-01  0.16677114212E-01 -0.12111920689E-01  0.23968275485E-01  0.00000000000E+00 0. -1.
     999901    1    3    3    0    0  0.84859177392E-01 -0.11490959527E+00  0.41775383552E-01  0.89249676624E+00  0.88000000000E+00 0. -1.
        -11    1    4    4    0    0 -0.30807984270E-01  0.57277133032E-01 -0.10553731470E-01  0.65889636758E-01  0.51100000000E-03 0. -1.
         11    1    4    4    0    0 -0.41817899678E-01  0.40955348026E-01 -0.19109731393E-01  0.61575321520E-01  0.51100000000E-03 0.  1.
</event>
<event>
 8    1  0.1112929E+005  0.1043930E+01  0.7957747E-01            NaN
         13   -1    0    0    0    0  0.00000000000E+00  0.00000000000E+00  0.74505805969E-08  0.10566000000E+00  0.10566000000E+00 0.  1.
     999900   -1    0    0    0    0 -0.00000000000E+00 -0.00000000000E+00 -0.74505805969E-08  0.93827000000E+00  0.93827000000E+00 0. -1.
     999902    2    1    2    0    0  0.22090494583E-01 -0.27053638507E-02  0.80845869876E-02  0.10202515395E+01  0.10199767323E+01 0.  0.
     999903    2    3    3    0    0 -0.68571974423E-01  0.50837483088E-01 -0.94197574106E-01  0.12809227109E+00  0.15744255553E-01 0.  0.
         14    1    1    2    0    0 -0.22090494583E-01  0.27053638507E-02 -0.80845869876E-02  0.23678460491E-01  0.00000000000E+00 0.  1.
     999901    1    3    3    0    0  0.90662469006E-01 -0.53542846939E-01  0.10228216109E+00  0.89215926842E+00  0.88000000000E+00 0. -1.
        -11    1    4    4    0    0 -0.85967528643E-02  0.13849157190E-01 -0.16473412739E-01  0.23180547080E-01  0.51100000000E-03 0.  1.
         11    1    4    4    0    0 -0.59975221559E-01  0.36988325898E-01 -0.77724161368E-01  0.10491172401E+00  0.51100000000E-03 0. -1.
</event>
<event>
 8    1  0.1112929E+005  0.1043930E+01  0.7957747E-01            NaN
         13   -1    0    0    0    0  0.00000000000E+00  0.00000000000E+00  0.74505805969E-08  0.10566000000E+00  0.10566000000E+00 0. -1.
     999900   -1    0    0    0    0 -0.00000000000E+00 -0.00000000000E+00 -0.74505805969E-08  0.93827000000E+00  0.93827000000E+00 0. -1.
     999902    2    1    2    0    0 -0.16045618286E-01 -0.16683301733E-01  0.67264934346E-02  0.10198252259E+01  0.10195403136E+01 0.  0.
     999903    2    3    3    0    0  0.10968880698E+00  0.33107082704E-01 -0.52298947449E-01  0.12754038862E+00  0.20091230028E-01 0.  0.
         14    1    1    2    0    0  0.16045618286E-01  0.16683301733E-01 -0.67264934346E-02  0.24104774150E-01  0.00000000000E+00 0.  1.
     999901    1    3    3    0    0 -0.12573442526E+00 -0.49790384436E-01  0.59025440884E-01  0.89228483723E+00  0.88000000000E+00 0.  1.
        -11    1    4    4    0    0  0.71673108568E-01  0.31444059069E-01 -0.35165120019E-01  0.85805653249E-01  0.51100000000E-03 0.  1.
         11    1    4    4    0    0  0.38015698409E-01  0.16630236346E-02 -0.17133827430E-01  0.41734735372E-01  0.51100000000E-03 0. -1.
</event>
<event>
 8    1  0.1112929E+005  0.1043930E+01  0.7957747E-01            NaN
         13   -1    0    0    0    0  0.00000000000E+00  0.00000000000E+00  0.74505805969E-08  0.10566000000E+00  0.10566000000E+00 0.  1.
     999900   -1    0    0    0    0 -0.00000000000E+00 -0.00000000000E+00 -0.74505805969E-08  0.93827000000E+00  0.93827000000E+00 0.  1.
     999902    2    1    2    0    0 -0.55610806088E-02 -0.16252926377E-01  0.16785830327E-01  0.10199123537E+01  0.10196295219E+01 0.  0.
     999903    2    3    3    0    0  0.68018727692E-01 -0.28642660289E-02 -0.10665996183E+00  0.12815447849E+00  0.20309395954E-01 0.  0.
         14    1    1    2    0    0  0.55610806088E-02  0.16252926377E-01 -0.16785830327E-01  0.24017646287E-01  0.00000000000E+00 0. -1.
     999901    1    3    3    0    0 -0.73579808301E-01 -0.13388660348E-01  0.12344579216E+00  0.89175787522E+00  0.88000000000E+00 0. -1.
        -11    1    4    4    0    0  0.26092575959E-01 -0.87736008341E-02 -0.53708470842E-01  0.60354449322E-01  0.51100000000E-03 0.  1.
         11    1    4    4    0    0  0.41926151734E-01  0.59093348052E-02 -0.52951490986E-01  0.67800029172E-01  0.51100000000E-03 0. -1.
</event>
<event>
 8    1  0.1112929E+005  0.1043930E+01  0.7957747E-01            NaN
         13   -1    0    0    0    0  0.00000000000E+00  0.00000000000E+00  0.74505805969E-08  0.10566000000E+00  0.10566000000E+00 0. -1.
     999900   -1    0    0    0    0 -0.00000000000E+00 -0.00000000000E+00 -0.74505805969E-08  0.93827000000E+00  0.93827000000E+00 0. -1.
     999902    2    1    2    0    0  0.67014137675E-02 -0.14048082825E-01  0.19532787066E-01  0.10189542648E+01  0.10186481269E+01 0.  0.
     999903    2    3    3    0    0  0.11581910801E+00  0.52751017523E-01 -0.92226309106E-02  0.12923764416E+00  0.20507952539E-01 0.  0.
         14    1    1    2    0    0 -0.67014137675E-02  0.14048082825E-01 -0.19532787066E-01  0.24975735187E-01  0.00000000000E+00 0.  1.
     999901    1    3    3    0    0 -0.10911769424E+00 -0.66799100349E-01  0.28755417977E-01  0.88971662065E+00  0.88000000000E+00 0.  1.
        -11    1    4    4    0    0  0.49093987083E-01  0.12961119354E-01 -0.88657756048E-02  0.51546806697E-01  0.51100000000E-03 0. -1.
         11    1    4    4    0    0  0.66725120926E-01  0.39789898170E-01 -0.35685530578E-03  0.77690837463E-01  0.51100000000E-03 0.  1.
</event>
<event>
 8    1  0.1112929E+005  0.1043930E+01  0.7957747E-01            NaN
         13   -1    0    0    0    0  0.00000000000E+00  0.00000000000E+00  0.74505805969E-08  0.10566000000E+00  0.10566000000E+00 0.  1.
     999900   -1    0    0    0    0 -0.00000000000E+00 -0.00000000000E+00 -0.74505805969E-08  0.93827000000E+00  0.93827000000E+00 0.  1.
     999902    2    1    2    0    0 -0.17728482128E-01  0.88632072803E-02  0.10051992188E-01  0.10217061824E+01  0.10214644512E+01 0.  0.
     999903    2    3    3    0    0 -0.10327272901E+00 -0.66922232248E-01  0.45566908227E-01  0.13360564739E+00  0.25105460840E-01 0.  0.
         14    1    1    2    0    0  0.17728482128E-01 -0.88632072803E-02 -0.10051992188E-01  0.22223817602E-01  0.00000000000E+00 0.  1.
     999901    1    3    3    0    0  0.85544246878E-01  0.75785439528E-01 -0.35514916039E-01  0.88810053501E+00  0.88000000000E+00 0.  1.
        -11    1    4    4    0    0 -0.72626980082E-01 -0.56998250444E-01  0.26011140173E-01  0.95918295041E-01  0.51100000000E-03 0.  1.
         11    1    4    4    0    0 -0.30645748925E-01 -0.99239818045E-02  0.19555768054E-01  0.37687352351E-01  0.51100000000E-03 0. -1.
</event>
<event>
 8    1  0.1112929E+005  0.1043930E+01  0.7957747E-01            NaN
         13   -1    0    0    0    0  0.00000000000E+00  0.00000000000E+00  0.74505805969E-08  0.10566000000E+00  0.10566000000E+00 0.  1.
     999900   -1    0    0    0    0 -0.00000000000E+00 -0.00000000000E+00 -0.74505805969E-08  0.93827000000E+00  0.93827000000E+00 0.  1.
     999902    2    1    2    0    0  0.14768101083E-01 -0.14118319244E-01  0.16022418755E-01  0.10179657621E+01  0.10176345862E+01 0.  0.
     999903    2    3    3    0    0  0.10127495834E+00 -0.15590505644E-02  0.80189288355E-01  0.13130993329E+00  0.23514437872E-01 0.  0.
         14    1    1    2    0    0 -0.14768101083E-01  0.14118319244E-01 -0.16022418755E-01  0.25964237918E-01  0.00000000000E+00 0.  1.
     999901    1    3    3    0    0 -0.86506857253E-01 -0.12559268679E-01 -0.64166869600E-01  0.88665582879E+00  0.88000000000E+00 0.  1.
        -11    1    4    4    0    0  0.85675108199E-01  0.80908278389E-03  0.55770843795E-01  0.10223270963E+00  0.51100000000E-03 0.  1.
         11    1    4    4    0    0  0.15599850137E-01 -0.23681333483E-02  0.24418444560E-01  0.29077223657E-01  0.51100000000E-03 0. -1.
</event>
<event>
 8    1  0.1112929E+005  0.1043930E+01  0.7957747E-01            NaN
         13   -1    0    0    0    0  0.00000000000E+00  0.00000000000E+00  0.74505805969E-08  0.10566000000E+00  0.10566000000E+00 0. -1.
     999900   -1    0    0    0    0 -0.00000000000E+00 -0.00000000000E+00 -0.74505805969E-08  0.93827000000E+00  0.93827000000E+00 0. -1.
     999902    2    1    2    0    0 -0.12084767520E-01  0.18746285710E-01 -0.11187559064E-01  0.10189775189E+01  0.10186719579E+01 0.  0.
     999903    2    3    3    0    0 -0.11239542403E+00 -0.23328721297E-01 -0.59599741616E-01  0.13095934713E+00  0.20524639312E-01 0.  0.
         14    1    1    2    0    0  0.12084767520E-01 -0.18746285710E-01  0.11187559064E-01  0.24952481074E-01  0.00000000000E+00 0. -1.
     999901    1    3    3    0    0  0.10031065651E+00  0.42075007007E-01  0.48412182552E-01  0.88801817180E+00  0.88000000000E+00 0.  1.
        -11    1    4    4    0    0 -0.48715035164E-02 -0.40204792368E-02 -0.78173600158E-02  0.10063202195E-01  0.51100000000E-03 0.  1.
         11    1    4    4    0    0 -0.10752392052E+00 -0.19308242060E-01 -0.51782381601E-01  0.12089614493E+00  0.51100000000E-03 0. -1.
</event>
<event>
 8    1  0.1112929E+005  0.1043930E+01  0.7957747E-01            NaN
         13   -1    0    0    0    0  0.00000000000E+00  0.00000000000E+00  0.74505805969E-08  0.10566000000E+00  0.10566000000E+00 0. -1.
     999900   -1    0    0    0    0 -0.00000000000E+00 -0.00000000000E+00 -0.74505805969E-08  0.93827000000E+00  0.93827000000E+00 0.  1.
     999902    2    1    2    0    0  0.22237176585E-01  0.66221877239E-02 -0.31051487511E-02  0.10205208706E+01  0.10202523511E+01 0.  0.
     999903    2    3    3    0    0 -0.61661252855E-02  0.10195708219E+00  0.79779794715E-01  0.13104607973E+00  0.19364701306E-01 0.  0.
         14    1    1    2    0    0 -0.22237176585E-01 -0.66221877239E-02  0.31051487511E-02  0.23409129448E-01  0.00000000000E+00 0.  1.
     999901    1    3    3    0    0  0.28403301871E-01 -0.95334894469E-01 -0.82884943466E-01  0.88947479083E+00  0.88000000000E+00 0.  1.
        -11    1    4    4    0    0  0.33758898221E-02  0.77538192724E-01  0.56764845855E-01  0.96156522446E-01  0.51100000000E-03 0. -1.
         11    1    4    4    0    0 -0.95420151076E-02  0.24418889469E-01  0.23014948860E-01  0.34889557281E-01  0.51100000000E-03 0.  1.
</event>
<event>
 8    1  0.1112929E+005  0.1043930E+01  0.7957747E-01            NaN
         13   -1    0    0    0    0  0.00000000000E+00  0.00000000000E+00  0.74505805969E-08  0.10566000000E+00  0.10566000000E+00 0.  1.
     999900   -1    0    0    0    0 -0.00000000000E+00 -0.00000000000E+00 -0.74505805969E-08  0.93827000000E+00  0.93827000000E+00 0.  1.
     999902    2    1    2    0    0  0.15343532017E-01  0.13626900355E-01 -0.13371779641E-01  0.10194367177E+01  0.10191424339E+01 0.  0.
     999903    2    3    3    0    0 -0.42142773988E-01  0.11964158297E-01  0.11787502931E+00  0.12784647270E+00  0.23044382487E-01 0.  0.
         14    1    1    2    0    0 -0.15343532017E-01 -0.13626900355E-01  0.13371779641E-01  0.24493282320E-01  0.00000000000E+00 0.  1.
     999901    1    3    3    0    0  0.57486306005E-01  0.16627420584E-02 -0.13124680895E+00  0.89159024498E+00  0.88000000000E+00 0.  1.
        -11    1    4    4    0    0 -0.25795379482E-01  0.15115033098E-01  0.52856323685E-01  0.60728229866E-01  0.51100000000E-03 0.  1.
         11    1    4    4    0    0 -0.16347394506E-01 -0.31508748015E-02  0.65018705621E-01  0.67118242832E-01  0.51100000000E-03 0. -1.
</event>
<event>
 8    1  0.1112929E+005  0.1043930E+01  0.7957747E-01            NaN
         13   -1    0    0    0    0  0.00000000000E+00  0.00000000000E+00  0.74505805969E-08  0.10566000000E+00  0.10566000000E+00 0.  1.
     999900   -1    0    0    0    0 -0.00000000000E+00 -0.00000000000E+00 -0.74505805969E-08  0.93827000000E+00  0.93827000000E+00 0. -1.
     999902    2    1    2    0    0 -0.10158634890E-01 -0.21086383995E-01  0.17316827428E-03  0.10205235171E+01  0.10202550591E+01 0.  0.
     999903    2    3    3    0    0 -0.10751304234E+00  0.70663713889E-01  0.57489979290E-02  0.13039596954E+00  0.20436319684E-01 0.  0.
         14    1    1    2    0    0  0.10158634890E-01  0.21086383995E-01 -0.17316827428E-03  0.23406482864E-01  0.00000000000E+00 0.  1.
     999901    1    3    3    0    0  0.97354407446E-01 -0.91750097884E-01 -0.55758296547E-02  0.89012754759E+00  0.88000000000E+00 0.  1.
        -11    1    4    4    0    0 -0.49950555403E-01  0.20958238889E-01  0.40375387481E-02  0.54321898002E-01  0.51100000000E-03 0.  1.
         11    1    4    4    0    0 -0.57562486933E-01  0.49705475000E-01  0.17114591809E-02  0.76074071539E-01  0.51100000000E-03 0. -1.
</event>
<event>
 8    1  0.1112929E+005  0.1043930E+01  0.7957747E-01            NaN
         13   -1    0    0    0    0  0.00000000000E+00  0.00000000000E+00  0.74505805969E-08  0.10566000000E+00  0.10566000000E+00 0.  1.
     999900   -1    0    0    0    0 -0.00000000000E+00 -0.00000000000E+00 -0.74505805969E-08  0.93827000000E+00  0.93827000000E+00 0.  1.
     999902    2    1    2    0    0  0.83229174915E-02 -0.18732439538E-01  0.12389404954E-01  0.10199785365E+01  0.10196972798E+01 0.  0.
     999903    2    3    3    0    0 -0.99257062099E-01 -0.42046116341E-01  0.71856520686E-01  0.13112910194E+00  0.20288951076E-01 0.  0.
         14    1    1    2    0    0 -0.83229174915E-02  0.18732439538E-01 -0.12389404954E-01  0.23951463457E-01  0.00000000000E+00 0. -1.
     999901    1    3    3    0    0  0.10757997959E+00  0.23313676803E-01 -0.59467115732E-01  0.88884943460E+00  0.88000000000E+00 0. -1.
        -11    1    4    4    0    0 -0.31172334839E-01 -0.23249463642E-01  0.22121431940E-01  0.44742271858E-01  0.51100000000E-03 0. -1.
         11    1    4    4    0    0 -0.68084727260E-01 -0.18796652698E-01  0.49735088745E-01  0.86386830086E-01  0.51100000000E-03 0.  1.
</event>
<event>
 8    1  0.1112929E+005  0.1043930E+01  0.7957747E-01            NaN
         13   -1    0    0    0    0  0.00000000000E+00  0.00000000000E+00  0.74505805969E-08  0.10566000000E+00  0.10566000000E+00 0.  1.
     999900   -1    0    0    0    0 -0.00000000000E+00 -0.00000000000E+00 -0.74505805969E-08  0.93827000000E+00  0.93827000000E+00 0.  1.
     999902    2    1    2    0    0  0.15578051652E-01  0.25964556878E-02  0.16094483309E-01  0.10213811715E+01  0.10211322381E+01 0.  0.
     999903    2    3    3    0    0 -0.76939709464E-01  0.49277729532E-01 -0.88693180008E-01  0.12912608920E+00  0.21425527081E-01 0.  0.
         14    1    1    2    0    0 -0.15578051652E-01 -0.25964556878E-02 -0.16094483309E-01  0.22548828537E-01  0.00000000000E+00 0.  1.
     999901    1    3    3    0    0  0.92517761116E-01 -0.46681273844E-01  0.10478766332E+00  0.89225508227E+00  0.88000000000E+00 0. -1.
        -11    1    4    4    0    0 -0.41762506443E-01  0.18689704626E-01 -0.55329114740E-01  0.71798217682E-01  0.51100000000E-03 0. -1.
         11    1    4    4    0    0 -0.35177203021E-01  0.30588024905E-01 -0.33364065268E-01  0.57327871513E-01  0.51100000000E-03 0.  1.
</event>
<event>
 8    1  0.1112929E+005  0.1043930E+01  0.7957747E-01            NaN
         13   -1    0    0    0    0  0.00000000000E+00  0.00000000000E+00  0.74505805969E-08  0.10566000000E+00  0.10566000000E+00 0. -1.
     999900   -1    0    0    0    0 -0.00000000000E+00 -0.00000000000E+00 -0.74505805969E-08  0.93827000000E+00  0.93827000000E+00 0.  1.
     999902    2    1    2    0    0 -0.11300121208E-01 -0.72773392830E-02  0.18726362593E-01  0.10208794238E+01  0.10206191596E+01 0.  0.
     999903    2    3    3    0    0  0.88643704194E-01 -0.18816092894E-01 -0.89146301929E-01  0.12860232402E+00  0.19486994407E-01 0.  0.
         14    1    1    2    0    0  0.11300121208E-01  0.72773392830E-02 -0.18726362593E-01  0.23050576182E-01  0.00000000000E+00 0.  1.
     999901    1    3    3    0    0 -0.99943825402E-01  0.11538753611E-01  0.10787266452E+00  0.89227709980E+00  0.88000000000E+00 0. -1.
        -11    1    4    4    0    0  0.50370240089E-01 -0.12895566307E-01 -0.37796044838E-01  0.64282648074E-01  0.51100000000E-03 0. -1.
         11    1    4    4    0    0  0.38273464105E-01 -0.59205265864E-02 -0.51350257090E-01  0.64319675947E-01  0.51100000000E-03 0.  1.
</event>
<event>
 8    1  0.1112929E+005  0.1043930E+01  0.7957747E-01            NaN
         13   -1    0    0    0    0  0.00000000000E+00  0.00000000000E+00  0.74505805969E-08  0.10566000000E+00  0.10566000000E+00 0.  1.
     999900   -1    0    0    0    0 -0.00000000000E+00 -0.00000000000E+00 -0.74505805969E-08  0.93827000000E+00  0.93827000000E+00 0.  1.
     999902    2    1    2    0    0 -0.74991695707E-02 -0.22955292949E-01  0.87320101538E-03  0.10197650357E+01  0.10194786818E+01 0.  0.
     999903    2    3    3    0    0 -0.88420626144E-01 -0.38575117542E-01 -0.87661078890E-01  0.13149110287E+00  0.17297357082E-01 0.  0.
         14    1    1    2    0    0  0.74991695707E-02  0.22955292949E-01 -0.87320101538E-03  0.24164964280E-01  0.00000000000E+00 0. -1.
     999901    1    3    3    0    0  0.80921456573E-01  0.15619824593E-01  0.88534279906E-01  0.88827393285E+00  0.88000000000E+00 0. -1.
        -11    1    4    4    0    0 -0.40228726845E-01 -0.24608228374E-01 -0.50153369211E-01  0.68844294836E-01  0.51100000000E-03 0. -1.
         11    1    4    4    0    0 -0.48191899299E-01 -0.13966889168E-01 -0.37507709679E-01  0.62646808039E-01  0.51100000000E-03 0.  1.
</event>
<event>
 8    1  0.1112929E+005  0.1043930E+01  0.7957747E-01            NaN
         13   -1    0    0    0    0  0.00000000000E+00  0.00000000000E+00  0.74505805969E-08  0.10566000000E+00  0.10566000000E+00 0.  1.
     999900   -1    0    0    0    0 -0.00000000000E+00 -0.00000000000E+00 -0.74505805969E-08  0.93827000000E+00  0.93827000000E+00 0.  1.
     999902    2    1    2    0    0  0.20338182892E-01 -0.93861313071E-02  0.86822999329E-02  0.10199066056E+01  0.10196236368E+01 0.  0.
     999903    2    3    3    0    0 -0.12143333282E-01  0.97081939247E-01 -0.80694023501E-01  0.12840302958E+00  0.20086042565E-01 0.  0.
         14    1    1    2    0    0 -0.20338182892E-01  0.93861313071E-02 -0.86822999329E-02  0.24023394356E-01  0.00000000000E+00 0.  1.
     999901    1    3    3    0    0  0.32481516174E-01 -0.10646807055E+00  0.89376323434E-01  0.89150357606E+00  0.88000000000E+00 0.  1.
        -11    1    4    4    0    0  0.15385880831E-02  0.60393998923E-01 -0.44018531607E-01  0.74750883640E-01  0.51100000000E-03 0.  1.
         11    1    4    4    0    0 -0.13681921365E-01  0.36687940323E-01 -0.36675491895E-01  0.53652145942E-01  0.51100000000E-03 0. -1.
</event>
<event>
 8    1  0.1210457E+005  0.1043930E+01  0.7957747E-01            NaN
         13   -1    0    0    0    0  0.00000000000E+00  0.00000000000E+00  0.74505805969E-08  0.10566000000E+00  0.10566000000E+00 0. -1.
     999900   -1    0    0    0    0 -0.00000000000E+00 -0.00000000000E+00 -0.74505805969E-08  0.93827000000E+00  0.93827000000E+00 0.  1.
     999902    2    1    2    0    0 -0.26137549858E-01 -0.74017481943E-02  0.12758480283E-01  0.10139177324E+01  0.10134734490E+01 0.  0.
     999903    2    3    3    0    0  0.12667468272E-01  0.22484804562E-02 -0.12054697314E+00  0.12298041681E+00  0.20666150345E-01 0.  0.
         14    1    1    2    0    0  0.26137549858E-01  0.74017481943E-02 -0.12758480283E-01  0.30012267626E-01  0.00000000000E+00 0. -1.
     999901    1    3    3    0    0 -0.38805018130E-01 -0.96502286505E-02  0.13330545342E+00  0.89093731556E+00  0.88000000000E+00 0. -1.
        -11    1    4    4    0    0 -0.38662310252E-02 -0.42654207685E-02 -0.45012203692E-01  0.45381727148E-01  0.51100000000E-03 0. -1.
         11    1    4    4    0    0  0.16533699297E-01  0.65139012247E-02 -0.75534769447E-01  0.77598689666E-01  0.51100000000E-03 0.  1.
</event>
<event>
 8    1  0.1112929E+005  0.1043930E+01  0.7957747E-01            NaN
         13   -1    0    0    0    0  0.00000000000E+00  0.00000000000E+00  0.74505805969E-08  0.10566000000E+00  0.10566000000E+00 0. -1.
     999900   -1    0    0    0    0 -0.00000000000E+00 -0.00000000000E+00 -0.74505805969E-08  0.93827000000E+00  0.93827000000E+00 0. -1.
     999902    2    1    2    0    0 -0.17936797724E-01  0.38206794834E-02 -0.10790003131E-01  0.10226520661E+01  0.10224306812E+01 0.  0.
     999903    2    3    3    0    0 -0.12623838271E+00 -0.13216912492E-01 -0.42237378106E-01  0.13529168256E+00  0.20224421244E-01 0.  0.
         14    1    1    2    0    0  0.17936797724E-01 -0.38206794834E-02  0.10790003131E-01  0.21277933919E-01  0.00000000000E+00 0. -1.
     999901    1    3    3    0    0  0.10830158499E+00  0.17037591976E-01  0.31447374975E-01  0.88736038352E+00  0.88000000000E+00 0.  1.
        -11    1    4    4    0    0 -0.96226111396E-01 -0.18215096848E-01 -0.35097840161E-01  0.10403544479E+00  0.51100000000E-03 0. -1.
         11    1    4    4    0    0 -0.30012271317E-01  0.49981843559E-02 -0.71395379451E-02  0.31256237770E-01  0.51100000000E-03 0.  1.
</event>
<event>
 8    1  0.1112929E+005  0.1043930E+01  0.7957747E-01            NaN
         13   -1    0    0    0    0  0.00000000000E+00  0.00000000000E+00  0.74505805969E-08  0.10566000000E+00  0.10566000000E+00 0.  1.
     999900   -1    0    0    0    0 -0.00000000000E+00 -0.00000000000E+00 -0.74505805969E-08  0.93827000000E+00  0.93827000000E+00 0.  1.
     999902    2    1    2    0    0  0.20599717646E-01 -0.80573195310E-03 -0.86354567134E-02  0.10215789668E+01  0.10213344295E+01 0.  0.
     999903    2    3    3    0    0  0.68139077723E-02 -0.64827274029E-01  0.11178482847E+00  0.13096690118E+00  0.20186047908E-01 0.  0.
         14    1    1    2    0    0 -0.20599717646E-01  0.80573195310E-03  0.86354567134E-02  0.22351033169E-01  0.00000000000E+00 0.  1.
     999901    1    3    3    0    0  0.13785809873E-01  0.64021542076E-01 -0.12042028519E+00  0.89061206565E+00  0.88000000000E+00 0.  1.
        -11    1    4    4    0    0 -0.28825471238E-02 -0.11042558699E-01  0.89570568706E-02  0.14516789222E-01  0.51100000000E-03 0.  1.
         11    1    4    4    0    0  0.96964548961E-02 -0.53784715330E-01  0.10282777160E+00  0.11645011196E+00  0.51100000000E-03 0. -1.
</event>
<event>
 8    1  0.1112929E+005  0.1043930E+01  0.7957747E-01            NaN
         13   -1    0    0    0    0  0.00000000000E+00  0.00000000000E+00  0.74505805969E-08  0.10566000000E+00  0.10566000000E+00 0. -1.
     999900   -1    0    0    0    0 -0.00000000000E+00 -0.00000000000E+00 -0.74505805969E-08  0.93827000000E+00  0.93827000000E+00 0. -1.
     999902    2    1    2    0    0  0.24112607883E-01  0.70260979851E-02  0.68131604806E-04  0.10188144957E+01  0.10185048788E+01 0.  0.
     999903    2    3    3    0    0 -0.10702209399E+00 -0.57810851398E-01 -0.28000254885E-01  0.12629672318E+00  0.19262005866E-01 0.  0.
         14    1    1    2    0    0 -0.24112607883E-01 -0.70260979851E-02 -0.68131604806E-04  0.25115504250E-01  0.00000000000E+00 0.  1.
     999901    1    3    3    0    0  0.13113470187E+00  0.64836949383E-01  0.28068386490E-01  0.89251777257E+00  0.88000000000E+00 0. -1.
        -11    1    4    4    0    0 -0.40073386650E-01 -0.23373240144E-01 -0.20213867259E-01  0.50606780405E-01  0.51100000000E-03 0. -1.
         11    1    4    4    0    0 -0.66948707339E-01 -0.34437611254E-01 -0.77863876265E-02  0.75689942770E-01  0.51100000000E-03 0.  1.
</event>
<event>
 8    1  0.1112929E+005  0.1043930E+01  0.7957747E-01            NaN
         13   -1    0    0    0    0  0.00000000000E+00  0.00000000000E+00  0.74505805969E-08  0.10566000000E+00  0.10566000000E+00 0. -1.
     999900   -1    0    0    0    0 -0.00000000000E+00 -0.00000000000E+00 -0.74505805969E-08  0.93827000000E+00  0.93827000000E+00 0.  1.
     999902    2    1    2    0    0  0.25425687986E-01  0.12172192455E-01  0.23858596315E-02  0.10156400688E+01  0.10152459944E+01 0.  0.
     999903    2    3    3    0    0  0.10745310698E+00  0.68061649714E-01 -0.81833986363E-02  0.12999689119E+00  0.25566879861E-01 0.  0.
         14    1    1    2    0    0 -0.25425687986E-01 -0.12172192455E-01 -0.23858596315E-02  0.28289931158E-01  0.00000000000E+00 0. -1.
     999901    1    3    3    0    0 -0.82027418989E-01 -0.55889457259E-01  0.10569258268E-01  0.88564317765E+00  0.88000000000E+00 0. -1.
        -11    1    4    4    0    0  0.70214329767E-01  0.41602042009E-01  0.68500141887E-02  0.81902172250E-01  0.51100000000E-03 0.  1.
         11    1    4    4    0    0  0.37238777208E-01  0.26459607705E-01 -0.15033412825E-01  0.48094718941E-01  0.51100000000E-03 0. -1.
</event>
<event>
 8    1  0.1112929E+005  0.1043930E+01  0.7957747E-01            NaN
         13   -1    0    0    0    0  0.00000000000E+00  0.00000000000E+00  0.74505805969E-08  0.10566000000E+00  0.10566000000E+00 0. -1.
     999900   -1    0    0    0    0 -0.00000000000E+00 -0.00000000000E+00 -0.74505805969E-08  0.93827000000E+00  0.93827000000E+00 0. -1.
     999902    2    1    2    0    0 -0.14534622336E-01 -0.14029845984E-01  0.12927834538E-01  0.10199462403E+01  0.10196642155E+01 0.  0.
     999903    2    3    3    0    0  0.94868045283E-01 -0.26110026035E-01 -0.79850217701E-01  0.12824974403E+00  0.19755001948E-01 0.  0.
         14    1    1    2    0    0  0.14534622336E-01  0.14029845984E-01 -0.12927834538E-01  0.23983759727E-01  0.00000000000E+00 0.  1.
     999901    1    3    3    0    0 -0.10940266762E+00  0.12080180051E-01  0.92778052239E-01  0.89169649624E+00  0.88000000000E+00 0.  1.
        -11    1    4    4    0    0  0.77370084710E-01 -0.18408710644E-01 -0.54155366505E-01  0.96218893560E-01  0.51100000000E-03 0. -1.
         11    1    4    4    0    0  0.17497960573E-01 -0.77013153907E-02 -0.25694851196E-01  0.32030850472E-01  0.51100000000E-03 0.  1.
</event>
<event>
 8    1  0.1112929E+005  0.1043930E+01  0.7957747E-01            NaN
         13   -1    0    0    0    0  0.00000000000E+00  0.00000000000E+00  0.74505805969E-08  0.10566000000E+00  0.10566000000E+00 0. -1.
     999900   -1    0    0    0    0 -0.00000000000E+00 -0.00000000000E+00 -0.74505805969E-08  0.93827000000E+00  0.93827000000E+00 0. -1.
     999902    2    1    2    0    0  0.30086012735E-02  0.20636634247E-01 -0.74743642191E-02  0.10217762537E+01  0.10215360611E+01 0.  0.
     999903    2    3    3    0    0 -0.79565446470E-01  0.75590750303E-01 -0.73777914214E-01  0.13372524786E+00  0.19865535123E-01 0.  0.
         14    1    1    2    0    0 -0.30086012735E-02 -0.20636634247E-01  0.74743642191E-02  0.22153746301E-01  0.00000000000E+00 0.  1.
     999901    1    3    3    0    0  0.82574047744E-01 -0.54954116055E-01  0.66303549995E-01  0.88805100584E+00  0.88000000000E+00 0. -1.
        -11    1    4    4    0    0 -0.19346714169E-01  0.83299234845E-02 -0.11049544380E-01  0.23791522154E-01  0.51100000000E-03 0. -1.
         11    1    4    4    0    0 -0.60218732301E-01  0.67260826818E-01 -0.62728369834E-01  0.10993372570E+00  0.51100000000E-03 0.  1.
</event>
<event>
 8    1  0.1112929E+005  0.1043930E+01  0.7957747E-01            NaN
         13   -1    0    0    0    0  0.00000000000E+00  0.00000000000E+00  0.74505805969E-08  0.10566000000E+00  0.10566000000E+00 0. -1.
     999900   -1    0    0    0    0 -0.00000000000E+00 -0.00000000000E+00 -0.74505805969E-08  0.93827000000E+00  0.93827000000E+00 0. -1.
     999902    2    1    2    0    0 -0.18395178945E-01 -0.50618082002E-03 -0.14823537937E-01  0.10203000168E+01  0.10200263468E+01 0.  0.
     999903    2    3    3    0    0 -0.83113096580E-01 -0.93395005497E-01  0.36199207051E-01  0.13158180327E+00  0.19312547375E-01 0.  0.
         14    1    1    2    0    0  0.18395178945E-01  0.50618082002E-03  0.14823537937E-01  0.23629983165E-01  0.00000000000E+00 0.  1.
     999901    1    3    3    0    0  0.64717917635E-01  0.92888824677E-01 -0.51022744988E-01  0.88871821356E+00  0.88000000000E+00 0.  1.
        -11    1    4    4    0    0 -0.34091247467E-01 -0.30941224233E-01  0.21588416429E-01  0.50851679970E-01  0.51100000000E-03 0. -1.
         11    1    4    4    0    0 -0.49021849113E-01 -0.62453781264E-01  0.14610790623E-01  0.80730123301E-01  0.51100000000E-03 0.  1.
</event>
<event>
 8    1  0.1112929E+005  0.1043930E+01  0.7957747E-01            NaN
         13   -1    0    0    0    0  0.00000000000E+00  0.00000000000E+00  0.74505805969E-08  0.10566000000E+00  0.10566000000E+00 0.  1.
     999900   -1    0    0    0    0 -0.00000000000E+00 -0.00000000000E+00 -0.74505805969E-08  0.93827000000E+00  0.93827000000E+00 0.  1.
     999902    2    1    2    0    0  0.16907836874E-01  0.13130905616E-02  0.16356686948E-01  0.10203685832E+01  0.10200965176E+01 0.  0.
     999903    2    3    3    0    0 -0.91753018158E-02 -0.11608434178E+00 -0.52975394216E-01  0.12948732020E+00  0.20020317948E-01 0.  0.
         14    1    1    2    0    0 -0.16907836874E-01 -0.13130905616E-02 -0.16356686948E-01  0.23561416819E-01  0.00000000000E+00 0.  1.
     999901    1    3    3    0    0  0.26083138690E-01  0.11739743234E+00  0.69332081164E-01  0.89088126298E+00  0.88000000000E+00 0. -1.
        -11    1    4    4    0    0 -0.97469291530E-02 -0.33463102041E-01 -0.22149812058E-01  0.41299601951E-01  0.51100000000E-03 0. -1.
         11    1    4    4    0    0  0.57162733720E-03 -0.82621239742E-01 -0.30825582158E-01  0.88187718253E-01  0.51100000000E-03 0.  1.
</event>
<event>
 8    1  0.1112929E+005  0.1043930E+01  0.7957747E-01            NaN
         13   -1    0    0    0    0  0.00000000000E+00  0.00000000000E+00  0.74505805969E-08  0.10566000000E+00  0.10566000000E+00 0.  1.
     999900   -1    0    0    0    0 -0.00000000000E+00 -0.00000000000E+00 -0.74505805969E-08  0.93827000000E+00  0.93827000000E+00 0. -1.
     999902    2    1    2    0    0 -0.24188378416E-01 -0.12026677431E-01 -0.37024607112E-02  0.10166641452E+01  0.10162984588E+01 0.  0.
     999903    2    3    3    0    0  0.24311613604E-01 -0.90503940094E-01 -0.85123377670E-01  0.12810334501E+00  0.19556580717E-01 0.  0.
         14    1    1    2    0    0  0.24188378416E-01  0.12026677431E-01  0.37024607112E-02  0.27265854759E-01  0.00000000000E+00 0.  1.
     999901    1    3    3    0    0 -0.48499992020E-01  0.78477262664E-01  0.81420916958E-01  0.88856080023E+00  0.88000000000E+00 0.  1.
        -11    1    4    4    0    0  0.16736579837E-01 -0.31781836256E-01 -0.25342488212E-01  0.43962495951E-01  0.51100000000E-03 0.  1.
         11    1    4    4    0    0  0.75750337662E-02 -0.58722103838E-01 -0.59780889457E-01  0.84140849063E-01  0.51100000000E-03 0. -1.
</event>
<event>
 8    1  0.1112929E+005  0.1043930E+01  0.7957747E-01            NaN
         13   -1    0    0    0    0  0.00000000000E+00  0.00000000000E+00  0.74505805969E-08  0.10566000000E+00  0.10566000000E+00 0.  1.
     999900   -1    0    0    0    0 -0.00000000000E+00 -0.00000000000E+00 -0.74505805969E-08  0.93827000000E+00  0.93827000000E+00 0.  1.
     999902    2    1    2    0    0  0.16367750321E-01 -0.32559323660E-02 -0.17138696496E-01  0.10200084770E+01  0.10197279313E+01 0.  0.
     999903    2    3    3    0    0  0.80925201415E-02 -0.10324772618E+00 -0.79492440170E-01  0.13211499935E+00  0.20242113655E-01 0.  0.
         14    1    1    2    0    0 -0.16367750321E-01  0.32559323660E-02  0.17138696496E-01  0.23921523023E-01  0.00000000000E+00 0.  1.
     999901    1    3    3    0    0  0.82752301794E-02  0.99991793814E-01  0.62353743674E-01  0.88789347763E+00  0.88000000000E+00 0.  1.
        -11    1    4    4    0    0  0.42332081243E-03 -0.58761418579E-02 -0.12037845992E-01  0.13411901460E-01  0.51100000000E-03 0.  1.
         11    1    4    4    0    0  0.76691993291E-02 -0.97371584322E-01 -0.67454594178E-01  0.11870309789E+00  0.51100000000E-03 0. -1.
</event>
<event>
 8    1  0.1112929E+005  0.1043930E+01  0.7957747E-01            NaN
         13   -1    0    0    0    0  0.00000000000E+00  0.00000000000E+00  0.74505805969E-08  0.10566000000E+00  0.10566000000E+00 0.  1.
     999900   -1    0    0    0    0 -0.00000000000E+00 -0.00000000000E+00 -0.74505805969E-08  0.93827000000E+00  0.93827000000E+00 0. -1.
     999902    2    1    2    0    0 -0.19246963617E-02 -0.41320842627E-02 -0.23362900556E-01  0.10201265612E+01  0.10198488109E+01 0.  0.
     999903    2    3    3    0    0 -0.15910879635E-01  0.96740004799E-01 -0.86068899246E-01  0.13203713217E+00  0.20351025424E-01 0.  0.
         14    1    1    2    0    0  0.19246963617E-02  0.41320842627E-02  0.23362900556E-01  0.23803438802E-01  0.00000000000E+00 0.  1.
     999901    1    3    3    0    0  0.13986183273E-01 -0.10087208906E+00  0.62705998690E-01  0.88808942902E+00  0.88000000000E+00 0.  1.
        -11    1    4    4    0    0 -0.13462330772E-01  0.33470738126E-01 -0.39074074016E-01  0.53184293187E-01  0.51100000000E-03 0. -1.
         11    1    4    4    0    0 -0.24485488625E-02  0.63269266672E-01 -0.46994825230E-01  0.78852838986E-01  0.51100000000E-03 0.  1.
</event>
<event>
 8    1  0.1112929E+005  0.1043930E+01  0.7957747E-01            NaN
         13   -1    0    0    0    0  0.00000000000E+00  0.00000000000E+00  0.74505805969E-08  0.10566000000E+00  0.10566000000E+00 0.  1.
     999900   -1    0    0    0    0 -0.00000000000E+00 -0.00000000000E+00 -0.74505805969E-08  0.93827000000E+00  0.93827000000E+00 0.  1.
     999902    2    1    2    0    0  0.61643199711E-02 -0.20574958298E-01 -0.69462674069E-02  0.10213561572E+01  0.10211066650E+01 0.  0.
     999903    2    3    3    0    0  0.20518441563E-01  0.66605115834E-01  0.10718026344E+00  0.12959875115E+00  0.21236278622E-01 0.  0.
         14    1    1    2    0    0 -0.61643199711E-02  0.20574958298E-01  0.69462674069E-02  0.22573842840E-01  0.00000000000E+00 0.  1.
     999901    1    3    3    0    0 -0.14354121592E-01 -0.87180074132E-01 -0.11412653084E+00  0.89175740601E+00  0.88000000000E+00 0. -1.
        -11    1    4    4    0    0  0.20139805099E-01  0.39470078262E-01  0.78267150796E-01  0.89941685787E-01  0.51100000000E-03 0.  1.
         11    1    4    4    0    0  0.37863646341E-03  0.27135037572E-01  0.28913112641E-01  0.39657065362E-01  0.51100000000E-03 0. -1.
</event>
<event>
 8    1  0.1112929E+005  0.1043930E+01  0.7957747E-01            NaN
         13   -1    0    0    0    0  0.00000000000E+00  0.00000000000E+00  0.74505805969E-08  0.10566000000E+00  0.10566000000E+00 0.  1.
     999900   -1    0    0    0    0 -0.00000000000E+00 -0.00000000000E+00 -0.74505805969E-08  0.93827000000E+00  0.93827000000E+00 0.  1.
     999902    2    1    2    0    0  0.20982863382E-02  0.10621546318E-01 -0.21959465176E-01  0.10194465737E+01  0.10191525296E+01 0.  0.
     999903    2    3    3    0    0  0.56685969088E-01 -0.20996345455E-01  0.11026101899E+00  0.12733572712E+00  0.20068619203E-01 0.  0.
         14    1    1    2    0    0 -0.20982863382E-02 -0.10621546318E-01  0.21959465176E-01  0.24483426283E-01  0.00000000000E+00 0.  1.
     999901    1    3    3    0    0 -0.54587682749E-01  0.31617891773E-01 -0.13222048417E+00  0.89211084660E+00  0.88000000000E+00 0. -1.
        -11    1    4    4    0    0  0.28378557819E-01 -0.18172086731E-01  0.45699777049E-01  0.56782902562E-01  0.51100000000E-03 0. -1.
         11    1    4    4    0    0  0.28307411268E-01 -0.28242587242E-02  0.64561241946E-01  0.70552824555E-01  0.51100000000E-03 0.  1.
</event>
<event>
 8    1  0.1112929E+005  0.1043930E+01  0.7957747E-01            NaN
         13   -1    0    0    0    0  0.00000000000E+00  0.00000000000E+00  0.74505805969E-08  0.10566000000E+00  0.10566000000E+00 0.  1.
     999900   -1    0    0    0    0 -0.00000000000E+00 -0.00000000000E+00 -0.74505805969E-08  0.93827000000E+00  0.93827000000E+00 0. -1.
     999902    2    1    2    0    0  0.14229087405E-01  0.37325473384E-02 -0.19225415822E-01  0.10197222440E+01  0.10194348628E+01 0.  0.
     999903    2    3    3    0    0 -0.61764934263E-01 -0.89407529094E-01  0.64357759367E-01  0.12762566157E+00  0.18378654417E-01 0.  0.
         14    1    1    2    0    0 -0.14229087405E-01 -0.37325473384E-02  0.19225415822E-01  0.24207756020E-01  0.00000000000E+00 0.  1.
     999901    1    3    3    0    0  0.75994021667E-01  0.93140076432E-01 -0.83583175189E-01  0.89209658241E+00  0.88000000000E+00 0. -1.
        -11    1    4    4    0    0 -0.18586543408E-01 -0.42833204542E-01  0.27780972288E-01  0.54334027547E-01  0.51100000000E-03 0. -1.
         11    1    4    4    0    0 -0.43178390855E-01 -0.46574324551E-01  0.36576787079E-01  0.73291634026E-01  0.51100000000E-03 0.  1.
</event>
<event>
 8    1  0.1112929E+005  0.1043930E+01  0.7957747E-01            NaN
         13   -1    0    0    0    0  0.00000000000E+00  0.00000000000E+00  0.74505805969E-08  0.10566000000E+00  0.10566000000E+00 0.  1.
     999900   -1    0    0    0    0 -0.00000000000E+00 -0.00000000000E+00 -0.74505805969E-08  0.93827000000E+00  0.93827000000E+00 0. -1.
     999902    2    1    2    0    0 -0.52791469899E-02 -0.16471479092E-01  0.14102582447E-01  0.10216127007E+01  0.10213689091E+01 0.  0.
     999903    2    3    3    0    0 -0.12378940148E+00 -0.33930592200E-01 -0.25968776522E-01  0.13259345745E+00  0.20773699717E-01 0.  0.
         14    1    1    2    0    0  0.52791469899E-02  0.16471479092E-01 -0.14102582447E-01  0.22317299301E-01  0.00000000000E+00 0.  1.
     999901    1    3    3    0    0  0.11851025449E+00  0.17459113108E-01  0.40071358968E-01  0.88901924324E+00  0.88000000000E+00 0.  1.
        -11    1    4    4    0    0 -0.40015062919E-01 -0.13152324719E-01  0.10868860240E-02  0.42138240924E-01  0.51100000000E-03 0.  1.
         11    1    4    4    0    0 -0.83774338561E-01 -0.20778267481E-01 -0.27055662546E-01  0.90455216531E-01  0.51100000000E-03 0. -1.
</event>
<event>
 8    1  0.1112929E+005  0.1043930E+01  0.7957747E-01            NaN
         13   -1    0    0    0    0  0.00000000000E+00  0.00000000000E+00  0.74505805969E-08  0.10566000000E+00  0.10566000000E+00 0.  1.
     999900   -1    0    0    0    0 -0.00000000000E+00 -0.00000000000E+00 -0.74505805969E-08  0.93827000000E+00  0.93827000000E+00 0. -1.
     999902    2    1    2    0    0 -0.21504333250E-01  0.85193127696E-02 -0.68427150715E-02  0.10198086860E+01  0.10195233780E+01 0.  0.
     999903    2    3    3    0    0  0.10153569238E+00 -0.28927377046E-01  0.68321059952E-01  0.12728938899E+00  0.19711198516E-01 0.  0.
         14    1    1    2    0    0  0.21504333250E-01 -0.85193127696E-02  0.68427150715E-02  0.24121313980E-01  0.00000000000E+00 0.  1.
     999901    1    3    3    0    0 -0.12304002563E+00  0.37446689816E-01 -0.75163775023E-01  0.89251929703E+00  0.88000000000E+00 0. -1.
        -11    1    4    4    0    0  0.66950947641E-01 -0.25637837746E-01  0.37827123326E-01  0.81060967762E-01  0.51100000000E-03 0. -1.
         11    1    4    4    0    0  0.34584744743E-01 -0.32895393005E-02  0.30493936626E-01  0.46228421233E-01  0.51100000000E-03 0.  1.
</event>
<event>
 8    1  0.1112929E+005  0.1043930E+01  0.7957747E-01            NaN
         13   -1    0    0    0    0  0.00000000000E+00  0.00000000000E+00  0.74505805969E-08  0.10566000000E+00  0.10566000000E+00 0.  1.
     999900   -1    0    0    0    0 -0.00000000000E+00 -0.00000000000E+00 -0.74505805969E-08  0.93827000000E+00  0.93827000000E+00 0. -1.
     999902    2    1    2    0    0  0.15308988757E-01 -0.12757113209E-01  0.12978754689E-01  0.10201485546E+01  0.10198713234E+01 0.  0.
     999903    2    3    3    0    0 -0.71396811952E-01  0.73366865348E-01 -0.73220642721E-01  0.12753129521E+00  0.20561299826E-01 0.  0.
         14    1    1    2    0    0 -0.15308988757E-01  0.12757113209E-01 -0.12978754689E-01  0.23781445446E-01  0.00000000000E+00 0. -1.
     999901    1    3    3    0    0  0.86705800710E-01 -0.86123978557E-01  0.86199397410E-01  0.89261725934E+00  0.88000000000E+00 0.  1.
        -11    1    4    4    0    0 -0.17064897505E-01  0.31256529119E-01 -0.27048762743E-01  0.44722231903E-01  0.51100000000E-03 0.  1.
         11    1    4    4    0    0 -0.54331914447E-01  0.42110336229E-01 -0.46171879977E-01  0.82809063311E-01  0.51100000000E-03 0. -1.
</event>
<event>
 8    1  0.1112929E+005  0.1043930E+01  0.7957747E-01            NaN
         13   -1    0    0    0    0  0.00000000000E+00  0.00000000000E+00  0.74505805969E-08  0.10566000000E+00  0.10566000000E+00 0. -1.
     999900   -1    0    0    0    0 -0.00000000000E+00 -0.00000000000E+00 -0.74505805969E-08  0.93827000000E+00  0.93827000000E+00 0. -1.
     999902    2    1    2    0    0  0.42423271001E-02 -0.49264993372E-02 -0.23183974734E-01  0.10198517023E+01  0.10195674231E+01 0.  0.
     999903    2    3    3    0    0 -0.73477028727E-02 -0.95000771198E-01  0.84385156822E-01  0.12866214823E+00  0.18813782964E-01 0.  0.
         14    1    1    2    0    0 -0.42423271001E-02  0.49264993372E-02  0.23183974734E-01  0.24078297686E-01  0.00000000000E+00 0. -1.
     999901    1    3    3    0    0  0.11590029973E-01  0.90074271861E-01 -0.10756913156E+00  0.89118955408E+00  0.88000000000E+00 0. -1.
        -11    1    4    4    0    0 -0.80372548917E-02 -0.62350578969E-01  0.44067835754E-01  0.76775174588E-01  0.51100000000E-03 0. -1.
         11    1    4    4    0    0  0.68955201900E-03 -0.32650192230E-01  0.40317321068E-01  0.51886973642E-01  0.51100000000E-03 0.  1.
</event>
<event>
 8    1  0.1112929E+005  0.1043930E+01  0.7957747E-01            NaN
         13   -1    0    0    0    0  0.00000000000E+00  0.00000000000E+00  0.74505805969E-08  0.10566000000E+00  0.10566000000E+00 0. -1.
     999900   -1    0    0    0    0 -0.00000000000E+00 -0.00000000000E+00 -0.74505805969E-08  0.93827000000E+00  0.93827000000E+00 0. -1.
     999902    2    1    2    0    0  0.12083192815E-01  0.56790648119E-02 -0.19941950849E-01  0.10199313182E+01  0.10196489381E+01 0.  0.
     999903    2    3    3    0    0 -0.49334737564E-01  0.40465995471E-01 -0.11379036609E+00  0.13213076751E+00  0.20949443635E-01 0.  0.
         14    1    1    2    0    0 -0.12083192815E-01 -0.56790648119E-02  0.19941950849E-01  0.23998681826E-01  0.00000000000E+00 0. -1.
     999901    1    3    3    0    0  0.61417930379E-01 -0.34786930659E-01  0.93848415238E-01  0.88780055066E+00  0.88000000000E+00 0.  1.
        -11    1    4    4    0    0 -0.31209038521E-01  0.32634593280E-01 -0.93390505953E-01  0.10373557002E+00  0.51100000000E-03 0.  1.
         11    1    4    4    0    0 -0.18125699043E-01  0.78314021915E-02 -0.20399860133E-01  0.28395197491E-01  0.51100000000E-03 0. -1.
</event>
<event>
 8    1  0.1112929E+005  0.1043930E+01  0.7957747E-01            NaN
         13   -1    0    0    0    0  0.00000000000E+00  0.00000000000E+00  0.74505805969E-08  0.10566000000E+00  0.10566000000E+00 0. -1.
     999900   -1    0    0    0    0 -0.00000000000E+00 -0.00000000000E+00 -0.74505805969E-08  0.93827000000E+00  0.93827000000E+00 0.  1.
     999902    2    1    2    0    0  0.13355744484E-01 -0.97338239345E-02  0.17175318383E-01  0.10200948411E+01  0.10198163413E+01 0.  0.
     999903    2    3    3    0    0  0.54329618004E-01 -0.63415950202E-01  0.10222201673E+00  0.13341926913E+00  0.19444036079E-01 0.  0.
         14    1    1    2    0    0 -0.13355744484E-01  0.97338239345E-02 -0.17175318383E-01  0.23835158918E-01  0.00000000000E+00 0.  1.
     999901    1    3    3    0    0 -0.40973873520E-01  0.53682126267E-01 -0.85046698347E-01  0.88667557195E+00  0.88000000000E+00 0.  1.
        -11    1    4    4    0    0  0.38624709045E-01 -0.56774539473E-01  0.82749481077E-01  0.10753117790E+00  0.51100000000E-03 0.  1.
         11    1    4    4    0    0  0.15704908959E-01 -0.66414107292E-02  0.19472535653E-01  0.25888091232E-01  0.51100000000E-03 0. -1.
</event>
<event>
 8    1  0.1112929E+005  0.1043930E+01  0.7957747E-01            NaN
         13   -1    0    0    0    0  0.00000000000E+00  0.00000000000E+00  0.74505805969E-08  0.10566000000E+00  0.10566000000E+00 0. -1.
     999900   -1    0    0    0    0 -0.00000000000E+00 -0.00000000000E+00 -0.74505805969E-08  0.93827000000E+00  0.93827000000E+00 0. -1.
     999902    2    1    2    0    0  0.15445479568E-01 -0.64849720787E-02 -0.18326751315E-01  0.10191008334E+01  0.10187983221E+01 0.  0.
     999903    2    3    3    0    0 -0.10865780438E+00  0.26203556696E-01 -0.61112245408E-01  0.12876338975E+00  0.18765904352E-01 0.  0.
         14    1    1    2    0    0 -0.15445479568E-01  0.64849720787E-02  0.18326751315E-01  0.24829166633E-01  0.00000000000E+00 0. -1.
     999901    1    3    3    0    0  0.12410328394E+00 -0.32688528774E-01  0.42785494094E-01  0.89033744362E+00  0.88000000000E+00 0. -1.
        -11    1    4    4    0    0 -0.13394028377E-01  0.17524247665E-02 -0.14825301459E-01  0.20062942782E-01  0.51100000000E-03 0.  1.
         11    1    4    4    0    0 -0.95263775999E-01  0.24451131929E-01 -0.46286943950E-01  0.10870044697E+00  0.51100000000E-03 0. -1.
</event>
<event>
 8    1  0.1112929E+005  0.1043930E+01  0.7957747E-01            NaN
         13   -1    0    0    0    0  0.00000000000E+00  0.00000000000E+00  0.74505805969E-08  0.10566000000E+00  0.10566000000E+00 0.  1.
     999900   -1    0    0    0    0 -0.00000000000E+00 -0.00000000000E+00 -0.74505805969E-08  0.93827000000E+00  0.93827000000E+00 0.  1.
     999902    2    1    2    0    0  0.19660333603E-01 -0.14090009775E-01 -0.32297472285E-02  0.10195273698E+01  0.10192352866E+01 0.  0.
     999903    2    3    3    0    0 -0.20554143040E-01 -0.55483939181E-01 -0.11473136446E+00  0.13061608506E+00  0.19908173719E-01 0.  0.
         14    1    1    2    0    0 -0.19660333603E-01  0.14090009775E-01  0.32297472285E-02  0.24402630186E-01  0.00000000000E+00 0. -1.
     999901    1    3    3    0    0  0.40214476643E-01  0.41393929406E-01  0.11150161723E+00  0.88891128476E+00  0.88000000000E+00 0. -1.
        -11    1    4    4    0    0 -0.87671458071E-03 -0.95539255862E-02 -0.36851857993E-01  0.38083679983E-01  0.51100000000E-03 0.  1.
         11    1    4    4    0    0 -0.19677428459E-01 -0.45930013595E-01 -0.77879506470E-01  0.92532405073E-01  0.51100000000E-03 0. -1.
</event>
<event>
 8    1  0.1112929E+005  0.1043930E+01  0.7957747E-01            NaN
         13   -1    0    0    0    0  0.00000000000E+00  0.00000000000E+00  0.74505805969E-08  0.10566000000E+00  0.10566000000E+00 0. -1.
     999900   -1    0    0    0    0 -0.00000000000E+00 -0.00000000000E+00 -0.74505805969E-08  0.93827000000E+00  0.93827000000E+00 0. -1.
     999902    2    1    2    0    0 -0.18918610698E-01  0.12450097525E-01 -0.73747444785E-02  0.10201118217E+01  0.10198337233E+01 0.  0.
     999903    2    3    3    0    0 -0.61761095656E-01  0.11057671225E+00 -0.35851917797E-01  0.13316466411E+00  0.20145111824E-01 0.  0.
         14    1    1    2    0    0  0.18918610698E-01 -0.12450097525E-01  0.73747444785E-02  0.23818178252E-01  0.00000000000E+00 0. -1.
     999901    1    3    3    0    0  0.42842484958E-01 -0.98126614724E-01  0.28477173319E-01  0.88694715763E+00  0.88000000000E+00 0.  1.
        -11    1    4    4    0    0 -0.43163895236E-01  0.62704236077E-01 -0.14260597213E-01  0.77450428196E-01  0.51100000000E-03 0.  1.
         11    1    4    4    0    0 -0.18597200421E-01  0.47872476172E-01 -0.21591320585E-01  0.55714235918E-01  0.51100000000E-03 0. -1.
</event>
<event>
 8    1  0.1112929E+005  0.1043930E+01  0.7957747E-01            NaN
         13   -1    0    0    0    0  0.00000000000E+00  0.00000000000E+00  0.74505805969E-08  0.10566000000E+00  0.10566000000E+00 0.  1.
     999900   -1    0    0    0    0 -0.00000000000E+00 -0.00000000000E+00 -0.74505805969E-08  0.93827000000E+00  0.93827000000E+00 0.  1.
     999902    2    1    2    0    0  0.19996282509E-01  0.77398810872E-02  0.11576852528E-01  0.10195623865E+01  0.10192711511E+01 0.  0.
     999903    2    3    3    0    0  0.29863203695E-01 -0.27876413413E-01  0.12366890911E+00  0.13168260538E+00  0.19426891647E-01 0.  0.
         14    1    1    2    0    0 -0.19996282509E-01 -0.77398810872E-02 -0.11576852528E-01  0.24367613504E-01  0.00000000000E+00 0. -1.
     999901    1    3    3    0    0 -0.98669211859E-02  0.35616294500E-01 -0.11209205658E+00  0.88787978112E+00  0.88000000000E+00 0.  1.
        -11    1    4    4    0    0  0.23265588549E-01 -0.23192835472E-01  0.11585219081E+00  0.12042087221E+00  0.51100000000E-03 0.  1.
         11    1    4    4    0    0  0.65976151456E-02 -0.46835779411E-02  0.78167183012E-02  0.11261733168E-01  0.51100000000E-03 0. -1.
</event>
<event>
 8    1  0.1112929E+005  0.1043930E+01  0.7957747E-01            NaN
         13   -1    0    0    0    0  0.00000000000E+00  0.00000000000E+00  0.74505805969E-08  0.10566000000E+00  0.10566000000E+00 0.  1.
     999900   -1    0    0    0    0 -0.00000000000E+00 -0.00000000000E+00 -0.74505805969E-08  0.93827000000E+00  0.93827000000E+00 0.  1.
     999902    2    1    2    0    0  0.10128155264E-01  0.40981893710E-02 -0.21033311754E-01  0.10202282092E+01  0.10199528538E+01 0.  0.
     999903    2    3    3    0    0  0.66015039626E-01  0.42789009295E-01  0.10058206131E+00  0.12926770367E+00  0.20112269467E-01 0.  0.
         14    1    1    2    0    0 -0.10128155264E-01 -0.40981893710E-02  0.21033311754E-01  0.23701790829E-01  0.00000000000E+00 0.  1.
     999901    1    3    3    0    0 -0.55886884362E-01 -0.38690819924E-01 -0.12161537306E+00  0.89096050550E+00  0.88000000000E+00 0.  1.
        -11    1    4    4    0    0  0.34253480979E-01  0.26650206816E-01  0.40213308092E-01  0.59168452330E-01  0.51100000000E-03 0. -1.
         11    1    4    4    0    0  0.31761558647E-01  0.16138802479E-01  0.60368753216E-01  0.70099251344E-01  0.51100000000E-03 0.  1.
</event>
<event>
 7    1  0.1112929E+005  0.1043930E+01  0.7957747E-01            NaN
         13   -1    0    0    0    0  0.00000000000E+00  0.00000000000E+00  0.74505805969E-08  0.10566000000E+00  0.10566000000E+00 0.  1.
     999900   -1    0    0    0    0 -0.00000000000E+00 -0.00000000000E+00 -0.74505805969E-08  0.93827000000E+00  0.93827000000E+00 0. -1.
     999903    2    1    2    0    0 -0.34371462011E-01 -0.95095400539E-01 -0.63711286723E-01  0.12065005610E+00  0.16515912818E-01 0.  0.
         14    1    1    2    0    0 -0.75910123464E-02  0.18681431927E-01  0.32713697148E-01  0.38429225186E-01  0.00000000000E+00 0.  1.
     999901    1    1    2    0    0  0.41962474357E-01  0.76413968612E-01  0.30997589574E-01  0.88485071872E+00  0.88000000000E+00 0. -1.
        -11    1    3    3    0    0 -0.81965626600E-02 -0.25155925361E-01 -0.25557539927E-01  0.36789308071E-01  0.51100000000E-03 0. -1.
         11    1    3    3    0    0 -0.26174899351E-01 -0.69939475177E-01 -0.38153746796E-01  0.83860748027E-01  0.51100000000E-03 0.  1.
</event>
<event>
 8    1  0.1112929E+005  0.1043930E+01  0.7957747E-01            NaN
         13   -1    0    0    0    0  0.00000000000E+00  0.00000000000E+00  0.74505805969E-08  0.10566000000E+00  0.10566000000E+00 0.  1.
     999900   -1    0    0    0    0 -0.00000000000E+00 -0.00000000000E+00 -0.74505805969E-08  0.93827000000E+00  0.93827000000E+00 0. -1.
     999902    2    1    2    0    0 -0.16040320767E-01  0.69566575021E-02  0.12143411553E-01  0.10226426935E+01  0.10224211115E+01 0.  0.
     999903    2    3    3    0    0  0.70714944523E-01  0.81882810276E-01 -0.71217058385E-01  0.13130136024E+00  0.21512317373E-01 0.  0.
         14    1    1    2    0    0  0.16040320767E-01 -0.69566575021E-02 -0.12143411553E-01  0.21287306501E-01  0.00000000000E+00 0. -1.
     999901    1    3    3    0    0 -0.86755265290E-01 -0.74926152774E-01  0.83360469938E-01  0.89134133326E+00  0.88000000000E+00 0.  1.
        -11    1    4    4    0    0  0.26034830403E-01  0.23607912242E-01 -0.34296031405E-01  0.49108296709E-01  0.51100000000E-03 0.  1.
         11    1    4    4    0    0  0.44680114120E-01  0.58274898034E-01 -0.36921026980E-01  0.82193063532E-01  0.51100000000E-03 0. -1.
</event>
<event>
 8    1  0.1112929E+005  0.1043930E+01  0.7957747E-01            NaN
         13   -1    0    0    0    0  0.00000000000E+00  0.00000000000E+00  0.74505805969E-08  0.10566000000E+00  0.10566000000E+00 0. -1.
     999900   -1    0    0    0    0 -0.00000000000E+00 -0.00000000000E+00 -0.74505805969E-08  0.93827000000E+00  0.93827000000E+00 0.  1.
     999902    2    1    2    0    0  0.13202771000E-01 -0.15882581602E-01  0.96215415434E-02  0.10211452766E+01  0.10208910482E+01 0.  0.
     999903    2    3    3    0    0  0.49306855266E-01 -0.92031609996E-01  0.81816939166E-01  0.13417608044E+00  0.20204598836E-01 0.  0.
         14    1    1    2    0    0 -0.13202771000E-01  0.15882581602E-01 -0.96215415434E-02  0.22784723437E-01  0.00000000000E+00 0. -1.
     999901    1    3    3    0    0 -0.36104084266E-01  0.76149028394E-01 -0.72195397623E-01  0.88696919612E+00  0.88000000000E+00 0.  1.
        -11    1    4    4    0    0  0.12041922956E-01 -0.42780211187E-01  0.30904366571E-01  0.54134050023E-01  0.51100000000E-03 0.  1.
         11    1    4    4    0    0  0.37264932310E-01 -0.49251398809E-01  0.50912572596E-01  0.80042030422E-01  0.51100000000E-03 0. -1.
</event>
<event>
 8    1  0.1112929E+005  0.1043930E+01  0.7957747E-01            NaN
         13   -1    0    0    0    0  0.00000000000E+00  0.00000000000E+00  0.74505805969E-08  0.10566000000E+00  0.10566000000E+00 0. -1.
     999900   -1    0    0    0    0 -0.00000000000E+00 -0.00000000000E+00 -0.74505805969E-08  0.93827000000E+00  0.93827000000E+00 0. -1.
     999902    2    1    2    0    0 -0.13913828311E-02  0.13972271459E-01  0.17597528795E-01  0.10214170407E+01  0.10211689075E+01 0.  0.
     999903    2    3    3    0    0  0.93188344858E-01 -0.39076988318E-01  0.82774103727E-01  0.13236837233E+00  0.21418569302E-01 0.  0.
         14    1    1    2    0    0  0.13913828311E-02 -0.13972271459E-01 -0.17597528795E-01  0.22512959281E-01  0.00000000000E+00 0.  1.
     999901    1    3    3    0    0 -0.94579727689E-01  0.53049259777E-01 -0.65176574932E-01  0.88904866839E+00  0.88000000000E+00 0. -1.
        -11    1    4    4    0    0  0.58898350823E-01 -0.30715380290E-01  0.42715793995E-01  0.78976898480E-01  0.51100000000E-03 0.  1.
         11    1    4    4    0    0  0.34289994036E-01 -0.83616080281E-02  0.40058309732E-01  0.53391473845E-01  0.51100000000E-03 0. -1.
</event>
<event>
 8    1  0.1112929E+005  0.1043930E+01  0.7957747E-01            NaN
         13   -1    0    0    0    0  0.00000000000E+00  0.00000000000E+00  0.74505805969E-08  0.10566000000E+00  0.10566000000E+00 0.  1.
     999900   -1    0    0    0    0 -0.00000000000E+00 -0.00000000000E+00 -0.74505805969E-08  0.93827000000E+00  0.93827000000E+00 0.  1.
     999902    2    1    2    0    0 -0.23408733290E-01 -0.25971660582E-03  0.50667715009E-02  0.10199777888E+01  0.10196965143E+01 0.  0.
     999903    2    3    3    0    0 -0.81133448492E-02  0.11711731574E+00 -0.52893634366E-01  0.13016279385E+00  0.19034819030E-01 0.  0.
         14    1    1    2    0    0  0.23408733290E-01  0.25971660582E-03 -0.50667715009E-02  0.23952211180E-01  0.00000000000E+00 0. -1.
     999901    1    3    3    0    0 -0.15295388441E-01 -0.11737703234E+00  0.57960405867E-01  0.88981499497E+00  0.88000000000E+00 0. -1.
        -11    1    4    4    0    0 -0.63956218565E-03  0.73170796790E-01 -0.41601936871E-01  0.84174561568E-01  0.51100000000E-03 0. -1.
         11    1    4    4    0    0 -0.74737826635E-02  0.43946518948E-01 -0.11291697496E-01  0.45988232280E-01  0.51100000000E-03 0.  1.
</event>
<event>
 8    1  0.1112929E+005  0.1043930E+01  0.7957747E-01            NaN
         13   -1    0    0    0    0  0.00000000000E+00  0.00000000000E+00  0.74505805969E-08  0.10566000000E+00  0.10566000000E+00 0.  1.
     999900   -1    0    0    0    0 -0.00000000000E+00 -0.00000000000E+00 -0.74505805969E-08  0.93827000000E+00  0.93827000000E+00 0. -1.
     999902    2    1    2    0    0  0.19352731978E-01  0.13809106493E-01 -0.22807418524E-03  0.10201545573E+01  0.10198774677E+01 0.  0.
     999903    2    3    3    0    0  0.95918695755E-01 -0.86805108972E-01  0.89555718524E-02  0.13107081181E+00  0.19074388641E-01 0.  0.
         14    1    1    2    0    0 -0.19352731978E-01 -0.13809106493E-01  0.22807418524E-03  0.23775442688E-01  0.00000000000E+00 0.  1.
     999901    1    3    3    0    0 -0.76565963777E-01  0.10061421547E+00 -0.91836460376E-02  0.88908374550E+00  0.88000000000E+00 0.  1.
        -11    1    4    4    0    0  0.33497618841E-01 -0.36695539041E-01  0.11426424098E-01  0.50985069797E-01  0.51100000000E-03 0. -1.
         11    1    4    4    0    0  0.62421076914E-01 -0.50109569931E-01 -0.24708522458E-02  0.80085742012E-01  0.51100000000E-03 0.  1.
</event>
<event>
 8    1  0.1112929E+005  0.1043930E+01  0.7957747E-01            NaN
         13   -1    0    0    0    0  0.00000000000E+00  0.00000000000E+00  0.74505805969E-08  0.10566000000E+00  0.10566000000E+00 0.  1.
     999900   -1    0    0    0    0 -0.00000000000E+00 -0.00000000000E+00 -0.74505805969E-08  0.93827000000E+00  0.93827000000E+00 0.  1.
     999902    2    1    2    0    0 -0.20411496167E-01 -0.24569180084E-02 -0.12335249612E-01  0.10199545124E+01  0.10196726844E+01 0.  0.
     999903    2    3    3    0    0  0.41152172918E-01 -0.10890306530E+00  0.52032170560E-01  0.12907627584E+00  0.19998981084E-01 0.  0.
         14    1    1    2    0    0  0.20411496167E-01  0.24569180084E-02  0.12335249612E-01  0.23975487583E-01  0.00000000000E+00 0.  1.
     999901    1    3    3    0    0 -0.61563669085E-01  0.10644614729E+00 -0.64367420172E-01  0.89087823658E+00  0.88000000000E+00 0.  1.
        -11    1    4    4    0    0  0.12034786714E-01 -0.56487534976E-01  0.20197267263E-01  0.61187158986E-01  0.51100000000E-03 0. -1.
         11    1    4    4    0    0  0.29117386204E-01 -0.52415530323E-01  0.31834903297E-01  0.67889116855E-01  0.51100000000E-03 0.  1.
</event>
<event>
 8    1  0.1112929E+005  0.1043930E+01  0.7957747E-01            NaN
         13   -1    0    0    0    0  0.00000000000E+00  0.00000000000E+00  0.74505805969E-08  0.10566000000E+00  0.10566000000E+00 0.  1.
     999900   -1    0    0    0    0 -0.00000000000E+00 -0.00000000000E+00 -0.74505805969E-08  0.93827000000E+00  0.93827000000E+00 0. -1.
     999902    2    1    2    0    0  0.99971040824E-02  0.10872937287E-01 -0.18385017978E-01  0.10203467063E+01  0.10200741293E+01 0.  0.
     999903    2    3    3    0    0 -0.75910755070E-01 -0.69244032032E-01  0.73328676775E-01  0.12781643184E+00  0.20069048393E-01 0.  0.
         14    1    1    2    0    0 -0.99971040824E-02 -0.10872937287E-01  0.18385017978E-01  0.23583293691E-01  0.00000000000E+00 0. -1.
     999901    1    3    3    0    0  0.85907859153E-01  0.80116969319E-01 -0.91713694754E-01  0.89253027447E+00  0.88000000000E+00 0. -1.
        -11    1    4    4    0    0 -0.25180716157E-01 -0.12128697565E-01  0.15178640995E-01  0.31809213040E-01  0.51100000000E-03 0.  1.
         11    1    4    4    0    0 -0.50730038914E-01 -0.57115334467E-01  0.58150035781E-01  0.96007218800E-01  0.51100000000E-03 0. -1.
</event>
<event>
 8    1  0.1112929E+005  0.1043930E+01  0.7957747E-01            NaN
         13   -1    0    0    0    0  0.00000000000E+00  0.00000000000E+00  0.74505805969E-08  0.10566000000E+00  0.10566000000E+00 0. -1.
     999900   -1    0    0    0    0 -0.00000000000E+00 -0.00000000000E+00 -0.74505805969E-08  0.93827000000E+00  0.93827000000E+00 0.  1.
     999902    2    1    2    0    0  0.23269148024E-01 -0.41446953312E-02  0.20124296127E-02  0.10202090889E+01  0.10199332839E+01 0.  0.
     999903    2    3    3    0    0  0.12195926778E+00  0.33140914846E-01  0.37755271450E-01  0.13318738276E+00  0.18467137626E-01 0.  0.
         14    1    1    2    0    0 -0.23269148024E-01  0.41446953312E-02 -0.20124296127E-02  0.23720911073E-01  0.00000000000E+00 0. -1.
     999901    1    3    3    0    0 -0.98690119751E-01 -0.37285610177E-01 -0.35742841838E-01  0.88702170616E+00  0.88000000000E+00 0.  1.
        -11    1    4    4    0    0  0.87431948319E-01  0.18953374666E-01  0.33841009846E-01  0.95650672065E-01  0.51100000000E-03 0. -1.
         11    1    4    4    0    0  0.34527319457E-01  0.14187540179E-01  0.39142616040E-02  0.37536710699E-01  0.51100000000E-03 0.  1.
</event>
<event>
 8    1  0.1112929E+005  0.1043930E+01  0.7957747E-01            NaN
         13   -1    0    0    0    0  0.00000000000E+00  0.00000000000E+00  0.74505805969E-08  0.10566000000E+00  0.10566000000E+00 0. -1.
     999900   -1    0    0    0    0 -0.00000000000E+00 -0.00000000000E+00 -0.74505805969E-08  0.93827000000E+00  0.93827000000E+00 0.  1.
     999902    2    1    2    0    0 -0.15671609950E-01  0.17635466969E-01  0.14839596175E-02  0.10202908124E+01  0.10200169267E+01 0.  0.
     999903    2    3    3    0    0 -0.89381849917E-01 -0.81259243686E-01  0.45132590458E-01  0.13061752055E+00  0.20779946468E-01 0.  0.
         14    1    1    2    0    0  0.15671609950E-01 -0.17635466969E-01 -0.14839596175E-02  0.23639187587E-01  0.00000000000E+00 0.  1.
     999901    1    3    3    0    0  0.73710239967E-01  0.98894710655E-01 -0.43648630841E-01  0.88967329186E+00  0.88000000000E+00 0.  1.
        -11    1    4    4    0    0 -0.83592473123E-01 -0.68962749106E-01  0.44030114805E-01  0.11697210974E+00  0.51100000000E-03 0.  1.
         11    1    4    4    0    0 -0.57893767940E-02 -0.12296494580E-01  0.11024756528E-02  0.13645410811E-01  0.51100000000E-03 0. -1.
</event>
<event>
 8    1  0.1112929E+005  0.1043930E+01  0.7957747E-01            NaN
         13   -1    0    0    0    0  0.00000000000E+00  0.00000000000E+00  0.74505805969E-08  0.10566000000E+00  0.10566000000E+00 0. -1.
     999900   -1    0    0    0    0 -0.00000000000E+00 -0.00000000000E+00 -0.74505805969E-08  0.93827000000E+00  0.93827000000E+00 0. -1.
     999902    2    1    2    0    0 -0.18703012336E-02  0.27927917818E-02 -0.23939466786E-01  0.10197557206E+01  0.10194691432E+01 0.  0.
     999903    2    3    3    0    0 -0.23775440080E-01  0.64951308333E-02  0.12260300861E+00  0.12736105486E+00  0.24122236580E-01 0.  0.
         14    1    1    2    0    0  0.18703012336E-02 -0.27927917818E-02  0.23939466786E-01  0.24174279361E-01  0.00000000000E+00 0. -1.
     999901    1    3    3    0    0  0.21905138846E-01 -0.37023390515E-02 -0.14654247540E+00  0.89239466578E+00  0.88000000000E+00 0. -1.
        -11    1    4    4    0    0 -0.11754577316E-01  0.14130915678E-01  0.47840623688E-01  0.51252700043E-01  0.51100000000E-03 0.  1.
         11    1    4    4    0    0 -0.12020862763E-01 -0.76357848450E-02  0.74762384925E-01  0.76108354813E-01  0.51100000000E-03 0. -1.
</event>
<event>
 8    1  0.1112929E+005  0.1043930E+01  0.7957747E-01            NaN
         13   -1    0    0    0    0  0.00000000000E+00  0.00000000000E+00  0.74505805969E-08  0.10566000000E+00  0.10566000000E+00 0. -1.
     999900   -1    0    0    0    0 -0.00000000000E+00 -0.00000000000E+00 -0.74505805969E-08  0.93827000000E+00  0.93827000000E+00 0.  1.
     999902    2    1    2    0    0 -0.14599084211E-01 -0.16637059872E-03 -0.18882359989E-01  0.10200615175E+01  0.10197822292E+01 0.  0.
     999903    2    3    3    0    0 -0.79258466677E-02  0.12758309666E+00  0.15174013591E-01  0.13016023359E+00  0.19265775891E-01 0.  0.
         14    1    1    2    0    0  0.14599084211E-01  0.16637059872E-03  0.18882359989E-01  0.23868482518E-01  0.00000000000E+00 0. -1.
     999901    1    3    3    0    0 -0.66732375432E-02 -0.12774946726E+00 -0.34056373580E-01  0.88990128389E+00  0.88000000000E+00 0.  1.
        -11    1    4    4    0    0 -0.77245141377E-02  0.79592205825E-01  0.18401901427E-01  0.82057775036E-01  0.51100000000E-03 0. -1.
         11    1    4    4    0    0 -0.20133252998E-03  0.47990890839E-01 -0.32278878358E-02  0.48102458557E-01  0.51100000000E-03 0.  1.
</event>
<event>
 8    1  0.1112929E+005  0.1043930E+01  0.7957747E-01            NaN
         13   -1    0    0    0    0  0.00000000000E+00  0.00000000000E+00  0.74505805969E-08  0.10566000000E+00  0.10566000000E+00 0.  1.
     999900   -1    0    0    0    0 -0.00000000000E+00 -0.00000000000E+00 -0.74505805969E-08  0.93827000000E+00  0.93827000000E+00 0.  1.
     999902    2    1    2    0    0  0.13375554394E-01 -0.93033911509E-02 -0.17974165207E-01  0.10196703801E+01  0.10193817513E+01 0.  0.
     999903    2    3    3    0    0  0.12843365794E+00 -0.20538208094E-01  0.48489824551E-02  0.13181595265E+00  0.20854502118E-01 0.  0.
         14    1    1    2    0    0 -0.13375554394E-01  0.93033911509E-02  0.17974165207E-01  0.24259619889E-01  0.00000000000E+00 0. -1.
     999901    1    3    3    0    0 -0.11505810354E+00  0.11234816943E-01 -0.22823147662E-01  0.88785442747E+00  0.88000000000E+00 0. -1.
        -11    1    4    4    0    0  0.58938102999E-01 -0.11711253464E-02 -0.42192589088E-02  0.59102747706E-01  0.51100000000E-03 0.  1.
         11    1    4    4    0    0  0.69495554936E-01 -0.19367082748E-01  0.90682413638E-02  0.72713204939E-01  0.51100000000E-03 0. -1.
</event>
<event>
 8    1  0.1112929E+005  0.1043930E+01  0.7957747E-01            NaN
         13   -1    0    0    0    0  0.00000000000E+00  0.00000000000E+00  0.74505805969E-08  0.10566000000E+00  0.10566000000E+00 0.  1.
     999900   -1    0    0    0    0 -0.00000000000E+00 -0.00000000000E+00 -0.74505805969E-08  0.93827000000E+00  0.93827000000E+00 0.  1.
     999902    2    1    2    0    0 -0.19542329392E-01  0.12371587509E-01  0.31920079388E-02  0.10205816011E+01  0.10203144892E+01 0.  0.
     999903    2    3    3    0    0  0.43813167295E-01  0.43610399831E-01  0.11338915413E+00  0.13090008879E+00  0.21360532948E-01 0.  0.
         14    1    1    2    0    0  0.19542329392E-01 -0.12371587509E-01 -0.31920079388E-02  0.23348398880E-01  0.00000000000E+00 0.  1.
     999901    1    3    3    0    0 -0.63355496687E-01 -0.31238812322E-01 -0.11019714619E+00  0.88968151233E+00  0.88000000000E+00 0.  1.
        -11    1    4    4    0    0  0.25874670330E-01  0.38671050496E-01  0.86066097842E-01  0.97839578034E-01  0.51100000000E-03 0. -1.
         11    1    4    4    0    0  0.17938496964E-01  0.49393493345E-02  0.27323056292E-01  0.33060510754E-01  0.51100000000E-03 0.  1.
</event>
<event>
 8    1  0.1112929E+005  0.1043930E+01  0.7957747E-01            NaN
         13   -1    0    0    0    0  0.00000000000E+00  0.00000000000E+00  0.74505805969E-08  0.10566000000E+00  0.10566000000E+00 0. -1.
     999900   -1    0    0    0    0 -0.00000000000E+00 -0.00000000000E+00 -0.74505805969E-08  0.93827000000E+00  0.93827000000E+00 0. -1.
     999902    2    1    2    0    0 -0.53514144885E-02  0.15450995339E-01  0.18752267000E-01  0.10190499194E+01  0.10187461508E+01 0.  0.
     999903    2    3    3    0    0 -0.55663567230E-01 -0.66324734283E-01 -0.90878423677E-01  0.12706479002E+00  0.19727389019E-01 0.  0.
         14    1    1    2    0    0  0.53514144885E-02 -0.15450995339E-01 -0.18752267000E-01  0.24880080620E-01  0.00000000000E+00 0.  1.
     999901    1    3    3    0    0  0.50312152741E-01  0.81775729622E-01  0.10963069068E+00  0.89198512936E+00  0.88000000000E+00 0.  1.
        -11    1    4    4    0    0 -0.34246850455E-01 -0.30299977909E-01 -0.37125173227E-01  0.58902249834E-01  0.51100000000E-03 0. -1.
         11    1    4    4    0    0 -0.21416716775E-01 -0.36024756374E-01 -0.53753250449E-01  0.68162540182E-01  0.51100000000E-03 0.  1.
</event>
<event>
 8    1  0.1112929E+005  0.1043930E+01  0.7957747E-01            NaN
         13   -1    0    0    0    0  0.00000000000E+00  0.00000000000E+00  0.74505805969E-08  0.10566000000E+00  0.10566000000E+00 0.  1.
     999900   -1    0    0    0    0 -0.00000000000E+00 -0.00000000000E+00 -0.74505805969E-08  0.93827000000E+00  0.93827000000E+00 0. -1.
     999902    2    1    2    0    0  0.21083773719E-01 -0.13760326731E-02 -0.11182055820E-01  0.10200248258E+01  0.10197446680E+01 0.  0.
     999903    2    3    3    0    0  0.71029635107E-01 -0.45372241464E-01 -0.10059607524E+00  0.13299319035E+00  0.21535295848E-01 0.  0.
         14    1    1    2    0    0 -0.21083773719E-01  0.13760326731E-02  0.11182055820E-01  0.23905174178E-01  0.00000000000E+00 0.  1.
     999901    1    3    3    0    0 -0.49945861388E-01  0.43996208791E-01  0.89414019419E-01  0.88703163547E+00  0.88000000000E+00 0.  1.
        -11    1    4    4    0    0  0.48208666133E-01 -0.18351570800E-01 -0.61498328113E-01  0.80269303739E-01  0.51100000000E-03 0. -1.
         11    1    4    4    0    0  0.22820968974E-01 -0.27020670664E-01 -0.39097747126E-01  0.52723886611E-01  0.51100000000E-03 0.  1.
</event>
<event>
 8    1  0.1112929E+005  0.1043930E+01  0.7957747E-01            NaN
         13   -1    0    0    0    0  0.00000000000E+00  0.00000000000E+00  0.74505805969E-08  0.10566000000E+00  0.10566000000E+00 0.  1.
     999900   -1    0    0    0    0 -0.00000000000E+00 -0.00000000000E+00 -0.74505805969E-08  0.93827000000E+00  0.93827000000E+00 0. -1.
     999902    2    1    2    0    0  0.12229977997E-01  0.19577886992E-01  0.58048393112E-02  0.10201274333E+01  0.10198497037E+01 0.  0.
     999903    2    3    3    0    0 -0.29555004989E-01  0.52302639387E-01  0.11551379226E+00  0.13172834025E+00  0.19996375037E-01 0.  0.
         14    1    1    2    0    0 -0.12229977997E-01 -0.19577886992E-01 -0.58048393112E-02  0.23802566675E-01  0.00000000000E+00 0. -1.
     999901    1    3    3    0    0  0.41784982986E-01 -0.32724752395E-01 -0.10970895295E+00  0.88839909308E+00  0.88000000000E+00 0.  1.
        -11    1    4    4    0    0 -0.17831557199E-01  0.35371497784E-01  0.93672104904E-01  0.10170462942E+00  0.51100000000E-03 0. -1.
         11    1    4    4    0    0 -0.11723447790E-01  0.16931141603E-01  0.21841687359E-01  0.30023710826E-01  0.51100000000E-03 0.  1.
</event>
<event>
 8    1  0.1112929E+005  0.1043930E+01  0.7957747E-01            NaN
         13   -1    0    0    0    0  0.00000000000E+00  0.00000000000E+00  0.74505805969E-08  0.10566000000E+00  0.10566000000E+00 0.  1.
     999900   -1    0    0    0    0 -0.00000000000E+00 -0.00000000000E+00 -0.74505805969E-08  0.93827000000E+00  0.93827000000E+00 0.  1.
     999902    2    1    2    0    0 -0.17641380984E-01  0.99667001144E-02 -0.11931178969E-01  0.10204160368E+01  0.10201450787E+01 0.  0.
     999903    2    3    3    0    0  0.55913803879E-01  0.35689050360E-01  0.10868514846E+00  0.12877692652E+00  0.19260673112E-01 0.  0.
         14    1    1    2    0    0  0.17641380984E-01 -0.99667001144E-02  0.11931178969E-01  0.23513963208E-01  0.00000000000E+00 0.  1.
     999901    1    3    3    0    0 -0.73555184863E-01 -0.25722350245E-01 -0.12061632743E+00  0.89163911027E+00  0.88000000000E+00 0.  1.
        -11    1    4    4    0    0  0.29535958143E-01  0.79866226809E-02  0.53399514483E-01  0.61546147185E-01  0.51100000000E-03 0. -1.
         11    1    4    4    0    0  0.26377845737E-01  0.27702427679E-01  0.55285633976E-01  0.67230779336E-01  0.51100000000E-03 0.  1.
</event>
<event>
 8    1  0.1112929E+005  0.1043930E+01  0.7957747E-01            NaN
         13   -1    0    0    0    0  0.00000000000E+00  0.00000000000E+00  0.74505805969E-08  0.10566000000E+00  0.10566000000E+00 0.  1.
     999900   -1    0    0    0    0 -0.00000000000E+00 -0.00000000000E+00 -0.74505805969E-08  0.93827000000E+00  0.93827000000E+00 0.  1.
     999902    2    1    2    0    0 -0.19178107648E-01 -0.11254074494E-01  0.71863888158E-02  0.10205612561E+01  0.10202936731E+01 0.  0.
     999903    2    3    3    0    0  0.89312012280E-01  0.58147407619E-01  0.69841278066E-01  0.12898270828E+00  0.20024444156E-01 0.  0.
         14    1    1    2    0    0  0.19178107648E-01  0.11254074494E-01 -0.71863888158E-02  0.23368743866E-01  0.00000000000E+00 0. -1.
     999901    1    3    3    0    0 -0.10849011993E+00 -0.69401482112E-01 -0.62654889251E-01  0.89157854785E+00  0.88000000000E+00 0.  1.
        -11    1    4    4    0    0  0.45999717404E-01  0.23178571658E-01  0.43380452928E-01  0.67344970136E-01  0.51100000000E-03 0.  1.
         11    1    4    4    0    0  0.43312294876E-01  0.34968835961E-01  0.26460825138E-01  0.61637738147E-01  0.51100000000E-03 0. -1.
</event>
<event>
 8    1  0.1112929E+005  0.1043930E+01  0.7957747E-01            NaN
         13   -1    0    0    0    0  0.00000000000E+00  0.00000000000E+00  0.74505805969E-08  0.10566000000E+00  0.10566000000E+00 0. -1.
     999900   -1    0    0    0    0 -0.00000000000E+00 -0.00000000000E+00 -0.74505805969E-08  0.93827000000E+00  0.93827000000E+00 0.  1.
     999902    2    1    2    0    0  0.36223483666E-02  0.18800877747E-01 -0.14749534786E-01  0.10197609457E+01  0.10194744936E+01 0.  0.
     999903    2    3    3    0    0 -0.36902546617E-01  0.73449348195E-01  0.98529812365E-01  0.12989526313E+00  0.20200266381E-01 0.  0.
         14    1    1    2    0    0 -0.36223483666E-02 -0.18800877747E-01  0.14749534786E-01  0.24169054350E-01  0.00000000000E+00 0. -1.
     999901    1    3    3    0    0  0.40524894983E-01 -0.54648470448E-01 -0.11327934715E+00  0.88986568252E+00  0.88000000000E+00 0.  1.
        -11    1    4    4    0    0 -0.31010078613E-01  0.40834382058E-01  0.55214979665E-01  0.75352682992E-01  0.51100000000E-03 0. -1.
         11    1    4    4    0    0 -0.58924680032E-02  0.32614966137E-01  0.43314832700E-01  0.54542580138E-01  0.51100000000E-03 0.  1.
</event>
<event>
 8    1  0.1112929E+005  0.1043930E+01  0.7957747E-01            NaN
         13   -1    0    0    0    0  0.00000000000E+00  0.00000000000E+00  0.74505805969E-08  0.10566000000E+00  0.10566000000E+00 0. -1.
     999900   -1    0    0    0    0 -0.00000000000E+00 -0.00000000000E+00 -0.74505805969E-08  0.93827000000E+00  0.93827000000E+00 0. -1.
     999902    2    1    2    0    0 -0.17359943925E-01 -0.15031078934E-01 -0.20833832150E-02  0.10208726482E+01  0.10206122292E+01 0.  0.
     999903    2    3    3    0    0  0.43940974991E-02  0.90517144015E-01  0.90444439539E-01  0.12948324749E+00  0.19314587346E-01 0.  0.
         14    1    1    2    0    0  0.17359943925E-01  0.15031078934E-01  0.20833832150E-02  0.23057351813E-01  0.00000000000E+00 0. -1.
     999901    1    3    3    0    0 -0.21754041424E-01 -0.10554822295E+00 -0.92527822754E-01  0.89138940069E+00  0.88000000000E+00 0. -1.
        -11    1    4    4    0    0 -0.13697339094E-02  0.10503460297E-01  0.34636307637E-02  0.11156016685E-01  0.51100000000E-03 0. -1.
         11    1    4    4    0    0  0.57638314085E-02  0.80013683718E-01  0.86980808776E-01  0.11832723081E+00  0.51100000000E-03 0.  1.
</event>
<event>
 8    1  0.1112929E+005  0.1043930E+01  0.7957747E-01            NaN
         13   -1    0    0    0    0  0.00000000000E+00  0.00000000000E+00  0.74505805969E-08  0.10566000000E+00  0.10566000000E+00 0.  1.
     999900   -1    0    0    0    0 -0.00000000000E+00 -0.00000000000E+00 -0.74505805969E-08  0.93827000000E+00  0.93827000000E+00 0. -1.
     999902    2    1    2    0    0  0.78147036857E-02  0.30067080300E-02  0.22102199158E-01  0.10202949181E+01  0.10200211286E+01 0.  0.
     999903    2    3    3    0    0 -0.34604721423E-02  0.12840324766E+00  0.19244711776E-01  0.13132945932E+00  0.19434481652E-01 0.  0.
         14    1    1    2    0    0 -0.78147036857E-02 -0.30067080300E-02 -0.22102199158E-01  0.23635081859E-01  0.00000000000E+00 0. -1.
     999901    1    3    3    0    0  0.11275175828E-01 -0.12539653963E+00  0.28574873819E-02  0.88896545882E+00  0.88000000000E+00 0.  1.
        -11    1    4    4    0    0  0.37626629815E-02  0.10961828989E+00  0.14427374754E-01  0.11062882705E+00  0.51100000000E-03 0. -1.
         11    1    4    4    0    0 -0.72231351238E-02  0.18784957770E-01  0.48173370217E-02  0.20700632271E-01  0.51100000000E-03 0.  1.
</event>
<event>
 8    1  0.1112929E+005  0.1043930E+01  0.7957747E-01            NaN
         13   -1    0    0    0    0  0.00000000000E+00  0.00000000000E+00  0.74505805969E-08  0.10566000000E+00  0.10566000000E+00 0. -1.
     999900   -1    0    0    0    0 -0.00000000000E+00 -0.00000000000E+00 -0.74505805969E-08  0.93827000000E+00  0.93827000000E+00 0. -1.
     999902    2    1    2    0    0 -0.98277349195E-02 -0.35132607559E-02  0.21790039387E-01  0.10197694290E+01  0.10194831804E+01 0.  0.
     999903    2    3    3    0    0 -0.84166393091E-01 -0.94134477294E-01 -0.26873518461E-01  0.13066505782E+00  0.20146706887E-01 0.  0.
         14    1    1    2    0    0  0.98277349195E-02  0.35132607559E-02 -0.21790039387E-01  0.24160571005E-01  0.00000000000E+00 0.  1.
     999901    1    3    3    0    0  0.74338658172E-01  0.90621216538E-01  0.48663557848E-01  0.88910437118E+00  0.88000000000E+00 0.  1.
        -11    1    4    4    0    0 -0.49281908018E-01 -0.41731921822E-01 -0.88600592158E-02  0.65184519076E-01  0.51100000000E-03 0.  1.
         11    1    4    4    0    0 -0.34884485073E-01 -0.52402555472E-01 -0.18013459245E-01  0.65480538741E-01  0.51100000000E-03 0. -1.
</event>
<event>
 8    1  0.1112929E+005  0.1043930E+01  0.7957747E-01            NaN
         13   -1    0    0    0    0  0.00000000000E+00  0.00000000000E+00  0.74505805969E-08  0.10566000000E+00  0.10566000000E+00 0. -1.
     999900   -1    0    0    0    0 -0.00000000000E+00 -0.00000000000E+00 -0.74505805969E-08  0.93827000000E+00  0.93827000000E+00 0. -1.
     999902    2    1    2    0    0 -0.19076814418E-01  0.10880353355E-01  0.81515508674E-02  0.10205044857E+01  0.10202355859E+01 0.  0.
     999903    2    3    3    0    0 -0.39473489063E-01  0.10461885558E+00 -0.67655521366E-01  0.13205097353E+00  0.18892558258E-01 0.  0.
         14    1    1    2    0    0  0.19076814418E-01 -0.10880353355E-01 -0.81515508674E-02  0.23425514275E-01  0.00000000000E+00 0. -1.
     999901    1    3    3    0    0  0.20396674644E-01 -0.93738502221E-01  0.75807072233E-01  0.88845351220E+00  0.88000000000E+00 0.  1.
        -11    1    4    4    0    0 -0.10302850112E-01  0.52841853799E-01 -0.35348071279E-01  0.64406191453E-01  0.51100000000E-03 0.  1.
         11    1    4    4    0    0 -0.29170638951E-01  0.51777001777E-01 -0.32307450087E-01  0.67644782075E-01  0.51100000000E-03 0. -1.
</event>
<event>
 8    1  0.1112929E+005  0.1043930E+01  0.7957747E-01            NaN
         13   -1    0    0    0    0  0.00000000000E+00  0.00000000000E+00  0.74505805969E-08  0.10566000000E+00  0.10566000000E+00 0. -1.
     999900   -1    0    0    0    0 -0.00000000000E+00 -0.00000000000E+00 -0.74505805969E-08  0.93827000000E+00  0.93827000000E+00 0. -1.
     999902    2    1    2    0    0 -0.15980965555E-01  0.59556571753E-02 -0.16389800702E-01  0.10202765292E+01  0.10200023085E+01 0.  0.
     999903    2    3    3    0    0  0.39268118942E-02 -0.11724728654E+00  0.49898413383E-01  0.12900249041E+00  0.19734356411E-01 0.  0.
         14    1    1    2    0    0  0.15980965555E-01 -0.59556571753E-02  0.16389800702E-01  0.23653470770E-01  0.00000000000E+00 0. -1.
     999901    1    3    3    0    0 -0.19907777449E-01  0.12320294371E+00 -0.66288214084E-01  0.89127403882E+00  0.88000000000E+00 0.  1.
        -11    1    4    4    0    0 -0.65120922479E-02 -0.24409144216E-01  0.71364210360E-02  0.26256490493E-01  0.51100000000E-03 0. -1.
         11    1    4    4    0    0  0.10438904142E-01 -0.92838142320E-01  0.42761992347E-01  0.10274599992E+00  0.51100000000E-03 0.  1.
</event>
<event>
 8    1  0.1112929E+005  0.1043930E+01  0.7957747E-01            NaN
         13   -1    0    0    0    0  0.00000000000E+00  0.00000000000E+00  0.74505805969E-08  0.10566000000E+00  0.10566000000E+00 0.  1.
     999900   -1    0    0    0    0 -0.00000000000E+00 -0.00000000000E+00 -0.74505805969E-08  0.93827000000E+00  0.93827000000E+00 0. -1.
     999902    2    1    2    0    0  0.18726334339E-01  0.16266473912E-01 -0.28885621513E-02  0.10189576641E+01  0.10186516105E+01 0.  0.
     999903    2    3    3    0    0  0.10846720605E+00  0.12369885077E-01 -0.71021537062E-01  0.13176506392E+00  0.19995611996E-01 0.  0.
         14    1    1    2    0    0 -0.18726334339E-01 -0.16266473912E-01  0.28885621513E-02  0.24972335946E-01  0.00000000000E+00 0.  1.
     999901    1    3    3    0    0 -0.89740871708E-01  0.38965888353E-02  0.68132974911E-01  0.88719260013E+00  0.88000000000E+00 0.  1.
        -11    1    4    4    0    0  0.83608368833E-01  0.16628626776E-01 -0.49305608796E-01  0.98479311264E-01  0.51100000000E-03 0.  1.
         11    1    4    4    0    0  0.24858837214E-01 -0.42587416992E-02 -0.21715928266E-01  0.33285752657E-01  0.51100000000E-03 0. -1.
</event>
<event>
 8    1  0.1112929E+005  0.1043930E+01  0.7957747E-01            NaN
         13   -1    0    0    0    0  0.00000000000E+00  0.00000000000E+00  0.74505805969E-08  0.10566000000E+00  0.10566000000E+00 0.  1.
     999900   -1    0    0    0    0 -0.00000000000E+00 -0.00000000000E+00 -0.74505805969E-08  0.93827000000E+00  0.93827000000E+00 0.  1.
     999902    2    1    2    0    0 -0.13395657329E-01 -0.18989817748E-02 -0.19404695514E-01  0.10202743035E+01  0.10200000306E+01 0.  0.
     999903    2    3    3    0    0  0.89737977743E-01 -0.88705208783E-01 -0.24079433497E-01  0.12999697545E+00  0.19946824169E-01 0.  0.
         14    1    1    2    0    0  0.13395657329E-01  0.18989817748E-02  0.19404695514E-01  0.23655696461E-01  0.00000000000E+00 0. -1.
     999901    1    3    3    0    0 -0.10313363507E+00  0.86806227008E-01  0.46747379831E-02  0.89027732809E+00  0.88000000000E+00 0. -1.
        -11    1    4    4    0    0  0.48625458656E-01 -0.56101094404E-01 -0.59569622540E-02  0.74481638966E-01  0.51100000000E-03 0.  1.
         11    1    4    4    0    0  0.41112519087E-01 -0.32604114379E-01 -0.18122471243E-01  0.55515336486E-01  0.51100000000E-03 0. -1.
</event>
<event>
 8    1  0.1112929E+005  0.1043930E+01  0.7957747E-01            NaN
         13   -1    0    0    0    0  0.00000000000E+00  0.00000000000E+00  0.74505805969E-08  0.10566000000E+00  0.10566000000E+00 0. -1.
     999900   -1    0    0    0    0 -0.00000000000E+00 -0.00000000000E+00 -0.74505805969E-08  0.93827000000E+00  0.93827000000E+00 0. -1.
     999902    2    1    2    0    0 -0.13181928462E-01 -0.39795834213E-02  0.17696434107E-01  0.10215075982E+01  0.10212614793E+01 0.  0.
     999903    2    3    3    0    0 -0.34812793862E-03 -0.56739716246E-01  0.11971643323E+00  0.13395116717E+00  0.19783179895E-01 0.  0.
         14    1    1    2    0    0  0.13181928462E-01  0.39795834213E-02 -0.17696434107E-01  0.22422401796E-01  0.00000000000E+00 0.  1.
     999901    1    3    3    0    0 -0.12833800524E-01  0.52760132825E-01 -0.10201999913E+00  0.88755643104E+00  0.88000000000E+00 0. -1.
        -11    1    4    4    0    0 -0.10243234871E-02 -0.56866068810E-01  0.10675574640E+00  0.12096218223E+00  0.51100000000E-03 0.  1.
         11    1    4    4    0    0  0.67619554843E-03  0.12635256398E-03  0.12960686839E-01  0.12988984938E-01  0.51100000000E-03 0. -1.
</event>
<event>
 8    1  0.1112929E+005  0.1043930E+01  0.7957747E-01            NaN
         13   -1    0    0    0    0  0.00000000000E+00  0.00000000000E+00  0.74505805969E-08  0.10566000000E+00  0.10566000000E+00 0. -1.
     999900   -1    0    0    0    0 -0.00000000000E+00 -0.00000000000E+00 -0.74505805969E-08  0.93827000000E+00  0.93827000000E+00 0.  1.
     999902    2    1    2    0    0 -0.23392038274E-01 -0.10105262082E-03 -0.22491495425E-02  0.10204298651E+01  0.10201592294E+01 0.  0.
     999903    2    3    3    0    0  0.76238695528E-01 -0.80400681980E-02  0.10146146696E+00  0.12872071799E+00  0.19940224877E-01 0.  0.
         14    1    1    2    0    0  0.23392038274E-01  0.10105262082E-03  0.22491495425E-02  0.23500134891E-01  0.00000000000E+00 0.  1.
     999901    1    3    3    0    0 -0.99630733802E-01  0.79390155772E-02 -0.10371061651E+00  0.89170914712E+00  0.88000000000E+00 0.  1.
        -11    1    4    4    0    0  0.45713697994E-01 -0.65972223570E-02  0.76026767512E-01  0.88958394919E-01  0.51100000000E-03 0. -1.
         11    1    4    4    0    0  0.30524997534E-01 -0.14428458411E-02  0.25434699450E-01  0.39762323068E-01  0.51100000000E-03 0.  1.
</event>
<event>
 8    1  0.1112929E+005  0.1043930E+01  0.7957747E-01            NaN
         13   -1    0    0    0    0  0.00000000000E+00  0.00000000000E+00  0.74505805969E-08  0.10566000000E+00  0.10566000000E+00 0.  1.
     999900   -1    0    0    0    0 -0.00000000000E+00 -0.00000000000E+00 -0.74505805969E-08  0.93827000000E+00  0.93827000000E+00 0. -1.
     999902    2    1    2    0    0 -0.34050767781E-02  0.16511869438E-01 -0.16452898806E-01  0.10203729573E+01  0.10201009939E+01 0.  0.
     999903    2    3    3    0    0  0.11542243049E+00  0.58968233013E-01 -0.74521267436E-02  0.13132653943E+00  0.19787263551E-01 0.  0.
         14    1    1    2    0    0  0.34050767781E-02 -0.16511869438E-01  0.16452898806E-01  0.23557042669E-01  0.00000000000E+00 0.  1.
     999901    1    3    3    0    0 -0.11882750727E+00 -0.42456363575E-01 -0.90007720625E-02  0.88904641791E+00  0.88000000000E+00 0. -1.
        -11    1    4    4    0    0  0.41388810921E-01  0.10773884641E-01 -0.19556769189E-02  0.42815838809E-01  0.51100000000E-03 0. -1.
         11    1    4    4    0    0  0.74033619573E-01  0.48194348372E-01 -0.54964498247E-02  0.88510700617E-01  0.51100000000E-03 0.  1.
</event>
<event>
 8    1  0.1112929E+005  0.1043930E+01  0.7957747E-01            NaN
         13   -1    0    0    0    0  0.00000000000E+00  0.00000000000E+00  0.74505805969E-08  0.10566000000E+00  0.10566000000E+00 0.  1.
     999900   -1    0    0    0    0 -0.00000000000E+00 -0.00000000000E+00 -0.74505805969E-08  0.93827000000E+00  0.93827000000E+00 0. -1.
     999902    2    1    2    0    0  0.12438252231E-01 -0.13815625676E-01  0.14090157198E-01  0.10206037452E+01  0.10203371456E+01 0.  0.
     999903    2    3    3    0    0  0.90300307938E-01 -0.49659291629E-01 -0.79065270566E-01  0.13154514097E+00  0.20799428915E-01 0.  0.
         14    1    1    2    0    0 -0.12438252231E-01  0.13815625676E-01 -0.14090157198E-01  0.23326254762E-01  0.00000000000E+00 0. -1.
     999901    1    3    3    0    0 -0.77862055707E-01  0.35843665953E-01  0.93155427764E-01  0.88905860427E+00  0.88000000000E+00 0.  1.
        -11    1    4    4    0    0  0.66262635331E-01 -0.43882084216E-01 -0.67380918928E-01  0.10419608204E+00  0.51100000000E-03 0.  1.
         11    1    4    4    0    0  0.24037672606E-01 -0.57772074132E-02 -0.11684351638E-01  0.27349058924E-01  0.51100000000E-03 0. -1.
</event>
<event>
 8    1  0.1112929E+005  0.1043930E+01  0.7957747E-01            NaN
         13   -1    0    0    0    0  0.00000000000E+00  0.00000000000E+00  0.74505805969E-08  0.10566000000E+00  0.10566000000E+00 0. -1.
     999900   -1    0    0    0    0 -0.00000000000E+00 -0.00000000000E+00 -0.74505805969E-08  0.93827000000E+00  0.93827000000E+00 0.  1.
     999902    2    1    2    0    0 -0.78321400411E-02  0.16752337013E-01 -0.13879035433E-01  0.10208083470E+01  0.10205464568E+01 0.  0.
     999903    2    3    3    0    0  0.16414336433E-02 -0.94000518198E-01  0.85065450546E-01  0.12831411461E+00  0.19738019311E-01 0.  0.
         14    1    1    2    0    0  0.78321400411E-02 -0.16752337013E-01  0.13879035433E-01  0.23121653002E-01  0.00000000000E+00 0. -1.
     999901    1    3    3    0    0 -0.94735736844E-02  0.11075285521E+00 -0.98944485978E-01  0.89249423239E+00  0.88000000000E+00 0.  1.
        -11    1    4    4    0    0  0.22374883171E-02 -0.69135142710E-02  0.14487920333E-01  0.16216164471E-01  0.51100000000E-03 0. -1.
         11    1    4    4    0    0 -0.59605467383E-03 -0.87087003927E-01  0.70577530212E-01  0.11209795014E+00  0.51100000000E-03 0.  1.
</event>
<event>
 8    1  0.1112929E+005  0.1043930E+01  0.7957747E-01            NaN
         13   -1    0    0    0    0  0.00000000000E+00  0.00000000000E+00  0.74505805969E-08  0.10566000000E+00  0.10566000000E+00 0.  1.
     999900   -1    0    0    0    0 -0.00000000000E+00 -0.00000000000E+00 -0.74505805969E-08  0.93827000000E+00  0.93827000000E+00 0. -1.
     999902    2    1    2    0    0 -0.19205517285E-01 -0.13822237312E-01 -0.64421730980E-02  0.10194063842E+01  0.10191113621E+01 0.  0.
     999903    2    3    3    0    0  0.64810777765E-01  0.10721334850E+00 -0.29089176438E-02  0.12715034763E+00  0.21531606789E-01 0.  0.
         14    1    1    2    0    0  0.19205517285E-01  0.13822237312E-01  0.64421730980E-02  0.24523615817E-01  0.00000000000E+00 0. -1.
     999901    1    3    3    0    0 -0.84016295050E-01 -0.12103558581E+00 -0.35332554542E-02  0.89225603655E+00  0.88000000000E+00 0.  1.
        -11    1    4    4    0    0  0.23402743409E-01  0.42188579174E-01  0.91905023860E-02  0.49115079832E-01  0.51100000000E-03 0.  1.
         11    1    4    4    0    0  0.41408034356E-01  0.65024769323E-01 -0.12099420030E-01  0.78035267801E-01  0.51100000000E-03 0. -1.
</event>
<event>
 8    1  0.1112929E+005  0.1043930E+01  0.7957747E-01            NaN
         13   -1    0    0    0    0  0.00000000000E+00  0.00000000000E+00  0.74505805969E-08  0.10566000000E+00  0.10566000000E+00 0. -1.
     999900   -1    0    0    0    0 -0.00000000000E+00 -0.00000000000E+00 -0.74505805969E-08  0.93827000000E+00  0.93827000000E+00 0.  1.
     999902    2    1    2    0    0  0.11697540636E-01  0.16636372016E-01 -0.11513386784E-01  0.10205599464E+01  0.10202923330E+01 0.  0.
     999903    2    3    3    0    0 -0.65097159171E-01 -0.75774342600E-01 -0.80438549550E-01  0.12972447103E+00  0.19459881822E-01 0.  0.
         14    1    1    2    0    0 -0.11697540636E-01 -0.16636372016E-01  0.11513386784E-01  0.23370053616E-01  0.00000000000E+00 0. -1.
     999901    1    3    3    0    0  0.76794699808E-01  0.92410714616E-01  0.68925162765E-01  0.89083547536E+00  0.88000000000E+00 0. -1.
        -11    1    4    4    0    0 -0.36704504433E-01 -0.33520957565E-01 -0.49493790677E-01  0.70148212225E-01  0.51100000000E-03 0. -1.
         11    1    4    4    0    0 -0.28392654738E-01 -0.42253385035E-01 -0.30944758873E-01  0.59576258801E-01  0.51100000000E-03 0.  1.
</event>
<event>
 8    1  0.1112929E+005  0.1043930E+01  0.7957747E-01            NaN
         13   -1    0    0    0    0  0.00000000000E+00  0.00000000000E+00  0.74505805969E-08  0.10566000000E+00  0.10566000000E+00 0.  1.
     999900   -1    0    0    0    0 -0.00000000000E+00 -0.00000000000E+00 -0.74505805969E-08  0.93827000000E+00  0.93827000000E+00 0.  1.
     999902    2    1    2    0    0 -0.19684209240E-01  0.12571705298E-01 -0.56310876108E-02  0.10199044924E+01  0.10196214732E+01 0.  0.
     999903    2    3    3    0    0 -0.28624054981E-02 -0.76169138866E-01 -0.10325304520E+00  0.12991125810E+00  0.20144789825E-01 0.  0.
         14    1    1    2    0    0  0.19684209240E-01 -0.12571705298E-01  0.56310876108E-02  0.24025507595E-01  0.00000000000E+00 0.  1.
     999901    1    3    3    0    0 -0.16821803742E-01  0.88740844164E-01  0.97621957591E-01  0.88999323430E+00  0.88000000000E+00 0. -1.
        -11    1    4    4    0    0 -0.10947192536E-01 -0.49158656366E-01 -0.60884865337E-01  0.79016722713E-01  0.51100000000E-03 0. -1.
         11    1    4    4    0    0  0.80847870383E-02 -0.27010482501E-01 -0.42368179864E-01  0.50894535388E-01  0.51100000000E-03 0.  1.
</event>
<event>
 8    1  0.1112929E+005  0.1043930E+01  0.7957747E-01            NaN
         13   -1    0    0    0    0  0.00000000000E+00  0.00000000000E+00  0.74505805969E-08  0.10566000000E+00  0.10566000000E+00 0.  1.
     999900   -1    0    0    0    0 -0.00000000000E+00 -0.00000000000E+00 -0.74505805969E-08  0.93827000000E+00  0.93827000000E+00 0. -1.
     999902    2    1    2    0    0  0.20165756021E-01  0.76937317584E-02 -0.66385336414E-02  0.10213485618E+01  0.10210988998E+01 0.  0.
     999903    2    3    3    0    0  0.29750202141E-01  0.12941894569E-01 -0.12748820729E+00  0.13302201794E+00  0.19724276869E-01 0.  0.
         14    1    1    2    0    0 -0.20165756021E-01 -0.76937317584E-02  0.66385336414E-02  0.22581438244E-01  0.00000000000E+00 0. -1.
     999901    1    3    3    0    0 -0.95844461200E-02 -0.52481628102E-02  0.12084967365E+00  0.88832654381E+00  0.88000000000E+00 0.  1.
        -11    1    4    4    0    0  0.27818815425E-01  0.17037221850E-01 -0.11896107773E+00  0.12335376993E+00  0.51100000000E-03 0. -1.
         11    1    4    4    0    0  0.19313867161E-02 -0.40953272815E-02 -0.85271295611E-02  0.96682480182E-02  0.51100000000E-03 0.  1.
</event>
<event>
 8    1  0.1112929E+005  0.1043930E+01  0.7957747E-01            NaN
         13   -1    0    0    0    0  0.00000000000E+00  0.00000000000E+00  0.74505805969E-08  0.10566000000E+00  0.10566000000E+00 0.  1.
     999900   -1    0    0    0    0 -0.00000000000E+00 -0.00000000000E+00 -0.74505805969E-08  0.93827000000E+00  0.93827000000E+00 0.  1.
     999902    2    1    2    0    0 -0.19564399632E-01 -0.94224498365E-02  0.93897599000E-02  0.10202716847E+01  0.10199973503E+01 0.  0.
     999903    2    3    3    0    0 -0.70476968704E-01 -0.55894907780E-02  0.11080967450E+00  0.13297647992E+00  0.20142361452E-01 0.  0.
         14    1    1    2    0    0  0.19564399632E-01  0.94224498365E-02 -0.93897599000E-02  0.23658315343E-01  0.00000000000E+00 0. -1.
     999901    1    3    3    0    0  0.50912569072E-01 -0.38329590585E-02 -0.10141991460E+00  0.88729520473E+00  0.88000000000E+00 0. -1.
        -11    1    4    4    0    0 -0.41235717480E-01 -0.97295489188E-04  0.80795872227E-01  0.90711785080E-01  0.51100000000E-03 0. -1.
         11    1    4    4    0    0 -0.29241251224E-01 -0.54921952888E-02  0.30013802275E-01  0.42264694844E-01  0.51100000000E-03 0.  1.
</event>
<event>
 8    1  0.1112929E+005  0.1043930E+01  0.7957747E-01            NaN
         13   -1    0    0    0    0  0.00000000000E+00  0.00000000000E+00  0.74505805969E-08  0.10566000000E+00  0.10566000000E+00 0. -1.
     999900   -1    0    0    0    0 -0.00000000000E+00 -0.00000000000E+00 -0.74505805969E-08  0.93827000000E+00  0.93827000000E+00 0. -1.
     999902    2    1    2    0    0  0.22395912447E-01  0.42360927266E-02  0.68209588927E-02  0.10201382608E+01  0.10198607867E+01 0.  0.
     999903    2    3    3    0    0  0.23823191739E-01  0.96457546633E-01  0.84358552433E-01  0.13192718669E+00  0.20416034186E-01 0.  0.
         14    1    1    2    0    0 -0.22395912447E-01 -0.42360927266E-02 -0.68209588927E-02  0.23791739242E-01  0.00000000000E+00 0.  1.
     999901    1    3    3    0    0 -0.14272792923E-02 -0.92221453907E-01 -0.77537593541E-01  0.88821107407E+00  0.88000000000E+00 0. -1.
        -11    1    4    4    0    0  0.13929753890E-01  0.29996601342E-01  0.37519731280E-01  0.50018251587E-01  0.51100000000E-03 0.  1.
         11    1    4    4    0    0  0.98934378490E-02  0.66460945292E-01  0.46838821154E-01  0.81908935102E-01  0.51100000000E-03 0. -1.
</event>
<event>
 8    1  0.1112929E+005  0.1043930E+01  0.7957747E-01            NaN
         13   -1    0    0    0    0  0.00000000000E+00  0.00000000000E+00  0.74505805969E-08  0.10566000000E+00  0.10566000000E+00 0. -1.
     999900   -1    0    0    0    0 -0.00000000000E+00 -0.00000000000E+00 -0.74505805969E-08  0.93827000000E+00  0.93827000000E+00 0.  1.
     999902    2    1    2    0    0 -0.31836370695E-02 -0.41288501418E-02 -0.25111071314E-01  0.10182833852E+01  0.10179603645E+01 0.  0.
     999903    2    3    3    0    0  0.11144018103E+00 -0.35407010027E-01  0.46053256453E-01  0.12745158036E+00  0.21223397431E-01 0.  0.
         14    1    1    2    0    0  0.31836370695E-02  0.41288501418E-02  0.25111071314E-01  0.25646614806E-01  0.00000000000E+00 0. -1.
     999901    1    3    3    0    0 -0.11462381810E+00  0.31278159885E-01 -0.71164327766E-01  0.89083180484E+00  0.88000000000E+00 0.  1.
        -11    1    4    4    0    0  0.76954962502E-01 -0.13990573735E-01  0.31547214735E-01  0.84340324197E-01  0.51100000000E-03 0.  1.
         11    1    4    4    0    0  0.34485218529E-01 -0.21416436292E-01  0.14506041717E-01  0.43111256160E-01  0.51100000000E-03 0. -1.
</event>
<event>
 8    1  0.1112929E+005  0.1043930E+01  0.7957747E-01            NaN
         13   -1    0    0    0    0  0.00000000000E+00  0.00000000000E+00  0.74505805969E-08  0.10566000000E+00  0.10566000000E+00 0.  1.
     999900   -1    0    0    0    0 -0.00000000000E+00 -0.00000000000E+00 -0.74505805969E-08  0.93827000000E+00  0.93827000000E+00 0. -1.
     999902    2    1    2    0    0 -0.61464395656E-02 -0.44606004433E-02 -0.26294306166E-01  0.10165609260E+01  0.10161924277E+01 0.  0.
     999903    2    3    3    0    0  0.58186365319E-01 -0.72074143344E-01 -0.88235213656E-01  0.12946060641E+00  0.19855992438E-01 0.  0.
         14    1    1    2    0    0  0.61464395656E-02  0.44606004433E-02  0.26294306166E-01  0.27369074014E-01  0.00000000000E+00 0.  1.
     999901    1    3    3    0    0 -0.64332804885E-01  0.67613542901E-01  0.61940907490E-01  0.88710031957E+00  0.88000000000E+00 0.  1.
        -11    1    4    4    0    0  0.46004019733E-01 -0.52292732039E-01 -0.54223015591E-01  0.88268319325E-01  0.51100000000E-03 0. -1.
         11    1    4    4    0    0  0.12182345586E-01 -0.19781411305E-01 -0.34012198065E-01  0.41192287087E-01  0.51100000000E-03 0.  1.
</event>
<event>
 8    1  0.1112929E+005  0.1043930E+01  0.7957747E-01            NaN
         13   -1    0    0    0    0  0.00000000000E+00  0.00000000000E+00  0.74505805969E-08  0.10566000000E+00  0.10566000000E+00 0. -1.
     999900   -1    0    0    0    0 -0.00000000000E+00 -0.00000000000E+00 -0.74505805969E-08  0.93827000000E+00  0.93827000000E+00 0. -1.
     999902    2    1    2    0    0 -0.71099179825E-02  0.18820948528E-01 -0.10810538001E-01  0.10210904122E+01  0.10208349441E+01 0.  0.
     999903    2    3    3    0    0 -0.99302901426E-01  0.48203576767E-01 -0.72586418541E-01  0.13363385305E+00  0.20113862842E-01 0.  0.
         14    1    1    2    0    0  0.71099179825E-02 -0.18820948528E-01  0.10810538001E-01  0.22839587761E-01  0.00000000000E+00 0.  1.
     999901    1    3    3    0    0  0.92192983444E-01 -0.29382628239E-01  0.61775880540E-01  0.88745655919E+00  0.88000000000E+00 0.  1.
        -11    1    4    4    0    0 -0.57106108039E-01  0.35582354132E-01 -0.35635486276E-01  0.76140399947E-01  0.51100000000E-03 0. -1.
         11    1    4    4    0    0 -0.42196793387E-01  0.12621222634E-01 -0.36950932265E-01  0.57493453099E-01  0.51100000000E-03 0.  1.
</event>
<event>
 8    1  0.1112929E+005  0.1043930E+01  0.7957747E-01            NaN
         13   -1    0    0    0    0  0.00000000000E+00  0.00000000000E+00  0.74505805969E-08  0.10566000000E+00  0.10566000000E+00 0. -1.
     999900   -1    0    0    0    0 -0.00000000000E+00 -0.00000000000E+00 -0.74505805969E-08  0.93827000000E+00  0.93827000000E+00 0. -1.
     999902    2    1    2    0    0  0.42478564040E-02 -0.21497579691E-01  0.25265303707E-02  0.10218715873E+01  0.10216334799E+01 0.  0.
     999903    2    3    3    0    0 -0.66480655051E-01  0.35035376846E-01 -0.10583208109E+00  0.13061400038E+00  0.14575067090E-01 0.  0.
         14    1    1    2    0    0 -0.42478564040E-02  0.21497579691E-01 -0.25265303707E-02  0.22058412733E-01  0.00000000000E+00 0. -1.
     999901    1    3    3    0    0  0.70728511455E-01 -0.56532956537E-01  0.10835861146E+00  0.89125758689E+00  0.88000000000E+00 0.  1.
        -11    1    4    4    0    0 -0.39941909770E-01  0.15136583603E-01 -0.67926465601E-01  0.80241748294E-01  0.51100000000E-03 0. -1.
         11    1    4    4    0    0 -0.26538745281E-01  0.19898793243E-01 -0.37905615489E-01  0.50372252086E-01  0.51100000000E-03 0.  1.
</event>
<event>
 8    1  0.1112929E+005  0.1043930E+01  0.7957747E-01            NaN
         13   -1    0    0    0    0  0.00000000000E+00  0.00000000000E+00  0.74505805969E-08  0.10566000000E+00  0.10566000000E+00 0. -1.
     999900   -1    0    0    0    0 -0.00000000000E+00 -0.00000000000E+00 -0.74505805969E-08  0.93827000000E+00  0.93827000000E+00 0.  1.
     999902    2    1    2    0    0 -0.16328611711E-01  0.14288856828E-01 -0.46590879815E-02  0.10217376119E+01  0.10214965714E+01 0.  0.
     999903    2    3    3    0    0  0.12317642418E+00 -0.25407060404E-02  0.35566158752E-01  0.12968214292E+00  0.19329249425E-01 0.  0.
         14    1    1    2    0    0  0.16328611711E-01 -0.14288856828E-01  0.46590879815E-02  0.22192388125E-01  0.00000000000E+00 0. -1.
     999901    1    3    3    0    0 -0.13950503589E+00  0.16829562868E-01 -0.40225246733E-01  0.89205546896E+00  0.88000000000E+00 0.  1.
        -11    1    4    4    0    0  0.52879899852E-01 -0.71179565847E-02  0.23080220911E-01  0.58136966146E-01  0.51100000000E-03 0.  1.
         11    1    4    4    0    0  0.70296524323E-01  0.45772505442E-02  0.12485937841E-01  0.71545176771E-01  0.51100000000E-03 0. -1.
</event>
<event>
 8    1  0.1112929E+005  0.1043930E+01  0.7957747E-01            NaN
         13   -1    0    0    0    0  0.00000000000E+00  0.00000000000E+00  0.74505805969E-08  0.10566000000E+00  0.10566000000E+00 0. -1.
     999900   -1    0    0    0    0 -0.00000000000E+00 -0.00000000000E+00 -0.74505805969E-08  0.93827000000E+00  0.93827000000E+00 0. -1.
     999902    2    1    2    0    0  0.21972595787E-01 -0.65116088844E-02  0.53678706186E-02  0.10203925819E+01  0.10201210767E+01 0.  0.
     999903    2    3    3    0    0 -0.51809927977E-02  0.61274939649E-01 -0.11220793170E+00  0.12957475382E+00  0.20433697066E-01 0.  0.
         14    1    1    2    0    0 -0.21972595787E-01  0.65116088844E-02 -0.53678706186E-02  0.23537418101E-01  0.00000000000E+00 0. -1.
     999901    1    3    3    0    0  0.27153588585E-01 -0.67786548533E-01  0.11757580232E+00  0.89081782808E+00  0.88000000000E+00 0.  1.
        -11    1    4    4    0    0 -0.96507691705E-02  0.27492348017E-01 -0.37765331569E-01  0.47701655470E-01  0.51100000000E-03 0.  1.
         11    1    4    4    0    0  0.44697763728E-02  0.33782591632E-01 -0.74442600129E-01  0.81873098349E-01  0.51100000000E-03 0. -1.
</event>
<event>
 8    1  0.1112929E+005  0.1043930E+01  0.7957747E-01            NaN
         13   -1    0    0    0    0  0.00000000000E+00  0.00000000000E+00  0.74505805969E-08  0.10566000000E+00  0.10566000000E+00 0.  1.
     999900   -1    0    0    0    0 -0.00000000000E+00 -0.00000000000E+00 -0.74505805969E-08  0.93827000000E+00  0.93827000000E+00 0.  1.
     999902    2    1    2    0    0  0.78606637597E-02 -0.21915671354E-01  0.81403948065E-02  0.10192651928E+01  0.10189667220E+01 0.  0.
     999903    2    3    3    0    0 -0.53348661043E-01 -0.26692208961E-01  0.11460956528E+00  0.13072420839E+00  0.19872406752E-01 0.  0.
         14    1    1    2    0    0 -0.78606637597E-02  0.21915671354E-01 -0.81403948065E-02  0.24664807180E-01  0.00000000000E+00 0.  1.
     999901    1    3    3    0    0  0.61209324803E-01  0.47765376067E-02 -0.10646917048E+00  0.88854098443E+00  0.88000000000E+00 0.  1.
        -11    1    4    4    0    0 -0.29900957703E-01 -0.24982632406E-01  0.64220522169E-01  0.75118145492E-01  0.51100000000E-03 0.  1.
         11    1    4    4    0    0 -0.23447703340E-01 -0.17095765553E-02  0.50389043112E-01  0.55606062895E-01  0.51100000000E-03 0. -1.
</event>
<event>
 8    1  0.1112929E+005  0.1043930E+01  0.7957747E-01            NaN
         13   -1    0    0    0    0  0.00000000000E+00  0.00000000000E+00  0.74505805969E-08  0.10566000000E+00  0.10566000000E+00 0.  1.
     999900   -1    0    0    0    0 -0.00000000000E+00 -0.00000000000E+00 -0.74505805969E-08  0.93827000000E+00  0.93827000000E+00 0.  1.
     999902    2    1    2    0    0  0.22506372252E-01 -0.55118441080E-02 -0.59078646736E-02  0.10200172402E+01  0.10197369024E+01 0.  0.
     999903    2    3    3    0    0  0.21725747351E-01 -0.28680923492E-01 -0.12506321947E+00  0.13168429911E+00  0.20133114423E-01 0.  0.
         14    1    1    2    0    0 -0.22506372252E-01  0.55118441080E-02  0.59078646736E-02  0.23912759824E-01  0.00000000000E+00 0.  1.
     999901    1    3    3    0    0  0.78062490023E-03  0.23169079384E-01  0.11915535480E+00  0.88833294107E+00  0.88000000000E+00 0. -1.
        -11    1    4    4    0    0  0.24548034557E-01 -0.24303819435E-01 -0.93258940093E-01  0.99452363813E-01  0.51100000000E-03 0. -1.
         11    1    4    4    0    0 -0.28222872057E-02 -0.43771040569E-02 -0.31804279377E-01  0.32231935292E-01  0.51100000000E-03 0.  1.
</event>
<event>
 8    1  0.1112929E+005  0.1043930E+01  0.7957747E-01            NaN
         13   -1    0    0    0    0  0.00000000000E+00  0.00000000000E+00  0.74505805969E-08  0.10566000000E+00  0.10566000000E+00 0.  1.
     999900   -1    0    0    0    0 -0.00000000000E+00 -0.00000000000E+00 -0.74505805969E-08  0.93827000000E+00  0.93827000000E+00 0.  1.
     999902    2    1    2    0    0 -0.21242375208E-01 -0.14566096543E-02 -0.11712475537E-01  0.10196289239E+01  0.10193392959E+01 0.  0.
     999903    2    3    3    0    0  0.10758169657E+00 -0.37456325864E-01  0.52855163933E-01  0.12718251033E+00  0.20122743254E-01 0.  0.
         14    1    1    2    0    0  0.21242375208E-01  0.14566096543E-02  0.11712475537E-01  0.24301076095E-01  0.00000000000E+00 0.  1.
     999901    1    3    3    0    0 -0.12882407178E+00  0.35999716210E-01 -0.64567639470E-01  0.89244641357E+00  0.88000000000E+00 0.  1.
        -11    1    4    4    0    0  0.46089551498E-01 -0.22665511453E-01  0.15163546966E-01  0.53555265327E-01  0.51100000000E-03 0.  1.
         11    1    4    4    0    0  0.61492145070E-01 -0.14790814411E-01  0.37691616966E-01  0.73627245003E-01  0.51100000000E-03 0. -1.
</event>
<event>
 8    1  0.1112929E+005  0.1043930E+01  0.7957747E-01            NaN
         13   -1    0    0    0    0  0.00000000000E+00  0.00000000000E+00  0.74505805969E-08  0.10566000000E+00  0.10566000000E+00 0. -1.
     999900   -1    0    0    0    0 -0.00000000000E+00 -0.00000000000E+00 -0.74505805969E-08  0.93827000000E+00  0.93827000000E+00 0.  1.
     999902    2    1    2    0    0  0.94496418093E-02 -0.20714318500E-01  0.61414454802E-02  0.10203483106E+01  0.10200757712E+01 0.  0.
     999903    2    3    3    0    0  0.22510339703E-01  0.12242940345E+00 -0.23142997437E-01  0.12820578526E+00  0.20135809464E-01 0.  0.
         14    1    1    2    0    0 -0.94496418093E-02  0.20714318500E-01 -0.61414454802E-02  0.23581689376E-01  0.00000000000E+00 0.  1.
     999901    1    3    3    0    0 -0.13060697894E-01 -0.14314372195E+00  0.29284442917E-01  0.89214252536E+00  0.88000000000E+00 0. -1.
        -11    1    4    4    0    0  0.15784343028E-01  0.35312000236E-01 -0.85730026483E-02  0.39621210746E-01  0.51100000000E-03 0. -1.
         11    1    4    4    0    0  0.67259966746E-02  0.87117403209E-01 -0.14569994788E-01  0.88584574516E-01  0.51100000000E-03 0.  1.
</event>
<event>
 8    1  0.1112929E+005  0.1043930E+01  0.7957747E-01            NaN
         13   -1    0    0    0    0  0.00000000000E+00  0.00000000000E+00  0.74505805969E-08  0.10566000000E+00  0.10566000000E+00 0.  1.
     999900   -1    0    0    0    0 -0.00000000000E+00 -0.00000000000E+00 -0.74505805969E-08  0.93827000000E+00  0.93827000000E+00 0.  1.
     999902    2    1    2    0    0 -0.14420301822E-01  0.21731361143E-02  0.18369143220E-01  0.10204759375E+01  0.10202063742E+01 0.  0.
     999903    2    3    3    0    0 -0.49702046824E-01 -0.65696139506E-01 -0.98080181689E-01  0.12951494768E+00  0.19186542898E-01 0.  0.
         14    1    1    2    0    0  0.14420301822E-01 -0.21731361143E-02 -0.18369143220E-01  0.23454062502E-01  0.00000000000E+00 0. -1.
     999901    1    3    3    0    0  0.35281745002E-01  0.67869275620E-01  0.11644932491E+00  0.89096098982E+00  0.88000000000E+00 0. -1.
        -11    1    4    4    0    0 -0.46483159436E-01 -0.54250572708E-01 -0.90903197095E-01  0.11561773702E+00  0.51100000000E-03 0. -1.
         11    1    4    4    0    0 -0.32188873878E-02 -0.11445566798E-01 -0.71769845939E-02  0.13897210663E-01  0.51100000000E-03 0.  1.
</event>
<event>
 8    1  0.1112929E+005  0.1043930E+01  0.7957747E-01            NaN
         13   -1    0    0    0    0  0.00000000000E+00  0.00000000000E+00  0.74505805969E-08  0.10566000000E+00  0.10566000000E+00 0. -1.
     999900   -1    0    0    0    0 -0.00000000000E+00 -0.00000000000E+00 -0.74505805969E-08  0.93827000000E+00  0.93827000000E+00 0.  1.
     999902    2    1    2    0    0  0.18552132167E-02 -0.76469457214E-02  0.22890646009E-01  0.10197246438E+01  0.10194373202E+01 0.  0.
     999903    2    3    3    0    0  0.93893947797E-01  0.60839063358E-01 -0.60103081459E-01  0.12840572168E+00  0.18925746889E-01 0.  0.
         14    1    1    2    0    0 -0.18552132167E-02  0.76469457214E-02 -0.22890646009E-01  0.24205356218E-01  0.00000000000E+00 0.  1.
     999901    1    3    3    0    0 -0.92038734580E-01 -0.68486009080E-01  0.82993727468E-01  0.89131892210E+00  0.88000000000E+00 0. -1.
        -11    1    4    4    0    0  0.20280970071E-01  0.76769883862E-02 -0.52419699409E-02  0.22315762760E-01  0.51100000000E-03 0.  1.
         11    1    4    4    0    0  0.73612977726E-01  0.53162074972E-01 -0.54861111518E-01  0.10608995892E+00  0.51100000000E-03 0. -1.
</event>
<event>
 8    1  0.1112929E+005  0.1043930E+01  0.7957747E-01            NaN
         13   -1    0    0    0    0  0.00000000000E+00  0.00000000000E+00  0.74505805969E-08  0.10566000000E+00  0.10566000000E+00 0. -1.
     999900   -1    0    0    0    0 -0.00000000000E+00 -0.00000000000E+00 -0.74505805969E-08  0.93827000000E+00  0.93827000000E+00 0.  1.
     999902    2    1    2    0    0  0.79985112674E-02 -0.94561506886E-02  0.19785935289E-01  0.10205873737E+01  0.10203203953E+01 0.  0.
     999903    2    3    3    0    0 -0.12961681644E-01 -0.11342072798E+00 -0.60152970049E-01  0.13062209817E+00  0.20285117657E-01 0.  0.
         14    1    1    2    0    0 -0.79985112674E-02  0.94561506886E-02 -0.19785935289E-01  0.23342626322E-01  0.00000000000E+00 0.  1.
     999901    1    3    3    0    0  0.20960192912E-01  0.10396457729E+00  0.79938905338E-01  0.88996527551E+00  0.88000000000E+00 0. -1.
        -11    1    4    4    0    0 -0.57297698758E-02 -0.90499448363E-01 -0.39433470321E-01  0.98884984297E-01  0.51100000000E-03 0.  1.
         11    1    4    4    0    0 -0.72319117686E-02 -0.22921279619E-01 -0.20719499728E-01  0.31737113876E-01  0.51100000000E-03 0. -1.
</event>
<event>
 8    1  0.1112929E+005  0.1043930E+01  0.7957747E-01            NaN
         13   -1    0    0    0    0  0.00000000000E+00  0.00000000000E+00  0.74505805969E-08  0.10566000000E+00  0.10566000000E+00 0. -1.
     999900   -1    0    0    0    0 -0.00000000000E+00 -0.00000000000E+00 -0.74505805969E-08  0.93827000000E+00  0.93827000000E+00 0.  1.
     999902    2    1    2    0    0 -0.20275796713E-01  0.95291928080E-02  0.35941505258E-02  0.10212401043E+01  0.10209880113E+01 0.  0.
     999903    2    3    3    0    0 -0.66573731001E-01  0.97797271742E-01 -0.58222371739E-01  0.13345858001E+00  0.20615042773E-01 0.  0.
         14    1    1    2    0    0  0.20275796713E-01 -0.95291928080E-02 -0.35941505258E-02  0.22689895679E-01  0.00000000000E+00 0.  1.
     999901    1    3    3    0    0  0.46297934288E-01 -0.88268078934E-01  0.61816522265E-01  0.88778152431E+00  0.88000000000E+00 0. -1.
        -11    1    4    4    0    0 -0.46372346753E-01  0.76343098844E-01 -0.35002863640E-01  0.95938130420E-01  0.51100000000E-03 0.  1.
         11    1    4    4    0    0 -0.20201384248E-01  0.21454172898E-01 -0.23219508099E-01  0.37520449593E-01  0.51100000000E-03 0. -1.
</event>
<event>
 8    1  0.1112929E+005  0.1043930E+01  0.7957747E-01            NaN
         13   -1    0    0    0    0  0.00000000000E+00  0.00000000000E+00  0.74505805969E-08  0.10566000000E+00  0.10566000000E+00 0.  1.
     999900   -1    0    0    0    0 -0.00000000000E+00 -0.00000000000E+00 -0.74505805969E-08  0.93827000000E+00  0.93827000000E+00 0.  1.
     999902    2    1    2    0    0  0.45002128384E-02  0.20403284108E-02 -0.22298012494E-01  0.10210910811E+01  0.10208356281E+01 0.  0.
     999903    2    3    3    0    0 -0.11866231598E-01 -0.59366046344E-01 -0.11747504140E+00  0.13368065170E+00  0.20124521768E-01 0.  0.
         14    1    1    2    0    0 -0.45002128384E-02 -0.20403284108E-02  0.22298012494E-01  0.22838918906E-01  0.00000000000E+00 0.  1.
     999901    1    3    3    0    0  0.16366444437E-01  0.61406374755E-01  0.95177028906E-01  0.88741042939E+00  0.88000000000E+00 0. -1.
        -11    1    4    4    0    0  0.13152261366E-02 -0.37682105888E-01 -0.60218976809E-01  0.71051088752E-01  0.51100000000E-03 0.  1.
         11    1    4    4    0    0 -0.13181457735E-01 -0.21683940456E-01 -0.57256064591E-01  0.62629562949E-01  0.51100000000E-03 0. -1.
</event>
<event>
 8    1  0.1112929E+005  0.1043930E+01  0.7957747E-01            NaN
         13   -1    0    0    0    0  0.00000000000E+00  0.00000000000E+00  0.74505805969E-08  0.10566000000E+00  0.10566000000E+00 0.  1.
     999900   -1    0    0    0    0 -0.00000000000E+00 -0.00000000000E+00 -0.74505805969E-08  0.93827000000E+00  0.93827000000E+00 0. -1.
     999902    2    1    2    0    0  0.20208595411E-02  0.22779366615E-01  0.59264611434E-02  0.10203057252E+01  0.10200321890E+01 0.  0.
     999903    2    3    3    0    0 -0.10837414403E+00  0.68012449750E-01 -0.24387882427E-01  0.13173831189E+00  0.19737416121E-01 0.  0.
         14    1    1    2    0    0 -0.20208595411E-02 -0.22779366615E-01 -0.59264611434E-02  0.23624274769E-01  0.00000000000E+00 0.  1.
     999901    1    3    3    0    0  0.11039500357E+00 -0.45233083134E-01  0.30314343571E-01  0.88856741334E+00  0.88000000000E+00 0.  1.
        -11    1    4    4    0    0 -0.51197207002E-01  0.26764976964E-01 -0.21619108110E-02  0.57813951397E-01  0.51100000000E-03 0. -1.
         11    1    4    4    0    0 -0.57176937029E-01  0.41247472785E-01 -0.22225971616E-01  0.73924360494E-01  0.51100000000E-03 0.  1.
</event>
<event>
 8    1  0.1112929E+005  0.1043930E+01  0.7957747E-01            NaN
         13   -1    0    0    0    0  0.00000000000E+00  0.00000000000E+00  0.74505805969E-08  0.10566000000E+00  0.10566000000E+00 0.  1.
     999900   -1    0    0    0    0 -0.00000000000E+00 -0.00000000000E+00 -0.74505805969E-08  0.93827000000E+00  0.93827000000E+00 0.  1.
     999902    2    1    2    0    0  0.18256540850E-01  0.14020236130E-01  0.75749657779E-02  0.10196967911E+01  0.10194087980E+01 0.  0.
     999903    2    3    3    0    0 -0.30236642100E-02  0.10744244419E+00  0.73684525892E-01  0.13203073343E+00  0.21205750515E-01 0.  0.
         14    1    1    2    0    0 -0.18256540850E-01 -0.14020236130E-01 -0.75749657779E-02  0.24233208856E-01  0.00000000000E+00 0. -1.
     999901    1    3    3    0    0  0.21280205060E-01 -0.93422208057E-01 -0.66109560114E-01  0.88766605772E+00  0.88000000000E+00 0.  1.
        -11    1    4    4    0    0  0.19203690660E-02  0.73415513700E-01  0.60675168469E-01  0.95264173008E-01  0.51100000000E-03 0.  1.
         11    1    4    4    0    0 -0.49440332760E-02  0.34026930487E-01  0.13009357424E-01  0.36766560418E-01  0.51100000000E-03 0. -1.
</event>
<event>
 8    1  0.1112929E+005  0.1043930E+01  0.7957747E-01            NaN
         13   -1    0    0    0    0  0.00000000000E+00  0.00000000000E+00  0.74505805969E-08  0.10566000000E+00  0.10566000000E+00 0.  1.
     999900   -1    0    0    0    0 -0.00000000000E+00 -0.00000000000E+00 -0.74505805969E-08  0.93827000000E+00  0.93827000000E+00 0. -1.
     999902    2    1    2    0    0 -0.12964425494E-01 -0.15120812895E-01 -0.13587182367E-01  0.10198192797E+01  0.10195342252E+01 0.  0.
     999903    2    3    3    0    0 -0.27494478999E-01 -0.39668681464E-01  0.11866842947E+00  0.12947930685E+00  0.18792128279E-01 0.  0.
         14    1    1    2    0    0  0.12964425494E-01  0.15120812895E-01  0.13587182367E-01  0.24110720347E-01  0.00000000000E+00 0.  1.
     999901    1    3    3    0    0  0.14530053505E-01  0.24547868569E-01 -0.13225561184E+00  0.89033997280E+00  0.88000000000E+00 0. -1.
        -11    1    4    4    0    0 -0.21535700346E-01 -0.24100743059E-01  0.56301788124E-01  0.64921373001E-01  0.51100000000E-03 0.  1.
         11    1    4    4    0    0 -0.59587786533E-02 -0.15567938405E-01  0.62366641346E-01  0.64557933850E-01  0.51100000000E-03 0. -1.
</event>
<event>
 8    1  0.1112929E+005  0.1043930E+01  0.7957747E-01            NaN
         13   -1    0    0    0    0  0.00000000000E+00  0.00000000000E+00  0.74505805969E-08  0.10566000000E+00  0.10566000000E+00 0. -1.
     999900   -1    0    0    0    0 -0.00000000000E+00 -0.00000000000E+00 -0.74505805969E-08  0.93827000000E+00  0.93827000000E+00 0.  1.
     999902    2    1    2    0    0  0.92558426418E-02  0.20966539206E-01 -0.58761600947E-02  0.10202699990E+01  0.10199956251E+01 0.  0.
     999903    2    3    3    0    0  0.11209369950E+00 -0.29540792398E-01 -0.58339768654E-01  0.13129359574E+00  0.19920436588E-01 0.  0.
         14    1    1    2    0    0 -0.92558426418E-02 -0.20966539206E-01  0.58761600947E-02  0.23660000988E-01  0.00000000000E+00 0.  1.
     999901    1    3    3    0    0 -0.10283785685E+00  0.50507331604E-01  0.52463608560E-01  0.88897640327E+00  0.88000000000E+00 0. -1.
        -11    1    4    4    0    0  0.18140590838E-01 -0.12017249643E-01 -0.14429815733E-01  0.26114670743E-01  0.51100000000E-03 0.  1.
         11    1    4    4    0    0  0.93953108659E-01 -0.17523542754E-01 -0.43909952921E-01  0.10517892500E+00  0.51100000000E-03 0. -1.
</event>
<event>
 8    1  0.1112929E+005  0.1043930E+01  0.7957747E-01            NaN
         13   -1    0    0    0    0  0.00000000000E+00  0.00000000000E+00  0.74505805969E-08  0.10566000000E+00  0.10566000000E+00 0.  1.
     999900   -1    0    0    0    0 -0.00000000000E+00 -0.00000000000E+00 -0.74505805969E-08  0.93827000000E+00  0.93827000000E+00 0. -1.
     999902    2    1    2    0    0  0.22997036429E-01 -0.23165518532E-02  0.50101645078E-02  0.10202798024E+01  0.10200056585E+01 0.  0.
     999903    2    3    3    0    0 -0.91501931948E-01  0.77797237475E-01  0.40536809132E-01  0.12854532654E+00  0.21346062215E-01 0.  0.
         14    1    1    2    0    0 -0.22997036429E-01  0.23165518532E-02 -0.50101645078E-02  0.23650197576E-01  0.00000000000E+00 0.  1.
     999901    1    3    3    0    0  0.11449896838E+00 -0.80113789328E-01 -0.35526644625E-01  0.89173447588E+00  0.88000000000E+00 0. -1.
        -11    1    4    4    0    0 -0.69649613991E-01  0.46627115249E-01  0.25474332582E-01  0.87603420864E-01  0.51100000000E-03 0.  1.
         11    1    4    4    0    0 -0.21852317956E-01  0.31170122226E-01  0.15062476550E-01  0.40941905677E-01  0.51100000000E-03 0. -1.
</event>
<event>
 8    1  0.1112929E+005  0.1043930E+01  0.7957747E-01            NaN
         13   -1    0    0    0    0  0.00000000000E+00  0.00000000000E+00  0.74505805969E-08  0.10566000000E+00  0.10566000000E+00 0.  1.
     999900   -1    0    0    0    0 -0.00000000000E+00 -0.00000000000E+00 -0.74505805969E-08  0.93827000000E+00  0.93827000000E+00 0.  1.
     999902    2    1    2    0    0 -0.26231174447E-01 -0.73840258652E-02 -0.11981805170E-02  0.10166530136E+01  0.10162870244E+01 0.  0.
     999903    2    3    3    0    0 -0.14184326161E-01 -0.34035865417E-01  0.12067520980E+00  0.12777249835E+00  0.20091536339E-01 0.  0.
         14    1    1    2    0    0  0.26231174447E-01  0.73840258652E-02  0.11981805170E-02  0.27276986406E-01  0.00000000000E+00 0. -1.
     999901    1    3    3    0    0 -0.12046848286E-01  0.26651839552E-01 -0.12187339032E+00  0.88888051524E+00  0.88000000000E+00 0.  1.
        -11    1    4    4    0    0 -0.14826668385E-01 -0.10865047113E-01  0.62444308463E-01  0.65095561481E-01  0.51100000000E-03 0.  1.
         11    1    4    4    0    0  0.64234222429E-03 -0.23170818304E-01  0.58230901336E-01  0.62676936874E-01  0.51100000000E-03 0. -1.
</event>
<event>
 7    1  0.1112929E+005  0.1043930E+01  0.7957747E-01            NaN
         13   -1    0    0    0    0  0.00000000000E+00  0.00000000000E+00  0.74505805969E-08  0.10566000000E+00  0.10566000000E+00 0.  1.
     999900   -1    0    0    0    0 -0.00000000000E+00 -0.00000000000E+00 -0.74505805969E-08  0.93827000000E+00  0.93827000000E+00 0. -1.
     999903    2    1    2    0    0 -0.67247454037E-01 -0.83241382439E-01  0.34103449215E-01  0.11425042865E+00  0.20946774785E-01 0.  0.
         14    1    1    2    0    0 -0.79456695863E-02  0.20400083442E-01  0.35285421030E-01  0.41525389906E-01  0.00000000000E+00 0.  1.
     999901    1    1    2    0    0  0.75193123623E-01  0.62841298997E-01 -0.69388870244E-01  0.88815418144E+00  0.88000000000E+00 0. -1.
        -11    1    3    3    0    0 -0.55917990682E-01 -0.54366837124E-01  0.25550384157E-01  0.82071054047E-01  0.51100000000E-03 0.  1.
         11    1    3    3    0    0 -0.11329463355E-01 -0.28874545315E-01  0.85530650577E-02  0.32179374604E-01  0.51100000000E-03 0. -1.
</event>
<event>
 8    1  0.1112929E+005  0.1043930E+01  0.7957747E-01            NaN
         13   -1    0    0    0    0  0.00000000000E+00  0.00000000000E+00  0.74505805969E-08  0.10566000000E+00  0.10566000000E+00 0. -1.
     999900   -1    0    0    0    0 -0.00000000000E+00 -0.00000000000E+00 -0.74505805969E-08  0.93827000000E+00  0.93827000000E+00 0.  1.
     999902    2    1    2    0    0 -0.11250757773E-01  0.18554487657E-01  0.90396080426E-02  0.10204233397E+01  0.10201525519E+01 0.  0.
     999903    2    3    3    0    0  0.50771844095E-01  0.10020319888E+00  0.67636791745E-01  0.13253430100E+00  0.19291037426E-01 0.  0.
         14    1    1    2    0    0  0.11250757773E-01 -0.18554487657E-01 -0.90396080426E-02  0.23506660253E-01  0.00000000000E+00 0.  1.
     999901    1    3    3    0    0 -0.62022601868E-01 -0.81648711227E-01 -0.58597183703E-01  0.88788903875E+00  0.88000000000E+00 0. -1.
        -11    1    4    4    0    0  0.28408222552E-01  0.39472127791E-01  0.35915016270E-01  0.60458460910E-01  0.51100000000E-03 0. -1.
         11    1    4    4    0    0  0.22363621543E-01  0.60731071092E-01  0.31721775475E-01  0.72075840091E-01  0.51100000000E-03 0.  1.
</event>
<event>
 8    1  0.1112929E+005  0.1043930E+01  0.7957747E-01            NaN
         13   -1    0    0    0    0  0.00000000000E+00  0.00000000000E+00  0.74505805969E-08  0.10566000000E+00  0.10566000000E+00 0.  1.
     999900   -1    0    0    0    0 -0.00000000000E+00 -0.00000000000E+00 -0.74505805969E-08  0.93827000000E+00  0.93827000000E+00 0.  1.
     999902    2    1    2    0    0 -0.17685642062E-01  0.15534562337E-01 -0.30882398217E-02  0.10201888588E+01  0.10199125775E+01 0.  0.
     999903    2    3    3    0    0  0.22259514315E-02 -0.75466293487E-01 -0.10338210180E+00  0.12960675358E+00  0.20246858734E-01 0.  0.
         14    1    1    2    0    0  0.17685642062E-01 -0.15534562337E-01  0.30882398217E-02  0.23741141239E-01  0.00000000000E+00 0. -1.
     999901    1    3    3    0    0 -0.19911593494E-01  0.91000855824E-01  0.10029386198E+00  0.89058210518E+00  0.88000000000E+00 0. -1.
        -11    1    4    4    0    0 -0.79746624720E-03 -0.49328547670E-01 -0.81999447842E-01  0.95698025764E-01  0.51100000000E-03 0.  1.
         11    1    4    4    0    0  0.30234176787E-02 -0.26137745817E-01 -0.21382653958E-01  0.33908727817E-01  0.51100000000E-03 0. -1.
</event>
<event>
 8    1  0.1112929E+005  0.1043930E+01  0.7957747E-01            NaN
         13   -1    0    0    0    0  0.00000000000E+00  0.00000000000E+00  0.74505805969E-08  0.10566000000E+00  0.10566000000E+00 0. -1.
     999900   -1    0    0    0    0 -0.00000000000E+00 -0.00000000000E+00 -0.74505805969E-08  0.93827000000E+00  0.93827000000E+00 0.  1.
     999902    2    1    2    0    0  0.18219777624E-02 -0.10791764036E-01 -0.21773183822E-01  0.10195608944E+01  0.10192696229E+01 0.  0.
     999903    2    3    3    0    0 -0.53445553433E-01 -0.10324618293E+00 -0.59579336019E-01  0.13218745288E+00  0.20189699039E-01 0.  0.
         14    1    1    2    0    0 -0.18219777624E-02  0.10791764036E-01  0.21773183822E-01  0.24369105599E-01  0.00000000000E+00 0. -1.
     999901    1    3    3    0    0  0.55267531195E-01  0.92454418891E-01  0.37806152197E-01  0.88737344152E+00  0.88000000000E+00 0. -1.
        -11    1    4    4    0    0 -0.35893941242E-01 -0.73471913136E-01 -0.31413583918E-01  0.87598923586E-01  0.51100000000E-03 0. -1.
         11    1    4    4    0    0 -0.17551612191E-01 -0.29774269790E-01 -0.28165752101E-01  0.44588529292E-01  0.51100000000E-03 0.  1.
</event>
<event>
 8    1  0.1112929E+005  0.1043930E+01  0.7957747E-01            NaN
         13   -1    0    0    0    0  0.00000000000E+00  0.00000000000E+00  0.74505805969E-08  0.10566000000E+00  0.10566000000E+00 0. -1.
     999900   -1    0    0    0    0 -0.00000000000E+00 -0.00000000000E+00 -0.74505805969E-08  0.93827000000E+00  0.93827000000E+00 0.  1.
     999902    2    1    2    0    0  0.96727077836E-02  0.19435740023E-01 -0.82359298821E-02  0.10207106157E+01  0.10204464813E+01 0.  0.
     999903    2    3    3    0    0  0.69227631576E-02 -0.10367426498E+00 -0.74845685680E-01  0.12964356150E+00  0.20231127083E-01 0.  0.
         14    1    1    2    0    0 -0.96727077836E-02 -0.19435740023E-01  0.82359298821E-02  0.23219384297E-01  0.00000000000E+00 0. -1.
     999901    1    3    3    0    0  0.27499446260E-02  0.12311000500E+00  0.66609755798E-01  0.89106705421E+00  0.88000000000E+00 0.  1.
        -11    1    4    4    0    0  0.41912223650E-02 -0.65677833208E-01 -0.35103235341E-01  0.74589827539E-01  0.51100000000E-03 0. -1.
         11    1    4    4    0    0  0.27315407927E-02 -0.37996431773E-01 -0.39742450339E-01  0.55053733956E-01  0.51100000000E-03 0.  1.
</event>
<event>
 8    1  0.1112929E+005  0.1043930E+01  0.7957747E-01            NaN
         13   -1    0    0    0    0  0.00000000000E+00  0.00000000000E+00  0.74505805969E-08  0.10566000000E+00  0.10566000000E+00 0.  1.
     999900   -1    0    0    0    0 -0.00000000000E+00 -0.00000000000E+00 -0.74505805969E-08  0.93827000000E+00  0.93827000000E+00 0.  1.
     999902    2    1    2    0    0  0.20665362477E-01 -0.32641989366E-02 -0.11843521638E-01  0.10198887603E+01  0.10196053659E+01 0.  0.
     999903    2    3    3    0    0 -0.32506933387E-01  0.11072325395E+00 -0.56366630525E-01  0.12983104326E+00  0.19041089052E-01 0.  0.
         14    1    1    2    0    0 -0.20665362477E-01  0.32641989366E-02  0.11843521638E-01  0.24041239690E-01  0.00000000000E+00 0.  1.
     999901    1    3    3    0    0  0.53172295864E-01 -0.11398745289E+00  0.44523108887E-01  0.89005771705E+00  0.88000000000E+00 0. -1.
        -11    1    4    4    0    0 -0.16865835072E-01  0.54824270031E-01 -0.17498981254E-01  0.59971930459E-01  0.51100000000E-03 0.  1.
         11    1    4    4    0    0 -0.15641098315E-01  0.55898983921E-01 -0.38867649271E-01  0.69859112797E-01  0.51100000000E-03 0. -1.
</event>
<event>
 8    1  0.1112929E+005  0.1043930E+01  0.7957747E-01            NaN
         13   -1    0    0    0    0  0.00000000000E+00  0.00000000000E+00  0.74505805969E-08  0.10566000000E+00  0.10566000000E+00 0.  1.
     999900   -1    0    0    0    0 -0.00000000000E+00 -0.00000000000E+00 -0.74505805969E-08  0.93827000000E+00  0.93827000000E+00 0.  1.
     999902    2    1    2    0    0 -0.95774863947E-02 -0.41116711634E-02  0.14130533788E-01  0.10263713534E+01  0.10262211501E+01 0.  0.
     999903    2    3    3    0    0  0.46729269727E-01 -0.92473945490E-01 -0.83835272898E-01  0.13475728801E+00  0.19902724620E-01 0.  0.
         14    1    1    2    0    0  0.95774863947E-02  0.41116711634E-02 -0.14130533788E-01  0.17558646603E-01  0.00000000000E+00 0. -1.
     999901    1    3    3    0    0 -0.56306756122E-01  0.88362274327E-01  0.97965806686E-01  0.89161406538E+00  0.88000000000E+00 0. -1.
        -11    1    4    4    0    0  0.26409476793E-01 -0.64091301110E-01 -0.45559901267E-01  0.82952522969E-01  0.51100000000E-03 0.  1.
         11    1    4    4    0    0  0.20319792934E-01 -0.28382644380E-01 -0.38275371631E-01  0.51804765045E-01  0.51100000000E-03 0. -1.
</event>
<event>
 8    1  0.1112929E+005  0.1043930E+01  0.7957747E-01            NaN
         13   -1    0    0    0    0  0.00000000000E+00  0.00000000000E+00  0.74505805969E-08  0.10566000000E+00  0.10566000000E+00 0. -1.
     999900   -1    0    0    0    0 -0.00000000000E+00 -0.00000000000E+00 -0.74505805969E-08  0.93827000000E+00  0.93827000000E+00 0. -1.
     999902    2    1    2    0    0  0.17844651852E-01  0.15235621111E-01 -0.12007064891E-02  0.10204353741E+01  0.10201648667E+01 0.  0.
     999903    2    3    3    0    0  0.60954715882E-02  0.19899116231E-01 -0.12802010578E+00  0.13125431747E+00  0.20135013546E-01 0.  0.
         14    1    1    2    0    0 -0.17844651852E-01 -0.15235621111E-01  0.12007064891E-02  0.23494625906E-01  0.00000000000E+00 0. -1.
     999901    1    3    3    0    0  0.11749180264E-01 -0.46634951199E-02  0.12681939929E+00  0.88918105662E+00  0.88000000000E+00 0.  1.
        -11    1    4    4    0    0 -0.10468546436E-02  0.43959798222E-02 -0.82678732804E-01  0.82803710800E-01  0.51100000000E-03 0. -1.
         11    1    4    4    0    0  0.71423262318E-02  0.15503136408E-01 -0.45341372974E-01  0.48450606670E-01  0.51100000000E-03 0.  1.
</event>
<event>
 8    1  0.1112929E+005  0.1043930E+01  0.7957747E-01            NaN
         13   -1    0    0    0    0  0.00000000000E+00  0.00000000000E+00  0.74505805969E-08  0.10566000000E+00  0.10566000000E+00 0.  1.
     999900   -1    0    0    0    0 -0.00000000000E+00 -0.00000000000E+00 -0.74505805969E-08  0.93827000000E+00  0.93827000000E+00 0. -1.
     999902    2    1    2    0    0  0.46210233295E-02 -0.13449081816E-01 -0.18448958811E-01  0.10206363155E+01  0.10203704684E+01 0.  0.
     999903    2    3    3    0    0  0.11750635876E-01  0.43892407605E-01  0.11821144403E+00  0.12821548228E+00  0.20016081233E-01 0.  0.
         14    1    1    2    0    0 -0.46210233295E-02  0.13449081816E-01  0.18448958811E-01  0.23293684541E-01  0.00000000000E+00 0.  1.
     999901    1    3    3    0    0 -0.71296125468E-02 -0.57341489421E-01 -0.13666040284E+00  0.89242083318E+00  0.88000000000E+00 0. -1.
        -11    1    4    4    0    0  0.15124899731E-01  0.18098578879E-01  0.53623611670E-01  0.58583905630E-01  0.51100000000E-03 0.  1.
         11    1    4    4    0    0 -0.33742638547E-02  0.25793828726E-01  0.64587832361E-01  0.69631576651E-01  0.51100000000E-03 0. -1.
</event>
<event>
 8    1  0.1112929E+005  0.1043930E+01  0.7957747E-01            NaN
         13   -1    0    0    0    0  0.00000000000E+00  0.00000000000E+00  0.74505805969E-08  0.10566000000E+00  0.10566000000E+00 0.  1.
     999900   -1    0    0    0    0 -0.00000000000E+00 -0.00000000000E+00 -0.74505805969E-08  0.93827000000E+00  0.93827000000E+00 0.  1.
     999902    2    1    2    0    0  0.10286673731E-01 -0.81735584988E-02  0.20137147354E-01  0.10198857196E+01  0.10196022527E+01 0.  0.
     999903    2    3    3    0    0  0.87231069526E-01 -0.92082230303E-02 -0.92941628742E-01  0.12931942778E+00  0.19781738702E-01 0.  0.
         14    1    1    2    0    0 -0.10286673731E-01  0.81735584988E-02 -0.20137147354E-01  0.24044280371E-01  0.00000000000E+00 0. -1.
     999901    1    3    3    0    0 -0.76944395794E-01  0.10346645315E-02  0.11307877610E+00  0.89056629185E+00  0.88000000000E+00 0. -1.
        -11    1    4    4    0    0  0.48637521417E-01 -0.14936687218E-01 -0.51354150777E-01  0.72292620907E-01  0.51100000000E-03 0.  1.
         11    1    4    4    0    0  0.38593548109E-01  0.57284641875E-02 -0.41587477965E-01  0.57026806873E-01  0.51100000000E-03 0. -1.
</event>
<event>
 8    1  0.1112929E+005  0.1043930E+01  0.7957747E-01            NaN
         13   -1    0    0    0    0  0.00000000000E+00  0.00000000000E+00  0.74505805969E-08  0.10566000000E+00  0.10566000000E+00 0.  1.
     999900   -1    0    0    0    0 -0.00000000000E+00 -0.00000000000E+00 -0.74505805969E-08  0.93827000000E+00  0.93827000000E+00 0.  1.
     999902    2    1    2    0    0  0.10941930893E-01 -0.21793215817E-01  0.21245460146E-02  0.10194517688E+01  0.10191578509E+01 0.  0.
     999903    2    3    3    0    0 -0.20935185684E-01 -0.85117270802E-01  0.96144717301E-01  0.13160838220E+00  0.19842575764E-01 0.  0.
         14    1    1    2    0    0 -0.10941930893E-01  0.21793215817E-01 -0.21245460146E-02  0.24478231208E-01  0.00000000000E+00 0.  1.
     999901    1    3    3    0    0  0.31877116577E-01  0.63324054985E-01 -0.94020171286E-01  0.88784338659E+00  0.88000000000E+00 0.  1.
        -11    1    4    4    0    0 -0.18525528686E-01 -0.45171348574E-01  0.42865990512E-01  0.64972303397E-01  0.51100000000E-03 0.  1.
         11    1    4    4    0    0 -0.24096569975E-02 -0.39945922228E-01  0.53278726788E-01  0.66636078806E-01  0.51100000000E-03 0. -1.
</event>
<event>
 8    1  0.1112929E+005  0.1043930E+01  0.7957747E-01            NaN
         13   -1    0    0    0    0  0.00000000000E+00  0.00000000000E+00  0.74505805969E-08  0.10566000000E+00  0.10566000000E+00 0. -1.
     999900   -1    0    0    0    0 -0.00000000000E+00 -0.00000000000E+00 -0.74505805969E-08  0.93827000000E+00  0.93827000000E+00 0.  1.
     999902    2    1    2    0    0  0.15801442922E-01  0.42012567359E-02  0.16628375659E-01  0.10206096434E+01  0.10203431801E+01 0.  0.
     999903    2    3    3    0    0 -0.66693175611E-01  0.10739342484E+00 -0.22057673966E-01  0.12990733839E+00  0.20200203326E-01 0.  0.
         14    1    1    2    0    0 -0.15801442922E-01 -0.42012567359E-02 -0.16628375659E-01  0.23320356636E-01  0.00000000000E+00 0.  1.
     999901    1    3    3    0    0  0.82494618533E-01 -0.10319216811E+00  0.38686049626E-01  0.89070230497E+00  0.88000000000E+00 0. -1.
        -11    1    4    4    0    0 -0.37081867788E-01  0.76049818792E-01 -0.18718954209E-01  0.86656218615E-01  0.51100000000E-03 0. -1.
         11    1    4    4    0    0 -0.29611307824E-01  0.31343606052E-01 -0.33387197573E-02  0.43251119778E-01  0.51100000000E-03 0.  1.
</event>
<event>
 8    1  0.1112929E+005  0.1043930E+01  0.7957747E-01            NaN
         13   -1    0    0    0    0  0.00000000000E+00  0.00000000000E+00  0.74505805969E-08  0.10566000000E+00  0.10566000000E+00 0. -1.
     999900   -1    0    0    0    0 -0.00000000000E+00 -0.00000000000E+00 -0.74505805969E-08  0.93827000000E+00  0.93827000000E+00 0. -1.
     999902    2    1    2    0    0  0.18673045394E-01  0.11302703389E-01  0.74331155123E-03  0.10220899853E+01  0.10218566200E+01 0.  0.
     999903    2    3    3    0    0 -0.82089787632E-02 -0.12206827139E+00  0.40815822599E-01  0.13073356601E+00  0.21384192638E-01 0.  0.
         14    1    1    2    0    0 -0.18673045394E-01 -0.11302703389E-01 -0.74331155123E-03  0.21840014658E-01  0.00000000000E+00 0. -1.
     999901    1    3    3    0    0  0.26882024158E-01  0.13337097478E+00 -0.40072511048E-01  0.89135641933E+00  0.88000000000E+00 0.  1.
        -11    1    4    4    0    0  0.72347936972E-02 -0.46636974262E-01  0.15037892498E-01  0.49535330219E-01  0.51100000000E-03 0.  1.
         11    1    4    4    0    0 -0.15443772460E-01 -0.75431297132E-01  0.25777930101E-01  0.81198235794E-01  0.51100000000E-03 0. -1.
</event>
<event>
 8    1  0.1112929E+005  0.1043930E+01  0.7957747E-01            NaN
         13   -1    0    0    0    0  0.00000000000E+00  0.00000000000E+00  0.74505805969E-08  0.10566000000E+00  0.10566000000E+00 0. -1.
     999900   -1    0    0    0    0 -0.00000000000E+00 -0.00000000000E+00 -0.74505805969E-08  0.93827000000E+00  0.93827000000E+00 0. -1.
     999902    2    1    2    0    0  0.17113068184E-01  0.14288868592E-01 -0.64794759193E-02  0.10207133578E+01  0.10204492865E+01 0.  0.
     999903    2    3    3    0    0 -0.99053563784E-01 -0.69685134510E-01  0.36188741442E-01  0.12809535641E+00  0.20764605855E-01 0.  0.
         14    1    1    2    0    0 -0.17113068184E-01 -0.14288868592E-01  0.64794759193E-02  0.23216642231E-01  0.00000000000E+00 0.  1.
     999901    1    3    3    0    0  0.11616663197E+00  0.83974003102E-01 -0.42668217362E-01  0.89261800136E+00  0.88000000000E+00 0. -1.
        -11    1    4    4    0    0 -0.40959169439E-01 -0.29238613354E-01  0.25776989448E-01  0.56544357614E-01  0.51100000000E-03 0.  1.
         11    1    4    4    0    0 -0.58094394345E-01 -0.40446521156E-01  0.10411751995E-01  0.71550998795E-01  0.51100000000E-03 0. -1.
</event>
<event>
 8    1  0.1112929E+005  0.1043930E+01  0.7957747E-01            NaN
         13   -1    0    0    0    0  0.00000000000E+00  0.00000000000E+00  0.74505805969E-08  0.10566000000E+00  0.10566000000E+00 0.  1.
     999900   -1    0    0    0    0 -0.00000000000E+00 -0.00000000000E+00 -0.74505805969E-08  0.93827000000E+00  0.93827000000E+00 0. -1.
     999902    2    1    2    0    0  0.18964413374E-01 -0.14767613362E-01 -0.37764661331E-02  0.10195990922E+01  0.10193087440E+01 0.  0.
     999903    2    3    3    0    0 -0.58014529963E-01  0.86884931319E-01 -0.70993332440E-01  0.12787205733E+00  0.19913131806E-01 0.  0.
         14    1    1    2    0    0 -0.18964413374E-01  0.14767613362E-01  0.37764661331E-02  0.24330907823E-01  0.00000000000E+00 0.  1.
     999901    1    3    3    0    0  0.76978943337E-01 -0.10165254468E+00  0.67216866307E-01  0.89172703484E+00  0.88000000000E+00 0. -1.
        -11    1    4    4    0    0 -0.37107029125E-01  0.38341392947E-01 -0.32413958867E-01  0.62433323426E-01  0.51100000000E-03 0. -1.
         11    1    4    4    0    0 -0.20907500838E-01  0.48543538371E-01 -0.38579373573E-01  0.65438733905E-01  0.51100000000E-03 0.  1.
</event>
<event>
 8    1  0.1112929E+005  0.1043930E+01  0.7957747E-01            NaN
         13   -1    0    0    0    0  0.00000000000E+00  0.00000000000E+00  0.74505805969E-08  0.10566000000E+00  0.10566000000E+00 0.  1.
     999900   -1    0    0    0    0 -0.00000000000E+00 -0.00000000000E+00 -0.74505805969E-08  0.93827000000E+00  0.93827000000E+00 0. -1.
     999902    2    1    2    0    0 -0.15358428570E-01  0.17633796380E-01 -0.17666590790E-02  0.10204789193E+01  0.10202094253E+01 0.  0.
     999903    2    3    3    0    0  0.33745753160E-01 -0.30209321506E-01  0.11954207889E+00  0.12951539898E+00  0.20797860078E-01 0.  0.
         14    1    1    2    0    0  0.15358428570E-01 -0.17633796380E-01  0.17666590790E-02  0.23451080726E-01  0.00000000000E+00 0.  1.
     999901    1    3    3    0    0 -0.49104181730E-01  0.47843117886E-01 -0.12130873797E+00  0.89096352030E+00  0.88000000000E+00 0. -1.
        -11    1    4    4    0    0  0.16469782822E-01 -0.27046509998E-01  0.66886212564E-01  0.74005364680E-01  0.51100000000E-03 0.  1.
         11    1    4    4    0    0  0.17275970338E-01 -0.31628115086E-02  0.52655866329E-01  0.55510034297E-01  0.51100000000E-03 0. -1.
</event>
<event>
 8    1  0.1112929E+005  0.1043930E+01  0.7957747E-01            NaN
         13   -1    0    0    0    0  0.00000000000E+00  0.00000000000E+00  0.74505805969E-08  0.10566000000E+00  0.10566000000E+00 0. -1.
     999900   -1    0    0    0    0 -0.00000000000E+00 -0.00000000000E+00 -0.74505805969E-08  0.93827000000E+00  0.93827000000E+00 0.  1.
     999902    2    1    2    0    0 -0.18405482354E-01  0.14489431363E-01  0.45579292551E-02  0.10200662174E+01  0.10197870404E+01 0.  0.
     999903    2    3    3    0    0 -0.19172475109E-01 -0.60414398348E-01  0.11226931682E+00  0.13033990272E+00  0.19146994881E-01 0.  0.
         14    1    1    2    0    0  0.18405482354E-01 -0.14489431363E-01 -0.45579292551E-02  0.23863782622E-01  0.00000000000E+00 0.  1.
     999901    1    3    3    0    0  0.76699275491E-03  0.74903829712E-01 -0.10771138756E+00  0.88972631466E+00  0.88000000000E+00 0.  1.
        -11    1    4    4    0    0 -0.10930595215E-01 -0.34091117414E-01  0.81475146290E-01  0.88995184040E-01  0.51100000000E-03 0. -1.
         11    1    4    4    0    0 -0.82418798939E-02 -0.26323280934E-01  0.30794170528E-01  0.41344718681E-01  0.51100000000E-03 0.  1.
</event>
<event>
 8    1  0.1112929E+005  0.1043930E+01  0.7957747E-01            NaN
         13   -1    0    0    0    0  0.00000000000E+00  0.00000000000E+00  0.74505805969E-08  0.10566000000E+00  0.10566000000E+00 0.  1.
     999900   -1    0    0    0    0 -0.00000000000E+00 -0.00000000000E+00 -0.74505805969E-08  0.93827000000E+00  0.93827000000E+00 0. -1.
     999902    2    1    2    0    0 -0.53001339366E-02 -0.17725057156E-01 -0.14806171472E-01  0.10202341821E+01  0.10199589671E+01 0.  0.
     999903    2    3    3    0    0 -0.68606262651E-01  0.86031594457E-01  0.63074973664E-01  0.12847267732E+00  0.20457810144E-01 0.  0.
         14    1    1    2    0    0  0.53001339366E-02  0.17725057156E-01  0.14806171472E-01  0.23695817871E-01  0.00000000000E+00 0.  1.
     999901    1    3    3    0    0  0.63306128714E-01 -0.10375665161E+00 -0.77881145136E-01  0.89176150481E+00  0.88000000000E+00 0. -1.
        -11    1    4    4    0    0 -0.45948590472E-01  0.61987137710E-01  0.33470416677E-01  0.84108311845E-01  0.51100000000E-03 0. -1.
         11    1    4    4    0    0 -0.22657672178E-01  0.24044456747E-01  0.29604556987E-01  0.44364365477E-01  0.51100000000E-03 0.  1.
</event>
<event>
 8    1  0.1112929E+005  0.1043930E+01  0.7957747E-01            NaN
         13   -1    0    0    0    0  0.00000000000E+00  0.00000000000E+00  0.74505805969E-08  0.10566000000E+00  0.10566000000E+00 0.  1.
     999900   -1    0    0    0    0 -0.00000000000E+00 -0.00000000000E+00 -0.74505805969E-08  0.93827000000E+00  0.93827000000E+00 0.  1.
     999902    2    1    2    0    0 -0.77624243071E-02 -0.44223022594E-02  0.25944020364E-01  0.10164909005E+01  0.10161204882E+01 0.  0.
     999903    2    3    3    0    0  0.18914227749E-01  0.25939253858E-01  0.12446377515E+00  0.13007135540E+00  0.19918164294E-01 0.  0.
         14    1    1    2    0    0  0.77624243071E-02  0.44223022594E-02 -0.25944020364E-01  0.27439099494E-01  0.00000000000E+00 0. -1.
     999901    1    3    3    0    0 -0.26676652056E-01 -0.30361556118E-01 -0.98519754790E-01  0.88641954510E+00  0.88000000000E+00 0.  1.
        -11    1    4    4    0    0  0.17558136763E-01  0.24447376600E-01  0.78709885843E-01  0.84270217987E-01  0.51100000000E-03 0. -1.
         11    1    4    4    0    0  0.13560909861E-02  0.14918772579E-02  0.45753889312E-01  0.45801137417E-01  0.51100000000E-03 0.  1.
</event>
<event>
 8    1  0.1112929E+005  0.1043930E+01  0.7957747E-01            NaN
         13   -1    0    0    0    0  0.00000000000E+00  0.00000000000E+00  0.74505805969E-08  0.10566000000E+00  0.10566000000E+00 0.  1.
     999900   -1    0    0    0    0 -0.00000000000E+00 -0.00000000000E+00 -0.74505805969E-08  0.93827000000E+00  0.93827000000E+00 0. -1.
     999902    2    1    2    0    0 -0.14615903303E-01  0.14229438525E-01  0.13240458354E-01  0.10196110509E+01  0.10193209915E+01 0.  0.
     999903    2    3    3    0    0  0.11626486978E+00  0.50928845098E-01  0.13672888783E-01  0.12917474757E+00  0.19695185082E-01 0.  0.
         14    1    1    2    0    0  0.14615903303E-01 -0.14229438525E-01 -0.13240458354E-01  0.24318949145E-01  0.00000000000E+00 0.  1.
     999901    1    3    3    0    0 -0.13088077308E+00 -0.36699406574E-01 -0.43243042929E-03  0.89043630328E+00  0.88000000000E+00 0.  1.
        -11    1    4    4    0    0  0.10170454266E+00  0.47341153629E-01  0.17860291698E-01  0.11359687481E+00  0.51100000000E-03 0.  1.
         11    1    4    4    0    0  0.14560327116E-01  0.35876914697E-02 -0.41874029149E-02  0.15577872768E-01  0.51100000000E-03 0. -1.
</event>
<event>
 8    1  0.1112929E+005  0.1043930E+01  0.7957747E-01            NaN
         13   -1    0    0    0    0  0.00000000000E+00  0.00000000000E+00  0.74505805969E-08  0.10566000000E+00  0.10566000000E+00 0.  1.
     999900   -1    0    0    0    0 -0.00000000000E+00 -0.00000000000E+00 -0.74505805969E-08  0.93827000000E+00  0.93827000000E+00 0.  1.
     999902    2    1    2    0    0  0.22610528932E-01 -0.10570100429E-02  0.24397506552E-02  0.10211636724E+01  0.10209098590E+01 0.  0.
     999903    2    3    3    0    0  0.76873527664E-01 -0.98301213909E-01 -0.41725790160E-01  0.13304684270E+00  0.19691441688E-01 0.  0.
         14    1    1    2    0    0 -0.22610528932E-01  0.10570100429E-02 -0.24397506552E-02  0.22766327594E-01  0.00000000000E+00 0. -1.
     999901    1    3    3    0    0 -0.54262998731E-01  0.97244203866E-01  0.44165540815E-01  0.88811682971E+00  0.88000000000E+00 0. -1.
        -11    1    4    4    0    0  0.24316720297E-01 -0.46715157413E-01 -0.18621229675E-01  0.55862510987E-01  0.51100000000E-03 0.  1.
         11    1    4    4    0    0  0.52556807367E-01 -0.51586056496E-01 -0.23104560485E-01  0.77184331710E-01  0.51100000000E-03 0. -1.
</event>
<event>
 8    1  0.1112929E+005  0.1043930E+01  0.7957747E-01            NaN
         13   -1    0    0    0    0  0.00000000000E+00  0.00000000000E+00  0.74505805969E-08  0.10566000000E+00  0.10566000000E+00 0. -1.
     999900   -1    0    0    0    0 -0.00000000000E+00 -0.00000000000E+00 -0.74505805969E-08  0.93827000000E+00  0.93827000000E+00 0. -1.
     999902    2    1    2    0    0  0.21900246350E-01  0.10289375375E-02 -0.86490810686E-02  0.10203612473E+01  0.10200890102E+01 0.  0.
     999903    2    3    3    0    0  0.22867181960E-01  0.10165129551E+00 -0.78339130493E-01  0.13188924608E+00  0.20046445419E-01 0.  0.
         14    1    1    2    0    0 -0.21900246350E-01 -0.10289375375E-02  0.86490810686E-02  0.23568752745E-01  0.00000000000E+00 0. -1.
     999901    1    3    3    0    0 -0.96693561007E-03 -0.10062235798E+00  0.69690049424E-01  0.88847200118E+00  0.88000000000E+00 0. -1.
        -11    1    4    4    0    0  0.80180868571E-02  0.32943145740E-01 -0.37639670287E-01  0.50661094228E-01  0.51100000000E-03 0. -1.
         11    1    4    4    0    0  0.14849095103E-01  0.68708149773E-01 -0.40699460206E-01  0.81228151848E-01  0.51100000000E-03 0.  1.
</event>
<event>
 8    1  0.1112929E+005  0.1043930E+01  0.7957747E-01            NaN
         13   -1    0    0    0    0  0.00000000000E+00  0.00000000000E+00  0.74505805969E-08  0.10566000000E+00  0.10566000000E+00 0. -1.
     999900   -1    0    0    0    0 -0.00000000000E+00 -0.00000000000E+00 -0.74505805969E-08  0.93827000000E+00  0.93827000000E+00 0.  1.
     999902    2    1    2    0    0  0.10810795549E-01 -0.36651370039E-02  0.21263103140E-01  0.10197964946E+01  0.10195108946E+01 0.  0.
     999903    2    3    3    0    0  0.10234914047E+00 -0.99628734715E-03 -0.76946440214E-01  0.12961027485E+00  0.20043191947E-01 0.  0.
         14    1    1    2    0    0 -0.10810795549E-01  0.36651370039E-02 -0.21263103140E-01  0.24133505440E-01  0.00000000000E+00 0.  1.
     999901    1    3    3    0    0 -0.91538344917E-01 -0.26688496567E-02  0.98209543354E-01  0.89018621971E+00  0.88000000000E+00 0. -1.
        -11    1    4    4    0    0  0.39616490966E-01 -0.12671980565E-02 -0.18032655939E-01  0.43548937399E-01  0.51100000000E-03 0. -1.
         11    1    4    4    0    0  0.62732649501E-01  0.27091070933E-03 -0.58913784275E-01  0.86061337455E-01  0.51100000000E-03 0.  1.
</event>
<event>
 8    1  0.1112929E+005  0.1043930E+01  0.7957747E-01            NaN
         13   -1    0    0    0    0  0.00000000000E+00  0.00000000000E+00  0.74505805969E-08  0.10566000000E+00  0.10566000000E+00 0. -1.
     999900   -1    0    0    0    0 -0.00000000000E+00 -0.00000000000E+00 -0.74505805969E-08  0.93827000000E+00  0.93827000000E+00 0.  1.
     999902    2    1    2    0    0  0.58374567775E-02 -0.23814839076E-01 -0.29641463496E-02  0.10192316473E+01  0.10189323541E+01 0.  0.
     999903    2    3    3    0    0 -0.92586087316E-01  0.26425549604E-01 -0.83170812190E-01  0.12870124360E+00  0.19394145211E-01 0.  0.
         14    1    1    2    0    0 -0.58374567775E-02  0.23814839076E-01  0.29641463496E-02  0.24698352686E-01  0.00000000000E+00 0.  1.
     999901    1    3    3    0    0  0.98423544093E-01 -0.50240388680E-01  0.80206665841E-01  0.89053040371E+00  0.88000000000E+00 0. -1.
        -11    1    4    4    0    0 -0.29367330934E-01  0.45538281978E-02 -0.15403241959E-01  0.33476834696E-01  0.51100000000E-03 0. -1.
         11    1    4    4    0    0 -0.63218756382E-01  0.21871721407E-01 -0.67767570232E-01  0.95224408908E-01  0.51100000000E-03 0.  1.
</event>
<event>
 8    1  0.1112929E+005  0.1043930E+01  0.7957747E-01            NaN
         13   -1    0    0    0    0  0.00000000000E+00  0.00000000000E+00  0.74505805969E-08  0.10566000000E+00  0.10566000000E+00 0.  1.
     999900   -1    0    0    0    0 -0.00000000000E+00 -0.00000000000E+00 -0.74505805969E-08  0.93827000000E+00  0.93827000000E+00 0.  1.
     999902    2    1    2    0    0 -0.15597309754E-01  0.22860923237E-01  0.26879208734E-02  0.10161249141E+01  0.10157444158E+01 0.  0.
     999903    2    3    3    0    0  0.80389786603E-01 -0.34258890047E-01 -0.86432506376E-01  0.12459889301E+00  0.20447900731E-01 0.  0.
         14    1    1    2    0    0  0.15597309754E-01 -0.22860923237E-01 -0.26879208734E-02  0.27805085892E-01  0.00000000000E+00 0.  1.
     999901    1    3    3    0    0 -0.95987096357E-01  0.57119813285E-01  0.89120427249E-01  0.89152602110E+00  0.88000000000E+00 0. -1.
        -11    1    4    4    0    0  0.71878163205E-01 -0.26140815945E-01 -0.81685955148E-01  0.11190473177E+00  0.51100000000E-03 0. -1.
         11    1    4    4    0    0  0.85116233982E-02 -0.81180741023E-02 -0.47465512279E-02  0.12694161239E-01  0.51100000000E-03 0.  1.
</event>
<event>
 8    1  0.1112929E+005  0.1043930E+01  0.7957747E-01            NaN
         13   -1    0    0    0    0  0.00000000000E+00  0.00000000000E+00  0.74505805969E-08  0.10566000000E+00  0.10566000000E+00 0. -1.
     999900   -1    0    0    0    0 -0.00000000000E+00 -0.00000000000E+00 -0.74505805969E-08  0.93827000000E+00  0.93827000000E+00 0.  1.
     999902    2    1    2    0    0  0.12550760140E-01  0.15144705716E-01  0.14018842382E-01  0.10197760845E+01  0.10194899955E+01 0.  0.
     999903    2    3    3    0    0  0.12818394472E+00  0.14925568000E-02  0.23878458108E-01  0.13205167539E+00  0.20835373785E-01 0.  0.
         14    1    1    2    0    0 -0.12550760140E-01 -0.15144705716E-01 -0.14018842382E-01  0.24153915481E-01  0.00000000000E+00 0.  1.
     999901    1    3    3    0    0 -0.11563318458E+00  0.13652148916E-01 -0.98596157261E-02  0.88772440913E+00  0.88000000000E+00 0. -1.
        -11    1    4    4    0    0  0.57858226558E-01  0.10860125938E-01  0.12746522609E-01  0.60234970536E-01  0.51100000000E-03 0. -1.
         11    1    4    4    0    0  0.70325718163E-01 -0.93675691377E-02  0.11131935500E-01  0.71816704851E-01  0.51100000000E-03 0.  1.
</event>
<event>
 8    1  0.1112929E+005  0.1043930E+01  0.7957747E-01            NaN
         13   -1    0    0    0    0  0.00000000000E+00  0.00000000000E+00  0.74505805969E-08  0.10566000000E+00  0.10566000000E+00 0.  1.
     999900   -1    0    0    0    0 -0.00000000000E+00 -0.00000000000E+00 -0.74505805969E-08  0.93827000000E+00  0.93827000000E+00 0. -1.
     999902    2    1    2    0    0 -0.11996229588E-01  0.20936134438E-01 -0.16601714631E-02  0.10197434868E+01  0.10194566158E+01 0.  0.
     999903    2    3    3    0    0  0.90701210564E-01 -0.14459626028E-02  0.89228514693E-01  0.12884030705E+00  0.20231077133E-01 0.  0.
         14    1    1    2    0    0  0.11996229588E-01 -0.20936134438E-01  0.16601714631E-02  0.24186513160E-01  0.00000000000E+00 0. -1.
     999901    1    3    3    0    0 -0.10269744015E+00  0.22382097041E-01 -0.90888686156E-01  0.89090317979E+00  0.88000000000E+00 0. -1.
        -11    1    4    4    0    0  0.53151452039E-01  0.25334805979E-02  0.64863121844E-01  0.83898635711E-01  0.51100000000E-03 0. -1.
         11    1    4    4    0    0  0.37549758525E-01 -0.39794432007E-02  0.24365392848E-01  0.44941671343E-01  0.51100000000E-03 0.  1.
</event>
<event>
 8    1  0.1112929E+005  0.1043930E+01  0.7957747E-01            NaN
         13   -1    0    0    0    0  0.00000000000E+00  0.00000000000E+00  0.74505805969E-08  0.10566000000E+00  0.10566000000E+00 0. -1.
     999900   -1    0    0    0    0 -0.00000000000E+00 -0.00000000000E+00 -0.74505805969E-08  0.93827000000E+00  0.93827000000E+00 0.  1.
     999902    2    1    2    0    0  0.51325853450E-02  0.25441586422E-02 -0.21577829872E-01  0.10216047023E+01  0.10213607339E+01 0.  0.
     999903    2    3    3    0    0  0.41899416123E-02 -0.64108683005E-01  0.11029982612E+00  0.12928457699E+00  0.20517586539E-01 0.  0.
         14    1    1    2    0    0 -0.51325853450E-02 -0.25441586422E-02  0.21577829872E-01  0.22325297702E-01  0.00000000000E+00 0. -1.
     999901    1    3    3    0    0  0.94264373267E-03  0.66652841647E-01 -0.13187765600E+00  0.89232012531E+00  0.88000000000E+00 0.  1.
        -11    1    4    4    0    0 -0.77064412892E-02 -0.26592157259E-01  0.38822309540E-01  0.47686108083E-01  0.51100000000E-03 0.  1.
         11    1    4    4    0    0  0.11896382902E-01 -0.37516525746E-01  0.71477516584E-01  0.81598468908E-01  0.51100000000E-03 0. -1.
</event>
<event>
 8    1  0.1112929E+005  0.1043930E+01  0.7957747E-01            NaN
         13   -1    0    0    0    0  0.00000000000E+00  0.00000000000E+00  0.74505805969E-08  0.10566000000E+00  0.10566000000E+00 0. -1.
     999900   -1    0    0    0    0 -0.00000000000E+00 -0.00000000000E+00 -0.74505805969E-08  0.93827000000E+00  0.93827000000E+00 0. -1.
     999902    2    1    2    0    0 -0.48692077375E-02 -0.63145868348E-02 -0.21774948612E-01  0.10207409600E+01  0.10204775234E+01 0.  0.
     999903    2    3    3    0    0  0.36054116608E-01  0.12236192635E+00  0.81287118700E-02  0.12993986407E+00  0.23365615207E-01 0.  0.
         14    1    1    2    0    0  0.48692077375E-02  0.63145868348E-02  0.21774948612E-01  0.23189040039E-01  0.00000000000E+00 0. -1.
     999901    1    3    3    0    0 -0.40923324345E-01 -0.12867651319E+00 -0.29903660482E-01  0.89080109589E+00  0.88000000000E+00 0. -1.
        -11    1    4    4    0    0  0.32097822590E-01  0.71208756733E-01  0.89763652398E-02  0.78624382379E-01  0.51100000000E-03 0.  1.
         11    1    4    4    0    0  0.39562940177E-02  0.51153169619E-01 -0.84765336981E-03  0.51315481696E-01  0.51100000000E-03 0. -1.
</event>
<event>
 8    1  0.1112929E+005  0.1043930E+01  0.7957747E-01            NaN
         13   -1    0    0    0    0  0.00000000000E+00  0.00000000000E+00  0.74505805969E-08  0.10566000000E+00  0.10566000000E+00 0.  1.
     999900   -1    0    0    0    0 -0.00000000000E+00 -0.00000000000E+00 -0.74505805969E-08  0.93827000000E+00  0.93827000000E+00 0.  1.
     999902    2    1    2    0    0 -0.16017934258E-01 -0.17107879384E-01  0.37997326711E-02  0.10201878071E+01  0.10199115011E+01 0.  0.
     999903    2    3    3    0    0 -0.44677489846E-01  0.27153255154E-02 -0.12140004189E+00  0.13064336576E+00  0.18062883338E-01 0.  0.
         14    1    1    2    0    0  0.16017934258E-01  0.17107879384E-01 -0.37997326711E-02  0.23742192891E-01  0.00000000000E+00 0. -1.
     999901    1    3    3    0    0  0.28659555588E-01 -0.19823204899E-01  0.12519977456E+00  0.88954444135E+00  0.88000000000E+00 0. -1.
        -11    1    4    4    0    0 -0.23456155193E-01  0.19374422207E-02 -0.39044619383E-01  0.45592634521E-01  0.51100000000E-03 0. -1.
         11    1    4    4    0    0 -0.21221334653E-01  0.77788329470E-03 -0.82355422511E-01  0.85050731242E-01  0.51100000000E-03 0.  1.
</event>
<event>
 8    1  0.1112929E+005  0.1043930E+01  0.7957747E-01            NaN
         13   -1    0    0    0    0  0.00000000000E+00  0.00000000000E+00  0.74505805969E-08  0.10566000000E+00  0.10566000000E+00 0.  1.
     999900   -1    0    0    0    0 -0.00000000000E+00 -0.00000000000E+00 -0.74505805969E-08  0.93827000000E+00  0.93827000000E+00 0.  1.
     999902    2    1    2    0    0 -0.18349314795E-01 -0.31503836975E-02  0.11554166598E-01  0.10220183356E+01  0.10217834199E+01 0.  0.
     999903    2    3    3    0    0 -0.12847298255E+00 -0.32057472101E-01 -0.14897048981E-01  0.13428948693E+00  0.16695971610E-01 0.  0.
         14    1    1    2    0    0  0.18349314795E-01  0.31503836975E-02 -0.11554166598E-01  0.21911664397E-01  0.00000000000E+00 0.  1.
     999901    1    3    3    0    0  0.11012366776E+00  0.28907088404E-01  0.26451215579E-01  0.88772884867E+00  0.88000000000E+00 0.  1.
        -11    1    4    4    0    0 -0.11999257132E-01 -0.76589674996E-02 -0.39628421180E-02  0.14785370929E-01  0.51100000000E-03 0. -1.
         11    1    4    4    0    0 -0.11647372542E+00 -0.24398504602E-01 -0.10934206863E-01  0.11950411600E+00  0.51100000000E-03 0.  1.
</event>
<event>
 8    1  0.1112929E+005  0.1043930E+01  0.7957747E-01            NaN
         13   -1    0    0    0    0  0.00000000000E+00  0.00000000000E+00  0.74505805969E-08  0.10566000000E+00  0.10566000000E+00 0.  1.
     999900   -1    0    0    0    0 -0.00000000000E+00 -0.00000000000E+00 -0.74505805969E-08  0.93827000000E+00  0.93827000000E+00 0. -1.
     999902    2    1    2    0    0 -0.15822127866E-01  0.78993157308E-03 -0.17746442044E-01  0.10201413488E+01  0.10198639476E+01 0.  0.
     999903    2    3    3    0    0  0.10544760910E+00  0.28747428267E-01  0.62983993872E-01  0.12772587714E+00  0.20032556233E-01 0.  0.
         14    1    1    2    0    0  0.15822127866E-01 -0.78993157308E-03  0.17746442044E-01  0.23788651230E-01  0.00000000000E+00 0.  1.
     999901    1    3    3    0    0 -0.12126973697E+00 -0.27957496694E-01 -0.80730435916E-01  0.89241547163E+00  0.88000000000E+00 0. -1.
        -11    1    4    4    0    0  0.77789536417E-01  0.28464671758E-01  0.41207730652E-01  0.92519120731E-01  0.51100000000E-03 0. -1.
         11    1    4    4    0    0  0.27658072685E-01  0.28275650935E-03  0.21776263220E-01  0.35206756407E-01  0.51100000000E-03 0.  1.
</event>
<event>
 8    1  0.1112929E+005  0.1043930E+01  0.7957747E-01            NaN
         13   -1    0    0    0    0  0.00000000000E+00  0.00000000000E+00  0.74505805969E-08  0.10566000000E+00  0.10566000000E+00 0. -1.
     999900   -1    0    0    0    0 -0.00000000000E+00 -0.00000000000E+00 -0.74505805969E-08  0.93827000000E+00  0.93827000000E+00 0.  1.
     999902    2    1    2    0    0  0.18201701091E-01  0.27197472730E-02  0.14904455134E-01  0.10202479027E+01  0.10199730101E+01 0.  0.
     999903    2    3    3    0    0 -0.61965385084E-01 -0.10160460237E+00 -0.44115659390E-01  0.12851155967E+00  0.20145108443E-01 0.  0.
         14    1    1    2    0    0 -0.18201701091E-01 -0.27197472730E-02 -0.14904455134E-01  0.23682097261E-01  0.00000000000E+00 0.  1.
     999901    1    3    3    0    0  0.80167086174E-01  0.10432434964E+00  0.59020114524E-01  0.89173634307E+00  0.88000000000E+00 0. -1.
        -11    1    4    4    0    0 -0.33654914908E-01 -0.67763813421E-01 -0.35401566772E-01  0.83535140856E-01  0.51100000000E-03 0.  1.
         11    1    4    4    0    0 -0.28310470176E-01 -0.33840788947E-01 -0.87140926177E-02  0.44976418814E-01  0.51100000000E-03 0. -1.
</event>
<event>
 8    1  0.1112929E+005  0.1043930E+01  0.7957747E-01            NaN
         13   -1    0    0    0    0  0.00000000000E+00  0.00000000000E+00  0.74505805969E-08  0.10566000000E+00  0.10566000000E+00 0. -1.
     999900   -1    0    0    0    0 -0.00000000000E+00 -0.00000000000E+00 -0.74505805969E-08  0.93827000000E+00  0.93827000000E+00 0.  1.
     999902    2    1    2    0    0  0.14541122770E-01  0.14361389174E-01  0.12238370480E-01  0.10201083405E+01  0.10198301598E+01 0.  0.
     999903    2    3    3    0    0  0.77948116537E-01  0.99212983246E-01  0.37316675976E-01  0.13340142087E+00  0.22006359707E-01 0.  0.
         14    1    1    2    0    0 -0.14541122770E-01 -0.14361389174E-01 -0.12238370480E-01  0.23821659523E-01  0.00000000000E+00 0.  1.
     999901    1    3    3    0    0 -0.63406993767E-01 -0.84851594073E-01 -0.25078305496E-01  0.88670691961E+00  0.88000000000E+00 0. -1.
        -11    1    4    4    0    0  0.46103975975E-01  0.60293337437E-01  0.11166262904E-01  0.76719030809E-01  0.51100000000E-03 0.  1.
         11    1    4    4    0    0  0.31844140562E-01  0.38919645809E-01  0.26150413072E-01  0.56682390060E-01  0.51100000000E-03 0. -1.
</event>
<event>
 8    1  0.1112929E+005  0.1043930E+01  0.7957747E-01            NaN
         13   -1    0    0    0    0  0.00000000000E+00  0.00000000000E+00  0.74505805969E-08  0.10566000000E+00  0.10566000000E+00 0. -1.
     999900   -1    0    0    0    0 -0.00000000000E+00 -0.00000000000E+00 -0.74505805969E-08  0.93827000000E+00  0.93827000000E+00 0. -1.
     999902    2    1    2    0    0 -0.18218926924E-01  0.15462262743E-01 -0.32074357355E-02  0.10198198670E+01  0.10195348266E+01 0.  0.
     999903    2    3    3    0    0 -0.42632075937E-01 -0.28454403548E-01  0.11788095294E+00  0.13010807477E+00  0.20125731645E-01 0.  0.
         14    1    1    2    0    0  0.18218926924E-01 -0.15462262743E-01  0.32074357355E-02  0.24110132961E-01  0.00000000000E+00 0. -1.
     999901    1    3    3    0    0  0.24413149013E-01  0.43916666292E-01 -0.12108838868E+00  0.88971179227E+00  0.88000000000E+00 0. -1.
        -11    1    4    4    0    0 -0.17025638297E-01 -0.27157243378E-02  0.24916203682E-01  0.30303891582E-01  0.51100000000E-03 0. -1.
         11    1    4    4    0    0 -0.25606437640E-01 -0.25738679211E-01  0.92964749263E-01  0.99804183192E-01  0.51100000000E-03 0.  1.
</event>
<event>
 8    1  0.1112929E+005  0.1043930E+01  0.7957747E-01            NaN
         13   -1    0    0    0    0  0.00000000000E+00  0.00000000000E+00  0.74505805969E-08  0.10566000000E+00  0.10566000000E+00 0.  1.
     999900   -1    0    0    0    0 -0.00000000000E+00 -0.00000000000E+00 -0.74505805969E-08  0.93827000000E+00  0.93827000000E+00 0.  1.
     999902    2    1    2    0    0 -0.21428588508E-01 -0.93107176166E-02  0.57389580545E-02  0.10198715398E+01  0.10195877344E+01 0.  0.
     999903    2    3    3    0    0 -0.61609735418E-02 -0.30038874594E-01 -0.12477614717E+00  0.12987325370E+00  0.18912523449E-01 0.  0.
         14    1    1    2    0    0  0.21428588508E-01  0.93107176166E-02 -0.57389580545E-02  0.24058460207E-01  0.00000000000E+00 0. -1.
     999901    1    3    3    0    0 -0.15267614966E-01  0.20728156977E-01  0.13051510522E+00  0.88999828609E+00  0.88000000000E+00 0. -1.
        -11    1    4    4    0    0  0.30250250278E-02 -0.17520649794E-01 -0.41357267311E-01  0.45020091360E-01  0.51100000000E-03 0. -1.
         11    1    4    4    0    0 -0.91859985696E-02 -0.12518224800E-01 -0.83418879854E-01  0.84853162339E-01  0.51100000000E-03 0.  1.
</event>
<event>
 8    1  0.1112929E+005  0.1043930E+01  0.7957747E-01            NaN
         13   -1    0    0    0    0  0.00000000000E+00  0.00000000000E+00  0.74505805969E-08  0.10566000000E+00  0.10566000000E+00 0. -1.
     999900   -1    0    0    0    0 -0.00000000000E+00 -0.00000000000E+00 -0.74505805969E-08  0.93827000000E+00  0.93827000000E+00 0. -1.
     999902    2    1    2    0    0 -0.68444222204E-02 -0.10981139957E-01  0.20634927728E-01  0.10195736499E+01  0.10192826868E+01 0.  0.
     999903    2    3    3    0    0 -0.68591472435E-01  0.10073352346E+00  0.41311395374E-01  0.13012416812E+00  0.19329637904E-01 0.  0.
         14    1    1    2    0    0  0.68444222204E-02  0.10981139957E-01 -0.20634927728E-01  0.24356350150E-01  0.00000000000E+00 0.  1.
     999901    1    3    3    0    0  0.61747050215E-01 -0.11171466342E+00 -0.20676467646E-01  0.88944948173E+00  0.88000000000E+00 0. -1.
        -11    1    4    4    0    0 -0.50715434657E-01  0.59235774348E-01  0.22364772968E-01  0.81125683146E-01  0.51100000000E-03 0.  1.
         11    1    4    4    0    0 -0.17876037778E-01  0.41497749115E-01  0.18946622406E-01  0.48998484975E-01  0.51100000000E-03 0. -1.
</event>
<event>
 8    1  0.1112929E+005  0.1043930E+01  0.7957747E-01            NaN
         13   -1    0    0    0    0  0.00000000000E+00  0.00000000000E+00  0.74505805969E-08  0.10566000000E+00  0.10566000000E+00 0.  1.
     999900   -1    0    0    0    0 -0.00000000000E+00 -0.00000000000E+00 -0.74505805969E-08  0.93827000000E+00  0.93827000000E+00 0. -1.
     999902    2    1    2    0    0  0.14028646579E-01 -0.18256583094E-01 -0.53469820289E-02  0.10202932496E+01  0.10200194210E+01 0.  0.
     999903    2    3    3    0    0 -0.10404936918E+00  0.71275034862E-01  0.27450007895E-02  0.12786744958E+00  0.20884152127E-01 0.  0.
         14    1    1    2    0    0 -0.14028646579E-01  0.18256583094E-01  0.53469820289E-02  0.23636750367E-01  0.00000000000E+00 0.  1.
     999901    1    3    3    0    0  0.11807801576E+00 -0.89531617956E-01 -0.80919828184E-02  0.89242580006E+00  0.88000000000E+00 0. -1.
        -11    1    4    4    0    0 -0.34072484116E-01  0.27261034945E-01  0.10347729180E-01  0.44849022512E-01  0.51100000000E-03 0. -1.
         11    1    4    4    0    0 -0.69976885067E-01  0.44013999917E-01 -0.76027283902E-02  0.83018427065E-01  0.51100000000E-03 0.  1.
</event>
<event>
 8    1  0.1112929E+005  0.1043930E+01  0.7957747E-01            NaN
         13   -1    0    0    0    0  0.00000000000E+00  0.00000000000E+00  0.74505805969E-08  0.10566000000E+00  0.10566000000E+00 0.  1.
     999900   -1    0    0    0    0 -0.00000000000E+00 -0.00000000000E+00 -0.74505805969E-08  0.93827000000E+00  0.93827000000E+00 0.  1.
     999902    2    1    2    0    0  0.70038290304E-02  0.13693483231E-01 -0.18065942812E-01  0.10202035718E+01  0.10199276369E+01 0.  0.
     999903    2    3    3    0    0 -0.67174088476E-02  0.78713414595E-02 -0.13062636732E+00  0.13290879619E+00  0.22235527164E-01 0.  0.
         14    1    1    2    0    0 -0.70038290304E-02 -0.13693483231E-01  0.18065942812E-01  0.23726428171E-01  0.00000000000E+00 0.  1.
     999901    1    3    3    0    0  0.13721237878E-01  0.58221417716E-02  0.11256042451E+00  0.88729477564E+00  0.88000000000E+00 0. -1.
        -11    1    4    4    0    0 -0.28642762798E-02 -0.69048497323E-02 -0.69462928560E-01  0.69865875745E-01  0.51100000000E-03 0.  1.
         11    1    4    4    0    0 -0.38531325678E-02  0.14776191192E-01 -0.61163438761E-01  0.63042920449E-01  0.51100000000E-03 0. -1.
</event>
<event>
 8    1  0.1112929E+005  0.1043930E+01  0.7957747E-01            NaN
         13   -1    0    0    0    0  0.00000000000E+00  0.00000000000E+00  0.74505805969E-08  0.10566000000E+00  0.10566000000E+00 0.  1.
     999900   -1    0    0    0    0 -0.00000000000E+00 -0.00000000000E+00 -0.74505805969E-08  0.93827000000E+00  0.93827000000E+00 0. -1.
     999902    2    1    2    0    0  0.55651977982E-03  0.21936984690E-01  0.91631128794E-02  0.10201496794E+01  0.10198724747E+01 0.  0.
     999903    2    3    3    0    0  0.49089205522E-01 -0.10164338306E+00  0.58616251903E-01  0.12881745072E+00  0.20419187112E-01 0.  0.
         14    1    1    2    0    0 -0.55651977982E-03 -0.21936984690E-01 -0.91631128794E-02  0.23780320629E-01  0.00000000000E+00 0. -1.
     999901    1    3    3    0    0 -0.48532685742E-01  0.12358036775E+00 -0.49453139023E-01  0.89133222865E+00  0.88000000000E+00 0. -1.
        -11    1    4    4    0    0  0.16523270866E-01 -0.17959809067E-01  0.17612657537E-01  0.30100499137E-01  0.51100000000E-03 0. -1.
         11    1    4    4    0    0  0.32565934656E-01 -0.83683573998E-01  0.41003594366E-01  0.98716951579E-01  0.51100000000E-03 0.  1.
</event>
<event>
 8    1  0.1112929E+005  0.1043930E+01  0.7957747E-01            NaN
         13   -1    0    0    0    0  0.00000000000E+00  0.00000000000E+00  0.74505805969E-08  0.10566000000E+00  0.10566000000E+00 0.  1.
     999900   -1    0    0    0    0 -0.00000000000E+00 -0.00000000000E+00 -0.74505805969E-08  0.93827000000E+00  0.93827000000E+00 0. -1.
     999902    2    1    2    0    0 -0.14152895046E-02  0.30543647407E-02 -0.23839946386E-01  0.10198535544E+01  0.10195693195E+01 0.  0.
     999903    2    3    3    0    0  0.23529941042E-01 -0.89145217635E-01  0.86088130128E-01  0.12788538821E+00  0.21047052430E-01 0.  0.
         14    1    1    2    0    0  0.14152895046E-02 -0.30543647407E-02  0.23839946386E-01  0.24076445585E-01  0.00000000000E+00 0.  1.
     999901    1    3    3    0    0 -0.24945230546E-01  0.92199582375E-01 -0.10992807651E+00  0.89196816621E+00  0.88000000000E+00 0. -1.
        -11    1    4    4    0    0  0.27349555897E-01 -0.75762754801E-01  0.75362321428E-01  0.11030745140E+00  0.51100000000E-03 0. -1.
         11    1    4    4    0    0 -0.38196148551E-02 -0.13382462834E-01  0.10725808699E-01  0.17577936807E-01  0.51100000000E-03 0.  1.
</event>
<event>
 8    1  0.1112929E+005  0.1043930E+01  0.7957747E-01            NaN
         13   -1    0    0    0    0  0.00000000000E+00  0.00000000000E+00  0.74505805969E-08  0.10566000000E+00  0.10566000000E+00 0. -1.
     999900   -1    0    0    0    0 -0.00000000000E+00 -0.00000000000E+00 -0.74505805969E-08  0.93827000000E+00  0.93827000000E+00 0.  1.
     999902    2    1    2    0    0 -0.13555455228E-01 -0.48617423205E-02 -0.18431197551E-01  0.10205399177E+01  0.10202718401E+01 0.  0.
     999903    2    3    3    0    0 -0.46445743244E-01  0.57884912906E-01 -0.10857034122E+00  0.13310317126E+00  0.20519868402E-01 0.  0.
         14    1    1    2    0    0  0.13555455228E-01  0.48617423205E-02  0.18431197551E-01  0.23390082257E-01  0.00000000000E+00 0. -1.
     999901    1    3    3    0    0  0.32890288016E-01 -0.62746655226E-01  0.90139143668E-01  0.88743674648E+00  0.88000000000E+00 0. -1.
        -11    1    4    4    0    0 -0.19478423306E-01  0.30783092156E-01 -0.69300731039E-01  0.78293423611E-01  0.51100000000E-03 0. -1.
         11    1    4    4    0    0 -0.26967319938E-01  0.27101820750E-01 -0.39269610180E-01  0.54809747648E-01  0.51100000000E-03 0.  1.
</event>
<event>
 8    1  0.1112929E+005  0.1043930E+01  0.7957747E-01            NaN
         13   -1    0    0    0    0  0.00000000000E+00  0.00000000000E+00  0.74505805969E-08  0.10566000000E+00  0.10566000000E+00 0. -1.
     999900   -1    0    0    0    0 -0.00000000000E+00 -0.00000000000E+00 -0.74505805969E-08  0.93827000000E+00  0.93827000000E+00 0.  1.
     999902    2    1    2    0    0 -0.21359540992E-01 -0.57843967518E-02  0.83735854054E-02  0.10202697766E+01  0.10199953975E+01 0.  0.
     999903    2    3    3    0    0 -0.10117685223E+00 -0.69614565506E-01 -0.47400550539E-01  0.13260100516E+00  0.15914497158E-01 0.  0.
         14    1    1    2    0    0  0.21359540992E-01  0.57843967518E-02 -0.83735854054E-02  0.23660223366E-01  0.00000000000E+00 0.  1.
     999901    1    3    3    0    0  0.79817311236E-01  0.63830168754E-01  0.55774135944E-01  0.88766877148E+00  0.88000000000E+00 0. -1.
        -11    1    4    4    0    0 -0.58096368513E-01 -0.34816620169E-01 -0.18917156982E-01  0.70324284737E-01  0.51100000000E-03 0. -1.
         11    1    4    4    0    0 -0.43080483715E-01 -0.34797945337E-01 -0.28483393557E-01  0.62276720420E-01  0.51100000000E-03 0.  1.
</event>
<event>
 8    1  0.1112929E+005  0.1043930E+01  0.7957747E-01            NaN
         13   -1    0    0    0    0  0.00000000000E+00  0.00000000000E+00  0.74505805969E-08  0.10566000000E+00  0.10566000000E+00 0.  1.
     999900   -1    0    0    0    0 -0.00000000000E+00 -0.00000000000E+00 -0.74505805969E-08  0.93827000000E+00  0.93827000000E+00 0.  1.
     999902    2    1    2    0    0  0.38379814545E-02  0.16756605211E-01  0.16427387686E-01  0.10201524268E+01  0.10198752870E+01 0.  0.
     999903    2    3    3    0    0  0.12469023925E+00  0.15303843930E-02 -0.31356587873E-01  0.13047809633E+00  0.22165292207E-01 0.  0.
         14    1    1    2    0    0 -0.38379814545E-02 -0.16756605211E-01 -0.16427387686E-01  0.23777573174E-01  0.00000000000E+00 0. -1.
     999901    1    3    3    0    0 -0.12085225780E+00  0.15226220818E-01  0.47783975560E-01  0.88967433049E+00  0.88000000000E+00 0. -1.
        -11    1    4    4    0    0  0.33558711097E-01  0.18163446599E-02 -0.18718795840E-01  0.38472595924E-01  0.51100000000E-03 0.  1.
         11    1    4    4    0    0  0.91131528156E-01 -0.28596026682E-03 -0.12637792033E-01  0.92005500410E-01  0.51100000000E-03 0. -1.
</event>
<event>
 8    1  0.1112929E+005  0.1043930E+01  0.7957747E-01            NaN
         13   -1    0    0    0    0  0.00000000000E+00  0.00000000000E+00  0.74505805969E-08  0.10566000000E+00  0.10566000000E+00 0. -1.
     999900   -1    0    0    0    0 -0.00000000000E+00 -0.00000000000E+00 -0.74505805969E-08  0.93827000000E+00  0.93827000000E+00 0. -1.
     999902    2    1    2    0    0 -0.17868867792E-01  0.89932046408E-02  0.11638023561E-01  0.10207865828E+01  0.10205241937E+01 0.  0.
     999903    2    3    3    0    0 -0.67129805451E-01  0.98268940998E-01  0.57361039182E-01  0.13371984845E+00  0.20676399828E-01 0.  0.
         14    1    1    2    0    0  0.17868867792E-01 -0.89932046408E-02 -0.11638023561E-01  0.23143417169E-01  0.00000000000E+00 0.  1.
     999901    1    3    3    0    0  0.49260937659E-01 -0.89275736357E-01 -0.45723015621E-01  0.88706673438E+00  0.88000000000E+00 0. -1.
        -11    1    4    4    0    0 -0.40490401090E-01  0.75147476103E-01  0.43599332802E-01  0.95852901296E-01  0.51100000000E-03 0. -1.
         11    1    4    4    0    0 -0.26639404361E-01  0.23121464895E-01  0.13761706379E-01  0.37866947158E-01  0.51100000000E-03 0.  1.
</event>
<event>
 8    1  0.1112929E+005  0.1043930E+01  0.7957747E-01            NaN
         13   -1    0    0    0    0  0.00000000000E+00  0.00000000000E+00  0.74505805969E-08  0.10566000000E+00  0.10566000000E+00 0. -1.
     999900   -1    0    0    0    0 -0.00000000000E+00 -0.00000000000E+00 -0.74505805969E-08  0.93827000000E+00  0.93827000000E+00 0.  1.
     999902    2    1    2    0    0  0.13309154735E-01 -0.16137798122E-01 -0.10566355377E-01  0.10204947702E+01  0.10202256447E+01 0.  0.
     999903    2    3    3    0    0 -0.21231288190E-01 -0.56457650428E-01 -0.11625243977E+00  0.13258245412E+00  0.20621432947E-01 0.  0.
         14    1    1    2    0    0 -0.13309154735E-01  0.16137798122E-01  0.10566355377E-01  0.23435229760E-01  0.00000000000E+00 0. -1.
     999901    1    3    3    0    0  0.34540442925E-01  0.40319852306E-01  0.10568608440E+00  0.88791231612E+00  0.88000000000E+00 0. -1.
        -11    1    4    4    0    0 -0.37362184731E-02 -0.21027117456E-01 -0.61151921292E-01  0.64775902893E-01  0.51100000000E-03 0.  1.
         11    1    4    4    0    0 -0.17495069717E-01 -0.35430532972E-01 -0.55100518480E-01  0.67806551223E-01  0.51100000000E-03 0. -1.
</event>
<event>
 8    1  0.1116041E+005  0.1043930E+01  0.7957747E-01            NaN
         13   -1    0    0    0    0  0.00000000000E+00  0.00000000000E+00  0.74505805969E-08  0.10566000000E+00  0.10566000000E+00 0.  1.
     999900   -1    0    0    0    0 -0.00000000000E+00 -0.00000000000E+00 -0.74505805969E-08  0.93827000000E+00  0.93827000000E+00 0. -1.
     999902    2    1    2    0    0  0.11734699337E-01  0.18316510360E-01 -0.74470759666E-02  0.10209374651E+01  0.10206785248E+01 0.  0.
     999903    2    3    3    0    0  0.96924639681E-01 -0.12416671106E-01  0.85216237718E-01  0.13144977881E+00  0.21648964847E-01 0.  0.
         14    1    1    2    0    0 -0.11734699337E-01 -0.18316510360E-01  0.74470759666E-02  0.22992534891E-01  0.00000000000E+00 0.  1.
     999901    1    3    3    0    0 -0.85189940344E-01  0.30733181466E-01 -0.92663313685E-01  0.88948768630E+00  0.88000000000E+00 0. -1.
        -11    1    4    4    0    0  0.38507288108E-01  0.53958613660E-02  0.36369367832E-01  0.53243953598E-01  0.51100000000E-03 0.  1.
         11    1    4    4    0    0  0.58417351573E-01 -0.17812532472E-01  0.48846869887E-01  0.78205825209E-01  0.51100000000E-03 0. -1.
</event>
<event>
 8    1  0.1112929E+005  0.1043930E+01  0.7957747E-01            NaN
         13   -1    0    0    0    0  0.00000000000E+00  0.00000000000E+00  0.74505805969E-08  0.10566000000E+00  0.10566000000E+00 0. -1.
     999900   -1    0    0    0    0 -0.00000000000E+00 -0.00000000000E+00 -0.74505805969E-08  0.93827000000E+00  0.93827000000E+00 0.  1.
     999902    2    1    2    0    0 -0.28380276817E-02 -0.57455011226E-02  0.23845897541E-01  0.10192380577E+01  0.10189389218E+01 0.  0.
     999903    2    3    3    0    0  0.11165945084E+00 -0.26893731564E-01 -0.48042358199E-01  0.12866249015E+00  0.32478645754E-01 0.  0.
         14    1    1    2    0    0  0.28380276817E-02  0.57455011226E-02 -0.23845897541E-01  0.24691942285E-01  0.00000000000E+00 0.  1.
     999901    1    3    3    0    0 -0.11449747852E+00  0.21148230441E-01  0.71888255739E-01  0.89057556757E+00  0.88000000000E+00 0. -1.
        -11    1    4    4    0    0  0.60966189933E-01  0.17065818495E-02 -0.27882218404E-01  0.67063163963E-01  0.51100000000E-03 0. -1.
         11    1    4    4    0    0  0.50693260906E-01 -0.28600313413E-01 -0.20160139795E-01  0.61599326183E-01  0.51100000000E-03 0.  1.
</event>
<event>
 8    1  0.1112929E+005  0.1043930E+01  0.7957747E-01            NaN
         13   -1    0    0    0    0  0.00000000000E+00  0.00000000000E+00  0.74505805969E-08  0.10566000000E+00  0.10566000000E+00 0. -1.
     999900   -1    0    0    0    0 -0.00000000000E+00 -0.00000000000E+00 -0.74505805969E-08  0.93827000000E+00  0.93827000000E+00 0.  1.
     999902    2    1    2    0    0 -0.10693599582E-01 -0.18266903322E-01  0.96884845838E-02  0.10206512637E+01  0.10203857617E+01 0.  0.
     999903    2    3    3    0    0  0.20330389360E-01 -0.12522662599E+00 -0.33050556594E-01  0.13260312550E+00  0.19905200662E-01 0.  0.
         14    1    1    2    0    0  0.10693599582E-01  0.18266903322E-01 -0.96884845838E-02  0.23278736274E-01  0.00000000000E+00 0. -1.
     999901    1    3    3    0    0 -0.31023988941E-01  0.10695972267E+00  0.42739041178E-01  0.88804813822E+00  0.88000000000E+00 0.  1.
        -11    1    4    4    0    0  0.66303565883E-02 -0.19534361903E-01 -0.12303637472E-01  0.24024852539E-01  0.51100000000E-03 0.  1.
         11    1    4    4    0    0  0.13700032771E-01 -0.10569226409E+00 -0.20746919122E-01  0.10857827296E+00  0.51100000000E-03 0. -1.
</event>
<event>
 8    1  0.1112929E+005  0.1043930E+01  0.7957747E-01            NaN
         13   -1    0    0    0    0  0.00000000000E+00  0.00000000000E+00  0.74505805969E-08  0.10566000000E+00  0.10566000000E+00 0.  1.
     999900   -1    0    0    0    0 -0.00000000000E+00 -0.00000000000E+00 -0.74505805969E-08  0.93827000000E+00  0.93827000000E+00 0. -1.
     999902    2    1    2    0    0  0.12045878466E-01 -0.21073127152E-01 -0.32682259018E-02  0.10194379365E+01  0.10191436823E+01 0.  0.
     999903    2    3    3    0    0 -0.16282344966E-01  0.11922555615E+00 -0.36422003162E-01  0.12725780794E+00  0.19701253001E-01 0.  0.
         14    1    1    2    0    0 -0.12045878466E-01  0.21073127152E-01  0.32682259018E-02  0.24492063541E-01  0.00000000000E+00 0. -1.
     999901    1    3    3    0    0  0.28328223431E-01 -0.14029868330E+00  0.33153777261E-01  0.89218012852E+00  0.88000000000E+00 0.  1.
        -11    1    4    4    0    0 -0.20650903353E-01  0.90957413924E-01 -0.29446623909E-01  0.97811429484E-01  0.51100000000E-03 0. -1.
         11    1    4    4    0    0  0.43685583876E-02  0.28268142227E-01 -0.69753792537E-02  0.29446378454E-01  0.51100000000E-03 0.  1.
</event>
<event>
 8    1  0.1159991E+005  0.1043930E+01  0.7957747E-01            NaN
         13   -1    0    0    0    0  0.00000000000E+00  0.00000000000E+00  0.74505805969E-08  0.10566000000E+00  0.10566000000E+00 0. -1.
     999900   -1    0    0    0    0 -0.00000000000E+00 -0.00000000000E+00 -0.74505805969E-08  0.93827000000E+00  0.93827000000E+00 0.  1.
     999902    2    1    2    0    0 -0.11013387937E-01  0.19464569270E-01  0.76493604579E-02  0.10202936533E+01  0.10200198341E+01 0.  0.
     999903    2    3    3    0    0 -0.98129729506E-01 -0.66405083133E-01  0.51479782895E-01  0.13075222080E+00  0.20171671186E-01 0.  0.
         14    1    1    2    0    0  0.11013387937E-01 -0.19464569270E-01 -0.76493604579E-02  0.23636346718E-01  0.00000000000E+00 0.  1.
     999901    1    3    3    0    0  0.87116341569E-01  0.85869652403E-01 -0.43830422437E-01  0.88954143248E+00  0.88000000000E+00 0. -1.
        -11    1    4    4    0    0 -0.33727145054E-01 -0.11962268174E-01  0.17384224526E-01  0.39788045400E-01  0.51100000000E-03 0. -1.
         11    1    4    4    0    0 -0.64402584451E-01 -0.54442814959E-01  0.34095558369E-01  0.90964175400E-01  0.51100000000E-03 0.  1.
</event>
<event>
 8    1  0.1112929E+005  0.1043930E+01  0.7957747E-01            NaN
         13   -1    0    0    0    0  0.00000000000E+00  0.00000000000E+00  0.74505805969E-08  0.10566000000E+00  0.10566000000E+00 0.  1.
     999900   -1    0    0    0    0 -0.00000000000E+00 -0.00000000000E+00 -0.74505805969E-08  0.93827000000E+00  0.93827000000E+00 0. -1.
     999902    2    1    2    0    0 -0.10834144042E-01 -0.22256844196E-01 -0.45591581727E-02  0.10187599441E+01  0.10184489639E+01 0.  0.
     999903    2    3    3    0    0  0.55740679581E-01  0.59583541196E-01  0.94688742397E-01  0.12691903812E+00  0.22028675812E-01 0.  0.
         14    1    1    2    0    0  0.10834144042E-01  0.22256844196E-01  0.45591581727E-02  0.25170055899E-01  0.00000000000E+00 0. -1.
     999901    1    3    3    0    0 -0.66574823623E-01 -0.81840385392E-01 -0.99247900569E-01  0.89184090599E+00  0.88000000000E+00 0. -1.
        -11    1    4    4    0    0  0.80516168965E-02  0.14018729078E-01  0.32321850203E-01  0.36142999615E-01  0.51100000000E-03 0.  1.
         11    1    4    4    0    0  0.47689062685E-01  0.45564812118E-01  0.62366892194E-01  0.90776038501E-01  0.51100000000E-03 0. -1.
</event>
<event>
 8    1  0.1112929E+005  0.1043930E+01  0.7957747E-01            NaN
         13   -1    0    0    0    0  0.00000000000E+00  0.00000000000E+00  0.74505805969E-08  0.10566000000E+00  0.10566000000E+00 0.  1.
     999900   -1    0    0    0    0 -0.00000000000E+00 -0.00000000000E+00 -0.74505805969E-08  0.93827000000E+00  0.93827000000E+00 0. -1.
     999902    2    1    2    0    0 -0.20563607925E-01  0.40939140238E-02 -0.13084659753E-01  0.10192150162E+01  0.10189153149E+01 0.  0.
     999903    2    3    3    0    0 -0.12551610660E+00  0.34842855878E-01  0.97549835515E-02  0.13215122272E+00  0.20011705095E-01 0.  0.
         14    1    1    2    0    0  0.20563607925E-01 -0.40939140238E-02  0.13084659753E-01  0.24714983791E-01  0.00000000000E+00 0.  1.
     999901    1    3    3    0    0  0.10495249868E+00 -0.30748941854E-01 -0.22839643305E-01  0.88706379348E+00  0.88000000000E+00 0. -1.
        -11    1    4    4    0    0 -0.10239222407E+00  0.36165982388E-01  0.91207020627E-02  0.10897519974E+00  0.51100000000E-03 0. -1.
         11    1    4    4    0    0 -0.23123882534E-01 -0.13231265102E-02  0.63428148874E-03  0.23176022981E-01  0.51100000000E-03 0.  1.
</event>
<event>
 8    1  0.1112929E+005  0.1043930E+01  0.7957747E-01            NaN
         13   -1    0    0    0    0  0.00000000000E+00  0.00000000000E+00  0.74505805969E-08  0.10566000000E+00  0.10566000000E+00 0.  1.
     999900   -1    0    0    0    0 -0.00000000000E+00 -0.00000000000E+00 -0.74505805969E-08  0.93827000000E+00  0.93827000000E+00 0. -1.
     999902    2    1    2    0    0  0.11410299813E-01  0.16902264370E-01  0.12164053608E-01  0.10201845650E+01  0.10199081826E+01 0.  0.
     999903    2    3    3    0    0 -0.14141386681E-01 -0.11912154015E+00  0.40492440020E-01  0.12891700611E+00  0.24290669417E-01 0.  0.
         14    1    1    2    0    0 -0.11410299813E-01 -0.16902264370E-01 -0.12164053608E-01  0.23745434990E-01  0.00000000000E+00 0. -1.
     999901    1    3    3    0    0  0.25551686494E-01  0.13602380452E+00 -0.28328386411E-01  0.89126755890E+00  0.88000000000E+00 0. -1.
        -11    1    4    4    0    0 -0.20452223814E-01 -0.87730256919E-01  0.33698795491E-01  0.96180878435E-01  0.51100000000E-03 0.  1.
         11    1    4    4    0    0  0.63108371322E-02 -0.31391283227E-01  0.67936445292E-02  0.32736127672E-01  0.51100000000E-03 0. -1.
</event>
<event>
 8    1  0.1112929E+005  0.1043930E+01  0.7957747E-01            NaN
         13   -1    0    0    0    0  0.00000000000E+00  0.00000000000E+00  0.74505805969E-08  0.10566000000E+00  0.10566000000E+00 0.  1.
     999900   -1    0    0    0    0 -0.00000000000E+00 -0.00000000000E+00 -0.74505805969E-08  0.93827000000E+00  0.93827000000E+00 0. -1.
     999902    2    1    2    0    0 -0.11916216302E-01 -0.10467219044E-01  0.18124316814E-01  0.10198457781E+01  0.10195613573E+01 0.  0.
     999903    2    3    3    0    0  0.89100554201E-01 -0.55012143681E-01  0.76245543318E-01  0.13104506071E+00  0.19853975637E-01 0.  0.
         14    1    1    2    0    0  0.11916216302E-01  0.10467219044E-01 -0.18124316814E-01  0.24084221919E-01  0.00000000000E+00 0. -1.
     999901    1    3    3    0    0 -0.10101677050E+00  0.44544924637E-01 -0.58121226504E-01  0.88880071737E+00  0.88000000000E+00 0.  1.
        -11    1    4    4    0    0  0.40129382872E-01 -0.36253623188E-01  0.36618205012E-01  0.65313449023E-01  0.51100000000E-03 0.  1.
         11    1    4    4    0    0  0.48971171328E-01 -0.18758520493E-01  0.39627338307E-01  0.65731611684E-01  0.51100000000E-03 0. -1.
</event>
<event>
 8    1  0.1112929E+005  0.1043930E+01  0.7957747E-01            NaN
         13   -1    0    0    0    0  0.00000000000E+00  0.00000000000E+00  0.74505805969E-08  0.10566000000E+00  0.10566000000E+00 0.  1.
     999900   -1    0    0    0    0 -0.00000000000E+00 -0.00000000000E+00 -0.74505805969E-08  0.93827000000E+00  0.93827000000E+00 0.  1.
     999902    2    1    2    0    0  0.11975651861E-01 -0.73818808856E-02  0.20520255033E-01  0.10190505050E+01  0.10187467509E+01 0.  0.
     999903    2    3    3    0    0 -0.11110826587E+00 -0.15871322486E-01  0.61452292786E-01  0.12950165695E+00  0.19933620874E-01 0.  0.
         14    1    1    2    0    0 -0.11975651861E-01  0.73818808856E-02 -0.20520255033E-01  0.24879494962E-01  0.00000000000E+00 0. -1.
     999901    1    3    3    0    0  0.12308391773E+00  0.84894416005E-02 -0.40932037753E-01  0.88954884809E+00  0.88000000000E+00 0. -1.
        -11    1    4    4    0    0 -0.55730082118E-02  0.32534505779E-02  0.56809825641E-02  0.86126677101E-02  0.51100000000E-03 0.  1.
         11    1    4    4    0    0 -0.10553525766E+00 -0.19124773064E-01  0.55771310222E-01  0.12088898924E+00  0.51100000000E-03 0. -1.
</event>
<event>
 8    1  0.1112929E+005  0.1043930E+01  0.7957747E-01            NaN
         13   -1    0    0    0    0  0.00000000000E+00  0.00000000000E+00  0.74505805969E-08  0.10566000000E+00  0.10566000000E+00 0.  1.
     999900   -1    0    0    0    0 -0.00000000000E+00 -0.00000000000E+00 -0.74505805969E-08  0.93827000000E+00  0.93827000000E+00 0. -1.
     999902    2    1    2    0    0 -0.17767611442E-01 -0.13183272118E-01 -0.79101176055E-02  0.10204341144E+01  0.10201635777E+01 0.  0.
     999903    2    3    3    0    0  0.12500796563E+00 -0.92713743855E-02 -0.24714488236E-01  0.12876009591E+00  0.15981442853E-01 0.  0.
         14    1    1    2    0    0  0.17767611442E-01  0.13183272118E-01  0.79101176055E-02  0.23495885611E-01  0.00000000000E+00 0. -1.
     999901    1    3    3    0    0 -0.14277557708E+00 -0.39118977322E-02  0.16804370630E-01  0.89167401848E+00  0.88000000000E+00 0.  1.
        -11    1    4    4    0    0  0.55186042492E-01  0.37632507920E-02 -0.11939540679E-01  0.56590415223E-01  0.51100000000E-03 0.  1.
         11    1    4    4    0    0  0.69821923142E-01 -0.13034625178E-01 -0.12774947556E-01  0.72169680690E-01  0.51100000000E-03 0. -1.
</event>
<event>
 8    1  0.1112929E+005  0.1043930E+01  0.7957747E-01            NaN
         13   -1    0    0    0    0  0.00000000000E+00  0.00000000000E+00  0.74505805969E-08  0.10566000000E+00  0.10566000000E+00 0. -1.
     999900   -1    0    0    0    0 -0.00000000000E+00 -0.00000000000E+00 -0.74505805969E-08  0.93827000000E+00  0.93827000000E+00 0. -1.
     999902    2    1    2    0    0  0.42190409499E-02  0.24940902868E-01  0.11672584090E-01  0.10160714616E+01  0.10156894786E+01 0.  0.
     999903    2    3    3    0    0  0.35736155179E-01 -0.10365140829E+00  0.56651294215E-01  0.12503139777E+00  0.20069730061E-01 0.  0.
         14    1    1    2    0    0 -0.42190409499E-02 -0.24940902868E-01 -0.11672584090E-01  0.27858538399E-01  0.00000000000E+00 0. -1.
     999901    1    3    3    0    0 -0.31517114229E-01  0.12859231116E+00 -0.44978710125E-01  0.89104006383E+00  0.88000000000E+00 0. -1.
        -11    1    4    4    0    0  0.12117639958E-01 -0.57802976237E-01  0.37775543258E-01  0.70109015465E-01  0.51100000000E-03 0.  1.
         11    1    4    4    0    0  0.23618515221E-01 -0.45848432058E-01  0.18875750958E-01  0.54922382310E-01  0.51100000000E-03 0. -1.
</event>
<event>
 8    1  0.1112929E+005  0.1043930E+01  0.7957747E-01            NaN
         13   -1    0    0    0    0  0.00000000000E+00  0.00000000000E+00  0.74505805969E-08  0.10566000000E+00  0.10566000000E+00 0. -1.
     999900   -1    0    0    0    0 -0.00000000000E+00 -0.00000000000E+00 -0.74505805969E-08  0.93827000000E+00  0.93827000000E+00 0.  1.
     999902    2    1    2    0    0 -0.87060414952E-02 -0.20757430575E-01 -0.70727296793E-02  0.10203357298E+01  0.10200628960E+01 0.  0.
     999903    2    3    3    0    0 -0.10474976639E+00  0.58063801885E-01 -0.48258981144E-01  0.13065405013E+00  0.19940734833E-01 0.  0.
         14    1    1    2    0    0  0.87060414952E-02  0.20757430575E-01  0.70727296793E-02  0.23594270230E-01  0.00000000000E+00 0. -1.
     999901    1    3    3    0    0  0.96043724896E-01 -0.78821232459E-01  0.41186251465E-01  0.88968167964E+00  0.88000000000E+00 0.  1.
        -11    1    4    4    0    0 -0.88305017360E-01  0.40076835119E-01 -0.36864395378E-01  0.10374571592E+00  0.51100000000E-03 0. -1.
         11    1    4    4    0    0 -0.16444749032E-01  0.17986966766E-01 -0.11394585766E-01  0.26908334210E-01  0.51100000000E-03 0.  1.
</event>
<event>
 8    1  0.1112929E+005  0.1043930E+01  0.7957747E-01            NaN
         13   -1    0    0    0    0  0.00000000000E+00  0.00000000000E+00  0.74505805969E-08  0.10566000000E+00  0.10566000000E+00 0.  1.
     999900   -1    0    0    0    0 -0.00000000000E+00 -0.00000000000E+00 -0.74505805969E-08  0.93827000000E+00  0.93827000000E+00 0. -1.
     999902    2    1    2    0    0  0.20497914523E-01 -0.10124834349E-01 -0.73401517689E-02  0.10199184486E+01  0.10196357621E+01 0.  0.
     999903    2    3    3    0    0  0.12978468599E+00  0.11113161172E-01 -0.17245689653E-01  0.13284868220E+00  0.19590596710E-01 0.  0.
         14    1    1    2    0    0 -0.20497914523E-01  0.10124834349E-01  0.73401517689E-02  0.24011551353E-01  0.00000000000E+00 0. -1.
     999901    1    3    3    0    0 -0.10928677147E+00 -0.21237995521E-01  0.99055378838E-02  0.88706976645E+00  0.88000000000E+00 0.  1.
        -11    1    4    4    0    0  0.40223260480E-01  0.54406577433E-02  0.34880706257E-02  0.40742351405E-01  0.51100000000E-03 0.  1.
         11    1    4    4    0    0  0.89561425515E-01  0.56725034290E-02 -0.20733760278E-01  0.92106330791E-01  0.51100000000E-03 0. -1.
</event>
<event>
 8    1  0.1112929E+005  0.1043930E+01  0.7957747E-01            NaN
         13   -1    0    0    0    0  0.00000000000E+00  0.00000000000E+00  0.74505805969E-08  0.10566000000E+00  0.10566000000E+00 0.  1.
     999900   -1    0    0    0    0 -0.00000000000E+00 -0.00000000000E+00 -0.74505805969E-08  0.93827000000E+00  0.93827000000E+00 0. -1.
     999902    2    1    2    0    0  0.10388693707E-01  0.21382157673E-01  0.55476224260E-02  0.10195189833E+01  0.10192266968E+01 0.  0.
     999903    2    3    3    0    0  0.64534593083E-01  0.67322883292E-01  0.92074386016E-01  0.13242867810E+00  0.19041478527E-01 0.  0.
         14    1    1    2    0    0 -0.10388693707E-01 -0.21382157673E-01 -0.55476224260E-02  0.24411016739E-01  0.00000000000E+00 0. -1.
     999901    1    3    3    0    0 -0.54145899376E-01 -0.45940725619E-01 -0.86526763590E-01  0.88709030516E+00  0.88000000000E+00 0. -1.
        -11    1    4    4    0    0  0.41305501324E-01  0.51826381406E-01  0.55724650334E-01  0.86588775399E-01  0.51100000000E-03 0. -1.
         11    1    4    4    0    0  0.23229091759E-01  0.15496501885E-01  0.36349735682E-01  0.45839902703E-01  0.51100000000E-03 0.  1.
</event>
<event>
 8    1  0.1112929E+005  0.1043930E+01  0.7957747E-01            NaN
         13   -1    0    0    0    0  0.00000000000E+00  0.00000000000E+00  0.74505805969E-08  0.10566000000E+00  0.10566000000E+00 0.  1.
     999900   -1    0    0    0    0 -0.00000000000E+00 -0.00000000000E+00 -0.74505805969E-08  0.93827000000E+00  0.93827000000E+00 0. -1.
     999902    2    1    2    0    0  0.19632966635E-01  0.86702217666E-02 -0.24017386614E-02  0.10223338320E+01  0.10221057037E+01 0.  0.
     999903    2    3    3    0    0 -0.10786343301E+00 -0.15112553958E-01 -0.68790967683E-01  0.13035374136E+00  0.19924637585E-01 0.  0.
         14    1    1    2    0    0 -0.19632966635E-01 -0.86702217666E-02  0.24017386614E-02  0.21596168016E-01  0.00000000000E+00 0.  1.
     999901    1    3    3    0    0  0.12749639965E+00  0.23782775725E-01  0.66389229022E-01  0.89198009063E+00  0.88000000000E+00 0. -1.
        -11    1    4    4    0    0 -0.31873659841E-01  0.43810722258E-02 -0.17579678158E-01  0.36666472296E-01  0.51100000000E-03 0. -1.
         11    1    4    4    0    0 -0.75989773171E-01 -0.19493626184E-01 -0.51211289525E-01  0.93687269062E-01  0.51100000000E-03 0.  1.
</event>
<event>
 8    1  0.1112929E+005  0.1043930E+01  0.7957747E-01            NaN
         13   -1    0    0    0    0  0.00000000000E+00  0.00000000000E+00  0.74505805969E-08  0.10566000000E+00  0.10566000000E+00 0.  1.
     999900   -1    0    0    0    0 -0.00000000000E+00 -0.00000000000E+00 -0.74505805969E-08  0.93827000000E+00  0.93827000000E+00 0.  1.
     999902    2    1    2    0    0 -0.21781275848E-01  0.49514520342E-02  0.59774918884E-02  0.10208070403E+01  0.10205451202E+01 0.  0.
     999903    2    3    3    0    0  0.41173100505E-01 -0.94412704856E-01  0.76899549308E-01  0.13015198510E+00  0.20420957311E-01 0.  0.
         14    1    1    2    0    0  0.21781275848E-01 -0.49514520342E-02 -0.59774918884E-02  0.23122959674E-01  0.00000000000E+00 0. -1.
     999901    1    3    3    0    0 -0.62954376354E-01  0.99364156890E-01 -0.70922057419E-01  0.89065505523E+00  0.88000000000E+00 0. -1.
        -11    1    4    4    0    0  0.18020586740E-01 -0.26967766286E-01  0.33709105169E-01  0.46782121128E-01  0.51100000000E-03 0. -1.
         11    1    4    4    0    0  0.23152513765E-01 -0.67444938569E-01  0.43190444139E-01  0.83369863969E-01  0.51100000000E-03 0.  1.
</event>
<event>
 8    1  0.1112929E+005  0.1043930E+01  0.7957747E-01            NaN
         13   -1    0    0    0    0  0.00000000000E+00  0.00000000000E+00  0.74505805969E-08  0.10566000000E+00  0.10566000000E+00 0.  1.
     999900   -1    0    0    0    0 -0.00000000000E+00 -0.00000000000E+00 -0.74505805969E-08  0.93827000000E+00  0.93827000000E+00 0. -1.
     999902    2    1    2    0    0 -0.20207350695E-01  0.85273630327E-02 -0.81446022211E-02  0.10205336864E+01  0.10202654643E+01 0.  0.
     999903    2    3    3    0    0 -0.11305236153E+00 -0.66332014184E-01 -0.23584293313E-02  0.13246972356E+00  0.19023483301E-01 0.  0.
         14    1    1    2    0    0  0.20207350695E-01 -0.85273630327E-02  0.81446022211E-02  0.23396313550E-01  0.00000000000E+00 0. -1.
     999901    1    3    3    0    0  0.92845010834E-01  0.74859377217E-01 -0.57861728899E-02  0.88806396289E+00  0.88000000000E+00 0. -1.
        -11    1    4    4    0    0 -0.68743115647E-01 -0.42949582199E-01 -0.10407598916E-01  0.81724303583E-01  0.51100000000E-03 0. -1.
         11    1    4    4    0    0 -0.44309245882E-01 -0.23382431986E-01  0.80491695849E-02  0.50745419973E-01  0.51100000000E-03 0.  1.
</event>
<event>
 8    1  0.1112929E+005  0.1043930E+01  0.7957747E-01            NaN
         13   -1    0    0    0    0  0.00000000000E+00  0.00000000000E+00  0.74505805969E-08  0.10566000000E+00  0.10566000000E+00 0. -1.
     999900   -1    0    0    0    0 -0.00000000000E+00 -0.00000000000E+00 -0.74505805969E-08  0.93827000000E+00  0.93827000000E+00 0. -1.
     999902    2    1    2    0    0  0.22502731972E-01  0.67860556222E-02 -0.42830699710E-02  0.10200392448E+01  0.10197594288E+01 0.  0.
     999903    2    3    3    0    0  0.32681773720E-01  0.12615268547E+00 -0.47440167493E-03  0.13191396579E+00  0.20456561953E-01 0.  0.
         14    1    1    2    0    0 -0.22502731972E-01 -0.67860556222E-02  0.42830699710E-02  0.23890755231E-01  0.00000000000E+00 0. -1.
     999901    1    3    3    0    0 -0.10179041748E-01 -0.11936662985E+00 -0.38086682960E-02  0.88812527898E+00  0.88000000000E+00 0.  1.
        -11    1    4    4    0    0  0.95717031921E-02  0.23200677649E-01  0.72147123196E-02  0.26118999602E-01  0.51100000000E-03 0.  1.
         11    1    4    4    0    0  0.23110070528E-01  0.10295200783E+00 -0.76891139945E-02  0.10579496618E+00  0.51100000000E-03 0. -1.
</event>
<event>
 8    1  0.1112929E+005  0.1043930E+01  0.7957747E-01            NaN
         13   -1    0    0    0    0  0.00000000000E+00  0.00000000000E+00  0.74505805969E-08  0.10566000000E+00  0.10566000000E+00 0. -1.
     999900   -1    0    0    0    0 -0.00000000000E+00 -0.00000000000E+00 -0.74505805969E-08  0.93827000000E+00  0.93827000000E+00 0. -1.
     999902    2    1    2    0    0 -0.17750255038E-01  0.13570817240E-01  0.68338122438E-02  0.10205646491E+01  0.10202971446E+01 0.  0.
     999903    2    3    3    0    0 -0.40482166970E-01 -0.47953405181E-01 -0.11217330647E+00  0.13013516614E+00  0.20346396990E-01 0.  0.
         14    1    1    2    0    0  0.17750255038E-01 -0.13570817240E-01 -0.68338122438E-02  0.23365350934E-01  0.00000000000E+00 0. -1.
     999901    1    3    3    0    0  0.22731911932E-01  0.61524222421E-01  0.11900711871E+00  0.89042948293E+00  0.88000000000E+00 0.  1.
        -11    1    4    4    0    0 -0.15313030363E-01 -0.27353075575E-01 -0.38866857992E-01  0.49935692780E-01  0.51100000000E-03 0. -1.
         11    1    4    4    0    0 -0.25169136607E-01 -0.20600329605E-01 -0.73306448477E-01  0.80199473357E-01  0.51100000000E-03 0.  1.
</event>
<event>
 8    1  0.1112929E+005  0.1043930E+01  0.7957747E-01            NaN
         13   -1    0    0    0    0  0.00000000000E+00  0.00000000000E+00  0.74505805969E-08  0.10566000000E+00  0.10566000000E+00 0.  1.
     999900   -1    0    0    0    0 -0.00000000000E+00 -0.00000000000E+00 -0.74505805969E-08  0.93827000000E+00  0.93827000000E+00 0.  1.
     999902    2    1    2    0    0 -0.11976913819E-01  0.19749378376E-01  0.46871404592E-02  0.10203619348E+01  0.10200897139E+01 0.  0.
     999903    2    3    3    0    0 -0.66085265379E-01 -0.90800189977E-01 -0.60888720661E-01  0.12937982819E+00  0.20488212166E-01 0.  0.
         14    1    1    2    0    0  0.11976913819E-01 -0.19749378376E-01 -0.46871404592E-02  0.23568065185E-01  0.00000000000E+00 0. -1.
     999901    1    3    3    0    0  0.54108351560E-01  0.11054956835E+00  0.65575861120E-01  0.89098210663E+00  0.88000000000E+00 0. -1.
        -11    1    4    4    0    0 -0.65939116782E-01 -0.90572946794E-01 -0.57473813896E-01  0.12591634611E+00  0.51100000000E-03 0. -1.
         11    1    4    4    0    0 -0.14614859682E-03 -0.22724318266E-03 -0.34149067655E-02  0.34634820764E-02  0.51100000000E-03 0.  1.
</event>
<event>
 8    1  0.1112929E+005  0.1043930E+01  0.7957747E-01            NaN
         13   -1    0    0    0    0  0.00000000000E+00  0.00000000000E+00  0.74505805969E-08  0.10566000000E+00  0.10566000000E+00 0. -1.
     999900   -1    0    0    0    0 -0.00000000000E+00 -0.00000000000E+00 -0.74505805969E-08  0.93827000000E+00  0.93827000000E+00 0. -1.
     999902    2    1    2    0    0 -0.12397660080E-01 -0.90051570825E-04 -0.21460692202E-01  0.10191455009E+01  0.10188440905E+01 0.  0.
     999903    2    3    3    0    0  0.24459754824E-01  0.91075492020E-01  0.83022244830E-01  0.12752545320E+00  0.21840861344E-01 0.  0.
         14    1    1    2    0    0  0.12397660080E-01  0.90051570825E-04  0.21460692202E-01  0.24784499078E-01  0.00000000000E+00 0. -1.
     999901    1    3    3    0    0 -0.36857414904E-01 -0.91165543591E-01 -0.10448293703E+00  0.89162004772E+00  0.88000000000E+00 0. -1.
        -11    1    4    4    0    0 -0.38568603479E-02  0.13950822925E-01  0.15119091049E-01  0.20936782637E-01  0.51100000000E-03 0. -1.
         11    1    4    4    0    0  0.28316615172E-01  0.77124669095E-01  0.67903153780E-01  0.10658867056E+00  0.51100000000E-03 0.  1.
</event>
<event>
 8    1  0.1112929E+005  0.1043930E+01  0.7957747E-01            NaN
         13   -1    0    0    0    0  0.00000000000E+00  0.00000000000E+00  0.74505805969E-08  0.10566000000E+00  0.10566000000E+00 0. -1.
     999900   -1    0    0    0    0 -0.00000000000E+00 -0.00000000000E+00 -0.74505805969E-08  0.93827000000E+00  0.93827000000E+00 0. -1.
     999902    2    1    2    0    0  0.12086890159E-01 -0.18879172286E-01 -0.88044272222E-02  0.10198461050E+01  0.10195616920E+01 0.  0.
     999903    2    3    3    0    0 -0.84473214388E-01  0.32464434588E-01 -0.89991279111E-01  0.12936796114E+00  0.21165433900E-01 0.  0.
         14    1    1    2    0    0 -0.12086890159E-01  0.18879172286E-01  0.88044272222E-02  0.24083895005E-01  0.00000000000E+00 0.  1.
     999901    1    3    3    0    0  0.96560104548E-01 -0.51343606874E-01  0.81186851889E-01  0.89047814385E+00  0.88000000000E+00 0.  1.
        -11    1    4    4    0    0 -0.67322784642E-01  0.16398231563E-01 -0.64039901029E-01  0.94353745952E-01  0.51100000000E-03 0.  1.
         11    1    4    4    0    0 -0.17150429746E-01  0.16066203025E-01 -0.25951378082E-01  0.35014215191E-01  0.51100000000E-03 0. -1.
</event>
<event>
 8    1  0.1112929E+005  0.1043930E+01  0.7957747E-01            NaN
         13   -1    0    0    0    0  0.00000000000E+00  0.00000000000E+00  0.74505805969E-08  0.10566000000E+00  0.10566000000E+00 0.  1.
     999900   -1    0    0    0    0 -0.00000000000E+00 -0.00000000000E+00 -0.74505805969E-08  0.93827000000E+00  0.93827000000E+00 0.  1.
     999902    2    1    2    0    0 -0.18643246443E-02 -0.15548760312E-01  0.17679822323E-01  0.10203118762E+01  0.10200384841E+01 0.  0.
     999903    2    3    3    0    0 -0.65896599071E-01 -0.58665623736E-01  0.97288016761E-01  0.13335265466E+00  0.23107468987E-01 0.  0.
         14    1    1    2    0    0  0.18643246443E-02  0.15548760312E-01 -0.17679822323E-01  0.23618123782E-01  0.00000000000E+00 0.  1.
     999901    1    3    3    0    0  0.64032274427E-01  0.43116863425E-01 -0.79608194438E-01  0.88695922156E+00  0.88000000000E+00 0.  1.
        -11    1    4    4    0    0 -0.55558755002E-01 -0.56913122745E-01  0.78044488986E-01  0.11143196211E+00  0.51100000000E-03 0.  1.
         11    1    4    4    0    0 -0.10337844069E-01 -0.17525009910E-02  0.19243527774E-01  0.21920692551E-01  0.51100000000E-03 0. -1.
</event>
<event>
 8    1  0.1112929E+005  0.1043930E+01  0.7957747E-01            NaN
         13   -1    0    0    0    0  0.00000000000E+00  0.00000000000E+00  0.74505805969E-08  0.10566000000E+00  0.10566000000E+00 0.  1.
     999900   -1    0    0    0    0 -0.00000000000E+00 -0.00000000000E+00 -0.74505805969E-08  0.93827000000E+00  0.93827000000E+00 0.  1.
     999902    2    1    2    0    0  0.92128409587E-02 -0.49919627839E-02 -0.21875048028E-01  0.10196748179E+01  0.10193862960E+01 0.  0.
     999903    2    3    3    0    0 -0.61406614421E-01  0.10534813812E+00  0.34147382511E-01  0.12821502744E+00  0.20100921056E-01 0.  0.
         14    1    1    2    0    0 -0.92128409587E-02  0.49919627839E-02  0.21875048028E-01  0.24255182069E-01  0.00000000000E+00 0.  1.
     999901    1    3    3    0    0  0.70619455380E-01 -0.11034010091E+00 -0.56022430539E-01  0.89145979050E+00  0.88000000000E+00 0.  1.
        -11    1    4    4    0    0 -0.49008143525E-01  0.90800521543E-01  0.35312289853E-01  0.10905847872E+00  0.51100000000E-03 0. -1.
         11    1    4    4    0    0 -0.12398470896E-01  0.14547616580E-01 -0.11649073421E-02  0.19156548719E-01  0.51100000000E-03 0.  1.
</event>
<event>
 8    1  0.1112929E+005  0.1043930E+01  0.7957747E-01            NaN
         13   -1    0    0    0    0  0.00000000000E+00  0.00000000000E+00  0.74505805969E-08  0.10566000000E+00  0.10566000000E+00 0.  1.
     999900   -1    0    0    0    0 -0.00000000000E+00 -0.00000000000E+00 -0.74505805969E-08  0.93827000000E+00  0.93827000000E+00 0.  1.
     999902    2    1    2    0    0 -0.15543959766E-01  0.17365510596E-01  0.44485236882E-02  0.10202031164E+01  0.10199271708E+01 0.  0.
     999903    2    3    3    0    0 -0.12299281979E+00 -0.18061202651E-01 -0.38905488507E-01  0.13190143344E+00  0.20758380152E-01 0.  0.
         14    1    1    2    0    0  0.15543959766E-01 -0.17365510596E-01 -0.44485236882E-02  0.23726883623E-01  0.00000000000E+00 0.  1.
     999901    1    3    3    0    0  0.10744886003E+00  0.35426713247E-01  0.43354012195E-01  0.88830168294E+00  0.88000000000E+00 0. -1.
        -11    1    4    4    0    0 -0.90618889780E-01 -0.43492324076E-02 -0.25163198791E-01  0.94149597460E-01  0.51100000000E-03 0. -1.
         11    1    4    4    0    0 -0.32373930011E-01 -0.13711970243E-01 -0.13742289716E-01  0.37751835981E-01  0.51100000000E-03 0.  1.
</event>
<event>
 8    1  0.1112929E+005  0.1043930E+01  0.7957747E-01            NaN
         13   -1    0    0    0    0  0.00000000000E+00  0.00000000000E+00  0.74505805969E-08  0.10566000000E+00  0.10566000000E+00 0. -1.
     999900   -1    0    0    0    0 -0.00000000000E+00 -0.00000000000E+00 -0.74505805969E-08  0.93827000000E+00  0.93827000000E+00 0.  1.
     999902    2    1    2    0    0 -0.12174073627E-01  0.20171676534E-01  0.65607164384E-03  0.10203602093E+01  0.10200879480E+01 0.  0.
     999903    2    3    3    0    0 -0.12171111169E+00 -0.23481547686E-01 -0.39637446805E-01  0.13158153365E+00  0.19431804280E-01 0.  0.
         14    1    1    2    0    0  0.12174073627E-01 -0.20171676534E-01 -0.65607164384E-03  0.23569790684E-01  0.00000000000E+00 0.  1.
     999901    1    3    3    0    0  0.10953703806E+00  0.43653224220E-01  0.40293518448E-01  0.88877867567E+00  0.88000000000E+00 0. -1.
        -11    1    4    4    0    0 -0.55999309041E-01 -0.20101513072E-01 -0.22231192519E-01  0.63517560428E-01  0.51100000000E-03 0. -1.
         11    1    4    4    0    0 -0.65711802649E-01 -0.33800346138E-02 -0.17406254286E-01  0.68063973221E-01  0.51100000000E-03 0.  1.
</event>
<event>
 8    1  0.1112929E+005  0.1043930E+01  0.7957747E-01            NaN
         13   -1    0    0    0    0  0.00000000000E+00  0.00000000000E+00  0.74505805969E-08  0.10566000000E+00  0.10566000000E+00 0.  1.
     999900   -1    0    0    0    0 -0.00000000000E+00 -0.00000000000E+00 -0.74505805969E-08  0.93827000000E+00  0.93827000000E+00 0. -1.
     999902    2    1    2    0    0  0.82525422568E-02  0.22238498068E-01 -0.17293298864E-02  0.10201466901E+01  0.10198694149E+01 0.  0.
     999903    2    3    3    0    0 -0.49843777151E-01 -0.10168282284E+00 -0.55455214675E-01  0.12794819936E+00  0.21717787699E-01 0.  0.
         14    1    1    2    0    0 -0.82525422568E-02 -0.22238498068E-01  0.17293298864E-02  0.23783309943E-01  0.00000000000E+00 0.  1.
     999901    1    3    3    0    0  0.58096319408E-01  0.12392132091E+00  0.53725884789E-01  0.89219849070E+00  0.88000000000E+00 0.  1.
        -11    1    4    4    0    0 -0.33237802334E-01 -0.43463433780E-01 -0.24557987855E-01  0.59976474291E-01  0.51100000000E-03 0.  1.
         11    1    4    4    0    0 -0.16605974817E-01 -0.58219389064E-01 -0.30897226820E-01  0.67971725069E-01  0.51100000000E-03 0. -1.
</event>
<event>
 8    1  0.1112929E+005  0.1043930E+01  0.7957747E-01            NaN
         13   -1    0    0    0    0  0.00000000000E+00  0.00000000000E+00  0.74505805969E-08  0.10566000000E+00  0.10566000000E+00 0.  1.
     999900   -1    0    0    0    0 -0.00000000000E+00 -0.00000000000E+00 -0.74505805969E-08  0.93827000000E+00  0.93827000000E+00 0. -1.
     999902    2    1    2    0    0 -0.75537359623E-02 -0.18843274941E-01  0.11469138578E-01  0.10206132876E+01  0.10203469085E+01 0.  0.
     999903    2    3    3    0    0 -0.30826178519E-01  0.58644846874E-01  0.11153050319E+00  0.13125492772E+00  0.19983282058E-01 0.  0.
         14    1    1    2    0    0  0.75537359623E-02  0.18843274941E-01 -0.11469138578E-01  0.23316712402E-01  0.00000000000E+00 0. -1.
     999901    1    3    3    0    0  0.23272442557E-01 -0.77488121815E-01 -0.10006136461E+00  0.88935835988E+00  0.88000000000E+00 0. -1.
        -11    1    4    4    0    0 -0.15287509465E-01  0.13775046070E-01  0.45321156242E-01  0.49776783383E-01  0.51100000000E-03 0.  1.
         11    1    4    4    0    0 -0.15538669054E-01  0.44869800803E-01  0.66209346945E-01  0.81478144333E-01  0.51100000000E-03 0. -1.
</event>
<event>
 8    1  0.1112929E+005  0.1043930E+01  0.7957747E-01            NaN
         13   -1    0    0    0    0  0.00000000000E+00  0.00000000000E+00  0.74505805969E-08  0.10566000000E+00  0.10566000000E+00 0.  1.
     999900   -1    0    0    0    0 -0.00000000000E+00 -0.00000000000E+00 -0.74505805969E-08  0.93827000000E+00  0.93827000000E+00 0.  1.
     999902    2    1    2    0    0 -0.98745755209E-02 -0.14381852173E-01 -0.17035872994E-01  0.10195462783E+01  0.10192546531E+01 0.  0.
     999903    2    3    3    0    0  0.54341692200E-01 -0.20133375929E-02 -0.11780645333E+00  0.13138445802E+00  0.20650480015E-01 0.  0.
         14    1    1    2    0    0  0.98745755209E-02  0.14381852173E-01  0.17035872994E-01  0.24383721667E-01  0.00000000000E+00 0. -1.
     999901    1    3    3    0    0 -0.64216267721E-01 -0.12368514580E-01  0.10077058034E+00  0.88816182031E+00  0.88000000000E+00 0. -1.
        -11    1    4    4    0    0  0.28227311130E-01 -0.28851483935E-02 -0.38131429597E-01  0.47532854101E-01  0.51100000000E-03 0.  1.
         11    1    4    4    0    0  0.26114381071E-01  0.87181080065E-03 -0.79675023733E-01  0.83851603924E-01  0.51100000000E-03 0. -1.
</event>
<event>
 8    1  0.1112929E+005  0.1043930E+01  0.7957747E-01            NaN
         13   -1    0    0    0    0  0.00000000000E+00  0.00000000000E+00  0.74505805969E-08  0.10566000000E+00  0.10566000000E+00 0.  1.
     999900   -1    0    0    0    0 -0.00000000000E+00 -0.00000000000E+00 -0.74505805969E-08  0.93827000000E+00  0.93827000000E+00 0.  1.
     999902    2    1    2    0    0 -0.17373858881E-01 -0.15983024449E-01  0.12685614078E-01  0.10171301334E+01  0.10167770038E+01 0.  0.
     999903    2    3    3    0    0 -0.20064374083E-01 -0.10602953250E+00 -0.67388085554E-01  0.12891427575E+00  0.20806142099E-01 0.  0.
         14    1    1    2    0    0  0.17373858881E-01  0.15983024449E-01 -0.12685614078E-01  0.26799866558E-01  0.00000000000E+00 0. -1.
     999901    1    3    3    0    0  0.26905152021E-02  0.90046508046E-01  0.80073699632E-01  0.88821585769E+00  0.88000000000E+00 0. -1.
        -11    1    4    4    0    0 -0.10571979132E-01 -0.89495522935E-01 -0.49765049004E-01  0.10294676581E+00  0.51100000000E-03 0.  1.
         11    1    4    4    0    0 -0.94923949511E-02 -0.16534009560E-01 -0.17623036550E-01  0.25967509936E-01  0.51100000000E-03 0. -1.
</event>
<event>
 8    1  0.1112929E+005  0.1043930E+01  0.7957747E-01            NaN
         13   -1    0    0    0    0  0.00000000000E+00  0.00000000000E+00  0.74505805969E-08  0.10566000000E+00  0.10566000000E+00 0. -1.
     999900   -1    0    0    0    0 -0.00000000000E+00 -0.00000000000E+00 -0.74505805969E-08  0.93827000000E+00  0.93827000000E+00 0. -1.
     999902    2    1    2    0    0  0.14905439271E-01 -0.15174736062E-02  0.17870939838E-01  0.10206095082E+01  0.10203430418E+01 0.  0.
     999903    2    3    3    0    0  0.56588711568E-01 -0.67340768579E-01 -0.93817121905E-01  0.13013523881E+00  0.19911469760E-01 0.  0.
         14    1    1    2    0    0 -0.14905439271E-01  0.15174736062E-02 -0.17870939838E-01  0.23320491777E-01  0.00000000000E+00 0.  1.
     999901    1    3    3    0    0 -0.41683272297E-01  0.65823294973E-01  0.11168806174E+00  0.89047426941E+00  0.88000000000E+00 0.  1.
        -11    1    4    4    0    0  0.33429640557E-01 -0.50471079806E-01 -0.72301141195E-01  0.94300513804E-01  0.51100000000E-03 0. -1.
         11    1    4    4    0    0  0.23159071011E-01 -0.16869688774E-01 -0.21515980709E-01  0.35834725007E-01  0.51100000000E-03 0.  1.
</event>
<event>
 8    1  0.1112929E+005  0.1043930E+01  0.7957747E-01            NaN
         13   -1    0    0    0    0  0.00000000000E+00  0.00000000000E+00  0.74505805969E-08  0.10566000000E+00  0.10566000000E+00 0. -1.
     999900   -1    0    0    0    0 -0.00000000000E+00 -0.00000000000E+00 -0.74505805969E-08  0.93827000000E+00  0.93827000000E+00 0. -1.
     999902    2    1    2    0    0 -0.99143485525E-02 -0.68706495592E-02  0.19776273494E-01  0.10207653475E+01  0.10205024711E+01 0.  0.
     999903    2    3    3    0    0 -0.39757308371E-01  0.11270674010E+00  0.51434855312E-01  0.13161315570E+00  0.19824872699E-01 0.  0.
         14    1    1    2    0    0  0.99143485525E-02  0.68706495592E-02 -0.19776273494E-01  0.23164652509E-01  0.00000000000E+00 0.  1.
     999901    1    3    3    0    0  0.29842959819E-01 -0.11957738966E+00 -0.31658581818E-01  0.88915219179E+00  0.88000000000E+00 0. -1.
        -11    1    4    4    0    0 -0.34015107552E-01  0.80176186377E-01  0.44701546766E-01  0.97896566886E-01  0.51100000000E-03 0. -1.
         11    1    4    4    0    0 -0.57422008194E-02  0.32530553727E-01  0.67333085458E-02  0.33716588811E-01  0.51100000000E-03 0.  1.
</event>
<event>
 8    1  0.1112929E+005  0.1043930E+01  0.7957747E-01            NaN
         13   -1    0    0    0    0  0.00000000000E+00  0.00000000000E+00  0.74505805969E-08  0.10566000000E+00  0.10566000000E+00 0.  1.
     999900   -1    0    0    0    0 -0.00000000000E+00 -0.00000000000E+00 -0.74505805969E-08  0.93827000000E+00  0.93827000000E+00 0.  1.
     999902    2    1    2    0    0  0.10355566790E-01  0.20846598535E-01 -0.49007426168E-02  0.10201426985E+01  0.10198653292E+01 0.  0.
     999903    2    3    3    0    0 -0.10753955974E+00 -0.50930424351E-02 -0.69029307278E-01  0.12958972499E+00  0.20922609065E-01 0.  0.
         14    1    1    2    0    0 -0.10355566790E-01 -0.20846598535E-01  0.49007426168E-02  0.23787301491E-01  0.00000000000E+00 0.  1.
     999901    1    3    3    0    0  0.11789512653E+00  0.25939640970E-01  0.64128564661E-01  0.89055297352E+00  0.88000000000E+00 0. -1.
        -11    1    4    4    0    0 -0.70145707361E-01  0.65953890376E-02 -0.42763350686E-01  0.82418958381E-01  0.51100000000E-03 0.  1.
         11    1    4    4    0    0 -0.37393852379E-01 -0.11688431473E-01 -0.26265956591E-01  0.47170766612E-01  0.51100000000E-03 0. -1.
</event>
<event>
 8    1  0.1112929E+005  0.1043930E+01  0.7957747E-01            NaN
         13   -1    0    0    0    0  0.00000000000E+00  0.00000000000E+00  0.74505805969E-08  0.10566000000E+00  0.10566000000E+00 0.  1.
     999900   -1    0    0    0    0 -0.00000000000E+00 -0.00000000000E+00 -0.74505805969E-08  0.93827000000E+00  0.93827000000E+00 0. -1.
     999902    2    1    2    0    0  0.93117057661E-02  0.19980266919E-01 -0.90382726292E-02  0.10201054475E+01  0.10198271984E+01 0.  0.
     999903    2    3    3    0    0  0.37574130408E-01  0.10614923722E+00 -0.68838837709E-01  0.13342627006E+00  0.19603778398E-01 0.  0.
         14    1    1    2    0    0 -0.93117057661E-02 -0.19980266919E-01  0.90382726292E-02  0.23824552515E-01  0.00000000000E+00 0.  1.
     999901    1    3    3    0    0 -0.28262424642E-01 -0.86168970301E-01  0.59800565080E-01  0.88667917742E+00  0.88000000000E+00 0.  1.
        -11    1    4    4    0    0  0.26372351862E-01  0.68802790768E-01 -0.34062194225E-01  0.81177701104E-01  0.51100000000E-03 0.  1.
         11    1    4    4    0    0  0.11201778547E-01  0.37346446452E-01 -0.34776643484E-01  0.52248568959E-01  0.51100000000E-03 0. -1.
</event>
<event>
 8    1  0.1112929E+005  0.1043930E+01  0.7957747E-01            NaN
         13   -1    0    0    0    0  0.00000000000E+00  0.00000000000E+00  0.74505805969E-08  0.10566000000E+00  0.10566000000E+00 0. -1.
     999900   -1    0    0    0    0 -0.00000000000E+00 -0.00000000000E+00 -0.74505805969E-08  0.93827000000E+00  0.93827000000E+00 0.  1.
     999902    2    1    2    0    0 -0.15804306755E-01  0.16508275802E-01 -0.65583087521E-02  0.10201537367E+01  0.10198766278E+01 0.  0.
     999903    2    3    3    0    0  0.30479078944E-01 -0.10435579405E+00 -0.66072954503E-01  0.12869859582E+00  0.19457318509E-01 0.  0.
         14    1    1    2    0    0  0.15804306755E-01 -0.16508275802E-01  0.65583087521E-02  0.23776263282E-01  0.00000000000E+00 0. -1.
     999901    1    3    3    0    0 -0.46283385699E-01  0.12086406986E+00  0.59514645751E-01  0.89145514090E+00  0.88000000000E+00 0. -1.
        -11    1    4    4    0    0  0.25958745997E-01 -0.59286203880E-01 -0.44358750071E-01  0.78464452417E-01  0.51100000000E-03 0.  1.
         11    1    4    4    0    0  0.45203329470E-02 -0.45069590174E-01 -0.21714204432E-01  0.50234143404E-01  0.51100000000E-03 0. -1.
</event>
<event>
 8    1  0.1112929E+005  0.1043930E+01  0.7957747E-01            NaN
         13   -1    0    0    0    0  0.00000000000E+00  0.00000000000E+00  0.74505805969E-08  0.10566000000E+00  0.10566000000E+00 0.  1.
     999900   -1    0    0    0    0 -0.00000000000E+00 -0.00000000000E+00 -0.74505805969E-08  0.93827000000E+00  0.93827000000E+00 0.  1.
     999902    2    1    2    0    0 -0.19389293170E-01 -0.44891096125E-02 -0.27534167239E-03  0.10240259148E+01  0.10238324578E+01 0.  0.
     999903    2    3    3    0    0 -0.48994860929E-01  0.68679735558E-01  0.10281568003E+00  0.13449911458E+00  0.20038594976E-01 0.  0.
         14    1    1    2    0    0  0.19389293170E-01  0.44891096125E-02  0.27534167239E-03  0.19904085203E-01  0.00000000000E+00 0.  1.
     999901    1    3    3    0    0  0.29605567759E-01 -0.73168845171E-01 -0.10309102171E+00  0.88952680022E+00  0.88000000000E+00 0. -1.
        -11    1    4    4    0    0 -0.40627750578E-01  0.63215531088E-01  0.80955275932E-01  0.11045739138E+00  0.51100000000E-03 0. -1.
         11    1    4    4    0    0 -0.83671103502E-02  0.54642044705E-02  0.21860404101E-01  0.24041723203E-01  0.51100000000E-03 0.  1.
</event>
<event>
 8    1  0.1112929E+005  0.1043930E+01  0.7957747E-01            NaN
         13   -1    0    0    0    0  0.00000000000E+00  0.00000000000E+00  0.74505805969E-08  0.10566000000E+00  0.10566000000E+00 0.  1.
     999900   -1    0    0    0    0 -0.00000000000E+00 -0.00000000000E+00 -0.74505805969E-08  0.93827000000E+00  0.93827000000E+00 0. -1.
     999902    2    1    2    0    0 -0.22864095544E-01 -0.11008909690E-01 -0.10539157718E-02  0.10185316990E+01  0.10182149813E+01 0.  0.
     999903    2    3    3    0    0 -0.36130093869E-01  0.66335280529E-01 -0.10288617796E+00  0.12919041458E+00  0.19971091048E-01 0.  0.
         14    1    1    2    0    0  0.22864095544E-01  0.11008909690E-01  0.10539157718E-02  0.25398301047E-01  0.00000000000E+00 0. -1.
     999901    1    3    3    0    0  0.13265998325E-01 -0.77344190219E-01  0.10183226219E+00  0.88934128438E+00  0.88000000000E+00 0.  1.
        -11    1    4    4    0    0 -0.20758860584E-01  0.38038134191E-01 -0.74849302523E-01  0.86489936725E-01  0.51100000000E-03 0. -1.
         11    1    4    4    0    0 -0.15371233285E-01  0.28297146337E-01 -0.28036875437E-01  0.42700477852E-01  0.51100000000E-03 0.  1.
</event>
<event>
 8    1  0.1112929E+005  0.1043930E+01  0.7957747E-01            NaN
         13   -1    0    0    0    0  0.00000000000E+00  0.00000000000E+00  0.74505805969E-08  0.10566000000E+00  0.10566000000E+00 0. -1.
     999900   -1    0    0    0    0 -0.00000000000E+00 -0.00000000000E+00 -0.74505805969E-08  0.93827000000E+00  0.93827000000E+00 0. -1.
     999902    2    1    2    0    0  0.12046096283E-01  0.14031145273E-02 -0.20033861673E-01  0.10205113583E+01  0.10202426180E+01 0.  0.
     999903    2    3    3    0    0  0.15344099695E-01  0.59116130467E-01 -0.11726989015E+00  0.13327040214E+00  0.16691754690E-01 0.  0.
         14    1    1    2    0    0 -0.12046096283E-01 -0.14031145273E-02  0.20033861673E-01  0.23418641710E-01  0.00000000000E+00 0. -1.
     999901    1    3    3    0    0 -0.32980034121E-02 -0.57713015940E-01  0.97236028474E-01  0.88724095615E+00  0.88000000000E+00 0.  1.
        -11    1    4    4    0    0  0.17249434729E-01  0.41883219564E-01 -0.75571228917E-01  0.88107995327E-01  0.51100000000E-03 0.  1.
         11    1    4    4    0    0 -0.19053350333E-02  0.17232910903E-01 -0.41698661230E-01  0.45162406813E-01  0.51100000000E-03 0. -1.
</event>
<event>
 8    1  0.1112929E+005  0.1043930E+01  0.7957747E-01            NaN
         13   -1    0    0    0    0  0.00000000000E+00  0.00000000000E+00  0.74505805969E-08  0.10566000000E+00  0.10566000000E+00 0.  1.
     999900   -1    0    0    0    0 -0.00000000000E+00 -0.00000000000E+00 -0.74505805969E-08  0.93827000000E+00  0.93827000000E+00 0.  1.
     999902    2    1    2    0    0  0.33439380840E-02  0.33299646765E-02  0.23949058706E-01  0.10195204117E+01  0.10192281599E+01 0.  0.
     999903    2    3    3    0    0 -0.11152764849E+00  0.58898046983E-01  0.26509404334E-01  0.13031298455E+00  0.19269901616E-01 0.  0.
         14    1    1    2    0    0 -0.33439380840E-02 -0.33299646765E-02 -0.23949058706E-01  0.24409588271E-01  0.00000000000E+00 0. -1.
     999901    1    3    3    0    0  0.11487158658E+00 -0.55568082306E-01 -0.25603456287E-02  0.88920742718E+00  0.88000000000E+00 0.  1.
        -11    1    4    4    0    0 -0.49879527837E-01  0.20500879248E-01  0.19491548822E-01  0.57344877223E-01  0.51100000000E-03 0.  1.
         11    1    4    4    0    0 -0.61648120656E-01  0.38397167735E-01  0.70178555125E-02  0.72968107331E-01  0.51100000000E-03 0. -1.
</event>
<event>
 8    1  0.1112929E+005  0.1043930E+01  0.7957747E-01            NaN
         13   -1    0    0    0    0  0.00000000000E+00  0.00000000000E+00  0.74505805969E-08  0.10566000000E+00  0.10566000000E+00 0. -1.
     999900   -1    0    0    0    0 -0.00000000000E+00 -0.00000000000E+00 -0.74505805969E-08  0.93827000000E+00  0.93827000000E+00 0. -1.
     999902    2    1    2    0    0  0.21762290400E-01  0.59425692301E-02  0.66357194898E-02  0.10204152347E+01  0.10201442580E+01 0.  0.
     999903    2    3    3    0    0 -0.10070699996E+00  0.49873685123E-02 -0.76693535131E-01  0.12803448406E+00  0.18551471453E-01 0.  0.
         14    1    1    2    0    0 -0.21762290400E-01 -0.59425692301E-02 -0.66357194898E-02  0.23514765269E-01  0.00000000000E+00 0. -1.
     999901    1    3    3    0    0  0.12246929036E+00  0.95520071780E-03  0.83329254621E-01  0.89238075067E+00  0.88000000000E+00 0. -1.
        -11    1    4    4    0    0 -0.27816062552E-01  0.29044327519E-02 -0.11586963534E-01  0.30276854368E-01  0.51100000000E-03 0. -1.
         11    1    4    4    0    0 -0.72890937405E-01  0.20829357604E-02 -0.65106571597E-01  0.97757629694E-01  0.51100000000E-03 0.  1.
</event>
<event>
 8    1  0.1112929E+005  0.1043930E+01  0.7957747E-01            NaN
         13   -1    0    0    0    0  0.00000000000E+00  0.00000000000E+00  0.74505805969E-08  0.10566000000E+00  0.10566000000E+00 0. -1.
     999900   -1    0    0    0    0 -0.00000000000E+00 -0.00000000000E+00 -0.74505805969E-08  0.93827000000E+00  0.93827000000E+00 0. -1.
     999902    2    1    2    0    0  0.14666864304E-01 -0.81779489445E-02  0.17601087301E-01  0.10196031829E+01  0.10193129335E+01 0.  0.
     999903    2    3    3    0    0  0.59193167913E-02  0.93417755736E-01 -0.84703474094E-01  0.12782718517E+00  0.20079724759E-01 0.  0.
         14    1    1    2    0    0 -0.14666864304E-01  0.81779489445E-02 -0.17601087301E-01  0.24326817129E-01  0.00000000000E+00 0.  1.
     999901    1    3    3    0    0  0.87475475131E-02 -0.10159570468E+00  0.10230456139E+00  0.89177599770E+00  0.88000000000E+00 0. -1.
        -11    1    4    4    0    0  0.28800863626E-02  0.63970470936E-01 -0.69641277318E-01  0.94608058202E-01  0.51100000000E-03 0.  1.
         11    1    4    4    0    0  0.30392304287E-02  0.29447284800E-01 -0.15062196776E-01  0.33219126966E-01  0.51100000000E-03 0. -1.
</event>
<event>
 8    1  0.1112929E+005  0.1043930E+01  0.7957747E-01            NaN
         13   -1    0    0    0    0  0.00000000000E+00  0.00000000000E+00  0.74505805969E-08  0.10566000000E+00  0.10566000000E+00 0.  1.
     999900   -1    0    0    0    0 -0.00000000000E+00 -0.00000000000E+00 -0.74505805969E-08  0.93827000000E+00  0.93827000000E+00 0.  1.
     999902    2    1    2    0    0 -0.80362976105E-02 -0.15393184879E-01  0.17542644298E-01  0.10192464713E+01  0.10189475417E+01 0.  0.
     999903    2    3    3    0    0  0.15598966206E-01 -0.33203524338E-01  0.12536824907E+00  0.13217139278E+00  0.20156324538E-01 0.  0.
         14    1    1    2    0    0  0.80362976105E-02  0.15393184879E-01 -0.17542644298E-01  0.24683528698E-01  0.00000000000E+00 0. -1.
     999901    1    3    3    0    0 -0.23635263816E-01  0.17810339459E-01 -0.10782560478E+00  0.88707507852E+00  0.88000000000E+00 0.  1.
        -11    1    4    4    0    0  0.50985471518E-02 -0.13753429091E-01  0.21872756704E-01  0.26340664412E-01  0.51100000000E-03 0.  1.
         11    1    4    4    0    0  0.10500419054E-01 -0.19450095247E-01  0.10349549237E+00  0.10583072837E+00  0.51100000000E-03 0. -1.
</event>
<event>
 8    1  0.1112929E+005  0.1043930E+01  0.7957747E-01            NaN
         13   -1    0    0    0    0  0.00000000000E+00  0.00000000000E+00  0.74505805969E-08  0.10566000000E+00  0.10566000000E+00 0. -1.
     999900   -1    0    0    0    0 -0.00000000000E+00 -0.00000000000E+00 -0.74505805969E-08  0.93827000000E+00  0.93827000000E+00 0.  1.
     999902    2    1    2    0    0  0.20162916334E-01  0.11859217196E-01 -0.37214797967E-02  0.10202438513E+01  0.10199688635E+01 0.  0.
     999903    2    3    3    0    0 -0.10822947953E+00  0.46912281326E-01 -0.48779861288E-01  0.12909651088E+00  0.19288646325E-01 0.  0.
         14    1    1    2    0    0 -0.20162916334E-01 -0.11859217196E-01  0.37214797967E-02  0.23686148684E-01  0.00000000000E+00 0. -1.
     999901    1    3    3    0    0  0.12839239586E+00 -0.35053064130E-01  0.45058381491E-01  0.89114734043E+00  0.88000000000E+00 0.  1.
        -11    1    4    4    0    0 -0.60091743025E-01  0.32982293670E-01 -0.35763386095E-01  0.77318368979E-01  0.51100000000E-03 0.  1.
         11    1    4    4    0    0 -0.48137736502E-01  0.13929987656E-01 -0.13016475192E-01  0.51778141904E-01  0.51100000000E-03 0. -1.
</event>
<event>
 8    1  0.1112929E+005  0.1043930E+01  0.7957747E-01            NaN
         13   -1    0    0    0    0  0.00000000000E+00  0.00000000000E+00  0.74505805969E-08  0.10566000000E+00  0.10566000000E+00 0. -1.
     999900   -1    0    0    0    0 -0.00000000000E+00 -0.00000000000E+00 -0.74505805969E-08  0.93827000000E+00  0.93827000000E+00 0.  1.
     999902    2    1    2    0    0 -0.12737862026E-01 -0.19408510076E-01  0.40204395927E-02  0.10203692842E+01  0.10200972350E+01 0.  0.
     999903    2    3    3    0    0 -0.11453537254E+00  0.28405189826E-01  0.53562342944E-01  0.13182931146E+00  0.24183391168E-01 0.  0.
         14    1    1    2    0    0  0.12737862026E-01  0.19408510076E-01 -0.40204395927E-02  0.23560715755E-01  0.00000000000E+00 0. -1.
     999901    1    3    3    0    0  0.10179751051E+00 -0.47813699902E-01 -0.49541903351E-01  0.88853997278E+00  0.88000000000E+00 0. -1.
        -11    1    4    4    0    0 -0.35694416444E-01 -0.25999716602E-03  0.23377299114E-01  0.42672218113E-01  0.51100000000E-03 0. -1.
         11    1    4    4    0    0 -0.78840956091E-01  0.28665186992E-01  0.30185043829E-01  0.89157093350E-01  0.51100000000E-03 0.  1.
</event>
<event>
 8    1  0.1112929E+005  0.1043930E+01  0.7957747E-01            NaN
         13   -1    0    0    0    0  0.00000000000E+00  0.00000000000E+00  0.74505805969E-08  0.10566000000E+00  0.10566000000E+00 0. -1.
     999900   -1    0    0    0    0 -0.00000000000E+00 -0.00000000000E+00 -0.74505805969E-08  0.93827000000E+00  0.93827000000E+00 0.  1.
     999902    2    1    2    0    0  0.11543946675E-01  0.11472991731E-01 -0.15521090291E-01  0.10214400803E+01  0.10211924604E+01 0.  0.
     999903    2    3    3    0    0 -0.96295014658E-01  0.50504022233E-01  0.68319435832E-01  0.13004684680E+00  0.20524398637E-01 0.  0.
         14    1    1    2    0    0 -0.11543946675E-01 -0.11472991731E-01  0.15521090291E-01  0.22489919696E-01  0.00000000000E+00 0. -1.
     999901    1    3    3    0    0  0.10783896133E+00 -0.39031030502E-01 -0.83840526123E-01  0.89139323351E+00  0.88000000000E+00 0.  1.
        -11    1    4    4    0    0 -0.35710901937E-01  0.19168474788E-01  0.14110726968E-01  0.42919374173E-01  0.51100000000E-03 0. -1.
         11    1    4    4    0    0 -0.60584112721E-01  0.31335547445E-01  0.54208708865E-01  0.87127472623E-01  0.51100000000E-03 0.  1.
</event>
<event>
 8    1  0.1112929E+005  0.1043930E+01  0.7957747E-01            NaN
         13   -1    0    0    0    0  0.00000000000E+00  0.00000000000E+00  0.74505805969E-08  0.10566000000E+00  0.10566000000E+00 0.  1.
     999900   -1    0    0    0    0 -0.00000000000E+00 -0.00000000000E+00 -0.74505805969E-08  0.93827000000E+00  0.93827000000E+00 0.  1.
     999902    2    1    2    0    0  0.39131463841E-02  0.40959255189E-02  0.23616081441E-01  0.10196440241E+01  0.10193547603E+01 0.  0.
     999903    2    3    3    0    0  0.14930648102E-01  0.11279034701E+00  0.63754319686E-01  0.13198026980E+00  0.20238372175E-01 0.  0.
         14    1    1    2    0    0 -0.39131463841E-02 -0.40959255189E-02 -0.23616081441E-01  0.24285975852E-01  0.00000000000E+00 0. -1.
     999901    1    3    3    0    0 -0.11017501718E-01 -0.10869442149E+00 -0.40138238245E-01  0.88766375434E+00  0.88000000000E+00 0.  1.
        -11    1    4    4    0    0 -0.22234533143E-02  0.28437825178E-01  0.88079356694E-02  0.29857905105E-01  0.51100000000E-03 0. -1.
         11    1    4    4    0    0  0.17154101416E-01  0.84352521829E-01  0.54946384017E-01  0.10212236470E+00  0.51100000000E-03 0.  1.
</event>
<event>
 8    1  0.1112929E+005  0.1043930E+01  0.7957747E-01            NaN
         13   -1    0    0    0    0  0.00000000000E+00  0.00000000000E+00  0.74505805969E-08  0.10566000000E+00  0.10566000000E+00 0. -1.
     999900   -1    0    0    0    0 -0.00000000000E+00 -0.00000000000E+00 -0.74505805969E-08  0.93827000000E+00  0.93827000000E+00 0. -1.
     999902    2    1    2    0    0 -0.65820347354E-02  0.12724366385E-01  0.19578984106E-01  0.10196695528E+01  0.10193809041E+01 0.  0.
     999903    2    3    3    0    0  0.41709876626E-01 -0.11967828508E+00  0.13968218527E-02  0.12827000047E+00  0.19713857619E-01 0.  0.
         14    1    1    2    0    0  0.65820347354E-02 -0.12724366385E-01 -0.19578984106E-01  0.24260447230E-01  0.00000000000E+00 0. -1.
     999901    1    3    3    0    0 -0.48291911361E-01  0.13240265146E+00  0.18182162253E-01  0.89139955230E+00  0.88000000000E+00 0. -1.
        -11    1    4    4    0    0  0.16788584655E-01 -0.41832396099E-01  0.96992982839E-02  0.46110123035E-01  0.51100000000E-03 0.  1.
         11    1    4    4    0    0  0.24921291970E-01 -0.77845888978E-01 -0.83024764312E-02  0.82159877435E-01  0.51100000000E-03 0. -1.
</event>
<event>
 8    1  0.1112929E+005  0.1043930E+01  0.7957747E-01            NaN
         13   -1    0    0    0    0  0.00000000000E+00  0.00000000000E+00  0.74505805969E-08  0.10566000000E+00  0.10566000000E+00 0. -1.
     999900   -1    0    0    0    0 -0.00000000000E+00 -0.00000000000E+00 -0.74505805969E-08  0.93827000000E+00  0.93827000000E+00 0.  1.
     999902    2    1    2    0    0 -0.22588899572E-01  0.11795779408E-03  0.51641028272E-02  0.10207580287E+01  0.10204949842E+01 0.  0.
     999903    2    3    3    0    0 -0.89924048058E-01 -0.90524441132E-01  0.32511762322E-01  0.13312186379E+00  0.19580783122E-01 0.  0.
         14    1    1    2    0    0  0.22588899572E-01 -0.11795779408E-03 -0.51641028272E-02  0.23171971343E-01  0.00000000000E+00 0. -1.
     999901    1    3    3    0    0  0.67335148486E-01  0.90642398926E-01 -0.27347659494E-01  0.88763616487E+00  0.88000000000E+00 0. -1.
        -11    1    4    4    0    0 -0.69765268844E-01 -0.77676957633E-01  0.32014114411E-01  0.10920653427E+00  0.51100000000E-03 0. -1.
         11    1    4    4    0    0 -0.20158779214E-01 -0.12847483499E-01  0.49764791031E-03  0.23915329521E-01  0.51100000000E-03 0.  1.
</event>
<event>
 8    1  0.1112929E+005  0.1043930E+01  0.7957747E-01            NaN
         13   -1    0    0    0    0  0.00000000000E+00  0.00000000000E+00  0.74505805969E-08  0.10566000000E+00  0.10566000000E+00 0. -1.
     999900   -1    0    0    0    0 -0.00000000000E+00 -0.00000000000E+00 -0.74505805969E-08  0.93827000000E+00  0.93827000000E+00 0. -1.
     999902    2    1    2    0    0 -0.12515256899E-01 -0.19173289803E-01 -0.56554942942E-02  0.10203454433E+01  0.10200728368E+01 0.  0.
     999903    2    3    3    0    0 -0.33072012234E-01  0.78286725260E-02  0.12396177009E+00  0.13020370104E+00  0.20771066721E-01 0.  0.
         14    1    1    2    0    0  0.12515256899E-01  0.19173289803E-01  0.56554942942E-02  0.23584556660E-01  0.00000000000E+00 0. -1.
     999901    1    3    3    0    0  0.20556755334E-01 -0.27001962329E-01 -0.12961726439E+00  0.89014174230E+00  0.88000000000E+00 0. -1.
        -11    1    4    4    0    0 -0.32837185497E-01  0.12888644545E-02  0.95585432668E-01  0.10107807864E+00  0.51100000000E-03 0.  1.
         11    1    4    4    0    0 -0.23482673641E-03  0.65398080715E-02  0.28376337426E-01  0.29125622395E-01  0.51100000000E-03 0. -1.
</event>
<event>
 8    1  0.1112929E+005  0.1043930E+01  0.7957747E-01            NaN
         13   -1    0    0    0    0  0.00000000000E+00  0.00000000000E+00  0.74505805969E-08  0.10566000000E+00  0.10566000000E+00 0.  1.
     999900   -1    0    0    0    0 -0.00000000000E+00 -0.00000000000E+00 -0.74505805969E-08  0.93827000000E+00  0.93827000000E+00 0.  1.
     999902    2    1    2    0    0  0.10510451775E-01 -0.12418291751E-01  0.18133380064E-01  0.10195680822E+01  0.10192769845E+01 0.  0.
     999903    2    3    3    0    0  0.11017426500E+00  0.19756027918E-01  0.67132000834E-01  0.13200460427E+00  0.19744384130E-01 0.  0.
         14    1    1    2    0    0 -0.10510451775E-01  0.12418291751E-01 -0.18133380064E-01  0.24361917804E-01  0.00000000000E+00 0. -1.
     999901    1    3    3    0    0 -0.99663813226E-01 -0.32174319669E-01 -0.48998620770E-01  0.88756347793E+00  0.88000000000E+00 0.  1.
        -11    1    4    4    0    0  0.28484833907E-01 -0.10392124637E-02  0.24254568864E-01  0.37430080912E-01  0.51100000000E-03 0. -1.
         11    1    4    4    0    0  0.81689431093E-01  0.20795240382E-01  0.42877431970E-01  0.94574523357E-01  0.51100000000E-03 0.  1.
</event>
<event>
 8    1  0.1112929E+005  0.1043930E+01  0.7957747E-01            NaN
         13   -1    0    0    0    0  0.00000000000E+00  0.00000000000E+00  0.74505805969E-08  0.10566000000E+00  0.10566000000E+00 0. -1.
     999900   -1    0    0    0    0 -0.00000000000E+00 -0.00000000000E+00 -0.74505805969E-08  0.93827000000E+00  0.93827000000E+00 0.  1.
     999902    2    1    2    0    0 -0.80849654326E-02  0.22721059197E-01 -0.11140873313E-02  0.10197876226E+01  0.10195018101E+01 0.  0.
     999903    2    3    3    0    0  0.29859731379E-01 -0.10936096280E+00 -0.55252001637E-01  0.12747804944E+00  0.18613050835E-01 0.  0.
         14    1    1    2    0    0  0.80849654326E-02 -0.22721059197E-01  0.11140873313E-02  0.24142377424E-01  0.00000000000E+00 0. -1.
     999901    1    3    3    0    0 -0.37944696812E-01  0.13208202199E+00  0.54137914306E-01  0.89230957314E+00  0.88000000000E+00 0. -1.
        -11    1    4    4    0    0  0.17835965662E-01 -0.76166140472E-01 -0.46845629878E-01  0.91182107813E-01  0.51100000000E-03 0.  1.
         11    1    4    4    0    0  0.12023765718E-01 -0.33194822326E-01 -0.84063717586E-02  0.36295941625E-01  0.51100000000E-03 0. -1.
</event>
<event>
 8    1  0.1112929E+005  0.1043930E+01  0.7957747E-01            NaN
         13   -1    0    0    0    0  0.00000000000E+00  0.00000000000E+00  0.74505805969E-08  0.10566000000E+00  0.10566000000E+00 0. -1.
     999900   -1    0    0    0    0 -0.00000000000E+00 -0.00000000000E+00 -0.74505805969E-08  0.93827000000E+00  0.93827000000E+00 0. -1.
     999902    2    1    2    0    0  0.34820822371E-02  0.64286297523E-02 -0.23453459732E-01  0.10193634180E+01  0.10190673486E+01 0.  0.
     999903    2    3    3    0    0  0.93158204488E-01 -0.79936359685E-01 -0.40434453065E-01  0.13043762109E+00  0.17628253938E-01 0.  0.
         14    1    1    2    0    0 -0.34820822371E-02 -0.64286297523E-02  0.23453459732E-01  0.24566581989E-01  0.00000000000E+00 0. -1.
     999901    1    3    3    0    0 -0.89676122251E-01  0.86364989438E-01  0.16980993333E-01  0.88892579692E+00  0.88000000000E+00 0. -1.
        -11    1    4    4    0    0  0.54104466864E-01 -0.36905308965E-01 -0.16163016580E-01  0.67459613032E-01  0.51100000000E-03 0.  1.
         11    1    4    4    0    0  0.39053737624E-01 -0.43031050720E-01 -0.24271436485E-01  0.62978008055E-01  0.51100000000E-03 0. -1.
</event>
<event>
 8    1  0.1112929E+005  0.1043930E+01  0.7957747E-01            NaN
         13   -1    0    0    0    0  0.00000000000E+00  0.00000000000E+00  0.74505805969E-08  0.10566000000E+00  0.10566000000E+00 0. -1.
     999900   -1    0    0    0    0 -0.00000000000E+00 -0.00000000000E+00 -0.74505805969E-08  0.93827000000E+00  0.93827000000E+00 0.  1.
     999902    2    1    2    0    0  0.94279114526E-02  0.20093523920E-01  0.71588319356E-02  0.10206086773E+01  0.10203421917E+01 0.  0.
     999903    2    3    3    0    0 -0.10433608333E+00 -0.12009148329E-01 -0.71837972311E-01  0.12919781627E+00  0.22386235389E-01 0.  0.
         14    1    1    2    0    0 -0.94279114526E-02 -0.20093523920E-01 -0.71588319356E-02  0.23321322702E-01  0.00000000000E+00 0.  1.
     999901    1    3    3    0    0  0.11376399479E+00  0.32102672249E-01  0.78996804246E-01  0.89141086103E+00  0.88000000000E+00 0. -1.
        -11    1    4    4    0    0 -0.76483550940E-01  0.76282437876E-03 -0.47236248596E-01  0.89899053209E-01  0.51100000000E-03 0. -1.
         11    1    4    4    0    0 -0.27852532392E-01 -0.12771972708E-01 -0.24601723715E-01  0.39298763063E-01  0.51100000000E-03 0.  1.
</event>
<event>
 8    1  0.1112929E+005  0.1043930E+01  0.7957747E-01            NaN
         13   -1    0    0    0    0  0.00000000000E+00  0.00000000000E+00  0.74505805969E-08  0.10566000000E+00  0.10566000000E+00 0.  1.
     999900   -1    0    0    0    0 -0.00000000000E+00 -0.00000000000E+00 -0.74505805969E-08  0.93827000000E+00  0.93827000000E+00 0. -1.
     999902    2    1    2    0    0 -0.14801385621E-01  0.56509326071E-02 -0.17404241839E-01  0.10203944590E+01  0.10201229976E+01 0.  0.
     999903    2    3    3    0    0  0.40184190582E-01 -0.57830203924E-01  0.10500297032E+00  0.12796138372E+00  0.19732974639E-01 0.  0.
         14    1    1    2    0    0  0.14801385621E-01 -0.56509326071E-02  0.17404241839E-01  0.23535540988E-01  0.00000000000E+00 0.  1.
     999901    1    3    3    0    0 -0.54985576203E-01  0.63481136531E-01 -0.12240721216E+00  0.89243307529E+00  0.88000000000E+00 0. -1.
        -11    1    4    4    0    0  0.26870033427E-01 -0.45080950305E-01  0.90013302172E-01  0.10419667205E+00  0.51100000000E-03 0.  1.
         11    1    4    4    0    0  0.13314157155E-01 -0.12749253620E-01  0.14989668151E-01  0.23764711673E-01  0.51100000000E-03 0. -1.
</event>
<event>
 8    1  0.1112929E+005  0.1043930E+01  0.7957747E-01            NaN
         13   -1    0    0    0    0  0.00000000000E+00  0.00000000000E+00  0.74505805969E-08  0.10566000000E+00  0.10566000000E+00 0. -1.
     999900   -1    0    0    0    0 -0.00000000000E+00 -0.00000000000E+00 -0.74505805969E-08  0.93827000000E+00  0.93827000000E+00 0.  1.
     999902    2    1    2    0    0  0.30917427902E-02 -0.14530919060E-01  0.17913997361E-01  0.10206573168E+01  0.10203919544E+01 0.  0.
     999903    2    3    3    0    0 -0.56661266566E-01 -0.91473709484E-01  0.75954801429E-01  0.13338095057E+00  0.21057242424E-01 0.  0.
         14    1    1    2    0    0 -0.30917427902E-02  0.14530919060E-01 -0.17913997361E-01  0.23272683207E-01  0.00000000000E+00 0.  1.
     999901    1    3    3    0    0  0.59753009356E-01  0.76942790424E-01 -0.58040804069E-01  0.88727636623E+00  0.88000000000E+00 0. -1.
        -11    1    4    4    0    0 -0.27256963971E-01 -0.28592541548E-01  0.20356983820E-01  0.44442585753E-01  0.51100000000E-03 0. -1.
         11    1    4    4    0    0 -0.29404302594E-01 -0.62881167936E-01  0.55597817609E-01  0.88938364815E-01  0.51100000000E-03 0.  1.
</event>
<event>
 8    1  0.1112929E+005  0.1043930E+01  0.7957747E-01            NaN
         13   -1    0    0    0    0  0.00000000000E+00  0.00000000000E+00  0.74505805969E-08  0.10566000000E+00  0.10566000000E+00 0.  1.
     999900   -1    0    0    0    0 -0.00000000000E+00 -0.00000000000E+00 -0.74505805969E-08  0.93827000000E+00  0.93827000000E+00 0. -1.
     999902    2    1    2    0    0 -0.18992471804E-01  0.59952471305E-02  0.19282464453E-01  0.10162087012E+01  0.10158305242E+01 0.  0.
     999903    2    3    3    0    0 -0.80782891053E-01 -0.54608186981E-01 -0.78168900952E-01  0.12660901549E+00  0.20286353941E-01 0.  0.
         14    1    1    2    0    0  0.18992471804E-01 -0.59952471305E-02 -0.19282464453E-01  0.27721298829E-01  0.00000000000E+00 0. -1.
     999901    1    3    3    0    0  0.61790419249E-01  0.60603434111E-01  0.97451365405E-01  0.88959968568E+00  0.88000000000E+00 0.  1.
        -11    1    4    4    0    0 -0.32724224430E-01 -0.11484595287E-01 -0.32379749897E-01  0.47449764149E-01  0.51100000000E-03 0.  1.
         11    1    4    4    0    0 -0.48058666623E-01 -0.43123591694E-01 -0.45789151055E-01  0.79159251345E-01  0.51100000000E-03 0. -1.
</event>
<event>
 8    1  0.1112929E+005  0.1043930E+01  0.7957747E-01            NaN
         13   -1    0    0    0    0  0.00000000000E+00  0.00000000000E+00  0.74505805969E-08  0.10566000000E+00  0.10566000000E+00 0.  1.
     999900   -1    0    0    0    0 -0.00000000000E+00 -0.00000000000E+00 -0.74505805969E-08  0.93827000000E+00  0.93827000000E+00 0.  1.
     999902    2    1    2    0    0 -0.15596764572E-01  0.88078567053E-02  0.19969668456E-01  0.10171041717E+01  0.10167503484E+01 0.  0.
     999903    2    3    3    0    0 -0.19849899194E-01 -0.11410048749E+00  0.50999838466E-01  0.12801057615E+00  0.19307623881E-01 0.  0.
         14    1    1    2    0    0  0.15596764572E-01 -0.88078567053E-02 -0.19969668456E-01  0.26825828283E-01  0.00000000000E+00 0. -1.
     999901    1    3    3    0    0  0.42531346227E-02  0.12290834419E+00 -0.31030170010E-01  0.88909359557E+00  0.88000000000E+00 0.  1.
        -11    1    4    4    0    0 -0.18977897859E-01 -0.11049214271E+00  0.44727442178E-01  0.12070409858E+00  0.51100000000E-03 0.  1.
         11    1    4    4    0    0 -0.87200133550E-03 -0.36083447747E-02  0.62723962884E-02  0.73064775741E-02  0.51100000000E-03 0. -1.
</event>
<event>
 8    1  0.1112929E+005  0.1043930E+01  0.7957747E-01            NaN
         13   -1    0    0    0    0  0.00000000000E+00  0.00000000000E+00  0.74505805969E-08  0.10566000000E+00  0.10566000000E+00 0.  1.
     999900   -1    0    0    0    0 -0.00000000000E+00 -0.00000000000E+00 -0.74505805969E-08  0.93827000000E+00  0.93827000000E+00 0.  1.
     999902    2    1    2    0    0  0.20937636377E-01 -0.50602504886E-03  0.91943561088E-02  0.10210569402E+01  0.10208007143E+01 0.  0.
     999903    2    3    3    0    0 -0.38726414432E-02 -0.94349773437E-01 -0.87692092552E-01  0.13043402176E+00  0.20155739539E-01 0.  0.
         14    1    1    2    0    0 -0.20937636377E-01  0.50602504886E-03 -0.91943561088E-02  0.22873059757E-01  0.00000000000E+00 0.  1.
     999901    1    3    3    0    0  0.24810277820E-01  0.93843748388E-01  0.96886448661E-01  0.89062291849E+00  0.88000000000E+00 0. -1.
        -11    1    4    4    0    0 -0.91984355107E-02 -0.86713261423E-01 -0.80172989565E-01  0.11845577360E+00  0.51100000000E-03 0. -1.
         11    1    4    4    0    0  0.53257940675E-02 -0.76365120142E-02 -0.75191029867E-02  0.11978248157E-01  0.51100000000E-03 0.  1.
</event>
<event>
 8    1  0.1112929E+005  0.1043930E+01  0.7957747E-01            NaN
         13   -1    0    0    0    0  0.00000000000E+00  0.00000000000E+00  0.74505805969E-08  0.10566000000E+00  0.10566000000E+00 0. -1.
     999900   -1    0    0    0    0 -0.00000000000E+00 -0.00000000000E+00 -0.74505805969E-08  0.93827000000E+00  0.93827000000E+00 0. -1.
     999902    2    1    2    0    0  0.13037147081E-01 -0.32626091581E-02  0.19137806425E-01  0.10205448026E+01  0.10202768382E+01 0.  0.
     999903    2    3    3    0    0 -0.15439684721E-01 -0.10893987172E-02  0.13061061392E+00  0.13305292117E+00  0.20109120055E-01 0.  0.
         14    1    1    2    0    0 -0.13037147081E-01  0.32626091581E-02 -0.19137806425E-01  0.23385197397E-01  0.00000000000E+00 0.  1.
     999901    1    3    3    0    0  0.28476831802E-01 -0.21732104409E-02 -0.11147280750E+00  0.88749188143E+00  0.88000000000E+00 0. -1.
        -11    1    4    4    0    0 -0.11276027649E-02  0.64680231119E-02  0.15972775939E-01  0.17277080285E-01  0.51100000000E-03 0.  1.
         11    1    4    4    0    0 -0.14312081956E-01 -0.75574218292E-02  0.11463783798E+00  0.11577584089E+00  0.51100000000E-03 0. -1.
</event>
<event>
 8    1  0.1112929E+005  0.1043930E+01  0.7957747E-01            NaN
         13   -1    0    0    0    0  0.00000000000E+00  0.00000000000E+00  0.74505805969E-08  0.10566000000E+00  0.10566000000E+00 0.  1.
     999900   -1    0    0    0    0 -0.00000000000E+00 -0.00000000000E+00 -0.74505805969E-08  0.93827000000E+00  0.93827000000E+00 0. -1.
     999902    2    1    2    0    0  0.19848029486E-01  0.12804215878E-01  0.17351793711E-04  0.10203102515E+01  0.10200368213E+01 0.  0.
     999903    2    3    3    0    0 -0.10489267780E-01 -0.78809029959E-01  0.10004774069E+00  0.12940093112E+00  0.20350985628E-01 0.  0.
         14    1    1    2    0    0 -0.19848029486E-01 -0.12804215878E-01 -0.17351793711E-04  0.23619748513E-01  0.00000000000E+00 0. -1.
     999901    1    3    3    0    0  0.30337297267E-01  0.91613245837E-01 -0.10003038889E+00  0.89090932037E+00  0.88000000000E+00 0. -1.
        -11    1    4    4    0    0  0.58587595533E-02 -0.27206549964E-01  0.30991050619E-01  0.41656065152E-01  0.51100000000E-03 0.  1.
         11    1    4    4    0    0 -0.16348027334E-01 -0.51602479995E-01  0.69056690067E-01  0.87744865966E-01  0.51100000000E-03 0. -1.
</event>
<event>
 8    1  0.1112929E+005  0.1043930E+01  0.7957747E-01            NaN
         13   -1    0    0    0    0  0.00000000000E+00  0.00000000000E+00  0.74505805969E-08  0.10566000000E+00  0.10566000000E+00 0.  1.
     999900   -1    0    0    0    0 -0.00000000000E+00 -0.00000000000E+00 -0.74505805969E-08  0.93827000000E+00  0.93827000000E+00 0. -1.
     999902    2    1    2    0    0  0.20357816833E-01  0.13672184452E-01  0.13628646076E-02  0.10193693255E+01  0.10190734002E+01 0.  0.
     999903    2    3    3    0    0  0.55694545461E-01  0.97625383504E-01 -0.66418446463E-01  0.13207505063E+00  0.19995276172E-01 0.  0.
         14    1    1    2    0    0 -0.20357816833E-01 -0.13672184452E-01 -0.13628646076E-02  0.24560674540E-01  0.00000000000E+00 0.  1.
     999901    1    3    3    0    0 -0.35336728628E-01 -0.83953199051E-01  0.67781311071E-01  0.88729427483E+00  0.88000000000E+00 0. -1.
        -11    1    4    4    0    0  0.12911191327E-01  0.42234691478E-01 -0.25973016531E-01  0.51237942332E-01  0.51100000000E-03 0.  1.
         11    1    4    4    0    0  0.42783354135E-01  0.55390692025E-01 -0.40445429932E-01  0.80837108295E-01  0.51100000000E-03 0. -1.
</event>
<event>
 8    1  0.1112929E+005  0.1043930E+01  0.7957747E-01            NaN
         13   -1    0    0    0    0  0.00000000000E+00  0.00000000000E+00  0.74505805969E-08  0.10566000000E+00  0.10566000000E+00 0. -1.
     999900   -1    0    0    0    0 -0.00000000000E+00 -0.00000000000E+00 -0.74505805969E-08  0.93827000000E+00  0.93827000000E+00 0.  1.
     999902    2    1    2    0    0  0.27220453834E-02 -0.45709520434E-02  0.24035216343E-01  0.10193130392E+01  0.10190157394E+01 0.  0.
     999903    2    3    3    0    0  0.42152605232E-01  0.10920626892E+00 -0.47563082160E-01  0.12823148211E+00  0.21868125669E-01 0.  0.
         14    1    1    2    0    0 -0.27220453834E-02  0.45709520434E-02 -0.24035216343E-01  0.24616960785E-01  0.00000000000E+00 0.  1.
     999901    1    3    3    0    0 -0.39430559848E-01 -0.11377722097E+00  0.71598298503E-01  0.89108155710E+00  0.88000000000E+00 0. -1.
        -11    1    4    4    0    0  0.16684162187E-01  0.72142655642E-01 -0.31595272003E-01  0.80507430495E-01  0.51100000000E-03 0.  1.
         11    1    4    4    0    0  0.25468443045E-01  0.37063613281E-01 -0.15967810157E-01  0.47724051617E-01  0.51100000000E-03 0. -1.
</event>
<event>
 8    1  0.1112929E+005  0.1043930E+01  0.7957747E-01            NaN
         13   -1    0    0    0    0  0.00000000000E+00  0.00000000000E+00  0.74505805969E-08  0.10566000000E+00  0.10566000000E+00 0.  1.
     999900   -1    0    0    0    0 -0.00000000000E+00 -0.00000000000E+00 -0.74505805969E-08  0.93827000000E+00  0.93827000000E+00 0.  1.
     999902    2    1    2    0    0  0.10815200684E-01  0.43491987241E-02  0.19970958584E-01  0.10208059155E+01  0.10205439696E+01 0.  0.
     999903    2    3    3    0    0  0.20075777542E-01  0.12249995868E+00  0.41559942280E-01  0.13259904517E+00  0.21118741796E-01 0.  0.
         14    1    1    2    0    0 -0.10815200684E-01 -0.43491987241E-02 -0.19970958584E-01  0.23124084461E-01  0.00000000000E+00 0. -1.
     999901    1    3    3    0    0 -0.92605768581E-02 -0.11815075996E+00 -0.21588983696E-01  0.88820687037E+00  0.88000000000E+00 0. -1.
        -11    1    4    4    0    0  0.10393892396E-01  0.28033307287E-01  0.28094908487E-02  0.30034208437E-01  0.51100000000E-03 0. -1.
         11    1    4    4    0    0  0.96818851467E-02  0.94466651396E-01  0.38750451432E-01  0.10256483673E+00  0.51100000000E-03 0.  1.
</event>
<event>
 8    1  0.1112929E+005  0.1043930E+01  0.7957747E-01            NaN
         13   -1    0    0    0    0  0.00000000000E+00  0.00000000000E+00  0.74505805969E-08  0.10566000000E+00  0.10566000000E+00 0.  1.
     999900   -1    0    0    0    0 -0.00000000000E+00 -0.00000000000E+00 -0.74505805969E-08  0.93827000000E+00  0.93827000000E+00 0.  1.
     999902    2    1    2    0    0  0.50863110478E-02  0.22122486623E-01  0.67526025973E-02  0.10202472507E+01  0.10199723427E+01 0.  0.
     999903    2    3    3    0    0  0.36356717857E-01  0.10649173367E+00 -0.67171686986E-01  0.13257568483E+00  0.20049349178E-01 0.  0.
         14    1    1    2    0    0 -0.50863110478E-02 -0.22122486623E-01 -0.67526025973E-02  0.23682749340E-01  0.00000000000E+00 0. -1.
     999901    1    3    3    0    0 -0.31270406809E-01 -0.84369247048E-01  0.73924289583E-01  0.88767156583E+00  0.88000000000E+00 0. -1.
        -11    1    4    4    0    0  0.24788278836E-02  0.32073442016E-01 -0.14337643237E-01  0.35223279305E-01  0.51100000000E-03 0.  1.
         11    1    4    4    0    0  0.33877889973E-01  0.74418291655E-01 -0.52834043749E-01  0.97352405527E-01  0.51100000000E-03 0. -1.
</event>
<event>
 8    1  0.1112929E+005  0.1043930E+01  0.7957747E-01            NaN
         13   -1    0    0    0    0  0.00000000000E+00  0.00000000000E+00  0.74505805969E-08  0.10566000000E+00  0.10566000000E+00 0.  1.
     999900   -1    0    0    0    0 -0.00000000000E+00 -0.00000000000E+00 -0.74505805969E-08  0.93827000000E+00  0.93827000000E+00 0.  1.
     999902    2    1    2    0    0 -0.21992890965E-01 -0.41987311476E-02 -0.84218219846E-02  0.10200083846E+01  0.10197278367E+01 0.  0.
     999903    2    3    3    0    0  0.56101438332E-01 -0.96996421518E-01  0.60756600043E-01  0.12900008519E+00  0.19848938493E-01 0.  0.
         14    1    1    2    0    0  0.21992890965E-01  0.41987311476E-02  0.84218219846E-02  0.23921615367E-01  0.00000000000E+00 0.  1.
     999901    1    3    3    0    0 -0.78094329297E-01  0.92797690370E-01 -0.69178422027E-01  0.89100829945E+00  0.88000000000E+00 0.  1.
        -11    1    4    4    0    0  0.53429846934E-01 -0.85800996202E-01  0.48277285501E-01  0.11201569939E+00  0.51100000000E-03 0.  1.
         11    1    4    4    0    0  0.26715913980E-02 -0.11195425316E-01  0.12479314541E-01  0.16984385801E-01  0.51100000000E-03 0. -1.
</event>
<event>
 8    1  0.1112929E+005  0.1043930E+01  0.7957747E-01            NaN
         13   -1    0    0    0    0  0.00000000000E+00  0.00000000000E+00  0.74505805969E-08  0.10566000000E+00  0.10566000000E+00 0.  1.
     999900   -1    0    0    0    0 -0.00000000000E+00 -0.00000000000E+00 -0.74505805969E-08  0.93827000000E+00  0.93827000000E+00 0. -1.
     999902    2    1    2    0    0 -0.16041654214E-01  0.62219661348E-02  0.96158353813E-02  0.10242192968E+01  0.10240296168E+01 0.  0.
     999903    2    3    3    0    0 -0.20487593295E-01 -0.20433006792E-01  0.13085366160E+00  0.13549613150E+00  0.19981782963E-01 0.  0.
         14    1    1    2    0    0  0.16041654214E-01 -0.62219661348E-02 -0.96158353813E-02  0.19710703249E-01  0.00000000000E+00 0.  1.
     999901    1    3    3    0    0  0.44459390809E-02  0.26654972926E-01 -0.12123782622E+00  0.88872316526E+00  0.88000000000E+00 0. -1.
        -11    1    4    4    0    0 -0.15186943113E-01 -0.20961860534E-01  0.74139477526E-01  0.78530033026E-01  0.51100000000E-03 0.  1.
         11    1    4    4    0    0 -0.53006501811E-02  0.52885374231E-03  0.56714184074E-01  0.56966098469E-01  0.51100000000E-03 0. -1.
</event>
<event>
 8    1  0.1112929E+005  0.1043930E+01  0.7957747E-01            NaN
         13   -1    0    0    0    0  0.00000000000E+00  0.00000000000E+00  0.74505805969E-08  0.10566000000E+00  0.10566000000E+00 0.  1.
     999900   -1    0    0    0    0 -0.00000000000E+00 -0.00000000000E+00 -0.74505805969E-08  0.93827000000E+00  0.93827000000E+00 0. -1.
     999902    2    1    2    0    0 -0.16115403739E-01  0.12111809028E-01 -0.10420713505E-01  0.10212365334E+01  0.10209843602E+01 0.  0.
     999903    2    3    3    0    0 -0.62911939076E-01  0.11631052607E+00 -0.60844227993E-02  0.13384367128E+00  0.19775176068E-01 0.  0.
         14    1    1    2    0    0  0.16115403739E-01 -0.12111809028E-01  0.10420713505E-01  0.22693466583E-01  0.00000000000E+00 0.  1.
     999901    1    3    3    0    0  0.46796535337E-01 -0.10419871704E+00 -0.43362907059E-02  0.88739286214E+00  0.88000000000E+00 0.  1.
        -11    1    4    4    0    0 -0.37283344534E-01  0.87217394509E-01 -0.63772886555E-02  0.95067621282E-01  0.51100000000E-03 0.  1.
         11    1    4    4    0    0 -0.25628594542E-01  0.29093131560E-01  0.29286585628E-03  0.38776049999E-01  0.51100000000E-03 0. -1.
</event>
<event>
 8    1  0.1112929E+005  0.1043930E+01  0.7957747E-01            NaN
         13   -1    0    0    0    0  0.00000000000E+00  0.00000000000E+00  0.74505805969E-08  0.10566000000E+00  0.10566000000E+00 0. -1.
     999900   -1    0    0    0    0 -0.00000000000E+00 -0.00000000000E+00 -0.74505805969E-08  0.93827000000E+00  0.93827000000E+00 0.  1.
     999902    2    1    2    0    0  0.12702255435E-01  0.17490497445E-01 -0.11219311081E-01  0.10195755808E+01  0.10192846645E+01 0.  0.
     999903    2    3    3    0    0 -0.16836316345E-01 -0.89127004334E-01 -0.90150308083E-01  0.12914314585E+00  0.17994155223E-01 0.  0.
         14    1    1    2    0    0 -0.12702255435E-01 -0.17490497445E-01  0.11219311081E-01  0.24354419212E-01  0.00000000000E+00 0. -1.
     999901    1    3    3    0    0  0.29538571779E-01  0.10661750178E+00  0.78930997001E-01  0.89043243494E+00  0.88000000000E+00 0. -1.
        -11    1    4    4    0    0 -0.14598056132E-01 -0.31047943226E-01 -0.35167503876E-01  0.49133415017E-01  0.51100000000E-03 0. -1.
         11    1    4    4    0    0 -0.22382602123E-02 -0.58079061108E-01 -0.54982804207E-01  0.80009730829E-01  0.51100000000E-03 0.  1.
</event>
<event>
 8    1  0.1112929E+005  0.1043930E+01  0.7957747E-01            NaN
         13   -1    0    0    0    0  0.00000000000E+00  0.00000000000E+00  0.74505805969E-08  0.10566000000E+00  0.10566000000E+00 0.  1.
     999900   -1    0    0    0    0 -0.00000000000E+00 -0.00000000000E+00 -0.74505805969E-08  0.93827000000E+00  0.93827000000E+00 0.  1.
     999902    2    1    2    0    0  0.38104652404E-02  0.12309493304E-01 -0.16944255056E-01  0.10226426552E+01  0.10224210723E+01 0.  0.
     999903    2    3    3    0    0 -0.62100036989E-01 -0.72864504571E-01 -0.90227430924E-01  0.13305329592E+00  0.19913303169E-01 0.  0.
         14    1    1    2    0    0 -0.38104652404E-02 -0.12309493304E-01  0.16944255056E-01  0.21287344836E-01  0.00000000000E+00 0.  1.
     999901    1    3    3    0    0  0.65910502230E-01  0.85173997874E-01  0.73283175868E-01  0.88958935925E+00  0.88000000000E+00 0. -1.
        -11    1    4    4    0    0 -0.40480912739E-01 -0.32423287708E-01 -0.45577781831E-01  0.69047586486E-01  0.51100000000E-03 0. -1.
         11    1    4    4    0    0 -0.21619124250E-01 -0.40441216863E-01 -0.44649649094E-01  0.64005709432E-01  0.51100000000E-03 0.  1.
</event>
<event>
 8    1  0.1112929E+005  0.1043930E+01  0.7957747E-01            NaN
         13   -1    0    0    0    0  0.00000000000E+00  0.00000000000E+00  0.74505805969E-08  0.10566000000E+00  0.10566000000E+00 0. -1.
     999900   -1    0    0    0    0 -0.00000000000E+00 -0.00000000000E+00 -0.74505805969E-08  0.93827000000E+00  0.93827000000E+00 0. -1.
     999902    2    1    2    0    0  0.22661643229E-01  0.10551758345E-02  0.33479854670E-02  0.10209980904E+01  0.10207405293E+01 0.  0.
     999903    2    3    3    0    0  0.52187269969E-01 -0.92707896516E-01 -0.75617742840E-01  0.13201054124E+00  0.19760433758E-01 0.  0.
         14    1    1    2    0    0 -0.22661643229E-01 -0.10551758345E-02 -0.33479854670E-02  0.22931909571E-01  0.00000000000E+00 0.  1.
     999901    1    3    3    0    0 -0.29525626740E-01  0.93763072350E-01  0.78965728307E-01  0.88898754919E+00  0.88000000000E+00 0.  1.
        -11    1    4    4    0    0  0.31003793129E-01 -0.72557679719E-01 -0.53195617565E-01  0.95162423906E-01  0.51100000000E-03 0.  1.
         11    1    4    4    0    0  0.21183476840E-01 -0.20150216797E-01 -0.22422125275E-01  0.36848117331E-01  0.51100000000E-03 0. -1.
</event>
<event>
 8    1  0.1112929E+005  0.1043930E+01  0.7957747E-01            NaN
         13   -1    0    0    0    0  0.00000000000E+00  0.00000000000E+00  0.74505805969E-08  0.10566000000E+00  0.10566000000E+00 0. -1.
     999900   -1    0    0    0    0 -0.00000000000E+00 -0.00000000000E+00 -0.74505805969E-08  0.93827000000E+00  0.93827000000E+00 0.  1.
     999902    2    1    2    0    0  0.38558034518E-02 -0.31585926440E-02 -0.22372106826E-01  0.10210093741E+01  0.10207520693E+01 0.  0.
     999903    2    3    3    0    0 -0.75868644607E-01  0.88734214593E-01  0.52418563003E-01  0.12949722055E+00  0.19799300699E-01 0.  0.
         14    1    1    2    0    0 -0.38558034518E-02  0.31585926440E-02  0.22372106826E-01  0.22920625899E-01  0.00000000000E+00 0. -1.
     999901    1    3    3    0    0  0.79724448059E-01 -0.91892807237E-01 -0.74790669829E-01  0.89151215355E+00  0.88000000000E+00 0.  1.
        -11    1    4    4    0    0 -0.46217913257E-01  0.64685787941E-01  0.42030642555E-01  0.89928764597E-01  0.51100000000E-03 0. -1.
         11    1    4    4    0    0 -0.29650731350E-01  0.24048426652E-01  0.10387920448E-01  0.39568455950E-01  0.51100000000E-03 0.  1.
</event>
<event>
 8    1  0.1112929E+005  0.1043930E+01  0.7957747E-01            NaN
         13   -1    0    0    0    0  0.00000000000E+00  0.00000000000E+00  0.74505805969E-08  0.10566000000E+00  0.10566000000E+00 0.  1.
     999900   -1    0    0    0    0 -0.00000000000E+00 -0.00000000000E+00 -0.74505805969E-08  0.93827000000E+00  0.93827000000E+00 0.  1.
     999902    2    1    2    0    0 -0.22819665340E-01 -0.90315877801E-03  0.81403988109E-02  0.10196850229E+01  0.10193967466E+01 0.  0.
     999903    2    3    3    0    0  0.36096440793E-01  0.10736314586E+00 -0.57310618810E-01  0.12868752796E+00  0.21122847755E-01 0.  0.
         14    1    1    2    0    0  0.22819665340E-01  0.90315877801E-03 -0.81403988109E-02  0.24244977104E-01  0.00000000000E+00 0. -1.
     999901    1    3    3    0    0 -0.58916106133E-01 -0.10826630463E+00  0.65451017621E-01  0.89099749494E+00  0.88000000000E+00 0. -1.
        -11    1    4    4    0    0  0.10047677374E-01  0.61551832759E-01 -0.27774558836E-01  0.68273502738E-01  0.51100000000E-03 0. -1.
         11    1    4    4    0    0  0.26048763420E-01  0.45811313096E-01 -0.29536059974E-01  0.60414025219E-01  0.51100000000E-03 0.  1.
</event>
<event>
 8    1  0.1112929E+005  0.1043930E+01  0.7957747E-01            NaN
         13   -1    0    0    0    0  0.00000000000E+00  0.00000000000E+00  0.74505805969E-08  0.10566000000E+00  0.10566000000E+00 0. -1.
     999900   -1    0    0    0    0 -0.00000000000E+00 -0.00000000000E+00 -0.74505805969E-08  0.93827000000E+00  0.93827000000E+00 0. -1.
     999902    2    1    2    0    0  0.17825258002E-01  0.13274565418E-01 -0.80625959602E-02  0.10202876786E+01  0.10200137193E+01 0.  0.
     999903    2    3    3    0    0  0.11021557096E+00 -0.48983941042E-01 -0.50310253403E-01  0.13225786142E+00  0.20349981517E-01 0.  0.
         14    1    1    2    0    0 -0.17825258002E-01 -0.13274565418E-01  0.80625959602E-02  0.23642321449E-01  0.00000000000E+00 0. -1.
     999901    1    3    3    0    0 -0.92390312959E-01  0.62258506459E-01  0.42247657443E-01  0.88802981713E+00  0.88000000000E+00 0. -1.
        -11    1    4    4    0    0  0.48140756045E-01 -0.28389437951E-01 -0.31714554835E-01  0.64261704686E-01  0.51100000000E-03 0.  1.
         11    1    4    4    0    0  0.62074814915E-01 -0.20594503091E-01 -0.18595698568E-01  0.67996156734E-01  0.51100000000E-03 0. -1.
</event>
<event>
 8    1  0.1112929E+005  0.1043930E+01  0.7957747E-01            NaN
         13   -1    0    0    0    0  0.00000000000E+00  0.00000000000E+00  0.74505805969E-08  0.10566000000E+00  0.10566000000E+00 0.  1.
     999900   -1    0    0    0    0 -0.00000000000E+00 -0.00000000000E+00 -0.74505805969E-08  0.93827000000E+00  0.93827000000E+00 0.  1.
     999902    2    1    2    0    0  0.14268940969E-01  0.19118018024E-01  0.93135801929E-02  0.10183205473E+01  0.10179984740E+01 0.  0.
     999903    2    3    3    0    0 -0.40583520767E-01  0.12164865850E+00  0.15599169794E-01  0.13064896763E+00  0.19503855274E-01 0.  0.
         14    1    1    2    0    0 -0.14268940969E-01 -0.19118018024E-01 -0.93135801929E-02  0.25609452661E-01  0.00000000000E+00 0. -1.
     999901    1    3    3    0    0  0.54852461736E-01 -0.10253064048E+00 -0.62855896006E-02  0.88767157971E+00  0.88000000000E+00 0. -1.
        -11    1    4    4    0    0 -0.38008393344E-01  0.90920584521E-01  0.79025637783E-02  0.98863048150E-01  0.51100000000E-03 0.  1.
         11    1    4    4    0    0 -0.25751274221E-02  0.30728073979E-01  0.76966060153E-02  0.31785919475E-01  0.51100000000E-03 0. -1.
</event>
<event>
 8    1  0.1112929E+005  0.1043930E+01  0.7957747E-01            NaN
         13   -1    0    0    0    0  0.00000000000E+00  0.00000000000E+00  0.74505805969E-08  0.10566000000E+00  0.10566000000E+00 0. -1.
     999900   -1    0    0    0    0 -0.00000000000E+00 -0.00000000000E+00 -0.74505805969E-08  0.93827000000E+00  0.93827000000E+00 0.  1.
     999902    2    1    2    0    0  0.66390008269E-02 -0.99165261823E-02  0.22118228661E-01  0.10187977525E+01  0.10184877175E+01 0.  0.
     999903    2    3    3    0    0  0.10978984959E-01  0.22841688951E-01  0.12789652937E+00  0.13184736778E+00  0.19594011817E-01 0.  0.
         14    1    1    2    0    0 -0.66390008269E-02  0.99165261823E-02 -0.22118228661E-01  0.25132247464E-01  0.00000000000E+00 0.  1.
     999901    1    3    3    0    0 -0.43399841320E-02 -0.32758215134E-01 -0.10577830071E+00  0.88695038476E+00  0.88000000000E+00 0.  1.
        -11    1    4    4    0    0  0.13068812562E-01  0.68060106438E-02  0.78378530078E-01  0.79753186400E-01  0.51100000000E-03 0. -1.
         11    1    4    4    0    0 -0.20898276027E-02  0.16035678308E-01  0.49517999296E-01  0.52094181378E-01  0.51100000000E-03 0.  1.
</event>
<event>
 8    1  0.1112929E+005  0.1043930E+01  0.7957747E-01            NaN
         13   -1    0    0    0    0  0.00000000000E+00  0.00000000000E+00  0.74505805969E-08  0.10566000000E+00  0.10566000000E+00 0.  1.
     999900   -1    0    0    0    0 -0.00000000000E+00 -0.00000000000E+00 -0.74505805969E-08  0.93827000000E+00  0.93827000000E+00 0. -1.
     999902    2    1    2    0    0 -0.23372673515E-01  0.38377594777E-02  0.34328483826E-02  0.10199968700E+01  0.10197160487E+01 0.  0.
     999903    2    3    3    0    0  0.19437163459E-01  0.10309417835E+00  0.74326748266E-01  0.13055296287E+00  0.22658280467E-01 0.  0.
         14    1    1    2    0    0  0.23372673515E-01 -0.38377594777E-02 -0.34328483826E-02  0.23933130030E-01  0.00000000000E+00 0.  1.
     999901    1    3    3    0    0 -0.42809836974E-01 -0.99256418875E-01 -0.70893899883E-01  0.88944390710E+00  0.88000000000E+00 0. -1.
        -11    1    4    4    0    0  0.11236884427E-02  0.14804547382E-01  0.21227632853E-01  0.25909666467E-01  0.51100000000E-03 0.  1.
         11    1    4    4    0    0  0.18313475017E-01  0.88289630971E-01  0.53099115413E-01  0.10464329641E+00  0.51100000000E-03 0. -1.
</event>
<event>
 8    1  0.1112929E+005  0.1043930E+01  0.7957747E-01            NaN
         13   -1    0    0    0    0  0.00000000000E+00  0.00000000000E+00  0.74505805969E-08  0.10566000000E+00  0.10566000000E+00 0.  1.
     999900   -1    0    0    0    0 -0.00000000000E+00 -0.00000000000E+00 -0.74505805969E-08  0.93827000000E+00  0.93827000000E+00 0. -1.
     999902    2    1    2    0    0 -0.67003394434E-02 -0.82928689086E-02  0.20766906467E-01  0.10205862508E+01  0.10203192464E+01 0.  0.
     999903    2    3    3    0    0  0.81928750285E-01 -0.80958180154E-01  0.61833073601E-01  0.13220469250E+00  0.19702910234E-01 0.  0.
         14    1    1    2    0    0  0.67003394434E-02  0.82928689086E-02 -0.20766906467E-01  0.23343749219E-01  0.00000000000E+00 0. -1.
     999901    1    3    3    0    0 -0.88629089729E-01  0.72665311246E-01 -0.41066167134E-01  0.88838155828E+00  0.88000000000E+00 0. -1.
        -11    1    4    4    0    0  0.34042737066E-01 -0.24634478695E-01  0.14666581530E-01  0.44509945206E-01  0.51100000000E-03 0. -1.
         11    1    4    4    0    0  0.47886013220E-01 -0.56323701459E-01  0.47166492071E-01  0.87694747297E-01  0.51100000000E-03 0.  1.
</event>
<event>
 8    1  0.1112929E+005  0.1043930E+01  0.7957747E-01            NaN
         13   -1    0    0    0    0  0.00000000000E+00  0.00000000000E+00  0.74505805969E-08  0.10566000000E+00  0.10566000000E+00 0. -1.
     999900   -1    0    0    0    0 -0.00000000000E+00 -0.00000000000E+00 -0.74505805969E-08  0.93827000000E+00  0.93827000000E+00 0.  1.
     999902    2    1    2    0    0 -0.18994334827E-01  0.49270243408E-02  0.14419862066E-01  0.10195785576E+01  0.10192877133E+01 0.  0.
     999903    2    3    3    0    0 -0.12836821100E+00 -0.23618875272E-01  0.64925881690E-02  0.13231289568E+00  0.20695405197E-01 0.  0.
         14    1    1    2    0    0  0.18994334827E-01 -0.49270243408E-02 -0.14419862066E-01  0.24351442388E-01  0.00000000000E+00 0.  1.
     999901    1    3    3    0    0  0.10937387618E+00  0.28545899613E-01  0.79272738974E-02  0.88726566193E+00  0.88000000000E+00 0.  1.
        -11    1    4    4    0    0 -0.65213818499E-01 -0.19520986698E-01  0.10578956276E-01  0.68891846265E-01  0.51100000000E-03 0. -1.
         11    1    4    4    0    0 -0.63154392505E-01 -0.40978885740E-02 -0.40863681072E-02  0.63421049414E-01  0.51100000000E-03 0.  1.
</event>
<event>
 8    1  0.1112929E+005  0.1043930E+01  0.7957747E-01            NaN
         13   -1    0    0    0    0  0.00000000000E+00  0.00000000000E+00  0.74505805969E-08  0.10566000000E+00  0.10566000000E+00 0. -1.
     999900   -1    0    0    0    0 -0.00000000000E+00 -0.00000000000E+00 -0.74505805969E-08  0.93827000000E+00  0.93827000000E+00 0.  1.
     999902    2    1    2    0    0 -0.21032815382E-03  0.22647953609E-01  0.58163512124E-02  0.10205461598E+01  0.10202782269E+01 0.  0.
     999903    2    3    3    0    0  0.10758684256E+00  0.50015857614E-01 -0.51960783753E-01  0.13166628631E+00  0.23655299577E-01 0.  0.
         14    1    1    2    0    0  0.21032815382E-03 -0.22647953609E-01 -0.58163512124E-02  0.23383840190E-01  0.00000000000E+00 0.  1.
     999901    1    3    3    0    0 -0.10779717072E+00 -0.27367904005E-01  0.57777134965E-01  0.88887987350E+00  0.88000000000E+00 0. -1.
        -11    1    4    4    0    0  0.69320112599E-01  0.23469429284E-01 -0.40722679068E-01  0.83753745189E-01  0.51100000000E-03 0. -1.
         11    1    4    4    0    0  0.38266729962E-01  0.26546428330E-01 -0.11238104685E-01  0.47912541124E-01  0.51100000000E-03 0.  1.
</event>
<event>
 8    1  0.1161206E+005  0.1043930E+01  0.7957747E-01            NaN
         13   -1    0    0    0    0  0.00000000000E+00  0.00000000000E+00  0.74505805969E-08  0.10566000000E+00  0.10566000000E+00 0.  1.
     999900   -1    0    0    0    0 -0.00000000000E+00 -0.00000000000E+00 -0.74505805969E-08  0.93827000000E+00  0.93827000000E+00 0. -1.
     999902    2    1    2    0    0 -0.11338232237E-01  0.18823465658E-01  0.58028100621E-03  0.10219478460E+01  0.10217114000E+01 0.  0.
     999903    2    3    3    0    0  0.26181935314E-01 -0.11887844859E+00  0.39609041694E-01  0.12959543559E+00  0.20211913934E-01 0.  0.
         14    1    1    2    0    0  0.11338232237E-01 -0.18823465658E-01 -0.58028100621E-03  0.21982154028E-01  0.00000000000E+00 0.  1.
     999901    1    3    3    0    0 -0.37520167551E-01  0.13770191425E+00 -0.39028760687E-01  0.89235241039E+00  0.88000000000E+00 0. -1.
        -11    1    4    4    0    0  0.24149348588E-01 -0.65424785684E-01  0.19159095101E-01  0.72325138542E-01  0.51100000000E-03 0. -1.
         11    1    4    4    0    0  0.20325867259E-02 -0.53453662906E-01  0.20449946593E-01  0.57270297044E-01  0.51100000000E-03 0.  1.
</event>
<event>
 8    1  0.1112929E+005  0.1043930E+01  0.7957747E-01            NaN
         13   -1    0    0    0    0  0.00000000000E+00  0.00000000000E+00  0.74505805969E-08  0.10566000000E+00  0.10566000000E+00 0. -1.
     999900   -1    0    0    0    0 -0.00000000000E+00 -0.00000000000E+00 -0.74505805969E-08  0.93827000000E+00  0.93827000000E+00 0.  1.
     999902    2    1    2    0    0  0.20985860577E-01 -0.25272637870E-02 -0.10651846895E-01  0.10202602884E+01  0.10199856866E+01 0.  0.
     999903    2    3    3    0    0 -0.11412754345E+00 -0.49763453846E-01 -0.27210979911E-01  0.12854223064E+00  0.16768127975E-01 0.  0.
         14    1    1    2    0    0 -0.20985860577E-01  0.25272637870E-02  0.10651846895E-01  0.23669711631E-01  0.00000000000E+00 0. -1.
     999901    1    3    3    0    0  0.13511340403E+00  0.47236190059E-01  0.16559133016E-01  0.89171805773E+00  0.88000000000E+00 0.  1.
        -11    1    4    4    0    0 -0.59541774696E-01 -0.21484572480E-01 -0.63407433296E-02  0.63618204435E-01  0.51100000000E-03 0. -1.
         11    1    4    4    0    0 -0.54585768758E-01 -0.28278881367E-01 -0.20870236582E-01  0.64924026201E-01  0.51100000000E-03 0.  1.
</event>
<event>
 8    1  0.1112929E+005  0.1043930E+01  0.7957747E-01            NaN
         13   -1    0    0    0    0  0.00000000000E+00  0.00000000000E+00  0.74505805969E-08  0.10566000000E+00  0.10566000000E+00 0.  1.
     999900   -1    0    0    0    0 -0.00000000000E+00 -0.00000000000E+00 -0.74505805969E-08  0.93827000000E+00  0.93827000000E+00 0. -1.
     999902    2    1    2    0    0  0.33838446773E-02 -0.42537736049E-02 -0.22890075482E-01  0.10204034076E+01  0.10201321550E+01 0.  0.
     999903    2    3    3    0    0  0.11141644166E+00  0.28735915043E-02  0.63245974966E-01  0.12959407865E+00  0.19305203195E-01 0.  0.
         14    1    1    2    0    0 -0.33838446773E-02  0.42537736049E-02  0.22890075482E-01  0.23526592407E-01  0.00000000000E+00 0.  1.
     999901    1    3    3    0    0 -0.10803259699E+00 -0.71273651092E-02 -0.86136050448E-01  0.89080932894E+00  0.88000000000E+00 0.  1.
        -11    1    4    4    0    0  0.59584508771E-01 -0.80434592898E-02  0.34652962629E-01  0.69398125787E-01  0.51100000000E-03 0. -1.
         11    1    4    4    0    0  0.51831932894E-01  0.10917050794E-01  0.28593012337E-01  0.60195952863E-01  0.51100000000E-03 0.  1.
</event>
<event>
 8    1  0.1112929E+005  0.1043930E+01  0.7957747E-01            NaN
         13   -1    0    0    0    0  0.00000000000E+00  0.00000000000E+00  0.74505805969E-08  0.10566000000E+00  0.10566000000E+00 0. -1.
     999900   -1    0    0    0    0 -0.00000000000E+00 -0.00000000000E+00 -0.74505805969E-08  0.93827000000E+00  0.93827000000E+00 0.  1.
     999902    2    1    2    0    0 -0.25690888334E-02 -0.17518266802E-01 -0.14517054261E-01  0.10210338267E+01  0.10207770768E+01 0.  0.
     999903    2    3    3    0    0  0.84408412380E-01 -0.93151689335E-01  0.35629155760E-01  0.13210180299E+00  0.19479022238E-01 0.  0.
         14    1    1    2    0    0  0.25690888334E-02  0.17518266802E-01  0.14517054261E-01  0.22896173340E-01  0.00000000000E+00 0. -1.
     999901    1    3    3    0    0 -0.86977501214E-01  0.75633422533E-01 -0.50146210022E-01  0.88893202367E+00  0.88000000000E+00 0.  1.
        -11    1    4    4    0    0  0.37009259660E-01 -0.53886801734E-01  0.13967901504E-01  0.66849353738E-01  0.51100000000E-03 0. -1.
         11    1    4    4    0    0  0.47399152720E-01 -0.39264887601E-01  0.21661254256E-01  0.65252449255E-01  0.51100000000E-03 0.  1.
</event>
<event>
 8    1  0.1112929E+005  0.1043930E+01  0.7957747E-01            NaN
         13   -1    0    0    0    0  0.00000000000E+00  0.00000000000E+00  0.74505805969E-08  0.10566000000E+00  0.10566000000E+00 0.  1.
     999900   -1    0    0    0    0 -0.00000000000E+00 -0.00000000000E+00 -0.74505805969E-08  0.93827000000E+00  0.93827000000E+00 0. -1.
     999902    2    1    2    0    0  0.25732825207E-03 -0.21745870699E-01  0.52765361567E-02  0.10215516412E+01  0.10213064989E+01 0.  0.
     999903    2    3    3    0    0 -0.12258779277E+00 -0.11148154937E-01 -0.42544021688E-01  0.13166960343E+00  0.19360846810E-01 0.  0.
         14    1    1    2    0    0 -0.25732825207E-03  0.21745870699E-01 -0.52765361567E-02  0.22378358834E-01  0.00000000000E+00 0.  1.
     999901    1    3    3    0    0  0.12284512103E+00 -0.10597715762E-01  0.47820557845E-01  0.88988203774E+00  0.88000000000E+00 0. -1.
        -11    1    4    4    0    0 -0.65795860162E-01 -0.15093528541E-01 -0.19659512283E-01  0.70311217899E-01  0.51100000000E-03 0. -1.
         11    1    4    4    0    0 -0.56791932613E-01  0.39453736046E-02 -0.22884509405E-01  0.61358385527E-01  0.51100000000E-03 0.  1.
</event>
<event>
 8    1  0.1112929E+005  0.1043930E+01  0.7957747E-01            NaN
         13   -1    0    0    0    0  0.00000000000E+00  0.00000000000E+00  0.74505805969E-08  0.10566000000E+00  0.10566000000E+00 0. -1.
     999900   -1    0    0    0    0 -0.00000000000E+00 -0.00000000000E+00 -0.74505805969E-08  0.93827000000E+00  0.93827000000E+00 0.  1.
     999902    2    1    2    0    0 -0.14667156034E-01  0.79771752056E-02 -0.16831550615E-01  0.10202221556E+01  0.10199466579E+01 0.  0.
     999903    2    3    3    0    0  0.49953153856E-01  0.32243744155E-01  0.11185206401E+00  0.12818845472E+00  0.19657545218E-01 0.  0.
         14    1    1    2    0    0  0.14667156034E-01 -0.79771752056E-02  0.16831550615E-01  0.23707844408E-01  0.00000000000E+00 0. -1.
     999901    1    3    3    0    0 -0.64620309890E-01 -0.24266568949E-01 -0.12868361462E+00  0.89203370087E+00  0.88000000000E+00 0.  1.
        -11    1    4    4    0    0  0.33471761338E-01  0.27756356239E-01  0.63995011751E-01  0.77371808618E-01  0.51100000000E-03 0. -1.
         11    1    4    4    0    0  0.16481392517E-01  0.44873879158E-02  0.47857052254E-01  0.50816646102E-01  0.51100000000E-03 0.  1.
</event>
<event>
 8    1  0.1112929E+005  0.1043930E+01  0.7957747E-01            NaN
         13   -1    0    0    0    0  0.00000000000E+00  0.00000000000E+00  0.74505805969E-08  0.10566000000E+00  0.10566000000E+00 0.  1.
     999900   -1    0    0    0    0 -0.00000000000E+00 -0.00000000000E+00 -0.74505805969E-08  0.93827000000E+00  0.93827000000E+00 0.  1.
     999902    2    1    2    0    0  0.19369192607E-01 -0.36557918377E-02  0.52630276416E-03  0.10242117995E+01  0.10240219738E+01 0.  0.
     999903    2    3    3    0    0  0.54379789502E-02 -0.70931160383E-01  0.11234590040E+00  0.13447943731E+00  0.20057831220E-01 0.  0.
         14    1    1    2    0    0 -0.19369192607E-01  0.36557918377E-02 -0.52630276416E-03  0.19718200496E-01  0.00000000000E+00 0. -1.
     999901    1    3    3    0    0  0.13931213657E-01  0.67275368545E-01 -0.11181959764E+00  0.88973236220E+00  0.88000000000E+00 0.  1.
        -11    1    4    4    0    0 -0.31998295886E-02 -0.58225192370E-01  0.92977391376E-01  0.10975184902E+00  0.51100000000E-03 0. -1.
         11    1    4    4    0    0  0.86378085388E-02 -0.12705968013E-01  0.19368509024E-01  0.24727588283E-01  0.51100000000E-03 0.  1.
</event>
<event>
 8    1  0.1112929E+005  0.1043930E+01  0.7957747E-01            NaN
         13   -1    0    0    0    0  0.00000000000E+00  0.00000000000E+00  0.74505805969E-08  0.10566000000E+00  0.10566000000E+00 0. -1.
     999900   -1    0    0    0    0 -0.00000000000E+00 -0.00000000000E+00 -0.74505805969E-08  0.93827000000E+00  0.93827000000E+00 0.  1.
     999902    2    1    2    0    0  0.11624012082E-01  0.76430762645E-02  0.18528775751E-01  0.10207599805E+01  0.10204969809E+01 0.  0.
     999903    2    3    3    0    0  0.64046285861E-01 -0.94152994310E-02  0.11531960893E+00  0.13373825116E+00  0.19918158193E-01 0.  0.
         14    1    1    2    0    0 -0.11624012082E-01 -0.76430762645E-02 -0.18528775751E-01  0.23170019476E-01  0.00000000000E+00 0.  1.
     999901    1    3    3    0    0 -0.52422273779E-01  0.17058375695E-01 -0.96790833174E-01  0.88702172936E+00  0.88000000000E+00 0.  1.
        -11    1    4    4    0    0  0.14177529035E-01  0.61032900056E-02  0.28645364438E-01  0.32543363428E-01  0.51100000000E-03 0.  1.
         11    1    4    4    0    0  0.49868756827E-01 -0.15518589437E-01  0.86674244488E-01  0.10119488774E+00  0.51100000000E-03 0. -1.
</event>
<event>
 8    1  0.1112929E+005  0.1043930E+01  0.7957747E-01            NaN
         13   -1    0    0    0    0  0.00000000000E+00  0.00000000000E+00  0.74505805969E-08  0.10566000000E+00  0.10566000000E+00 0.  1.
     999900   -1    0    0    0    0 -0.00000000000E+00 -0.00000000000E+00 -0.74505805969E-08  0.93827000000E+00  0.93827000000E+00 0.  1.
     999902    2    1    2    0    0 -0.18519363051E-01 -0.10006935456E-01  0.10394309225E-01  0.10204534749E+01  0.10201833890E+01 0.  0.
     999903    2    3    3    0    0 -0.11230557829E+00  0.54556736227E-01 -0.38965188709E-01  0.13174616546E+00  0.15804613220E-01 0.  0.
         14    1    1    2    0    0  0.18519363051E-01  0.10006935456E-01 -0.10394309225E-01  0.23476525069E-01  0.00000000000E+00 0. -1.
     999901    1    3    3    0    0  0.93786215241E-01 -0.64563671683E-01  0.49359497935E-01  0.88870730947E+00  0.88000000000E+00 0. -1.
        -11    1    4    4    0    0 -0.97629293935E-01  0.45032235701E-01 -0.28036757223E-01  0.11111121529E+00  0.51100000000E-03 0. -1.
         11    1    4    4    0    0 -0.14676284357E-01  0.95245005255E-02 -0.10928431487E-01  0.20634950171E-01  0.51100000000E-03 0.  1.
</event>
<event>
 7    1  0.1112929E+005  0.1043930E+01  0.7957747E-01            NaN
         13   -1    0    0    0    0  0.00000000000E+00  0.00000000000E+00  0.74505805969E-08  0.10566000000E+00  0.10566000000E+00 0. -1.
     999900   -1    0    0    0    0 -0.00000000000E+00 -0.00000000000E+00 -0.74505805969E-08  0.93827000000E+00  0.93827000000E+00 0. -1.
     999902    2    1    2    0    0  0.22445158045E-01  0.74711118577E-02  0.81702791052E-02  0.10189028928E+01  0.10185954786E+01 0.  0.
         14    1    1    2    0    0 -0.22445158045E-01 -0.74711118577E-02 -0.81702791052E-02  0.25027107159E-01  0.00000000000E+00 0.  1.
     999901    1    3    3    0    0  0.65966681423E-01 -0.20229325013E-01  0.11305070882E+00  0.88991083341E+00  0.88000000000E+00 0.  1.
        -11    1    3    3    0    0 -0.46839812658E-01  0.15218719680E-03 -0.58506811673E-01  0.74948644710E-01  0.51100000000E-03 0.  1.
         11    1    3    3    0    0  0.33182892796E-02  0.27548249674E-01 -0.46373618043E-01  0.54043414726E-01  0.51100000000E-03 0. -1.
</event>
<event>
 8    1  0.1112929E+005  0.1043930E+01  0.7957747E-01            NaN
         13   -1    0    0    0    0  0.00000000000E+00  0.00000000000E+00  0.74505805969E-08  0.10566000000E+00  0.10566000000E+00 0.  1.
     999900   -1    0    0    0    0 -0.00000000000E+00 -0.00000000000E+00 -0.74505805969E-08  0.93827000000E+00  0.93827000000E+00 0. -1.
     999902    2    1    2    0    0  0.42102850401E-03 -0.22789874265E-01 -0.33010673926E-02  0.10208984417E+01  0.10206386116E+01 0.  0.
     999903    2    3    3    0    0 -0.85923162803E-01  0.92129436780E-01  0.18681032709E-01  0.12896515931E+00  0.20307838518E-01 0.  0.
         14    1    1    2    0    0 -0.42102850401E-03  0.22789874265E-01  0.33010673926E-02  0.23031558348E-01  0.00000000000E+00 0.  1.
     999901    1    3    3    0    0  0.86344191307E-01 -0.11491931105E+00 -0.21982100102E-01  0.89193328234E+00  0.88000000000E+00 0.  1.
        -11    1    4    4    0    0 -0.43669024892E-01  0.39923027675E-01  0.17816786923E-01  0.61794262606E-01  0.51100000000E-03 0. -1.
         11    1    4    4    0    0 -0.42254137911E-01  0.52206409105E-01  0.86424578628E-03  0.67170896704E-01  0.51100000000E-03 0.  1.
</event>
<event>
 8    1  0.1112929E+005  0.1043930E+01  0.7957747E-01            NaN
         13   -1    0    0    0    0  0.00000000000E+00  0.00000000000E+00  0.74505805969E-08  0.10566000000E+00  0.10566000000E+00 0. -1.
     999900   -1    0    0    0    0 -0.00000000000E+00 -0.00000000000E+00 -0.74505805969E-08  0.93827000000E+00  0.93827000000E+00 0. -1.
     999902    2    1    2    0    0  0.85215465487E-02  0.11910238484E-02  0.22022756334E-01  0.10202860348E+01  0.10200120371E+01 0.  0.
     999903    2    3    3    0    0 -0.28284850016E-01  0.15907108880E-01 -0.12171305629E+00  0.12774401461E+00  0.21246090116E-01 0.  0.
         14    1    1    2    0    0 -0.85215465487E-02 -0.11910238484E-02 -0.22022756334E-01  0.23643965191E-01  0.00000000000E+00 0.  1.
     999901    1    3    3    0    0  0.36806396565E-01 -0.14716085031E-01  0.14373581262E+00  0.89254202020E+00  0.88000000000E+00 0.  1.
        -11    1    4    4    0    0 -0.95016067712E-02  0.15585349576E-01 -0.78940825615E-01  0.81025296806E-01  0.51100000000E-03 0.  1.
         11    1    4    4    0    0 -0.18783243245E-01  0.32175930361E-03 -0.42772230672E-01  0.46718717807E-01  0.51100000000E-03 0. -1.
</event>
<event>
 8    1  0.1112929E+005  0.1043930E+01  0.7957747E-01            NaN
         13   -1    0    0    0    0  0.00000000000E+00  0.00000000000E+00  0.74505805969E-08  0.10566000000E+00  0.10566000000E+00 0.  1.
     999900   -1    0    0    0    0 -0.00000000000E+00 -0.00000000000E+00 -0.74505805969E-08  0.93827000000E+00  0.93827000000E+00 0.  1.
     999902    2    1    2    0    0 -0.14560740983E-01  0.76075532381E-03 -0.17160280327E-01  0.10214118041E+01  0.10211635542E+01 0.  0.
     999903    2    3    3    0    0 -0.88040831307E-01 -0.88681496896E-01  0.36519832107E-01  0.13220946792E+00  0.23022801784E-01 0.  0.
         14    1    1    2    0    0  0.14560740983E-01 -0.76075532381E-03  0.17160280327E-01  0.22518195921E-01  0.00000000000E+00 0.  1.
     999901    1    3    3    0    0  0.73480090324E-01  0.89442252220E-01 -0.53680112434E-01  0.88920233616E+00  0.88000000000E+00 0.  1.
        -11    1    4    4    0    0 -0.15013998968E-01 -0.21532889239E-01  0.16477813092E-01  0.30997821364E-01  0.51100000000E-03 0.  1.
         11    1    4    4    0    0 -0.73026832339E-01 -0.67148607657E-01  0.20042019014E-01  0.10121164656E+00  0.51100000000E-03 0. -1.
</event>
<event>
 8    1  0.1112929E+005  0.1043930E+01  0.7957747E-01            NaN
         13   -1    0    0    0    0  0.00000000000E+00  0.00000000000E+00  0.74505805969E-08  0.10566000000E+00  0.10566000000E+00 0.  1.
     999900   -1    0    0    0    0 -0.00000000000E+00 -0.00000000000E+00 -0.74505805969E-08  0.93827000000E+00  0.93827000000E+00 0.  1.
     999902    2    1    2    0    0 -0.12083646498E-01  0.19848940233E-01  0.31170809799E-02  0.10204840806E+01  0.10202147067E+01 0.  0.
     999903    2    3    3    0    0  0.79494380882E-01  0.10080268328E+00 -0.15177003834E-01  0.13184764364E+00  0.25940742875E-01 0.  0.
         14    1    1    2    0    0  0.12083646498E-01 -0.19848940233E-01 -0.31170809799E-02  0.23445919365E-01  0.00000000000E+00 0.  1.
     999901    1    3    3    0    0 -0.91578027379E-01 -0.80953743045E-01  0.18294084814E-01  0.88863643699E+00  0.88000000000E+00 0.  1.
        -11    1    4    4    0    0  0.70393115681E-01  0.72863326869E-01 -0.15273030670E-01  0.10245868301E+00  0.51100000000E-03 0.  1.
         11    1    4    4    0    0  0.91012652005E-02  0.27939356409E-01  0.96026835236E-04  0.29388960631E-01  0.51100000000E-03 0. -1.
</event>
<event>
 8    1  0.1112929E+005  0.1043930E+01  0.7957747E-01            NaN
         13   -1    0    0    0    0  0.00000000000E+00  0.00000000000E+00  0.74505805969E-08  0.10566000000E+00  0.10566000000E+00 0.  1.
     999900   -1    0    0    0    0 -0.00000000000E+00 -0.00000000000E+00 -0.74505805969E-08  0.93827000000E+00  0.93827000000E+00 0. -1.
     999902    2    1    2    0    0 -0.89410891048E-02 -0.18408947786E-01 -0.91209525906E-02  0.10215241033E+01  0.10212783506E+01 0.  0.
     999903    2    3    3    0    0 -0.43240943406E-01 -0.72217146149E-01  0.10015277541E+00  0.13247261439E+00  0.20816333908E-01 0.  0.
         14    1    1    2    0    0  0.89410891048E-02  0.18408947786E-01  0.91209525906E-02  0.22405896749E-01  0.00000000000E+00 0.  1.
     999901    1    3    3    0    0  0.34299854301E-01  0.53808198363E-01 -0.10927372800E+00  0.88905148886E+00  0.88000000000E+00 0.  1.
        -11    1    4    4    0    0 -0.24528518169E-01 -0.24401705021E-01  0.49057640547E-01  0.60033362629E-01  0.51100000000E-03 0.  1.
         11    1    4    4    0    0 -0.18712425237E-01 -0.47815441128E-01  0.51095134858E-01  0.72439251761E-01  0.51100000000E-03 0. -1.
</event>
<event>
 8    1  0.1112929E+005  0.1043930E+01  0.7957747E-01            NaN
         13   -1    0    0    0    0  0.00000000000E+00  0.00000000000E+00  0.74505805969E-08  0.10566000000E+00  0.10566000000E+00 0.  1.
     999900   -1    0    0    0    0 -0.00000000000E+00 -0.00000000000E+00 -0.74505805969E-08  0.93827000000E+00  0.93827000000E+00 0. -1.
     999902    2    1    2    0    0  0.21911932013E-03  0.24171831264E-01  0.20282058842E-02  0.10196722371E+01  0.10193836531E+01 0.  0.
     999903    2    3    3    0    0  0.21673999168E-01  0.13041820482E+00  0.50270912141E-02  0.13301695064E+00  0.13768337735E-01 0.  0.
         14    1    1    2    0    0 -0.21911932013E-03 -0.24171831264E-01 -0.20282058842E-02  0.24257762861E-01  0.00000000000E+00 0. -1.
     999901    1    3    3    0    0 -0.21454879848E-01 -0.10624637355E+00 -0.29988853299E-02  0.88665528650E+00  0.88000000000E+00 0.  1.
        -11    1    4    4    0    0  0.21948390037E-02  0.48021895865E-01  0.51313678919E-02  0.48347821649E-01  0.51100000000E-03 0. -1.
         11    1    4    4    0    0  0.19479160164E-01  0.82396308951E-01 -0.10427667785E-03  0.84669128991E-01  0.51100000000E-03 0.  1.
</event>
<event>
 8    1  0.1112929E+005  0.1043930E+01  0.7957747E-01            NaN
         13   -1    0    0    0    0  0.00000000000E+00  0.00000000000E+00  0.74505805969E-08  0.10566000000E+00  0.10566000000E+00 0. -1.
     999900   -1    0    0    0    0 -0.00000000000E+00 -0.00000000000E+00 -0.74505805969E-08  0.93827000000E+00  0.93827000000E+00 0. -1.
     999902    2    1    2    0    0  0.13026991159E-01  0.20226779637E-01 -0.20023330495E-02  0.10197880355E+01  0.10195022329E+01 0.  0.
     999903    2    3    3    0    0 -0.40103218822E-01  0.12046512399E+00  0.29807352803E-01  0.13193534443E+00  0.19958521239E-01 0.  0.
         14    1    1    2    0    0 -0.13026991159E-01 -0.20226779637E-01  0.20023330495E-02  0.24141964518E-01  0.00000000000E+00 0.  1.
     999901    1    3    3    0    0  0.53130209981E-01 -0.10023834436E+00 -0.31809685853E-01  0.88785269105E+00  0.88000000000E+00 0. -1.
        -11    1    4    4    0    0 -0.12506577188E-01  0.66947863180E-01  0.19493681853E-01  0.70842752703E-01  0.51100000000E-03 0. -1.
         11    1    4    4    0    0 -0.27596641634E-01  0.53517260815E-01  0.10313670950E-01  0.61092591729E-01  0.51100000000E-03 0.  1.
</event>
<event>
 8    1  0.1112929E+005  0.1043930E+01  0.7957747E-01            NaN
         13   -1    0    0    0    0  0.00000000000E+00  0.00000000000E+00  0.74505805969E-08  0.10566000000E+00  0.10566000000E+00 0.  1.
     999900   -1    0    0    0    0 -0.00000000000E+00 -0.00000000000E+00 -0.74505805969E-08  0.93827000000E+00  0.93827000000E+00 0.  1.
     999902    2    1    2    0    0  0.82186965314E-02  0.10043145424E-01 -0.20196489850E-01  0.10199235437E+01  0.10196409785E+01 0.  0.
     999903    2    3    3    0    0  0.11631979917E+00 -0.48451836905E-01 -0.30489076461E-01  0.13132158066E+00  0.20926002628E-01 0.  0.
         14    1    1    2    0    0 -0.82186965314E-02 -0.10043145424E-01  0.20196489850E-01  0.24006456318E-01  0.00000000000E+00 0.  1.
     999901    1    3    3    0    0 -0.10810110263E+00  0.58494982329E-01  0.10292586611E-01  0.88860196302E+00  0.88000000000E+00 0.  1.
        -11    1    4    4    0    0  0.73518982393E-01 -0.19546320998E-01 -0.18912796356E-01  0.78390397522E-01  0.51100000000E-03 0. -1.
         11    1    4    4    0    0  0.42800816773E-01 -0.28905515906E-01 -0.11576280105E-01  0.52931183137E-01  0.51100000000E-03 0.  1.
</event>
<event>
 8    1  0.1112929E+005  0.1043930E+01  0.7957747E-01            NaN
         13   -1    0    0    0    0  0.00000000000E+00  0.00000000000E+00  0.74505805969E-08  0.10566000000E+00  0.10566000000E+00 0. -1.
     999900   -1    0    0    0    0 -0.00000000000E+00 -0.00000000000E+00 -0.74505805969E-08  0.93827000000E+00  0.93827000000E+00 0. -1.
     999902    2    1    2    0    0  0.69590769509E-03  0.10695712452E-01 -0.22849261321E-01  0.10186917097E+01  0.10183790199E+01 0.  0.
     999903    2    3    3    0    0  0.10112846346E-01 -0.53817403292E-01  0.11184344295E+00  0.12605922914E+00  0.19580371886E-01 0.  0.
         14    1    1    2    0    0 -0.69590769509E-03 -0.10695712452E-01  0.22849261321E-01  0.25238290261E-01  0.00000000000E+00 0. -1.
     999901    1    3    3    0    0 -0.94169386505E-02  0.64513115743E-01 -0.13469270427E+00  0.89263248060E+00  0.88000000000E+00 0. -1.
        -11    1    4    4    0    0  0.25125666151E-02 -0.25297865524E-01  0.72797581680E-01  0.77110595968E-01  0.51100000000E-03 0.  1.
         11    1    4    4    0    0  0.76002797305E-02 -0.28519537767E-01  0.39045861267E-01  0.48948633173E-01  0.51100000000E-03 0. -1.
</event>
<event>
 8    1  0.1112929E+005  0.1043930E+01  0.7957747E-01            NaN
         13   -1    0    0    0    0  0.00000000000E+00  0.00000000000E+00  0.74505805969E-08  0.10566000000E+00  0.10566000000E+00 0.  1.
     999900   -1    0    0    0    0 -0.00000000000E+00 -0.00000000000E+00 -0.74505805969E-08  0.93827000000E+00  0.93827000000E+00 0. -1.
     999902    2    1    2    0    0 -0.10264042979E-01  0.23217161788E-01  0.15043745111E-01  0.10144223494E+01  0.10139930973E+01 0.  0.
     999903    2    3    3    0    0 -0.10065922911E+00 -0.67694099358E-01 -0.19136557745E-01  0.12447603626E+00  0.20329886075E-01 0.  0.
         14    1    1    2    0    0  0.10264042979E-01 -0.23217161788E-01 -0.15043745111E-01  0.29507650647E-01  0.00000000000E+00 0. -1.
     999901    1    3    3    0    0  0.90395186134E-01  0.90911261146E-01  0.34180302856E-01  0.88994631309E+00  0.88000000000E+00 0.  1.
        -11    1    4    4    0    0 -0.60920064167E-01 -0.50065610024E-01 -0.18494286146E-01  0.80994563189E-01  0.51100000000E-03 0.  1.
         11    1    4    4    0    0 -0.39739164946E-01 -0.17628489334E-01 -0.64227159872E-03  0.43481473074E-01  0.51100000000E-03 0. -1.
</event>
<event>
 8    1  0.1112929E+005  0.1043930E+01  0.7957747E-01            NaN
         13   -1    0    0    0    0  0.00000000000E+00  0.00000000000E+00  0.74505805969E-08  0.10566000000E+00  0.10566000000E+00 0. -1.
     999900   -1    0    0    0    0 -0.00000000000E+00 -0.00000000000E+00 -0.74505805969E-08  0.93827000000E+00  0.93827000000E+00 0. -1.
     999902    2    1    2    0    0  0.45253595169E-02 -0.16597316819E-01  0.15638383408E-01  0.10206811540E+01  0.10204163412E+01 0.  0.
     999903    2    3    3    0    0 -0.84538575739E-01  0.78746897608E-01  0.56348938419E-01  0.13013062031E+00  0.20271428401E-01 0.  0.
         14    1    1    2    0    0 -0.45253595169E-02  0.16597316819E-01 -0.15638383408E-01  0.23248845992E-01  0.00000000000E+00 0. -1.
     999901    1    3    3    0    0  0.89063935256E-01 -0.95344214427E-01 -0.40710555010E-01  0.89055053370E+00  0.88000000000E+00 0.  1.
        -11    1    4    4    0    0 -0.40339471183E-01  0.28629369090E-01  0.15640695824E-01  0.51882619408E-01  0.51100000000E-03 0. -1.
         11    1    4    4    0    0 -0.44199104556E-01  0.50117528518E-01  0.40708242595E-01  0.78248000898E-01  0.51100000000E-03 0.  1.
</event>
<event>
 8    1  0.1112929E+005  0.1043930E+01  0.7957747E-01            NaN
         13   -1    0    0    0    0  0.00000000000E+00  0.00000000000E+00  0.74505805969E-08  0.10566000000E+00  0.10566000000E+00 0.  1.
     999900   -1    0    0    0    0 -0.00000000000E+00 -0.00000000000E+00 -0.74505805969E-08  0.93827000000E+00  0.93827000000E+00 0.  1.
     999902    2    1    2    0    0 -0.21589950095E-01 -0.69113595968E-02  0.50000741404E-02  0.10207159185E+01  0.10204519062E+01 0.  0.
     999903    2    3    3    0    0 -0.95367989934E-01  0.86567977513E-01 -0.21863675010E-01  0.13228851765E+00  0.20812577523E-01 0.  0.
         14    1    1    2    0    0  0.21589950095E-01  0.69113595968E-02 -0.50000741404E-02  0.23214081460E-01  0.00000000000E+00 0. -1.
     999901    1    3    3    0    0  0.73778039839E-01 -0.93479337110E-01  0.26863749151E-01  0.88842740089E+00  0.88000000000E+00 0. -1.
        -11    1    4    4    0    0 -0.86035840548E-01  0.73347997459E-01 -0.25018040421E-01  0.11579403291E+00  0.51100000000E-03 0.  1.
         11    1    4    4    0    0 -0.93321493866E-02  0.13219980054E-01  0.31543654111E-02  0.16494484744E-01  0.51100000000E-03 0. -1.
</event>
<event>
 8    1  0.1112929E+005  0.1043930E+01  0.7957747E-01            NaN
         13   -1    0    0    0    0  0.00000000000E+00  0.00000000000E+00  0.74505805969E-08  0.10566000000E+00  0.10566000000E+00 0. -1.
     999900   -1    0    0    0    0 -0.00000000000E+00 -0.00000000000E+00 -0.74505805969E-08  0.93827000000E+00  0.93827000000E+00 0. -1.
     999902    2    1    2    0    0 -0.88990349318E-02 -0.20274948158E-01 -0.42761928934E-02  0.10213788987E+01  0.10211299146E+01 0.  0.
     999903    2    3    3    0    0 -0.87947042787E-01  0.94092789296E-01 -0.27402800393E-02  0.13046311929E+00  0.20615067994E-01 0.  0.
         14    1    1    2    0    0  0.88990349318E-02  0.20274948158E-01  0.42761928934E-02  0.22551101330E-01  0.00000000000E+00 0. -1.
     999901    1    3    3    0    0  0.79048007855E-01 -0.11436773745E+00 -0.15359128540E-02  0.89091577938E+00  0.88000000000E+00 0.  1.
        -11    1    4    4    0    0 -0.65223168104E-02  0.15701099481E-01  0.30729808032E-02  0.17284949334E-01  0.51100000000E-03 0. -1.
         11    1    4    4    0    0 -0.81424725976E-01  0.78391689815E-01 -0.58132608425E-02  0.11317816996E+00  0.51100000000E-03 0.  1.
</event>
<event>
 7    1  0.1112929E+005  0.1043930E+01  0.7957747E-01            NaN
         13   -1    0    0    0    0  0.00000000000E+00  0.00000000000E+00  0.74505805969E-08  0.10566000000E+00  0.10566000000E+00 0. -1.
     999900   -1    0    0    0    0 -0.00000000000E+00 -0.00000000000E+00 -0.74505805969E-08  0.93827000000E+00  0.93827000000E+00 0. -1.
     999903    2    1    2    0    0 -0.99947862190E-01  0.64150454463E-01  0.29811330237E-02  0.12042101846E+00  0.19684475316E-01 0.  0.
         14    1    1    2    0    0  0.11037105707E-01 -0.31753095487E-01 -0.18356966426E-01  0.38302153878E-01  0.00000000000E+00 0.  1.
     999901    1    1    2    0    0  0.88910756484E-01 -0.32397358976E-01  0.15375833402E-01  0.88520682766E+00  0.88000000000E+00 0.  1.
        -11    1    3    3    0    0 -0.31335995456E-01  0.19082003218E-01 -0.81263771267E-02  0.37581465967E-01  0.51100000000E-03 0. -1.
         11    1    3    3    0    0 -0.68611866734E-01  0.45068451246E-01  0.11107510150E-01  0.82839552493E-01  0.51100000000E-03 0.  1.
</event>
<event>
 8    1  0.1112929E+005  0.1043930E+01  0.7957747E-01            NaN
         13   -1    0    0    0    0  0.00000000000E+00  0.00000000000E+00  0.74505805969E-08  0.10566000000E+00  0.10566000000E+00 0.  1.
     999900   -1    0    0    0    0 -0.00000000000E+00 -0.00000000000E+00 -0.74505805969E-08  0.93827000000E+00  0.93827000000E+00 0. -1.
     999902    2    1    2    0    0  0.19617363582E-01 -0.12756962914E-01 -0.30566384799E-02  0.10203307607E+01  0.10200578107E+01 0.  0.
     999903    2    3    3    0    0 -0.44566683655E-01  0.48707982697E-01 -0.10939156261E+00  0.12948585414E+00  0.21009892445E-01 0.  0.
         14    1    1    2    0    0 -0.19617363582E-01  0.12756962914E-01  0.30566384799E-02  0.23599239299E-01  0.00000000000E+00 0. -1.
     999901    1    3    3    0    0  0.64184047236E-01 -0.61464945611E-01  0.10633492413E+00  0.89084490656E+00  0.88000000000E+00 0.  1.
        -11    1    4    4    0    0 -0.29060671776E-01  0.43102169112E-01 -0.73964556376E-01  0.90406506110E-01  0.51100000000E-03 0.  1.
         11    1    4    4    0    0 -0.15506011878E-01  0.56058135852E-02 -0.35427006238E-01  0.39079348028E-01  0.51100000000E-03 0. -1.
</event>
<event>
 8    1  0.1112929E+005  0.1043930E+01  0.7957747E-01            NaN
         13   -1    0    0    0    0  0.00000000000E+00  0.00000000000E+00  0.74505805969E-08  0.10566000000E+00  0.10566000000E+00 0. -1.
     999900   -1    0    0    0    0 -0.00000000000E+00 -0.00000000000E+00 -0.74505805969E-08  0.93827000000E+00  0.93827000000E+00 0.  1.
     999902    2    1    2    0    0  0.16582604975E-01  0.10065327051E-01  0.14731425620E-01  0.10195720753E+01  0.10192810742E+01 0.  0.
     999903    2    3    3    0    0  0.15432068321E-01  0.12104290930E+00 -0.42507465685E-01  0.13075621235E+00  0.20019185954E-01 0.  0.
         14    1    1    2    0    0 -0.16582604975E-01 -0.10065327051E-01 -0.14731425620E-01  0.24357924731E-01  0.00000000000E+00 0.  1.
     999901    1    3    3    0    0  0.11505366547E-02 -0.11097758224E+00  0.57238891304E-01  0.88881586292E+00  0.88000000000E+00 0.  1.
        -11    1    4    4    0    0  0.16307095312E-01  0.54272110718E-01 -0.15777132158E-01  0.58826544854E-01  0.51100000000E-03 0. -1.
         11    1    4    4    0    0 -0.87502699166E-03  0.66770798578E-01 -0.26730333526E-01  0.71929667498E-01  0.51100000000E-03 0.  1.
</event>
<event>
 8    1  0.1112929E+005  0.1043930E+01  0.7957747E-01            NaN
         13   -1    0    0    0    0  0.00000000000E+00  0.00000000000E+00  0.74505805969E-08  0.10566000000E+00  0.10566000000E+00 0.  1.
     999900   -1    0    0    0    0 -0.00000000000E+00 -0.00000000000E+00 -0.74505805969E-08  0.93827000000E+00  0.93827000000E+00 0. -1.
     999902    2    1    2    0    0 -0.69724246970E-02 -0.28383892930E-02  0.14419563185E-01  0.10276636248E+01  0.10275348806E+01 0.  0.
     999903    2    3    3    0    0  0.11046856796E+00  0.26735741344E-01 -0.70681455272E-01  0.13530203928E+00  0.19815886113E-01 0.  0.
         14    1    1    2    0    0  0.69724246970E-02  0.28383892930E-02 -0.14419563185E-01  0.16266375207E-01  0.00000000000E+00 0. -1.
     999901    1    3    3    0    0 -0.11744099265E+00 -0.29574130637E-01  0.85101018457E-01  0.89236158551E+00  0.88000000000E+00 0.  1.
        -11    1    4    4    0    0  0.36327321163E-01 -0.63977892150E-03 -0.22114680070E-01  0.42537087059E-01  0.51100000000E-03 0.  1.
         11    1    4    4    0    0  0.74141246793E-01  0.27375520265E-01 -0.48566775202E-01  0.92764952220E-01  0.51100000000E-03 0. -1.
</event>
<event>
 8    1  0.1112929E+005  0.1043930E+01  0.7957747E-01            NaN
         13   -1    0    0    0    0  0.00000000000E+00  0.00000000000E+00  0.74505805969E-08  0.10566000000E+00  0.10566000000E+00 0. -1.
     999900   -1    0    0    0    0 -0.00000000000E+00 -0.00000000000E+00 -0.74505805969E-08  0.93827000000E+00  0.93827000000E+00 0.  1.
     999902    2    1    2    0    0 -0.24414039553E-01  0.63791085669E-02 -0.10432550201E-01  0.10166247540E+01  0.10162579958E+01 0.  0.
     999903    2    3    3    0    0  0.70783022229E-01  0.48010632497E-01 -0.91445588925E-01  0.12681647311E+00  0.20121258668E-01 0.  0.
         14    1    1    2    0    0  0.24414039553E-01 -0.63791085669E-02  0.10432550201E-01  0.27305245963E-01  0.00000000000E+00 0.  1.
     999901    1    3    3    0    0 -0.95197061782E-01 -0.41631523930E-01  0.81013038723E-01  0.88980828092E+00  0.88000000000E+00 0.  1.
        -11    1    4    4    0    0  0.32750567621E-01  0.34025553197E-01 -0.52363375040E-01  0.70516112460E-01  0.51100000000E-03 0.  1.
         11    1    4    4    0    0  0.38032454609E-01  0.13985079300E-01 -0.39082213885E-01  0.56300360654E-01  0.51100000000E-03 0. -1.
</event>
<event>
 8    1  0.1112929E+005  0.1043930E+01  0.7957747E-01            NaN
         13   -1    0    0    0    0  0.00000000000E+00  0.00000000000E+00  0.74505805969E-08  0.10566000000E+00  0.10566000000E+00 0. -1.
     999900   -1    0    0    0    0 -0.00000000000E+00 -0.00000000000E+00 -0.74505805969E-08  0.93827000000E+00  0.93827000000E+00 0. -1.
     999902    2    1    2    0    0 -0.29670566189E-02 -0.17023423673E-01 -0.15523857496E-01  0.10207009120E+01  0.10204365542E+01 0.  0.
     999903    2    3    3    0    0 -0.79124705287E-01  0.67367446737E-02  0.10033221126E+00  0.12952912062E+00  0.20128034103E-01 0.  0.
         14    1    1    2    0    0  0.29670566189E-02  0.17023423673E-01  0.15523857496E-01  0.23229088016E-01  0.00000000000E+00 0. -1.
     999901    1    3    3    0    0  0.76157648668E-01 -0.23760168346E-01 -0.11585606876E+00  0.89117179136E+00  0.88000000000E+00 0. -1.
        -11    1    4    4    0    0 -0.67951931174E-01  0.56097939166E-02  0.72568266936E-01  0.99575846595E-01  0.51100000000E-03 0.  1.
         11    1    4    4    0    0 -0.11172774113E-01  0.11269507572E-02  0.27763944327E-01  0.29953274028E-01  0.51100000000E-03 0. -1.
</event>
<event>
 8    1  0.1112929E+005  0.1043930E+01  0.7957747E-01            NaN
         13   -1    0    0    0    0  0.00000000000E+00  0.00000000000E+00  0.74505805969E-08  0.10566000000E+00  0.10566000000E+00 0. -1.
     999900   -1    0    0    0    0 -0.00000000000E+00 -0.00000000000E+00 -0.74505805969E-08  0.93827000000E+00  0.93827000000E+00 0.  1.
     999902    2    1    2    0    0  0.21196057718E-01 -0.95723188414E-02 -0.19207595151E-02  0.10205935164E+01  0.10203266801E+01 0.  0.
     999903    2    3    3    0    0  0.48050500976E-02 -0.12384380973E+00 -0.41460152000E-01  0.13217356932E+00  0.19761844757E-01 0.  0.
         14    1    1    2    0    0 -0.21196057718E-01  0.95723188414E-02  0.19207595151E-02  0.23336483623E-01  0.00000000000E+00 0. -1.
     999901    1    3    3    0    0  0.16391007620E-01  0.11427149089E+00  0.39539392485E-01  0.88841994705E+00  0.88000000000E+00 0. -1.
        -11    1    4    4    0    0 -0.58666545156E-02 -0.73984038532E-01 -0.28992717138E-01  0.79679949553E-01  0.51100000000E-03 0.  1.
         11    1    4    4    0    0  0.10671704613E-01 -0.49859771202E-01 -0.12467434862E-01  0.52493619772E-01  0.51100000000E-03 0. -1.
</event>
<event>
 8    1  0.1112929E+005  0.1043930E+01  0.7957747E-01            NaN
         13   -1    0    0    0    0  0.00000000000E+00  0.00000000000E+00  0.74505805969E-08  0.10566000000E+00  0.10566000000E+00 0. -1.
     999900   -1    0    0    0    0 -0.00000000000E+00 -0.00000000000E+00 -0.74505805969E-08  0.93827000000E+00  0.93827000000E+00 0. -1.
     999902    2    1    2    0    0 -0.67997350869E-02 -0.23181094766E-01 -0.12293847283E-01  0.10168239447E+01  0.10164625897E+01 0.  0.
     999903    2    3    3    0    0 -0.11923587215E+00 -0.45905201629E-01 -0.11561527737E-02  0.12930925854E+00  0.19876290183E-01 0.  0.
         14    1    1    2    0    0  0.67997350869E-02  0.23181094766E-01  0.12293847283E-01  0.27106055280E-01  0.00000000000E+00 0.  1.
     999901    1    3    3    0    0  0.11243613706E+00  0.22724106863E-01 -0.11137694510E-01  0.88751468618E+00  0.88000000000E+00 0. -1.
        -11    1    4    4    0    0 -0.30133686390E-01 -0.15511959490E-01 -0.82898910751E-02  0.34894746850E-01  0.51100000000E-03 0. -1.
         11    1    4    4    0    0 -0.89102185756E-01 -0.30393242140E-01  0.71337383014E-02  0.94414511688E-01  0.51100000000E-03 0.  1.
</event>
<event>
 8    1  0.1224567E+005  0.1043930E+01  0.7957747E-01            NaN
         13   -1    0    0    0    0  0.00000000000E+00  0.00000000000E+00  0.74505805969E-08  0.10566000000E+00  0.10566000000E+00 0.  1.
     999900   -1    0    0    0    0 -0.00000000000E+00 -0.00000000000E+00 -0.74505805969E-08  0.93827000000E+00  0.93827000000E+00 0. -1.
     999902    2    1    2    0    0 -0.43360859139E-02  0.12467576797E-01 -0.19200521368E-01  0.10206297396E+01  0.10203637407E+01 0.  0.
     999903    2    3    3    0    0 -0.77531770980E-02  0.21717839732E-02  0.12641913075E+00  0.12859680137E+00  0.22147512342E-01 0.  0.
         14    1    1    2    0    0  0.43360859139E-02 -0.12467576797E-01  0.19200521368E-01  0.23300260365E-01  0.00000000000E+00 0. -1.
     999901    1    3    3    0    0  0.34170911841E-02  0.10295792824E-01 -0.14561965212E+00  0.89203293826E+00  0.88000000000E+00 0. -1.
        -11    1    4    4    0    0  0.70793867575E-02 -0.26119086452E-02  0.53261955137E-01  0.53796252376E-01  0.51100000000E-03 0.  1.
         11    1    4    4    0    0 -0.14832563855E-01  0.47836926183E-02  0.73157175613E-01  0.74800548997E-01  0.51100000000E-03 0. -1.
</event>
<event>
 8    1  0.1112929E+005  0.1043930E+01  0.7957747E-01            NaN
         13   -1    0    0    0    0  0.00000000000E+00  0.00000000000E+00  0.74505805969E-08  0.10566000000E+00  0.10566000000E+00 0. -1.
     999900   -1    0    0    0    0 -0.00000000000E+00 -0.00000000000E+00 -0.74505805969E-08  0.93827000000E+00  0.93827000000E+00 0.  1.
     999902    2    1    2    0    0 -0.75717147406E-02  0.21189445082E-01 -0.63295945109E-02  0.10205550730E+01  0.10202873467E+01 0.  0.
     999903    2    3    3    0    0  0.65132063154E-01  0.78825237310E-01  0.80008908850E-01  0.13147573960E+00  0.20708474592E-01 0.  0.
         14    1    1    2    0    0  0.75717147406E-02 -0.21189445082E-01  0.63295945109E-02  0.23374927030E-01  0.00000000000E+00 0. -1.
     999901    1    3    3    0    0 -0.72703777895E-01 -0.57635792228E-01 -0.86338503361E-01  0.88907933337E+00  0.88000000000E+00 0.  1.
        -11    1    4    4    0    0  0.51252413850E-01  0.47540047092E-01  0.49924851817E-01  0.85904702740E-01  0.51100000000E-03 0.  1.
         11    1    4    4    0    0  0.13879649304E-01  0.31285190218E-01  0.30084057033E-01  0.45571036858E-01  0.51100000000E-03 0. -1.
</event>
<event>
 8    1  0.1112929E+005  0.1043930E+01  0.7957747E-01            NaN
         13   -1    0    0    0    0  0.00000000000E+00  0.00000000000E+00  0.74505805969E-08  0.10566000000E+00  0.10566000000E+00 0. -1.
     999900   -1    0    0    0    0 -0.00000000000E+00 -0.00000000000E+00 -0.74505805969E-08  0.93827000000E+00  0.93827000000E+00 0. -1.
     999902    2    1    2    0    0  0.15156530639E-01 -0.94121523169E-02 -0.15444828467E-01  0.10203322934E+01  0.10200593792E+01 0.  0.
     999903    2    3    3    0    0 -0.88786869717E-01  0.48716225866E-01  0.75202658044E-01  0.12769569001E+00  0.19858765665E-01 0.  0.
         14    1    1    2    0    0 -0.15156530639E-01  0.94121523169E-02  0.15444828467E-01  0.23597706639E-01  0.00000000000E+00 0. -1.
     999901    1    3    3    0    0  0.10394340036E+00 -0.58128378183E-01 -0.90647486512E-01  0.89263660335E+00  0.88000000000E+00 0.  1.
        -11    1    4    4    0    0 -0.34730865236E-01  0.20112405851E-01  0.18126549186E-01  0.44040603714E-01  0.51100000000E-03 0.  1.
         11    1    4    4    0    0 -0.54056004482E-01  0.28603820015E-01  0.57076108858E-01  0.83655086297E-01  0.51100000000E-03 0. -1.
</event>
<event>
 8    1  0.1112929E+005  0.1043930E+01  0.7957747E-01            NaN
         13   -1    0    0    0    0  0.00000000000E+00  0.00000000000E+00  0.74505805969E-08  0.10566000000E+00  0.10566000000E+00 0. -1.
     999900   -1    0    0    0    0 -0.00000000000E+00 -0.00000000000E+00 -0.74505805969E-08  0.93827000000E+00  0.93827000000E+00 0. -1.
     999902    2    1    2    0    0 -0.24083729616E-02 -0.24122672304E-01  0.74298689210E-03  0.10196760187E+01  0.10193875257E+01 0.  0.
     999903    2    3    3    0    0  0.62390550988E-01  0.27128814512E-01  0.10796050183E+00  0.12932709218E+00  0.21011268098E-01 0.  0.
         14    1    1    2    0    0  0.24083729616E-02  0.24122672304E-01 -0.74298689210E-03  0.24253981300E-01  0.00000000000E+00 0. -1.
     999901    1    3    3    0    0 -0.64798923949E-01 -0.51251486816E-01 -0.10721751494E+00  0.89034892652E+00  0.88000000000E+00 0. -1.
        -11    1    4    4    0    0  0.40652101387E-01  0.66333015589E-02  0.58684004423E-01  0.71698448609E-01  0.51100000000E-03 0.  1.
         11    1    4    4    0    0  0.21738449601E-01  0.20495512953E-01  0.49276497406E-01  0.57628643571E-01  0.51100000000E-03 0. -1.
</event>
<event>
 8    1  0.1112929E+005  0.1043930E+01  0.7957747E-01            NaN
         13   -1    0    0    0    0  0.00000000000E+00  0.00000000000E+00  0.74505805969E-08  0.10566000000E+00  0.10566000000E+00 0.  1.
     999900   -1    0    0    0    0 -0.00000000000E+00 -0.00000000000E+00 -0.74505805969E-08  0.93827000000E+00  0.93827000000E+00 0.  1.
     999902    2    1    2    0    0  0.72488215296E-02 -0.18297553781E-01  0.28627307152E-01  0.10091899856E+01  0.10085918691E+01 0.  0.
     999903    2    3    3    0    0  0.13665796366E-01  0.11156737486E+00 -0.28397717705E-01  0.11781019518E+00  0.20947042610E-01 0.  0.
         14    1    1    2    0    0 -0.72488215296E-02  0.18297553781E-01 -0.28627307152E-01  0.34740014432E-01  0.00000000000E+00 0. -1.
     999901    1    3    3    0    0 -0.64169748363E-02 -0.12986492864E+00  0.57025024858E-01  0.89137979039E+00  0.88000000000E+00 0.  1.
        -11    1    4    4    0    0  0.14164304277E-01  0.45184297397E-01 -0.59330666325E-02  0.47725366919E-01  0.51100000000E-03 0. -1.
         11    1    4    4    0    0 -0.49850791066E-03  0.66383077460E-01 -0.22464651073E-01  0.70084828258E-01  0.51100000000E-03 0.  1.
</event>
<event>
 8    1  0.1112929E+005  0.1043930E+01  0.7957747E-01            NaN
         13   -1    0    0    0    0  0.00000000000E+00  0.00000000000E+00  0.74505805969E-08  0.10566000000E+00  0.10566000000E+00 0.  1.
     999900   -1    0    0    0    0 -0.00000000000E+00 -0.00000000000E+00 -0.74505805969E-08  0.93827000000E+00  0.93827000000E+00 0.  1.
     999902    2    1    2    0    0  0.17933970224E-01  0.55634816216E-02 -0.14032206501E-01  0.10204889583E+01  0.10202196977E+01 0.  0.
     999903    2    3    3    0    0 -0.12307779916E+00  0.21550724113E-01  0.21407434074E-01  0.12841503809E+00  0.20483296079E-01 0.  0.
         14    1    1    2    0    0 -0.17933970224E-01 -0.55634816216E-02  0.14032206501E-01  0.23441041680E-01  0.00000000000E+00 0.  1.
     999901    1    3    3    0    0  0.14101176939E+00 -0.15987242491E-01 -0.35439640575E-01  0.89207392023E+00  0.88000000000E+00 0.  1.
        -11    1    4    4    0    0 -0.10798149734E+00  0.16505485554E-01  0.11938390184E-01  0.10988731092E+00  0.51100000000E-03 0.  1.
         11    1    4    4    0    0 -0.15096301826E-01  0.50452385588E-02  0.94690438903E-02  0.18527727172E-01  0.51100000000E-03 0. -1.
</event>
<event>
 8    1  0.1112929E+005  0.1043930E+01  0.7957747E-01            NaN
         13   -1    0    0    0    0  0.00000000000E+00  0.00000000000E+00  0.74505805969E-08  0.10566000000E+00  0.10566000000E+00 0. -1.
     999900   -1    0    0    0    0 -0.00000000000E+00 -0.00000000000E+00 -0.74505805969E-08  0.93827000000E+00  0.93827000000E+00 0.  1.
     999902    2    1    2    0    0  0.43625834722E-02 -0.21653525480E-01 -0.57074108243E-02  0.10211159289E+01  0.10208610378E+01 0.  0.
     999903    2    3    3    0    0  0.10762329834E+00  0.68919543545E-01 -0.16620628726E-01  0.13039411243E+00  0.19841910960E-01 0.  0.
         14    1    1    2    0    0 -0.43625834722E-02  0.21653525480E-01  0.57074108243E-02  0.22814071066E-01  0.00000000000E+00 0. -1.
     999901    1    3    3    0    0 -0.10326071486E+00 -0.90573069025E-01  0.10913217902E-01  0.89072181650E+00  0.88000000000E+00 0. -1.
        -11    1    4    4    0    0  0.34273691844E-01  0.30796815434E-01 -0.35875083868E-04  0.46080279964E-01  0.51100000000E-03 0.  1.
         11    1    4    4    0    0  0.73349606493E-01  0.38122728110E-01 -0.16584753642E-01  0.84313832469E-01  0.51100000000E-03 0. -1.
</event>
<event>
 8    1  0.1112929E+005  0.1043930E+01  0.7957747E-01            NaN
         13   -1    0    0    0    0  0.00000000000E+00  0.00000000000E+00  0.74505805969E-08  0.10566000000E+00  0.10566000000E+00 0. -1.
     999900   -1    0    0    0    0 -0.00000000000E+00 -0.00000000000E+00 -0.74505805969E-08  0.93827000000E+00  0.93827000000E+00 0.  1.
     999902    2    1    2    0    0  0.69740486657E-02 -0.12134878448E-01 -0.16940845334E-01  0.10219553585E+01  0.10217190758E+01 0.  0.
     999903    2    3    3    0    0  0.47016094520E-01  0.77800100199E-04 -0.12436167584E+00  0.13443535882E+00  0.19912812087E-01 0.  0.
         14    1    1    2    0    0 -0.69740486657E-02  0.12134878448E-01  0.16940845334E-01  0.21974641530E-01  0.00000000000E+00 0. -1.
     999901    1    3    3    0    0 -0.40042045854E-01 -0.12212678549E-01  0.10742083051E+00  0.88751999965E+00  0.88000000000E+00 0. -1.
        -11    1    4    4    0    0  0.21277865870E-01 -0.79681443943E-02 -0.41785562846E-01  0.47566093853E-01  0.51100000000E-03 0. -1.
         11    1    4    4    0    0  0.25738228650E-01  0.80459444945E-02 -0.82576112998E-01  0.86869264966E-01  0.51100000000E-03 0.  1.
</event>
<event>
 7    1  0.1112929E+005  0.1043930E+01  0.7957747E-01            NaN
         13   -1    0    0    0    0  0.00000000000E+00  0.00000000000E+00  0.74505805969E-08  0.10566000000E+00  0.10566000000E+00 0. -1.
     999900   -1    0    0    0    0 -0.00000000000E+00 -0.00000000000E+00 -0.74505805969E-08  0.93827000000E+00  0.93827000000E+00 0. -1.
     999902    2    1    2    0    0  0.23717191004E-01  0.76479928884E-02  0.81022997470E-02  0.10177261032E+01  0.10173887050E+01 0.  0.
         14    1    1    2    0    0 -0.23717191004E-01 -0.76479928884E-02 -0.81022997470E-02  0.26203896762E-01  0.00000000000E+00 0.  1.
     999901    1    3    3    0    0  0.50198298743E-01 -0.82470268546E-01 -0.51284608070E-01  0.88676452648E+00  0.88000000000E+00 0.  1.
        -11    1    3    3    0    0 -0.24209885243E-01  0.12813454599E-01 -0.78308607665E-02  0.28493624964E-01  0.51100000000E-03 0.  1.
         11    1    3    3    0    0 -0.22712224965E-02  0.77304806835E-01  0.67217768583E-01  0.10246795180E+00  0.51100000000E-03 0. -1.
</event>
<event>
 8    1  0.1112929E+005  0.1043930E+01  0.7957747E-01            NaN
         13   -1    0    0    0    0  0.00000000000E+00  0.00000000000E+00  0.74505805969E-08  0.10566000000E+00  0.10566000000E+00 0.  1.
     999900   -1    0    0    0    0 -0.00000000000E+00 -0.00000000000E+00 -0.74505805969E-08  0.93827000000E+00  0.93827000000E+00 0. -1.
     999902    2    1    2    0    0  0.87869157801E-02 -0.17778527827E-01 -0.12380432402E-01  0.10205513549E+01  0.10202835424E+01 0.  0.
     999903    2    3    3    0    0  0.29440506454E-01 -0.10276153788E+00 -0.77911862784E-01  0.13379149384E+00  0.20080547134E-01 0.  0.
         14    1    1    2    0    0 -0.87869157801E-02  0.17778527827E-01  0.12380432402E-01  0.23378645108E-01  0.00000000000E+00 0. -1.
     999901    1    3    3    0    0 -0.20653590674E-01  0.84983010056E-01  0.65531430382E-01  0.88675986105E+00  0.88000000000E+00 0.  1.
        -11    1    4    4    0    0  0.14348127537E-01 -0.81091319455E-01 -0.59025098762E-01  0.10132074940E+00  0.51100000000E-03 0. -1.
         11    1    4    4    0    0  0.15092378916E-01 -0.21670218428E-01 -0.18886764022E-01  0.32470744437E-01  0.51100000000E-03 0.  1.
</event>
<event>
 8    1  0.1112929E+005  0.1043930E+01  0.7957747E-01            NaN
         13   -1    0    0    0    0  0.00000000000E+00  0.00000000000E+00  0.74505805969E-08  0.10566000000E+00  0.10566000000E+00 0.  1.
     999900   -1    0    0    0    0 -0.00000000000E+00 -0.00000000000E+00 -0.74505805969E-08  0.93827000000E+00  0.93827000000E+00 0. -1.
     999902    2    1    2    0    0 -0.18828465219E-01  0.14934639076E-01 -0.11706044693E-02  0.10198691425E+01  0.10195852799E+01 0.  0.
     999903    2    3    3    0    0  0.76668605262E-01 -0.99738857216E-01 -0.61041221294E-03  0.12730541090E+00  0.19503342537E-01 0.  0.
         14    1    1    2    0    0  0.18828465219E-01 -0.14934639076E-01  0.11706044693E-02  0.24060857459E-01  0.00000000000E+00 0. -1.
     999901    1    3    3    0    0 -0.95497070481E-01  0.11467349629E+00 -0.56019225631E-03  0.89256373164E+00  0.88000000000E+00 0. -1.
        -11    1    4    4    0    0  0.62309950864E-01 -0.68159957119E-01  0.31812759312E-02  0.92405039737E-01  0.51100000000E-03 0. -1.
         11    1    4    4    0    0  0.14358654398E-01 -0.31578900097E-01 -0.37916881441E-02  0.34900371165E-01  0.51100000000E-03 0.  1.
</event>
<event>
 8    1  0.1112929E+005  0.1043930E+01  0.7957747E-01            NaN
         13   -1    0    0    0    0  0.00000000000E+00  0.00000000000E+00  0.74505805969E-08  0.10566000000E+00  0.10566000000E+00 0.  1.
     999900   -1    0    0    0    0 -0.00000000000E+00 -0.00000000000E+00 -0.74505805969E-08  0.93827000000E+00  0.93827000000E+00 0.  1.
     999902    2    1    2    0    0  0.19367104372E-01  0.63405406093E-02  0.27709772453E-02  0.10233638749E+01  0.10231571995E+01 0.  0.
     999903    2    3    3    0    0 -0.70735629137E-01 -0.22920416877E-01 -0.10673417912E+00  0.13153088297E+00  0.19475970907E-01 0.  0.
         14    1    1    2    0    0 -0.19367104372E-01 -0.63405406093E-02 -0.27709772453E-02  0.20566125106E-01  0.00000000000E+00 0. -1.
     999901    1    3    3    0    0  0.90102733509E-01  0.29260957487E-01  0.10950515636E+00  0.89183299193E+00  0.88000000000E+00 0. -1.
        -11    1    4    4    0    0 -0.34343680876E-01 -0.20309847263E-01 -0.48446588306E-01  0.62763933525E-01  0.51100000000E-03 0.  1.
         11    1    4    4    0    0 -0.36391948261E-01 -0.26105696146E-02 -0.58287590813E-01  0.68766949443E-01  0.51100000000E-03 0. -1.
</event>
<event>
 8    1  0.1112929E+005  0.1043930E+01  0.7957747E-01            NaN
         13   -1    0    0    0    0  0.00000000000E+00  0.00000000000E+00  0.74505805969E-08  0.10566000000E+00  0.10566000000E+00 0.  1.
     999900   -1    0    0    0    0 -0.00000000000E+00 -0.00000000000E+00 -0.74505805969E-08  0.93827000000E+00  0.93827000000E+00 0.  1.
     999902    2    1    2    0    0 -0.18771222189E-01  0.14101245203E-01  0.49518662852E-02  0.10199357324E+01  0.10196534575E+01 0.  0.
     999903    2    3    3    0    0  0.11883935128E+00  0.25150432733E-01  0.37844986306E-01  0.12856560061E+00  0.18480665340E-01 0.  0.
         14    1    1    2    0    0  0.18771222189E-01 -0.14101245203E-01 -0.49518662852E-02  0.23994267616E-01  0.00000000000E+00 0. -1.
     999901    1    3    3    0    0 -0.13761057347E+00 -0.11049187530E-01 -0.32893120021E-01  0.89137013178E+00  0.88000000000E+00 0.  1.
        -11    1    4    4    0    0  0.68915025419E-01  0.66248825828E-02  0.16356770883E-01  0.71140529042E-01  0.51100000000E-03 0. -1.
         11    1    4    4    0    0  0.49924325864E-01  0.18525550150E-01  0.21488215423E-01  0.57425071566E-01  0.51100000000E-03 0.  1.
</event>
<event>
 8    1  0.1112929E+005  0.1043930E+01  0.7957747E-01            NaN
         13   -1    0    0    0    0  0.00000000000E+00  0.00000000000E+00  0.74505805969E-08  0.10566000000E+00  0.10566000000E+00 0. -1.
     999900   -1    0    0    0    0 -0.00000000000E+00 -0.00000000000E+00 -0.74505805969E-08  0.93827000000E+00  0.93827000000E+00 0.  1.
     999902    2    1    2    0    0 -0.21372011002E-01  0.19799418997E-01 -0.17072305745E-01  0.10101625087E+01  0.10095979648E+01 0.  0.
     999903    2    3    3    0    0 -0.58616747120E-01  0.58562472327E-01 -0.91965392151E-01  0.12534686739E+00  0.19715922579E-01 0.  0.
         14    1    1    2    0    0  0.21372011002E-01 -0.19799418997E-01  0.17072305745E-01  0.33767491325E-01  0.00000000000E+00 0. -1.
     999901    1    3    3    0    0  0.37244736117E-01 -0.38763053330E-01  0.74893086406E-01  0.88481564129E+00  0.88000000000E+00 0. -1.
        -11    1    4    4    0    0 -0.24795540803E-01  0.36876842307E-01 -0.41158311483E-01  0.60572172384E-01  0.51100000000E-03 0.  1.
         11    1    4    4    0    0 -0.33821206317E-01  0.21685630020E-01 -0.50807080668E-01  0.64774695006E-01  0.51100000000E-03 0. -1.
</event>
<event>
 8    1  0.1112929E+005  0.1043930E+01  0.7957747E-01            NaN
         13   -1    0    0    0    0  0.00000000000E+00  0.00000000000E+00  0.74505805969E-08  0.10566000000E+00  0.10566000000E+00 0. -1.
     999900   -1    0    0    0    0 -0.00000000000E+00 -0.00000000000E+00 -0.74505805969E-08  0.93827000000E+00  0.93827000000E+00 0. -1.
     999902    2    1    2    0    0  0.15143063551E-01  0.12116694522E-01 -0.13069125063E-01  0.10205434934E+01  0.10202754987E+01 0.  0.
     999903    2    3    3    0    0  0.35483049097E-01 -0.97154280584E-02  0.12353109394E+00  0.12950478696E+00  0.12574671304E-01 0.  0.
         14    1    1    2    0    0 -0.15143063551E-01 -0.12116694522E-01  0.13069125063E-01  0.23386506575E-01  0.00000000000E+00 0.  1.
     999901    1    3    3    0    0 -0.20339985546E-01  0.21832122580E-01 -0.13660021901E+00  0.89103870647E+00  0.88000000000E+00 0. -1.
        -11    1    4    4    0    0  0.27695801463E-01 -0.11529174586E-01  0.84741528192E-01  0.89896423770E-01  0.51100000000E-03 0.  1.
         11    1    4    4    0    0  0.77872476337E-02  0.18137465280E-02  0.38789565753E-01  0.39608363189E-01  0.51100000000E-03 0. -1.
</event>
<event>
 8    1  0.1112929E+005  0.1043930E+01  0.7957747E-01            NaN
         13   -1    0    0    0    0  0.00000000000E+00  0.00000000000E+00  0.74505805969E-08  0.10566000000E+00  0.10566000000E+00 0. -1.
     999900   -1    0    0    0    0 -0.00000000000E+00 -0.00000000000E+00 -0.74505805969E-08  0.93827000000E+00  0.93827000000E+00 0.  1.
     999902    2    1    2    0    0 -0.19594145897E-01 -0.45620674876E-02  0.10522629060E-01  0.10212260634E+01  0.10209736549E+01 0.  0.
     999903    2    3    3    0    0 -0.66529414490E-02  0.15755409125E-01 -0.12757335744E+00  0.13013079574E+00  0.19145963637E-01 0.  0.
         14    1    1    2    0    0  0.19594145897E-01  0.45620674876E-02 -0.10522629060E-01  0.22703936565E-01  0.00000000000E+00 0.  1.
     999901    1    3    3    0    0 -0.12941204448E-01 -0.20317476613E-01  0.13809598650E+00  0.89109526770E+00  0.88000000000E+00 0. -1.
        -11    1    4    4    0    0  0.10633921315E-02  0.17665785611E-01 -0.87362899648E-01  0.89138926065E-01  0.51100000000E-03 0.  1.
         11    1    4    4    0    0 -0.77163335805E-02 -0.19103764859E-02 -0.40210457793E-01  0.40991869671E-01  0.51100000000E-03 0. -1.
</event>
<event>
 8    1  0.1112929E+005  0.1043930E+01  0.7957747E-01            NaN
         13   -1    0    0    0    0  0.00000000000E+00  0.00000000000E+00  0.74505805969E-08  0.10566000000E+00  0.10566000000E+00 0.  1.
     999900   -1    0    0    0    0 -0.00000000000E+00 -0.00000000000E+00 -0.74505805969E-08  0.93827000000E+00  0.93827000000E+00 0.  1.
     999902    2    1    2    0    0 -0.29273652155E-02  0.67453540921E-02 -0.22022022447E-01  0.10207127921E+01  0.10204487078E+01 0.  0.
     999903    2    3    3    0    0 -0.56279259719E-01 -0.50563594009E-01  0.10200479062E+00  0.12857301017E+00  0.20050175116E-01 0.  0.
         14    1    1    2    0    0  0.29273652155E-02 -0.67453540921E-02  0.22022022447E-01  0.23217207877E-01  0.00000000000E+00 0.  1.
     999901    1    3    3    0    0  0.53351894503E-01  0.57308948101E-01 -0.12402681307E+00  0.89213978195E+00  0.88000000000E+00 0.  1.
        -11    1    4    4    0    0 -0.14558283481E-01 -0.23075732584E-01  0.26540292064E-01  0.38066800182E-01  0.51100000000E-03 0. -1.
         11    1    4    4    0    0 -0.41720976237E-01 -0.27487861425E-01  0.75464498554E-01  0.90506209991E-01  0.51100000000E-03 0.  1.
</event>
<event>
 8    1  0.1112929E+005  0.1043930E+01  0.7957747E-01            NaN
         13   -1    0    0    0    0  0.00000000000E+00  0.00000000000E+00  0.74505805969E-08  0.10566000000E+00  0.10566000000E+00 0.  1.
     999900   -1    0    0    0    0 -0.00000000000E+00 -0.00000000000E+00 -0.74505805969E-08  0.93827000000E+00  0.93827000000E+00 0. -1.
     999902    2    1    2    0    0  0.21547839693E-01 -0.69380177665E-02  0.32534716766E-02  0.10210601385E+01  0.10208039851E+01 0.  0.
     999903    2    3    3    0    0  0.85186475198E-01 -0.79633780467E-01 -0.63634195974E-01  0.13324906069E+00  0.10379148763E-01 0.  0.
         14    1    1    2    0    0 -0.21547839693E-01  0.69380177665E-02 -0.32534716766E-02  0.22869861476E-01  0.00000000000E+00 0. -1.
     999901    1    3    3    0    0 -0.63638635504E-01  0.72695762701E-01  0.66887667650E-01  0.88781107784E+00  0.88000000000E+00 0.  1.
        -11    1    4    4    0    0  0.43966874702E-01 -0.46705356388E-01 -0.31370959981E-01  0.71406404738E-01  0.51100000000E-03 0. -1.
         11    1    4    4    0    0  0.41219600496E-01 -0.32928424079E-01 -0.32263235993E-01  0.61842655951E-01  0.51100000000E-03 0.  1.
</event>
<event>
 8    1  0.1112929E+005  0.1043930E+01  0.7957747E-01            NaN
         13   -1    0    0    0    0  0.00000000000E+00  0.00000000000E+00  0.74505805969E-08  0.10566000000E+00  0.10566000000E+00 0. -1.
     999900   -1    0    0    0    0 -0.00000000000E+00 -0.00000000000E+00 -0.74505805969E-08  0.93827000000E+00  0.93827000000E+00 0.  1.
     999902    2    1    2    0    0  0.12021377326E-01  0.19777676376E-01  0.50356900246E-02  0.10202439668E+01  0.10199689817E+01 0.  0.
     999903    2    3    3    0    0 -0.98931105385E-01  0.47466859227E-01  0.67905583100E-01  0.13062058145E+00  0.20250969000E-01 0.  0.
         14    1    1    2    0    0 -0.12021377326E-01 -0.19777676376E-01 -0.50356900246E-02  0.23686033219E-01  0.00000000000E+00 0. -1.
     999901    1    3    3    0    0  0.11095248271E+00 -0.27689182851E-01 -0.62869893075E-01  0.88962338533E+00  0.88000000000E+00 0.  1.
        -11    1    4    4    0    0 -0.24326653247E-01  0.21825276923E-01  0.19266148449E-01  0.37941723314E-01  0.51100000000E-03 0. -1.
         11    1    4    4    0    0 -0.74604452138E-01  0.25641582304E-01  0.48639434650E-01  0.92678858139E-01  0.51100000000E-03 0.  1.
</event>
<event>
 8    1  0.1112929E+005  0.1043930E+01  0.7957747E-01            NaN
         13   -1    0    0    0    0  0.00000000000E+00  0.00000000000E+00  0.74505805969E-08  0.10566000000E+00  0.10566000000E+00 0. -1.
     999900   -1    0    0    0    0 -0.00000000000E+00 -0.00000000000E+00 -0.74505805969E-08  0.93827000000E+00  0.93827000000E+00 0.  1.
     999902    2    1    2    0    0 -0.21853476137E-01  0.32790521742E-02 -0.76707792431E-02  0.10205383892E+01  0.10202702761E+01 0.  0.
     999903    2    3    3    0    0  0.40862448183E-01  0.36787888465E-02 -0.12216678311E+00  0.13090768948E+00  0.22996241229E-01 0.  0.
         14    1    1    2    0    0  0.21853476137E-01 -0.32790521742E-02  0.76707792431E-02  0.23391610817E-01  0.00000000000E+00 0. -1.
     999901    1    3    3    0    0 -0.62715924320E-01 -0.39973667233E-03  0.11449600387E+00  0.88963069970E+00  0.88000000000E+00 0. -1.
        -11    1    4    4    0    0  0.24586555296E-01 -0.73901718314E-02 -0.51465097272E-01  0.57515482257E-01  0.51100000000E-03 0.  1.
         11    1    4    4    0    0  0.16275892888E-01  0.11068960678E-01 -0.70701685838E-01  0.73392207223E-01  0.51100000000E-03 0. -1.
</event>
<event>
 8    1  0.1112929E+005  0.1043930E+01  0.7957747E-01            NaN
         13   -1    0    0    0    0  0.00000000000E+00  0.00000000000E+00  0.74505805969E-08  0.10566000000E+00  0.10566000000E+00 0.  1.
     999900   -1    0    0    0    0 -0.00000000000E+00 -0.00000000000E+00 -0.74505805969E-08  0.93827000000E+00  0.93827000000E+00 0.  1.
     999902    2    1    2    0    0 -0.25926447868E-02  0.68898702387E-02  0.22518701760E-01  0.10202385659E+01  0.10199634539E+01 0.  0.
     999903    2    3    3    0    0 -0.10249537483E+00  0.48751580617E-01 -0.59357801648E-01  0.12982477445E+00  0.21192096869E-01 0.  0.
         14    1    1    2    0    0  0.25926447868E-02 -0.68898702387E-02 -0.22518701760E-01  0.23691434061E-01  0.00000000000E+00 0. -1.
     999901    1    3    3    0    0  0.99902730045E-01 -0.41861710378E-01  0.81876503408E-01  0.89041379149E+00  0.88000000000E+00 0. -1.
        -11    1    4    4    0    0 -0.11063096056E-01  0.13456369763E-01 -0.99005953947E-02  0.20043674606E-01  0.51100000000E-03 0. -1.
         11    1    4    4    0    0 -0.91432278776E-01  0.35295210854E-01 -0.49457206253E-01  0.10978109984E+00  0.51100000000E-03 0.  1.
</event>
<event>
 8    1  0.1112929E+005  0.1043930E+01  0.7957747E-01            NaN
         13   -1    0    0    0    0  0.00000000000E+00  0.00000000000E+00  0.74505805969E-08  0.10566000000E+00  0.10566000000E+00 0. -1.
     999900   -1    0    0    0    0 -0.00000000000E+00 -0.00000000000E+00 -0.74505805969E-08  0.93827000000E+00  0.93827000000E+00 0. -1.
     999902    2    1    2    0    0  0.15250812001E-02 -0.16952031232E-01  0.16972917127E-01  0.10198930045E+01  0.10196097114E+01 0.  0.
     999903    2    3    3    0    0 -0.98899969267E-01  0.81737869276E-02 -0.79070988472E-01  0.12863494465E+00  0.21135587349E-01 0.  0.
         14    1    1    2    0    0 -0.15250812001E-02  0.16952031232E-01 -0.16972917127E-01  0.24036995473E-01  0.00000000000E+00 0.  1.
     999901    1    3    3    0    0  0.10042505047E+00 -0.25125818160E-01  0.96043905599E-01  0.89125805988E+00  0.88000000000E+00 0.  1.
        -11    1    4    4    0    0 -0.71839126275E-01  0.73260158485E-03 -0.46234288653E-01  0.85435749761E-01  0.51100000000E-03 0.  1.
         11    1    4    4    0    0 -0.27060842992E-01  0.74411853427E-02 -0.32836699819E-01  0.43199194885E-01  0.51100000000E-03 0. -1.
</event>
<event>
 8    1  0.1112929E+005  0.1043930E+01  0.7957747E-01            NaN
         13   -1    0    0    0    0  0.00000000000E+00  0.00000000000E+00  0.74505805969E-08  0.10566000000E+00  0.10566000000E+00 0.  1.
     999900   -1    0    0    0    0 -0.00000000000E+00 -0.00000000000E+00 -0.74505805969E-08  0.93827000000E+00  0.93827000000E+00 0. -1.
     999902    2    1    2    0    0  0.94504996370E-02  0.19138208715E-01  0.10411193838E-01  0.10201818225E+01  0.10199053756E+01 0.  0.
     999903    2    3    3    0    0  0.92274081079E-01  0.91221774304E-01  0.19155735239E-01  0.13331528630E+00  0.23876876320E-01 0.  0.
         14    1    1    2    0    0 -0.94504996370E-02 -0.19138208715E-01 -0.10411193838E-01  0.23748177474E-01  0.00000000000E+00 0.  1.
     999901    1    3    3    0    0 -0.82823581442E-01 -0.72083565589E-01 -0.87445414009E-02  0.88686653622E+00  0.88000000000E+00 0.  1.
        -11    1    4    4    0    0  0.47578363361E-01  0.58973191002E-01  0.28166863102E-02  0.75826992291E-01  0.51100000000E-03 0. -1.
         11    1    4    4    0    0  0.44695717718E-01  0.32248583302E-01  0.16339048929E-01  0.57488294011E-01  0.51100000000E-03 0.  1.
</event>
<event>
 8    1  0.1112929E+005  0.1043930E+01  0.7957747E-01            NaN
         13   -1    0    0    0    0  0.00000000000E+00  0.00000000000E+00  0.74505805969E-08  0.10566000000E+00  0.10566000000E+00 0. -1.
     999900   -1    0    0    0    0 -0.00000000000E+00 -0.00000000000E+00 -0.74505805969E-08  0.93827000000E+00  0.93827000000E+00 0.  1.
     999902    2    1    2    0    0  0.10975424427E-02 -0.28335485416E-01 -0.88661489512E-02  0.10142195148E+01  0.10137842528E+01 0.  0.
     999903    2    3    3    0    0 -0.54659925169E-01 -0.11278521939E+00  0.16424849979E-01  0.12805909627E+00  0.20521776422E-01 0.  0.
         14    1    1    2    0    0 -0.10975424427E-02  0.28335485416E-01  0.88661489512E-02  0.29710485193E-01  0.00000000000E+00 0. -1.
     999901    1    3    3    0    0  0.55757467612E-01  0.84449733972E-01 -0.25290998930E-01  0.88616041854E+00  0.88000000000E+00 0.  1.
        -11    1    4    4    0    0 -0.45970040005E-01 -0.73882112719E-01  0.13827840611E-01  0.88109485612E-01  0.51100000000E-03 0. -1.
         11    1    4    4    0    0 -0.86898851643E-02 -0.38903106669E-01  0.25970093681E-02  0.39949610653E-01  0.51100000000E-03 0.  1.
</event>
<event>
 8    1  0.1112929E+005  0.1043930E+01  0.7957747E-01            NaN
         13   -1    0    0    0    0  0.00000000000E+00  0.00000000000E+00  0.74505805969E-08  0.10566000000E+00  0.10566000000E+00 0. -1.
     999900   -1    0    0    0    0 -0.00000000000E+00 -0.00000000000E+00 -0.74505805969E-08  0.93827000000E+00  0.93827000000E+00 0.  1.
     999902    2    1    2    0    0 -0.22943908612E-01  0.16690225583E-02 -0.60995078887E-02  0.10201305762E+01  0.10198529207E+01 0.  0.
     999903    2    3    3    0    0  0.57598683765E-01  0.99472467610E-01  0.54823750782E-01  0.12897163046E+00  0.20387683295E-01 0.  0.
         14    1    1    2    0    0  0.22943908612E-01 -0.16690225583E-02  0.60995078887E-02  0.23799423841E-01  0.00000000000E+00 0. -1.
     999901    1    3    3    0    0 -0.80542592376E-01 -0.97803445052E-01 -0.60923258671E-01  0.89115894570E+00  0.88000000000E+00 0.  1.
        -11    1    4    4    0    0  0.22376336677E-01  0.41492995271E-01  0.11668832197E-01  0.48567395086E-01  0.51100000000E-03 0. -1.
         11    1    4    4    0    0  0.35222347087E-01  0.57979472339E-01  0.43154918586E-01  0.80404235375E-01  0.51100000000E-03 0.  1.
</event>
<event>
 8    1  0.1112929E+005  0.1043930E+01  0.7957747E-01            NaN
         13   -1    0    0    0    0  0.00000000000E+00  0.00000000000E+00  0.74505805969E-08  0.10566000000E+00  0.10566000000E+00 0. -1.
     999900   -1    0    0    0    0 -0.00000000000E+00 -0.00000000000E+00 -0.74505805969E-08  0.93827000000E+00  0.93827000000E+00 0.  1.
     999902    2    1    2    0    0  0.10992239444E-01 -0.16866296907E-01 -0.12249781228E-01  0.10203639558E+01  0.10200917821E+01 0.  0.
     999903    2    3    3    0    0 -0.97584360096E-01 -0.42661783952E-01 -0.73944290721E-01  0.13117303275E+00  0.19896513408E-01 0.  0.
         14    1    1    2    0    0 -0.10992239444E-01  0.16866296907E-01  0.12249781228E-01  0.23566044205E-01  0.00000000000E+00 0. -1.
     999901    1    3    3    0    0  0.10857659954E+00  0.25795487045E-01  0.61694509493E-01  0.88919092304E+00  0.88000000000E+00 0. -1.
        -11    1    4    4    0    0 -0.51410324111E-01 -0.18279368722E-01 -0.48849651164E-01  0.73237328500E-01  0.51100000000E-03 0. -1.
         11    1    4    4    0    0 -0.46174035986E-01 -0.24382415230E-01 -0.25094639557E-01  0.57935704252E-01  0.51100000000E-03 0.  1.
</event>
<event>
 8    1  0.1112929E+005  0.1043930E+01  0.7957747E-01            NaN
         13   -1    0    0    0    0  0.00000000000E+00  0.00000000000E+00  0.74505805969E-08  0.10566000000E+00  0.10566000000E+00 0. -1.
     999900   -1    0    0    0    0 -0.00000000000E+00 -0.00000000000E+00 -0.74505805969E-08  0.93827000000E+00  0.93827000000E+00 0.  1.
     999902    2    1    2    0    0  0.17001562696E-01  0.15236315755E-01 -0.60586731780E-02  0.10203099667E+01  0.10200365298E+01 0.  0.
     999903    2    3    3    0    0 -0.40577214794E-01 -0.18959445816E-01  0.11876000312E+00  0.12898266000E+00  0.22948143612E-01 0.  0.
         14    1    1    2    0    0 -0.17001562696E-01 -0.15236315755E-01  0.60586731780E-02  0.23620033289E-01  0.00000000000E+00 0.  1.
     999901    1    3    3    0    0  0.57578777491E-01  0.34195761571E-01 -0.12481867630E+00  0.89132730671E+00  0.88000000000E+00 0.  1.
        -11    1    4    4    0    0 -0.22420588155E-01  0.19504698469E-02  0.57633275801E-01  0.61873602662E-01  0.51100000000E-03 0. -1.
         11    1    4    4    0    0 -0.18156626639E-01 -0.20909915663E-01  0.61126727317E-01  0.67109057343E-01  0.51100000000E-03 0.  1.
</event>
<event>
 8    1  0.1112929E+005  0.1043930E+01  0.7957747E-01            NaN
         13   -1    0    0    0    0  0.00000000000E+00  0.00000000000E+00  0.74505805969E-08  0.10566000000E+00  0.10566000000E+00 0.  1.
     999900   -1    0    0    0    0 -0.00000000000E+00 -0.00000000000E+00 -0.74505805969E-08  0.93827000000E+00  0.93827000000E+00 0.  1.
     999902    2    1    2    0    0 -0.10580581384E-01  0.15903613318E-01  0.13243260130E-01  0.10206865588E+01  0.10204218705E+01 0.  0.
     999903    2    3    3    0    0 -0.11741983124E+00  0.14300752796E-01 -0.54211742599E-01  0.13166047829E+00  0.20090799133E-01 0.  0.
         14    1    1    2    0    0  0.10580581384E-01 -0.15903613318E-01 -0.13243260130E-01  0.23243441179E-01  0.00000000000E+00 0. -1.
     999901    1    3    3    0    0  0.10683924985E+00  0.16028605220E-02  0.67455002728E-01  0.88902608053E+00  0.88000000000E+00 0. -1.
        -11    1    4    4    0    0 -0.73738806542E-01  0.18296496514E-02 -0.40788680216E-01  0.84289600561E-01  0.51100000000E-03 0. -1.
         11    1    4    4    0    0 -0.43681024695E-01  0.12471103145E-01 -0.13423062383E-01  0.47370877729E-01  0.51100000000E-03 0.  1.
</event>
<event>
 8    1  0.1112929E+005  0.1043930E+01  0.7957747E-01            NaN
         13   -1    0    0    0    0  0.00000000000E+00  0.00000000000E+00  0.74505805969E-08  0.10566000000E+00  0.10566000000E+00 0.  1.
     999900   -1    0    0    0    0 -0.00000000000E+00 -0.00000000000E+00 -0.74505805969E-08  0.93827000000E+00  0.93827000000E+00 0.  1.
     999902    2    1    2    0    0  0.14415934498E-01  0.18233997940E-01 -0.57272813220E-02  0.10199905013E+01  0.10197095288E+01 0.  0.
     999903    2    3    3    0    0 -0.23469781958E-01  0.11024742800E+00 -0.66030884520E-01  0.13233160091E+00  0.21124602808E-01 0.  0.
         14    1    1    2    0    0 -0.14415934498E-01 -0.18233997940E-01  0.57272813220E-02  0.23939498734E-01  0.00000000000E+00 0.  1.
     999901    1    3    3    0    0  0.37885716456E-01 -0.92013430057E-01  0.60303603198E-01  0.88765890036E+00  0.88000000000E+00 0. -1.
        -11    1    4    4    0    0 -0.72347555090E-02  0.69931213407E-01 -0.32599578911E-01  0.77496515805E-01  0.51100000000E-03 0. -1.
         11    1    4    4    0    0 -0.16235026449E-01  0.40316214590E-01 -0.33431305610E-01  0.54835085105E-01  0.51100000000E-03 0.  1.
</event>
<event>
 8    1  0.1112929E+005  0.1043930E+01  0.7957747E-01            NaN
         13   -1    0    0    0    0  0.00000000000E+00  0.00000000000E+00  0.74505805969E-08  0.10566000000E+00  0.10566000000E+00 0. -1.
     999900   -1    0    0    0    0 -0.00000000000E+00 -0.00000000000E+00 -0.74505805969E-08  0.93827000000E+00  0.93827000000E+00 0. -1.
     999902    2    1    2    0    0 -0.18570466442E-01 -0.14716069576E-01 -0.14374909832E-02  0.10201920281E+01  0.10199158215E+01 0.  0.
     999903    2    3    3    0    0 -0.46317724525E-01 -0.71725847239E-01  0.98672300163E-01  0.13224946504E+00  0.21535306292E-01 0.  0.
         14    1    1    2    0    0  0.18570466442E-01  0.14716069576E-01  0.14374909832E-02  0.23737971859E-01  0.00000000000E+00 0. -1.
     999901    1    3    3    0    0  0.27747258083E-01  0.57009777662E-01 -0.10010979115E+00  0.88794256310E+00  0.88000000000E+00 0. -1.
        -11    1    4    4    0    0 -0.20243947610E-01 -0.13732571636E-01  0.27242767903E-01  0.36617351933E-01  0.51100000000E-03 0.  1.
         11    1    4    4    0    0 -0.26073776915E-01 -0.57993275603E-01  0.71429532259E-01  0.95632113108E-01  0.51100000000E-03 0. -1.
</event>
<event>
 8    1  0.1112929E+005  0.1043930E+01  0.7957747E-01            NaN
         13   -1    0    0    0    0  0.00000000000E+00  0.00000000000E+00  0.74505805969E-08  0.10566000000E+00  0.10566000000E+00 0.  1.
     999900   -1    0    0    0    0 -0.00000000000E+00 -0.00000000000E+00 -0.74505805969E-08  0.93827000000E+00  0.93827000000E+00 0. -1.
     999902    2    1    2    0    0  0.33745860639E-02  0.11795409592E-01 -0.20953357813E-01  0.10196490873E+01  0.10193599455E+01 0.  0.
     999903    2    3    3    0    0 -0.90689802880E-01  0.10446497844E-01 -0.92873869348E-01  0.13171750839E+00  0.19752892041E-01 0.  0.
         14    1    1    2    0    0 -0.33745860639E-02 -0.11795409592E-01  0.20953357813E-01  0.24280912713E-01  0.00000000000E+00 0.  1.
     999901    1    3    3    0    0  0.94064388944E-01  0.13489117475E-02  0.71920511535E-01  0.88793157890E+00  0.88000000000E+00 0.  1.
        -11    1    4    4    0    0 -0.82431064638E-02  0.42155838500E-02 -0.17641537840E-01  0.19930000746E-01  0.51100000000E-03 0. -1.
         11    1    4    4    0    0 -0.82446696416E-01  0.62309139943E-02 -0.75232331508E-01  0.11178750764E+00  0.51100000000E-03 0.  1.
</event>
<event>
 8    1  0.1112929E+005  0.1043930E+01  0.7957747E-01            NaN
         13   -1    0    0    0    0  0.00000000000E+00  0.00000000000E+00  0.74505805969E-08  0.10566000000E+00  0.10566000000E+00 0.  1.
     999900   -1    0    0    0    0 -0.00000000000E+00 -0.00000000000E+00 -0.74505805969E-08  0.93827000000E+00  0.93827000000E+00 0. -1.
     999902    2    1    2    0    0  0.75380808719E-02 -0.14608906925E-01 -0.16840513500E-01  0.10203960730E+01  0.10201246493E+01 0.  0.
     999903    2    3    3    0    0 -0.74695984506E-01  0.10277697752E+00 -0.46406510210E-02  0.12871747395E+00  0.20101125521E-01 0.  0.
         14    1    1    2    0    0 -0.75380808719E-02  0.14608906925E-01  0.16840513500E-01  0.23533926993E-01  0.00000000000E+00 0.  1.
     999901    1    3    3    0    0  0.82234065378E-01 -0.11738588445E+00 -0.12199862479E-01  0.89167859906E+00  0.88000000000E+00 0. -1.
        -11    1    4    4    0    0 -0.54207386054E-01  0.58034071414E-01 -0.34596879173E-02  0.79489777388E-01  0.51100000000E-03 0.  1.
         11    1    4    4    0    0 -0.20488598452E-01  0.44742906111E-01 -0.11809631037E-02  0.49227696560E-01  0.51100000000E-03 0. -1.
</event>
<event>
 7    1  0.1112929E+005  0.1043930E+01  0.7957747E-01            NaN
         13   -1    0    0    0    0  0.00000000000E+00  0.00000000000E+00  0.74505805969E-08  0.10566000000E+00  0.10566000000E+00 0.  1.
     999900   -1    0    0    0    0 -0.00000000000E+00 -0.00000000000E+00 -0.74505805969E-08  0.93827000000E+00  0.93827000000E+00 0.  1.
     999902    2    1    2    0    0 -0.21952879638E-01  0.38804411162E-02  0.58760143876E-02  0.10208754063E+01  0.10206150503E+01 0.  0.
         14    1    1    2    0    0  0.21952879638E-01 -0.38804411162E-02 -0.58760143876E-02  0.23054593745E-01  0.00000000000E+00 0. -1.
     999901    1    3    3    0    0  0.65822344516E-01  0.92595267378E-01  0.34438047652E-01  0.88797097008E+00  0.88000000000E+00 0.  1.
        -11    1    3    3    0    0 -0.44647894110E-01 -0.21007296093E-01 -0.75278091869E-02  0.49916630192E-01  0.51100000000E-03 0. -1.
         11    1    3    3    0    0 -0.43127330044E-01 -0.67707530169E-01 -0.21034224078E-01  0.82987805983E-01  0.51100000000E-03 0.  1.
</event>
<event>
 8    1  0.1112929E+005  0.1043930E+01  0.7957747E-01            NaN
         13   -1    0    0    0    0  0.00000000000E+00  0.00000000000E+00  0.74505805969E-08  0.10566000000E+00  0.10566000000E+00 0. -1.
     999900   -1    0    0    0    0 -0.00000000000E+00 -0.00000000000E+00 -0.74505805969E-08  0.93827000000E+00  0.93827000000E+00 0.  1.
     999902    2    1    2    0    0 -0.11514742811E-01  0.15147241825E-01 -0.13512329743E-01  0.10205930916E+01  0.10203262456E+01 0.  0.
     999903    2    3    3    0    0  0.35817415832E-01  0.20558636944E-01  0.12056614670E+00  0.12916353509E+00  0.21011383487E-01 0.  0.
         14    1    1    2    0    0  0.11514742811E-01 -0.15147241825E-01  0.13512329743E-01  0.23336908364E-01  0.00000000000E+00 0. -1.
     999901    1    3    3    0    0 -0.47332158643E-01 -0.54113951183E-02 -0.13407847645E+00  0.89142955655E+00  0.88000000000E+00 0.  1.
        -11    1    4    4    0    0  0.16695527359E-01  0.59536745478E-02  0.80456784852E-01  0.82387755304E-01  0.51100000000E-03 0.  1.
         11    1    4    4    0    0  0.19121888473E-01  0.14604962396E-01  0.40109361851E-01  0.46775779785E-01  0.51100000000E-03 0. -1.
</event>
<event>
 8    1  0.1112929E+005  0.1043930E+01  0.7957747E-01            NaN
         13   -1    0    0    0    0  0.00000000000E+00  0.00000000000E+00  0.74505805969E-08  0.10566000000E+00  0.10566000000E+00 0. -1.
     999900   -1    0    0    0    0 -0.00000000000E+00 -0.00000000000E+00 -0.74505805969E-08  0.93827000000E+00  0.93827000000E+00 0. -1.
     999902    2    1    2    0    0 -0.44807651134E-02 -0.24868268007E-01 -0.51587917898E-02  0.10181400573E+01  0.10178133695E+01 0.  0.
     999903    2    3    3    0    0  0.17294022938E-01 -0.10071777487E+00 -0.80074125542E-01  0.13143853128E+00  0.20519954187E-01 0.  0.
         14    1    1    2    0    0  0.44807651134E-02  0.24868268007E-01  0.51587917898E-02  0.25789942660E-01  0.00000000000E+00 0. -1.
     999901    1    3    3    0    0 -0.21774788051E-01  0.75849506862E-01  0.74915333752E-01  0.88670152606E+00  0.88000000000E+00 0.  1.
        -11    1    4    4    0    0  0.20862971228E-01 -0.76055260894E-01 -0.65833470566E-01  0.10273253256E+00  0.51100000000E-03 0.  1.
         11    1    4    4    0    0 -0.35689482899E-02 -0.24662513975E-01 -0.14240654976E-01  0.28705998722E-01  0.51100000000E-03 0. -1.
</event>
<event>
 8    1  0.1112929E+005  0.1043930E+01  0.7957747E-01            NaN
         13   -1    0    0    0    0  0.00000000000E+00  0.00000000000E+00  0.74505805969E-08  0.10566000000E+00  0.10566000000E+00 0. -1.
     999900   -1    0    0    0    0 -0.00000000000E+00 -0.00000000000E+00 -0.74505805969E-08  0.93827000000E+00  0.93827000000E+00 0.  1.
     999902    2    1    2    0    0  0.14742917250E-01  0.95480999828E-02 -0.13847082845E-01  0.10215634731E+01  0.10213185928E+01 0.  0.
     999903    2    3    3    0    0  0.10736858532E+00  0.65871278110E-01 -0.42016559450E-01  0.13446407946E+00  0.21169766251E-01 0.  0.
         14    1    1    2    0    0 -0.14742917250E-01 -0.95480999828E-02  0.13847082845E-01  0.22366526901E-01  0.00000000000E+00 0.  1.
     999901    1    3    3    0    0 -0.92625668073E-01 -0.56323178128E-01  0.28169476605E-01  0.88709939364E+00  0.88000000000E+00 0.  1.
        -11    1    4    4    0    0  0.46034338062E-01  0.38807041294E-01 -0.14088529871E-01  0.61837646541E-01  0.51100000000E-03 0.  1.
         11    1    4    4    0    0  0.61334247261E-01  0.27064236816E-01 -0.27928029579E-01  0.72626432920E-01  0.51100000000E-03 0. -1.
</event>
<event>
 8    1  0.1112929E+005  0.1043930E+01  0.7957747E-01            NaN
         13   -1    0    0    0    0  0.00000000000E+00  0.00000000000E+00  0.74505805969E-08  0.10566000000E+00  0.10566000000E+00 0. -1.
     999900   -1    0    0    0    0 -0.00000000000E+00 -0.00000000000E+00 -0.74505805969E-08  0.93827000000E+00  0.93827000000E+00 0. -1.
     999902    2    1    2    0    0 -0.21953642779E-04 -0.19311754465E-01 -0.13352584397E-01  0.10204515875E+01  0.10201814577E+01 0.  0.
     999903    2    3    3    0    0  0.10941061639E+00 -0.36238741594E-01  0.59876383282E-01  0.13049400876E+00  0.12632326638E-01 0.  0.
         14    1    1    2    0    0  0.21953642778E-04  0.19311754465E-01  0.13352584397E-01  0.23478412479E-01  0.00000000000E+00 0. -1.
     999901    1    3    3    0    0 -0.10943257004E+00  0.16926987129E-01 -0.73228967679E-01  0.88995757876E+00  0.88000000000E+00 0. -1.
        -11    1    4    4    0    0  0.26000303462E-01 -0.94688833675E-02  0.20542094032E-01  0.34466132370E-01  0.51100000000E-03 0.  1.
         11    1    4    4    0    0  0.83410312933E-01 -0.26769858226E-01  0.39334289251E-01  0.96027876394E-01  0.51100000000E-03 0. -1.
</event>
<event>
 8    1  0.1112929E+005  0.1043930E+01  0.7957747E-01            NaN
         13   -1    0    0    0    0  0.00000000000E+00  0.00000000000E+00  0.74505805969E-08  0.10566000000E+00  0.10566000000E+00 0. -1.
     999900   -1    0    0    0    0 -0.00000000000E+00 -0.00000000000E+00 -0.74505805969E-08  0.93827000000E+00  0.93827000000E+00 0. -1.
     999902    2    1    2    0    0 -0.14567585986E-01 -0.17619378460E-01 -0.67520387033E-02  0.10200920663E+01  0.10198135009E+01 0.  0.
     999903    2    3    3    0    0 -0.31707643746E-01  0.39144978343E-01 -0.11968912711E+00  0.13089537276E+00  0.16444070620E-01 0.  0.
         14    1    1    2    0    0  0.14567585986E-01  0.17619378460E-01  0.67520387033E-02  0.23837933749E-01  0.00000000000E+00 0. -1.
     999901    1    3    3    0    0  0.17140057760E-01 -0.56764356803E-01  0.11293708841E+00  0.88919669349E+00  0.88000000000E+00 0.  1.
        -11    1    4    4    0    0 -0.28970552988E-01  0.24514541350E-01 -0.90164711784E-01  0.97827358393E-01  0.51100000000E-03 0.  1.
         11    1    4    4    0    0 -0.27370907574E-02  0.14630436993E-01 -0.29524415329E-01  0.33068014363E-01  0.51100000000E-03 0. -1.
</event>
<event>
 8    1  0.1112929E+005  0.1043930E+01  0.7957747E-01            NaN
         13   -1    0    0    0    0  0.00000000000E+00  0.00000000000E+00  0.74505805969E-08  0.10566000000E+00  0.10566000000E+00 0. -1.
     999900   -1    0    0    0    0 -0.00000000000E+00 -0.00000000000E+00 -0.74505805969E-08  0.93827000000E+00  0.93827000000E+00 0. -1.
     999902    2    1    2    0    0 -0.10547320444E-01 -0.20649207560E-01  0.49128975057E-02  0.10202282637E+01  0.10199529096E+01 0.  0.
     999903    2    3    3    0    0  0.65337336236E-01 -0.86923875561E-01 -0.70752803219E-01  0.13125351097E+00  0.19919772328E-01 0.  0.
         14    1    1    2    0    0  0.10547320444E-01  0.20649207560E-01 -0.49128975057E-02  0.23701736293E-01  0.00000000000E+00 0. -1.
     999901    1    3    3    0    0 -0.75884656680E-01  0.66274668001E-01  0.75665700725E-01  0.88897475274E+00  0.88000000000E+00 0.  1.
        -11    1    4    4    0    0  0.24028980589E-01 -0.45132647419E-01 -0.25836843096E-01  0.57290063304E-01  0.51100000000E-03 0.  1.
         11    1    4    4    0    0  0.41308355647E-01 -0.41791228142E-01 -0.44915960123E-01  0.73963447666E-01  0.51100000000E-03 0. -1.
</event>
<event>
 8    1  0.1112929E+005  0.1043930E+01  0.7957747E-01            NaN
         13   -1    0    0    0    0  0.00000000000E+00  0.00000000000E+00  0.74505805969E-08  0.10566000000E+00  0.10566000000E+00 0. -1.
     999900   -1    0    0    0    0 -0.00000000000E+00 -0.00000000000E+00 -0.74505805969E-08  0.93827000000E+00  0.93827000000E+00 0.  1.
     999902    2    1    2    0    0  0.17853145886E-01 -0.98179797038E-02 -0.12188379981E-01  0.10201879666E+01  0.10199116643E+01 0.  0.
     999903    2    3    3    0    0  0.72996476089E-01 -0.87261504020E-01 -0.66690118653E-01  0.13339107562E+00  0.20063686719E-01 0.  0.
         14    1    1    2    0    0 -0.17853145886E-01  0.98179797038E-02  0.12188379981E-01  0.23742033402E-01  0.00000000000E+00 0. -1.
     999901    1    3    3    0    0 -0.55143330203E-01  0.77443524316E-01  0.54501738671E-01  0.88679689097E+00  0.88000000000E+00 0. -1.
        -11    1    4    4    0    0  0.38547327883E-01 -0.30839538055E-01 -0.26662747320E-01  0.56108259731E-01  0.51100000000E-03 0. -1.
         11    1    4    4    0    0  0.34449148207E-01 -0.56421965965E-01 -0.40027371333E-01  0.77282815893E-01  0.51100000000E-03 0.  1.
</event>
<event>
 8    1  0.1112929E+005  0.1043930E+01  0.7957747E-01            NaN
         13   -1    0    0    0    0  0.00000000000E+00  0.00000000000E+00  0.74505805969E-08  0.10566000000E+00  0.10566000000E+00 0. -1.
     999900   -1    0    0    0    0 -0.00000000000E+00 -0.00000000000E+00 -0.74505805969E-08  0.93827000000E+00  0.93827000000E+00 0. -1.
     999902    2    1    2    0    0  0.17606454906E-01  0.83021651795E-02 -0.12360986418E-01  0.10208712232E+01  0.10206107717E+01 0.  0.
     999903    2    3    3    0    0 -0.92914823398E-01  0.78326733555E-01 -0.43759767872E-01  0.13064413051E+00  0.19614534293E-01 0.  0.
         14    1    1    2    0    0 -0.17606454906E-01 -0.83021651795E-02  0.12360986418E-01  0.23058776773E-01  0.00000000000E+00 0. -1.
     999901    1    3    3    0    0  0.11052127830E+00 -0.70024568375E-01  0.31398781453E-01  0.89022709272E+00  0.88000000000E+00 0. -1.
        -11    1    4    4    0    0 -0.49542538327E-01  0.40009113730E-01 -0.33183655671E-01  0.71809528685E-01  0.51100000000E-03 0. -1.
         11    1    4    4    0    0 -0.43372285072E-01  0.38317619825E-01 -0.10576112201E-01  0.58834601823E-01  0.51100000000E-03 0.  1.
</event>
<event>
 8    1  0.1112929E+005  0.1043930E+01  0.7957747E-01            NaN
         13   -1    0    0    0    0  0.00000000000E+00  0.00000000000E+00  0.74505805969E-08  0.10566000000E+00  0.10566000000E+00 0.  1.
     999900   -1    0    0    0    0 -0.00000000000E+00 -0.00000000000E+00 -0.74505805969E-08  0.93827000000E+00  0.93827000000E+00 0. -1.
     999902    2    1    2    0    0 -0.10259945154E-01 -0.26775214611E-01  0.10852057637E-01  0.10132714653E+01  0.10128075418E+01 0.  0.
     999903    2    3    3    0    0 -0.12180321219E+00  0.20487338329E-01 -0.17001974961E-02  0.12488348229E+00  0.18364093965E-01 0.  0.
         14    1    1    2    0    0  0.10259945154E-01  0.26775214611E-01 -0.10852057637E-01  0.30658534652E-01  0.00000000000E+00 0. -1.
     999901    1    3    3    0    0  0.11154326703E+00 -0.47262552940E-01  0.12552255133E-01  0.88838798306E+00  0.88000000000E+00 0. -1.
        -11    1    4    4    0    0 -0.95706532234E-01  0.14437998427E-01  0.60848920803E-02  0.96981870179E-01  0.51100000000E-03 0.  1.
         11    1    4    4    0    0 -0.26096679952E-01  0.60493399020E-02 -0.77850895764E-02  0.27901612113E-01  0.51100000000E-03 0. -1.
</event>
<event>
 8    1  0.1112929E+005  0.1043930E+01  0.7957747E-01            NaN
         13   -1    0    0    0    0  0.00000000000E+00  0.00000000000E+00  0.74505805969E-08  0.10566000000E+00  0.10566000000E+00 0.  1.
     999900   -1    0    0    0    0 -0.00000000000E+00 -0.00000000000E+00 -0.74505805969E-08  0.93827000000E+00  0.93827000000E+00 0. -1.
     999902    2    1    2    0    0 -0.13569636917E-01  0.16903859288E-01  0.54935335393E-02  0.10215681035E+01  0.10213233257E+01 0.  0.
     999903    2    3    3    0    0  0.86234281125E-02  0.14369831665E-01  0.12988452056E+00  0.13253938006E+00  0.20392229161E-01 0.  0.
         14    1    1    2    0    0  0.13569636917E-01 -0.16903859288E-01 -0.54935335393E-02  0.22361896512E-01  0.00000000000E+00 0. -1.
     999901    1    3    3    0    0 -0.22193065029E-01  0.25340276226E-02 -0.12439098702E+00  0.88902872343E+00  0.88000000000E+00 0. -1.
        -11    1    4    4    0    0 -0.23953754660E-02  0.10135208516E-01  0.26431798643E-01  0.28414105225E-01  0.51100000000E-03 0. -1.
         11    1    4    4    0    0  0.11018803578E-01  0.42346231495E-02  0.10345272192E+00  0.10412527483E+00  0.51100000000E-03 0.  1.
</event>
<event>
 8    1  0.1131529E+005  0.1043930E+01  0.7957747E-01            NaN
         13   -1    0    0    0    0  0.00000000000E+00  0.00000000000E+00  0.74505805969E-08  0.10566000000E+00  0.10566000000E+00 0.  1.
     999900   -1    0    0    0    0 -0.00000000000E+00 -0.00000000000E+00 -0.74505805969E-08  0.93827000000E+00  0.93827000000E+00 0. -1.
     999902    2    1    2    0    0 -0.53549423020E-02  0.22725697434E-01 -0.60177962133E-02  0.10198188697E+01  0.10195338055E+01 0.  0.
     999903    2    3    3    0    0  0.82619503165E-01  0.91350722082E-01 -0.43080095648E-01  0.13199990672E+00  0.19928472234E-01 0.  0.
         14    1    1    2    0    0  0.53549423020E-02 -0.22725697434E-01  0.60177962133E-02  0.24111130255E-01  0.00000000000E+00 0.  1.
     999901    1    3    3    0    0 -0.87974445467E-01 -0.68625024648E-01  0.37062299434E-01  0.88781896302E+00  0.88000000000E+00 0.  1.
        -11    1    4    4    0    0  0.37613311548E-01  0.55314364990E-01 -0.19216090458E-01  0.69598559133E-01  0.51100000000E-03 0.  1.
         11    1    4    4    0    0  0.45006191616E-01  0.36036357092E-01 -0.23864005190E-01  0.62401347589E-01  0.51100000000E-03 0. -1.
</event>
<event>
 7    1  0.1112929E+005  0.1043930E+01  0.7957747E-01            NaN
         13   -1    0    0    0    0  0.00000000000E+00  0.00000000000E+00  0.74505805969E-08  0.10566000000E+00  0.10566000000E+00 0.  1.
     999900   -1    0    0    0    0 -0.00000000000E+00 -0.00000000000E+00 -0.74505805969E-08  0.93827000000E+00  0.93827000000E+00 0.  1.
     999903    2    1    2    0    0 -0.68260752313E-01  0.79085517840E-01 -0.20778052146E-04  0.10629337077E+00  0.19601806014E-01 0.  0.
         14    1    1    2    0    0  0.13347674136E-01  0.36195719895E-01 -0.28498950604E-01  0.47963326918E-01  0.00000000000E+00 0. -1.
     999901    1    1    2    0    0  0.54913078177E-01 -0.11528123773E+00  0.28519728656E-01  0.88967330231E+00  0.88000000000E+00 0.  1.
        -11    1    3    3    0    0 -0.44579410555E-01  0.43774418334E-01 -0.81303624713E-02  0.63007042946E-01  0.51100000000E-03 0. -1.
         11    1    3    3    0    0 -0.23681341757E-01  0.35311099506E-01  0.81095844192E-02  0.43286327821E-01  0.51100000000E-03 0.  1.
</event>
<event>
 8    1  0.1112929E+005  0.1043930E+01  0.7957747E-01            NaN
         13   -1    0    0    0    0  0.00000000000E+00  0.00000000000E+00  0.74505805969E-08  0.10566000000E+00  0.10566000000E+00 0.  1.
     999900   -1    0    0    0    0 -0.00000000000E+00 -0.00000000000E+00 -0.74505805969E-08  0.93827000000E+00  0.93827000000E+00 0.  1.
     999902    2    1    2    0    0  0.19538582449E-01 -0.60295950625E-02  0.10061025610E-01  0.10211410453E+01  0.10208867214E+01 0.  0.
     999903    2    3    3    0    0 -0.80229101369E-01  0.94300446573E-01 -0.29761293037E-01  0.12894962801E+00  0.20322132545E-01 0.  0.
         14    1    1    2    0    0 -0.19538582449E-01  0.60295950625E-02 -0.10061025610E-01  0.22788954716E-01  0.00000000000E+00 0.  1.
     999901    1    3    3    0    0  0.99767683818E-01 -0.10033004164E+00  0.39822318647E-01  0.89219141727E+00  0.88000000000E+00 0. -1.
        -11    1    4    4    0    0 -0.75034143624E-01  0.85317615991E-01 -0.32553747335E-01  0.11819147979E+00  0.51100000000E-03 0. -1.
         11    1    4    4    0    0 -0.51949577448E-02  0.89828305818E-02  0.27924542986E-02  0.10758148225E-01  0.51100000000E-03 0.  1.
</event>
<event>
 8    1  0.1112929E+005  0.1043930E+01  0.7957747E-01            NaN
         13   -1    0    0    0    0  0.00000000000E+00  0.00000000000E+00  0.74505805969E-08  0.10566000000E+00  0.10566000000E+00 0. -1.
     999900   -1    0    0    0    0 -0.00000000000E+00 -0.00000000000E+00 -0.74505805969E-08  0.93827000000E+00  0.93827000000E+00 0. -1.
     999902    2    1    2    0    0 -0.11149928915E-01  0.12579922404E-01 -0.17148069192E-01  0.10199168444E+01  0.10196341196E+01 0.  0.
     999903    2    3    3    0    0  0.48337941587E-02  0.50554061601E-01 -0.11990492979E+00  0.13298027003E+00  0.26971861593E-01 0.  0.
         14    1    1    2    0    0  0.11149928915E-01 -0.12579922404E-01  0.17148069192E-01  0.24013155551E-01  0.00000000000E+00 0. -1.
     999901    1    3    3    0    0 -0.15983723074E-01 -0.37974139197E-01  0.10275686060E+00  0.88693657442E+00  0.88000000000E+00 0.  1.
        -11    1    4    4    0    0 -0.11003153424E-01  0.21894149454E-01 -0.57471301215E-01  0.62479074497E-01  0.51100000000E-03 0.  1.
         11    1    4    4    0    0  0.15836947582E-01  0.28659912147E-01 -0.62433628575E-01  0.70501195529E-01  0.51100000000E-03 0. -1.
</event>
<event>
 8    1  0.1112929E+005  0.1043930E+01  0.7957747E-01            NaN
         13   -1    0    0    0    0  0.00000000000E+00  0.00000000000E+00  0.74505805969E-08  0.10566000000E+00  0.10566000000E+00 0.  1.
     999900   -1    0    0    0    0 -0.00000000000E+00 -0.00000000000E+00 -0.74505805969E-08  0.93827000000E+00  0.93827000000E+00 0. -1.
     999902    2    1    2    0    0  0.19899077288E-02  0.17019592794E-01 -0.12023713114E-01  0.10229968696E+01  0.10227826745E+01 0.  0.
     999903    2    3    3    0    0 -0.85133438349E-01  0.67015918086E-01 -0.77461924489E-01  0.13486834878E+00  0.21219947091E-01 0.  0.
         14    1    1    2    0    0 -0.19899077288E-02 -0.17019592794E-01  0.12023713114E-01  0.20933130408E-01  0.00000000000E+00 0.  1.
     999901    1    3    3    0    0  0.87123346078E-01 -0.49996325291E-01  0.65438211375E-01  0.88812852081E+00  0.88000000000E+00 0.  1.
        -11    1    4    4    0    0 -0.27688300877E-01  0.34921872348E-01 -0.29731945732E-01  0.53576383713E-01  0.51100000000E-03 0.  1.
         11    1    4    4    0    0 -0.57445137472E-01  0.32094045738E-01 -0.47729978758E-01  0.81291965065E-01  0.51100000000E-03 0. -1.
</event>
<event>
 8    1  0.1112929E+005  0.1043930E+01  0.7957747E-01            NaN
         13   -1    0    0    0    0  0.00000000000E+00  0.00000000000E+00  0.74505805969E-08  0.10566000000E+00  0.10566000000E+00 0.  1.
     999900   -1    0    0    0    0 -0.00000000000E+00 -0.00000000000E+00 -0.74505805969E-08  0.93827000000E+00  0.93827000000E+00 0. -1.
     999902    2    1    2    0    0  0.23193641874E-02 -0.23643094890E-01 -0.47843913780E-02  0.10196964326E+01  0.10194084309E+01 0.  0.
     999903    2    3    3    0    0 -0.37558368394E-01 -0.48859611897E-01 -0.11436508520E+00  0.13164573885E+00  0.21291668168E-01 0.  0.
         14    1    1    2    0    0 -0.23193641874E-02  0.23643094890E-01  0.47843913780E-02  0.24233567361E-01  0.00000000000E+00 0.  1.
     999901    1    3    3    0    0  0.39877732581E-01  0.25216517008E-01  0.10958069382E+00  0.88805069379E+00  0.88000000000E+00 0.  1.
        -11    1    4    4    0    0 -0.20397529089E-01 -0.37773394137E-01 -0.90901998576E-01  0.10053020921E+00  0.51100000000E-03 0.  1.
         11    1    4    4    0    0 -0.17160839304E-01 -0.11086217760E-01 -0.23463086621E-01  0.31115529638E-01  0.51100000000E-03 0. -1.
</event>
<event>
 8    1  0.1112929E+005  0.1043930E+01  0.7957747E-01            NaN
         13   -1    0    0    0    0  0.00000000000E+00  0.00000000000E+00  0.74505805969E-08  0.10566000000E+00  0.10566000000E+00 0. -1.
     999900   -1    0    0    0    0 -0.00000000000E+00 -0.00000000000E+00 -0.74505805969E-08  0.93827000000E+00  0.93827000000E+00 0. -1.
     999902    2    1    2    0    0 -0.18387265063E-02 -0.14864460141E-01  0.17866411528E-01  0.10206160181E+01  0.10203497022E+01 0.  0.
     999903    2    3    3    0    0 -0.10728906026E+00  0.70546275596E-01  0.65562406465E-02  0.13014272450E+00  0.20159985049E-01 0.  0.
         14    1    1    2    0    0  0.18387265063E-02  0.14864460141E-01 -0.17866411528E-01  0.23313981885E-01  0.00000000000E+00 0.  1.
     999901    1    3    3    0    0  0.10545033376E+00 -0.85410735737E-01  0.11310170882E-01  0.89047329361E+00  0.88000000000E+00 0.  1.
        -11    1    4    4    0    0 -0.85857581944E-01  0.50276944844E-01  0.11744258600E-01  0.10018724615E+00  0.51100000000E-03 0. -1.
         11    1    4    4    0    0 -0.21431478319E-01  0.20269330752E-01 -0.51880179538E-02  0.29955478354E-01  0.51100000000E-03 0.  1.
</event>
<event>
 8    1  0.1112929E+005  0.1043930E+01  0.7957747E-01            NaN
         13   -1    0    0    0    0  0.00000000000E+00  0.00000000000E+00  0.74505805969E-08  0.10566000000E+00  0.10566000000E+00 0. -1.
     999900   -1    0    0    0    0 -0.00000000000E+00 -0.00000000000E+00 -0.74505805969E-08  0.93827000000E+00  0.93827000000E+00 0.  1.
     999902    2    1    2    0    0  0.14913998900E-01  0.12729565878E-01 -0.10869674636E-01  0.10215108333E+01  0.10212647862E+01 0.  0.
     999903    2    3    3    0    0 -0.45667237395E-01 -0.45346786436E-01  0.11018186954E+00  0.12926847536E+00  0.20699438021E-01 0.  0.
         14    1    1    2    0    0 -0.14913998900E-01 -0.12729565878E-01  0.10869674636E-01  0.22419166740E-01  0.00000000000E+00 0. -1.
     999901    1    3    3    0    0  0.60581236295E-01  0.58076352314E-01 -0.12105154418E+00  0.89224235790E+00  0.88000000000E+00 0.  1.
        -11    1    4    4    0    0 -0.19924975992E-01 -0.33878637979E-01  0.67794308153E-01  0.78365146069E-01  0.51100000000E-03 0.  1.
         11    1    4    4    0    0 -0.25742261403E-01 -0.11468148457E-01  0.42387561387E-01  0.50903329287E-01  0.51100000000E-03 0. -1.
</event>
<event>
 7    1  0.1112929E+005  0.1043930E+01  0.7957747E-01            NaN
         13   -1    0    0    0    0  0.00000000000E+00  0.00000000000E+00  0.74505805969E-08  0.10566000000E+00  0.10566000000E+00 0.  1.
     999900   -1    0    0    0    0 -0.00000000000E+00 -0.00000000000E+00 -0.74505805969E-08  0.93827000000E+00  0.93827000000E+00 0. -1.
     999903    2    1    2    0    0  0.13458520401E-01  0.77814205278E-01 -0.75216998231E-01  0.11066707864E+00  0.18799552078E-01 0.  0.
         14    1    1    2    0    0 -0.23142817722E-01 -0.39162599144E-01  0.22592082871E-01  0.50790760895E-01  0.00000000000E+00 0.  1.
     999901    1    1    2    0    0  0.96842973213E-02 -0.38651606134E-01  0.52624915360E-01  0.88247216046E+00  0.88000000000E+00 0.  1.
        -11    1    3    3    0    0  0.80811668725E-02  0.34658468763E-01 -0.21620286763E-01  0.41643878731E-01  0.51100000000E-03 0. -1.
         11    1    3    3    0    0  0.53773535281E-02  0.43155736515E-01 -0.53596711468E-01  0.69023199914E-01  0.51100000000E-03 0.  1.
</event>
<event>
 8    1  0.1112929E+005  0.1043930E+01  0.7957747E-01            NaN
         13   -1    0    0    0    0  0.00000000000E+00  0.00000000000E+00  0.74505805969E-08  0.10566000000E+00  0.10566000000E+00 0.  1.
     999900   -1    0    0    0    0 -0.00000000000E+00 -0.00000000000E+00 -0.74505805969E-08  0.93827000000E+00  0.93827000000E+00 0. -1.
     999902    2    1    2    0    0  0.27779864831E-02 -0.21304668354E-01  0.11311599296E-01  0.10196491767E+01  0.10193600370E+01 0.  0.
     999903    2    3    3    0    0 -0.62778377143E-01  0.89123758393E-01  0.65239208707E-01  0.12869448574E+00  0.20541357319E-01 0.  0.
         14    1    1    2    0    0 -0.27779864831E-02  0.21304668354E-01 -0.11311599296E-01  0.24280823322E-01  0.00000000000E+00 0. -1.
     999901    1    3    3    0    0  0.65556363626E-01 -0.11042842675E+00 -0.53927609412E-01  0.89095469094E+00  0.88000000000E+00 0.  1.
        -11    1    4    4    0    0 -0.27589278801E-01  0.32475568963E-01  0.14924806292E-01  0.45153536385E-01  0.51100000000E-03 0. -1.
         11    1    4    4    0    0 -0.35189098342E-01  0.56648189431E-01  0.50314402416E-01  0.83540949356E-01  0.51100000000E-03 0.  1.
</event>
<event>
 8    1  0.1112929E+005  0.1043930E+01  0.7957747E-01            NaN
         13   -1    0    0    0    0  0.00000000000E+00  0.00000000000E+00  0.74505805969E-08  0.10566000000E+00  0.10566000000E+00 0. -1.
     999900   -1    0    0    0    0 -0.00000000000E+00 -0.00000000000E+00 -0.74505805969E-08  0.93827000000E+00  0.93827000000E+00 0. -1.
     999902    2    1    2    0    0 -0.20166254915E-01 -0.16754220833E-02 -0.12537811924E-01  0.10201249248E+01  0.10198471359E+01 0.  0.
     999903    2    3    3    0    0  0.12080699333E+00 -0.19180021900E-01  0.30796920053E-01  0.12768009923E+00  0.19787738036E-01 0.  0.
         14    1    1    2    0    0  0.20166254915E-01  0.16754220833E-02  0.12537811924E-01  0.23805075179E-01  0.00000000000E+00 0. -1.
     999901    1    3    3    0    0 -0.14097324824E+00  0.17504599817E-01 -0.43334731977E-01  0.89244482559E+00  0.88000000000E+00 0. -1.
        -11    1    4    4    0    0  0.81407154499E-01 -0.58217320721E-02  0.26699900923E-01  0.85872948000E-01  0.51100000000E-03 0.  1.
         11    1    4    4    0    0  0.39399838829E-01 -0.13358289828E-01  0.40970191302E-02  0.41807151226E-01  0.51100000000E-03 0. -1.
</event>
<event>
 8    1  0.1112929E+005  0.1043930E+01  0.7957747E-01            NaN
         13   -1    0    0    0    0  0.00000000000E+00  0.00000000000E+00  0.74505805969E-08  0.10566000000E+00  0.10566000000E+00 0.  1.
     999900   -1    0    0    0    0 -0.00000000000E+00 -0.00000000000E+00 -0.74505805969E-08  0.93827000000E+00  0.93827000000E+00 0. -1.
     999902    2    1    2    0    0  0.38673755666E-02 -0.11368249990E-01  0.24464832996E-01  0.10166770780E+01  0.10163117432E+01 0.  0.
     999903    2    3    3    0    0  0.74578168478E-01 -0.95054269943E-01 -0.36343315598E-01  0.12780082282E+00  0.20371457396E-01 0.  0.
         14    1    1    2    0    0 -0.38673755666E-02  0.11368249990E-01 -0.24464832996E-01  0.27252921956E-01  0.00000000000E+00 0. -1.
     999901    1    3    3    0    0 -0.70710792912E-01  0.83686019952E-01  0.60808148593E-01  0.88887625523E+00  0.88000000000E+00 0. -1.
        -11    1    4    4    0    0  0.16457156466E-01 -0.11560451077E-01 -0.11436579052E-02  0.20150709725E-01  0.51100000000E-03 0. -1.
         11    1    4    4    0    0  0.58121012013E-01 -0.83493818866E-01 -0.35199657692E-01  0.10765011309E+00  0.51100000000E-03 0.  1.
</event>
<event>
 8    1  0.1112929E+005  0.1043930E+01  0.7957747E-01            NaN
         13   -1    0    0    0    0  0.00000000000E+00  0.00000000000E+00  0.74505805969E-08  0.10566000000E+00  0.10566000000E+00 0.  1.
     999900   -1    0    0    0    0 -0.00000000000E+00 -0.00000000000E+00 -0.74505805969E-08  0.93827000000E+00  0.93827000000E+00 0. -1.
     999902    2    1    2    0    0  0.92513773443E-02 -0.10113760611E-01  0.17985645923E-01  0.10213167385E+01  0.10210663645E+01 0.  0.
     999903    2    3    3    0    0 -0.60615078964E-01  0.19242218880E-01  0.11492066783E+00  0.13275638955E+00  0.19314458011E-01 0.  0.
         14    1    1    2    0    0 -0.92513773443E-02  0.10113760611E-01 -0.17985645923E-01  0.22613261501E-01  0.00000000000E+00 0. -1.
     999901    1    3    3    0    0  0.69866456309E-01 -0.29355979491E-01 -0.96935021902E-01  0.88856034895E+00  0.88000000000E+00 0.  1.
        -11    1    4    4    0    0 -0.23125169625E-01 -0.16831074552E-02  0.46830072299E-01  0.52258234886E-01  0.51100000000E-03 0.  1.
         11    1    4    4    0    0 -0.37489909339E-01  0.20925326335E-01  0.68090595526E-01  0.80498154666E-01  0.51100000000E-03 0. -1.
</event>
<event>
 8    1  0.1112929E+005  0.1043930E+01  0.7957747E-01            NaN
         13   -1    0    0    0    0  0.00000000000E+00  0.00000000000E+00  0.74505805969E-08  0.10566000000E+00  0.10566000000E+00 0.  1.
     999900   -1    0    0    0    0 -0.00000000000E+00 -0.00000000000E+00 -0.74505805969E-08  0.93827000000E+00  0.93827000000E+00 0. -1.
     999902    2    1    2    0    0  0.57839036441E-02 -0.15012809906E-02  0.23191546104E-01  0.10199809876E+01  0.10196997891E+01 0.  0.
     999903    2    3    3    0    0 -0.81799407295E-01 -0.96697516289E-01 -0.19117642376E-01  0.12951862059E+00  0.19184268001E-01 0.  0.
         14    1    1    2    0    0 -0.57839036441E-02  0.15012809906E-02 -0.23191546104E-01  0.23949012436E-01  0.00000000000E+00 0. -1.
     999901    1    3    3    0    0  0.87583310939E-01  0.95196235298E-01  0.42309188480E-01  0.89046236698E+00  0.88000000000E+00 0.  1.
        -11    1    4    4    0    0 -0.27189845496E-01 -0.43618761678E-01 -0.18830175621E-02  0.51436280431E-01  0.51100000000E-03 0. -1.
         11    1    4    4    0    0 -0.54609561800E-01 -0.53078754611E-01 -0.17234624814E-01  0.78082340157E-01  0.51100000000E-03 0.  1.
</event>
<event>
 8    1  0.1112929E+005  0.1043930E+01  0.7957747E-01            NaN
         13   -1    0    0    0    0  0.00000000000E+00  0.00000000000E+00  0.74505805969E-08  0.10566000000E+00  0.10566000000E+00 0.  1.
     999900   -1    0    0    0    0 -0.00000000000E+00 -0.00000000000E+00 -0.74505805969E-08  0.93827000000E+00  0.93827000000E+00 0.  1.
     999902    2    1    2    0    0  0.14066444798E-02 -0.22595195545E-01 -0.96148026314E-02  0.10193339446E+01  0.10190371557E+01 0.  0.
     999903    2    3    3    0    0  0.24448175204E-01  0.60131897256E-01 -0.11020538180E+00  0.12945016084E+00  0.19963958181E-01 0.  0.
         14    1    1    2    0    0 -0.14066444798E-02  0.22595195545E-01  0.96148026314E-02  0.24596055376E-01  0.00000000000E+00 0.  1.
     999901    1    3    3    0    0 -0.23041530725E-01 -0.82727092801E-01  0.10059057917E+00  0.88988378378E+00  0.88000000000E+00 0. -1.
        -11    1    4    4    0    0  0.24361993982E-01  0.36142842833E-01 -0.77009301926E-01  0.88490143761E-01  0.51100000000E-03 0.  1.
         11    1    4    4    0    0  0.86181222288E-04  0.23989054423E-01 -0.33196079873E-01  0.40960017081E-01  0.51100000000E-03 0. -1.
</event>
<event>
 7    1  0.1112929E+005  0.1043930E+01  0.7957747E-01            NaN
         13   -1    0    0    0    0  0.00000000000E+00  0.00000000000E+00  0.74505805969E-08  0.10566000000E+00  0.10566000000E+00 0. -1.
     999900   -1    0    0    0    0 -0.00000000000E+00 -0.00000000000E+00 -0.74505805969E-08  0.93827000000E+00  0.93827000000E+00 0. -1.
     999902    2    1    2    0    0 -0.18123540445E-02 -0.65437643931E-02  0.20637671902E-01  0.10222040022E+01  0.10219730931E+01 0.  0.
         14    1    1    2    0    0  0.18123540445E-02  0.65437643931E-02 -0.20637671902E-01  0.21725997817E-01  0.00000000000E+00 0.  1.
     999901    1    3    3    0    0 -0.11544434436E+00 -0.37962700399E-01  0.26878700781E-02  0.88835566521E+00  0.88000000000E+00 0.  1.
        -11    1    3    3    0    0  0.34555258734E-01  0.98739174467E-02  0.34961027834E-01  0.50140749298E-01  0.51100000000E-03 0. -1.
         11    1    3    3    0    0  0.79076731585E-01  0.21545018559E-01 -0.17011226011E-01  0.83707587674E-01  0.51100000000E-03 0.  1.
</event>
<event>
 7    1  0.1112929E+005  0.1043930E+01  0.7957747E-01            NaN
         13   -1    0    0    0    0  0.00000000000E+00  0.00000000000E+00  0.74505805969E-08  0.10566000000E+00  0.10566000000E+00 0. -1.
     999900   -1    0    0    0    0 -0.00000000000E+00 -0.00000000000E+00 -0.74505805969E-08  0.93827000000E+00  0.93827000000E+00 0. -1.
     999902    2    1    2    0    0  0.80016943831E-02  0.12057226997E-01 -0.21474059721E-01  0.10180352307E+01  0.10177058474E+01 0.  0.
         14    1    1    2    0    0 -0.80016943831E-02 -0.12057226997E-01  0.21474059721E-01  0.25894769294E-01  0.00000000000E+00 0. -1.
     999901    1    3    3    0    0  0.54920966134E-01  0.12102362084E+00 -0.29295628604E-01  0.89046126428E+00  0.88000000000E+00 0. -1.
        -11    1    3    3    0    0  0.19299093802E-02  0.14283581907E-02  0.63893678460E-02  0.68446986646E-02  0.51100000000E-03 0. -1.
         11    1    3    3    0    0 -0.48849181132E-01 -0.11039475204E+00  0.14322010363E-02  0.12072926776E+00  0.51100000000E-03 0.  1.
</event>
<event>
 7    1  0.1112929E+005  0.1043930E+01  0.7957747E-01            NaN
         13   -1    0    0    0    0  0.00000000000E+00  0.00000000000E+00  0.74505805969E-08  0.10566000000E+00  0.10566000000E+00 0.  1.
     999900   -1    0    0    0    0 -0.00000000000E+00 -0.00000000000E+00 -0.74505805969E-08  0.93827000000E+00  0.93827000000E+00 0. -1.
     999903    2    1    2    0    0 -0.73528273416E-01 -0.75243278595E-01  0.10238915003E-01  0.10757233053E+00  0.19975308519E-01 0.  0.
         14    1    1    2    0    0  0.35071860391E-01  0.10762350938E-01 -0.37873983995E-01  0.52728571502E-01  0.00000000000E+00 0.  1.
     999901    1    1    2    0    0  0.38456413025E-01  0.64480927656E-01  0.27635068992E-01  0.88362909797E+00  0.88000000000E+00 0. -1.
        -11    1    3    3    0    0 -0.30471750735E-01 -0.37914981394E-01  0.13526194821E-01  0.50490518657E-01  0.51100000000E-03 0.  1.
         11    1    3    3    0    0 -0.43056522681E-01 -0.37328297200E-01 -0.32872798181E-02  0.57081811874E-01  0.51100000000E-03 0. -1.
</event>
<event>
 8    1  0.1112929E+005  0.1043930E+01  0.7957747E-01            NaN
         13   -1    0    0    0    0  0.00000000000E+00  0.00000000000E+00  0.74505805969E-08  0.10566000000E+00  0.10566000000E+00 0. -1.
     999900   -1    0    0    0    0 -0.00000000000E+00 -0.00000000000E+00 -0.74505805969E-08  0.93827000000E+00  0.93827000000E+00 0.  1.
     999902    2    1    2    0    0 -0.17922554730E-02  0.20512848558E-01  0.32361043378E-03  0.10233364607E+01  0.10231292284E+01 0.  0.
     999903    2    3    3    0    0  0.91905725431E-01  0.84190297109E-01  0.47575592015E-01  0.13481697370E+00  0.19429640964E-01 0.  0.
         14    1    1    2    0    0  0.17922554730E-02 -0.20512848558E-01 -0.32361043378E-03  0.20593539263E-01  0.00000000000E+00 0. -1.
     999901    1    3    3    0    0 -0.93697980904E-01 -0.63677448551E-01 -0.47251981581E-01  0.88851948704E+00  0.88000000000E+00 0.  1.
        -11    1    4    4    0    0  0.45602272972E-01  0.38941346507E-01  0.33015205254E-01  0.68456268281E-01  0.51100000000E-03 0.  1.
         11    1    4    4    0    0  0.46303452459E-01  0.45248950602E-01  0.14560386761E-01  0.66360705420E-01  0.51100000000E-03 0. -1.
</event>
<event>
 8    1  0.1112929E+005  0.1043930E+01  0.7957747E-01            NaN
         13   -1    0    0    0    0  0.00000000000E+00  0.00000000000E+00  0.74505805969E-08  0.10566000000E+00  0.10566000000E+00 0. -1.
     999900   -1    0    0    0    0 -0.00000000000E+00 -0.00000000000E+00 -0.74505805969E-08  0.93827000000E+00  0.93827000000E+00 0.  1.
     999902    2    1    2    0    0 -0.10799219741E-02  0.19975708231E-01 -0.55635670197E-02  0.10231658860E+01  0.10229551710E+01 0.  0.
     999903    2    3    3    0    0  0.53624035439E-01  0.43810018474E-01  0.11235875490E+00  0.13329720398E+00  0.18676185080E-01 0.  0.
         14    1    1    2    0    0  0.10799219741E-02 -0.19975708231E-01  0.55635670197E-02  0.20764113966E-01  0.00000000000E+00 0.  1.
     999901    1    3    3    0    0 -0.54703957413E-01 -0.23834310243E-01 -0.11792232192E+00  0.88986868206E+00  0.88000000000E+00 0.  1.
        -11    1    4    4    0    0  0.58095479360E-02  0.13308124813E-01  0.29524462919E-01  0.32906109842E-01  0.51100000000E-03 0. -1.
         11    1    4    4    0    0  0.47814487503E-01  0.30501893661E-01  0.82834291983E-01  0.10039109413E+00  0.51100000000E-03 0.  1.
</event>
<event>
 8    1  0.1112929E+005  0.1043930E+01  0.7957747E-01            NaN
         13   -1    0    0    0    0  0.00000000000E+00  0.00000000000E+00  0.74505805969E-08  0.10566000000E+00  0.10566000000E+00 0.  1.
     999900   -1    0    0    0    0 -0.00000000000E+00 -0.00000000000E+00 -0.74505805969E-08  0.93827000000E+00  0.93827000000E+00 0.  1.
     999902    2    1    2    0    0  0.67882505211E-02 -0.13808601751E-01  0.15713902568E-01  0.10219371702E+01  0.10217004920E+01 0.  0.
     999903    2    3    3    0    0  0.62701453377E-01  0.51110880098E-01 -0.10033405648E+00  0.13019283793E+00  0.18424381643E-01 0.  0.
         14    1    1    2    0    0 -0.67882505211E-02  0.13808601751E-01 -0.15713902568E-01  0.21992829772E-01  0.00000000000E+00 0. -1.
     999901    1    3    3    0    0 -0.55913202856E-01 -0.64919481849E-01  0.11604795905E+00  0.89174433229E+00  0.88000000000E+00 0. -1.
        -11    1    4    4    0    0  0.28757577634E-01  0.35196816423E-01 -0.56349400030E-01  0.72397031448E-01  0.51100000000E-03 0.  1.
         11    1    4    4    0    0  0.33943875743E-01  0.15914063675E-01 -0.43984656454E-01  0.57795806487E-01  0.51100000000E-03 0. -1.
</event>
<event>
 8    1  0.1112929E+005  0.1043930E+01  0.7957747E-01            NaN
         13   -1    0    0    0    0  0.00000000000E+00  0.00000000000E+00  0.74505805969E-08  0.10566000000E+00  0.10566000000E+00 0.  1.
     999900   -1    0    0    0    0 -0.00000000000E+00 -0.00000000000E+00 -0.74505805969E-08  0.93827000000E+00  0.93827000000E+00 0. -1.
     999902    2    1    2    0    0  0.12443809606E-01  0.13515680064E-01 -0.15428639902E-01  0.10199390656E+01  0.10196568700E+01 0.  0.
     999903    2    3    3    0    0  0.12557192717E+00  0.25420237669E-01  0.23481796246E-01  0.13176469559E+00  0.19900825904E-01 0.  0.
         14    1    1    2    0    0 -0.12443809606E-01 -0.13515680064E-01  0.15428639902E-01  0.23990934419E-01  0.00000000000E+00 0.  1.
     999901    1    3    3    0    0 -0.11312811756E+00 -0.11904557605E-01 -0.38910436148E-01  0.88817437000E+00  0.88000000000E+00 0.  1.
        -11    1    4    4    0    0  0.32103925697E-01  0.11682423404E-01  0.13604666558E-01  0.36776203379E-01  0.51100000000E-03 0. -1.
         11    1    4    4    0    0  0.93468001472E-01  0.13737814265E-01  0.98771296882E-02  0.94988492207E-01  0.51100000000E-03 0.  1.
</event>
<event>
 8    1  0.1112929E+005  0.1043930E+01  0.7957747E-01            NaN
         13   -1    0    0    0    0  0.00000000000E+00  0.00000000000E+00  0.74505805969E-08  0.10566000000E+00  0.10566000000E+00 0.  1.
     999900   -1    0    0    0    0 -0.00000000000E+00 -0.00000000000E+00 -0.74505805969E-08  0.93827000000E+00  0.93827000000E+00 0. -1.
     999902    2    1    2    0    0  0.10556337717E-01 -0.21086177054E-01  0.85220095118E-02  0.10188563530E+01  0.10185477800E+01 0.  0.
     999903    2    3    3    0    0 -0.37571554945E-01  0.57552137008E-01 -0.10480656348E+00  0.12681171063E+00  0.19311239996E-01 0.  0.
         14    1    1    2    0    0 -0.10556337717E-01  0.21086177054E-01 -0.85220095118E-02  0.25073647019E-01  0.00000000000E+00 0. -1.
     999901    1    3    3    0    0  0.48127892662E-01 -0.78638314061E-01  0.11332857299E+00  0.89204464235E+00  0.88000000000E+00 0.  1.
        -11    1    4    4    0    0 -0.12098233578E-01  0.29414286223E-01 -0.34596635504E-01  0.46997402044E-01  0.51100000000E-03 0.  1.
         11    1    4    4    0    0 -0.25473321366E-01  0.28137850785E-01 -0.70209927972E-01  0.79814308586E-01  0.51100000000E-03 0. -1.
</event>
<event>
 8    1  0.1112929E+005  0.1043930E+01  0.7957747E-01            NaN
         13   -1    0    0    0    0  0.00000000000E+00  0.00000000000E+00  0.74505805969E-08  0.10566000000E+00  0.10566000000E+00 0.  1.
     999900   -1    0    0    0    0 -0.00000000000E+00 -0.00000000000E+00 -0.74505805969E-08  0.93827000000E+00  0.93827000000E+00 0.  1.
     999902    2    1    2    0    0 -0.61949535424E-03 -0.74493101238E-02 -0.22120659821E-01  0.10205804907E+01  0.10203133530E+01 0.  0.
     999903    2    3    3    0    0 -0.12794509722E+00 -0.16498656554E-01  0.86395402123E-02  0.13083901726E+00  0.20051264629E-01 0.  0.
         14    1    1    2    0    0  0.61949535424E-03  0.74493101238E-02  0.22120659821E-01  0.23349509347E-01  0.00000000000E+00 0.  1.
     999901    1    3    3    0    0  0.12732560186E+00  0.90493464305E-02 -0.30760200034E-01  0.88974147339E+00  0.88000000000E+00 0.  1.
        -11    1    4    4    0    0 -0.67417883220E-01 -0.82810990407E-02 -0.54688031118E-02  0.68146287556E-01  0.51100000000E-03 0. -1.
         11    1    4    4    0    0 -0.60527213999E-01 -0.82175575136E-02  0.14108343324E-01  0.62692729709E-01  0.51100000000E-03 0.  1.
</event>
<event>
 8    1  0.1112929E+005  0.1043930E+01  0.7957747E-01            NaN
         13   -1    0    0    0    0  0.00000000000E+00  0.00000000000E+00  0.74505805969E-08  0.10566000000E+00  0.10566000000E+00 0. -1.
     999900   -1    0    0    0    0 -0.00000000000E+00 -0.00000000000E+00 -0.74505805969E-08  0.93827000000E+00  0.93827000000E+00 0.  1.
     999902    2    1    2    0    0  0.22266421438E-01 -0.21571600337E-02 -0.75627311741E-02  0.10203155602E+01  0.10200422544E+01 0.  0.
     999903    2    3    3    0    0 -0.10587534311E+00 -0.63848123429E-01 -0.29319313250E-01  0.12863207622E+00  0.20010441247E-01 0.  0.
         14    1    1    2    0    0 -0.22266421438E-01  0.21571600337E-02  0.75627311741E-02  0.23614439775E-01  0.00000000000E+00 0.  1.
     999901    1    3    3    0    0  0.12814176455E+00  0.61690963396E-01  0.21756582076E-01  0.89168348401E+00  0.88000000000E+00 0. -1.
        -11    1    4    4    0    0 -0.43893998821E-01 -0.23874611573E-01 -0.20966998430E-02  0.50013373026E-01  0.51100000000E-03 0. -1.
         11    1    4    4    0    0 -0.61981344289E-01 -0.39973511856E-01 -0.27222613407E-01  0.78618703193E-01  0.51100000000E-03 0.  1.
</event>
<event>
 8    1  0.1112929E+005  0.1043930E+01  0.7957747E-01            NaN
         13   -1    0    0    0    0  0.00000000000E+00  0.00000000000E+00  0.74505805969E-08  0.10566000000E+00  0.10566000000E+00 0.  1.
     999900   -1    0    0    0    0 -0.00000000000E+00 -0.00000000000E+00 -0.74505805969E-08  0.93827000000E+00  0.93827000000E+00 0.  1.
     999902    2    1    2    0    0 -0.39162301231E-02  0.17138433282E-01  0.16848064708E-01  0.10195800506E+01  0.10192892423E+01 0.  0.
     999903    2    3    3    0    0 -0.99125041138E-02 -0.11914378543E+00 -0.39178246039E-01  0.12730893372E+00  0.19471268518E-01 0.  0.
         14    1    1    2    0    0  0.39162301231E-02 -0.17138433282E-01 -0.16848064708E-01  0.24349949448E-01  0.00000000000E+00 0. -1.
     999901    1    3    3    0    0  0.59962739907E-02  0.13628221871E+00  0.56026310747E-01  0.89227111683E+00  0.88000000000E+00 0. -1.
        -11    1    4    4    0    0  0.18724071124E-02 -0.45857822660E-01 -0.70994663187E-02  0.46444691306E-01  0.51100000000E-03 0.  1.
         11    1    4    4    0    0 -0.11784911226E-01 -0.73285962769E-01 -0.32078779721E-01  0.80864242413E-01  0.51100000000E-03 0. -1.
</event>
<event>
 8    1  0.1112929E+005  0.1043930E+01  0.7957747E-01            NaN
         13   -1    0    0    0    0  0.00000000000E+00  0.00000000000E+00  0.74505805969E-08  0.10566000000E+00  0.10566000000E+00 0. -1.
     999900   -1    0    0    0    0 -0.00000000000E+00 -0.00000000000E+00 -0.74505805969E-08  0.93827000000E+00  0.93827000000E+00 0.  1.
     999902    2    1    2    0    0 -0.14270281789E-01 -0.16186402487E-01  0.79116522947E-02  0.10209466406E+01  0.10206879093E+01 0.  0.
     999903    2    3    3    0    0  0.37328954011E-01 -0.12125563769E+00  0.34218952452E-01  0.13280583004E+00  0.19237237478E-01 0.  0.
         14    1    1    2    0    0  0.14270281789E-01  0.16186402487E-01 -0.79116522947E-02  0.22983359412E-01  0.00000000000E+00 0.  1.
     999901    1    3    3    0    0 -0.51599235800E-01  0.10506923520E+00 -0.26307300158E-01  0.88814081055E+00  0.88000000000E+00 0.  1.
        -11    1    4    4    0    0  0.36998296122E-01 -0.95169310663E-01  0.29537294684E-01  0.10629574077E+00  0.51100000000E-03 0.  1.
         11    1    4    4    0    0  0.33065788936E-03 -0.26086327028E-01  0.46816577683E-02  0.26510089267E-01  0.51100000000E-03 0. -1.
</event>
<event>
 7    1  0.1112929E+005  0.1043930E+01  0.7957747E-01            NaN
         13   -1    0    0    0    0  0.00000000000E+00  0.00000000000E+00  0.74505805969E-08  0.10566000000E+00  0.10566000000E+00 0. -1.
     999900   -1    0    0    0    0 -0.00000000000E+00 -0.00000000000E+00 -0.74505805969E-08  0.93827000000E+00  0.93827000000E+00 0. -1.
     999902    2    1    2    0    0  0.15435254594E-01 -0.12899267981E-01  0.11758369064E-01  0.10206298403E+01  0.10203638437E+01 0.  0.
         14    1    1    2    0    0 -0.15435254594E-01  0.12899267981E-01 -0.11758369064E-01  0.23300159696E-01  0.00000000000E+00 0.  1.
     999901    1    3    3    0    0 -0.17391622173E-01  0.27146763223E-01  0.12430695142E+00  0.88932088329E+00  0.88000000000E+00 0.  1.
        -11    1    3    3    0    0 -0.72213697656E-02 -0.70207028521E-02 -0.37477691555E-02  0.10758501033E-01  0.51100000000E-03 0. -1.
         11    1    3    3    0    0  0.40048246533E-01 -0.33025328352E-01 -0.10880081321E+00  0.12055045599E+00  0.51100000000E-03 0.  1.
</event>
<event>
 8    1  0.1112929E+005  0.1043930E+01  0.7957747E-01            NaN
         13   -1    0    0    0    0  0.00000000000E+00  0.00000000000E+00  0.74505805969E-08  0.10566000000E+00  0.10566000000E+00 0.  1.
     999900   -1    0    0    0    0 -0.00000000000E+00 -0.00000000000E+00 -0.74505805969E-08  0.93827000000E+00  0.93827000000E+00 0.  1.
     999902    2    1    2    0    0 -0.13758759183E-01 -0.11719826896E-01  0.14492582754E-01  0.10207633699E+01  0.10205004481E+01 0.  0.
     999903    2    3    3    0    0  0.48523959742E-01  0.11761443729E+00  0.99499209421E-02  0.12912043419E+00  0.19630462855E-01 0.  0.
         14    1    1    2    0    0  0.13758759183E-01  0.11719826896E-01 -0.14492582754E-01  0.23166630131E-01  0.00000000000E+00 0. -1.
     999901    1    3    3    0    0 -0.62282718925E-01 -0.12933426418E+00  0.45426618123E-02  0.89164293568E+00  0.88000000000E+00 0. -1.
        -11    1    4    4    0    0  0.25907067659E-01  0.71095622665E-01 -0.32312528023E-02  0.75739460207E-01  0.51100000000E-03 0. -1.
         11    1    4    4    0    0  0.22616892083E-01  0.46518814621E-01  0.13181173744E-01  0.53380973984E-01  0.51100000000E-03 0.  1.
</event>
<event>
 8    1  0.1112929E+005  0.1043930E+01  0.7957747E-01            NaN
         13   -1    0    0    0    0  0.00000000000E+00  0.00000000000E+00  0.74505805969E-08  0.10566000000E+00  0.10566000000E+00 0.  1.
     999900   -1    0    0    0    0 -0.00000000000E+00 -0.00000000000E+00 -0.74505805969E-08  0.93827000000E+00  0.93827000000E+00 0.  1.
     999902    2    1    2    0    0 -0.16639570004E-01  0.72166865783E-02 -0.16322813227E-01  0.10195293835E+01  0.10192373490E+01 0.  0.
     999903    2    3    3    0    0 -0.90635708819E-01  0.88165637767E-01  0.29760869518E-01  0.13152495383E+00  0.20617777020E-01 0.  0.
         14    1    1    2    0    0  0.16639570004E-01 -0.72166865783E-02  0.16322813227E-01  0.24400616524E-01  0.00000000000E+00 0.  1.
     999901    1    3    3    0    0  0.73996138815E-01 -0.80948951189E-01 -0.46083682745E-01  0.88800442965E+00  0.88000000000E+00 0.  1.
        -11    1    4    4    0    0 -0.46232782198E-01  0.33401171122E-01  0.71620139186E-02  0.57486206576E-01  0.51100000000E-03 0. -1.
         11    1    4    4    0    0 -0.44402926620E-01  0.54764466646E-01  0.22598855599E-01  0.74038747253E-01  0.51100000000E-03 0.  1.
</event>
<event>
 8    1  0.1112929E+005  0.1043930E+01  0.7957747E-01            NaN
         13   -1    0    0    0    0  0.00000000000E+00  0.00000000000E+00  0.74505805969E-08  0.10566000000E+00  0.10566000000E+00 0. -1.
     999900   -1    0    0    0    0 -0.00000000000E+00 -0.00000000000E+00 -0.74505805969E-08  0.93827000000E+00  0.93827000000E+00 0.  1.
     999902    2    1    2    0    0  0.18161802590E-01  0.15271447555E-01 -0.14022539740E-02  0.10201595457E+01  0.10198825737E+01 0.  0.
     999903    2    3    3    0    0 -0.89966467718E-01  0.74419681129E-01 -0.53410134434E-01  0.13004997037E+00  0.20690531180E-01 0.  0.
         14    1    1    2    0    0 -0.18161802590E-01 -0.15271447555E-01  0.14022539740E-02  0.23770454348E-01  0.00000000000E+00 0. -1.
     999901    1    3    3    0    0  0.10812827031E+00 -0.59148233574E-01  0.52007880460E-01  0.89010957528E+00  0.88000000000E+00 0. -1.
        -11    1    4    4    0    0 -0.41551225025E-02 -0.45832417482E-04 -0.50731059634E-02  0.65775883679E-02  0.51100000000E-03 0. -1.
         11    1    4    4    0    0 -0.85811345215E-01  0.74465513546E-01 -0.48337028471E-01  0.12347238200E+00  0.51100000000E-03 0.  1.
</event>
<event>
 8    1  0.1112929E+005  0.1043930E+01  0.7957747E-01            NaN
         13   -1    0    0    0    0  0.00000000000E+00  0.00000000000E+00  0.74505805969E-08  0.10566000000E+00  0.10566000000E+00 0.  1.
     999900   -1    0    0    0    0 -0.00000000000E+00 -0.00000000000E+00 -0.74505805969E-08  0.93827000000E+00  0.93827000000E+00 0.  1.
     999902    2    1    2    0    0  0.19921970367E-01 -0.11199572105E-01 -0.10831121438E-02  0.10210501300E+01  0.10207937498E+01 0.  0.
     999903    2    3    3    0    0  0.12136334109E+00  0.19753514169E-01  0.47667629604E-01  0.13334236275E+00  0.19716006428E-01 0.  0.
         14    1    1    2    0    0 -0.19921970367E-01  0.11199572105E-01  0.10831121438E-02  0.22879869986E-01  0.00000000000E+00 0. -1.
     999901    1    3    3    0    0 -0.10144137072E+00 -0.30953086275E-01 -0.48750741748E-01  0.88770776727E+00  0.88000000000E+00 0.  1.
        -11    1    4    4    0    0  0.85257751411E-01  0.13889768537E-01  0.23586204028E-01  0.89545407404E-01  0.51100000000E-03 0. -1.
         11    1    4    4    0    0  0.36105589676E-01  0.58637456326E-02  0.24081425576E-01  0.43796955344E-01  0.51100000000E-03 0.  1.
</event>
<event>
 8    1  0.1112929E+005  0.1043930E+01  0.7957747E-01            NaN
         13   -1    0    0    0    0  0.00000000000E+00  0.00000000000E+00  0.74505805969E-08  0.10566000000E+00  0.10566000000E+00 0.  1.
     999900   -1    0    0    0    0 -0.00000000000E+00 -0.00000000000E+00 -0.74505805969E-08  0.93827000000E+00  0.93827000000E+00 0. -1.
     999902    2    1    2    0    0 -0.12248936728E-01 -0.20087141296E-01 -0.40208846729E-02  0.10200616693E+01  0.10197823846E+01 0.  0.
     999903    2    3    3    0    0 -0.88764737749E-01 -0.81086047444E-01  0.53202953813E-01  0.13279051456E+00  0.18671922910E-01 0.  0.
         14    1    1    2    0    0  0.12248936728E-01  0.20087141296E-01  0.40208846729E-02  0.23868330691E-01  0.00000000000E+00 0. -1.
     999901    1    3    3    0    0  0.76515801021E-01  0.60998906147E-01 -0.57223838486E-01  0.88727115475E+00  0.88000000000E+00 0. -1.
        -11    1    4    4    0    0 -0.16695244954E-01 -0.22458079578E-01  0.18814368519E-01  0.33724444046E-01  0.51100000000E-03 0. -1.
         11    1    4    4    0    0 -0.72069492795E-01 -0.58627967865E-01  0.34388585294E-01  0.99066070515E-01  0.51100000000E-03 0.  1.
</event>
<event>
 8    1  0.1112929E+005  0.1043930E+01  0.7957747E-01            NaN
         13   -1    0    0    0    0  0.00000000000E+00  0.00000000000E+00  0.74505805969E-08  0.10566000000E+00  0.10566000000E+00 0.  1.
     999900   -1    0    0    0    0 -0.00000000000E+00 -0.00000000000E+00 -0.74505805969E-08  0.93827000000E+00  0.93827000000E+00 0.  1.
     999902    2    1    2    0    0  0.17756321483E-01  0.10234110369E-01 -0.12053290468E-01  0.10201538401E+01  0.10198767336E+01 0.  0.
     999903    2    3    3    0    0 -0.91778432782E-01 -0.74036453636E-01 -0.47487927096E-01  0.12866351273E+00  0.19862504821E-01 0.  0.
         14    1    1    2    0    0 -0.17756321483E-01 -0.10234110369E-01  0.12053290468E-01  0.23776159883E-01  0.00000000000E+00 0.  1.
     999901    1    3    3    0    0  0.10953475426E+00  0.84270564005E-01  0.35434636627E-01  0.89149032739E+00  0.88000000000E+00 0. -1.
        -11    1    4    4    0    0 -0.35124361246E-01 -0.29976513298E-01 -0.83990943540E-02  0.46937383922E-01  0.51100000000E-03 0.  1.
         11    1    4    4    0    0 -0.56654071536E-01 -0.44059940338E-01 -0.39088832742E-01  0.81726128810E-01  0.51100000000E-03 0. -1.
</event>
<event>
 8    1  0.1112929E+005  0.1043930E+01  0.7957747E-01            NaN
         13   -1    0    0    0    0  0.00000000000E+00  0.00000000000E+00  0.74505805969E-08  0.10566000000E+00  0.10566000000E+00 0.  1.
     999900   -1    0    0    0    0 -0.00000000000E+00 -0.00000000000E+00 -0.74505805969E-08  0.93827000000E+00  0.93827000000E+00 0. -1.
     999902    2    1    2    0    0  0.20151408625E-01  0.66770560722E-02  0.99871997949E-02  0.10204692560E+01  0.10201995374E+01 0.  0.
     999903    2    3    3    0    0 -0.26816402482E-01  0.72638248190E-01 -0.10221400188E+00  0.12965728722E+00  0.19180078380E-01 0.  0.
         14    1    1    2    0    0 -0.20151408625E-01 -0.66770560722E-02 -0.99871997949E-02  0.23460743959E-01  0.00000000000E+00 0. -1.
     999901    1    3    3    0    0  0.46967811107E-01 -0.65961192118E-01  0.11220120167E+00  0.89081196883E+00  0.88000000000E+00 0. -1.
        -11    1    4    4    0    0 -0.14264027037E-01  0.50644339388E-01 -0.81143263777E-01  0.96709885517E-01  0.51100000000E-03 0. -1.
         11    1    4    4    0    0 -0.12552375445E-01  0.21993908802E-01 -0.21070738098E-01  0.32947401699E-01  0.51100000000E-03 0.  1.
</event>
<event>
 7    1  0.1112929E+005  0.1043930E+01  0.7957747E-01            NaN
         13   -1    0    0    0    0  0.00000000000E+00  0.00000000000E+00  0.74505805969E-08  0.10566000000E+00  0.10566000000E+00 0.  1.
     999900   -1    0    0    0    0 -0.00000000000E+00 -0.00000000000E+00 -0.74505805969E-08  0.93827000000E+00  0.93827000000E+00 0. -1.
     999902    2    1    2    0    0  0.23211716118E-01  0.89427499274E-02 -0.42116026354E-02  0.10187011646E+01  0.10183887119E+01 0.  0.
         14    1    1    2    0    0 -0.23211716118E-01 -0.89427499274E-02  0.42116026354E-02  0.25228835450E-01  0.00000000000E+00 0. -1.
     999901    1    3    3    0    0  0.84364668630E-01  0.19961786962E-01  0.99192345890E-01  0.88980615402E+00  0.88000000000E+00 0. -1.
        -11    1    3    3    0    0 -0.42538532353E-01 -0.19728187345E-01 -0.38064140117E-01  0.60397582688E-01  0.51100000000E-03 0. -1.
         11    1    3    3    0    0 -0.18614420160E-01  0.87091503106E-02 -0.65339808408E-01  0.68497427841E-01  0.51100000000E-03 0.  1.
</event>
<event>
 8    1  0.1112929E+005  0.1043930E+01  0.7957747E-01            NaN
         13   -1    0    0    0    0  0.00000000000E+00  0.00000000000E+00  0.74505805969E-08  0.10566000000E+00  0.10566000000E+00 0. -1.
     999900   -1    0    0    0    0 -0.00000000000E+00 -0.00000000000E+00 -0.74505805969E-08  0.93827000000E+00  0.93827000000E+00 0.  1.
     999902    2    1    2    0    0 -0.20878726199E-01 -0.20472489207E-02  0.10509065559E-01  0.10204661364E+01  0.10201963451E+01 0.  0.
     999903    2    3    3    0    0  0.87084382268E-01 -0.32596778560E-01 -0.85879385700E-01  0.12812088927E+00  0.19835669169E-01 0.  0.
         14    1    1    2    0    0  0.20878726199E-01  0.20472489207E-02 -0.10509065559E-01  0.23463863594E-01  0.00000000000E+00 0.  1.
     999901    1    3    3    0    0 -0.10796310847E+00  0.30549529640E-01  0.96388451259E-01  0.89234524714E+00  0.88000000000E+00 0. -1.
        -11    1    4    4    0    0  0.49670963275E-01 -0.82105597192E-02 -0.47914939529E-01  0.69503384339E-01  0.51100000000E-03 0. -1.
         11    1    4    4    0    0  0.37413418994E-01 -0.24386218841E-01 -0.37964446170E-01  0.58617504930E-01  0.51100000000E-03 0.  1.
</event>
<event>
 8    1  0.1112929E+005  0.1043930E+01  0.7957747E-01            NaN
         13   -1    0    0    0    0  0.00000000000E+00  0.00000000000E+00  0.74505805969E-08  0.10566000000E+00  0.10566000000E+00 0. -1.
     999900   -1    0    0    0    0 -0.00000000000E+00 -0.00000000000E+00 -0.74505805969E-08  0.93827000000E+00  0.93827000000E+00 0.  1.
     999902    2    1    2    0    0 -0.16877702431E-01  0.66825977897E-02  0.16010373271E-01  0.10197257441E+01  0.10194384470E+01 0.  0.
     999903    2    3    3    0    0  0.12394039301E+00  0.25530820202E-01 -0.15117790187E-02  0.12815857481E+00  0.20230942198E-01 0.  0.
         14    1    1    2    0    0  0.16877702431E-01 -0.66825977897E-02 -0.16010373271E-01  0.24204255925E-01  0.00000000000E+00 0.  1.
     999901    1    3    3    0    0 -0.14081809544E+00 -0.18848222412E-01  0.17522152290E-01  0.89156716927E+00  0.88000000000E+00 0.  1.
        -11    1    4    4    0    0  0.63527978637E-01  0.23132809178E-01  0.14183635788E-02  0.67625467144E-01  0.51100000000E-03 0.  1.
         11    1    4    4    0    0  0.60412414371E-01  0.23980110237E-02 -0.29301425976E-02  0.60533107665E-01  0.51100000000E-03 0. -1.
</event>
<event>
 8    1  0.1112929E+005  0.1043930E+01  0.7957747E-01            NaN
         13   -1    0    0    0    0  0.00000000000E+00  0.00000000000E+00  0.74505805969E-08  0.10566000000E+00  0.10566000000E+00 0.  1.
     999900   -1    0    0    0    0 -0.00000000000E+00 -0.00000000000E+00 -0.74505805969E-08  0.93827000000E+00  0.93827000000E+00 0.  1.
     999902    2    1    2    0    0  0.17402654998E-02 -0.19677413075E-01  0.11902238717E-01  0.10208672075E+01  0.10206066642E+01 0.  0.
     999903    2    3    3    0    0 -0.80980972908E-01  0.86160386146E-01  0.49760451972E-01  0.12986906650E+00  0.20207467440E-01 0.  0.
         14    1    1    2    0    0 -0.17402654998E-02  0.19677413075E-01 -0.11902238717E-01  0.23062792454E-01  0.00000000000E+00 0. -1.
     999901    1    3    3    0    0  0.82721238408E-01 -0.10583779922E+00 -0.37858213255E-01  0.89099814104E+00  0.88000000000E+00 0.  1.
        -11    1    4    4    0    0 -0.42252320518E-01  0.37149967929E-01  0.14358191272E-01  0.58067180782E-01  0.51100000000E-03 0. -1.
         11    1    4    4    0    0 -0.38728652390E-01  0.49010418217E-01  0.35402260699E-01  0.71801885723E-01  0.51100000000E-03 0.  1.
</event>
<event>
 8    1  0.1112929E+005  0.1043930E+01  0.7957747E-01            NaN
         13   -1    0    0    0    0  0.00000000000E+00  0.00000000000E+00  0.74505805969E-08  0.10566000000E+00  0.10566000000E+00 0. -1.
     999900   -1    0    0    0    0 -0.00000000000E+00 -0.00000000000E+00 -0.74505805969E-08  0.93827000000E+00  0.93827000000E+00 0.  1.
     999902    2    1    2    0    0 -0.84364980814E-02 -0.18768036994E-01 -0.86070950934E-02  0.10216253862E+01  0.10213818746E+01 0.  0.
     999903    2    3    3    0    0  0.12888074154E+00 -0.34088089113E-02  0.80988849533E-02  0.13068710550E+00  0.19790454466E-01 0.  0.
         14    1    1    2    0    0  0.84364980814E-02  0.18768036994E-01  0.86070950934E-02  0.22304613837E-01  0.00000000000E+00 0. -1.
     999901    1    3    3    0    0 -0.13731723962E+00 -0.15359228082E-01 -0.16705980047E-01  0.89093828066E+00  0.88000000000E+00 0.  1.
        -11    1    4    4    0    0  0.44873124826E-01  0.21848266918E-03 -0.64901869817E-02  0.45343452828E-01  0.51100000000E-03 0.  1.
         11    1    4    4    0    0  0.84007616714E-01 -0.36272915805E-02  0.14589071935E-01  0.85343652670E-01  0.51100000000E-03 0. -1.
</event>
<event>
 8    1  0.1112929E+005  0.1043930E+01  0.7957747E-01            NaN
         13   -1    0    0    0    0  0.00000000000E+00  0.00000000000E+00  0.74505805969E-08  0.10566000000E+00  0.10566000000E+00 0.  1.
     999900   -1    0    0    0    0 -0.00000000000E+00 -0.00000000000E+00 -0.74505805969E-08  0.93827000000E+00  0.93827000000E+00 0.  1.
     999902    2    1    2    0    0  0.19275894145E-01  0.72994568208E-02  0.11746738580E-01  0.10202060030E+01  0.10199301253E+01 0.  0.
     999903    2    3    3    0    0 -0.59764864066E-01 -0.72581713007E-01 -0.84330594924E-01  0.12787237889E+00  0.19993799130E-01 0.  0.
         14    1    1    2    0    0 -0.19275894145E-01 -0.72994568208E-02 -0.11746738580E-01  0.23723996970E-01  0.00000000000E+00 0. -1.
     999901    1    3    3    0    0  0.79040758211E-01  0.79881169828E-01  0.96077333504E-01  0.89233362414E+00  0.88000000000E+00 0. -1.
        -11    1    4    4    0    0 -0.55015288870E-01 -0.72842053006E-01 -0.79149194146E-01  0.12082012560E+00  0.51100000000E-03 0. -1.
         11    1    4    4    0    0 -0.47495751962E-02  0.26033999860E-03 -0.51814007771E-02  0.70522532904E-02  0.51100000000E-03 0.  1.
</event>
<event>
 8    1  0.1112929E+005  0.1043930E+01  0.7957747E-01            NaN
         13   -1    0    0    0    0  0.00000000000E+00  0.00000000000E+00  0.74505805969E-08  0.10566000000E+00  0.10566000000E+00 0. -1.
     999900   -1    0    0    0    0 -0.00000000000E+00 -0.00000000000E+00 -0.74505805969E-08  0.93827000000E+00  0.93827000000E+00 0.  1.
     999902    2    1    2    0    0  0.61272970856E-02  0.13435143956E-01  0.18010653012E-01  0.10206398629E+01  0.10203740977E+01 0.  0.
     999903    2    3    3    0    0 -0.11066963553E+00  0.28522289877E-01 -0.56696445760E-01  0.12965709315E+00  0.23134078634E-01 0.  0.
         14    1    1    2    0    0 -0.61272970856E-02 -0.13435143956E-01 -0.18010653012E-01  0.23290137067E-01  0.00000000000E+00 0.  1.
     999901    1    3    3    0    0  0.11679693262E+00 -0.15087145921E-01  0.74707098772E-01  0.89098276978E+00  0.88000000000E+00 0.  1.
        -11    1    4    4    0    0 -0.10110261990E+00  0.31503737004E-01 -0.47564780033E-01  0.11609002807E+00  0.51100000000E-03 0. -1.
         11    1    4    4    0    0 -0.95670156288E-02 -0.29814471271E-02 -0.91316657273E-02  0.13567065083E-01  0.51100000000E-03 0.  1.
</event>
<event>
 8    1  0.1112929E+005  0.1043930E+01  0.7957747E-01            NaN
         13   -1    0    0    0    0  0.00000000000E+00  0.00000000000E+00  0.74505805969E-08  0.10566000000E+00  0.10566000000E+00 0. -1.
     999900   -1    0    0    0    0 -0.00000000000E+00 -0.00000000000E+00 -0.74505805969E-08  0.93827000000E+00  0.93827000000E+00 0. -1.
     999902    2    1    2    0    0  0.21479648482E-01 -0.91652053688E-02  0.14667277195E-01  0.10163527393E+01  0.10159785359E+01 0.  0.
     999903    2    3    3    0    0  0.57694542558E-01  0.75809922351E-01 -0.80664758699E-01  0.12639741009E+00  0.19841809758E-01 0.  0.
         14    1    1    2    0    0 -0.21479648482E-01  0.91652053688E-02 -0.14667277195E-01  0.27577260718E-01  0.00000000000E+00 0.  1.
     999901    1    3    3    0    0 -0.36214894076E-01 -0.84975127720E-01  0.95332035895E-01  0.88995532919E+00  0.88000000000E+00 0.  1.
        -11    1    4    4    0    0  0.12673272878E-01  0.55234055243E-02 -0.10960393192E-01  0.17649679712E-01  0.51100000000E-03 0. -1.
         11    1    4    4    0    0  0.45021269679E-01  0.70286516827E-01 -0.69704365508E-01  0.10874773038E+00  0.51100000000E-03 0.  1.
</event>
<event>
 8    1  0.1112929E+005  0.1043930E+01  0.7957747E-01            NaN
         13   -1    0    0    0    0  0.00000000000E+00  0.00000000000E+00  0.74505805969E-08  0.10566000000E+00  0.10566000000E+00 0. -1.
     999900   -1    0    0    0    0 -0.00000000000E+00 -0.00000000000E+00 -0.74505805969E-08  0.93827000000E+00  0.93827000000E+00 0.  1.
     999902    2    1    2    0    0  0.20405919604E-03  0.23515228029E-01  0.50824528503E-02  0.10198709286E+01  0.10195871086E+01 0.  0.
     999903    2    3    3    0    0  0.83227916166E-01 -0.39663791092E-02 -0.97307690499E-01  0.12962829819E+00  0.19801284508E-01 0.  0.
         14    1    1    2    0    0 -0.20405919604E-03 -0.23515228029E-01 -0.50824528503E-02  0.24059071395E-01  0.00000000000E+00 0.  1.
     999901    1    3    3    0    0 -0.83023856970E-01  0.27481607139E-01  0.10239014335E+00  0.89024263042E+00  0.88000000000E+00 0. -1.
        -11    1    4    4    0    0  0.59284307641E-01  0.29535577120E-03 -0.55237777047E-01  0.81032027629E-01  0.51100000000E-03 0. -1.
         11    1    4    4    0    0  0.23943608525E-01 -0.42617348804E-02 -0.42069913451E-01  0.48596270559E-01  0.51100000000E-03 0.  1.
</event>
<event>
 8    1  0.1205262E+005  0.1043930E+01  0.7957747E-01            NaN
         13   -1    0    0    0    0  0.00000000000E+00  0.00000000000E+00  0.74505805969E-08  0.10566000000E+00  0.10566000000E+00 0.  1.
     999900   -1    0    0    0    0 -0.00000000000E+00 -0.00000000000E+00 -0.74505805969E-08  0.93827000000E+00  0.93827000000E+00 0. -1.
     999902    2    1    2    0    0 -0.23737476677E-01  0.15369179420E-02  0.21697587847E-02  0.10200440676E+01  0.10197643659E+01 0.  0.
     999903    2    3    3    0    0  0.33722355218E-01  0.11444217971E+00 -0.47110787723E-01  0.12960720697E+00  0.18557802726E-01 0.  0.
         14    1    1    2    0    0  0.23737476677E-01 -0.15369179420E-02 -0.21697587847E-02  0.23885932449E-01  0.00000000000E+00 0.  1.
     999901    1    3    3    0    0 -0.57459831895E-01 -0.11290526176E+00  0.49280546507E-01  0.89043686058E+00  0.88000000000E+00 0. -1.
        -11    1    4    4    0    0  0.98951037603E-02  0.66138079415E-01 -0.25709525591E-01  0.71647745632E-01  0.51100000000E-03 0.  1.
         11    1    4    4    0    0  0.23827251457E-01  0.48304100290E-01 -0.21401262132E-01  0.57959461339E-01  0.51100000000E-03 0. -1.
</event>
<event>
 8    1  0.1112929E+005  0.1043930E+01  0.7957747E-01            NaN
         13   -1    0    0    0    0  0.00000000000E+00  0.00000000000E+00  0.74505805969E-08  0.10566000000E+00  0.10566000000E+00 0. -1.
     999900   -1    0    0    0    0 -0.00000000000E+00 -0.00000000000E+00 -0.74505805969E-08  0.93827000000E+00  0.93827000000E+00 0.  1.
     999902    2    1    2    0    0 -0.26693859372E-02  0.19616748618E-01  0.12617238896E-01  0.10204536893E+01  0.10201836084E+01 0.  0.
     999903    2    3    3    0    0  0.64788593092E-01  0.10172141410E+00  0.52716443573E-01  0.13315458456E+00  0.20157184437E-01 0.  0.
         14    1    1    2    0    0  0.26693859372E-02 -0.19616748618E-01 -0.12617238896E-01  0.23476310719E-01  0.00000000000E+00 0.  1.
     999901    1    3    3    0    0 -0.67457979029E-01 -0.82104665480E-01 -0.40099204678E-01  0.88729910472E+00  0.88000000000E+00 0.  1.
        -11    1    4    4    0    0  0.15085266391E-01  0.11961363668E-01  0.44560479126E-02  0.19767573622E-01  0.51100000000E-03 0.  1.
         11    1    4    4    0    0  0.49703326700E-01  0.89760050431E-01  0.48260395661E-01  0.11338701094E+00  0.51100000000E-03 0. -1.
</event>
<event>
 8    1  0.1112929E+005  0.1043930E+01  0.7957747E-01            NaN
         13   -1    0    0    0    0  0.00000000000E+00  0.00000000000E+00  0.74505805969E-08  0.10566000000E+00  0.10566000000E+00 0. -1.
     999900   -1    0    0    0    0 -0.00000000000E+00 -0.00000000000E+00 -0.74505805969E-08  0.93827000000E+00  0.93827000000E+00 0. -1.
     999902    2    1    2    0    0 -0.22399629561E-01  0.75634630954E-02 -0.11573638644E-02  0.10202595782E+01  0.10199849597E+01 0.  0.
     999903    2    3    3    0    0 -0.17765008108E-01 -0.12336466936E+00  0.30616788501E-01  0.12999374577E+00  0.20653063726E-01 0.  0.
         14    1    1    2    0    0  0.22399629561E-01 -0.75634630954E-02  0.11573638644E-02  0.23670421830E-01  0.00000000000E+00 0.  1.
     999901    1    3    3    0    0 -0.46346214527E-02  0.13092813246E+00 -0.31774152365E-01  0.89026583240E+00  0.88000000000E+00 0. -1.
        -11    1    4    4    0    0 -0.19068805593E-01 -0.72032284923E-01  0.23611129196E-01  0.78166591079E-01  0.51100000000E-03 0. -1.
         11    1    4    4    0    0  0.13037974845E-02 -0.51332384437E-01  0.70056593044E-02  0.51827154689E-01  0.51100000000E-03 0.  1.
</event>
<event>
 8    1  0.1112929E+005  0.1043930E+01  0.7957747E-01            NaN
         13   -1    0    0    0    0  0.00000000000E+00  0.00000000000E+00  0.74505805969E-08  0.10566000000E+00  0.10566000000E+00 0.  1.
     999900   -1    0    0    0    0 -0.00000000000E+00 -0.00000000000E+00 -0.74505805969E-08  0.93827000000E+00  0.93827000000E+00 0. -1.
     999902    2    1    2    0    0 -0.54703990271E-02  0.11820050017E-01 -0.19964838714E-01  0.10200923484E+01  0.10198137897E+01 0.  0.
     999903    2    3    3    0    0  0.36517225573E-01 -0.51412818555E-01  0.10844220891E+00  0.12753998236E+00  0.23020615794E-01 0.  0.
         14    1    1    2    0    0  0.54703990271E-02 -0.11820050017E-01  0.19964838714E-01  0.23837651579E-01  0.00000000000E+00 0.  1.
     999901    1    3    3    0    0 -0.41987624600E-01  0.63232868572E-01 -0.12840704762E+00  0.89255236606E+00  0.88000000000E+00 0. -1.
        -11    1    4    4    0    0  0.89654454956E-02 -0.65054008865E-02  0.37927127010E-01  0.39514902731E-01  0.51100000000E-03 0.  1.
         11    1    4    4    0    0  0.27551780077E-01 -0.44907417669E-01  0.70515081899E-01  0.88025079627E-01  0.51100000000E-03 0. -1.
</event>
<event>
 8    1  0.1112929E+005  0.1043930E+01  0.7957747E-01            NaN
         13   -1    0    0    0    0  0.00000000000E+00  0.00000000000E+00  0.74505805969E-08  0.10566000000E+00  0.10566000000E+00 0.  1.
     999900   -1    0    0    0    0 -0.00000000000E+00 -0.00000000000E+00 -0.74505805969E-08  0.93827000000E+00  0.93827000000E+00 0. -1.
     999902    2    1    2    0    0  0.76472115977E-02 -0.12856191645E-01 -0.14700803823E-01  0.10229567994E+01  0.10227417750E+01 0.  0.
     999903    2    3    3    0    0 -0.42367955916E-01  0.11256453508E+00 -0.50462519728E-01  0.13194009028E+00  0.19897318414E-01 0.  0.
         14    1    1    2    0    0 -0.76472115977E-02  0.12856191645E-01  0.14700803823E-01  0.20973200563E-01  0.00000000000E+00 0.  1.
     999901    1    3    3    0    0  0.50015167514E-01 -0.12542072672E+00  0.35761715905E-01  0.89101670916E+00  0.88000000000E+00 0.  1.
        -11    1    4    4    0    0 -0.31181541373E-01  0.10079533938E+00 -0.41426295458E-01  0.11335073021E+00  0.51100000000E-03 0. -1.
         11    1    4    4    0    0 -0.11186414543E-01  0.11769195697E-01 -0.90362242701E-02  0.18589360068E-01  0.51100000000E-03 0.  1.
</event>
<event>
 8    1  0.1112929E+005  0.1043930E+01  0.7957747E-01            NaN
         13   -1    0    0    0    0  0.00000000000E+00  0.00000000000E+00  0.74505805969E-08  0.10566000000E+00  0.10566000000E+00 0. -1.
     999900   -1    0    0    0    0 -0.00000000000E+00 -0.00000000000E+00 -0.74505805969E-08  0.93827000000E+00  0.93827000000E+00 0. -1.
     999902    2    1    2    0    0  0.11086676282E-01 -0.16550893514E-01 -0.11606447251E-01  0.10208744999E+01  0.10206141232E+01 0.  0.
     999903    2    3    3    0    0  0.83133033196E-01 -0.70065820699E-01  0.73196744486E-01  0.13225416123E+00  0.17694047576E-01 0.  0.
         14    1    1    2    0    0 -0.11086676282E-01  0.16550893514E-01  0.11606447251E-01  0.23055500100E-01  0.00000000000E+00 0. -1.
     999901    1    3    3    0    0 -0.72046356914E-01  0.53514927185E-01 -0.84803191737E-01  0.88862033867E+00  0.88000000000E+00 0. -1.
        -11    1    4    4    0    0  0.40491912699E-01 -0.23767531795E-01  0.35721277126E-01  0.58997977272E-01  0.51100000000E-03 0.  1.
         11    1    4    4    0    0  0.42641120497E-01 -0.46298288904E-01  0.37475467361E-01  0.73256183954E-01  0.51100000000E-03 0. -1.
</event>
<event>
 8    1  0.1112929E+005  0.1043930E+01  0.7957747E-01            NaN
         13   -1    0    0    0    0  0.00000000000E+00  0.00000000000E+00  0.74505805969E-08  0.10566000000E+00  0.10566000000E+00 0. -1.
     999900   -1    0    0    0    0 -0.00000000000E+00 -0.00000000000E+00 -0.74505805969E-08  0.93827000000E+00  0.93827000000E+00 0.  1.
     999902    2    1    2    0    0  0.10126522643E-01  0.14031427290E-01 -0.12139997090E-01  0.10227921916E+01  0.10225737432E+01 0.  0.
     999903    2    3    3    0    0 -0.71458867612E-01  0.13040859830E-01  0.10719700975E+00  0.13099710401E+00  0.19814352784E-01 0.  0.
         14    1    1    2    0    0 -0.10126522643E-01 -0.14031427290E-01  0.12139997090E-01  0.21137808353E-01  0.00000000000E+00 0. -1.
     999901    1    3    3    0    0  0.81585390254E-01  0.99056745995E-03 -0.11933700684E+00  0.89179508763E+00  0.88000000000E+00 0.  1.
        -11    1    4    4    0    0 -0.15890498867E-01  0.10942703939E-01  0.33655881896E-01  0.38797296696E-01  0.51100000000E-03 0.  1.
         11    1    4    4    0    0 -0.55568368745E-01  0.20981558912E-02  0.73541127850E-01  0.92199807318E-01  0.51100000000E-03 0. -1.
</event>
<event>
 8    1  0.1112929E+005  0.1043930E+01  0.7957747E-01            NaN
         13   -1    0    0    0    0  0.00000000000E+00  0.00000000000E+00  0.74505805969E-08  0.10566000000E+00  0.10566000000E+00 0.  1.
     999900   -1    0    0    0    0 -0.00000000000E+00 -0.00000000000E+00 -0.74505805969E-08  0.93827000000E+00  0.93827000000E+00 0.  1.
     999902    2    1    2    0    0  0.18902384802E-01  0.64346289260E-02 -0.36534693347E-02  0.10236309252E+01  0.10234296354E+01 0.  0.
     999903    2    3    3    0    0  0.17260750979E-01  0.78221730420E-01  0.10547056575E+00  0.13398822277E+00  0.20303471839E-01 0.  0.
         14    1    1    2    0    0 -0.18902384802E-01 -0.64346289260E-02  0.36534693347E-02  0.20299074826E-01  0.00000000000E+00 0. -1.
     999901    1    3    3    0    0  0.16416338226E-02 -0.71787101494E-01 -0.10912403508E+00  0.88964270240E+00  0.88000000000E+00 0.  1.
        -11    1    4    4    0    0  0.11627714923E-01  0.53501155769E-01  0.55561114005E-01  0.78005614755E-01  0.51100000000E-03 0.  1.
         11    1    4    4    0    0  0.56330360565E-02  0.24720574652E-01  0.49909451742E-01  0.55982608018E-01  0.51100000000E-03 0. -1.
</event>
<event>
 8    1  0.1112929E+005  0.1043930E+01  0.7957747E-01            NaN
         13   -1    0    0    0    0  0.00000000000E+00  0.00000000000E+00  0.74505805969E-08  0.10566000000E+00  0.10566000000E+00 0. -1.
     999900   -1    0    0    0    0 -0.00000000000E+00 -0.00000000000E+00 -0.74505805969E-08  0.93827000000E+00  0.93827000000E+00 0.  1.
     999902    2    1    2    0    0  0.47740106195E-02 -0.15123980511E-02  0.10429873222E-01  0.10323601780E+01  0.10322953436E+01 0.  0.
     999903    2    3    3    0    0  0.11209311656E-01 -0.13133126057E+00 -0.46409064686E-01  0.14099885115E+00  0.18796969712E-01 0.  0.
         14    1    1    2    0    0 -0.47740106195E-02  0.15123980511E-02 -0.10429873222E-01  0.11569821982E-01  0.00000000000E+00 0.  1.
     999901    1    3    3    0    0 -0.64353010365E-02  0.12981886252E+00  0.56838937908E-01  0.89136132686E+00  0.88000000000E+00 0.  1.
        -11    1    4    4    0    0  0.43496527700E-02 -0.92970061332E-02 -0.57056842950E-04  0.10277070533E-01  0.51100000000E-03 0.  1.
         11    1    4    4    0    0  0.68596588861E-02 -0.12203425444E+00 -0.46352007843E-01  0.13072178062E+00  0.51100000000E-03 0. -1.
</event>
<event>
 8    1  0.1112929E+005  0.1043930E+01  0.7957747E-01            NaN
         13   -1    0    0    0    0  0.00000000000E+00  0.00000000000E+00  0.74505805969E-08  0.10566000000E+00  0.10566000000E+00 0.  1.
     999900   -1    0    0    0    0 -0.00000000000E+00 -0.00000000000E+00 -0.74505805969E-08  0.93827000000E+00  0.93827000000E+00 0. -1.
     999902    2    1    2    0    0 -0.16138654318E-03 -0.89780331547E-02  0.21965224823E-01  0.10202002249E+01  0.10199242112E+01 0.  0.
     999903    2    3    3    0    0  0.63649680623E-01  0.94780103997E-01  0.60958082746E-01  0.13095445106E+00  0.19965731720E-01 0.  0.
         14    1    1    2    0    0  0.16138654318E-03  0.89780331547E-02 -0.21965224823E-01  0.23729775104E-01  0.00000000000E+00 0. -1.
     999901    1    3    3    0    0 -0.63811067166E-01 -0.10375813715E+00 -0.38992857923E-01  0.88924577384E+00  0.88000000000E+00 0. -1.
        -11    1    4    4    0    0  0.29257776053E-01  0.41869332658E-01  0.38515568155E-01  0.63974749613E-01  0.51100000000E-03 0.  1.
         11    1    4    4    0    0  0.34391904570E-01  0.52910771339E-01  0.22442514591E-01  0.66979701446E-01  0.51100000000E-03 0. -1.
</event>
<event>
 8    1  0.1112929E+005  0.1043930E+01  0.7957747E-01            NaN
         13   -1    0    0    0    0  0.00000000000E+00  0.00000000000E+00  0.74505805969E-08  0.10566000000E+00  0.10566000000E+00 0. -1.
     999900   -1    0    0    0    0 -0.00000000000E+00 -0.00000000000E+00 -0.74505805969E-08  0.93827000000E+00  0.93827000000E+00 0.  1.
     999902    2    1    2    0    0  0.10474926975E-01 -0.56022366691E-02  0.19987721595E-01  0.10206788029E+01  0.10204139359E+01 0.  0.
     999903    2    3    3    0    0  0.12967315606E+00  0.94232002526E-02  0.16412001430E-01  0.13250834218E+00  0.19626075777E-01 0.  0.
         14    1    1    2    0    0 -0.10474926975E-01  0.56022366691E-02 -0.19987721595E-01  0.23251197075E-01  0.00000000000E+00 0.  1.
     999901    1    3    3    0    0 -0.11919822908E+00 -0.15025436922E-01  0.35757201653E-02  0.88817046075E+00  0.88000000000E+00 0. -1.
        -11    1    4    4    0    0  0.49042747602E-01 -0.55723239566E-02  0.35152125662E-02  0.49485954846E-01  0.51100000000E-03 0.  1.
         11    1    4    4    0    0  0.80630408457E-01  0.14995524209E-01  0.12896788864E-01  0.83022387331E-01  0.51100000000E-03 0. -1.
</event>
<event>
 8    1  0.1112929E+005  0.1043930E+01  0.7957747E-01            NaN
         13   -1    0    0    0    0  0.00000000000E+00  0.00000000000E+00  0.74505805969E-08  0.10566000000E+00  0.10566000000E+00 0. -1.
     999900   -1    0    0    0    0 -0.00000000000E+00 -0.00000000000E+00 -0.74505805969E-08  0.93827000000E+00  0.93827000000E+00 0.  1.
     999902    2    1    2    0    0 -0.53317057037E-02  0.22399308355E-01 -0.26600157760E-02  0.10207517390E+01  0.10204885501E+01 0.  0.
     999903    2    3    3    0    0 -0.89540859398E-01 -0.90745892891E-01 -0.96507969845E-02  0.12949314061E+00  0.20565821253E-01 0.  0.
         14    1    1    2    0    0  0.53317057037E-02 -0.22399308355E-01  0.26600157760E-02  0.23178261031E-01  0.00000000000E+00 0. -1.
     999901    1    3    3    0    0  0.84209153694E-01  0.11314520125E+00  0.69907812085E-02  0.89125859836E+00  0.88000000000E+00 0.  1.
        -11    1    4    4    0    0 -0.45951247012E-01 -0.48093895355E-01  0.52037176364E-02  0.66722407560E-01  0.51100000000E-03 0.  1.
         11    1    4    4    0    0 -0.43589612385E-01 -0.42651997536E-01 -0.14854514621E-01  0.62770733048E-01  0.51100000000E-03 0. -1.
</event>
<event>
 8    1  0.1112929E+005  0.1043930E+01  0.7957747E-01            NaN
         13   -1    0    0    0    0  0.00000000000E+00  0.00000000000E+00  0.74505805969E-08  0.10566000000E+00  0.10566000000E+00 0. -1.
     999900   -1    0    0    0    0 -0.00000000000E+00 -0.00000000000E+00 -0.74505805969E-08  0.93827000000E+00  0.93827000000E+00 0. -1.
     999902    2    1    2    0    0 -0.64274723365E-02  0.13039855019E-02  0.27134299270E-01  0.10160143597E+01  0.10156307873E+01 0.  0.
     999903    2    3    3    0    0 -0.54919230429E-01 -0.10777618706E-01  0.11572780679E+00  0.13015532723E+00  0.20376579856E-01 0.  0.
         14    1    1    2    0    0  0.64274723365E-02 -0.13039855019E-02 -0.27134299270E-01  0.27915640342E-01  0.00000000000E+00 0.  1.
     999901    1    3    3    0    0  0.48491758092E-01  0.12081604208E-01 -0.88593507516E-01  0.88585903243E+00  0.88000000000E+00 0. -1.
        -11    1    4    4    0    0 -0.47794894182E-01 -0.10237228981E-01  0.80279086925E-01  0.93990136108E-01  0.51100000000E-03 0. -1.
         11    1    4    4    0    0 -0.71243362470E-02 -0.54038972431E-03  0.35448719861E-01  0.36165191121E-01  0.51100000000E-03 0.  1.
</event>
<event>
 8    1  0.1112929E+005  0.1043930E+01  0.7957747E-01            NaN
         13   -1    0    0    0    0  0.00000000000E+00  0.00000000000E+00  0.74505805969E-08  0.10566000000E+00  0.10566000000E+00 0.  1.
     999900   -1    0    0    0    0 -0.00000000000E+00 -0.00000000000E+00 -0.74505805969E-08  0.93827000000E+00  0.93827000000E+00 0.  1.
     999902    2    1    2    0    0 -0.22867332820E-01 -0.66756602667E-02  0.17971969232E-02  0.10200404779E+01  0.10197606912E+01 0.  0.
     999903    2    3    3    0    0 -0.57467320762E-01  0.59362398028E-01 -0.99847594475E-01  0.13105799890E+00  0.19500505102E-01 0.  0.
         14    1    1    2    0    0  0.22867332820E-01  0.66756602667E-02 -0.17971969232E-02  0.23889522119E-01  0.00000000000E+00 0. -1.
     999901    1    3    3    0    0  0.34599987943E-01 -0.66038058295E-01  0.10164479140E+00  0.88898247898E+00  0.88000000000E+00 0. -1.
        -11    1    4    4    0    0 -0.29169283098E-01  0.30458999424E-01 -0.65935068435E-01  0.78270633656E-01  0.51100000000E-03 0.  1.
         11    1    4    4    0    0 -0.28298037664E-01  0.28903398604E-01 -0.33912526040E-01  0.52787365249E-01  0.51100000000E-03 0. -1.
</event>
<event>
 7    1  0.1112929E+005  0.1043930E+01  0.7957747E-01            NaN
         13   -1    0    0    0    0  0.00000000000E+00  0.00000000000E+00  0.74505805969E-08  0.10566000000E+00  0.10566000000E+00 0.  1.
     999900   -1    0    0    0    0 -0.00000000000E+00 -0.00000000000E+00 -0.74505805969E-08  0.93827000000E+00  0.93827000000E+00 0.  1.
     999903    2    1    2    0    0 -0.71779917041E-01 -0.62658348679E-01 -0.48471519857E-01  0.10875441156E+00  0.19990213806E-01 0.  0.
         14    1    1    2    0    0 -0.29376148443E-01  0.34837284186E-01 -0.11237430219E-01  0.46934787789E-01  0.00000000000E+00 0. -1.
     999901    1    1    2    0    0  0.10115606548E+00  0.27821064493E-01  0.59708950076E-01  0.88824080065E+00  0.88000000000E+00 0. -1.
        -11    1    3    3    0    0 -0.17514910072E-01 -0.26834680107E-01 -0.19934655758E-01  0.37742863596E-01  0.51100000000E-03 0.  1.
         11    1    3    3    0    0 -0.54265006969E-01 -0.35823668573E-01 -0.28536864099E-01  0.71011547969E-01  0.51100000000E-03 0. -1.
</event>
<event>
 8    1  0.1112929E+005  0.1043930E+01  0.7957747E-01            NaN
         13   -1    0    0    0    0  0.00000000000E+00  0.00000000000E+00  0.74505805969E-08  0.10566000000E+00  0.10566000000E+00 0. -1.
     999900   -1    0    0    0    0 -0.00000000000E+00 -0.00000000000E+00 -0.74505805969E-08  0.93827000000E+00  0.93827000000E+00 0. -1.
     999902    2    1    2    0    0  0.32874626298E-02  0.80967161077E-02 -0.21345121681E-01  0.10208653421E+01  0.10206047562E+01 0.  0.
     999903    2    3    3    0    0  0.17713660164E-01  0.36972662680E-01 -0.12608453663E+00  0.13406644696E+00  0.19893473342E-01 0.  0.
         14    1    1    2    0    0 -0.32874626298E-02 -0.80967161077E-02  0.21345121681E-01  0.23064657853E-01  0.00000000000E+00 0. -1.
     999901    1    3    3    0    0 -0.14426197534E-01 -0.28875946572E-01  0.10473941495E+00  0.88679889519E+00  0.88000000000E+00 0.  1.
        -11    1    4    4    0    0 -0.15852678426E-02  0.13080231636E-01 -0.23099939495E-01  0.26598380767E-01  0.51100000000E-03 0. -1.
         11    1    4    4    0    0  0.19298928006E-01  0.23892431043E-01 -0.10298459713E+00  0.10746806619E+00  0.51100000000E-03 0.  1.
</event>
<event>
 8    1  0.1112929E+005  0.1043930E+01  0.7957747E-01            NaN
         13   -1    0    0    0    0  0.00000000000E+00  0.00000000000E+00  0.74505805969E-08  0.10566000000E+00  0.10566000000E+00 0. -1.
     999900   -1    0    0    0    0 -0.00000000000E+00 -0.00000000000E+00 -0.74505805969E-08  0.93827000000E+00  0.93827000000E+00 0.  1.
     999902    2    1    2    0    0 -0.22530665534E-01 -0.25339350921E-02 -0.29525055307E-02  0.10210658577E+01  0.10208098337E+01 0.  0.
     999903    2    3    3    0    0  0.12154672583E+00  0.24208426756E-01 -0.27273970352E-01  0.12861698950E+00  0.20947697748E-01 0.  0.
         14    1    1    2    0    0  0.22530665534E-01  0.25339350921E-02  0.29525055307E-02  0.22864142350E-01  0.00000000000E+00 0.  1.
     999901    1    3    3    0    0 -0.14407739137E+00 -0.26742361848E-01  0.24321464821E-01  0.89244886816E+00  0.88000000000E+00 0.  1.
        -11    1    4    4    0    0  0.46126285728E-01  0.62327857544E-02 -0.37801322021E-03  0.46549821356E-01  0.51100000000E-03 0.  1.
         11    1    4    4    0    0  0.75420440106E-01  0.17975641001E-01 -0.26895957132E-01  0.82067168139E-01  0.51100000000E-03 0. -1.
</event>
<event>
 8    1  0.1112929E+005  0.1043930E+01  0.7957747E-01            NaN
         13   -1    0    0    0    0  0.00000000000E+00  0.00000000000E+00  0.74505805969E-08  0.10566000000E+00  0.10566000000E+00 0.  1.
     999900   -1    0    0    0    0 -0.00000000000E+00 -0.00000000000E+00 -0.74505805969E-08  0.93827000000E+00  0.93827000000E+00 0.  1.
     999902    2    1    2    0    0  0.21129999196E-01 -0.59193525758E-02 -0.87368463988E-02  0.10203111921E+01  0.10200377839E+01 0.  0.
     999903    2    3    3    0    0  0.12201898231E+00  0.32958669949E-01 -0.36842823121E-01  0.13324860499E+00  0.20564317346E-01 0.  0.
         14    1    1    2    0    0 -0.21129999196E-01  0.59193525758E-02  0.87368463988E-02  0.23618807886E-01  0.00000000000E+00 0. -1.
     999901    1    3    3    0    0 -0.10088898311E+00 -0.38878022525E-01  0.28105976722E-01  0.88706258712E+00  0.88000000000E+00 0. -1.
        -11    1    4    4    0    0  0.71354466940E-01  0.29636126988E-01 -0.21337344935E-01  0.80157990151E-01  0.51100000000E-03 0. -1.
         11    1    4    4    0    0  0.50664515368E-01  0.33225429611E-02 -0.15505478186E-01  0.53090614839E-01  0.51100000000E-03 0.  1.
</event>
<event>
 8    1  0.1112929E+005  0.1043930E+01  0.7957747E-01            NaN
         13   -1    0    0    0    0  0.00000000000E+00  0.00000000000E+00  0.74505805969E-08  0.10566000000E+00  0.10566000000E+00 0.  1.
     999900   -1    0    0    0    0 -0.00000000000E+00 -0.00000000000E+00 -0.74505805969E-08  0.93827000000E+00  0.93827000000E+00 0. -1.
     999902    2    1    2    0    0 -0.43844463326E-02  0.33501061831E-03  0.21507091320E-01  0.10219779937E+01  0.10217422029E+01 0.  0.
     999903    2    3    3    0    0 -0.10137698609E+00 -0.65120054684E-01  0.54308352197E-01  0.13362680133E+00  0.19718267769E-01 0.  0.
         14    1    1    2    0    0  0.43844463326E-02 -0.33501061831E-03 -0.21507091320E-01  0.21952006259E-01  0.00000000000E+00 0. -1.
     999901    1    3    3    0    0  0.96992539761E-01  0.65455065303E-01 -0.32801260877E-01  0.88835119241E+00  0.88000000000E+00 0. -1.
        -11    1    4    4    0    0 -0.62732760928E-01 -0.49928185098E-01  0.30667922836E-01  0.85842912188E-01  0.51100000000E-03 0. -1.
         11    1    4    4    0    0 -0.38644225166E-01 -0.15191869587E-01  0.23640429360E-01  0.47783889142E-01  0.51100000000E-03 0.  1.
</event>
<event>
 8    1  0.1112929E+005  0.1043930E+01  0.7957747E-01            NaN
         13   -1    0    0    0    0  0.00000000000E+00  0.00000000000E+00  0.74505805969E-08  0.10566000000E+00  0.10566000000E+00 0.  1.
     999900   -1    0    0    0    0 -0.00000000000E+00 -0.00000000000E+00 -0.74505805969E-08  0.93827000000E+00  0.93827000000E+00 0.  1.
     999902    2    1    2    0    0  0.84227337660E-02  0.14157982254E-01 -0.31193899665E-01  0.10086532331E+01  0.10080361573E+01 0.  0.
     999903    2    3    3    0    0  0.49742070134E-01  0.97745361562E-01  0.45678564773E-01  0.12039453582E+00  0.19490606104E-01 0.  0.
         14    1    1    2    0    0 -0.84227337660E-02 -0.14157982254E-01  0.31193899665E-01  0.35276766886E-01  0.00000000000E+00 0.  1.
     999901    1    3    3    0    0 -0.41319336368E-01 -0.83587379309E-01 -0.76872464438E-01  0.88825869730E+00  0.88000000000E+00 0. -1.
        -11    1    4    4    0    0  0.17951875724E-01  0.40836135846E-01  0.87098844679E-02  0.45453086158E-01  0.51100000000E-03 0.  1.
         11    1    4    4    0    0  0.31790194411E-01  0.56909225717E-01  0.36968680305E-01  0.74941449658E-01  0.51100000000E-03 0. -1.
</event>
<event>
 8    1  0.1112929E+005  0.1043930E+01  0.7957747E-01            NaN
         13   -1    0    0    0    0  0.00000000000E+00  0.00000000000E+00  0.74505805969E-08  0.10566000000E+00  0.10566000000E+00 0.  1.
     999900   -1    0    0    0    0 -0.00000000000E+00 -0.00000000000E+00 -0.74505805969E-08  0.93827000000E+00  0.93827000000E+00 0. -1.
     999902    2    1    2    0    0  0.86204108029E-02  0.22698924169E-02 -0.22588880175E-01  0.10196458199E+01  0.10193565994E+01 0.  0.
     999903    2    3    3    0    0  0.13816247945E-01 -0.46197886599E-01  0.11616845557E+00  0.12744084318E+00  0.20516456959E-01 0.  0.
         14    1    1    2    0    0 -0.86204108029E-02 -0.22698924169E-02  0.22588880175E-01  0.24284180068E-01  0.00000000000E+00 0.  1.
     999901    1    3    3    0    0 -0.51958371417E-02  0.48467779016E-01 -0.13875733575E+00  0.89220497676E+00  0.88000000000E+00 0. -1.
        -11    1    4    4    0    0 -0.20818154112E-02 -0.16064037509E-01  0.55955271002E-01  0.58254963140E-01  0.51100000000E-03 0.  1.
         11    1    4    4    0    0  0.15898063356E-01 -0.30133849090E-01  0.60213184568E-01  0.69185880036E-01  0.51100000000E-03 0. -1.
</event>
<event>
 8    1  0.1112929E+005  0.1043930E+01  0.7957747E-01            NaN
         13   -1    0    0    0    0  0.00000000000E+00  0.00000000000E+00  0.74505805969E-08  0.10566000000E+00  0.10566000000E+00 0. -1.
     999900   -1    0    0    0    0 -0.00000000000E+00 -0.00000000000E+00 -0.74505805969E-08  0.93827000000E+00  0.93827000000E+00 0.  1.
     999902    2    1    2    0    0  0.92516683543E-02  0.27846600417E-02  0.22668145553E-01  0.10192887232E+01  0.10189908286E+01 0.  0.
     999903    2    3    3    0    0  0.11323426701E+00 -0.31378149785E-01 -0.50768686802E-01  0.12947276092E+00  0.19471742395E-01 0.  0.
         14    1    1    2    0    0 -0.92516683543E-02 -0.27846600417E-02 -0.22668145553E-01  0.24641276787E-01  0.00000000000E+00 0.  1.
     999901    1    3    3    0    0 -0.10398259866E+00  0.34162809826E-01  0.73436832355E-01  0.88981596229E+00  0.88000000000E+00 0. -1.
        -11    1    4    4    0    0  0.59844662565E-01 -0.21832444203E-01 -0.18395980579E-01  0.66307710561E-01  0.51100000000E-03 0. -1.
         11    1    4    4    0    0  0.53389604446E-01 -0.95457055816E-02 -0.32372706223E-01  0.63165050362E-01  0.51100000000E-03 0.  1.
</event>
<event>
 8    1  0.1112929E+005  0.1043930E+01  0.7957747E-01            NaN
         13   -1    0    0    0    0  0.00000000000E+00  0.00000000000E+00  0.74505805969E-08  0.10566000000E+00  0.10566000000E+00 0.  1.
     999900   -1    0    0    0    0 -0.00000000000E+00 -0.00000000000E+00 -0.74505805969E-08  0.93827000000E+00  0.93827000000E+00 0.  1.
     999902    2    1    2    0    0  0.57352610816E-02  0.19278722052E-01 -0.17066569071E-01  0.10175514079E+01  0.10172094364E+01 0.  0.
     999903    2    3    3    0    0 -0.59543199197E-01  0.69465447002E-01 -0.91124526680E-01  0.13061027913E+00  0.19609302750E-01 0.  0.
         14    1    1    2    0    0 -0.57352610816E-02 -0.19278722052E-01  0.17066569071E-01  0.26378592144E-01  0.00000000000E+00 0.  1.
     999901    1    3    3    0    0  0.65278460279E-01 -0.50186724950E-01  0.74057957610E-01  0.88694112872E+00  0.88000000000E+00 0. -1.
        -11    1    4    4    0    0 -0.23311858998E-01  0.39845712562E-01 -0.52654792739E-01  0.70027936560E-01  0.51100000000E-03 0. -1.
         11    1    4    4    0    0 -0.36231340199E-01  0.29619734441E-01 -0.38469733942E-01  0.60582342572E-01  0.51100000000E-03 0.  1.
</event>
<event>
 8    1  0.1112929E+005  0.1043930E+01  0.7957747E-01            NaN
         13   -1    0    0    0    0  0.00000000000E+00  0.00000000000E+00  0.74505805969E-08  0.10566000000E+00  0.10566000000E+00 0. -1.
     999900   -1    0    0    0    0 -0.00000000000E+00 -0.00000000000E+00 -0.74505805969E-08  0.93827000000E+00  0.93827000000E+00 0. -1.
     999902    2    1    2    0    0 -0.79550344001E-02  0.74266385773E-02 -0.20591285439E-01  0.10206396894E+01  0.10203739202E+01 0.  0.
     999903    2    3    3    0    0 -0.59801682186E-01  0.11319736005E+00  0.23457422887E-01  0.13169885383E+00  0.20111039161E-01 0.  0.
         14    1    1    2    0    0  0.79550344001E-02 -0.74266385773E-02  0.20591285439E-01  0.23290310623E-01  0.00000000000E+00 0. -1.
     999901    1    3    3    0    0  0.51846647786E-01 -0.10577072147E+00 -0.44048708326E-01  0.88894083555E+00  0.88000000000E+00 0. -1.
        -11    1    4    4    0    0 -0.24118631721E-01  0.26662999118E-01  0.78253982961E-02  0.36798395312E-01  0.51100000000E-03 0.  1.
         11    1    4    4    0    0 -0.35683050465E-01  0.86534360931E-01  0.15632024591E-01  0.94900458513E-01  0.51100000000E-03 0. -1.
</event>
<event>
 8    1  0.1112929E+005  0.1043930E+01  0.7957747E-01            NaN
         13   -1    0    0    0    0  0.00000000000E+00  0.00000000000E+00  0.74505805969E-08  0.10566000000E+00  0.10566000000E+00 0. -1.
     999900   -1    0    0    0    0 -0.00000000000E+00 -0.00000000000E+00 -0.74505805969E-08  0.93827000000E+00  0.93827000000E+00 0. -1.
     999902    2    1    2    0    0 -0.10442390583E-01 -0.95025094793E-02  0.20291533248E-01  0.10192098154E+01  0.10189099863E+01 0.  0.
     999903    2    3    3    0    0  0.20041768900E-02 -0.33224638762E-01  0.12666666515E+00  0.13239905473E+00  0.19420923991E-01 0.  0.
         14    1    1    2    0    0  0.10442390583E-01  0.95025094793E-02 -0.20291533248E-01  0.24720184649E-01  0.00000000000E+00 0.  1.
     999901    1    3    3    0    0 -0.12446567473E-01  0.23722129282E-01 -0.10637513190E+00  0.88681076062E+00  0.88000000000E+00 0. -1.
        -11    1    4    4    0    0  0.61062736416E-02 -0.28274424083E-01  0.75942846366E-01  0.81266885447E-01  0.51100000000E-03 0.  1.
         11    1    4    4    0    0 -0.41020967517E-02 -0.49502146786E-02  0.50723818783E-01  0.51132169288E-01  0.51100000000E-03 0. -1.
</event>
<event>
 8    1  0.1112929E+005  0.1043930E+01  0.7957747E-01            NaN
         13   -1    0    0    0    0  0.00000000000E+00  0.00000000000E+00  0.74505805969E-08  0.10566000000E+00  0.10566000000E+00 0.  1.
     999900   -1    0    0    0    0 -0.00000000000E+00 -0.00000000000E+00 -0.74505805969E-08  0.93827000000E+00  0.93827000000E+00 0.  1.
     999902    2    1    2    0    0  0.23446755372E-01  0.36183910348E-03  0.25940528639E-02  0.10203374085E+01  0.10200646140E+01 0.  0.
     999903    2    3    3    0    0 -0.44686941998E-01 -0.62582577628E-01  0.10254712635E+00  0.12983484406E+00  0.20680227290E-01 0.  0.
         14    1    1    2    0    0 -0.23446755372E-01 -0.36183910348E-03 -0.25940528639E-02  0.23592591534E-01  0.00000000000E+00 0.  1.
     999901    1    3    3    0    0  0.68133697370E-01  0.62944416731E-01 -0.99953073490E-01  0.89050256441E+00  0.88000000000E+00 0.  1.
        -11    1    4    4    0    0 -0.23717775272E-01 -0.38938896009E-01  0.75668269980E-01  0.88344318940E-01  0.51100000000E-03 0.  1.
         11    1    4    4    0    0 -0.20969166727E-01 -0.23643681619E-01  0.26878856374E-01  0.41490525119E-01  0.51100000000E-03 0. -1.
</event>
<event>
 8    1  0.1112929E+005  0.1043930E+01  0.7957747E-01            NaN
         13   -1    0    0    0    0  0.00000000000E+00  0.00000000000E+00  0.74505805969E-08  0.10566000000E+00  0.10566000000E+00 0.  1.
     999900   -1    0    0    0    0 -0.00000000000E+00 -0.00000000000E+00 -0.74505805969E-08  0.93827000000E+00  0.93827000000E+00 0. -1.
     999902    2    1    2    0    0  0.18167411032E-01  0.12715137934E-01  0.95093794199E-02  0.10198020524E+01  0.10195165856E+01 0.  0.
     999903    2    3    3    0    0  0.12308139835E+00 -0.42303794322E-01 -0.62360364594E-02  0.13172438368E+00  0.19333480589E-01 0.  0.
         14    1    1    2    0    0 -0.18167411032E-01 -0.12715137934E-01 -0.95093794199E-02  0.24127947555E-01  0.00000000000E+00 0. -1.
     999901    1    3    3    0    0 -0.10491398731E+00  0.55018932256E-01  0.15745415879E-01  0.88807766877E+00  0.88000000000E+00 0.  1.
        -11    1    4    4    0    0  0.63650791349E-01 -0.31417156666E-01 -0.67146094683E-02  0.71300828001E-01  0.51100000000E-03 0. -1.
         11    1    4    4    0    0  0.59430606997E-01 -0.10886637656E-01  0.47857300892E-03  0.60423555677E-01  0.51100000000E-03 0.  1.
</event>
<event>
 8    1  0.1112929E+005  0.1043930E+01  0.7957747E-01            NaN
         13   -1    0    0    0    0  0.00000000000E+00  0.00000000000E+00  0.74505805969E-08  0.10566000000E+00  0.10566000000E+00 0. -1.
     999900   -1    0    0    0    0 -0.00000000000E+00 -0.00000000000E+00 -0.74505805969E-08  0.93827000000E+00  0.93827000000E+00 0. -1.
     999902    2    1    2    0    0  0.15382001165E-01 -0.15289534536E-01 -0.90215992327E-02  0.10204403197E+01  0.10201699275E+01 0.  0.
     999903    2    3    3    0    0  0.49302600829E-01 -0.88710611084E-01  0.82168522724E-01  0.13203900282E+00  0.19552830252E-01 0.  0.
         14    1    1    2    0    0 -0.15382001165E-01  0.15289534536E-01  0.90215992327E-02  0.23489680264E-01  0.00000000000E+00 0. -1.
     999901    1    3    3    0    0 -0.33920599664E-01  0.73421076548E-01 -0.91190121956E-01  0.88840131692E+00  0.88000000000E+00 0.  1.
        -11    1    4    4    0    0  0.36023705676E-01 -0.45655572518E-01  0.49682690347E-01  0.76490323007E-01  0.51100000000E-03 0. -1.
         11    1    4    4    0    0  0.13278895153E-01 -0.43055038566E-01  0.32485832376E-01  0.55548679809E-01  0.51100000000E-03 0.  1.
</event>
<event>
 8    1  0.1112929E+005  0.1043930E+01  0.7957747E-01            NaN
         13   -1    0    0    0    0  0.00000000000E+00  0.00000000000E+00  0.74505805969E-08  0.10566000000E+00  0.10566000000E+00 0. -1.
     999900   -1    0    0    0    0 -0.00000000000E+00 -0.00000000000E+00 -0.74505805969E-08  0.93827000000E+00  0.93827000000E+00 0. -1.
     999902    2    1    2    0    0 -0.16680610964E-01  0.14990678729E-01  0.11367431312E-01  0.10187867758E+01  0.10184764665E+01 0.  0.
     999903    2    3    3    0    0  0.19060691692E-01  0.56507086117E-01  0.11513737636E+00  0.13099780629E+00  0.18639985767E-01 0.  0.
         14    1    1    2    0    0  0.16680610964E-01 -0.14990678729E-01 -0.11367431312E-01  0.25143224247E-01  0.00000000000E+00 0.  1.
     999901    1    3    3    0    0 -0.35741302656E-01 -0.41516407388E-01 -0.10376994505E+00  0.88778896946E+00  0.88000000000E+00 0.  1.
        -11    1    4    4    0    0  0.14921067382E-01  0.52247383792E-01  0.89733180498E-01  0.10490344212E+00  0.51100000000E-03 0.  1.
         11    1    4    4    0    0  0.41396243101E-02  0.42597023255E-02  0.25404195862E-01  0.26094364176E-01  0.51100000000E-03 0. -1.
</event>
<event>
 8    1  0.1112929E+005  0.1043930E+01  0.7957747E-01            NaN
         13   -1    0    0    0    0  0.00000000000E+00  0.00000000000E+00  0.74505805969E-08  0.10566000000E+00  0.10566000000E+00 0. -1.
     999900   -1    0    0    0    0 -0.00000000000E+00 -0.00000000000E+00 -0.74505805969E-08  0.93827000000E+00  0.93827000000E+00 0.  1.
     999902    2    1    2    0    0  0.12386353621E-01  0.53480589045E-02  0.17420952091E-01  0.10218956391E+01  0.10216580563E+01 0.  0.
     999903    2    3    3    0    0 -0.33912838109E-01 -0.12202961727E+00  0.28962050197E-01  0.13144525612E+00  0.19943593546E-01 0.  0.
         14    1    1    2    0    0 -0.12386353621E-01 -0.53480589045E-02 -0.17420952091E-01  0.22034360935E-01  0.00000000000E+00 0.  1.
     999901    1    3    3    0    0  0.46299191731E-01  0.12737767618E+00 -0.11541098106E-01  0.89045038295E+00  0.88000000000E+00 0. -1.
        -11    1    4    4    0    0 -0.16268936384E-01 -0.58617564593E-01  0.37227319874E-02  0.60949298801E-01  0.51100000000E-03 0.  1.
         11    1    4    4    0    0 -0.17643901725E-01 -0.63412052682E-01  0.25239318209E-01  0.70495957318E-01  0.51100000000E-03 0. -1.
</event>
<event>
 8    1  0.1112929E+005  0.1043930E+01  0.7957747E-01            NaN
         13   -1    0    0    0    0  0.00000000000E+00  0.00000000000E+00  0.74505805969E-08  0.10566000000E+00  0.10566000000E+00 0.  1.
     999900   -1    0    0    0    0 -0.00000000000E+00 -0.00000000000E+00 -0.74505805969E-08  0.93827000000E+00  0.93827000000E+00 0. -1.
     999902    2    1    2    0    0 -0.15885042717E-01 -0.17166201020E-01  0.37410824580E-02  0.10202443770E+01  0.10199694015E+01 0.  0.
     999903    2    3    3    0    0  0.12350041743E+00 -0.17353093160E-01  0.25968747076E-01  0.12899670630E+00  0.20304961546E-01 0.  0.
         14    1    1    2    0    0  0.15885042717E-01  0.17166201020E-01 -0.37410824580E-02  0.23685623014E-01  0.00000000000E+00 0. -1.
     999901    1    3    3    0    0 -0.13938546015E+00  0.18689213964E-03 -0.22227664618E-01  0.89124767069E+00  0.88000000000E+00 0. -1.
        -11    1    4    4    0    0  0.76621585849E-01 -0.15859990224E-01  0.24775504070E-01  0.82076144103E-01  0.51100000000E-03 0. -1.
         11    1    4    4    0    0  0.46878831584E-01 -0.14931029356E-02  0.11932430059E-02  0.46920562197E-01  0.51100000000E-03 0.  1.
</event>
<event>
 8    1  0.1112929E+005  0.1043930E+01  0.7957747E-01            NaN
         13   -1    0    0    0    0  0.00000000000E+00  0.00000000000E+00  0.74505805969E-08  0.10566000000E+00  0.10566000000E+00 0.  1.
     999900   -1    0    0    0    0 -0.00000000000E+00 -0.00000000000E+00 -0.74505805969E-08  0.93827000000E+00  0.93827000000E+00 0. -1.
     999902    2    1    2    0    0 -0.23551664585E-01  0.33598067328E-02  0.99040750593E-04  0.10201396865E+01  0.10198622461E+01 0.  0.
     999903    2    3    3    0    0  0.12281703201E+00  0.17610363205E-01 -0.21899155972E-01  0.12766515224E+00  0.20607518496E-01 0.  0.
         14    1    1    2    0    0  0.23551664585E-01 -0.33598067328E-02 -0.99040750593E-04  0.23790313471E-01  0.00000000000E+00 0. -1.
     999901    1    3    3    0    0 -0.14636869660E+00 -0.14250556473E-01  0.21998196722E-01  0.89247453429E+00  0.88000000000E+00 0.  1.
        -11    1    4    4    0    0  0.77886855365E-01  0.45379923417E-02 -0.21257619908E-01  0.80864721222E-01  0.51100000000E-03 0.  1.
         11    1    4    4    0    0  0.44930176647E-01  0.13072370864E-01 -0.64153606366E-03  0.46800431013E-01  0.51100000000E-03 0. -1.
</event>
<event>
 8    1  0.1112929E+005  0.1043930E+01  0.7957747E-01            NaN
         13   -1    0    0    0    0  0.00000000000E+00  0.00000000000E+00  0.74505805969E-08  0.10566000000E+00  0.10566000000E+00 0.  1.
     999900   -1    0    0    0    0 -0.00000000000E+00 -0.00000000000E+00 -0.74505805969E-08  0.93827000000E+00  0.93827000000E+00 0. -1.
     999902    2    1    2    0    0 -0.88972161374E-02 -0.13654041523E-01 -0.21009160153E-01  0.10173409399E+01  0.10169934169E+01 0.  0.
     999903    2    3    3    0    0  0.79118853042E-01 -0.50273803868E-01 -0.87437473151E-01  0.12970331331E+00  0.19758277015E-01 0.  0.
         14    1    1    2    0    0  0.88972161374E-02  0.13654041523E-01  0.21009160153E-01  0.26589060067E-01  0.00000000000E+00 0.  1.
     999901    1    3    3    0    0 -0.88016069179E-01  0.36619762344E-01  0.66428312998E-01  0.88763762662E+00  0.88000000000E+00 0. -1.
        -11    1    4    4    0    0  0.64479459549E-01 -0.31056155489E-01 -0.67423059725E-01  0.98327084779E-01  0.51100000000E-03 0. -1.
         11    1    4    4    0    0  0.14639393493E-01 -0.19217648378E-01 -0.20014413426E-01  0.31376228531E-01  0.51100000000E-03 0.  1.
</event>
<event>
 8    1  0.1112929E+005  0.1043930E+01  0.7957747E-01            NaN
         13   -1    0    0    0    0  0.00000000000E+00  0.00000000000E+00  0.74505805969E-08  0.10566000000E+00  0.10566000000E+00 0. -1.
     999900   -1    0    0    0    0 -0.00000000000E+00 -0.00000000000E+00 -0.74505805969E-08  0.93827000000E+00  0.93827000000E+00 0. -1.
     999902    2    1    2    0    0  0.36342473066E-02 -0.76776200894E-02 -0.23548245949E-01  0.10188965526E+01  0.10185889806E+01 0.  0.
     999903    2    3    3    0    0 -0.83581343228E-01 -0.52122084896E-01 -0.84376638343E-01  0.13138206647E+00  0.20958950896E-01 0.  0.
         14    1    1    2    0    0 -0.36342473066E-02  0.76776200894E-02  0.23548245949E-01  0.25033447446E-01  0.00000000000E+00 0. -1.
     999901    1    3    3    0    0  0.87215590534E-01  0.44444464807E-01  0.60828392394E-01  0.88751448608E+00  0.88000000000E+00 0. -1.
        -11    1    4    4    0    0 -0.44118000746E-01 -0.38766254679E-01 -0.54384620624E-01  0.80044791043E-01  0.51100000000E-03 0. -1.
         11    1    4    4    0    0 -0.39463342482E-01 -0.13355830217E-01 -0.29992017719E-01  0.51337275429E-01  0.51100000000E-03 0.  1.
</event>
<event>
 8    1  0.1112929E+005  0.1043930E+01  0.7957747E-01            NaN
         13   -1    0    0    0    0  0.00000000000E+00  0.00000000000E+00  0.74505805969E-08  0.10566000000E+00  0.10566000000E+00 0. -1.
     999900   -1    0    0    0    0 -0.00000000000E+00 -0.00000000000E+00 -0.74505805969E-08  0.93827000000E+00  0.93827000000E+00 0. -1.
     999902    2    1    2    0    0 -0.16688967020E-01 -0.20015766324E-02 -0.28884038914E-01  0.10105112084E+01  0.10099584579E+01 0.  0.
     999903    2    3    3    0    0  0.36985271027E-01 -0.10788006562E+00  0.33137400905E-01  0.12037760197E+00  0.19663694659E-01 0.  0.
         14    1    1    2    0    0  0.16688967020E-01  0.20015766324E-02  0.28884038914E-01  0.33418791618E-01  0.00000000000E+00 0. -1.
     999901    1    3    3    0    0 -0.53674238047E-01  0.10587848899E+00 -0.62021439819E-01  0.89013360641E+00  0.88000000000E+00 0.  1.
        -11    1    4    4    0    0  0.37376234346E-01 -0.88283142563E-01  0.24497290115E-01  0.98950869115E-01  0.51100000000E-03 0.  1.
         11    1    4    4    0    0 -0.39096331918E-03 -0.19596923056E-01  0.86401107902E-02  0.21426732859E-01  0.51100000000E-03 0. -1.
</event>
<event>
 8    1  0.1112929E+005  0.1043930E+01  0.7957747E-01            NaN
         13   -1    0    0    0    0  0.00000000000E+00  0.00000000000E+00  0.74505805969E-08  0.10566000000E+00  0.10566000000E+00 0. -1.
     999900   -1    0    0    0    0 -0.00000000000E+00 -0.00000000000E+00 -0.74505805969E-08  0.93827000000E+00  0.93827000000E+00 0.  1.
     999902    2    1    2    0    0 -0.13265869630E-02 -0.23133085827E-01  0.72880332704E-02  0.10196397772E+01  0.10193504110E+01 0.  0.
     999903    2    3    3    0    0  0.28769430262E-02 -0.12861454800E+00  0.27411305955E-01  0.13310215557E+00  0.20367262119E-01 0.  0.
         14    1    1    2    0    0  0.13265869630E-02  0.23133085827E-01 -0.72880332704E-02  0.24290222762E-01  0.00000000000E+00 0.  1.
     999901    1    3    3    0    0 -0.42035299892E-02  0.10548146217E+00 -0.20123272685E-01  0.88653762167E+00  0.88000000000E+00 0.  1.
        -11    1    4    4    0    0  0.95797325789E-02 -0.87723289681E-01  0.24375788880E-01  0.91551007822E-01  0.51100000000E-03 0. -1.
         11    1    4    4    0    0 -0.67027895527E-02 -0.40891258316E-01  0.30355170756E-02  0.41551147750E-01  0.51100000000E-03 0.  1.
</event>
<event>
 8    1  0.1112929E+005  0.1043930E+01  0.7957747E-01            NaN
         13   -1    0    0    0    0  0.00000000000E+00  0.00000000000E+00  0.74505805969E-08  0.10566000000E+00  0.10566000000E+00 0. -1.
     999900   -1    0    0    0    0 -0.00000000000E+00 -0.00000000000E+00 -0.74505805969E-08  0.93827000000E+00  0.93827000000E+00 0.  1.
     999902    2    1    2    0    0  0.10490455124E-01  0.24758361456E-02  0.18739648449E-01  0.10223116319E+01  0.10220830294E+01 0.  0.
     999903    2    3    3    0    0  0.62383019681E-01  0.83462698724E-01 -0.78179141329E-01  0.13178091267E+00  0.19914004657E-01 0.  0.
         14    1    1    2    0    0 -0.10490455124E-01 -0.24758361456E-02 -0.18739648449E-01  0.21618368054E-01  0.00000000000E+00 0. -1.
     999901    1    3    3    0    0 -0.51892564558E-01 -0.80986862579E-01  0.96918789779E-01  0.89053071928E+00  0.88000000000E+00 0. -1.
        -11    1    4    4    0    0  0.76296316328E-02  0.21489197338E-01 -0.22817803109E-01  0.32263139041E-01  0.51100000000E-03 0. -1.
         11    1    4    4    0    0  0.54753388049E-01  0.61973501386E-01 -0.55361338221E-01  0.99517773626E-01  0.51100000000E-03 0.  1.
</event>
<event>
 8    1  0.1112929E+005  0.1043930E+01  0.7957747E-01            NaN
         13   -1    0    0    0    0  0.00000000000E+00  0.00000000000E+00  0.74505805969E-08  0.10566000000E+00  0.10566000000E+00 0.  1.
     999900   -1    0    0    0    0 -0.00000000000E+00 -0.00000000000E+00 -0.74505805969E-08  0.93827000000E+00  0.93827000000E+00 0.  1.
     999902    2    1    2    0    0  0.17571484299E-01  0.10478563703E-02 -0.12355305868E-01  0.10224239858E+01  0.10221977784E+01 0.  0.
     999903    2    3    3    0    0 -0.74678773061E-01 -0.56427105164E-01 -0.91266459094E-01  0.13223274158E+00  0.19874457176E-01 0.  0.
         14    1    1    2    0    0 -0.17571484299E-01 -0.10478563703E-02  0.12355305868E-01  0.21506014195E-01  0.00000000000E+00 0.  1.
     999901    1    3    3    0    0  0.92250257360E-01  0.57474961534E-01  0.78911153226E-01  0.89019124422E+00  0.88000000000E+00 0. -1.
        -11    1    4    4    0    0 -0.30544307042E-01 -0.35258576019E-01 -0.47301957370E-01  0.66436873554E-01  0.51100000000E-03 0. -1.
         11    1    4    4    0    0 -0.44134466019E-01 -0.21168529145E-01 -0.43964501723E-01  0.65795868029E-01  0.51100000000E-03 0.  1.
</event>
<event>
 8    1  0.1112929E+005  0.1043930E+01  0.7957747E-01            NaN
         13   -1    0    0    0    0  0.00000000000E+00  0.00000000000E+00  0.74505805969E-08  0.10566000000E+00  0.10566000000E+00 0.  1.
     999900   -1    0    0    0    0 -0.00000000000E+00 -0.00000000000E+00 -0.74505805969E-08  0.93827000000E+00  0.93827000000E+00 0.  1.
     999902    2    1    2    0    0  0.20176696652E-01  0.76846136974E-02 -0.10695036185E-01  0.10198356817E+01  0.10195510196E+01 0.  0.
     999903    2    3    3    0    0 -0.10290000347E+00  0.60713923770E-01 -0.43682891279E-01  0.12907859897E+00  0.21874607830E-01 0.  0.
         14    1    1    2    0    0 -0.20176696652E-01 -0.76846136974E-02  0.10695036185E-01  0.24094318302E-01  0.00000000000E+00 0.  1.
     999901    1    3    3    0    0  0.12307670013E+00 -0.53029310072E-01  0.32987855094E-01  0.89075708272E+00  0.88000000000E+00 0.  1.
        -11    1    4    4    0    0 -0.55052448121E-01  0.24064789138E-01 -0.30493723371E-01  0.67379629016E-01  0.51100000000E-03 0.  1.
         11    1    4    4    0    0 -0.47847555354E-01  0.36649134632E-01 -0.13189167908E-01  0.61698969956E-01  0.51100000000E-03 0. -1.
</event>
<event>
 7    1  0.1112929E+005  0.1043930E+01  0.7957747E-01            NaN
         13   -1    0    0    0    0  0.00000000000E+00  0.00000000000E+00  0.74505805969E-08  0.10566000000E+00  0.10566000000E+00 0. -1.
     999900   -1    0    0    0    0 -0.00000000000E+00 -0.00000000000E+00 -0.74505805969E-08  0.93827000000E+00  0.93827000000E+00 0. -1.
     999903    2    1    2    0    0  0.58720236334E-01 -0.94954102956E-01  0.16004598549E-01  0.11461113421E+00  0.20376876250E-01 0.  0.
         14    1    1    2    0    0 -0.30942122820E-01  0.10089374974E-01 -0.30611073349E-01  0.44679394172E-01  0.00000000000E+00 0.  1.
     999901    1    1    2    0    0 -0.27778113514E-01  0.84864727983E-01  0.14606474800E-01  0.88463947162E+00  0.88000000000E+00 0.  1.
        -11    1    3    3    0    0  0.36317609336E-01 -0.73807789558E-01  0.15989864862E-01  0.83800330826E-01  0.51100000000E-03 0. -1.
         11    1    3    3    0    0  0.22402626999E-01 -0.21146313399E-01  0.14733686818E-04  0.30810803379E-01  0.51100000000E-03 0.  1.
</event>
<event>
 8    1  0.1112929E+005  0.1043930E+01  0.7957747E-01            NaN
         13   -1    0    0    0    0  0.00000000000E+00  0.00000000000E+00  0.74505805969E-08  0.10566000000E+00  0.10566000000E+00 0.  1.
     999900   -1    0    0    0    0 -0.00000000000E+00 -0.00000000000E+00 -0.74505805969E-08  0.93827000000E+00  0.93827000000E+00 0.  1.
     999902    2    1    2    0    0 -0.37111032739E-02 -0.11447488333E-01 -0.18034355496E-01  0.10222492423E+01  0.10220193042E+01 0.  0.
     999903    2    3    3    0    0  0.81242879679E-01 -0.32119587768E-01 -0.99677811603E-01  0.13415568368E+00  0.20736632370E-01 0.  0.
         14    1    1    2    0    0  0.37111032739E-02  0.11447488333E-01  0.18034355496E-01  0.21680757708E-01  0.00000000000E+00 0.  1.
     999901    1    3    3    0    0 -0.84953982952E-01  0.20672099435E-01  0.81643456107E-01  0.88809355861E+00  0.88000000000E+00 0. -1.
        -11    1    4    4    0    0  0.16045731937E-01  0.68139228101E-03 -0.11877900043E-01  0.19981877771E-01  0.51100000000E-03 0. -1.
         11    1    4    4    0    0  0.65197147742E-01 -0.32800980049E-01 -0.87799911560E-01  0.11417380591E+00  0.51100000000E-03 0.  1.
</event>
<event>
 8    1  0.1112929E+005  0.1043930E+01  0.7957747E-01            NaN
         13   -1    0    0    0    0  0.00000000000E+00  0.00000000000E+00  0.74505805969E-08  0.10566000000E+00  0.10566000000E+00 0.  1.
     999900   -1    0    0    0    0 -0.00000000000E+00 -0.00000000000E+00 -0.74505805969E-08  0.93827000000E+00  0.93827000000E+00 0. -1.
     999902    2    1    2    0    0 -0.13643431360E-01 -0.14322200381E-01  0.14146789742E-01  0.10196112767E+01  0.10193212228E+01 0.  0.
     999903    2    3    3    0    0  0.11536805242E+00  0.12447712175E-01  0.52515749559E-01  0.12897511740E+00  0.20296401130E-01 0.  0.
         14    1    1    2    0    0  0.13643431360E-01  0.14322200381E-01 -0.14146789742E-01  0.24318723302E-01  0.00000000000E+00 0.  1.
     999901    1    3    3    0    0 -0.12901148378E+00 -0.26769912557E-01 -0.38368959817E-01  0.89063615930E+00  0.88000000000E+00 0. -1.
        -11    1    4    4    0    0  0.50026601464E-01  0.14699438881E-01  0.18953155583E-01  0.55481686934E-01  0.51100000000E-03 0.  1.
         11    1    4    4    0    0  0.65341450960E-01 -0.22517267060E-02  0.33562593976E-01  0.73493430469E-01  0.51100000000E-03 0. -1.
</event>
<event>
 8    1  0.1112929E+005  0.1043930E+01  0.7957747E-01            NaN
         13   -1    0    0    0    0  0.00000000000E+00  0.00000000000E+00  0.74505805969E-08  0.10566000000E+00  0.10566000000E+00 0. -1.
     999900   -1    0    0    0    0 -0.00000000000E+00 -0.00000000000E+00 -0.74505805969E-08  0.93827000000E+00  0.93827000000E+00 0.  1.
     999902    2    1    2    0    0  0.24606573774E-02 -0.22955115688E-01 -0.29367585532E-02  0.10206573396E+01  0.10203919777E+01 0.  0.
     999903    2    3    3    0    0  0.32474804858E-01 -0.29334011748E-01 -0.12291677803E+00  0.13198600304E+00  0.19916663428E-01 0.  0.
         14    1    1    2    0    0 -0.24606573774E-02  0.22955115688E-01  0.29367585532E-02  0.23272660393E-01  0.00000000000E+00 0.  1.
     999901    1    3    3    0    0 -0.30014147480E-01  0.63788960596E-02  0.11998001947E+00  0.88867133657E+00  0.88000000000E+00 0. -1.
        -11    1    4    4    0    0  0.30588254050E-01 -0.16189162285E-01 -0.83505672930E-01  0.90394628125E-01  0.51100000000E-03 0.  1.
         11    1    4    4    0    0  0.18865508073E-02 -0.13144849462E-01 -0.39411105097E-01  0.41591374914E-01  0.51100000000E-03 0. -1.
</event>
<event>
 8    1  0.1112929E+005  0.1043930E+01  0.7957747E-01            NaN
         13   -1    0    0    0    0  0.00000000000E+00  0.00000000000E+00  0.74505805969E-08  0.10566000000E+00  0.10566000000E+00 0. -1.
     999900   -1    0    0    0    0 -0.00000000000E+00 -0.00000000000E+00 -0.74505805969E-08  0.93827000000E+00  0.93827000000E+00 0. -1.
     999902    2    1    2    0    0  0.93291865403E-02 -0.20798224382E-01  0.52002768250E-02  0.10205496078E+01  0.10202817549E+01 0.  0.
     999903    2    3    3    0    0  0.11801435627E+00 -0.49044586902E-01 -0.31040420782E-01  0.13267365294E+00  0.17493732364E-01 0.  0.
         14    1    1    2    0    0 -0.93291865403E-02  0.20798224382E-01 -0.52002768250E-02  0.23380392170E-01  0.00000000000E+00 0. -1.
     999901    1    3    3    0    0 -0.10868516973E+00  0.28246362520E-01  0.36240697607E-01  0.88787595489E+00  0.88000000000E+00 0.  1.
        -11    1    4    4    0    0  0.82659280984E-01 -0.26114525946E-01 -0.23978769251E-01  0.89943135891E-01  0.51100000000E-03 0.  1.
         11    1    4    4    0    0  0.35355075283E-01 -0.22930060956E-01 -0.70616515312E-02  0.42730517046E-01  0.51100000000E-03 0. -1.
</event>
<event>
 8    1  0.1112929E+005  0.1043930E+01  0.7957747E-01            NaN
         13   -1    0    0    0    0  0.00000000000E+00  0.00000000000E+00  0.74505805969E-08  0.10566000000E+00  0.10566000000E+00 0. -1.
     999900   -1    0    0    0    0 -0.00000000000E+00 -0.00000000000E+00 -0.74505805969E-08  0.93827000000E+00  0.93827000000E+00 0.  1.
     999902    2    1    2    0    0  0.16835671203E-01 -0.63824611476E-02  0.15697892656E-01  0.10200427760E+01  0.10197630438E+01 0.  0.
     999903    2    3    3    0    0  0.12410389920E+00  0.20000009515E-01 -0.33895166326E-01  0.13175116907E+00  0.20191831876E-01 0.  0.
         14    1    1    2    0    0 -0.16835671203E-01  0.63824611476E-02 -0.15697892656E-01  0.23887223970E-01  0.00000000000E+00 0. -1.
     999901    1    3    3    0    0 -0.10726822800E+00 -0.26382470663E-01  0.49593058982E-01  0.88829160696E+00  0.88000000000E+00 0. -1.
        -11    1    4    4    0    0  0.72418411161E-01  0.19294940704E-02 -0.16530468764E-01  0.74307918427E-01  0.51100000000E-03 0. -1.
         11    1    4    4    0    0  0.51685488037E-01  0.18070515445E-01 -0.17364697562E-01  0.57443250644E-01  0.51100000000E-03 0.  1.
</event>
<event>
 8    1  0.1112929E+005  0.1043930E+01  0.7957747E-01            NaN
         13   -1    0    0    0    0  0.00000000000E+00  0.00000000000E+00  0.74505805969E-08  0.10566000000E+00  0.10566000000E+00 0.  1.
     999900   -1    0    0    0    0 -0.00000000000E+00 -0.00000000000E+00 -0.74505805969E-08  0.93827000000E+00  0.93827000000E+00 0.  1.
     999902    2    1    2    0    0 -0.19359157247E-01  0.14751175798E-01  0.11569703183E-01  0.10169813045E+01  0.10166241889E+01 0.  0.
     999903    2    3    3    0    0 -0.95353334726E-01  0.65298680239E-01 -0.55700567885E-01  0.12970713348E+00  0.19110497844E-01 0.  0.
         14    1    1    2    0    0  0.19359157247E-01 -0.14751175798E-01 -0.11569703183E-01  0.26948695487E-01  0.00000000000E+00 0. -1.
     999901    1    3    3    0    0  0.75994177479E-01 -0.50547504442E-01  0.67270271068E-01  0.88727417103E+00  0.88000000000E+00 0. -1.
        -11    1    4    4    0    0 -0.33505493390E-01  0.14540375296E-01 -0.11483335086E-01  0.38290582481E-01  0.51100000000E-03 0.  1.
         11    1    4    4    0    0 -0.61847841337E-01  0.50758304943E-01 -0.44217232799E-01  0.91416550997E-01  0.51100000000E-03 0. -1.
</event>
<event>
 8    1  0.1112929E+005  0.1043930E+01  0.7957747E-01            NaN
         13   -1    0    0    0    0  0.00000000000E+00  0.00000000000E+00  0.74505805969E-08  0.10566000000E+00  0.10566000000E+00 0. -1.
     999900   -1    0    0    0    0 -0.00000000000E+00 -0.00000000000E+00 -0.74505805969E-08  0.93827000000E+00  0.93827000000E+00 0.  1.
     999902    2    1    2    0    0  0.12084182555E-01  0.14848491028E-01 -0.13942598265E-01  0.10202466472E+01  0.10199717251E+01 0.  0.
     999903    2    3    3    0    0 -0.43009927760E-01 -0.64572847003E-01 -0.10272391066E+00  0.13051341113E+00  0.21495167040E-01 0.  0.
         14    1    1    2    0    0 -0.12084182555E-01 -0.14848491028E-01  0.13942598265E-01  0.23683352807E-01  0.00000000000E+00 0. -1.
     999901    1    3    3    0    0  0.55094110315E-01  0.79421338031E-01  0.88781312400E-01  0.88973323606E+00  0.88000000000E+00 0. -1.
        -11    1    4    4    0    0 -0.15004456416E-01 -0.19652049241E-01 -0.17911835314E-01  0.30535744907E-01  0.51100000000E-03 0. -1.
         11    1    4    4    0    0 -0.28005471344E-01 -0.44920797762E-01 -0.84812075350E-01  0.99977666221E-01  0.51100000000E-03 0.  1.
</event>
<event>
 8    1  0.1112929E+005  0.1043930E+01  0.7957747E-01            NaN
         13   -1    0    0    0    0  0.00000000000E+00  0.00000000000E+00  0.74505805969E-08  0.10566000000E+00  0.10566000000E+00 0. -1.
     999900   -1    0    0    0    0 -0.00000000000E+00 -0.00000000000E+00 -0.74505805969E-08  0.93827000000E+00  0.93827000000E+00 0.  1.
     999902    2    1    2    0    0  0.17293420697E-01 -0.73965740756E-02 -0.14901470287E-01  0.10199336352E+01  0.10196513103E+01 0.  0.
     999903    2    3    3    0    0  0.21411879112E-02  0.99084994748E-01  0.79606469340E-01  0.12836217686E+00  0.17811165513E-01 0.  0.
         14    1    1    2    0    0 -0.17293420697E-01  0.73965740756E-02  0.14901470287E-01  0.23996364811E-01  0.00000000000E+00 0. -1.
     999901    1    3    3    0    0  0.15152232786E-01 -0.10648156882E+00 -0.94507939627E-01  0.89157145833E+00  0.88000000000E+00 0.  1.
        -11    1    4    4    0    0 -0.69046496976E-02  0.43066384859E-01  0.29484271472E-01  0.52649511655E-01  0.51100000000E-03 0.  1.
         11    1    4    4    0    0  0.90458376087E-02  0.56018609889E-01  0.50122197869E-01  0.75712665203E-01  0.51100000000E-03 0. -1.
</event>
<event>
 8    1  0.1112929E+005  0.1043930E+01  0.7957747E-01            NaN
         13   -1    0    0    0    0  0.00000000000E+00  0.00000000000E+00  0.74505805969E-08  0.10566000000E+00  0.10566000000E+00 0.  1.
     999900   -1    0    0    0    0 -0.00000000000E+00 -0.00000000000E+00 -0.74505805969E-08  0.93827000000E+00  0.93827000000E+00 0.  1.
     999902    2    1    2    0    0 -0.14108608014E-01 -0.41494624666E-02 -0.23186467902E-01  0.10164730673E+01  0.10161021668E+01 0.  0.
     999903    2    3    3    0    0  0.34688598396E-01 -0.62862509880E-01 -0.10580017826E+00  0.12931275799E+00  0.19316253626E-01 0.  0.
         14    1    1    2    0    0  0.14108608014E-01  0.41494624666E-02  0.23186467902E-01  0.27456932688E-01  0.00000000000E+00 0.  1.
     999901    1    3    3    0    0 -0.48797206410E-01  0.58713047413E-01  0.82613710353E-01  0.88716030932E+00  0.88000000000E+00 0. -1.
        -11    1    4    4    0    0  0.29205178601E-01 -0.50279511127E-01 -0.70202841033E-01  0.91157400722E-01  0.51100000000E-03 0. -1.
         11    1    4    4    0    0  0.54834197946E-02 -0.12582998753E-01 -0.35597337222E-01  0.38155357272E-01  0.51100000000E-03 0.  1.
</event>
<event>
 8    1  0.1112929E+005  0.1043930E+01  0.7957747E-01            NaN
         13   -1    0    0    0    0  0.00000000000E+00  0.00000000000E+00  0.74505805969E-08  0.10566000000E+00  0.10566000000E+00 0. -1.
     999900   -1    0    0    0    0 -0.00000000000E+00 -0.00000000000E+00 -0.74505805969E-08  0.93827000000E+00  0.93827000000E+00 0.  1.
     999902    2    1    2    0    0 -0.10593103927E-01 -0.20784036752E-01  0.57967952261E-02  0.10198926776E+01  0.10196093766E+01 0.  0.
     999903    2    3    3    0    0 -0.52573894905E-01  0.82090845221E-01 -0.81699734121E-01  0.12860076647E+00  0.18983921790E-01 0.  0.
         14    1    1    2    0    0  0.10593103927E-01  0.20784036752E-01 -0.57967952261E-02  0.24037322426E-01  0.00000000000E+00 0.  1.
     999901    1    3    3    0    0  0.41980790978E-01 -0.10287488197E+00  0.87496529347E-01  0.89129191110E+00  0.88000000000E+00 0. -1.
        -11    1    4    4    0    0 -0.44826849976E-01  0.75308428972E-01 -0.78883526308E-01  0.11791385753E+00  0.51100000000E-03 0.  1.
         11    1    4    4    0    0 -0.77470449293E-02  0.67824162493E-02 -0.28162078127E-02  0.10686908943E-01  0.51100000000E-03 0. -1.
</event>
<event>
 8    1  0.1112929E+005  0.1043930E+01  0.7957747E-01            NaN
         13   -1    0    0    0    0  0.00000000000E+00  0.00000000000E+00  0.74505805969E-08  0.10566000000E+00  0.10566000000E+00 0. -1.
     999900   -1    0    0    0    0 -0.00000000000E+00 -0.00000000000E+00 -0.74505805969E-08  0.93827000000E+00  0.93827000000E+00 0.  1.
     999902    2    1    2    0    0 -0.75869759102E-02  0.29502706263E-02 -0.22173987122E-01  0.10203089923E+01  0.10200355326E+01 0.  0.
     999903    2    3    3    0    0 -0.67027055667E-01 -0.54053454669E-01 -0.99459104711E-01  0.13309112887E+00  0.20167620592E-01 0.  0.
         14    1    1    2    0    0  0.75869759102E-02 -0.29502706263E-02  0.22173987122E-01  0.23621007707E-01  0.00000000000E+00 0. -1.
     999901    1    3    3    0    0  0.59440079756E-01  0.57003725296E-01  0.77285117589E-01  0.88721786342E+00  0.88000000000E+00 0. -1.
        -11    1    4    4    0    0 -0.20502528985E-01 -0.26571643298E-01 -0.47195924327E-01  0.57914784955E-01  0.51100000000E-03 0.  1.
         11    1    4    4    0    0 -0.46524526681E-01 -0.27481811371E-01 -0.52263180385E-01  0.75176343913E-01  0.51100000000E-03 0. -1.
</event>
<event>
 8    1  0.1112929E+005  0.1043930E+01  0.7957747E-01            NaN
         13   -1    0    0    0    0  0.00000000000E+00  0.00000000000E+00  0.74505805969E-08  0.10566000000E+00  0.10566000000E+00 0.  1.
     999900   -1    0    0    0    0 -0.00000000000E+00 -0.00000000000E+00 -0.74505805969E-08  0.93827000000E+00  0.93827000000E+00 0. -1.
     999902    2    1    2    0    0 -0.22574738313E-01 -0.12700504314E-02  0.86619227484E-02  0.10197171781E+01  0.10194296752E+01 0.  0.
     999903    2    3    3    0    0  0.84208353130E-01  0.34115262507E-01 -0.86935871813E-01  0.12742031758E+00  0.20571671104E-01 0.  0.
         14    1    1    2    0    0  0.22574738313E-01  0.12700504314E-02 -0.86619227484E-02  0.24212821886E-01  0.00000000000E+00 0. -1.
     999901    1    3    3    0    0 -0.10678309144E+00 -0.35385312939E-01  0.95597794561E-01  0.89229686053E+00  0.88000000000E+00 0.  1.
        -11    1    4    4    0    0  0.49545020815E-01  0.15122360973E-01 -0.36649599243E-01  0.63457459251E-01  0.51100000000E-03 0. -1.
         11    1    4    4    0    0  0.34663332316E-01  0.18992901534E-01 -0.50286272570E-01  0.63962858331E-01  0.51100000000E-03 0.  1.
</event>
<event>
 8    1  0.1112929E+005  0.1043930E+01  0.7957747E-01            NaN
         13   -1    0    0    0    0  0.00000000000E+00  0.00000000000E+00  0.74505805969E-08  0.10566000000E+00  0.10566000000E+00 0. -1.
     999900   -1    0    0    0    0 -0.00000000000E+00 -0.00000000000E+00 -0.74505805969E-08  0.93827000000E+00  0.93827000000E+00 0.  1.
     999902    2    1    2    0    0  0.10934741475E-01  0.16447013023E-01  0.13185351165E-01  0.10201828677E+01  0.10199064453E+01 0.  0.
     999903    2    3    3    0    0  0.45511587338E-01 -0.87030580016E-01  0.83712088612E-01  0.13064523990E+00  0.20367584247E-01 0.  0.
         14    1    1    2    0    0 -0.10934741475E-01 -0.16447013023E-01 -0.13185351165E-01  0.23747132329E-01  0.00000000000E+00 0. -1.
     999901    1    3    3    0    0 -0.34576845863E-01  0.10347759304E+00 -0.70526737446E-01  0.88953762777E+00  0.88000000000E+00 0.  1.
        -11    1    4    4    0    0  0.36359206381E-01 -0.48354208728E-01  0.48435339539E-01  0.77500739530E-01  0.51100000000E-03 0. -1.
         11    1    4    4    0    0  0.91523809575E-02 -0.38676371288E-01  0.35276749072E-01  0.53144500367E-01  0.51100000000E-03 0.  1.
</event>
<event>
 8    1  0.1112929E+005  0.1043930E+01  0.7957747E-01            NaN
         13   -1    0    0    0    0  0.00000000000E+00  0.00000000000E+00  0.74505805969E-08  0.10566000000E+00  0.10566000000E+00 0. -1.
     999900   -1    0    0    0    0 -0.00000000000E+00 -0.00000000000E+00 -0.74505805969E-08  0.93827000000E+00  0.93827000000E+00 0.  1.
     999902    2    1    2    0    0 -0.38148555185E-03 -0.57412953398E-02  0.21891116243E-01  0.10212953148E+01  0.10210444609E+01 0.  0.
     999903    2    3    3    0    0 -0.37334131506E-01 -0.27427881793E-01  0.12451714267E+00  0.13429593072E+00  0.19615099128E-01 0.  0.
         14    1    1    2    0    0  0.38148555185E-03  0.57412953398E-02 -0.21891116243E-01  0.22634685193E-01  0.00000000000E+00 0.  1.
     999901    1    3    3    0    0  0.36952645954E-01  0.21686586453E-01 -0.10262602643E+00  0.88699938409E+00  0.88000000000E+00 0.  1.
        -11    1    4    4    0    0 -0.28342216227E-01 -0.89847171325E-02  0.76483793731E-01  0.82061185630E-01  0.51100000000E-03 0. -1.
         11    1    4    4    0    0 -0.89919152790E-02 -0.18443164660E-01  0.48033348939E-01  0.52234745087E-01  0.51100000000E-03 0.  1.
</event>
<event>
 8    1  0.1112929E+005  0.1043930E+01  0.7957747E-01            NaN
         13   -1    0    0    0    0  0.00000000000E+00  0.00000000000E+00  0.74505805969E-08  0.10566000000E+00  0.10566000000E+00 0.  1.
     999900   -1    0    0    0    0 -0.00000000000E+00 -0.00000000000E+00 -0.74505805969E-08  0.93827000000E+00  0.93827000000E+00 0. -1.
     999902    2    1    2    0    0 -0.25357988878E-01 -0.11016930784E-02 -0.65121191790E-02  0.10177260113E+01  0.10173886106E+01 0.  0.
     999903    2    3    3    0    0  0.22678195831E-01  0.87793749704E-01  0.86912271069E-01  0.12703078201E+00  0.19000885829E-01 0.  0.
         14    1    1    2    0    0  0.25357988878E-01  0.11016930784E-02  0.65121191790E-02  0.26203988700E-01  0.00000000000E+00 0. -1.
     999901    1    3    3    0    0 -0.48036184708E-01 -0.88895442782E-01 -0.93424390248E-01  0.89069522929E+00  0.88000000000E+00 0. -1.
        -11    1    4    4    0    0  0.31763237051E-02  0.25683335464E-01  0.36229978226E-01  0.44526342721E-01  0.51100000000E-03 0. -1.
         11    1    4    4    0    0  0.19501872126E-01  0.62110414240E-01  0.50682292843E-01  0.82504439288E-01  0.51100000000E-03 0.  1.
</event>
<event>
 8    1  0.1112929E+005  0.1043930E+01  0.7957747E-01            NaN
         13   -1    0    0    0    0  0.00000000000E+00  0.00000000000E+00  0.74505805969E-08  0.10566000000E+00  0.10566000000E+00 0. -1.
     999900   -1    0    0    0    0 -0.00000000000E+00 -0.00000000000E+00 -0.74505805969E-08  0.93827000000E+00  0.93827000000E+00 0.  1.
     999902    2    1    2    0    0 -0.17951014639E-01 -0.15037863041E-01 -0.60982159020E-02  0.10197315602E+01  0.10194444028E+01 0.  0.
     999903    2    3    3    0    0  0.12062420591E-01  0.78922577504E-01  0.98203847489E-01  0.12809918579E+00  0.19777019670E-01 0.  0.
         14    1    1    2    0    0  0.17951014639E-01  0.15037863041E-01  0.60982159020E-02  0.24198439797E-01  0.00000000000E+00 0.  1.
     999901    1    3    3    0    0 -0.30013435230E-01 -0.93960440545E-01 -0.10430206339E+00  0.89163237442E+00  0.88000000000E+00 0.  1.
        -11    1    4    4    0    0  0.45764953556E-02  0.19246534969E-01  0.38840860047E-01  0.43591822034E-01  0.51100000000E-03 0.  1.
         11    1    4    4    0    0  0.74859252353E-02  0.59676042535E-01  0.59362987442E-01  0.84507363752E-01  0.51100000000E-03 0. -1.
</event>
<event>
 8    1  0.1112929E+005  0.1043930E+01  0.7957747E-01            NaN
         13   -1    0    0    0    0  0.00000000000E+00  0.00000000000E+00  0.74505805969E-08  0.10566000000E+00  0.10566000000E+00 0. -1.
     999900   -1    0    0    0    0 -0.00000000000E+00 -0.00000000000E+00 -0.74505805969E-08  0.93827000000E+00  0.93827000000E+00 0.  1.
     999902    2    1    2    0    0  0.15169164722E-01  0.12664962299E-01  0.13032162900E-01  0.10202584538E+01  0.10199838089E+01 0.  0.
     999903    2    3    3    0    0  0.11800713026E+00 -0.39365240809E-01  0.40395314168E-01  0.13232178309E+00  0.20049137080E-01 0.  0.
         14    1    1    2    0    0 -0.15169164722E-01 -0.12664962299E-01 -0.13032162900E-01  0.23671546173E-01  0.00000000000E+00 0.  1.
     999901    1    3    3    0    0 -0.10283796554E+00  0.52030203107E-01 -0.27363151269E-01  0.88793667074E+00  0.88000000000E+00 0.  1.
        -11    1    4    4    0    0  0.30151213167E-01 -0.10469712573E-01  0.19818768490E-01  0.37573331530E-01  0.51100000000E-03 0.  1.
         11    1    4    4    0    0  0.87855917092E-01 -0.28895528236E-01  0.20576545678E-01  0.94748451561E-01  0.51100000000E-03 0. -1.
</event>
<event>
 8    1  0.1112929E+005  0.1043930E+01  0.7957747E-01            NaN
         13   -1    0    0    0    0  0.00000000000E+00  0.00000000000E+00  0.74505805969E-08  0.10566000000E+00  0.10566000000E+00 0. -1.
     999900   -1    0    0    0    0 -0.00000000000E+00 -0.00000000000E+00 -0.74505805969E-08  0.93827000000E+00  0.93827000000E+00 0.  1.
     999902    2    1    2    0    0  0.11065733089E-01  0.19387907374E-01  0.70237026483E-02  0.10205275685E+01  0.10202592045E+01 0.  0.
     999903    2    3    3    0    0  0.30985759254E-02 -0.17664113231E-01  0.12830471049E+00  0.13140136223E+00  0.21968094849E-01 0.  0.
         14    1    1    2    0    0 -0.11065733089E-01 -0.19387907374E-01 -0.70237026483E-02  0.23402431498E-01  0.00000000000E+00 0.  1.
     999901    1    3    3    0    0  0.79671571634E-02  0.37052020605E-01 -0.12128100784E+00  0.88912620628E+00  0.88000000000E+00 0.  1.
        -11    1    4    4    0    0  0.12448531654E-01 -0.10974690707E-01  0.67057501388E-01  0.69082410133E-01  0.51100000000E-03 0. -1.
         11    1    4    4    0    0 -0.93499557281E-02 -0.66894225237E-02  0.61247209104E-01  0.62318952092E-01  0.51100000000E-03 0.  1.
</event>
<event>
 8    1  0.1112929E+005  0.1043930E+01  0.7957747E-01            NaN
         13   -1    0    0    0    0  0.00000000000E+00  0.00000000000E+00  0.74505805969E-08  0.10566000000E+00  0.10566000000E+00 0.  1.
     999900   -1    0    0    0    0 -0.00000000000E+00 -0.00000000000E+00 -0.74505805969E-08  0.93827000000E+00  0.93827000000E+00 0. -1.
     999902    2    1    2    0    0 -0.21037140457E-01  0.50489418067E-02 -0.94054732986E-02  0.10203394082E+01  0.10200666606E+01 0.  0.
     999903    2    3    3    0    0 -0.10187556977E+00 -0.35224135934E-01 -0.75776764296E-01  0.13323066591E+00  0.19721076606E-01 0.  0.
         14    1    1    2    0    0  0.21037140457E-01 -0.50489418067E-02  0.94054732986E-02  0.23590591768E-01  0.00000000000E+00 0.  1.
     999901    1    3    3    0    0  0.80838429311E-01  0.40273077740E-01  0.66371290998E-01  0.88710874233E+00  0.88000000000E+00 0.  1.
        -11    1    4    4    0    0 -0.66756075227E-01 -0.25836892271E-01 -0.39003656609E-01  0.81519721122E-01  0.51100000000E-03 0.  1.
         11    1    4    4    0    0 -0.35119494542E-01 -0.93872436623E-02 -0.36773107687E-01  0.51710944784E-01  0.51100000000E-03 0. -1.
</event>
<event>
 8    1  0.1112929E+005  0.1043930E+01  0.7957747E-01            NaN
         13   -1    0    0    0    0  0.00000000000E+00  0.00000000000E+00  0.74505805969E-08  0.10566000000E+00  0.10566000000E+00 0. -1.
     999900   -1    0    0    0    0 -0.00000000000E+00 -0.00000000000E+00 -0.74505805969E-08  0.93827000000E+00  0.93827000000E+00 0.  1.
     999902    2    1    2    0    0 -0.14381570496E-03 -0.23299338847E-01 -0.30023617665E-03  0.10206282830E+01  0.10203622504E+01 0.  0.
     999903    2    3    3    0    0  0.12515833158E+00 -0.30853103486E-01  0.16842808835E-01  0.13155484876E+00  0.20161251529E-01 0.  0.
         14    1    1    2    0    0  0.14381570496E-03  0.23299338847E-01  0.30023617665E-03  0.23301717006E-01  0.00000000000E+00 0. -1.
     999901    1    3    3    0    0 -0.12530214728E+00  0.75537646387E-02 -0.17143045011E-01  0.88907343424E+00  0.88000000000E+00 0.  1.
        -11    1    4    4    0    0  0.59219740293E-01 -0.10013277559E-01  0.16917228001E-01  0.62399495928E-01  0.51100000000E-03 0. -1.
         11    1    4    4    0    0  0.65938591287E-01 -0.20839825927E-01 -0.74419166004E-04  0.69155352828E-01  0.51100000000E-03 0.  1.
</event>
<event>
 8    1  0.1112929E+005  0.1043930E+01  0.7957747E-01            NaN
         13   -1    0    0    0    0  0.00000000000E+00  0.00000000000E+00  0.74505805969E-08  0.10566000000E+00  0.10566000000E+00 0.  1.
     999900   -1    0    0    0    0 -0.00000000000E+00 -0.00000000000E+00 -0.74505805969E-08  0.93827000000E+00  0.93827000000E+00 0.  1.
     999902    2    1    2    0    0  0.20898684769E-01 -0.11618025497E-01  0.25071454351E-03  0.10200177354E+01  0.10197374094E+01 0.  0.
     999903    2    3    3    0    0  0.13041934649E+00 -0.11518848850E-01  0.12744389666E-01  0.13314069931E+00  0.20545961378E-01 0.  0.
         14    1    1    2    0    0 -0.20898684769E-01  0.11618025497E-01 -0.25071454351E-03  0.23912264621E-01  0.00000000000E+00 0.  1.
     999901    1    3    3    0    0 -0.10952066172E+00 -0.99176647256E-04 -0.12493675122E-01  0.88687703606E+00  0.88000000000E+00 0.  1.
        -11    1    4    4    0    0  0.64759316386E-01 -0.86173912575E-02 -0.35377742772E-02  0.65427864543E-01  0.51100000000E-03 0. -1.
         11    1    4    4    0    0  0.65660030102E-01 -0.29014575926E-02  0.16282163943E-01  0.67712834772E-01  0.51100000000E-03 0.  1.
</event>
<event>
 8    1  0.1112929E+005  0.1043930E+01  0.7957747E-01            NaN
         13   -1    0    0    0    0  0.00000000000E+00  0.00000000000E+00  0.74505805969E-08  0.10566000000E+00  0.10566000000E+00 0.  1.
     999900   -1    0    0    0    0 -0.00000000000E+00 -0.00000000000E+00 -0.74505805969E-08  0.93827000000E+00  0.93827000000E+00 0. -1.
     999902    2    1    2    0    0 -0.21394451498E-01 -0.90525050618E-02 -0.17734646468E-02  0.10206315971E+01  0.10203656410E+01 0.  0.
     999903    2    3    3    0    0  0.11861422566E+00 -0.18729298211E-01 -0.41665368335E-01  0.12861846151E+00  0.19661754310E-01 0.  0.
         14    1    1    2    0    0  0.21394451498E-01  0.90525050618E-02  0.17734646468E-02  0.23298402942E-01  0.00000000000E+00 0. -1.
     999901    1    3    3    0    0 -0.14000867716E+00  0.96767931495E-02  0.39891903689E-01  0.89201313555E+00  0.88000000000E+00 0. -1.
        -11    1    4    4    0    0  0.30944773576E-01 -0.90175336505E-02 -0.32176935623E-02  0.32396135536E-01  0.51100000000E-03 0.  1.
         11    1    4    4    0    0  0.87669452085E-01 -0.97117645608E-02 -0.38447674773E-01  0.96222325976E-01  0.51100000000E-03 0. -1.
</event>
<event>
 8    1  0.1112929E+005  0.1043930E+01  0.7957747E-01            NaN
         13   -1    0    0    0    0  0.00000000000E+00  0.00000000000E+00  0.74505805969E-08  0.10566000000E+00  0.10566000000E+00 0.  1.
     999900   -1    0    0    0    0 -0.00000000000E+00 -0.00000000000E+00 -0.74505805969E-08  0.93827000000E+00  0.93827000000E+00 0.  1.
     999902    2    1    2    0    0  0.55376786870E-04  0.79021711301E-02 -0.22069067419E-01  0.10204887732E+01  0.10202195083E+01 0.  0.
     999903    2    3    3    0    0 -0.11235519764E+00  0.42125374767E-01 -0.51903450157E-01  0.13217719767E+00  0.19457795601E-01 0.  0.
         14    1    1    2    0    0 -0.55376786870E-04 -0.79021711301E-02  0.22069067419E-01  0.23441226758E-01  0.00000000000E+00 0. -1.
     999901    1    3    3    0    0  0.11241057442E+00 -0.34223203637E-01  0.29834382738E-01  0.88831157558E+00  0.88000000000E+00 0.  1.
        -11    1    4    4    0    0 -0.48202893998E-01  0.27640134311E-01 -0.19789302216E-01  0.58986215489E-01  0.51100000000E-03 0.  1.
         11    1    4    4    0    0 -0.64152303637E-01  0.14485240456E-01 -0.32114147941E-01  0.73190982177E-01  0.51100000000E-03 0. -1.
</event>
<event>
 8    1  0.1112929E+005  0.1043930E+01  0.7957747E-01            NaN
         13   -1    0    0    0    0  0.00000000000E+00  0.00000000000E+00  0.74505805969E-08  0.10566000000E+00  0.10566000000E+00 0.  1.
     999900   -1    0    0    0    0 -0.00000000000E+00 -0.00000000000E+00 -0.74505805969E-08  0.93827000000E+00  0.93827000000E+00 0.  1.
     999902    2    1    2    0    0  0.34853052289E-02 -0.10590258857E-01  0.19746531442E-01  0.10212534385E+01  0.10210016451E+01 0.  0.
     999903    2    3    3    0    0 -0.76322980382E-01  0.10276349569E+00 -0.91015122631E-02  0.12993382935E+00  0.20357531835E-01 0.  0.
         14    1    1    2    0    0 -0.34853052289E-02  0.10590258857E-01 -0.19746531442E-01  0.22676561450E-01  0.00000000000E+00 0.  1.
     999901    1    3    3    0    0  0.79808285611E-01 -0.11335375455E+00  0.28848043705E-01  0.89131960920E+00  0.88000000000E+00 0. -1.
        -11    1    4    4    0    0 -0.61909231164E-01  0.71897369018E-01 -0.12478885413E-01  0.95697274137E-01  0.51100000000E-03 0.  1.
         11    1    4    4    0    0 -0.14413749218E-01  0.30866126674E-01  0.33773731496E-02  0.34236555211E-01  0.51100000000E-03 0. -1.
</event>
<event>
 8    1  0.1112929E+005  0.1043930E+01  0.7957747E-01            NaN
         13   -1    0    0    0    0  0.00000000000E+00  0.00000000000E+00  0.74505805969E-08  0.10566000000E+00  0.10566000000E+00 0. -1.
     999900   -1    0    0    0    0 -0.00000000000E+00 -0.00000000000E+00 -0.74505805969E-08  0.93827000000E+00  0.93827000000E+00 0.  1.
     999902    2    1    2    0    0 -0.13843744221E-01 -0.84822661308E-02  0.17488475972E-01  0.10200669557E+01  0.10197877961E+01 0.  0.
     999903    2    3    3    0    0 -0.37509129072E-02  0.44324955840E-01 -0.11800987691E+00  0.12807465101E+00  0.22316230134E-01 0.  0.
         14    1    1    2    0    0  0.13843744221E-01  0.84822661308E-02 -0.17488475972E-01  0.23863044328E-01  0.00000000000E+00 0.  1.
     999901    1    3    3    0    0 -0.10092831313E-01 -0.52807221971E-01  0.13549835288E+00  0.89199230466E+00  0.88000000000E+00 0. -1.
        -11    1    4    4    0    0 -0.18857604572E-02  0.45742661847E-01 -0.10095202396E+00  0.11084908420E+00  0.51100000000E-03 0.  1.
         11    1    4    4    0    0 -0.18651524500E-02 -0.14177060068E-02 -0.17057852944E-01  0.17225566813E-01  0.51100000000E-03 0. -1.
</event>
<event>
 8    1  0.1112929E+005  0.1043930E+01  0.7957747E-01            NaN
         13   -1    0    0    0    0  0.00000000000E+00  0.00000000000E+00  0.74505805969E-08  0.10566000000E+00  0.10566000000E+00 0. -1.
     999900   -1    0    0    0    0 -0.00000000000E+00 -0.00000000000E+00 -0.74505805969E-08  0.93827000000E+00  0.93827000000E+00 0.  1.
     999902    2    1    2    0    0  0.15711898495E-01 -0.40988747059E-02  0.16008615430E-01  0.10211278006E+01  0.10208731777E+01 0.  0.
     999903    2    3    3    0    0  0.11149285277E+00 -0.41472680653E-01  0.58103323922E-01  0.13414259384E+00  0.21624055407E-01 0.  0.
         14    1    1    2    0    0 -0.15711898495E-01  0.40988747059E-02 -0.16008615430E-01  0.22802199371E-01  0.00000000000E+00 0.  1.
     999901    1    3    3    0    0 -0.95780954279E-01  0.37373805947E-01 -0.42094708491E-01  0.88698520679E+00  0.88000000000E+00 0.  1.
        -11    1    4    4    0    0  0.84867584591E-01 -0.27202727063E-01  0.52434676503E-01  0.10340286115E+00  0.51100000000E-03 0.  1.
         11    1    4    4    0    0  0.26625268183E-01 -0.14269953589E-01  0.56686474188E-02  0.30739732689E-01  0.51100000000E-03 0. -1.
</event>
<event>
 8    1  0.1112929E+005  0.1043930E+01  0.7957747E-01            NaN
         13   -1    0    0    0    0  0.00000000000E+00  0.00000000000E+00  0.74505805969E-08  0.10566000000E+00  0.10566000000E+00 0. -1.
     999900   -1    0    0    0    0 -0.00000000000E+00 -0.00000000000E+00 -0.74505805969E-08  0.93827000000E+00  0.93827000000E+00 0.  1.
     999902    2    1    2    0    0  0.21891872088E-01  0.46138891624E-02 -0.62861882279E-02  0.10206908477E+01  0.10204262582E+01 0.  0.
     999903    2    3    3    0    0  0.59590062432E-01  0.91156749995E-01 -0.73779615152E-01  0.13307258348E+00  0.20108511925E-01 0.  0.
         14    1    1    2    0    0 -0.21891872088E-01 -0.46138891624E-02  0.62861882279E-02  0.23239152290E-01  0.00000000000E+00 0. -1.
     999901    1    3    3    0    0 -0.37698190344E-01 -0.86542860833E-01  0.67493426925E-01  0.88761826423E+00  0.88000000000E+00 0. -1.
        -11    1    4    4    0    0  0.37687643239E-01  0.45795016375E-01 -0.48994279105E-01  0.76930114284E-01  0.51100000000E-03 0.  1.
         11    1    4    4    0    0  0.21902419193E-01  0.45361733620E-01 -0.24785336047E-01  0.56142469196E-01  0.51100000000E-03 0. -1.
</event>
<event>
 8    1  0.1112929E+005  0.1043930E+01  0.7957747E-01            NaN
         13   -1    0    0    0    0  0.00000000000E+00  0.00000000000E+00  0.74505805969E-08  0.10566000000E+00  0.10566000000E+00 0.  1.
     999900   -1    0    0    0    0 -0.00000000000E+00 -0.00000000000E+00 -0.74505805969E-08  0.93827000000E+00  0.93827000000E+00 0. -1.
     999902    2    1    2    0    0  0.12949137914E-01  0.35469462773E-02  0.19622487207E-01  0.10201538985E+01  0.10198767933E+01 0.  0.
     999903    2    3    3    0    0 -0.12911304261E-01  0.48221170255E-01 -0.11634486664E+00  0.12821686588E+00  0.20284320644E-01 0.  0.
         14    1    1    2    0    0 -0.12949137914E-01 -0.35469462773E-02 -0.19622487207E-01  0.23776101548E-01  0.00000000000E+00 0. -1.
     999901    1    3    3    0    0  0.25860442174E-01 -0.44674223978E-01  0.13596735385E+00  0.89193703257E+00  0.88000000000E+00 0.  1.
        -11    1    4    4    0    0 -0.11451276768E-01  0.30284107524E-01 -0.94587510865E-01  0.99976583462E-01  0.51100000000E-03 0. -1.
         11    1    4    4    0    0 -0.14600274931E-02  0.17937062732E-01 -0.21757355778E-01  0.28240282420E-01  0.51100000000E-03 0.  1.
</event>
<event>
 8    1  0.1112929E+005  0.1043930E+01  0.7957747E-01            NaN
         13   -1    0    0    0    0  0.00000000000E+00  0.00000000000E+00  0.74505805969E-08  0.10566000000E+00  0.10566000000E+00 0.  1.
     999900   -1    0    0    0    0 -0.00000000000E+00 -0.00000000000E+00 -0.74505805969E-08  0.93827000000E+00  0.93827000000E+00 0. -1.
     999902    2    1    2    0    0  0.11696036974E-01  0.12334844935E-01  0.17085212314E-01  0.10198291668E+01  0.10195443489E+01 0.  0.
     999903    2    3    3    0    0  0.29480575767E-02 -0.12506719737E+00  0.25875539121E-01  0.12908053885E+00  0.18486402635E-01 0.  0.
         14    1    1    2    0    0 -0.11696036974E-01 -0.12334844935E-01 -0.17085212314E-01  0.24100833187E-01  0.00000000000E+00 0. -1.
     999901    1    3    3    0    0  0.87479793972E-02  0.13740204231E+00 -0.87903268063E-02  0.89074862796E+00  0.88000000000E+00 0. -1.
        -11    1    4    4    0    0 -0.78664539702E-02 -0.54725973641E-01  0.11387934564E-01  0.56451390272E-01  0.51100000000E-03 0. -1.
         11    1    4    4    0    0  0.10814511547E-01 -0.70341223733E-01  0.14487604557E-01  0.72629148577E-01  0.51100000000E-03 0.  1.
</event>
<event>
 8    1  0.1112929E+005  0.1043930E+01  0.7957747E-01            NaN
         13   -1    0    0    0    0  0.00000000000E+00  0.00000000000E+00  0.74505805969E-08  0.10566000000E+00  0.10566000000E+00 0.  1.
     999900   -1    0    0    0    0 -0.00000000000E+00 -0.00000000000E+00 -0.74505805969E-08  0.93827000000E+00  0.93827000000E+00 0.  1.
     999902    2    1    2    0    0 -0.22110952381E-01 -0.15596886843E-02  0.89787026661E-02  0.10200146504E+01  0.10197342512E+01 0.  0.
     999903    2    3    3    0    0 -0.44458547427E-01 -0.39890558708E-01  0.11642715186E+00  0.13236954125E+00  0.19964835241E-01 0.  0.
         14    1    1    2    0    0  0.22110952381E-01  0.15596886843E-02 -0.89787026661E-02  0.23915349581E-01  0.00000000000E+00 0. -1.
     999901    1    3    3    0    0  0.22347595046E-01  0.38330870023E-01 -0.10744844920E+00  0.88764510917E+00  0.88000000000E+00 0.  1.
        -11    1    4    4    0    0 -0.19279468650E-01 -0.12058789243E-01  0.63761167019E-01  0.67696823042E-01  0.51100000000E-03 0.  1.
         11    1    4    4    0    0 -0.25179078777E-01 -0.27831769465E-01  0.52665984843E-01  0.64672718206E-01  0.51100000000E-03 0. -1.
</event>
<event>
 8    1  0.1112929E+005  0.1043930E+01  0.7957747E-01            NaN
         13   -1    0    0    0    0  0.00000000000E+00  0.00000000000E+00  0.74505805969E-08  0.10566000000E+00  0.10566000000E+00 0. -1.
     999900   -1    0    0    0    0 -0.00000000000E+00 -0.00000000000E+00 -0.74505805969E-08  0.93827000000E+00  0.93827000000E+00 0. -1.
     999902    2    1    2    0    0  0.48751512029E-02 -0.11600650978E-01 -0.20730848629E-01  0.10196790147E+01  0.10193905938E+01 0.  0.
     999903    2    3    3    0    0  0.11940137708E+00 -0.40246223765E-01 -0.34307036960E-01  0.13169188748E+00  0.17009793234E-01 0.  0.
         14    1    1    2    0    0 -0.48751512029E-02  0.11600650978E-01  0.20730848629E-01  0.24250985284E-01  0.00000000000E+00 0.  1.
     999901    1    3    3    0    0 -0.11452622588E+00  0.28645572787E-01  0.13576188331E-01  0.88798712724E+00  0.88000000000E+00 0.  1.
        -11    1    4    4    0    0  0.35510301511E-01 -0.19171306355E-01 -0.68202986446E-02  0.40930405512E-01  0.51100000000E-03 0.  1.
         11    1    4    4    0    0  0.83891075570E-01 -0.21074917410E-01 -0.27486738315E-01  0.90761481964E-01  0.51100000000E-03 0. -1.
</event>
<event>
 8    1  0.1112929E+005  0.1043930E+01  0.7957747E-01            NaN
         13   -1    0    0    0    0  0.00000000000E+00  0.00000000000E+00  0.74505805969E-08  0.10566000000E+00  0.10566000000E+00 0. -1.
     999900   -1    0    0    0    0 -0.00000000000E+00 -0.00000000000E+00 -0.74505805969E-08  0.93827000000E+00  0.93827000000E+00 0.  1.
     999902    2    1    2    0    0  0.84914428183E-02  0.19629733936E-01  0.10984670815E-01  0.10198864136E+01  0.10196029632E+01 0.  0.
     999903    2    3    3    0    0 -0.11623963620E+00  0.28243041803E-01  0.47910551002E-01  0.13028225903E+00  0.19202179227E-01 0.  0.
         14    1    1    2    0    0 -0.84914428183E-02 -0.19629733936E-01 -0.10984670815E-01  0.24043586430E-01  0.00000000000E+00 0.  1.
     999901    1    3    3    0    0  0.12473107902E+00 -0.86133078672E-02 -0.36925880187E-01  0.88960415454E+00  0.88000000000E+00 0. -1.
        -11    1    4    4    0    0 -0.90013119114E-01  0.18580299136E-01  0.28427067002E-01  0.96207839534E-01  0.51100000000E-03 0. -1.
         11    1    4    4    0    0 -0.26226517085E-01  0.96627426668E-02  0.19483484000E-01  0.34074419496E-01  0.51100000000E-03 0.  1.
</event>
<event>
 8    1  0.1112929E+005  0.1043930E+01  0.7957747E-01            NaN
         13   -1    0    0    0    0  0.00000000000E+00  0.00000000000E+00  0.74505805969E-08  0.10566000000E+00  0.10566000000E+00 0. -1.
     999900   -1    0    0    0    0 -0.00000000000E+00 -0.00000000000E+00 -0.74505805969E-08  0.93827000000E+00  0.93827000000E+00 0. -1.
     999902    2    1    2    0    0  0.13643202844E-01  0.13613600928E-01 -0.12848106133E-01  0.10207666465E+01  0.10205037999E+01 0.  0.
     999903    2    3    3    0    0  0.50174985655E-01 -0.10295850813E+00 -0.61905299954E-01  0.13097440332E+00  0.14284417365E-01 0.  0.
         14    1    1    2    0    0 -0.13643202844E-01 -0.13613600928E-01  0.12848106133E-01  0.23163353499E-01  0.00000000000E+00 0. -1.
     999901    1    3    3    0    0 -0.36531782810E-01  0.11657210906E+00  0.49057193820E-01  0.88979224318E+00  0.88000000000E+00 0.  1.
        -11    1    4    4    0    0  0.46534765862E-01 -0.87297240717E-01 -0.49262578544E-01  0.11051405086E+00  0.51100000000E-03 0.  1.
         11    1    4    4    0    0  0.36402197928E-02 -0.15661267416E-01 -0.12642721410E-01  0.20460352461E-01  0.51100000000E-03 0. -1.
</event>
<event>
 8    1  0.1112929E+005  0.1043930E+01  0.7957747E-01            NaN
         13   -1    0    0    0    0  0.00000000000E+00  0.00000000000E+00  0.74505805969E-08  0.10566000000E+00  0.10566000000E+00 0.  1.
     999900   -1    0    0    0    0 -0.00000000000E+00 -0.00000000000E+00 -0.74505805969E-08  0.93827000000E+00  0.93827000000E+00 0. -1.
     999902    2    1    2    0    0 -0.20488744660E-01 -0.10283599838E-01 -0.30669895562E-02  0.10208010677E+01  0.10205390107E+01 0.  0.
     999903    2    3    3    0    0  0.17956762132E-01  0.12407812811E+00 -0.24464494948E-01  0.12951604924E+00  0.21402530634E-01 0.  0.
         14    1    1    2    0    0  0.20488744660E-01  0.10283599838E-01  0.30669895562E-02  0.23128932277E-01  0.00000000000E+00 0.  1.
     999901    1    3    3    0    0 -0.38445506792E-01 -0.13436172795E+00  0.21397505392E-01  0.89128501848E+00  0.88000000000E+00 0.  1.
        -11    1    4    4    0    0 -0.71850808510E-03  0.56451479420E-01 -0.48512222736E-02  0.56666403284E-01  0.51100000000E-03 0.  1.
         11    1    4    4    0    0  0.18675270217E-01  0.67626648687E-01 -0.19613272675E-01  0.72849645959E-01  0.51100000000E-03 0. -1.
</event>
<event>
 8    1  0.1112929E+005  0.1043930E+01  0.7957747E-01            NaN
         13   -1    0    0    0    0  0.00000000000E+00  0.00000000000E+00  0.74505805969E-08  0.10566000000E+00  0.10566000000E+00 0.  1.
     999900   -1    0    0    0    0 -0.00000000000E+00 -0.00000000000E+00 -0.74505805969E-08  0.93827000000E+00  0.93827000000E+00 0. -1.
     999902    2    1    2    0    0  0.15182168216E-01 -0.77780709452E-02 -0.16402760725E-01  0.10202646841E+01  0.10199901854E+01 0.  0.
     999903    2    3    3    0    0 -0.42566293131E-01  0.69956501801E-01  0.96282340448E-01  0.12780993416E+00  0.18954913137E-01 0.  0.
         14    1    1    2    0    0 -0.15182168216E-01  0.77780709452E-02  0.16402760725E-01  0.23665315945E-01  0.00000000000E+00 0.  1.
     999901    1    3    3    0    0  0.57748461347E-01 -0.77734572746E-01 -0.11268510117E+00  0.89245474990E+00  0.88000000000E+00 0. -1.
        -11    1    4    4    0    0 -0.14109928464E-01  0.89497143342E-02  0.18099922882E-01  0.24638502334E-01  0.51100000000E-03 0.  1.
         11    1    4    4    0    0 -0.28456364668E-01  0.61006787467E-01  0.78182417566E-01  0.10317143182E+00  0.51100000000E-03 0. -1.
</event>
<event>
 8    1  0.1112929E+005  0.1043930E+01  0.7957747E-01            NaN
         13   -1    0    0    0    0  0.00000000000E+00  0.00000000000E+00  0.74505805969E-08  0.10566000000E+00  0.10566000000E+00 0. -1.
     999900   -1    0    0    0    0 -0.00000000000E+00 -0.00000000000E+00 -0.74505805969E-08  0.93827000000E+00  0.93827000000E+00 0.  1.
     999902    2    1    2    0    0  0.13702381894E-01  0.11117621800E-01  0.15864691120E-01  0.10202014263E+01  0.10199254409E+01 0.  0.
     999903    2    3    3    0    0  0.13926430611E-01 -0.12673159252E+00 -0.24441544142E-02  0.12928186211E+00  0.21283420023E-01 0.  0.
         14    1    1    2    0    0 -0.13702381894E-01 -0.11117621800E-01 -0.15864691120E-01  0.23728573670E-01  0.00000000000E+00 0. -1.
     999901    1    3    3    0    0 -0.22404871686E-03  0.13784921432E+00  0.18308845535E-01  0.89091956422E+00  0.88000000000E+00 0. -1.
        -11    1    4    4    0    0  0.12828298523E-01 -0.76760927489E-01  0.79339604721E-02  0.78230518864E-01  0.51100000000E-03 0.  1.
         11    1    4    4    0    0  0.10981320875E-02 -0.49970665030E-01 -0.10378114886E-01  0.51051343246E-01  0.51100000000E-03 0. -1.
</event>
<event>
 8    1  0.1112929E+005  0.1043930E+01  0.7957747E-01            NaN
         13   -1    0    0    0    0  0.00000000000E+00  0.00000000000E+00  0.74505805969E-08  0.10566000000E+00  0.10566000000E+00 0.  1.
     999900   -1    0    0    0    0 -0.00000000000E+00 -0.00000000000E+00 -0.74505805969E-08  0.93827000000E+00  0.93827000000E+00 0. -1.
     999902    2    1    2    0    0  0.26641538955E-02 -0.20529707740E-01 -0.11475515412E-01  0.10202603133E+01  0.10199857120E+01 0.  0.
     999903    2    3    3    0    0  0.79660721665E-01  0.87636485513E-01  0.45809065790E-01  0.12845881066E+00  0.19421929853E-01 0.  0.
         14    1    1    2    0    0 -0.26641538955E-02  0.20529707740E-01  0.11475515412E-01  0.23669686729E-01  0.00000000000E+00 0.  1.
     999901    1    3    3    0    0 -0.76996567769E-01 -0.10816619325E+00 -0.57284581202E-01  0.89180150261E+00  0.88000000000E+00 0. -1.
        -11    1    4    4    0    0  0.70086536566E-02  0.10626076796E-01 -0.83286071610E-03  0.12766734591E-01  0.51100000000E-03 0. -1.
         11    1    4    4    0    0  0.72652068008E-01  0.77010408717E-01  0.46641926506E-01  0.11569207607E+00  0.51100000000E-03 0.  1.
</event>
<event>
 8    1  0.1112929E+005  0.1043930E+01  0.7957747E-01            NaN
         13   -1    0    0    0    0  0.00000000000E+00  0.00000000000E+00  0.74505805969E-08  0.10566000000E+00  0.10566000000E+00 0. -1.
     999900   -1    0    0    0    0 -0.00000000000E+00 -0.00000000000E+00 -0.74505805969E-08  0.93827000000E+00  0.93827000000E+00 0.  1.
     999902    2    1    2    0    0  0.23892018533E-01 -0.93318525885E-03 -0.37152143649E-02  0.10197328472E+01  0.10194457207E+01 0.  0.
     999903    2    3    3    0    0 -0.93687801832E-01  0.84457920392E-01 -0.58709550622E-02  0.12781283832E+00  0.19776475845E-01 0.  0.
         14    1    1    2    0    0 -0.23892018533E-01  0.93318525885E-03  0.37152143649E-02  0.24197152768E-01  0.00000000000E+00 0. -1.
     999901    1    3    3    0    0  0.11757982036E+00 -0.85391105651E-01  0.21557406974E-02  0.89192000891E+00  0.88000000000E+00 0. -1.
        -11    1    4    4    0    0 -0.33903290665E-01  0.29260835533E-01  0.73156690504E-02  0.45380720011E-01  0.51100000000E-03 0.  1.
         11    1    4    4    0    0 -0.59784511167E-01  0.55197084858E-01 -0.13186624113E-01  0.82432118309E-01  0.51100000000E-03 0. -1.
</event>
<event>
 8    1  0.1112929E+005  0.1043930E+01  0.7957747E-01            NaN
         13   -1    0    0    0    0  0.00000000000E+00  0.00000000000E+00  0.74505805969E-08  0.10566000000E+00  0.10566000000E+00 0.  1.
     999900   -1    0    0    0    0 -0.00000000000E+00 -0.00000000000E+00 -0.74505805969E-08  0.93827000000E+00  0.93827000000E+00 0.  1.
     999902    2    1    2    0    0  0.14331168013E-01  0.13910235130E-01 -0.11511520938E-01  0.10208780558E+01  0.10206177603E+01 0.  0.
     999903    2    3    3    0    0 -0.57549632934E-02  0.13096601788E-01 -0.13022693612E+00  0.13267905529E+00  0.20977040768E-01 0.  0.
         14    1    1    2    0    0 -0.14331168013E-01 -0.13910235130E-01  0.11511520938E-01  0.23051944219E-01  0.00000000000E+00 0. -1.
     999901    1    3    3    0    0  0.20086131306E-01  0.81363334259E-03  0.11871541519E+00  0.88819900049E+00  0.88000000000E+00 0. -1.
        -11    1    4    4    0    0 -0.12300106740E-01  0.34258049008E-02 -0.50095435696E-01  0.51699541232E-01  0.51100000000E-03 0.  1.
         11    1    4    4    0    0  0.65451434463E-02  0.96707968868E-02 -0.80131500428E-01  0.80979514058E-01  0.51100000000E-03 0. -1.
</event>
<event>
 8    1  0.1112929E+005  0.1043930E+01  0.7957747E-01            NaN
         13   -1    0    0    0    0  0.00000000000E+00  0.00000000000E+00  0.74505805969E-08  0.10566000000E+00  0.10566000000E+00 0. -1.
     999900   -1    0    0    0    0 -0.00000000000E+00 -0.00000000000E+00 -0.74505805969E-08  0.93827000000E+00  0.93827000000E+00 0.  1.
     999902    2    1    2    0    0 -0.20524397012E-01 -0.92167144653E-02  0.82129593971E-02  0.10199789791E+01  0.10196977329E+01 0.  0.
     999903    2    3    3    0    0 -0.54413919803E-01  0.78192393568E-02  0.11885120263E+00  0.13224053548E+00  0.18437344889E-01 0.  0.
         14    1    1    2    0    0  0.20524397012E-01  0.92167144653E-02 -0.82129593971E-02  0.23951020861E-01  0.00000000000E+00 0. -1.
     999901    1    3    3    0    0  0.33889522792E-01 -0.17035953822E-01 -0.11063824323E+00  0.88773844365E+00  0.88000000000E+00 0.  1.
        -11    1    4    4    0    0 -0.31035962556E-02  0.36251233173E-02  0.22403805270E-01  0.22912124309E-01  0.51100000000E-03 0.  1.
         11    1    4    4    0    0 -0.51310323548E-01  0.41941160395E-02  0.96447397358E-01  0.10932841118E+00  0.51100000000E-03 0. -1.
</event>
<event>
 8    1  0.1112929E+005  0.1043930E+01  0.7957747E-01            NaN
         13   -1    0    0    0    0  0.00000000000E+00  0.00000000000E+00  0.74505805969E-08  0.10566000000E+00  0.10566000000E+00 0. -1.
     999900   -1    0    0    0    0 -0.00000000000E+00 -0.00000000000E+00 -0.74505805969E-08  0.93827000000E+00  0.93827000000E+00 0.  1.
     999902    2    1    2    0    0 -0.18078563776E-01  0.15391693001E-01 -0.12999997934E-02  0.10201512557E+01  0.10198740882E+01 0.  0.
     999903    2    3    3    0    0  0.83696819488E-01  0.59032613471E-01 -0.77482670019E-01  0.12994534815E+00  0.19804603148E-01 0.  0.
         14    1    1    2    0    0  0.18078563776E-01 -0.15391693001E-01  0.12999997934E-02  0.23778744313E-01  0.00000000000E+00 0.  1.
     999901    1    3    3    0    0 -0.10177538326E+00 -0.43640920470E-01  0.76182670225E-01  0.89020590754E+00  0.88000000000E+00 0.  1.
        -11    1    4    4    0    0  0.51020414615E-01  0.42870711299E-01 -0.59292110840E-01  0.89200875128E-01  0.51100000000E-03 0.  1.
         11    1    4    4    0    0  0.32676404873E-01  0.16161902172E-01 -0.18190559179E-01  0.40744473018E-01  0.51100000000E-03 0. -1.
</event>
<event>
 8    1  0.1168942E+005  0.1043930E+01  0.7957747E-01            NaN
         13   -1    0    0    0    0  0.00000000000E+00  0.00000000000E+00  0.74505805969E-08  0.10566000000E+00  0.10566000000E+00 0. -1.
     999900   -1    0    0    0    0 -0.00000000000E+00 -0.00000000000E+00 -0.74505805969E-08  0.93827000000E+00  0.93827000000E+00 0. -1.
     999902    2    1    2    0    0  0.19888280287E-01  0.68167551587E-02  0.11624486075E-01  0.10199062509E+01  0.10196232736E+01 0.  0.
     999903    2    3    3    0    0 -0.41136715324E-01  0.31339178251E-01  0.11863162183E+00  0.13098784835E+00  0.20247994361E-01 0.  0.
         14    1    1    2    0    0 -0.19888280287E-01 -0.68167551587E-02 -0.11624486075E-01  0.24023749086E-01  0.00000000000E+00 0. -1.
     999901    1    3    3    0    0  0.61024995610E-01 -0.24522423092E-01 -0.10700713575E+00  0.88891840257E+00  0.88000000000E+00 0.  1.
        -11    1    4    4    0    0 -0.28136443821E-01  0.31125964629E-01  0.81978012381E-01  0.92093109296E-01  0.51100000000E-03 0. -1.
         11    1    4    4    0    0 -0.13000271503E-01  0.21321362129E-03  0.36653609447E-01  0.38894739049E-01  0.51100000000E-03 0.  1.
</event>
<event>
 8    1  0.1112929E+005  0.1043930E+01  0.7957747E-01            NaN
         13   -1    0    0    0    0  0.00000000000E+00  0.00000000000E+00  0.74505805969E-08  0.10566000000E+00  0.10566000000E+00 0. -1.
     999900   -1    0    0    0    0 -0.00000000000E+00 -0.00000000000E+00 -0.74505805969E-08  0.93827000000E+00  0.93827000000E+00 0.  1.
     999902    2    1    2    0    0 -0.22046488336E-01 -0.73106497431E-02 -0.20121788238E-02  0.10206160104E+01  0.10203496943E+01 0.  0.
     999903    2    3    3    0    0 -0.10513946782E+00  0.74472047376E-01 -0.24755369983E-01  0.13263509532E+00  0.19463983003E-01 0.  0.
         14    1    1    2    0    0  0.22046488336E-01  0.73106497431E-02  0.20121788238E-02  0.23313989604E-01  0.00000000000E+00 0. -1.
     999901    1    3    3    0    0  0.83092979486E-01 -0.81782697119E-01  0.22743191159E-01  0.88798091507E+00  0.88000000000E+00 0. -1.
        -11    1    4    4    0    0 -0.75803950360E-01  0.62008083449E-01 -0.23584548434E-01  0.10073595857E+00  0.51100000000E-03 0.  1.
         11    1    4    4    0    0 -0.29335517462E-01  0.12463963926E-01 -0.11708215491E-02  0.31899136754E-01  0.51100000000E-03 0. -1.
</event>
<event>
 8    1  0.1112929E+005  0.1043930E+01  0.7957747E-01            NaN
         13   -1    0    0    0    0  0.00000000000E+00  0.00000000000E+00  0.74505805969E-08  0.10566000000E+00  0.10566000000E+00 0.  1.
     999900   -1    0    0    0    0 -0.00000000000E+00 -0.00000000000E+00 -0.74505805969E-08  0.93827000000E+00  0.93827000000E+00 0. -1.
     999902    2    1    2    0    0 -0.48767023738E-02 -0.82005648587E-02 -0.21538192735E-01  0.10203731488E+01  0.10201011899E+01 0.  0.
     999903    2    3    3    0    0 -0.56264663187E-02 -0.72430929724E-01 -0.11027253617E+00  0.13358124224E+00  0.20149921599E-01 0.  0.
         14    1    1    2    0    0  0.48767023738E-02  0.82005648587E-02  0.21538192735E-01  0.23556851155E-01  0.00000000000E+00 0.  1.
     999901    1    3    3    0    0  0.74976394490E-03  0.64230364866E-01  0.88734343436E-01  0.88679190661E+00  0.88000000000E+00 0.  1.
        -11    1    4    4    0    0 -0.72790171371E-02 -0.58047008882E-01 -0.72727793897E-01  0.93338268983E-01  0.51100000000E-03 0.  1.
         11    1    4    4    0    0  0.16525508184E-02 -0.14383920842E-01 -0.37544742274E-01  0.40242973256E-01  0.51100000000E-03 0. -1.
</event>
<event>
 8    1  0.1112929E+005  0.1043930E+01  0.7957747E-01            NaN
         13   -1    0    0    0    0  0.00000000000E+00  0.00000000000E+00  0.74505805969E-08  0.10566000000E+00  0.10566000000E+00 0. -1.
     999900   -1    0    0    0    0 -0.00000000000E+00 -0.00000000000E+00 -0.74505805969E-08  0.93827000000E+00  0.93827000000E+00 0. -1.
     999902    2    1    2    0    0 -0.62204100393E-02 -0.18267320927E-01 -0.13663976448E-01  0.10202848574E+01  0.10200108321E+01 0.  0.
     999903    2    3    3    0    0  0.89637855640E-01  0.73453964677E-02  0.90003583173E-01  0.12866174125E+00  0.19086609530E-01 0.  0.
         14    1    1    2    0    0  0.62204100393E-02  0.18267320927E-01  0.13663976448E-01  0.23645142573E-01  0.00000000000E+00 0. -1.
     999901    1    3    3    0    0 -0.95858265679E-01 -0.25612717395E-01 -0.10366755962E+00  0.89162311618E+00  0.88000000000E+00 0. -1.
        -11    1    4    4    0    0  0.74669323511E-01  0.63730368203E-02  0.63607409038E-01  0.98296933205E-01  0.51100000000E-03 0.  1.
         11    1    4    4    0    0  0.14968532129E-01  0.97235964737E-03  0.26396174135E-01  0.30364808041E-01  0.51100000000E-03 0. -1.
</event>
<event>
 8    1  0.1112929E+005  0.1043930E+01  0.7957747E-01            NaN
         13   -1    0    0    0    0  0.00000000000E+00  0.00000000000E+00  0.74505805969E-08  0.10566000000E+00  0.10566000000E+00 0.  1.
     999900   -1    0    0    0    0 -0.00000000000E+00 -0.00000000000E+00 -0.74505805969E-08  0.93827000000E+00  0.93827000000E+00 0.  1.
     999902    2    1    2    0    0 -0.17179038530E-01 -0.12280496582E-01 -0.90830671085E-02  0.10209423496E+01  0.10206835206E+01 0.  0.
     999903    2    3    3    0    0  0.11259280026E+00 -0.24908394873E-02 -0.61415708832E-01  0.12983333671E+00  0.20036543567E-01 0.  0.
         14    1    1    2    0    0  0.17179038530E-01  0.12280496582E-01  0.90830671085E-02  0.22987650362E-01  0.00000000000E+00 0.  1.
     999901    1    3    3    0    0 -0.12977183879E+00 -0.97896570943E-02  0.52332641723E-01  0.89110901293E+00  0.88000000000E+00 0. -1.
        -11    1    4    4    0    0  0.10182590754E+00  0.26127364505E-03 -0.48502461831E-01  0.11278888967E+00  0.51100000000E-03 0.  1.
         11    1    4    4    0    0  0.10766892725E-01 -0.27521131323E-02 -0.12913247001E-01  0.17044447036E-01  0.51100000000E-03 0. -1.
</event>
<event>
 8    1  0.1112929E+005  0.1043930E+01  0.7957747E-01            NaN
         13   -1    0    0    0    0  0.00000000000E+00  0.00000000000E+00  0.74505805969E-08  0.10566000000E+00  0.10566000000E+00 0. -1.
     999900   -1    0    0    0    0 -0.00000000000E+00 -0.00000000000E+00 -0.74505805969E-08  0.93827000000E+00  0.93827000000E+00 0.  1.
     999902    2    1    2    0    0 -0.34409133228E-02 -0.21605928866E-01  0.97622256700E-02  0.10199725983E+01  0.10196912004E+01 0.  0.
     999903    2    3    3    0    0 -0.65169410418E-01  0.10857523207E+00 -0.89194132755E-04  0.12820211633E+00  0.20003539790E-01 0.  0.
         14    1    1    2    0    0  0.34409133228E-02  0.21605928866E-01 -0.97622256700E-02  0.23957401710E-01  0.00000000000E+00 0.  1.
     999901    1    3    3    0    0  0.61728497095E-01 -0.13018116093E+00  0.98514198028E-02  0.89177048196E+00  0.88000000000E+00 0. -1.
        -11    1    4    4    0    0 -0.36951774847E-01  0.43502016548E-01 -0.35303083365E-02  0.57189013858E-01  0.51100000000E-03 0. -1.
         11    1    4    4    0    0 -0.28217635570E-01  0.65073215520E-01  0.34411142037E-02  0.71013102476E-01  0.51100000000E-03 0.  1.
</event>
<event>
 8    1  0.1112929E+005  0.1043930E+01  0.7957747E-01            NaN
         13   -1    0    0    0    0  0.00000000000E+00  0.00000000000E+00  0.74505805969E-08  0.10566000000E+00  0.10566000000E+00 0.  1.
     999900   -1    0    0    0    0 -0.00000000000E+00 -0.00000000000E+00 -0.74505805969E-08  0.93827000000E+00  0.93827000000E+00 0. -1.
     999902    2    1    2    0    0  0.14739839511E-01 -0.11641562748E-01 -0.15000927122E-01  0.10198921826E+01  0.10196088698E+01 0.  0.
     999903    2    3    3    0    0  0.55109772298E-02 -0.12693655973E+00  0.26331787887E-01  0.13136165324E+00  0.20475835086E-01 0.  0.
         14    1    1    2    0    0 -0.14739839511E-01  0.11641562748E-01  0.15000927122E-01  0.24037817425E-01  0.00000000000E+00 0. -1.
     999901    1    3    3    0    0  0.92288622810E-02  0.11529499698E+00 -0.41332715010E-01  0.88853052933E+00  0.88000000000E+00 0.  1.
        -11    1    4    4    0    0 -0.59961461863E-02 -0.70855802798E-01  0.98847700718E-02  0.71794626258E-01  0.51100000000E-03 0. -1.
         11    1    4    4    0    0  0.11507123416E-01 -0.56080756933E-01  0.16447017816E-01  0.59567026983E-01  0.51100000000E-03 0.  1.
</event>
<event>
 8    1  0.1112929E+005  0.1043930E+01  0.7957747E-01            NaN
         13   -1    0    0    0    0  0.00000000000E+00  0.00000000000E+00  0.74505805969E-08  0.10566000000E+00  0.10566000000E+00 0.  1.
     999900   -1    0    0    0    0 -0.00000000000E+00 -0.00000000000E+00 -0.74505805969E-08  0.93827000000E+00  0.93827000000E+00 0. -1.
     999902    2    1    2    0    0  0.21756380617E-01  0.44999616213E-02 -0.68270422985E-02  0.10206878345E+01  0.10204231755E+01 0.  0.
     999903    2    3    3    0    0  0.68121668115E-01 -0.10698951317E+00 -0.31101893374E-01  0.13211093218E+00  0.19966297493E-01 0.  0.
         14    1    1    2    0    0 -0.21756380617E-01 -0.44999616213E-02  0.68270422985E-02  0.23242165533E-01  0.00000000000E+00 0.  1.
     999901    1    3    3    0    0 -0.46365287499E-01  0.11148947479E+00  0.24274851076E-01  0.88857690228E+00  0.88000000000E+00 0.  1.
        -11    1    4    4    0    0  0.24694322999E-01 -0.55296338505E-01 -0.10057491371E-01  0.61391439909E-01  0.51100000000E-03 0.  1.
         11    1    4    4    0    0  0.43427345116E-01 -0.51693174667E-01 -0.21044402003E-01  0.70719492276E-01  0.51100000000E-03 0. -1.
</event>
<event>
 8    1  0.1112929E+005  0.1043930E+01  0.7957747E-01            NaN
         13   -1    0    0    0    0  0.00000000000E+00  0.00000000000E+00  0.74505805969E-08  0.10566000000E+00  0.10566000000E+00 0.  1.
     999900   -1    0    0    0    0 -0.00000000000E+00 -0.00000000000E+00 -0.74505805969E-08  0.93827000000E+00  0.93827000000E+00 0.  1.
     999902    2    1    2    0    0 -0.35812319132E-02 -0.21711086874E-01 -0.97359489042E-02  0.10198678884E+01  0.10195839958E+01 0.  0.
     999903    2    3    3    0    0 -0.73639892322E-01  0.60689881290E-01 -0.85964501405E-01  0.12997523885E+00  0.19939202062E-01 0.  0.
         14    1    1    2    0    0  0.35812319132E-02  0.21711086874E-01  0.97359489042E-02  0.24062111635E-01  0.00000000000E+00 0.  1.
     999901    1    3    3    0    0  0.70058660409E-01 -0.82400968164E-01  0.76228552501E-01  0.88989264952E+00  0.88000000000E+00 0. -1.
        -11    1    4    4    0    0 -0.38729678543E-01  0.23781660694E-01 -0.50926550651E-01  0.68259285578E-01  0.51100000000E-03 0. -1.
         11    1    4    4    0    0 -0.34910213779E-01  0.36908220596E-01 -0.35037950755E-01  0.61715953267E-01  0.51100000000E-03 0.  1.
</event>
<event>
 8    1  0.1112929E+005  0.1043930E+01  0.7957747E-01            NaN
         13   -1    0    0    0    0  0.00000000000E+00  0.00000000000E+00  0.74505805969E-08  0.10566000000E+00  0.10566000000E+00 0.  1.
     999900   -1    0    0    0    0 -0.00000000000E+00 -0.00000000000E+00 -0.74505805969E-08  0.93827000000E+00  0.93827000000E+00 0.  1.
     999902    2    1    2    0    0 -0.16071680524E-01  0.61985053353E-03  0.18008264140E-01  0.10197850066E+01  0.10194991314E+01 0.  0.
     999903    2    3    3    0    0  0.17843140566E-01  0.10087637661E+00 -0.75078245243E-01  0.12856859946E+00  0.19967995229E-01 0.  0.
         14    1    1    2    0    0  0.16071680524E-01 -0.61985053353E-03 -0.18008264140E-01  0.24144993413E-01  0.00000000000E+00 0. -1.
     999901    1    3    3    0    0 -0.33914821090E-01 -0.10025652608E+00  0.93086509384E-01  0.89121640713E+00  0.88000000000E+00 0. -1.
        -11    1    4    4    0    0  0.11325593808E-01  0.22493372990E-01 -0.23942158315E-01  0.34752107409E-01  0.51100000000E-03 0.  1.
         11    1    4    4    0    0  0.65175467577E-02  0.78383003623E-01 -0.51136086928E-01  0.93816492047E-01  0.51100000000E-03 0. -1.
</event>
<event>
 8    1  0.1112929E+005  0.1043930E+01  0.7957747E-01            NaN
         13   -1    0    0    0    0  0.00000000000E+00  0.00000000000E+00  0.74505805969E-08  0.10566000000E+00  0.10566000000E+00 0.  1.
     999900   -1    0    0    0    0 -0.00000000000E+00 -0.00000000000E+00 -0.74505805969E-08  0.93827000000E+00  0.93827000000E+00 0.  1.
     999902    2    1    2    0    0  0.21084982848E-01  0.10308802418E-01 -0.17761227746E-01  0.10144968704E+01  0.10140698156E+01 0.  0.
     999903    2    3    3    0    0  0.17600031831E-01  0.67377332810E-01 -0.10605284153E+00  0.12823259200E+00  0.18625959248E-01 0.  0.
         14    1    1    2    0    0 -0.21084982848E-01 -0.10308802418E-01  0.17761227746E-01  0.29433129634E-01  0.00000000000E+00 0. -1.
     999901    1    3    3    0    0  0.34849510161E-02 -0.57068530392E-01  0.88291613781E-01  0.88626427837E+00  0.88000000000E+00 0. -1.
        -11    1    4    4    0    0 -0.15511637955E-02  0.25082517487E-01 -0.30137426112E-01  0.39243653834E-01  0.51100000000E-03 0. -1.
         11    1    4    4    0    0  0.19151195627E-01  0.42294815323E-01 -0.75915415415E-01  0.88988938165E-01  0.51100000000E-03 0.  1.
</event>
<event>
 8    1  0.1112929E+005  0.1043930E+01  0.7957747E-01            NaN
         13   -1    0    0    0    0  0.00000000000E+00  0.00000000000E+00  0.74505805969E-08  0.10566000000E+00  0.10566000000E+00 0. -1.
     999900   -1    0    0    0    0 -0.00000000000E+00 -0.00000000000E+00 -0.74505805969E-08  0.93827000000E+00  0.93827000000E+00 0.  1.
     999902    2    1    2    0    0 -0.15917076102E-02  0.21353030371E-01  0.95175201828E-02  0.10204977865E+01  0.10202287310E+01 0.  0.
     999903    2    3    3    0    0 -0.84260820394E-01 -0.12632261301E-01  0.98113757381E-01  0.13154420194E+00  0.20447684385E-01 0.  0.
         14    1    1    2    0    0  0.15917076102E-02 -0.21353030371E-01 -0.95175201828E-02  0.23432213502E-01  0.00000000000E+00 0.  1.
     999901    1    3    3    0    0  0.82669112784E-01  0.33985291673E-01 -0.88596237199E-01  0.88895358456E+00  0.88000000000E+00 0.  1.
        -11    1    4    4    0    0 -0.19789409983E-01  0.37558279629E-02  0.15183535879E-01  0.25229504037E-01  0.51100000000E-03 0.  1.
         11    1    4    4    0    0 -0.64471410411E-01 -0.16388089264E-01  0.82930221503E-01  0.10631469790E+00  0.51100000000E-03 0. -1.
</event>
<event>
 8    1  0.1112929E+005  0.1043930E+01  0.7957747E-01            NaN
         13   -1    0    0    0    0  0.00000000000E+00  0.00000000000E+00  0.74505805969E-08  0.10566000000E+00  0.10566000000E+00 0. -1.
     999900   -1    0    0    0    0 -0.00000000000E+00 -0.00000000000E+00 -0.74505805969E-08  0.93827000000E+00  0.93827000000E+00 0.  1.
     999902    2    1    2    0    0  0.16197043023E-01 -0.35173897933E-02  0.14645126178E-01  0.10218122254E+01  0.10215728207E+01 0.  0.
     999903    2    3    3    0    0 -0.71745524404E-01  0.17662889206E-01  0.10762010063E+00  0.13230289700E+00  0.21507500291E-01 0.  0.
         14    1    1    2    0    0 -0.16197043023E-01  0.35173897933E-02 -0.14645126178E-01  0.22117774626E-01  0.00000000000E+00 0. -1.
     999901    1    3    3    0    0  0.87942567427E-01 -0.21180278999E-01 -0.92974974452E-01  0.88950932837E+00  0.88000000000E+00 0.  1.
        -11    1    4    4    0    0 -0.56234818762E-01  0.48251625145E-02  0.84784246585E-01  0.10185414387E+00  0.51100000000E-03 0. -1.
         11    1    4    4    0    0 -0.15510705643E-01  0.12837726692E-01  0.22835854046E-01  0.30448753129E-01  0.51100000000E-03 0.  1.
</event>
<event>
 8    1  0.1112929E+005  0.1043930E+01  0.7957747E-01            NaN
         13   -1    0    0    0    0  0.00000000000E+00  0.00000000000E+00  0.74505805969E-08  0.10566000000E+00  0.10566000000E+00 0. -1.
     999900   -1    0    0    0    0 -0.00000000000E+00 -0.00000000000E+00 -0.74505805969E-08  0.93827000000E+00  0.93827000000E+00 0. -1.
     999902    2    1    2    0    0 -0.23314208603E-02 -0.21169399175E-01  0.14884898147E-01  0.10179465596E+01  0.10176148873E+01 0.  0.
     999903    2    3    3    0    0  0.21540034576E-01  0.63113295618E-01  0.10811077421E+00  0.12869716653E+00  0.20682359583E-01 0.  0.
         14    1    1    2    0    0  0.23314208603E-02  0.21169399175E-01 -0.14884898147E-01  0.25983440448E-01  0.00000000000E+00 0. -1.
     999901    1    3    3    0    0 -0.23871455436E-01 -0.84282694793E-01 -0.93225876066E-01  0.88924939302E+00  0.88000000000E+00 0. -1.
        -11    1    4    4    0    0  0.19208233600E-01  0.32432446884E-01  0.71845079029E-01  0.81134433816E-01  0.51100000000E-03 0.  1.
         11    1    4    4    0    0  0.23318009762E-02  0.30680848734E-01  0.36265695185E-01  0.47562732712E-01  0.51100000000E-03 0. -1.
</event>
<event>
 7    1  0.1112929E+005  0.1043930E+01  0.7957747E-01            NaN
         13   -1    0    0    0    0  0.00000000000E+00  0.00000000000E+00  0.74505805969E-08  0.10566000000E+00  0.10566000000E+00 0. -1.
     999900   -1    0    0    0    0 -0.00000000000E+00 -0.00000000000E+00 -0.74505805969E-08  0.93827000000E+00  0.93827000000E+00 0. -1.
     999902    2    1    2    0    0 -0.94121306072E-02 -0.20354413648E-01  0.75366501533E-02  0.10202722010E+01  0.10199978788E+01 0.  0.
         14    1    1    2    0    0  0.94121306072E-02  0.20354413648E-01 -0.75366501533E-02  0.23657798990E-01  0.00000000000E+00 0.  1.
     999901    1    3    3    0    0 -0.47272837339E-01  0.10114771604E+00 -0.66962607684E-02  0.88707971543E+00  0.88000000000E+00 0. -1.
        -11    1    3    3    0    0  0.23266189823E-01 -0.30441117194E-01  0.14494905941E-01  0.40967555750E-01  0.51100000000E-03 0.  1.
         11    1    3    3    0    0  0.14594516908E-01 -0.91061012496E-01 -0.26199501890E-03  0.92224929834E-01  0.51100000000E-03 0. -1.
</event>
<event>
 8    1  0.1112929E+005  0.1043930E+01  0.7957747E-01            NaN
         13   -1    0    0    0    0  0.00000000000E+00  0.00000000000E+00  0.74505805969E-08  0.10566000000E+00  0.10566000000E+00 0. -1.
     999900   -1    0    0    0    0 -0.00000000000E+00 -0.00000000000E+00 -0.74505805969E-08  0.93827000000E+00  0.93827000000E+00 0. -1.
     999902    2    1    2    0    0  0.13566952774E-01  0.18451347568E-01  0.43392460198E-02  0.10206202705E+01  0.10203540528E+01 0.  0.
     999903    2    3    3    0    0  0.16733788457E-01  0.75293769701E-01 -0.10528319086E+00  0.13199314481E+00  0.19709605912E-01 0.  0.
         14    1    1    2    0    0 -0.13566952774E-01 -0.18451347568E-01 -0.43392460198E-02  0.23309729528E-01  0.00000000000E+00 0. -1.
     999901    1    3    3    0    0 -0.31668356836E-02 -0.56842422133E-01  0.10962243688E+00  0.88862712567E+00  0.88000000000E+00 0.  1.
        -11    1    4    4    0    0 -0.17187858718E-02  0.27500549633E-01 -0.46145828419E-01  0.53748795860E-01  0.51100000000E-03 0. -1.
         11    1    4    4    0    0  0.18452574329E-01  0.47793220068E-01 -0.59137362445E-01  0.78244348945E-01  0.51100000000E-03 0.  1.
</event>
<event>
 8    1  0.1112929E+005  0.1043930E+01  0.7957747E-01            NaN
         13   -1    0    0    0    0  0.00000000000E+00  0.00000000000E+00  0.74505805969E-08  0.10566000000E+00  0.10566000000E+00 0.  1.
     999900   -1    0    0    0    0 -0.00000000000E+00 -0.00000000000E+00 -0.74505805969E-08  0.93827000000E+00  0.93827000000E+00 0.  1.
     999902    2    1    2    0    0 -0.99078887527E-02  0.24290653448E-01  0.98391645925E-03  0.10176779487E+01  0.10173392930E+01 0.  0.
     999903    2    3    3    0    0  0.63756133154E-01  0.22838976034E-01 -0.10663761550E+00  0.12806517362E+00  0.21039113934E-01 0.  0.
         14    1    1    2    0    0  0.99078887527E-02 -0.24290653448E-01 -0.98391645925E-03  0.26252051273E-01  0.00000000000E+00 0. -1.
     999901    1    3    3    0    0 -0.73664021907E-01  0.14516774141E-02  0.10762153195E+00  0.88961277511E+00  0.88000000000E+00 0. -1.
        -11    1    4    4    0    0  0.52514772805E-01  0.19229563107E-01 -0.70173215836E-01  0.89733599069E-01  0.51100000000E-03 0.  1.
         11    1    4    4    0    0  0.11241360349E-01  0.36094129265E-02 -0.36464399659E-01  0.38331574552E-01  0.51100000000E-03 0. -1.
</event>
<event>
 8    1  0.1112929E+005  0.1043930E+01  0.7957747E-01            NaN
         13   -1    0    0    0    0  0.00000000000E+00  0.00000000000E+00  0.74505805969E-08  0.10566000000E+00  0.10566000000E+00 0.  1.
     999900   -1    0    0    0    0 -0.00000000000E+00 -0.00000000000E+00 -0.74505805969E-08  0.93827000000E+00  0.93827000000E+00 0.  1.
     999902    2    1    2    0    0 -0.81313604811E-02 -0.88163122093E-02  0.20627977680E-01  0.10200687375E+01  0.10197896202E+01 0.  0.
     999903    2    3    3    0    0 -0.69978905755E-01 -0.46694898612E-01  0.10248192485E+00  0.13329933410E+00  0.13737057336E-01 0.  0.
         14    1    1    2    0    0  0.81313604811E-02  0.88163122093E-02 -0.20627977680E-01  0.23861262486E-01  0.00000000000E+00 0. -1.
     999901    1    3    3    0    0  0.61847545274E-01  0.37878586403E-01 -0.81853947167E-01  0.88676940341E+00  0.88000000000E+00 0.  1.
        -11    1    4    4    0    0 -0.50531046657E-01 -0.35729858143E-01  0.83844355872E-01  0.10421202700E+00  0.51100000000E-03 0. -1.
         11    1    4    4    0    0 -0.19447859097E-01 -0.10965040469E-01  0.18637568975E-01  0.29087307098E-01  0.51100000000E-03 0.  1.
</event>
<event>
 8    1  0.1112929E+005  0.1043930E+01  0.7957747E-01            NaN
         13   -1    0    0    0    0  0.00000000000E+00  0.00000000000E+00  0.74505805969E-08  0.10566000000E+00  0.10566000000E+00 0. -1.
     999900   -1    0    0    0    0 -0.00000000000E+00 -0.00000000000E+00 -0.74505805969E-08  0.93827000000E+00  0.93827000000E+00 0. -1.
     999902    2    1    2    0    0 -0.50861687024E-02 -0.97839643617E-02 -0.22575716468E-01  0.10188051509E+01  0.10184953006E+01 0.  0.
     999903    2    3    3    0    0 -0.64162545590E-01  0.58888075495E-01 -0.97551848181E-01  0.13098349776E+00  0.74616292349E-02 0.  0.
         14    1    1    2    0    0  0.50861687024E-02  0.97839643617E-02  0.22575716468E-01  0.25124849149E-01  0.00000000000E+00 0. -1.
     999901    1    3    3    0    0  0.59076376888E-01 -0.68672039857E-01  0.74976131713E-01  0.88782165309E+00  0.88000000000E+00 0.  1.
        -11    1    4    4    0    0 -0.33504992771E-01  0.26333840968E-01 -0.50225373805E-01  0.65870365230E-01  0.51100000000E-03 0. -1.
         11    1    4    4    0    0 -0.30657552819E-01  0.32554234526E-01 -0.47326474376E-01  0.65113132533E-01  0.51100000000E-03 0.  1.
</event>
<event>
 8    1  0.1112929E+005  0.1043930E+01  0.7957747E-01            NaN
         13   -1    0    0    0    0  0.00000000000E+00  0.00000000000E+00  0.74505805969E-08  0.10566000000E+00  0.10566000000E+00 0.  1.
     999900   -1    0    0    0    0 -0.00000000000E+00 -0.00000000000E+00 -0.74505805969E-08  0.93827000000E+00  0.93827000000E+00 0.  1.
     999902    2    1    2    0    0 -0.10569035679E-01 -0.12670308620E-01 -0.14633846467E-01  0.10218757329E+01  0.10216377160E+01 0.  0.
     999903    2    3    3    0    0  0.77873702652E-01 -0.63266252858E-01  0.81512579914E-01  0.13079425353E+00  0.19897330397E-01 0.  0.
         14    1    1    2    0    0  0.10569035679E-01  0.12670308620E-01  0.14633846467E-01  0.22054267118E-01  0.00000000000E+00 0.  1.
     999901    1    3    3    0    0 -0.88442738331E-01  0.50595944239E-01 -0.96146426381E-01  0.89108147935E+00  0.88000000000E+00 0.  1.
        -11    1    4    4    0    0  0.21858609658E-01 -0.76919102206E-02  0.22039179607E-01  0.31983602952E-01  0.51100000000E-03 0.  1.
         11    1    4    4    0    0  0.56015092994E-01 -0.55574342638E-01  0.59473400306E-01  0.98810650579E-01  0.51100000000E-03 0. -1.
</event>
<event>
 8    1  0.1112929E+005  0.1043930E+01  0.7957747E-01            NaN
         13   -1    0    0    0    0  0.00000000000E+00  0.00000000000E+00  0.74505805969E-08  0.10566000000E+00  0.10566000000E+00 0. -1.
     999900   -1    0    0    0    0 -0.00000000000E+00 -0.00000000000E+00 -0.74505805969E-08  0.93827000000E+00  0.93827000000E+00 0. -1.
     999902    2    1    2    0    0 -0.22817765129E-01  0.30691764127E-03  0.68396356263E-02  0.10201072122E+01  0.10198290048E+01 0.  0.
     999903    2    3    3    0    0 -0.38824044846E-01 -0.11900893596E+00 -0.31022324321E-01  0.13110439896E+00  0.23570013219E-01 0.  0.
         14    1    1    2    0    0  0.22817765129E-01 -0.30691764127E-03 -0.68396356263E-02  0.23822787818E-01  0.00000000000E+00 0.  1.
     999901    1    3    3    0    0  0.16006279717E-01  0.11931585360E+00  0.37861959947E-01  0.88900281323E+00  0.88000000000E+00 0.  1.
        -11    1    4    4    0    0 -0.30067877690E-01 -0.73675997196E-01 -0.29615915097E-01  0.84909324456E-01  0.51100000000E-03 0. -1.
         11    1    4    4    0    0 -0.87561671558E-02 -0.45332938764E-01 -0.14064092240E-02  0.46195074501E-01  0.51100000000E-03 0.  1.
</event>
<event>
 8    1  0.1112929E+005  0.1043930E+01  0.7957747E-01            NaN
         13   -1    0    0    0    0  0.00000000000E+00  0.00000000000E+00  0.74505805969E-08  0.10566000000E+00  0.10566000000E+00 0. -1.
     999900   -1    0    0    0    0 -0.00000000000E+00 -0.00000000000E+00 -0.74505805969E-08  0.93827000000E+00  0.93827000000E+00 0.  1.
     999902    2    1    2    0    0 -0.35882488459E-02 -0.23666546834E-01  0.39809169029E-03  0.10199896691E+01  0.10197086768E+01 0.  0.
     999903    2    3    3    0    0 -0.96431099663E-01  0.36440966542E-01 -0.76197398505E-01  0.12976521577E+00  0.20151095733E-01 0.  0.
         14    1    1    2    0    0  0.35882488459E-02  0.23666546834E-01 -0.39809169029E-03  0.23940330946E-01  0.00000000000E+00 0. -1.
     999901    1    3    3    0    0  0.92842850817E-01 -0.60107513376E-01  0.76595490195E-01  0.89022445329E+00  0.88000000000E+00 0.  1.
        -11    1    4    4    0    0 -0.63172108812E-01  0.25768758039E-01 -0.61541521352E-01  0.91882338858E-01  0.51100000000E-03 0.  1.
         11    1    4    4    0    0 -0.33258990851E-01  0.10672208503E-01 -0.14655877153E-01  0.37882876909E-01  0.51100000000E-03 0. -1.
</event>
<event>
 8    1  0.1112929E+005  0.1043930E+01  0.7957747E-01            NaN
         13   -1    0    0    0    0  0.00000000000E+00  0.00000000000E+00  0.74505805969E-08  0.10566000000E+00  0.10566000000E+00 0.  1.
     999900   -1    0    0    0    0 -0.00000000000E+00 -0.00000000000E+00 -0.74505805969E-08  0.93827000000E+00  0.93827000000E+00 0.  1.
     999902    2    1    2    0    0  0.66620536150E-03 -0.23459806876E-01 -0.60368686592E-02  0.10196967552E+01  0.10194087612E+01 0.  0.
     999903    2    3    3    0    0 -0.34419538795E-01 -0.12166188765E+00 -0.36173412579E-01  0.13302721737E+00  0.20035099870E-01 0.  0.
         14    1    1    2    0    0 -0.66620536150E-03  0.23459806876E-01  0.60368686592E-02  0.24233244757E-01  0.00000000000E+00 0.  1.
     999901    1    3    3    0    0  0.35085744156E-01  0.98202080773E-01  0.30136543919E-01  0.88666953787E+00  0.88000000000E+00 0. -1.
        -11    1    4    4    0    0 -0.72374258366E-02 -0.87078544744E-02 -0.67024457595E-02  0.13167800213E-01  0.51100000000E-03 0.  1.
         11    1    4    4    0    0 -0.27182112958E-01 -0.11295403317E+00 -0.29470966819E-01  0.11985941716E+00  0.51100000000E-03 0. -1.
</event>
<event>
 8    1  0.1112929E+005  0.1043930E+01  0.7957747E-01            NaN
         13   -1    0    0    0    0  0.00000000000E+00  0.00000000000E+00  0.74505805969E-08  0.10566000000E+00  0.10566000000E+00 0.  1.
     999900   -1    0    0    0    0 -0.00000000000E+00 -0.00000000000E+00 -0.74505805969E-08  0.93827000000E+00  0.93827000000E+00 0. -1.
     999902    2    1    2    0    0 -0.75211980328E-02 -0.60119253768E-02 -0.23344932052E-01  0.10186773265E+01  0.10183642757E+01 0.  0.
     999903    2    3    3    0    0 -0.26010141350E-01  0.12355273068E+00  0.13155143553E-01  0.12824984677E+00  0.18252689783E-01 0.  0.
         14    1    1    2    0    0  0.75211980328E-02  0.60119253768E-02  0.23344932052E-01  0.25252673504E-01  0.00000000000E+00 0.  1.
     999901    1    3    3    0    0  0.18488943317E-01 -0.12956465606E+00 -0.36500075605E-01  0.89042747972E+00  0.88000000000E+00 0. -1.
        -11    1    4    4    0    0 -0.85513574027E-02  0.12954177869E-01  0.18243131219E-03  0.15531607768E-01  0.51100000000E-03 0.  1.
         11    1    4    4    0    0 -0.17458783948E-01  0.11059855281E+00  0.12972712241E-01  0.11271823901E+00  0.51100000000E-03 0. -1.
</event>
<event>
 8    1  0.1112929E+005  0.1043930E+01  0.7957747E-01            NaN
         13   -1    0    0    0    0  0.00000000000E+00  0.00000000000E+00  0.74505805969E-08  0.10566000000E+00  0.10566000000E+00 0. -1.
     999900   -1    0    0    0    0 -0.00000000000E+00 -0.00000000000E+00 -0.74505805969E-08  0.93827000000E+00  0.93827000000E+00 0. -1.
     999902    2    1    2    0    0 -0.50636017633E-02  0.15265334594E-01  0.94480740457E-02  0.10252769411E+01  0.10251072477E+01 0.  0.
     999903    2    3    3    0    0  0.11099313613E+00 -0.71310763377E-01 -0.34446022940E-02  0.13335160328E+00  0.19133310477E-01 0.  0.
         14    1    1    2    0    0  0.50636017633E-02 -0.15265334594E-01 -0.94480740457E-02  0.18653058898E-01  0.00000000000E+00 0.  1.
     999901    1    3    3    0    0 -0.11605673790E+00  0.86576097971E-01  0.12892676340E-01  0.89192533782E+00  0.88000000000E+00 0.  1.
        -11    1    4    4    0    0  0.51319614513E-01 -0.23084466714E-01 -0.59182165463E-02  0.56585173370E-01  0.51100000000E-03 0. -1.
         11    1    4    4    0    0  0.59673521619E-01 -0.48226296663E-01  0.24736142523E-02  0.76766429907E-01  0.51100000000E-03 0.  1.
</event>
<event>
 8    1  0.1112929E+005  0.1043930E+01  0.7957747E-01            NaN
         13   -1    0    0    0    0  0.00000000000E+00  0.00000000000E+00  0.74505805969E-08  0.10566000000E+00  0.10566000000E+00 0. -1.
     999900   -1    0    0    0    0 -0.00000000000E+00 -0.00000000000E+00 -0.74505805969E-08  0.93827000000E+00  0.93827000000E+00 0. -1.
     999902    2    1    2    0    0  0.64370773043E-02  0.21001237800E-01  0.44247664278E-02  0.10215231593E+01  0.10212773856E+01 0.  0.
     999903    2    3    3    0    0  0.98420199734E-01  0.80006925869E-01  0.38000968901E-01  0.13412813596E+00  0.21415865965E-01 0.  0.
         14    1    1    2    0    0 -0.64370773043E-02 -0.21001237800E-01 -0.44247664278E-02  0.22406840726E-01  0.00000000000E+00 0. -1.
     999901    1    3    3    0    0 -0.91983122430E-01 -0.59005688069E-01 -0.33576202473E-01  0.88739502332E+00  0.88000000000E+00 0. -1.
        -11    1    4    4    0    0  0.27104721333E-01  0.15220878231E-01  0.17298841387E-01  0.35578815143E-01  0.51100000000E-03 0. -1.
         11    1    4    4    0    0  0.71315478401E-01  0.64786047639E-01  0.20702127514E-01  0.98549320814E-01  0.51100000000E-03 0.  1.
</event>
<event>
 8    1  0.1112929E+005  0.1043930E+01  0.7957747E-01            NaN
         13   -1    0    0    0    0  0.00000000000E+00  0.00000000000E+00  0.74505805969E-08  0.10566000000E+00  0.10566000000E+00 0.  1.
     999900   -1    0    0    0    0 -0.00000000000E+00 -0.00000000000E+00 -0.74505805969E-08  0.93827000000E+00  0.93827000000E+00 0. -1.
     999902    2    1    2    0    0  0.38773128803E-02 -0.19988334011E-01  0.11165441498E-01  0.10207085845E+01  0.10204444034E+01 0.  0.
     999903    2    3    3    0    0  0.11490589556E+00  0.37590338381E-01  0.46881357298E-01  0.13114786356E+00  0.19634206918E-01 0.  0.
         14    1    1    2    0    0 -0.38773128803E-02  0.19988334011E-01 -0.11165441498E-01  0.23221415451E-01  0.00000000000E+00 0. -1.
     999901    1    3    3    0    0 -0.11102858267E+00 -0.57578672392E-01 -0.35715915800E-01  0.88956072099E+00  0.88000000000E+00 0.  1.
        -11    1    4    4    0    0  0.72814161465E-01  0.29180131705E-01  0.38607471109E-01  0.87431002182E-01  0.51100000000E-03 0.  1.
         11    1    4    4    0    0  0.42091734090E-01  0.84102066761E-02  0.82738861893E-02  0.43716861378E-01  0.51100000000E-03 0. -1.
</event>
<event>
 8    1  0.1112929E+005  0.1043930E+01  0.7957747E-01            NaN
         13   -1    0    0    0    0  0.00000000000E+00  0.00000000000E+00  0.74505805969E-08  0.10566000000E+00  0.10566000000E+00 0. -1.
     999900   -1    0    0    0    0 -0.00000000000E+00 -0.00000000000E+00 -0.74505805969E-08  0.93827000000E+00  0.93827000000E+00 0. -1.
     999902    2    1    2    0    0 -0.44600039346E-02 -0.19461952553E-01  0.12553493202E-01  0.10203450594E+01  0.10200724439E+01 0.  0.
     999903    2    3    3    0    0 -0.85267172539E-01  0.72814941098E-01  0.63091189714E-01  0.13040186886E+00  0.21251889836E-01 0.  0.
         14    1    1    2    0    0  0.44600039346E-02  0.19461952553E-01 -0.12553493202E-01  0.23584940615E-01  0.00000000000E+00 0.  1.
     999901    1    3    3    0    0  0.80807168605E-01 -0.92276893651E-01 -0.50537696513E-01  0.88994319053E+00  0.88000000000E+00 0. -1.
        -11    1    4    4    0    0 -0.69286674796E-02  0.15090640526E-01  0.65497966094E-02  0.17857626414E-01  0.51100000000E-03 0.  1.
         11    1    4    4    0    0 -0.78338505060E-01  0.57724300572E-01  0.56541393105E-01  0.11254424244E+00  0.51100000000E-03 0. -1.
</event>
<event>
 8    1  0.1112929E+005  0.1043930E+01  0.7957747E-01            NaN
         13   -1    0    0    0    0  0.00000000000E+00  0.00000000000E+00  0.74505805969E-08  0.10566000000E+00  0.10566000000E+00 0.  1.
     999900   -1    0    0    0    0 -0.00000000000E+00 -0.00000000000E+00 -0.74505805969E-08  0.93827000000E+00  0.93827000000E+00 0. -1.
     999902    2    1    2    0    0  0.10448295465E-01  0.11112704075E-01  0.19387497256E-01  0.10192615157E+01  0.10189629548E+01 0.  0.
     999903    2    3    3    0    0  0.27184814677E-01 -0.62576760719E-01  0.11035699731E+00  0.13135065401E+00  0.20480779317E-01 0.  0.
         14    1    1    2    0    0 -0.10448295465E-01 -0.11112704075E-01 -0.19387497256E-01  0.24668484344E-01  0.00000000000E+00 0.  1.
     999901    1    3    3    0    0 -0.16736519212E-01  0.73689464794E-01 -0.90969500054E-01  0.88791086165E+00  0.88000000000E+00 0. -1.
        -11    1    4    4    0    0  0.86394349945E-02 -0.30468696683E-01  0.68255792312E-01  0.75246897741E-01  0.51100000000E-03 0. -1.
         11    1    4    4    0    0  0.18545379682E-01 -0.32108064036E-01  0.42101204998E-01  0.56103756264E-01  0.51100000000E-03 0.  1.
</event>
<event>
 8    1  0.1112929E+005  0.1043930E+01  0.7957747E-01            NaN
         13   -1    0    0    0    0  0.00000000000E+00  0.00000000000E+00  0.74505805969E-08  0.10566000000E+00  0.10566000000E+00 0.  1.
     999900   -1    0    0    0    0 -0.00000000000E+00 -0.00000000000E+00 -0.74505805969E-08  0.93827000000E+00  0.93827000000E+00 0. -1.
     999902    2    1    2    0    0 -0.13592195574E-01  0.18009745665E-01 -0.40427964128E-02  0.10210074582E+01  0.10207501099E+01 0.  0.
     999903    2    3    3    0    0 -0.30644510671E-01  0.74209372947E-01  0.10352057936E+00  0.13251488122E+00  0.19939065306E-01 0.  0.
         14    1    1    2    0    0  0.13592195574E-01 -0.18009745665E-01  0.40427964128E-02  0.22922541793E-01  0.00000000000E+00 0.  1.
     999901    1    3    3    0    0  0.17052315097E-01 -0.56199627282E-01 -0.10756337577E+00  0.88849257699E+00  0.88000000000E+00 0. -1.
        -11    1    4    4    0    0 -0.30416874692E-01  0.50432145917E-01  0.71721259588E-01  0.92805106571E-01  0.51100000000E-03 0.  1.
         11    1    4    4    0    0 -0.22763597868E-03  0.23777227030E-01  0.31799319774E-01  0.39709774646E-01  0.51100000000E-03 0. -1.
</event>
<event>
 8    1  0.1112929E+005  0.1043930E+01  0.7957747E-01            NaN
         13   -1    0    0    0    0  0.00000000000E+00  0.00000000000E+00  0.74505805969E-08  0.10566000000E+00  0.10566000000E+00 0.  1.
     999900   -1    0    0    0    0 -0.00000000000E+00 -0.00000000000E+00 -0.74505805969E-08  0.93827000000E+00  0.93827000000E+00 0. -1.
     999902    2    1    2    0    0  0.12318251683E-01  0.19785312574E-01 -0.34397808527E-02  0.10203709251E+01  0.10200989142E+01 0.  0.
     999903    2    3    3    0    0 -0.74929841277E-01 -0.71010784444E-01  0.73194769737E-01  0.12811030436E+00  0.19944000256E-01 0.  0.
         14    1    1    2    0    0 -0.12318251683E-01 -0.19785312574E-01  0.34397808527E-02  0.23559074908E-01  0.00000000000E+00 0.  1.
     999901    1    3    3    0    0  0.87248092960E-01  0.90796097018E-01 -0.76634550590E-01  0.89226062073E+00  0.88000000000E+00 0.  1.
        -11    1    4    4    0    0 -0.29742546325E-02 -0.24189339856E-02  0.89396298556E-02  0.97404073426E-02  0.51100000000E-03 0.  1.
         11    1    4    4    0    0 -0.71955586645E-01 -0.68591850458E-01  0.64255139882E-01  0.11836989702E+00  0.51100000000E-03 0. -1.
</event>
<event>
 8    1  0.1112929E+005  0.1043930E+01  0.7957747E-01            NaN
         13   -1    0    0    0    0  0.00000000000E+00  0.00000000000E+00  0.74505805969E-08  0.10566000000E+00  0.10566000000E+00 0.  1.
     999900   -1    0    0    0    0 -0.00000000000E+00 -0.00000000000E+00 -0.74505805969E-08  0.93827000000E+00  0.93827000000E+00 0.  1.
     999902    2    1    2    0    0 -0.10542047993E-01 -0.39953924491E-03 -0.21250678776E-01  0.10202047865E+01  0.10199288802E+01 0.  0.
     999903    2    3    3    0    0  0.38963355094E-02 -0.24542446848E-01 -0.12924219931E+00  0.13315714662E+00  0.20242689661E-01 0.  0.
         14    1    1    2    0    0  0.10542047993E-01  0.39953924491E-03  0.21250678776E-01  0.23725213507E-01  0.00000000000E+00 0.  1.
     999901    1    3    3    0    0 -0.14438383503E-01  0.24142907603E-01  0.10799152053E+00  0.88704763988E+00  0.88000000000E+00 0. -1.
        -11    1    4    4    0    0  0.11177471929E-02 -0.27746288500E-01 -0.11110997637E+00  0.11452857222E+00  0.51100000000E-03 0. -1.
         11    1    4    4    0    0  0.27785883165E-02  0.32038416516E-02 -0.18132222940E-01  0.18628574398E-01  0.51100000000E-03 0.  1.
</event>
<event>
 8    1  0.1112929E+005  0.1043930E+01  0.7957747E-01            NaN
         13   -1    0    0    0    0  0.00000000000E+00  0.00000000000E+00  0.74505805969E-08  0.10566000000E+00  0.10566000000E+00 0. -1.
     999900   -1    0    0    0    0 -0.00000000000E+00 -0.00000000000E+00 -0.74505805969E-08  0.93827000000E+00  0.93827000000E+00 0.  1.
     999902    2    1    2    0    0 -0.96014511638E-02  0.13383438115E-01 -0.17555917948E-01  0.10198568919E+01  0.10195727367E+01 0.  0.
     999903    2    3    3    0    0  0.58315989462E-02  0.13053397426E+00 -0.51274365814E-02  0.13187215421E+00  0.17054280089E-01 0.  0.
         14    1    1    2    0    0  0.96014511638E-02 -0.13383438115E-01  0.17555917948E-01  0.24073108134E-01  0.00000000000E+00 0. -1.
     999901    1    3    3    0    0 -0.15433050110E-01 -0.11715053614E+00 -0.12428481367E-01  0.88798473765E+00  0.88000000000E+00 0.  1.
        -11    1    4    4    0    0  0.10954595226E-01  0.10327651430E+00 -0.12626639814E-02  0.10386480156E+00  0.51100000000E-03 0.  1.
         11    1    4    4    0    0 -0.51229962797E-02  0.27257459957E-01 -0.38647726000E-02  0.28007352650E-01  0.51100000000E-03 0. -1.
</event>
<event>
 8    1  0.1112929E+005  0.1043930E+01  0.7957747E-01            NaN
         13   -1    0    0    0    0  0.00000000000E+00  0.00000000000E+00  0.74505805969E-08  0.10566000000E+00  0.10566000000E+00 0. -1.
     999900   -1    0    0    0    0 -0.00000000000E+00 -0.00000000000E+00 -0.74505805969E-08  0.93827000000E+00  0.93827000000E+00 0.  1.
     999902    2    1    2    0    0  0.23417313408E-01  0.13866803241E-02 -0.45827372081E-03  0.10204671898E+01  0.10201974230E+01 0.  0.
     999903    2    3    3    0    0 -0.43278716152E-01 -0.15669545368E-02 -0.12074880882E+00  0.12977818839E+00  0.19662165025E-01 0.  0.
         14    1    1    2    0    0 -0.23417313408E-01 -0.13866803241E-02  0.45827372081E-03  0.23462810240E-01  0.00000000000E+00 0.  1.
     999901    1    3    3    0    0  0.66696029560E-01  0.29536348609E-02  0.12029053510E+00  0.89068900136E+00  0.88000000000E+00 0. -1.
        -11    1    4    4    0    0 -0.20030703186E-01 -0.16794260731E-02 -0.30129824460E-01  0.36223155371E-01  0.51100000000E-03 0. -1.
         11    1    4    4    0    0 -0.23248012966E-01  0.11247153625E-03 -0.90618984359E-01  0.93555033024E-01  0.51100000000E-03 0.  1.
</event>
<event>
 8    1  0.1112929E+005  0.1043930E+01  0.7957747E-01            NaN
         13   -1    0    0    0    0  0.00000000000E+00  0.00000000000E+00  0.74505805969E-08  0.10566000000E+00  0.10566000000E+00 0. -1.
     999900   -1    0    0    0    0 -0.00000000000E+00 -0.00000000000E+00 -0.74505805969E-08  0.93827000000E+00  0.93827000000E+00 0.  1.
     999902    2    1    2    0    0  0.52770803003E-04 -0.15440828132E-01 -0.18841368812E-01  0.10195698043E+01  0.10192787482E+01 0.  0.
     999903    2    3    3    0    0  0.25568929486E-01  0.10904650047E+00 -0.61795724926E-01  0.12940507453E+00  0.19546157560E-01 0.  0.
         14    1    1    2    0    0 -0.52770803003E-04  0.15440828132E-01  0.18841368812E-01  0.24360195748E-01  0.00000000000E+00 0. -1.
     999901    1    3    3    0    0 -0.25516158683E-01 -0.12448732860E+00  0.42954356114E-01  0.89016472972E+00  0.88000000000E+00 0.  1.
        -11    1    4    4    0    0  0.14100689059E-01  0.72329759170E-01 -0.50412940125E-01  0.89286892356E-01  0.51100000000E-03 0.  1.
         11    1    4    4    0    0  0.11468240428E-01  0.36716741297E-01 -0.11382784800E-01  0.40118182172E-01  0.51100000000E-03 0. -1.
</event>
<event>
 8    1  0.1112929E+005  0.1043930E+01  0.7957747E-01            NaN
         13   -1    0    0    0    0  0.00000000000E+00  0.00000000000E+00  0.74505805969E-08  0.10566000000E+00  0.10566000000E+00 0. -1.
     999900   -1    0    0    0    0 -0.00000000000E+00 -0.00000000000E+00 -0.74505805969E-08  0.93827000000E+00  0.93827000000E+00 0.  1.
     999902    2    1    2    0    0  0.11341396382E-01 -0.20074093765E-01 -0.26176701403E-02  0.10207255024E+01  0.10204617105E+01 0.  0.
     999903    2    3    3    0    0 -0.26915855738E-01 -0.55595360766E-01 -0.11580700596E+00  0.13194138716E+00  0.13489239693E-01 0.  0.
         14    1    1    2    0    0 -0.11341396382E-01  0.20074093765E-01  0.26176701403E-02  0.23204497610E-01  0.00000000000E+00 0. -1.
     999901    1    3    3    0    0  0.38257252120E-01  0.35521267002E-01  0.11318933582E+00  0.88878411523E+00  0.88000000000E+00 0. -1.
        -11    1    4    4    0    0 -0.21687371714E-01 -0.34365751512E-01 -0.65458936481E-01  0.77048559072E-01  0.51100000000E-03 0. -1.
         11    1    4    4    0    0 -0.52284840240E-02 -0.21229609254E-01 -0.50348069475E-01  0.54892828085E-01  0.51100000000E-03 0.  1.
</event>
<event>
 8    1  0.1112929E+005  0.1043930E+01  0.7957747E-01            NaN
         13   -1    0    0    0    0  0.00000000000E+00  0.00000000000E+00  0.74505805969E-08  0.10566000000E+00  0.10566000000E+00 0. -1.
     999900   -1    0    0    0    0 -0.00000000000E+00 -0.00000000000E+00 -0.74505805969E-08  0.93827000000E+00  0.93827000000E+00 0. -1.
     999902    2    1    2    0    0  0.66831010273E-02 -0.22634666038E-01 -0.59104792399E-02  0.10196004766E+01  0.10193101619E+01 0.  0.
     999903    2    3    3    0    0 -0.88308533292E-01 -0.82630747884E-01 -0.48104208895E-01  0.13145451375E+00  0.18440084722E-01 0.  0.
         14    1    1    2    0    0 -0.66831010273E-02  0.22634666038E-01  0.59104792399E-02  0.24329523440E-01  0.00000000000E+00 0.  1.
     999901    1    3    3    0    0  0.94991634319E-01  0.59996081847E-01  0.42193729655E-01  0.88814596281E+00  0.88000000000E+00 0. -1.
        -11    1    4    4    0    0 -0.24277437374E-01 -0.12469152922E-01 -0.91735581123E-02  0.28797378865E-01  0.51100000000E-03 0.  1.
         11    1    4    4    0    0 -0.64031095918E-01 -0.70161594962E-01 -0.38930650783E-01  0.10265713489E+00  0.51100000000E-03 0. -1.
</event>
<event>
 8    1  0.1112929E+005  0.1043930E+01  0.7957747E-01            NaN
         13   -1    0    0    0    0  0.00000000000E+00  0.00000000000E+00  0.74505805969E-08  0.10566000000E+00  0.10566000000E+00 0.  1.
     999900   -1    0    0    0    0 -0.00000000000E+00 -0.00000000000E+00 -0.74505805969E-08  0.93827000000E+00  0.93827000000E+00 0. -1.
     999902    2    1    2    0    0  0.17396067658E-01  0.16920033262E-02 -0.15561182326E-01  0.10205283667E+01  0.10202600212E+01 0.  0.
     999903    2    3    3    0    0 -0.38535929100E-01  0.12208661352E+00 -0.17809689415E-01  0.13056864503E+00  0.18461500344E-01 0.  0.
         14    1    1    2    0    0 -0.17396067658E-01 -0.16920033262E-02  0.15561182326E-01  0.23401633289E-01  0.00000000000E+00 0.  1.
     999901    1    3    3    0    0  0.55931996758E-01 -0.12039461020E+00  0.22485070890E-02  0.88995972168E+00  0.88000000000E+00 0. -1.
        -11    1    4    4    0    0 -0.90713601775E-02  0.55451925211E-01 -0.12143172768E-01  0.57488462764E-01  0.51100000000E-03 0.  1.
         11    1    4    4    0    0 -0.29464568923E-01  0.66634688314E-01 -0.56665166462E-02  0.73080182268E-01  0.51100000000E-03 0. -1.
</event>
<event>
 8    1  0.1112929E+005  0.1043930E+01  0.7957747E-01            NaN
         13   -1    0    0    0    0  0.00000000000E+00  0.00000000000E+00  0.74505805969E-08  0.10566000000E+00  0.10566000000E+00 0.  1.
     999900   -1    0    0    0    0 -0.00000000000E+00 -0.00000000000E+00 -0.74505805969E-08  0.93827000000E+00  0.93827000000E+00 0.  1.
     999902    2    1    2    0    0  0.68949580305E-04  0.48032557148E-02  0.21092068741E-01  0.10222978160E+01  0.10220689181E+01 0.  0.
     999903    2    3    3    0    0 -0.11433036538E-01 -0.11884056761E+00  0.54801025999E-01  0.13294052870E+00  0.20401884349E-01 0.  0.
         14    1    1    2    0    0 -0.68949580305E-04 -0.48032557148E-02 -0.21092068741E-01  0.21632183969E-01  0.00000000000E+00 0. -1.
     999901    1    3    3    0    0  0.11501986118E-01  0.12364382333E+00 -0.33708957258E-01  0.88935728733E+00  0.88000000000E+00 0.  1.
        -11    1    4    4    0    0 -0.15289302378E-01 -0.73240865152E-01  0.27896911119E-01  0.79852901428E-01  0.51100000000E-03 0.  1.
         11    1    4    4    0    0  0.38562658404E-02 -0.45599702461E-01  0.26904114880E-01  0.53087627271E-01  0.51100000000E-03 0. -1.
</event>
<event>
 8    1  0.1112929E+005  0.1043930E+01  0.7957747E-01            NaN
         13   -1    0    0    0    0  0.00000000000E+00  0.00000000000E+00  0.74505805969E-08  0.10566000000E+00  0.10566000000E+00 0. -1.
     999900   -1    0    0    0    0 -0.00000000000E+00 -0.00000000000E+00 -0.74505805969E-08  0.93827000000E+00  0.93827000000E+00 0.  1.
     999902    2    1    2    0    0 -0.56116266993E-02 -0.83347749740E-02  0.22707924545E-01  0.10190983938E+01  0.10187958223E+01 0.  0.
     999903    2    3    3    0    0 -0.72073963222E-01  0.10536311085E+00  0.72917706111E-02  0.12916462707E+00  0.18283590008E-01 0.  0.
         14    1    1    2    0    0  0.56116266993E-02  0.83347749740E-02 -0.22707924545E-01  0.24831606175E-01  0.00000000000E+00 0.  1.
     999901    1    3    3    0    0  0.66462336522E-01 -0.11369788583E+00  0.15416153934E-01  0.88993376676E+00  0.88000000000E+00 0. -1.
        -11    1    4    4    0    0 -0.44382352130E-01  0.77355669733E-01  0.45215510238E-03  0.89186088520E-01  0.51100000000E-03 0.  1.
         11    1    4    4    0    0 -0.27691611092E-01  0.28007441119E-01  0.68396155087E-02  0.39978538545E-01  0.51100000000E-03 0. -1.
</event>
<event>
 8    1  0.1112929E+005  0.1043930E+01  0.7957747E-01            NaN
         13   -1    0    0    0    0  0.00000000000E+00  0.00000000000E+00  0.74505805969E-08  0.10566000000E+00  0.10566000000E+00 0.  1.
     999900   -1    0    0    0    0 -0.00000000000E+00 -0.00000000000E+00 -0.74505805969E-08  0.93827000000E+00  0.93827000000E+00 0. -1.
     999902    2    1    2    0    0 -0.11747257446E-01 -0.19222376701E-01  0.92696510418E-02  0.10195696992E+01  0.10192786407E+01 0.  0.
     999903    2    3    3    0    0  0.11407675594E-01 -0.19467332308E-02 -0.12769518116E+00  0.12850630976E+00  0.85957852756E-02 0.  0.
         14    1    1    2    0    0  0.11747257446E-01  0.19222376701E-01 -0.92696510418E-02  0.24360300777E-01  0.00000000000E+00 0.  1.
     999901    1    3    3    0    0 -0.23154933040E-01 -0.17275643470E-01  0.13696483220E+00  0.89106338946E+00  0.88000000000E+00 0.  1.
        -11    1    4    4    0    0  0.93846882987E-02 -0.46336019106E-02 -0.10913739831E+00  0.10963929712E+00  0.51100000000E-03 0. -1.
         11    1    4    4    0    0  0.20229872953E-02  0.26868686798E-02 -0.18557782845E-01  0.18867012641E-01  0.51100000000E-03 0.  1.
</event>
<event>
 8    1  0.1112929E+005  0.1043930E+01  0.7957747E-01            NaN
         13   -1    0    0    0    0  0.00000000000E+00  0.00000000000E+00  0.74505805969E-08  0.10566000000E+00  0.10566000000E+00 0.  1.
     999900   -1    0    0    0    0 -0.00000000000E+00 -0.00000000000E+00 -0.74505805969E-08  0.93827000000E+00  0.93827000000E+00 0.  1.
     999902    2    1    2    0    0 -0.16956218604E-01  0.13656143420E-01 -0.11319586363E-01  0.10193915274E+01  0.10190961434E+01 0.  0.
     999903    2    3    3    0    0 -0.11340753514E+00  0.39293139997E-01 -0.53891409035E-01  0.13272785263E+00  0.17526523305E-01 0.  0.
         14    1    1    2    0    0  0.16956218604E-01 -0.13656143420E-01  0.11319586363E-01  0.24538472607E-01  0.00000000000E+00 0.  1.
     999901    1    3    3    0    0  0.96451316536E-01 -0.25636996577E-01  0.42571822672E-01  0.88666367476E+00  0.88000000000E+00 0. -1.
        -11    1    4    4    0    0 -0.52007313763E-01  0.16311202461E-01 -0.15146764358E-01  0.56572975899E-01  0.51100000000E-03 0. -1.
         11    1    4    4    0    0 -0.61400221377E-01  0.22981937537E-01 -0.38744644677E-01  0.76154876733E-01  0.51100000000E-03 0.  1.
</event>
<event>
 8    1  0.1112929E+005  0.1043930E+01  0.7957747E-01            NaN
         13   -1    0    0    0    0  0.00000000000E+00  0.00000000000E+00  0.74505805969E-08  0.10566000000E+00  0.10566000000E+00 0. -1.
     999900   -1    0    0    0    0 -0.00000000000E+00 -0.00000000000E+00 -0.74505805969E-08  0.93827000000E+00  0.93827000000E+00 0.  1.
     999902    2    1    2    0    0 -0.10885178235E-01  0.67084735924E-02  0.19388760850E-01  0.10207046955E+01  0.10204404248E+01 0.  0.
     999903    2    3    3    0    0 -0.12614482692E+00 -0.25098181180E-02 -0.31972126020E-01  0.13165593178E+00  0.19805327221E-01 0.  0.
         14    1    1    2    0    0  0.10885178235E-01 -0.67084735924E-02 -0.19388760850E-01  0.23225304528E-01  0.00000000000E+00 0.  1.
     999901    1    3    3    0    0  0.11525964868E+00  0.92182917103E-02  0.51360886869E-01  0.88904876369E+00  0.88000000000E+00 0. -1.
        -11    1    4    4    0    0 -0.60444990588E-01 -0.49795808221E-02 -0.59413827720E-02  0.60942220689E-01  0.51100000000E-03 0. -1.
         11    1    4    4    0    0 -0.65699836330E-01  0.24697627042E-02 -0.26030743248E-01  0.70713711094E-01  0.51100000000E-03 0.  1.
</event>
<event>
 8    1  0.1112929E+005  0.1043930E+01  0.7957747E-01            NaN
         13   -1    0    0    0    0  0.00000000000E+00  0.00000000000E+00  0.74505805969E-08  0.10566000000E+00  0.10566000000E+00 0.  1.
     999900   -1    0    0    0    0 -0.00000000000E+00 -0.00000000000E+00 -0.74505805969E-08  0.93827000000E+00  0.93827000000E+00 0.  1.
     999902    2    1    2    0    0 -0.21160439532E-01  0.18654347755E-02  0.10785705521E-01  0.10201061571E+01  0.10198279248E+01 0.  0.
     999903    2    3    3    0    0 -0.82772606943E-01 -0.51983854562E-01 -0.85165388782E-01  0.13111660841E+00  0.19616216753E-01 0.  0.
         14    1    1    2    0    0  0.21160439532E-01 -0.18654347755E-02 -0.10785705521E-01  0.23823842925E-01  0.00000000000E+00 0.  1.
     999901    1    3    3    0    0  0.61612167411E-01  0.53849289338E-01  0.95951094303E-01  0.88898954866E+00  0.88000000000E+00 0.  1.
        -11    1    4    4    0    0 -0.34262667360E-01 -0.28470735967E-01 -0.48856586226E-01  0.66119137319E-01  0.51100000000E-03 0.  1.
         11    1    4    4    0    0 -0.48509939583E-01 -0.23513118595E-01 -0.36308802556E-01  0.64997471093E-01  0.51100000000E-03 0. -1.
</event>
<event>
 8    1  0.1112929E+005  0.1043930E+01  0.7957747E-01            NaN
         13   -1    0    0    0    0  0.00000000000E+00  0.00000000000E+00  0.74505805969E-08  0.10566000000E+00  0.10566000000E+00 0.  1.
     999900   -1    0    0    0    0 -0.00000000000E+00 -0.00000000000E+00 -0.74505805969E-08  0.93827000000E+00  0.93827000000E+00 0. -1.
     999902    2    1    2    0    0  0.22711105448E-01 -0.61498827361E-03 -0.53100781029E-02  0.10205982737E+01  0.10203315475E+01 0.  0.
     999903    2    3    3    0    0  0.56307755798E-01  0.11731706049E+00  0.15157417429E-01  0.13186005501E+00  0.14948938410E-01 0.  0.
         14    1    1    2    0    0 -0.22711105448E-01  0.61498827361E-03  0.53100781029E-02  0.23331726269E-01  0.00000000000E+00 0. -1.
     999901    1    3    3    0    0 -0.33596650350E-01 -0.11793204876E+00 -0.20467495531E-01  0.88873821872E+00  0.88000000000E+00 0. -1.
        -11    1    4    4    0    0  0.47921275020E-01  0.84950300228E-01  0.12015072222E-01  0.98273217053E-01  0.51100000000E-03 0.  1.
         11    1    4    4    0    0  0.83864807778E-02  0.32366760261E-01  0.31423452068E-02  0.33586837958E-01  0.51100000000E-03 0. -1.
</event>
<event>
 8    1  0.1112929E+005  0.1043930E+01  0.7957747E-01            NaN
         13   -1    0    0    0    0  0.00000000000E+00  0.00000000000E+00  0.74505805969E-08  0.10566000000E+00  0.10566000000E+00 0. -1.
     999900   -1    0    0    0    0 -0.00000000000E+00 -0.00000000000E+00 -0.74505805969E-08  0.93827000000E+00  0.93827000000E+00 0. -1.
     999902    2    1    2    0    0  0.47291305063E-02  0.22621826668E-01  0.54759794003E-02  0.10201792512E+01  0.10199027437E+01 0.  0.
     999903    2    3    3    0    0 -0.20150171079E-01 -0.41040008285E-01 -0.11868699387E+00  0.12883854599E+00  0.20553752534E-01 0.  0.
         14    1    1    2    0    0 -0.47291305063E-02 -0.22621826668E-01 -0.54759794003E-02  0.23750748778E-01  0.00000000000E+00 0.  1.
     999901    1    3    3    0    0  0.24879301585E-01  0.63661834953E-01  0.12416297327E+00  0.89134070523E+00  0.88000000000E+00 0.  1.
        -11    1    4    4    0    0 -0.18273438799E-01 -0.14443483953E-01 -0.50203615450E-01  0.55346155417E-01  0.51100000000E-03 0.  1.
         11    1    4    4    0    0 -0.18767322799E-02 -0.26596524333E-01 -0.68483378421E-01  0.73492390569E-01  0.51100000000E-03 0. -1.
</event>
<event>
 8    1  0.1112929E+005  0.1043930E+01  0.7957747E-01            NaN
         13   -1    0    0    0    0  0.00000000000E+00  0.00000000000E+00  0.74505805969E-08  0.10566000000E+00  0.10566000000E+00 0. -1.
     999900   -1    0    0    0    0 -0.00000000000E+00 -0.00000000000E+00 -0.74505805969E-08  0.93827000000E+00  0.93827000000E+00 0.  1.
     999902    2    1    2    0    0  0.75381296563E-02  0.24741357579E-01 -0.35893333157E-02  0.10178179053E+01  0.10174828976E+01 0.  0.
     999903    2    3    3    0    0  0.99747802884E-01  0.50284592147E-01  0.62545273683E-01  0.13016433164E+00  0.23509095768E-01 0.  0.
         14    1    1    2    0    0 -0.75381296563E-02 -0.24741357579E-01  0.35893333157E-02  0.26112094654E-01  0.00000000000E+00 0. -1.
     999901    1    3    3    0    0 -0.92209673228E-01 -0.25543234568E-01 -0.66134606998E-01  0.88765357371E+00  0.88000000000E+00 0.  1.
        -11    1    4    4    0    0  0.20964255036E-01  0.20758907442E-01  0.21764983486E-01  0.36666167710E-01  0.51100000000E-03 0.  1.
         11    1    4    4    0    0  0.78783547849E-01  0.29525684705E-01  0.40780290197E-01  0.93498163931E-01  0.51100000000E-03 0. -1.
</event>
<event>
 8    1  0.1112929E+005  0.1043930E+01  0.7957747E-01            NaN
         13   -1    0    0    0    0  0.00000000000E+00  0.00000000000E+00  0.74505805969E-08  0.10566000000E+00  0.10566000000E+00 0. -1.
     999900   -1    0    0    0    0 -0.00000000000E+00 -0.00000000000E+00 -0.74505805969E-08  0.93827000000E+00  0.93827000000E+00 0. -1.
     999902    2    1    2    0    0 -0.14323537332E-01  0.24655825326E-02  0.18907811233E-01  0.10200815589E+01  0.10198027449E+01 0.  0.
     999903    2    3    3    0    0  0.44295916075E-01  0.28529154270E-01  0.11936389341E+00  0.13204610094E+00  0.20307459197E-01 0.  0.
         14    1    1    2    0    0  0.14323537332E-01 -0.24655825326E-02 -0.18907811233E-01  0.23848441134E-01  0.00000000000E+00 0.  1.
     999901    1    3    3    0    0 -0.58619453407E-01 -0.26063571738E-01 -0.10045608218E+00  0.88803545793E+00  0.88000000000E+00 0. -1.
        -11    1    4    4    0    0  0.12273278675E-01  0.41624740354E-02  0.51858990465E-01  0.53456295912E-01  0.51100000000E-03 0. -1.
         11    1    4    4    0    0  0.32022637400E-01  0.24366680235E-01  0.67504902944E-01  0.78589805027E-01  0.51100000000E-03 0.  1.
</event>
<event>
 8    1  0.1112929E+005  0.1043930E+01  0.7957747E-01            NaN
         13   -1    0    0    0    0  0.00000000000E+00  0.00000000000E+00  0.74505805969E-08  0.10566000000E+00  0.10566000000E+00 0. -1.
     999900   -1    0    0    0    0 -0.00000000000E+00 -0.00000000000E+00 -0.74505805969E-08  0.93827000000E+00  0.93827000000E+00 0. -1.
     999902    2    1    2    0    0 -0.21715738356E-02  0.17072253144E-01  0.15814052153E-01  0.10205577557E+01  0.10202900915E+01 0.  0.
     999903    2    3    3    0    0  0.14670263408E-01  0.12880381222E+00  0.17101733920E-01  0.13333216602E+00  0.26064506907E-01 0.  0.
         14    1    1    2    0    0  0.21715738356E-02 -0.17072253144E-01 -0.15814052153E-01  0.23372244348E-01  0.00000000000E+00 0.  1.
     999901    1    3    3    0    0 -0.16841837244E-01 -0.11173155908E+00 -0.12876817668E-02  0.88722558963E+00  0.88000000000E+00 0.  1.
        -11    1    4    4    0    0  0.38840922209E-03  0.23503163194E-01 -0.66701108926E-02  0.24439743087E-01  0.51100000000E-03 0. -1.
         11    1    4    4    0    0  0.14281854186E-01  0.10530064903E+00  0.23771844812E-01  0.10889242293E+00  0.51100000000E-03 0.  1.
</event>
<event>
 8    1  0.1112929E+005  0.1043930E+01  0.7957747E-01            NaN
         13   -1    0    0    0    0  0.00000000000E+00  0.00000000000E+00  0.74505805969E-08  0.10566000000E+00  0.10566000000E+00 0. -1.
     999900   -1    0    0    0    0 -0.00000000000E+00 -0.00000000000E+00 -0.74505805969E-08  0.93827000000E+00  0.93827000000E+00 0.  1.
     999902    2    1    2    0    0  0.15348242354E-01  0.13626538601E-01  0.11004431694E-01  0.10206416206E+01  0.10203758960E+01 0.  0.
     999903    2    3    3    0    0  0.75307491386E-01  0.81996886039E-01 -0.68876113849E-01  0.13235646510E+00  0.19483511359E-01 0.  0.
         14    1    1    2    0    0 -0.15348242354E-01 -0.13626538601E-01 -0.11004431694E-01  0.23288379388E-01  0.00000000000E+00 0. -1.
     999901    1    3    3    0    0 -0.59959249033E-01 -0.68370347438E-01  0.79880545543E-01  0.88828515552E+00  0.88000000000E+00 0. -1.
        -11    1    4    4    0    0  0.51033636147E-01  0.60291016789E-01 -0.38718517568E-01  0.87970582853E-01  0.51100000000E-03 0.  1.
         11    1    4    4    0    0  0.24273855239E-01  0.21705869250E-01 -0.30157596281E-01  0.44385882243E-01  0.51100000000E-03 0. -1.
</event>
<event>
 8    1  0.1112929E+005  0.1043930E+01  0.7957747E-01            NaN
         13   -1    0    0    0    0  0.00000000000E+00  0.00000000000E+00  0.74505805969E-08  0.10566000000E+00  0.10566000000E+00 0.  1.
     999900   -1    0    0    0    0 -0.00000000000E+00 -0.00000000000E+00 -0.74505805969E-08  0.93827000000E+00  0.93827000000E+00 0.  1.
     999902    2    1    2    0    0  0.17138586072E-01 -0.14630291578E-01  0.86818874548E-02  0.10197814652E+01  0.10194955051E+01 0.  0.
     999903    2    3    3    0    0  0.10508649582E+00 -0.78325334235E-01  0.11232551072E-01  0.13310316998E+00  0.20304040735E-01 0.  0.
         14    1    1    2    0    0 -0.17138586072E-01  0.14630291578E-01 -0.86818874548E-02  0.24148534821E-01  0.00000000000E+00 0. -1.
     999901    1    3    3    0    0 -0.87947909743E-01  0.63695042657E-01 -0.25506636176E-02  0.88667829520E+00  0.88000000000E+00 0. -1.
        -11    1    4    4    0    0  0.53262735966E-01 -0.30614764669E-01  0.12281450360E-01  0.62652039091E-01  0.51100000000E-03 0. -1.
         11    1    4    4    0    0  0.51823759849E-01 -0.47710569567E-01 -0.10488992873E-02  0.70451130892E-01  0.51100000000E-03 0.  1.
</event>
<event>
 8    1  0.1112929E+005  0.1043930E+01  0.7957747E-01            NaN
         13   -1    0    0    0    0  0.00000000000E+00  0.00000000000E+00  0.74505805969E-08  0.10566000000E+00  0.10566000000E+00 0.  1.
     999900   -1    0    0    0    0 -0.00000000000E+00 -0.00000000000E+00 -0.74505805969E-08  0.93827000000E+00  0.93827000000E+00 0.  1.
     999902    2    1    2    0    0 -0.23580768018E-01 -0.56735929171E-02  0.16628763509E-02  0.10196193555E+01  0.10193294966E+01 0.  0.
     999903    2    3    3    0    0  0.43637524168E-01  0.11246178048E+00 -0.38451950428E-01  0.12828133627E+00  0.20631605843E-01 0.  0.
         14    1    1    2    0    0  0.23580768018E-01  0.56735929171E-02 -0.16628763509E-02  0.24310644473E-01  0.00000000000E+00 0.  1.
     999901    1    3    3    0    0 -0.67218292186E-01 -0.11813537339E+00  0.40114826779E-01  0.89133801926E+00  0.88000000000E+00 0. -1.
        -11    1    4    4    0    0  0.30185991322E-01  0.62353697523E-01 -0.12988483317E-01  0.70485030231E-01  0.51100000000E-03 0.  1.
         11    1    4    4    0    0  0.13451532845E-01  0.50108082952E-01 -0.25463467111E-01  0.57796306036E-01  0.51100000000E-03 0. -1.
</event>
<event>
 8    1  0.1112929E+005  0.1043930E+01  0.7957747E-01            NaN
         13   -1    0    0    0    0  0.00000000000E+00  0.00000000000E+00  0.74505805969E-08  0.10566000000E+00  0.10566000000E+00 0. -1.
     999900   -1    0    0    0    0 -0.00000000000E+00 -0.00000000000E+00 -0.74505805969E-08  0.93827000000E+00  0.93827000000E+00 0.  1.
     999902    2    1    2    0    0 -0.22405963593E-01 -0.70497554093E-02  0.78096231934E-03  0.10204281669E+01  0.10201574916E+01 0.  0.
     999903    2    3    3    0    0  0.83314663657E-01 -0.87801971151E-02  0.96095839853E-01  0.12898844864E+00  0.19626115343E-01 0.  0.
         14    1    1    2    0    0  0.22405963593E-01  0.70497554093E-02 -0.78096231934E-03  0.23501833077E-01  0.00000000000E+00 0. -1.
     999901    1    3    3    0    0 -0.10572062725E+00  0.17304417058E-02 -0.95314877534E-01  0.89143971828E+00  0.88000000000E+00 0.  1.
        -11    1    4    4    0    0  0.32708272331E-01 -0.59285851652E-02  0.52445550145E-01  0.62094895538E-01  0.51100000000E-03 0.  1.
         11    1    4    4    0    0  0.50606391326E-01 -0.28516119499E-02  0.43650289709E-01  0.66893553101E-01  0.51100000000E-03 0. -1.
</event>
<event>
 8    1  0.1112929E+005  0.1043930E+01  0.7957747E-01            NaN
         13   -1    0    0    0    0  0.00000000000E+00  0.00000000000E+00  0.74505805969E-08  0.10566000000E+00  0.10566000000E+00 0. -1.
     999900   -1    0    0    0    0 -0.00000000000E+00 -0.00000000000E+00 -0.74505805969E-08  0.93827000000E+00  0.93827000000E+00 0. -1.
     999902    2    1    2    0    0 -0.11220090798E-01  0.16332858113E-01 -0.12374208268E-01  0.10205681995E+01  0.10203007773E+01 0.  0.
     999903    2    3    3    0    0 -0.12001039250E+00 -0.42526096657E-02  0.49551962940E-01  0.13147093717E+00  0.20214630614E-01 0.  0.
         14    1    1    2    0    0  0.11220090798E-01 -0.16332858113E-01  0.12374208268E-01  0.23361800486E-01  0.00000000000E+00 0.  1.
     999901    1    3    3    0    0  0.10879030171E+00  0.20585467779E-01 -0.61926171207E-01  0.88909726235E+00  0.88000000000E+00 0. -1.
        -11    1    4    4    0    0 -0.85155014535E-01  0.33988084077E-02  0.27650776218E-01  0.89597739623E-01  0.51100000000E-03 0. -1.
         11    1    4    4    0    0 -0.34855377970E-01 -0.76514180733E-02  0.21901186722E-01  0.41873197546E-01  0.51100000000E-03 0.  1.
</event>
<event>
 8    1  0.1112929E+005  0.1043930E+01  0.7957747E-01            NaN
         13   -1    0    0    0    0  0.00000000000E+00  0.00000000000E+00  0.74505805969E-08  0.10566000000E+00  0.10566000000E+00 0.  1.
     999900   -1    0    0    0    0 -0.00000000000E+00 -0.00000000000E+00 -0.74505805969E-08  0.93827000000E+00  0.93827000000E+00 0. -1.
     999902    2    1    2    0    0  0.34085583748E-01  0.52945050508E-02 -0.11798723751E-01  0.10074736057E+01  0.10068137849E+01 0.  0.
     999903    2    3    3    0    0  0.48500941788E-01  0.29695256104E-01  0.10287655192E+00  0.11958080922E+00  0.21950749582E-01 0.  0.
         14    1    1    2    0    0 -0.34085583748E-01 -0.52945050508E-02  0.11798723751E-01  0.36456394299E-01  0.00000000000E+00 0.  1.
     999901    1    3    3    0    0 -0.14415358040E-01 -0.24400751053E-01 -0.11467527568E+00  0.88789279649E+00  0.88000000000E+00 0. -1.
        -11    1    4    4    0    0  0.20096224131E-01  0.75195790080E-03  0.39721363657E-01  0.44524953866E-01  0.51100000000E-03 0. -1.
         11    1    4    4    0    0  0.28404717657E-01  0.28943298203E-01  0.63155188268E-01  0.75055855350E-01  0.51100000000E-03 0.  1.
</event>
<event>
 8    1  0.1112929E+005  0.1043930E+01  0.7957747E-01            NaN
         13   -1    0    0    0    0  0.00000000000E+00  0.00000000000E+00  0.74505805969E-08  0.10566000000E+00  0.10566000000E+00 0. -1.
     999900   -1    0    0    0    0 -0.00000000000E+00 -0.00000000000E+00 -0.74505805969E-08  0.93827000000E+00  0.93827000000E+00 0. -1.
     999902    2    1    2    0    0 -0.22106921656E-02  0.18451507841E-01 -0.14518292622E-01  0.10203476735E+01  0.10200751192E+01 0.  0.
     999903    2    3    3    0    0 -0.10931909947E+00  0.38456929902E-01 -0.60039052422E-01  0.13245997375E+00  0.22613179018E-01 0.  0.
         14    1    1    2    0    0  0.22106921656E-02 -0.18451507841E-01  0.14518292622E-01  0.23582326478E-01  0.00000000000E+00 0. -1.
     999901    1    3    3    0    0  0.10710840730E+00 -0.20005422062E-01  0.45520759800E-01  0.88788769977E+00  0.88000000000E+00 0.  1.
        -11    1    4    4    0    0 -0.16540582864E-01  0.13626376757E-01 -0.60199168518E-02  0.22265882980E-01  0.51100000000E-03 0.  1.
         11    1    4    4    0    0 -0.92778516604E-01  0.24830553145E-01 -0.54019135570E-01  0.11019409077E+00  0.51100000000E-03 0. -1.
</event>
<event>
 8    1  0.1112929E+005  0.1043930E+01  0.7957747E-01            NaN
         13   -1    0    0    0    0  0.00000000000E+00  0.00000000000E+00  0.74505805969E-08  0.10566000000E+00  0.10566000000E+00 0. -1.
     999900   -1    0    0    0    0 -0.00000000000E+00 -0.00000000000E+00 -0.74505805969E-08  0.93827000000E+00  0.93827000000E+00 0. -1.
     999902    2    1    2    0    0  0.97421801861E-02  0.39778466146E-02  0.13987928910E-01  0.10264258435E+01  0.10262765791E+01 0.  0.
     999903    2    3    3    0    0  0.38975427338E-02 -0.12151315897E+00  0.58332864219E-01  0.13639852622E+00  0.20523066690E-01 0.  0.
         14    1    1    2    0    0 -0.97421801861E-02 -0.39778466146E-02 -0.13987928910E-01  0.17504156468E-01  0.00000000000E+00 0.  1.
     999901    1    3    3    0    0  0.58446374523E-02  0.12549100558E+00 -0.44344935310E-01  0.89002731731E+00  0.88000000000E+00 0.  1.
        -11    1    4    4    0    0 -0.77132408902E-03 -0.53192591180E-01  0.14687304213E-01  0.55190802888E-01  0.51100000000E-03 0.  1.
         11    1    4    4    0    0  0.46688668228E-02 -0.68320567786E-01  0.43645560006E-01  0.81207723336E-01  0.51100000000E-03 0. -1.
</event>
<event>
 8    1  0.1112929E+005  0.1043930E+01  0.7957747E-01            NaN
         13   -1    0    0    0    0  0.00000000000E+00  0.00000000000E+00  0.74505805969E-08  0.10566000000E+00  0.10566000000E+00 0.  1.
     999900   -1    0    0    0    0 -0.00000000000E+00 -0.00000000000E+00 -0.74505805969E-08  0.93827000000E+00  0.93827000000E+00 0. -1.
     999902    2    1    2    0    0 -0.15358199050E-01 -0.15493111959E-01  0.10082460543E-01  0.10198973804E+01  0.10196141916E+01 0.  0.
     999903    2    3    3    0    0  0.54172345617E-02 -0.33647290213E-01  0.12581203322E+00  0.13189145311E+00  0.20129608368E-01 0.  0.
         14    1    1    2    0    0  0.15358199050E-01  0.15493111959E-01 -0.10082460543E-01  0.24032619641E-01  0.00000000000E+00 0. -1.
     999901    1    3    3    0    0 -0.20775433611E-01  0.18154178254E-01 -0.11572957268E+00  0.88800592724E+00  0.88000000000E+00 0. -1.
        -11    1    4    4    0    0  0.45293879551E-02 -0.56010499814E-02  0.58772695436E-01  0.59214676948E-01  0.51100000000E-03 0. -1.
         11    1    4    4    0    0  0.88784660666E-03 -0.28046240232E-01  0.67039337782E-01  0.72676776167E-01  0.51100000000E-03 0.  1.
</event>
<event>
 8    1  0.1112929E+005  0.1043930E+01  0.7957747E-01            NaN
         13   -1    0    0    0    0  0.00000000000E+00  0.00000000000E+00  0.74505805969E-08  0.10566000000E+00  0.10566000000E+00 0.  1.
     999900   -1    0    0    0    0 -0.00000000000E+00 -0.00000000000E+00 -0.74505805969E-08  0.93827000000E+00  0.93827000000E+00 0.  1.
     999902    2    1    2    0    0  0.23592923344E-02 -0.23746770614E-01  0.16630511622E-02  0.10200084383E+01  0.10197278917E+01 0.  0.
     999903    2    3    3    0    0 -0.12169961735E+00 -0.22111689739E-01 -0.36269968378E-01  0.13049609970E+00  0.20346934513E-01 0.  0.
         14    1    1    2    0    0 -0.23592923344E-02  0.23746770614E-01 -0.16630511622E-02  0.23921561698E-01  0.00000000000E+00 0.  1.
     999901    1    3    3    0    0  0.12405890968E+00 -0.16350808747E-02  0.37933019540E-01  0.88951233861E+00  0.88000000000E+00 0. -1.
        -11    1    4    4    0    0 -0.26090942158E-01 -0.12690983057E-01 -0.12024271363E-01  0.31410866535E-01  0.51100000000E-03 0.  1.
         11    1    4    4    0    0 -0.95608675189E-01 -0.94207066820E-02 -0.24245697015E-01  0.99085233161E-01  0.51100000000E-03 0. -1.
</event>
<event>
 8    1  0.1112929E+005  0.1043930E+01  0.7957747E-01            NaN
         13   -1    0    0    0    0  0.00000000000E+00  0.00000000000E+00  0.74505805969E-08  0.10566000000E+00  0.10566000000E+00 0.  1.
     999900   -1    0    0    0    0 -0.00000000000E+00 -0.00000000000E+00 -0.74505805969E-08  0.93827000000E+00  0.93827000000E+00 0. -1.
     999902    2    1    2    0    0 -0.15499720514E-01 -0.98429377709E-05  0.17480431651E-01  0.10205674889E+01  0.10203000502E+01 0.  0.
     999903    2    3    3    0    0 -0.10177438678E+00  0.41038829227E-01 -0.68785339969E-01  0.13120249362E+00  0.20987139578E-01 0.  0.
         14    1    1    2    0    0  0.15499720514E-01  0.98429377709E-05 -0.17480431651E-01  0.23362511072E-01  0.00000000000E+00 0.  1.
     999901    1    3    3    0    0  0.86274666270E-01 -0.41048672165E-01  0.86265771620E-01  0.88936499531E+00  0.88000000000E+00 0.  1.
        -11    1    4    4    0    0 -0.58954514265E-01  0.34759227588E-01 -0.41563859125E-01  0.80072805378E-01  0.51100000000E-03 0. -1.
         11    1    4    4    0    0 -0.42819872519E-01  0.62796016390E-02 -0.27221480844E-01  0.51129688242E-01  0.51100000000E-03 0.  1.
</event>
<event>
 8    1  0.1112929E+005  0.1043930E+01  0.7957747E-01            NaN
         13   -1    0    0    0    0  0.00000000000E+00  0.00000000000E+00  0.74505805969E-08  0.10566000000E+00  0.10566000000E+00 0.  1.
     999900   -1    0    0    0    0 -0.00000000000E+00 -0.00000000000E+00 -0.74505805969E-08  0.93827000000E+00  0.93827000000E+00 0.  1.
     999902    2    1    2    0    0 -0.26285556073E-02  0.23335663156E-01 -0.67207295128E-02  0.10195039753E+01  0.10192113249E+01 0.  0.
     999903    2    3    3    0    0 -0.17110071500E-01  0.89677155203E-01  0.92357292950E-01  0.13134443869E+00  0.19665840958E-01 0.  0.
         14    1    1    2    0    0  0.26285556073E-02 -0.23335663156E-01  0.67207295128E-02  0.24426024742E-01  0.00000000000E+00 0. -1.
     999901    1    3    3    0    0  0.14481515893E-01 -0.66341492047E-01 -0.99078022463E-01  0.88815953657E+00  0.88000000000E+00 0.  1.
        -11    1    4    4    0    0 -0.12455719172E-01  0.20969819439E-01  0.27226220211E-01  0.36556893404E-01  0.51100000000E-03 0. -1.
         11    1    4    4    0    0 -0.46543523289E-02  0.68707335764E-01  0.65131072739E-01  0.94787545282E-01  0.51100000000E-03 0.  1.
</event>
<event>
 8    1  0.1112929E+005  0.1043930E+01  0.7957747E-01            NaN
         13   -1    0    0    0    0  0.00000000000E+00  0.00000000000E+00  0.74505805969E-08  0.10566000000E+00  0.10566000000E+00 0.  1.
     999900   -1    0    0    0    0 -0.00000000000E+00 -0.00000000000E+00 -0.74505805969E-08  0.93827000000E+00  0.93827000000E+00 0. -1.
     999902    2    1    2    0    0 -0.25958588250E-01 -0.11156362667E-01 -0.55134448826E-02  0.10151426624E+01  0.10147344057E+01 0.  0.
     999903    2    3    3    0    0 -0.92625386925E-01  0.76397901669E-02  0.85454780921E-01  0.12774592163E+00  0.19459501928E-01 0.  0.
         14    1    1    2    0    0  0.25958588250E-01  0.11156362667E-01  0.55134448826E-02  0.28787337604E-01  0.00000000000E+00 0. -1.
     999901    1    3    3    0    0  0.66666798676E-01 -0.18796152834E-01 -0.90968225803E-01  0.88739674076E+00  0.88000000000E+00 0. -1.
        -11    1    4    4    0    0 -0.63594542249E-01 -0.17288766473E-02  0.65374587747E-01  0.91221448478E-01  0.51100000000E-03 0. -1.
         11    1    4    4    0    0 -0.29030844676E-01  0.93686668143E-02  0.20080193174E-01  0.36524473157E-01  0.51100000000E-03 0.  1.
</event>
<event>
 8    1  0.1112929E+005  0.1043930E+01  0.7957747E-01            NaN
         13   -1    0    0    0    0  0.00000000000E+00  0.00000000000E+00  0.74505805969E-08  0.10566000000E+00  0.10566000000E+00 0.  1.
     999900   -1    0    0    0    0 -0.00000000000E+00 -0.00000000000E+00 -0.74505805969E-08  0.93827000000E+00  0.93827000000E+00 0.  1.
     999902    2    1    2    0    0  0.97878408608E-02 -0.16492452303E-01 -0.13914803638E-01  0.10202356004E+01  0.10199604187E+01 0.  0.
     999903    2    3    3    0    0  0.45743622220E-01  0.12728818620E-01  0.11834269389E+00  0.12914708262E+00  0.20481063313E-01 0.  0.
         14    1    1    2    0    0 -0.97878408608E-02  0.16492452303E-01  0.13914803638E-01  0.23694399591E-01  0.00000000000E+00 0.  1.
     999901    1    3    3    0    0 -0.35955781359E-01 -0.29221270923E-01 -0.13225749753E+00  0.89108851779E+00  0.88000000000E+00 0.  1.
        -11    1    4    4    0    0  0.75812213415E-02  0.72459287940E-02  0.45864127856E-01  0.47050587096E-01  0.51100000000E-03 0.  1.
         11    1    4    4    0    0  0.38162400879E-01  0.54828898256E-02  0.72478566034E-01  0.82096495522E-01  0.51100000000E-03 0. -1.
</event>
<event>
 8    1  0.1112929E+005  0.1043930E+01  0.7957747E-01            NaN
         13   -1    0    0    0    0  0.00000000000E+00  0.00000000000E+00  0.74505805969E-08  0.10566000000E+00  0.10566000000E+00 0. -1.
     999900   -1    0    0    0    0 -0.00000000000E+00 -0.00000000000E+00 -0.74505805969E-08  0.93827000000E+00  0.93827000000E+00 0.  1.
     999902    2    1    2    0    0 -0.10466166971E-01  0.20162216725E-01  0.43631862360E-02  0.10207979221E+01  0.10205357930E+01 0.  0.
     999903    2    3    3    0    0 -0.18094727860E-01  0.66634989355E-02  0.12903360966E+00  0.13187547058E+00  0.19226178101E-01 0.  0.
         14    1    1    2    0    0  0.10466166971E-01 -0.20162216725E-01 -0.43631862360E-02  0.23132077911E-01  0.00000000000E+00 0. -1.
     999901    1    3    3    0    0  0.76285608892E-02  0.13498717790E-01 -0.12467042342E+00  0.88892245151E+00  0.88000000000E+00 0.  1.
        -11    1    4    4    0    0 -0.86334082412E-02 -0.34551325441E-02  0.89473676934E-01  0.89957065670E-01  0.51100000000E-03 0. -1.
         11    1    4    4    0    0 -0.94613196189E-02  0.10118631480E-01  0.39559932725E-01  0.41918404909E-01  0.51100000000E-03 0.  1.
</event>
<event>
 8    1  0.1112929E+005  0.1043930E+01  0.7957747E-01            NaN
         13   -1    0    0    0    0  0.00000000000E+00  0.00000000000E+00  0.74505805969E-08  0.10566000000E+00  0.10566000000E+00 0. -1.
     999900   -1    0    0    0    0 -0.00000000000E+00 -0.00000000000E+00 -0.74505805969E-08  0.93827000000E+00  0.93827000000E+00 0.  1.
     999902    2    1    2    0    0 -0.10088361694E-01 -0.15911786843E-01  0.14546252447E-01  0.10201276165E+01  0.10198498911E+01 0.  0.
     999903    2    3    3    0    0  0.96623717360E-01 -0.77365597989E-02 -0.81810448320E-01  0.12842199466E+00  0.20081388019E-01 0.  0.
         14    1    1    2    0    0  0.10088361694E-01  0.15911786843E-01 -0.14546252447E-01  0.23802383546E-01  0.00000000000E+00 0.  1.
     999901    1    3    3    0    0 -0.10671207905E+00 -0.81752270440E-02  0.96356700767E-01  0.89170562179E+00  0.88000000000E+00 0. -1.
        -11    1    4    4    0    0  0.66658001035E-01 -0.60453147740E-02 -0.67878107301E-01  0.95328555557E-01  0.51100000000E-03 0. -1.
         11    1    4    4    0    0  0.29965716324E-01 -0.16912450249E-02 -0.13932341019E-01  0.33093439106E-01  0.51100000000E-03 0.  1.
</event>
<event>
 8    1  0.1112929E+005  0.1043930E+01  0.7957747E-01            NaN
         13   -1    0    0    0    0  0.00000000000E+00  0.00000000000E+00  0.74505805969E-08  0.10566000000E+00  0.10566000000E+00 0.  1.
     999900   -1    0    0    0    0 -0.00000000000E+00 -0.00000000000E+00 -0.74505805969E-08  0.93827000000E+00  0.93827000000E+00 0. -1.
     999902    2    1    2    0    0  0.17535445010E-01  0.12782904877E-01 -0.76654109667E-02  0.10209158084E+01  0.10206563745E+01 0.  0.
     999903    2    3    3    0    0 -0.76487924202E-01 -0.51648087016E-01 -0.88645927820E-01  0.12987731835E+00  0.22183098565E-01 0.  0.
         14    1    1    2    0    0 -0.17535445010E-01 -0.12782904877E-01  0.76654109667E-02  0.23014191580E-01  0.00000000000E+00 0.  1.
     999901    1    3    3    0    0  0.94023369212E-01  0.64430991893E-01  0.80980516853E-01  0.89103849007E+00  0.88000000000E+00 0.  1.
        -11    1    4    4    0    0 -0.48444363153E-01 -0.38610174561E-01 -0.71152548575E-01  0.94342716681E-01  0.51100000000E-03 0.  1.
         11    1    4    4    0    0 -0.28043561049E-01 -0.13037912456E-01 -0.17493379244E-01  0.35534601671E-01  0.51100000000E-03 0. -1.
</event>
<event>
 8    1  0.1112929E+005  0.1043930E+01  0.7957747E-01            NaN
         13   -1    0    0    0    0  0.00000000000E+00  0.00000000000E+00  0.74505805969E-08  0.10566000000E+00  0.10566000000E+00 0. -1.
     999900   -1    0    0    0    0 -0.00000000000E+00 -0.00000000000E+00 -0.74505805969E-08  0.93827000000E+00  0.93827000000E+00 0. -1.
     999902    2    1    2    0    0  0.46114432061E-04  0.76741096744E-02  0.22011065850E-01  0.10206194636E+01  0.10203532273E+01 0.  0.
     999903    2    3    3    0    0  0.64416215656E-02 -0.15919936741E-01 -0.12516264231E+00  0.12806264084E+00  0.20962205911E-01 0.  0.
         14    1    1    2    0    0 -0.46114432061E-04 -0.76741096744E-02 -0.22011065850E-01  0.23310536366E-01  0.00000000000E+00 0.  1.
     999901    1    3    3    0    0 -0.63955071335E-02  0.23594046415E-01  0.14717370816E+00  0.89255682279E+00  0.88000000000E+00 0.  1.
        -11    1    4    4    0    0 -0.39222205473E-03 -0.11461449095E-01 -0.24363697005E-01  0.26932684720E-01  0.51100000000E-03 0. -1.
         11    1    4    4    0    0  0.68338436203E-02 -0.44584876454E-02 -0.10079894530E+00  0.10112995612E+00  0.51100000000E-03 0.  1.
</event>
<event>
 8    1  0.1112929E+005  0.1043930E+01  0.7957747E-01            NaN
         13   -1    0    0    0    0  0.00000000000E+00  0.00000000000E+00  0.74505805969E-08  0.10566000000E+00  0.10566000000E+00 0.  1.
     999900   -1    0    0    0    0 -0.00000000000E+00 -0.00000000000E+00 -0.74505805969E-08  0.93827000000E+00  0.93827000000E+00 0.  1.
     999902    2    1    2    0    0  0.33580428448E-02 -0.19249924887E-01 -0.13590305201E-01  0.10201280577E+01  0.10198503428E+01 0.  0.
     999903    2    3    3    0    0  0.80923117946E-01  0.95249283207E-01 -0.25851550314E-01  0.12924268483E+00  0.20356619552E-01 0.  0.
         14    1    1    2    0    0 -0.33580428448E-02  0.19249924887E-01  0.13590305201E-01  0.23801942260E-01  0.00000000000E+00 0.  1.
     999901    1    3    3    0    0 -0.77565075101E-01 -0.11449920809E+00  0.12261245113E-01  0.89088537291E+00  0.88000000000E+00 0.  1.
        -11    1    4    4    0    0  0.42652528534E-01  0.55953671544E-01 -0.49207853826E-02  0.70530325388E-01  0.51100000000E-03 0.  1.
         11    1    4    4    0    0  0.38270589412E-01  0.39295611663E-01 -0.20930764932E-01  0.58712359444E-01  0.51100000000E-03 0. -1.
</event>
<event>
 8    1  0.1112929E+005  0.1043930E+01  0.7957747E-01            NaN
         13   -1    0    0    0    0  0.00000000000E+00  0.00000000000E+00  0.74505805969E-08  0.10566000000E+00  0.10566000000E+00 0. -1.
     999900   -1    0    0    0    0 -0.00000000000E+00 -0.00000000000E+00 -0.74505805969E-08  0.93827000000E+00  0.93827000000E+00 0.  1.
     999902    2    1    2    0    0 -0.49972058994E-02 -0.11793847440E-01  0.19711219527E-01  0.10204225740E+01  0.10201517683E+01 0.  0.
     999903    2    3    3    0    0  0.11392851862E+00 -0.14631443839E-01  0.60808195248E-01  0.13146793994E+00  0.19808990896E-01 0.  0.
         14    1    1    2    0    0  0.49972058994E-02  0.11793847440E-01 -0.19711219527E-01  0.23507426050E-01  0.00000000000E+00 0.  1.
     999901    1    3    3    0    0 -0.11892572452E+00  0.28375963990E-02 -0.41096975721E-01  0.88895463401E+00  0.88000000000E+00 0. -1.
        -11    1    4    4    0    0  0.49188297655E-01 -0.16050723516E-01  0.29082627680E-01  0.59356336691E-01  0.51100000000E-03 0. -1.
         11    1    4    4    0    0  0.64740220965E-01  0.14192796764E-02  0.31725567568E-01  0.72111603254E-01  0.51100000000E-03 0.  1.
</event>
<event>
 8    1  0.1112929E+005  0.1043930E+01  0.7957747E-01            NaN
         13   -1    0    0    0    0  0.00000000000E+00  0.00000000000E+00  0.74505805969E-08  0.10566000000E+00  0.10566000000E+00 0.  1.
     999900   -1    0    0    0    0 -0.00000000000E+00 -0.00000000000E+00 -0.74505805969E-08  0.93827000000E+00  0.93827000000E+00 0. -1.
     999902    2    1    2    0    0 -0.18523629905E-01  0.13436633611E-01  0.44614620265E-02  0.10206153559E+01  0.10203490246E+01 0.  0.
     999903    2    3    3    0    0 -0.95313580914E-01  0.91714667986E-01 -0.41865055824E-02  0.13376760423E+00  0.19493231693E-01 0.  0.
         14    1    1    2    0    0  0.18523629905E-01 -0.13436633611E-01 -0.44614620265E-02  0.23314644133E-01  0.00000000000E+00 0. -1.
     999901    1    3    3    0    0  0.76789951009E-01 -0.78278034375E-01  0.86479676089E-02  0.88684775164E+00  0.88000000000E+00 0.  1.
        -11    1    4    4    0    0 -0.78134081429E-01  0.84155027906E-01 -0.53037249455E-02  0.11495822729E+00  0.51100000000E-03 0. -1.
         11    1    4    4    0    0 -0.17179499485E-01  0.75596400796E-02  0.11172193631E-02  0.18809376938E-01  0.51100000000E-03 0.  1.
</event>
<event>
 8    1  0.1112929E+005  0.1043930E+01  0.7957747E-01            NaN
         13   -1    0    0    0    0  0.00000000000E+00  0.00000000000E+00  0.74505805969E-08  0.10566000000E+00  0.10566000000E+00 0.  1.
     999900   -1    0    0    0    0 -0.00000000000E+00 -0.00000000000E+00 -0.74505805969E-08  0.93827000000E+00  0.93827000000E+00 0. -1.
     999902    2    1    2    0    0  0.10247823122E-01 -0.15882358406E-01  0.14262674854E-01  0.10202510836E+01  0.10199762657E+01 0.  0.
     999903    2    3    3    0    0  0.11297541805E-02  0.65401083114E-01 -0.10904879115E+00  0.12789697526E+00  0.13690120982E-01 0.  0.
         14    1    1    2    0    0 -0.10247823122E-01  0.15882358406E-01 -0.14262674854E-01  0.23678916387E-01  0.00000000000E+00 0. -1.
     999901    1    3    3    0    0  0.91180689412E-02 -0.81283441520E-01  0.12331146600E+00  0.89235410835E+00  0.88000000000E+00 0.  1.
        -11    1    4    4    0    0  0.52992611345E-02  0.32404608857E-01 -0.63584642049E-01  0.71564017978E-01  0.51100000000E-03 0. -1.
         11    1    4    4    0    0 -0.41695069539E-02  0.32996474257E-01 -0.45464149101E-01  0.56332957282E-01  0.51100000000E-03 0.  1.
</event>
<event>
 8    1  0.1112929E+005  0.1043930E+01  0.7957747E-01            NaN
         13   -1    0    0    0    0  0.00000000000E+00  0.00000000000E+00  0.74505805969E-08  0.10566000000E+00  0.10566000000E+00 0.  1.
     999900   -1    0    0    0    0 -0.00000000000E+00 -0.00000000000E+00 -0.74505805969E-08  0.93827000000E+00  0.93827000000E+00 0.  1.
     999902    2    1    2    0    0  0.22136285103E-01  0.73642267623E-02  0.45155264628E-02  0.10201679097E+01  0.10198911349E+01 0.  0.
     999903    2    3    3    0    0 -0.78471020818E-01 -0.12603902312E-01 -0.98586250022E-01  0.12823151487E+00  0.20186957472E-01 0.  0.
         14    1    1    2    0    0 -0.22136285103E-01 -0.73642267623E-02 -0.45155264628E-02  0.23762090253E-01  0.00000000000E+00 0.  1.
     999901    1    3    3    0    0  0.10060730592E+00  0.19968129074E-01  0.10310177648E+00  0.89193639487E+00  0.88000000000E+00 0.  1.
        -11    1    4    4    0    0 -0.20361581694E-01 -0.89383714710E-02 -0.39143911326E-01  0.45022165747E-01  0.51100000000E-03 0.  1.
         11    1    4    4    0    0 -0.58109439124E-01 -0.36655308408E-02 -0.59442338696E-01  0.83209349128E-01  0.51100000000E-03 0. -1.
</event>
<event>
 8    1  0.1112929E+005  0.1043930E+01  0.7957747E-01            NaN
         13   -1    0    0    0    0  0.00000000000E+00  0.00000000000E+00  0.74505805969E-08  0.10566000000E+00  0.10566000000E+00 0.  1.
     999900   -1    0    0    0    0 -0.00000000000E+00 -0.00000000000E+00 -0.74505805969E-08  0.93827000000E+00  0.93827000000E+00 0.  1.
     999902    2    1    2    0    0 -0.16684877936E-01 -0.16635500105E-01  0.15648965772E-02  0.10203169969E+01  0.10200437246E+01 0.  0.
     999903    2    3    3    0    0 -0.79986040723E-01 -0.38018073757E-01 -0.96312053488E-01  0.13237322105E+00  0.20087741568E-01 0.  0.
         14    1    1    2    0    0  0.16684877936E-01  0.16635500105E-01 -0.15648965772E-02  0.23613003129E-01  0.00000000000E+00 0. -1.
     999901    1    3    3    0    0  0.63301162787E-01  0.21382573652E-01  0.97876950065E-01  0.88794377582E+00  0.88000000000E+00 0. -1.
        -11    1    4    4    0    0 -0.35381674605E-01 -0.63675895704E-02 -0.34366446791E-01  0.49736534668E-01  0.51100000000E-03 0.  1.
         11    1    4    4    0    0 -0.44604366118E-01 -0.31650484187E-01 -0.61945606697E-01  0.82636686381E-01  0.51100000000E-03 0. -1.
</event>
<event>
 8    1  0.1112929E+005  0.1043930E+01  0.7957747E-01            NaN
         13   -1    0    0    0    0  0.00000000000E+00  0.00000000000E+00  0.74505805969E-08  0.10566000000E+00  0.10566000000E+00 0. -1.
     999900   -1    0    0    0    0 -0.00000000000E+00 -0.00000000000E+00 -0.74505805969E-08  0.93827000000E+00  0.93827000000E+00 0. -1.
     999902    2    1    2    0    0  0.14936816193E-01  0.67143577761E-02  0.16316847916E-01  0.10208122448E+01  0.10205504439E+01 0.  0.
     999903    2    3    3    0    0  0.11008763919E+00  0.15933563150E-01 -0.67142047773E-01  0.13170929233E+00  0.21589728356E-01 0.  0.
         14    1    1    2    0    0 -0.14936816193E-01 -0.67143577761E-02 -0.16316847916E-01  0.23117755173E-01  0.00000000000E+00 0.  1.
     999901    1    3    3    0    0 -0.95150822997E-01 -0.92192053738E-02  0.83458895689E-01  0.88910295249E+00  0.88000000000E+00 0.  1.
        -11    1    4    4    0    0  0.31363715189E-01  0.70653916329E-02 -0.30881981184E-01  0.44582062225E-01  0.51100000000E-03 0. -1.
         11    1    4    4    0    0  0.78723924001E-01  0.88681715170E-02 -0.36260066589E-01  0.87127230108E-01  0.51100000000E-03 0.  1.
</event>
<event>
 8    1  0.1112929E+005  0.1043930E+01  0.7957747E-01            NaN
         13   -1    0    0    0    0  0.00000000000E+00  0.00000000000E+00  0.74505805969E-08  0.10566000000E+00  0.10566000000E+00 0.  1.
     999900   -1    0    0    0    0 -0.00000000000E+00 -0.00000000000E+00 -0.74505805969E-08  0.93827000000E+00  0.93827000000E+00 0.  1.
     999902    2    1    2    0    0  0.18395638074E-01 -0.13885600295E-01  0.62269974443E-02  0.10200556436E+01  0.10197762162E+01 0.  0.
     999903    2    3    3    0    0 -0.69253937862E-01 -0.79351904200E-01 -0.73646329363E-01  0.12969165431E+00  0.17415819246E-01 0.  0.
         14    1    1    2    0    0 -0.18395638074E-01  0.13885600295E-01 -0.62269974443E-02  0.23874356387E-01  0.00000000000E+00 0. -1.
     999901    1    3    3    0    0  0.87649575936E-01  0.65466303904E-01  0.79873326807E-01  0.89036398930E+00  0.88000000000E+00 0.  1.
        -11    1    4    4    0    0 -0.12825755692E-01 -0.15329604497E-01 -0.22907506232E-01  0.30405784743E-01  0.51100000000E-03 0.  1.
         11    1    4    4    0    0 -0.56428182170E-01 -0.64022299703E-01 -0.50738823131E-01  0.99285869569E-01  0.51100000000E-03 0. -1.
</event>
<event>
 8    1  0.1112929E+005  0.1043930E+01  0.7957747E-01            NaN
         13   -1    0    0    0    0  0.00000000000E+00  0.00000000000E+00  0.74505805969E-08  0.10566000000E+00  0.10566000000E+00 0. -1.
     999900   -1    0    0    0    0 -0.00000000000E+00 -0.00000000000E+00 -0.74505805969E-08  0.93827000000E+00  0.93827000000E+00 0.  1.
     999902    2    1    2    0    0  0.66704027047E-03  0.16408343598E-02 -0.22955258201E-01  0.10209065085E+01  0.10206468625E+01 0.  0.
     999903    2    3    3    0    0  0.99903019317E-01 -0.28668838310E-01  0.74752891766E-01  0.12943954989E+00  0.19081055753E-01 0.  0.
         14    1    1    2    0    0 -0.66704027047E-03 -0.16408343598E-02  0.22955258201E-01  0.23023491464E-01  0.00000000000E+00 0. -1.
     999901    1    3    3    0    0 -0.99235979046E-01  0.30309672670E-01 -0.97708149967E-01  0.89146695865E+00  0.88000000000E+00 0.  1.
        -11    1    4    4    0    0  0.13712514749E-01 -0.98170987602E-03  0.34004978106E-02  0.14171143968E-01  0.51100000000E-03 0.  1.
         11    1    4    4    0    0  0.86190504568E-01 -0.27687128434E-01  0.71352393955E-01  0.11526840592E+00  0.51100000000E-03 0. -1.
</event>
<event>
 8    1  0.1112929E+005  0.1043930E+01  0.7957747E-01            NaN
         13   -1    0    0    0    0  0.00000000000E+00  0.00000000000E+00  0.74505805969E-08  0.10566000000E+00  0.10566000000E+00 0. -1.
     999900   -1    0    0    0    0 -0.00000000000E+00 -0.00000000000E+00 -0.74505805969E-08  0.93827000000E+00  0.93827000000E+00 0. -1.
     999902    2    1    2    0    0  0.63994186801E-02  0.23726232421E-01  0.56838172347E-02  0.10187071444E+01  0.10183948417E+01 0.  0.
     999903    2    3    3    0    0  0.14258644007E-01 -0.16102738237E-01 -0.12479939387E+00  0.12816013125E+00  0.19685614621E-01 0.  0.
         14    1    1    2    0    0 -0.63994186801E-02 -0.23726232421E-01 -0.56838172347E-02  0.25222855562E-01  0.00000000000E+00 0.  1.
     999901    1    3    3    0    0 -0.78592253265E-02  0.39828970658E-01  0.13048321110E+00  0.89054701319E+00  0.88000000000E+00 0.  1.
        -11    1    4    4    0    0  0.14129469702E-01 -0.23054705792E-02 -0.80302045206E-01  0.81569827105E-01  0.51100000000E-03 0.  1.
         11    1    4    4    0    0  0.12917430457E-03 -0.13797267658E-01 -0.44497348663E-01  0.46590304140E-01  0.51100000000E-03 0. -1.
</event>
<event>
 8    1  0.1112929E+005  0.1043930E+01  0.7957747E-01            NaN
         13   -1    0    0    0    0  0.00000000000E+00  0.00000000000E+00  0.74505805969E-08  0.10566000000E+00  0.10566000000E+00 0. -1.
     999900   -1    0    0    0    0 -0.00000000000E+00 -0.00000000000E+00 -0.74505805969E-08  0.93827000000E+00  0.93827000000E+00 0.  1.
     999902    2    1    2    0    0  0.18874958898E-01  0.12353758672E-01 -0.83211073068E-02  0.10198858686E+01  0.10196024052E+01 0.  0.
     999903    2    3    3    0    0  0.11354152714E+00  0.64910536416E-01 -0.18193255348E-01  0.13319458450E+00  0.17456995083E-01 0.  0.
         14    1    1    2    0    0 -0.18874958898E-01 -0.12353758672E-01  0.83211073068E-02  0.24044131375E-01  0.00000000000E+00 0. -1.
     999901    1    3    3    0    0 -0.94666568244E-01 -0.52556777744E-01  0.98721480414E-02  0.88669128412E+00  0.88000000000E+00 0.  1.
        -11    1    4    4    0    0  0.83669382693E-01  0.54600804352E-01 -0.91910470962E-02  0.10033219774E+00  0.51100000000E-03 0.  1.
         11    1    4    4    0    0  0.29872144450E-01  0.10309732064E-01 -0.90022082519E-02  0.32862386762E-01  0.51100000000E-03 0. -1.
</event>
<event>
 8    1  0.1112929E+005  0.1043930E+01  0.7957747E-01            NaN
         13   -1    0    0    0    0  0.00000000000E+00  0.00000000000E+00  0.74505805969E-08  0.10566000000E+00  0.10566000000E+00 0.  1.
     999900   -1    0    0    0    0 -0.00000000000E+00 -0.00000000000E+00 -0.74505805969E-08  0.93827000000E+00  0.93827000000E+00 0.  1.
     999902    2    1    2    0    0  0.14966136013E-01 -0.13754573523E-01 -0.11360626399E-01  0.10206440095E+01  0.10203783400E+01 0.  0.
     999903    2    3    3    0    0 -0.53896190159E-02  0.23235635703E-01  0.12516879173E+00  0.12911559475E+00  0.20848684018E-01 0.  0.
         14    1    1    2    0    0 -0.14966136013E-01  0.13754573523E-01  0.11360626399E-01  0.23285990469E-01  0.00000000000E+00 0.  1.
     999901    1    3    3    0    0  0.20355755028E-01 -0.36990209226E-01 -0.13652941813E+00  0.89152841478E+00  0.88000000000E+00 0.  1.
        -11    1    4    4    0    0  0.61512118920E-02  0.52316754372E-03  0.25275196423E-01  0.26023216313E-01  0.51100000000E-03 0.  1.
         11    1    4    4    0    0 -0.11540830908E-01  0.22712468159E-01  0.99893595308E-01  0.10309237844E+00  0.51100000000E-03 0. -1.
</event>
<event>
 8    1  0.1112929E+005  0.1043930E+01  0.7957747E-01            NaN
         13   -1    0    0    0    0  0.00000000000E+00  0.00000000000E+00  0.74505805969E-08  0.10566000000E+00  0.10566000000E+00 0. -1.
     999900   -1    0    0    0    0 -0.00000000000E+00 -0.00000000000E+00 -0.74505805969E-08  0.93827000000E+00  0.93827000000E+00 0.  1.
     999902    2    1    2    0    0 -0.90185954697E-02 -0.18382340647E-01  0.94479849593E-02  0.10213798352E+01  0.10211308721E+01 0.  0.
     999903    2    3    3    0    0  0.39247148680E-01 -0.33439305012E-01  0.12113102166E+00  0.13288144190E+00  0.18061766083E-01 0.  0.
         14    1    1    2    0    0  0.90185954697E-02  0.18382340647E-01 -0.94479849593E-02  0.22550164782E-01  0.00000000000E+00 0.  1.
     999901    1    3    3    0    0 -0.48265744150E-01  0.15056964365E-01 -0.11168303670E+00  0.88849839331E+00  0.88000000000E+00 0.  1.
        -11    1    4    4    0    0  0.23237031195E-01 -0.96550874151E-02  0.67963681601E-01  0.72474157253E-01  0.51100000000E-03 0. -1.
         11    1    4    4    0    0  0.16010117485E-01 -0.23784217597E-01  0.53167340062E-01  0.60407284650E-01  0.51100000000E-03 0.  1.
</event>
<event>
 8    1  0.1112929E+005  0.1043930E+01  0.7957747E-01            NaN
         13   -1    0    0    0    0  0.00000000000E+00  0.00000000000E+00  0.74505805969E-08  0.10566000000E+00  0.10566000000E+00 0.  1.
     999900   -1    0    0    0    0 -0.00000000000E+00 -0.00000000000E+00 -0.74505805969E-08  0.93827000000E+00  0.93827000000E+00 0. -1.
     999902    2    1    2    0    0 -0.14640022486E-01 -0.13998580258E-01 -0.53063904903E-02  0.10229908432E+01  0.10227765235E+01 0.  0.
     999903    2    3    3    0    0 -0.19551075591E-01  0.42130902827E-01 -0.12351967054E+00  0.13330043811E+00  0.18831894798E-01 0.  0.
         14    1    1    2    0    0  0.14640022486E-01  0.13998580258E-01  0.53063904903E-02  0.20939156804E-01  0.00000000000E+00 0.  1.
     999901    1    3    3    0    0  0.49110531047E-02 -0.56129483086E-01  0.11821328005E+00  0.88969040508E+00  0.88000000000E+00 0.  1.
        -11    1    4    4    0    0 -0.42006424035E-02  0.15108726544E-01 -0.66848872707E-01  0.68665507480E-01  0.51100000000E-03 0. -1.
         11    1    4    4    0    0 -0.15350433187E-01  0.27022176284E-01 -0.56670797832E-01  0.64634930634E-01  0.51100000000E-03 0.  1.
</event>
<event>
 8    1  0.1112929E+005  0.1043930E+01  0.7957747E-01            NaN
         13   -1    0    0    0    0  0.00000000000E+00  0.00000000000E+00  0.74505805969E-08  0.10566000000E+00  0.10566000000E+00 0. -1.
     999900   -1    0    0    0    0 -0.00000000000E+00 -0.00000000000E+00 -0.74505805969E-08  0.93827000000E+00  0.93827000000E+00 0.  1.
     999902    2    1    2    0    0  0.10994489423E-01 -0.20088656034E-01 -0.67411111472E-02  0.10200579352E+01  0.10197785621E+01 0.  0.
     999903    2    3    3    0    0  0.33918260335E-01  0.12158043549E+00  0.10918758285E-01  0.12825778843E+00  0.19964727183E-01 0.  0.
         14    1    1    2    0    0 -0.10994489423E-01  0.20088656034E-01  0.67411111472E-02  0.23872064813E-01  0.00000000000E+00 0. -1.
     999901    1    3    3    0    0 -0.22923770913E-01 -0.14166909153E+00 -0.17659869432E-01  0.89180014676E+00  0.88000000000E+00 0.  1.
        -11    1    4    4    0    0  0.28702849374E-01  0.11771143556E+00  0.11563832888E-01  0.12171203299E+00  0.51100000000E-03 0.  1.
         11    1    4    4    0    0  0.52154109617E-02  0.38689999369E-02 -0.64507460298E-03  0.65457554380E-02  0.51100000000E-03 0. -1.
</event>
<event>
 8    1  0.1112929E+005  0.1043930E+01  0.7957747E-01            NaN
         13   -1    0    0    0    0  0.00000000000E+00  0.00000000000E+00  0.74505805969E-08  0.10566000000E+00  0.10566000000E+00 0.  1.
     999900   -1    0    0    0    0 -0.00000000000E+00 -0.00000000000E+00 -0.74505805969E-08  0.93827000000E+00  0.93827000000E+00 0.  1.
     999902    2    1    2    0    0  0.16247529875E-01  0.19846626693E-01  0.22362844591E-02  0.10181837034E+01  0.10178581346E+01 0.  0.
     999903    2    3    3    0    0  0.61887093062E-01 -0.10680837604E+00  0.25743340425E-01  0.12763497310E+00  0.19746526331E-01 0.  0.
         14    1    1    2    0    0 -0.16247529875E-01 -0.19846626693E-01 -0.22362844591E-02  0.25746296555E-01  0.00000000000E+00 0.  1.
     999901    1    3    3    0    0 -0.45639563187E-01  0.12665500273E+00 -0.23507055966E-01  0.89054873035E+00  0.88000000000E+00 0. -1.
        -11    1    4    4    0    0  0.18483377882E-01 -0.26541113621E-01  0.15313171156E-01  0.35788549873E-01  0.51100000000E-03 0.  1.
         11    1    4    4    0    0  0.43403715180E-01 -0.80267262415E-01  0.10430169269E-01  0.91846423224E-01  0.51100000000E-03 0. -1.
</event>
<event>
 8    1  0.1112929E+005  0.1043930E+01  0.7957747E-01            NaN
         13   -1    0    0    0    0  0.00000000000E+00  0.00000000000E+00  0.74505805969E-08  0.10566000000E+00  0.10566000000E+00 0.  1.
     999900   -1    0    0    0    0 -0.00000000000E+00 -0.00000000000E+00 -0.74505805969E-08  0.93827000000E+00  0.93827000000E+00 0.  1.
     999902    2    1    2    0    0 -0.22289251186E-01 -0.74731444576E-02  0.25263123534E-02  0.10202859551E+01  0.10200119554E+01 0.  0.
     999903    2    3    3    0    0 -0.11009295010E+00  0.61918463764E-01  0.35057167260E-01  0.13260192268E+00  0.19997777539E-01 0.  0.
         14    1    1    2    0    0  0.22289251186E-01  0.74731444576E-02 -0.25263123534E-02  0.23644044929E-01  0.00000000000E+00 0. -1.
     999901    1    3    3    0    0  0.87803698914E-01 -0.69391608222E-01 -0.32530854907E-01  0.88768403239E+00  0.88000000000E+00 0.  1.
        -11    1    4    4    0    0 -0.20556933857E-01  0.11412025998E-01  0.14910943999E-01  0.27846350550E-01  0.51100000000E-03 0. -1.
         11    1    4    4    0    0 -0.89536016242E-01  0.50506437766E-01  0.20146223260E-01  0.10475557213E+00  0.51100000000E-03 0.  1.
</event>
<event>
 8    1  0.1112929E+005  0.1043930E+01  0.7957747E-01            NaN
         13   -1    0    0    0    0  0.00000000000E+00  0.00000000000E+00  0.74505805969E-08  0.10566000000E+00  0.10566000000E+00 0.  1.
     999900   -1    0    0    0    0 -0.00000000000E+00 -0.00000000000E+00 -0.74505805969E-08  0.93827000000E+00  0.93827000000E+00 0. -1.
     999902    2    1    2    0    0 -0.12297786347E-01 -0.22251864782E-02  0.20858709362E-01  0.10196138992E+01  0.10193239086E+01 0.  0.
     999903    2    3    3    0    0 -0.21090691546E-02  0.56503843588E-02  0.13069603993E+00  0.13269221504E+00  0.22122252644E-01 0.  0.
         14    1    1    2    0    0  0.12297786347E-01  0.22251864782E-02 -0.20858709362E-01  0.24316100841E-01  0.00000000000E+00 0. -1.
     999901    1    3    3    0    0 -0.10188717192E-01 -0.78755708371E-02 -0.10983733057E+00  0.88692168412E+00  0.88000000000E+00 0. -1.
        -11    1    4    4    0    0 -0.10349068045E-01  0.35274748453E-02  0.10605525509E+00  0.10661859379E+00  0.51100000000E-03 0.  1.
         11    1    4    4    0    0  0.82399988905E-02  0.21229095135E-02  0.24640784843E-01  0.26073621252E-01  0.51100000000E-03 0. -1.
</event>
<event>
 8    1  0.1112929E+005  0.1043930E+01  0.7957747E-01            NaN
         13   -1    0    0    0    0  0.00000000000E+00  0.00000000000E+00  0.74505805969E-08  0.10566000000E+00  0.10566000000E+00 0.  1.
     999900   -1    0    0    0    0 -0.00000000000E+00 -0.00000000000E+00 -0.74505805969E-08  0.93827000000E+00  0.93827000000E+00 0. -1.
     999902    2    1    2    0    0  0.23240097345E-01  0.21341995300E-01  0.17678605888E-01  0.10077621138E+01  0.10071128844E+01 0.  0.
     999903    2    3    3    0    0  0.18762999394E-01 -0.93954258097E-01 -0.62786073313E-01  0.11658994463E+00  0.21717997747E-01 0.  0.
         14    1    1    2    0    0 -0.23240097345E-01 -0.21341995300E-01 -0.17678605888E-01  0.36167886227E-01  0.00000000000E+00 0. -1.
     999901    1    3    3    0    0  0.44770979512E-02  0.11529625340E+00  0.80464679201E-01  0.89117216914E+00  0.88000000000E+00 0.  1.
        -11    1    4    4    0    0  0.23409907441E-01 -0.74083977007E-01 -0.47229023237E-01  0.90924700563E-01  0.51100000000E-03 0. -1.
         11    1    4    4    0    0 -0.46469080470E-02 -0.19870281091E-01 -0.15557050076E-01  0.25665244068E-01  0.51100000000E-03 0.  1.
</event>
<event>
 8    1  0.1112929E+005  0.1043930E+01  0.7957747E-01            NaN
         13   -1    0    0    0    0  0.00000000000E+00  0.00000000000E+00  0.74505805969E-08  0.10566000000E+00  0.10566000000E+00 0. -1.
     999900   -1    0    0    0    0 -0.00000000000E+00 -0.00000000000E+00 -0.74505805969E-08  0.93827000000E+00  0.93827000000E+00 0. -1.
     999902    2    1    2    0    0 -0.13422406941E-01  0.16390021103E-01 -0.10086546410E-01  0.10204665770E+01  0.10201967960E+01 0.  0.
     999903    2    3    3    0    0  0.12529640803E+00  0.64872223573E-02 -0.25306759576E-01  0.12941515878E+00  0.19146209071E-01 0.  0.
         14    1    1    2    0    0  0.13422406941E-01 -0.16390021103E-01  0.10086546410E-01  0.23463422988E-01  0.00000000000E+00 0.  1.
     999901    1    3    3    0    0 -0.13871881497E+00  0.99027987453E-02  0.15220213166E-01  0.89105141824E+00  0.88000000000E+00 0.  1.
        -11    1    4    4    0    0  0.11646058116E+00  0.77251257311E-02 -0.18485068214E-01  0.11817234617E+00  0.51100000000E-03 0.  1.
         11    1    4    4    0    0  0.88358268695E-02 -0.12379033738E-02 -0.68216913625E-02  0.11242812605E-01  0.51100000000E-03 0. -1.
</event>
<event>
 8    1  0.1112929E+005  0.1043930E+01  0.7957747E-01            NaN
         13   -1    0    0    0    0  0.00000000000E+00  0.00000000000E+00  0.74505805969E-08  0.10566000000E+00  0.10566000000E+00 0.  1.
     999900   -1    0    0    0    0 -0.00000000000E+00 -0.00000000000E+00 -0.74505805969E-08  0.93827000000E+00  0.93827000000E+00 0. -1.
     999902    2    1    2    0    0 -0.10450615330E-01  0.21212609644E-01  0.18511961176E-02  0.10202104491E+01  0.10199346760E+01 0.  0.
     999903    2    3    3    0    0 -0.67341715367E-01  0.97257382794E-01 -0.57650393906E-01  0.13310287725E+00  0.19972553122E-01 0.  0.
         14    1    1    2    0    0  0.10450615330E-01 -0.21212609644E-01 -0.18511961176E-02  0.23719550918E-01  0.00000000000E+00 0. -1.
     999901    1    3    3    0    0  0.56891100036E-01 -0.76044773150E-01  0.59501590023E-01  0.88710757183E+00  0.88000000000E+00 0.  1.
        -11    1    4    4    0    0 -0.53149936497E-01  0.68585865371E-01 -0.33488663913E-01  0.93009077030E-01  0.51100000000E-03 0. -1.
         11    1    4    4    0    0 -0.14191778870E-01  0.28671517423E-01 -0.24161729992E-01  0.40093800220E-01  0.51100000000E-03 0.  1.
</event>
<event>
 7    1  0.1112929E+005  0.1043930E+01  0.7957747E-01            NaN
         13   -1    0    0    0    0  0.00000000000E+00  0.00000000000E+00  0.74505805969E-08  0.10566000000E+00  0.10566000000E+00 0. -1.
     999900   -1    0    0    0    0 -0.00000000000E+00 -0.00000000000E+00 -0.74505805969E-08  0.93827000000E+00  0.93827000000E+00 0. -1.
     999903    2    1    2    0    0  0.35276688625E-01  0.86156380401E-01 -0.69118577034E-01  0.11783742049E+00  0.20997936405E-01 0.  0.
         14    1    1    2    0    0 -0.95421232139E-02 -0.35443186674E-01  0.22442469007E-01  0.43022505879E-01  0.00000000000E+00 0. -1.
     999901    1    1    2    0    0 -0.25734565411E-01 -0.50713193728E-01  0.46676108026E-01  0.88307007363E+00  0.88000000000E+00 0.  1.
        -11    1    3    3    0    0  0.31153747776E-01  0.78826959243E-01 -0.53915198660E-01  0.10045573787E+00  0.51100000000E-03 0.  1.
         11    1    3    3    0    0  0.41229408487E-02  0.73294211579E-02 -0.15203378374E-01  0.17381682621E-01  0.51100000000E-03 0. -1.
</event>
<event>
 8    1  0.1112929E+005  0.1043930E+01  0.7957747E-01            NaN
         13   -1    0    0    0    0  0.00000000000E+00  0.00000000000E+00  0.74505805969E-08  0.10566000000E+00  0.10566000000E+00 0. -1.
     999900   -1    0    0    0    0 -0.00000000000E+00 -0.00000000000E+00 -0.74505805969E-08  0.93827000000E+00  0.93827000000E+00 0. -1.
     999902    2    1    2    0    0  0.47360803608E-02  0.23119664609E-01 -0.40790829323E-02  0.10199802972E+01  0.10196990822E+01 0.  0.
     999903    2    3    3    0    0 -0.12100862819E+00  0.12639964067E-01  0.38643954985E-01  0.12995399764E+00  0.24327545275E-01 0.  0.
         14    1    1    2    0    0 -0.47360803608E-02 -0.23119664609E-01  0.40790829323E-02  0.23949702846E-01  0.00000000000E+00 0. -1.
     999901    1    3    3    0    0  0.12574470855E+00  0.10479700542E-01 -0.42723037918E-01  0.89002629951E+00  0.88000000000E+00 0. -1.
        -11    1    4    4    0    0 -0.46132148252E-01  0.14520361976E-01  0.22445999425E-01  0.53320727916E-01  0.51100000000E-03 0. -1.
         11    1    4    4    0    0 -0.74876479936E-01 -0.18803979088E-02  0.16197955560E-01  0.76633269728E-01  0.51100000000E-03 0.  1.
</event>
<event>
 8    1  0.1112929E+005  0.1043930E+01  0.7957747E-01            NaN
         13   -1    0    0    0    0  0.00000000000E+00  0.00000000000E+00  0.74505805969E-08  0.10566000000E+00  0.10566000000E+00 0. -1.
     999900   -1    0    0    0    0 -0.00000000000E+00 -0.00000000000E+00 -0.74505805969E-08  0.93827000000E+00  0.93827000000E+00 0. -1.
     999902    2    1    2    0    0 -0.15570685627E-01 -0.94003178865E-02  0.15669820013E-01  0.10199225952E+01  0.10196400074E+01 0.  0.
     999903    2    3    3    0    0 -0.77137720976E-01  0.89642561335E-01 -0.49759323772E-01  0.12982093546E+00  0.19785554876E-01 0.  0.
         14    1    1    2    0    0  0.15570685627E-01  0.94003178865E-02 -0.15669820013E-01  0.24007404827E-01  0.00000000000E+00 0.  1.
     999901    1    3    3    0    0  0.61567035349E-01 -0.99042879222E-01  0.65429143785E-01  0.89010165971E+00  0.88000000000E+00 0.  1.
        -11    1    4    4    0    0 -0.54933346728E-01  0.72578359839E-01 -0.44509894611E-01  0.10132464033E+00  0.51100000000E-03 0. -1.
         11    1    4    4    0    0 -0.22204374247E-01  0.17064201497E-01 -0.52494291607E-02  0.28496295127E-01  0.51100000000E-03 0.  1.
</event>
<event>
 8    1  0.1112929E+005  0.1043930E+01  0.7957747E-01            NaN
         13   -1    0    0    0    0  0.00000000000E+00  0.00000000000E+00  0.74505805969E-08  0.10566000000E+00  0.10566000000E+00 0.  1.
     999900   -1    0    0    0    0 -0.00000000000E+00 -0.00000000000E+00 -0.74505805969E-08  0.93827000000E+00  0.93827000000E+00 0.  1.
     999902    2    1    2    0    0 -0.26510084477E-01  0.72700604851E-02  0.19915780087E-02  0.10163690722E+01  0.10159953180E+01 0.  0.
     999903    2    3    3    0    0  0.26681566509E-01  0.12185604920E+00  0.15904145522E-01  0.12723867676E+00  0.19389076869E-01 0.  0.
         14    1    1    2    0    0  0.26510084477E-01 -0.72700604851E-02 -0.19915780087E-02  0.27560927804E-01  0.00000000000E+00 0. -1.
     999901    1    3    3    0    0 -0.53191650986E-01 -0.11458598872E+00 -0.13912567513E-01  0.88913039543E+00  0.88000000000E+00 0.  1.
        -11    1    4    4    0    0  0.82177412338E-02  0.69421306249E-01  0.15682360594E-01  0.71645283076E-01  0.51100000000E-03 0. -1.
         11    1    4    4    0    0  0.18463825275E-01  0.52434742952E-01  0.22178492772E-03  0.55593393688E-01  0.51100000000E-03 0.  1.
</event>
<event>
 8    1  0.1112929E+005  0.1043930E+01  0.7957747E-01            NaN
         13   -1    0    0    0    0  0.00000000000E+00  0.00000000000E+00  0.74505805969E-08  0.10566000000E+00  0.10566000000E+00 0.  1.
     999900   -1    0    0    0    0 -0.00000000000E+00 -0.00000000000E+00 -0.74505805969E-08  0.93827000000E+00  0.93827000000E+00 0. -1.
     999902    2    1    2    0    0  0.14142235578E-02  0.19197241157E-01  0.13137763064E-01  0.10206247449E+01  0.10203586306E+01 0.  0.
     999903    2    3    3    0    0  0.56246322655E-01 -0.59823639269E-02 -0.11444412936E+00  0.12937971077E+00  0.21028868868E-01 0.  0.
         14    1    1    2    0    0 -0.14142235578E-02 -0.19197241157E-01 -0.13137763064E-01  0.23305255086E-01  0.00000000000E+00 0.  1.
     999901    1    3    3    0    0 -0.54832099097E-01  0.25179605084E-01  0.12758189242E+00  0.89124503414E+00  0.88000000000E+00 0.  1.
        -11    1    4    4    0    0  0.77929606925E-02 -0.45449144035E-03 -0.37304895362E-01  0.38116310653E-01  0.51100000000E-03 0. -1.
         11    1    4    4    0    0  0.48453361963E-01 -0.55278724865E-02 -0.77139233994E-01  0.91263400122E-01  0.51100000000E-03 0.  1.
</event>
<event>
 8    1  0.1112929E+005  0.1043930E+01  0.7957747E-01            NaN
         13   -1    0    0    0    0  0.00000000000E+00  0.00000000000E+00  0.74505805969E-08  0.10566000000E+00  0.10566000000E+00 0. -1.
     999900   -1    0    0    0    0 -0.00000000000E+00 -0.00000000000E+00 -0.74505805969E-08  0.93827000000E+00  0.93827000000E+00 0.  1.
     999902    2    1    2    0    0  0.20477638188E-01 -0.76652124661E-02 -0.29406764328E-02  0.10218678894E+01  0.10216297013E+01 0.  0.
     999903    2    3    3    0    0  0.47320864017E-01  0.72803606258E-01  0.97490487983E-01  0.13210263473E+00  0.20176263298E-01 0.  0.
         14    1    1    2    0    0 -0.20477638188E-01  0.76652124661E-02  0.29406764328E-02  0.22062110638E-01  0.00000000000E+00 0. -1.
     999901    1    3    3    0    0 -0.26843225829E-01 -0.80468818724E-01 -0.10043116442E+00  0.88976525463E+00  0.88000000000E+00 0.  1.
        -11    1    4    4    0    0  0.16316205110E-01  0.22231707046E-01  0.45579104474E-01  0.53274602139E-01  0.51100000000E-03 0.  1.
         11    1    4    4    0    0  0.31004658907E-01  0.50571899212E-01  0.51911383509E-01  0.78828032594E-01  0.51100000000E-03 0. -1.
</event>
<event>
 8    1  0.1112929E+005  0.1043930E+01  0.7957747E-01            NaN
         13   -1    0    0    0    0  0.00000000000E+00  0.00000000000E+00  0.74505805969E-08  0.10566000000E+00  0.10566000000E+00 0.  1.
     999900   -1    0    0    0    0 -0.00000000000E+00 -0.00000000000E+00 -0.74505805969E-08  0.93827000000E+00  0.93827000000E+00 0. -1.
     999902    2    1    2    0    0  0.64458951040E-02 -0.16889448214E-01 -0.16855211048E-01  0.10192135851E+01  0.10189138486E+01 0.  0.
     999903    2    3    3    0    0 -0.10176921325E-02 -0.12656397612E+00  0.28563466883E-01  0.13121186018E+00  0.19524468303E-01 0.  0.
         14    1    1    2    0    0 -0.64458951040E-02  0.16889448214E-01  0.16855211048E-01  0.24716414872E-01  0.00000000000E+00 0.  1.
     999901    1    3    3    0    0  0.74635872365E-02  0.10967452791E+00 -0.45418677931E-01  0.88800172495E+00  0.88000000000E+00 0. -1.
        -11    1    4    4    0    0  0.67859788814E-02 -0.73242639789E-01  0.22811370278E-01  0.77013982676E-01  0.51100000000E-03 0. -1.
         11    1    4    4    0    0 -0.78036710139E-02 -0.53321336332E-01  0.57520966051E-02  0.54197877503E-01  0.51100000000E-03 0.  1.
</event>
<event>
 8    1  0.1112929E+005  0.1043930E+01  0.7957747E-01            NaN
         13   -1    0    0    0    0  0.00000000000E+00  0.00000000000E+00  0.74505805969E-08  0.10566000000E+00  0.10566000000E+00 0. -1.
     999900   -1    0    0    0    0 -0.00000000000E+00 -0.00000000000E+00 -0.74505805969E-08  0.93827000000E+00  0.93827000000E+00 0.  1.
     999902    2    1    2    0    0  0.21947191897E-01 -0.69793525523E-02 -0.49532196604E-02  0.10203731543E+01  0.10201011955E+01 0.  0.
     999903    2    3    3    0    0  0.14027834112E-01 -0.10858921313E+00  0.70240724765E-01  0.13130543513E+00  0.17859466465E-01 0.  0.
         14    1    1    2    0    0 -0.21947191897E-01  0.69793525523E-02  0.49532196604E-02  0.23556845697E-01  0.00000000000E+00 0. -1.
     999901    1    3    3    0    0  0.79193577848E-02  0.10160986057E+00 -0.75193944426E-01  0.88906771917E+00  0.88000000000E+00 0.  1.
        -11    1    4    4    0    0  0.88440810463E-02 -0.27078323344E-01  0.11619921063E-01  0.30769092466E-01  0.51100000000E-03 0. -1.
         11    1    4    4    0    0  0.51837530657E-02 -0.81510889782E-01  0.58620803702E-01  0.10053634267E+00  0.51100000000E-03 0.  1.
</event>
<event>
 8    1  0.1112929E+005  0.1043930E+01  0.7957747E-01            NaN
         13   -1    0    0    0    0  0.00000000000E+00  0.00000000000E+00  0.74505805969E-08  0.10566000000E+00  0.10566000000E+00 0.  1.
     999900   -1    0    0    0    0 -0.00000000000E+00 -0.00000000000E+00 -0.74505805969E-08  0.93827000000E+00  0.93827000000E+00 0.  1.
     999902    2    1    2    0    0  0.76413771422E-02  0.16478159881E-01 -0.15191426545E-01  0.10202508987E+01  0.10199760764E+01 0.  0.
     999903    2    3    3    0    0 -0.11274978306E+00  0.49323845483E-01 -0.38805748540E-01  0.13113307371E+00  0.23337557461E-01 0.  0.
         14    1    1    2    0    0 -0.76413771422E-02 -0.16478159881E-01  0.15191426545E-01  0.23679101295E-01  0.00000000000E+00 0.  1.
     999901    1    3    3    0    0  0.12039116020E+00 -0.32845685602E-01  0.23614321995E-01  0.88911782499E+00  0.88000000000E+00 0.  1.
        -11    1    4    4    0    0 -0.82171135983E-01  0.29220039700E-01 -0.18061071305E-01  0.89063851963E-01  0.51100000000E-03 0. -1.
         11    1    4    4    0    0 -0.30578647076E-01  0.20103805783E-01 -0.20744677235E-01  0.42069221748E-01  0.51100000000E-03 0.  1.
</event>
<event>
 8    1  0.1112929E+005  0.1043930E+01  0.7957747E-01            NaN
         13   -1    0    0    0    0  0.00000000000E+00  0.00000000000E+00  0.74505805969E-08  0.10566000000E+00  0.10566000000E+00 0. -1.
     999900   -1    0    0    0    0 -0.00000000000E+00 -0.00000000000E+00 -0.74505805969E-08  0.93827000000E+00  0.93827000000E+00 0. -1.
     999902    2    1    2    0    0 -0.27846621719E-02 -0.16398499860E-01  0.18119794814E-01  0.10193334127E+01  0.10190366108E+01 0.  0.
     999903    2    3    3    0    0 -0.62632488794E-01 -0.11392525547E+00  0.71448183169E-02  0.13185739586E+00  0.20821429560E-01 0.  0.
         14    1    1    2    0    0  0.27846621719E-02  0.16398499860E-01 -0.18119794814E-01  0.24596587267E-01  0.00000000000E+00 0.  1.
     999901    1    3    3    0    0  0.59847826622E-01  0.97526755608E-01  0.10974976497E-01  0.88747601687E+00  0.88000000000E+00 0. -1.
        -11    1    4    4    0    0 -0.54065285928E-01 -0.79238899579E-01  0.56418353929E-02  0.96093442942E-01  0.51100000000E-03 0. -1.
         11    1    4    4    0    0 -0.85672028663E-02 -0.34686355889E-01  0.15029829240E-02  0.35763952920E-01  0.51100000000E-03 0.  1.
</event>
<event>
 8    1  0.1112929E+005  0.1043930E+01  0.7957747E-01            NaN
         13   -1    0    0    0    0  0.00000000000E+00  0.00000000000E+00  0.74505805969E-08  0.10566000000E+00  0.10566000000E+00 0. -1.
     999900   -1    0    0    0    0 -0.00000000000E+00 -0.00000000000E+00 -0.74505805969E-08  0.93827000000E+00  0.93827000000E+00 0.  1.
     999902    2    1    2    0    0  0.16643157846E-01  0.12825476943E-01  0.10489662844E-01  0.10204455245E+01  0.10201752535E+01 0.  0.
     999903    2    3    3    0    0 -0.61875130406E-01  0.10329663691E+00 -0.46312142561E-01  0.13051485448E+00  0.19763241973E-01 0.  0.
         14    1    1    2    0    0 -0.16643157846E-01 -0.12825476943E-01 -0.10489662844E-01  0.23484475478E-01  0.00000000000E+00 0.  1.
     999901    1    3    3    0    0  0.78518288252E-01 -0.90471159965E-01  0.56801805405E-01  0.88993067004E+00  0.88000000000E+00 0. -1.
        -11    1    4    4    0    0 -0.34009581001E-01  0.44671971185E-01 -0.29664578187E-01  0.63501849811E-01  0.51100000000E-03 0. -1.
         11    1    4    4    0    0 -0.27865549405E-01  0.58624665723E-01 -0.16647564374E-01  0.67013004674E-01  0.51100000000E-03 0.  1.
</event>
<event>
 8    1  0.1112929E+005  0.1043930E+01  0.7957747E-01            NaN
         13   -1    0    0    0    0  0.00000000000E+00  0.00000000000E+00  0.74505805969E-08  0.10566000000E+00  0.10566000000E+00 0. -1.
     999900   -1    0    0    0    0 -0.00000000000E+00 -0.00000000000E+00 -0.74505805969E-08  0.93827000000E+00  0.93827000000E+00 0.  1.
     999902    2    1    2    0    0  0.13148425444E-01 -0.10291858366E-01 -0.17468097871E-01  0.10197651933E+01  0.10194788431E+01 0.  0.
     999903    2    3    3    0    0 -0.75976831029E-01 -0.45312111483E-02  0.10023057541E+00  0.12744827980E+00  0.20096891569E-01 0.  0.
         14    1    1    2    0    0 -0.13148425444E-01  0.10291858366E-01  0.17468097871E-01  0.24164806714E-01  0.00000000000E+00 0. -1.
     999901    1    3    3    0    0  0.89125256473E-01 -0.57606472181E-02 -0.11769867328E+00  0.89231691348E+00  0.88000000000E+00 0.  1.
        -11    1    4    4    0    0 -0.25830459790E-01  0.56941036254E-02  0.44596687338E-01  0.51853265197E-01  0.51100000000E-03 0.  1.
         11    1    4    4    0    0 -0.50146371239E-01 -0.10225314774E-01  0.55633888068E-01  0.75595014606E-01  0.51100000000E-03 0. -1.
</event>
<event>
 8    1  0.1112929E+005  0.1043930E+01  0.7957747E-01            NaN
         13   -1    0    0    0    0  0.00000000000E+00  0.00000000000E+00  0.74505805969E-08  0.10566000000E+00  0.10566000000E+00 0.  1.
     999900   -1    0    0    0    0 -0.00000000000E+00 -0.00000000000E+00 -0.74505805969E-08  0.93827000000E+00  0.93827000000E+00 0.  1.
     999902    2    1    2    0    0 -0.21278124579E-01  0.16750299844E-01 -0.48923754625E-02  0.10164115250E+01  0.10160389371E+01 0.  0.
     999903    2    3    3    0    0 -0.10887567005E+00  0.68538963754E-01 -0.11006131533E-01  0.13052621992E+00  0.19090785079E-01 0.  0.
         14    1    1    2    0    0  0.21278124579E-01 -0.16750299844E-01  0.48923754625E-02  0.27518475033E-01  0.00000000000E+00 0. -1.
     999901    1    3    3    0    0  0.87597545468E-01 -0.51788663910E-01  0.61137560703E-02  0.88588530505E+00  0.88000000000E+00 0. -1.
        -11    1    4    4    0    0 -0.48248923388E-01  0.22869300034E-01  0.23797886949E-02  0.53449864428E-01  0.51100000000E-03 0. -1.
         11    1    4    4    0    0 -0.60626746660E-01  0.45669663721E-01 -0.13385920228E-01  0.77076355494E-01  0.51100000000E-03 0.  1.
</event>
<event>
 8    1  0.1112929E+005  0.1043930E+01  0.7957747E-01            NaN
         13   -1    0    0    0    0  0.00000000000E+00  0.00000000000E+00  0.74505805969E-08  0.10566000000E+00  0.10566000000E+00 0.  1.
     999900   -1    0    0    0    0 -0.00000000000E+00 -0.00000000000E+00 -0.74505805969E-08  0.93827000000E+00  0.93827000000E+00 0. -1.
     999902    2    1    2    0    0 -0.14623604193E-01 -0.94063876622E-02 -0.15398893246E-01  0.10207038113E+01  0.10204395203E+01 0.  0.
     999903    2    3    3    0    0 -0.35827480542E-01  0.10971076966E+00  0.55455541011E-01  0.12960401195E+00  0.20045486880E-01 0.  0.
         14    1    1    2    0    0  0.14623604193E-01  0.94063876622E-02  0.15398893246E-01  0.23226188702E-01  0.00000000000E+00 0.  1.
     999901    1    3    3    0    0  0.21203876349E-01 -0.11911715732E+00 -0.70854434257E-01  0.89109979935E+00  0.88000000000E+00 0. -1.
        -11    1    4    4    0    0 -0.26917808844E-01  0.64198013844E-01  0.24310410965E-01  0.73737443791E-01  0.51100000000E-03 0. -1.
         11    1    4    4    0    0 -0.89096716982E-02  0.45512755814E-01  0.31145130046E-01  0.55866568161E-01  0.51100000000E-03 0.  1.
</event>
<event>
 8    1  0.1112929E+005  0.1043930E+01  0.7957747E-01            NaN
         13   -1    0    0    0    0  0.00000000000E+00  0.00000000000E+00  0.74505805969E-08  0.10566000000E+00  0.10566000000E+00 0. -1.
     999900   -1    0    0    0    0 -0.00000000000E+00 -0.00000000000E+00 -0.74505805969E-08  0.93827000000E+00  0.93827000000E+00 0. -1.
     999902    2    1    2    0    0  0.21382413925E-01 -0.85692373455E-02  0.62437824107E-02  0.10200631973E+01  0.10197839488E+01 0.  0.
     999903    2    3    3    0    0  0.39512564083E-01  0.11136812521E-01 -0.12171712050E+00  0.13040538472E+00  0.22477447099E-01 0.  0.
         14    1    1    2    0    0 -0.21382413925E-01  0.85692373455E-02 -0.62437824107E-02  0.23866802734E-01  0.00000000000E+00 0. -1.
     999901    1    3    3    0    0 -0.18130150159E-01 -0.19706049866E-01  0.12796090291E+00  0.88965781254E+00  0.88000000000E+00 0.  1.
        -11    1    4    4    0    0  0.26827268601E-01 -0.37578532249E-02 -0.65678478225E-01  0.71047501184E-01  0.51100000000E-03 0.  1.
         11    1    4    4    0    0  0.12685295482E-01  0.14894665746E-01 -0.56038642276E-01  0.59357883539E-01  0.51100000000E-03 0. -1.
</event>
<event>
 8    1  0.1112929E+005  0.1043930E+01  0.7957747E-01            NaN
         13   -1    0    0    0    0  0.00000000000E+00  0.00000000000E+00  0.74505805969E-08  0.10566000000E+00  0.10566000000E+00 0.  1.
     999900   -1    0    0    0    0 -0.00000000000E+00 -0.00000000000E+00 -0.74505805969E-08  0.93827000000E+00  0.93827000000E+00 0.  1.
     999902    2    1    2    0    0 -0.16660108566E-01 -0.11323806599E-01 -0.12840628564E-01  0.10200413091E+01  0.10197615420E+01 0.  0.
     999903    2    3    3    0    0 -0.43209777332E-01  0.50809508051E-01  0.10878895510E+00  0.12910966783E+00  0.19636155671E-01 0.  0.
         14    1    1    2    0    0  0.16660108566E-01  0.11323806599E-01  0.12840628564E-01  0.23888690949E-01  0.00000000000E+00 0.  1.
     999901    1    3    3    0    0  0.26549668766E-01 -0.62133314650E-01 -0.12162958367E+00  0.89093164122E+00  0.88000000000E+00 0.  1.
        -11    1    4    4    0    0 -0.11024183639E-01  0.79521425107E-02  0.37696290237E-01  0.40075436542E-01  0.51100000000E-03 0.  1.
         11    1    4    4    0    0 -0.32185593693E-01  0.42857365541E-01  0.71092664868E-01  0.89034231290E-01  0.51100000000E-03 0. -1.
</event>
<event>
 8    1  0.1112929E+005  0.1043930E+01  0.7957747E-01            NaN
         13   -1    0    0    0    0  0.00000000000E+00  0.00000000000E+00  0.74505805969E-08  0.10566000000E+00  0.10566000000E+00 0. -1.
     999900   -1    0    0    0    0 -0.00000000000E+00 -0.00000000000E+00 -0.74505805969E-08  0.93827000000E+00  0.93827000000E+00 0.  1.
     999902    2    1    2    0    0 -0.85950121113E-02 -0.20741092035E-01 -0.45607832729E-02  0.10210200049E+01  0.10207629414E+01 0.  0.
     999903    2    3    3    0    0  0.52800783003E-02 -0.12922735505E+00  0.26083117146E-01  0.13372026070E+00  0.21752944699E-01 0.  0.
         14    1    1    2    0    0  0.85950121113E-02  0.20741092035E-01  0.45607832729E-02  0.22909995113E-01  0.00000000000E+00 0. -1.
     999901    1    3    3    0    0 -0.13875090412E-01  0.10848626301E+00 -0.30643900419E-01  0.88729974418E+00  0.88000000000E+00 0. -1.
        -11    1    4    4    0    0  0.82444521742E-02 -0.79523298236E-01  0.65072613818E-02  0.80215531698E-01  0.51100000000E-03 0.  1.
         11    1    4    4    0    0 -0.29643738739E-02 -0.49704056812E-01  0.19575855764E-01  0.53504729005E-01  0.51100000000E-03 0. -1.
</event>
<event>
 8    1  0.1112929E+005  0.1043930E+01  0.7957747E-01            NaN
         13   -1    0    0    0    0  0.00000000000E+00  0.00000000000E+00  0.74505805969E-08  0.10566000000E+00  0.10566000000E+00 0. -1.
     999900   -1    0    0    0    0 -0.00000000000E+00 -0.00000000000E+00 -0.74505805969E-08  0.93827000000E+00  0.93827000000E+00 0.  1.
     999902    2    1    2    0    0 -0.58635024312E-02 -0.63949870961E-02 -0.23473698229E-01  0.10189041927E+01  0.10185968108E+01 0.  0.
     999903    2    3    3    0    0  0.48455896257E-01  0.79685804524E-01 -0.89474420603E-01  0.13058184408E+00  0.18658637069E-01 0.  0.
         14    1    1    2    0    0  0.58635024312E-02  0.63949870961E-02  0.23473698229E-01  0.25025807265E-01  0.00000000000E+00 0. -1.
     999901    1    3    3    0    0 -0.54319398688E-01 -0.86080791620E-01  0.66000722374E-01  0.88832234865E+00  0.88000000000E+00 0. -1.
        -11    1    4    4    0    0  0.36400809704E-01  0.44795527818E-01 -0.60798736430E-01  0.83835587504E-01  0.51100000000E-03 0.  1.
         11    1    4    4    0    0  0.12055086552E-01  0.34890276706E-01 -0.28675684173E-01  0.46746256579E-01  0.51100000000E-03 0. -1.
</event>
<event>
 8    1  0.1112929E+005  0.1043930E+01  0.7957747E-01            NaN
         13   -1    0    0    0    0  0.00000000000E+00  0.00000000000E+00  0.74505805969E-08  0.10566000000E+00  0.10566000000E+00 0.  1.
     999900   -1    0    0    0    0 -0.00000000000E+00 -0.00000000000E+00 -0.74505805969E-08  0.93827000000E+00  0.93827000000E+00 0. -1.
     999902    2    1    2    0    0 -0.38033040597E-03 -0.14871657648E-01  0.17341340491E-01  0.10210819598E+01  0.10208263004E+01 0.  0.
     999903    2    3    3    0    0 -0.50783709384E-01 -0.62539611433E-01  0.10438081357E+00  0.13407090893E+00  0.24278925903E-01 0.  0.
         14    1    1    2    0    0  0.38033040597E-03  0.14871657648E-01 -0.17341340491E-01  0.22848040232E-01  0.00000000000E+00 0. -1.
     999901    1    3    3    0    0  0.50403378978E-01  0.47667953785E-01 -0.87039473082E-01  0.88701105084E+00  0.88000000000E+00 0. -1.
        -11    1    4    4    0    0 -0.36975002202E-01 -0.44745949148E-01  0.55791553425E-01  0.80512789714E-01  0.51100000000E-03 0.  1.
         11    1    4    4    0    0 -0.13808707182E-01 -0.17793662285E-01  0.48589260147E-01  0.53558119218E-01  0.51100000000E-03 0. -1.
</event>
<event>
 8    1  0.1112929E+005  0.1043930E+01  0.7957747E-01            NaN
         13   -1    0    0    0    0  0.00000000000E+00  0.00000000000E+00  0.74505805969E-08  0.10566000000E+00  0.10566000000E+00 0.  1.
     999900   -1    0    0    0    0 -0.00000000000E+00 -0.00000000000E+00 -0.74505805969E-08  0.93827000000E+00  0.93827000000E+00 0. -1.
     999902    2    1    2    0    0  0.13078634352E-01  0.21620753904E-01 -0.52252906654E-03  0.10186558885E+01  0.10183422993E+01 0.  0.
     999903    2    3    3    0    0  0.40127084086E-01  0.85524730944E-01 -0.89055577713E-01  0.13149556611E+00  0.20869247790E-01 0.  0.
         14    1    1    2    0    0 -0.13078634352E-01 -0.21620753904E-01  0.52252906654E-03  0.25274111508E-01  0.00000000000E+00 0. -1.
     999901    1    3    3    0    0 -0.27048449734E-01 -0.63903977039E-01  0.88533048647E-01  0.88716032239E+00  0.88000000000E+00 0.  1.
        -11    1    4    4    0    0  0.32837492661E-01  0.45815221542E-01 -0.52262260123E-01  0.76869632518E-01  0.51100000000E-03 0. -1.
         11    1    4    4    0    0  0.72895914249E-02  0.39709509401E-01 -0.36793317590E-01  0.54625933587E-01  0.51100000000E-03 0.  1.
</event>
<event>
 8    1  0.1112929E+005  0.1043930E+01  0.7957747E-01            NaN
         13   -1    0    0    0    0  0.00000000000E+00  0.00000000000E+00  0.74505805969E-08  0.10566000000E+00  0.10566000000E+00 0.  1.
     999900   -1    0    0    0    0 -0.00000000000E+00 -0.00000000000E+00 -0.74505805969E-08  0.93827000000E+00  0.93827000000E+00 0. -1.
     999902    2    1    2    0    0 -0.17400668232E-01  0.16130574996E-01 -0.17263847011E-02  0.10201401049E+01  0.10198626743E+01 0.  0.
     999903    2    3    3    0    0 -0.46103996291E-01 -0.11914851206E+00  0.92361364020E-03  0.12933634709E+00  0.20126877959E-01 0.  0.
         14    1    1    2    0    0  0.17400668232E-01 -0.16130574996E-01  0.17263847011E-02  0.23789895098E-01  0.00000000000E+00 0. -1.
     999901    1    3    3    0    0  0.28703328059E-01  0.13527908706E+00 -0.26499983413E-02  0.89080375781E+00  0.88000000000E+00 0. -1.
        -11    1    4    4    0    0 -0.28636492964E-01 -0.91745938754E-01  0.66209499389E-02  0.96340355544E-01  0.51100000000E-03 0. -1.
         11    1    4    4    0    0 -0.17467503327E-01 -0.27402573308E-01 -0.56973362987E-02  0.32995991548E-01  0.51100000000E-03 0.  1.
</event>
<event>
 8    1  0.1112929E+005  0.1043930E+01  0.7957747E-01            NaN
         13   -1    0    0    0    0  0.00000000000E+00  0.00000000000E+00  0.74505805969E-08  0.10566000000E+00  0.10566000000E+00 0.  1.
     999900   -1    0    0    0    0 -0.00000000000E+00 -0.00000000000E+00 -0.74505805969E-08  0.93827000000E+00  0.93827000000E+00 0.  1.
     999902    2    1    2    0    0 -0.16271404390E-02  0.21312454169E-01 -0.94914873816E-02  0.10205428963E+01  0.10202748877E+01 0.  0.
     999903    2    3    3    0    0  0.11093084697E+00  0.30789025698E-01  0.58576208572E-01  0.13071576857E+00  0.20045523890E-01 0.  0.
         14    1    1    2    0    0  0.16271404390E-02 -0.21312454169E-01  0.94914873816E-02  0.23387103742E-01  0.00000000000E+00 0.  1.
     999901    1    3    3    0    0 -0.11255798741E+00 -0.94765715285E-02 -0.68067695954E-01  0.88982712769E+00  0.88000000000E+00 0. -1.
        -11    1    4    4    0    0  0.35351893703E-01  0.52305811090E-02  0.27485413692E-01  0.45086854558E-01  0.51100000000E-03 0.  1.
         11    1    4    4    0    0  0.75578953271E-01  0.25558444589E-01  0.31090794880E-01  0.85628914011E-01  0.51100000000E-03 0. -1.
</event>
<event>
 8    1  0.1112929E+005  0.1043930E+01  0.7957747E-01            NaN
         13   -1    0    0    0    0  0.00000000000E+00  0.00000000000E+00  0.74505805969E-08  0.10566000000E+00  0.10566000000E+00 0. -1.
     999900   -1    0    0    0    0 -0.00000000000E+00 -0.00000000000E+00 -0.74505805969E-08  0.93827000000E+00  0.93827000000E+00 0. -1.
     999902    2    1    2    0    0  0.11967424120E-01  0.21106141207E-01  0.82238136355E-02  0.10183112657E+01  0.10179889559E+01 0.  0.
     999903    2    3    3    0    0 -0.11023091267E+00 -0.14294948799E-01 -0.57539370662E-01  0.12673374966E+00  0.19886288190E-01 0.  0.
         14    1    1    2    0    0 -0.11967424120E-01 -0.21106141207E-01 -0.82238136355E-02  0.25618734306E-01  0.00000000000E+00 0. -1.
     999901    1    3    3    0    0  0.12219833679E+00  0.35401090007E-01  0.65763184297E-01  0.89157751603E+00  0.88000000000E+00 0. -1.
        -11    1    4    4    0    0 -0.90800956153E-01 -0.14030877634E-01 -0.55119526113E-01  0.10714523996E+00  0.51100000000E-03 0.  1.
         11    1    4    4    0    0 -0.19429956515E-01 -0.26407116582E-03 -0.24198445485E-02  0.19588509703E-01  0.51100000000E-03 0. -1.
</event>
<event>
 8    1  0.1112929E+005  0.1043930E+01  0.7957747E-01            NaN
         13   -1    0    0    0    0  0.00000000000E+00  0.00000000000E+00  0.74505805969E-08  0.10566000000E+00  0.10566000000E+00 0.  1.
     999900   -1    0    0    0    0 -0.00000000000E+00 -0.00000000000E+00 -0.74505805969E-08  0.93827000000E+00  0.93827000000E+00 0.  1.
     999902    2    1    2    0    0  0.38797349000E-02  0.23511572451E-01  0.95996918601E-03  0.10200811442E+01  0.10198023205E+01 0.  0.
     999903    2    3    3    0    0  0.78804750634E-01  0.87756212127E-01  0.57594236668E-01  0.13275450087E+00  0.19882653625E-01 0.  0.
         14    1    1    2    0    0 -0.38797349000E-02 -0.23511572451E-01 -0.95996918601E-03  0.23848855797E-01  0.00000000000E+00 0. -1.
     999901    1    3    3    0    0 -0.74925015734E-01 -0.64244639676E-01 -0.56634267482E-01  0.88732664333E+00  0.88000000000E+00 0.  1.
        -11    1    4    4    0    0  0.56411458941E-01  0.62287507872E-01  0.50691210106E-01  0.98141969818E-01  0.51100000000E-03 0. -1.
         11    1    4    4    0    0  0.22393291693E-01  0.25468704255E-01  0.69030265616E-02  0.34612531055E-01  0.51100000000E-03 0.  1.
</event>
<event>
 8    1  0.1112929E+005  0.1043930E+01  0.7957747E-01            NaN
         13   -1    0    0    0    0  0.00000000000E+00  0.00000000000E+00  0.74505805969E-08  0.10566000000E+00  0.10566000000E+00 0. -1.
     999900   -1    0    0    0    0 -0.00000000000E+00 -0.00000000000E+00 -0.74505805969E-08  0.93827000000E+00  0.93827000000E+00 0.  1.
     999902    2    1    2    0    0 -0.11210525896E-02 -0.23990042704E-01 -0.13831572778E-02  0.10198739814E+01  0.10195902343E+01 0.  0.
     999903    2    3    3    0    0 -0.86562900070E-01  0.15427968609E-01 -0.93524331486E-01  0.13007395615E+00  0.21006560976E-01 0.  0.
         14    1    1    2    0    0  0.11210525896E-02  0.23990042704E-01  0.13831572778E-02  0.24056018621E-01  0.00000000000E+00 0. -1.
     999901    1    3    3    0    0  0.85441847480E-01 -0.39418011314E-01  0.92141174209E-01  0.88980002523E+00  0.88000000000E+00 0. -1.
        -11    1    4    4    0    0 -0.23472837728E-01  0.11605057962E-01 -0.36643710704E-01  0.45040805238E-01  0.51100000000E-03 0. -1.
         11    1    4    4    0    0 -0.63090062341E-01  0.38229106477E-02 -0.56880620782E-01  0.85033150910E-01  0.51100000000E-03 0.  1.
</event>
<event>
 8    1  0.1112929E+005  0.1043930E+01  0.7957747E-01            NaN
         13   -1    0    0    0    0  0.00000000000E+00  0.00000000000E+00  0.74505805969E-08  0.10566000000E+00  0.10566000000E+00 0. -1.
     999900   -1    0    0    0    0 -0.00000000000E+00 -0.00000000000E+00 -0.74505805969E-08  0.93827000000E+00  0.93827000000E+00 0.  1.
     999902    2    1    2    0    0  0.21994173769E-01  0.50940655122E-02  0.84220659820E-02  0.10198338514E+01  0.10195491455E+01 0.  0.
     999903    2    3    3    0    0 -0.11595286484E+00 -0.32516698103E-01 -0.36754399533E-01  0.12714977062E+00  0.17713716822E-01 0.  0.
         14    1    1    2    0    0 -0.21994173769E-01 -0.50940655122E-02 -0.84220659820E-02  0.24096148627E-01  0.00000000000E+00 0.  1.
     999901    1    3    3    0    0  0.13794703861E+00  0.37610763615E-01  0.45176465515E-01  0.89268408076E+00  0.88000000000E+00 0.  1.
        -11    1    4    4    0    0 -0.47397937188E-01 -0.16994786006E-01 -0.23708524408E-01  0.55657366554E-01  0.51100000000E-03 0. -1.
         11    1    4    4    0    0 -0.68554927648E-01 -0.15521912098E-01 -0.13045875125E-01  0.71492404063E-01  0.51100000000E-03 0.  1.
</event>
<event>
 8    1  0.1112929E+005  0.1043930E+01  0.7957747E-01            NaN
         13   -1    0    0    0    0  0.00000000000E+00  0.00000000000E+00  0.74505805969E-08  0.10566000000E+00  0.10566000000E+00 0.  1.
     999900   -1    0    0    0    0 -0.00000000000E+00 -0.00000000000E+00 -0.74505805969E-08  0.93827000000E+00  0.93827000000E+00 0. -1.
     999902    2    1    2    0    0  0.23820402312E-02 -0.23967277180E-02  0.23154876805E-01  0.10205298560E+01  0.10202615450E+01 0.  0.
     999903    2    3    3    0    0  0.95543065557E-02  0.12857727937E+00  0.60904222793E-02  0.13064400515E+00  0.20183193348E-01 0.  0.
         14    1    1    2    0    0 -0.23820402312E-02  0.23967277180E-02 -0.23154876805E-01  0.23400144001E-01  0.00000000000E+00 0. -1.
     999901    1    3    3    0    0 -0.71722663245E-02 -0.13097400709E+00  0.17064454526E-01  0.88988585085E+00  0.88000000000E+00 0. -1.
        -11    1    4    4    0    0 -0.49998307095E-02  0.13192572868E-01  0.21232179314E-02  0.14276255160E-01  0.51100000000E-03 0. -1.
         11    1    4    4    0    0  0.14554137265E-01  0.11538470650E+00  0.39672043479E-02  0.11636774999E+00  0.51100000000E-03 0.  1.
</event>
<event>
 8    1  0.1112929E+005  0.1043930E+01  0.7957747E-01            NaN
         13   -1    0    0    0    0  0.00000000000E+00  0.00000000000E+00  0.74505805969E-08  0.10566000000E+00  0.10566000000E+00 0.  1.
     999900   -1    0    0    0    0 -0.00000000000E+00 -0.00000000000E+00 -0.74505805969E-08  0.93827000000E+00  0.93827000000E+00 0.  1.
     999902    2    1    2    0    0  0.53191711093E-03 -0.19833322797E-01  0.13342253632E-01  0.10200206010E+01  0.10197403430E+01 0.  0.
     999903    2    3    3    0    0  0.20722516476E-01 -0.11575474373E+00 -0.56013404316E-01  0.13186589229E+00  0.20555502949E-01 0.  0.
         14    1    1    2    0    0 -0.53191711093E-03  0.19833322797E-01 -0.13342253632E-01  0.23909399009E-01  0.00000000000E+00 0.  1.
     999901    1    3    3    0    0 -0.20190599365E-01  0.95921420933E-01  0.69355657948E-01  0.88815470870E+00  0.88000000000E+00 0. -1.
        -11    1    4    4    0    0  0.75926829176E-02 -0.11986794022E-01 -0.11153491335E-01  0.18055291600E-01  0.51100000000E-03 0. -1.
         11    1    4    4    0    0  0.13129833559E-01 -0.10376794971E+00 -0.44859912981E-01  0.11381060069E+00  0.51100000000E-03 0.  1.
</event>
<event>
 8    1  0.1112929E+005  0.1043930E+01  0.7957747E-01            NaN
         13   -1    0    0    0    0  0.00000000000E+00  0.00000000000E+00  0.74505805969E-08  0.10566000000E+00  0.10566000000E+00 0.  1.
     999900   -1    0    0    0    0 -0.00000000000E+00 -0.00000000000E+00 -0.74505805969E-08  0.93827000000E+00  0.93827000000E+00 0.  1.
     999902    2    1    2    0    0  0.10516001136E-01  0.15357297587E-01 -0.14825904912E-01  0.10201341952E+01  0.10198566252E+01 0.  0.
     999903    2    3    3    0    0  0.72056855334E-01 -0.78677823366E-01  0.69752799366E-01  0.12896449312E+00  0.19595845892E-01 0.  0.
         14    1    1    2    0    0 -0.10516001136E-01 -0.15357297587E-01  0.14825904912E-01  0.23795804788E-01  0.00000000000E+00 0.  1.
     999901    1    3    3    0    0 -0.61540854198E-01  0.94035120952E-01 -0.84578704278E-01  0.89116970209E+00  0.88000000000E+00 0.  1.
        -11    1    4    4    0    0  0.42357251163E-01 -0.45218655451E-01  0.51777419527E-01  0.80746676840E-01  0.51100000000E-03 0.  1.
         11    1    4    4    0    0  0.29699604171E-01 -0.33459167915E-01  0.17975379839E-01  0.48217816280E-01  0.51100000000E-03 0. -1.
</event>
<event>
 7    1  0.1112929E+005  0.1043930E+01  0.7957747E-01            NaN
         13   -1    0    0    0    0  0.00000000000E+00  0.00000000000E+00  0.74505805969E-08  0.10566000000E+00  0.10566000000E+00 0. -1.
     999900   -1    0    0    0    0 -0.00000000000E+00 -0.00000000000E+00 -0.74505805969E-08  0.93827000000E+00  0.93827000000E+00 0. -1.
     999903    2    1    2    0    0 -0.14023030897E-01  0.24321869390E-01  0.86115492844E-01  0.92774984799E-01  0.20077872662E-01 0.  0.
         14    1    1    2    0    0 -0.52805775843E-01 -0.11715406451E-01 -0.40099175345E-01  0.67332344189E-01  0.00000000000E+00 0.  1.
     999901    1    1    2    0    0  0.66828806740E-01 -0.12606462939E-01 -0.46016317498E-01  0.88382267101E+00  0.88000000000E+00 0. -1.
        -11    1    3    3    0    0 -0.33742034370E-02  0.23571699953E-01  0.58369265181E-01  0.63041593621E-01  0.51100000000E-03 0. -1.
         11    1    3    3    0    0 -0.10648827460E-01  0.75016943736E-03  0.27746227662E-01  0.29733391178E-01  0.51100000000E-03 0.  1.
</event>
<event>
 8    1  0.1112929E+005  0.1043930E+01  0.7957747E-01            NaN
         13   -1    0    0    0    0  0.00000000000E+00  0.00000000000E+00  0.74505805969E-08  0.10566000000E+00  0.10566000000E+00 0. -1.
     999900   -1    0    0    0    0 -0.00000000000E+00 -0.00000000000E+00 -0.74505805969E-08  0.93827000000E+00  0.93827000000E+00 0. -1.
     999902    2    1    2    0    0  0.11747889662E-01 -0.17271621123E-01  0.12540314931E-01  0.10195664759E+01  0.10192753394E+01 0.  0.
     999903    2    3    3    0    0 -0.11856254324E+00 -0.44983715336E-01 -0.13827413012E-01  0.12914858179E+00  0.20187806253E-01 0.  0.
         14    1    1    2    0    0 -0.11747889662E-01  0.17271621123E-01 -0.12540314931E-01  0.24363524094E-01  0.00000000000E+00 0.  1.
     999901    1    3    3    0    0  0.13031043291E+00  0.27712094213E-01  0.26367727943E-01  0.89041789412E+00  0.88000000000E+00 0. -1.
        -11    1    4    4    0    0 -0.65773586771E-02 -0.45965628781E-02 -0.56389007426E-02  0.98208125960E-02  0.51100000000E-03 0. -1.
         11    1    4    4    0    0 -0.11198518457E+00 -0.40387152458E-01 -0.81885122691E-02  0.11932776919E+00  0.51100000000E-03 0.  1.
</event>
<event>
 8    1  0.1112929E+005  0.1043930E+01  0.7957747E-01            NaN
         13   -1    0    0    0    0  0.00000000000E+00  0.00000000000E+00  0.74505805969E-08  0.10566000000E+00  0.10566000000E+00 0. -1.
     999900   -1    0    0    0    0 -0.00000000000E+00 -0.00000000000E+00 -0.74505805969E-08  0.93827000000E+00  0.93827000000E+00 0. -1.
     999902    2    1    2    0    0 -0.29406140565E-03 -0.16055407620E-01 -0.79568426449E-02  0.10260086739E+01  0.10258521457E+01 0.  0.
     999903    2    3    3    0    0  0.12142315987E+00  0.52980271068E-01 -0.17219183105E-01  0.13490441630E+00  0.18767215969E-01 0.  0.
         14    1    1    2    0    0  0.29406140565E-03  0.16055407620E-01  0.79568426449E-02  0.17921326146E-01  0.00000000000E+00 0. -1.
     999901    1    3    3    0    0 -0.12171722127E+00 -0.69035678688E-01  0.92623404604E-02  0.89110425756E+00  0.88000000000E+00 0.  1.
        -11    1    4    4    0    0  0.11210355295E+00  0.46950998281E-01 -0.20636714370E-01  0.12327910579E+00  0.51100000000E-03 0. -1.
         11    1    4    4    0    0  0.93196069170E-02  0.60292727874E-02  0.34175312649E-02  0.11625310507E-01  0.51100000000E-03 0.  1.
</event>
<event>
 8    1  0.1112929E+005  0.1043930E+01  0.7957747E-01            NaN
         13   -1    0    0    0    0  0.00000000000E+00  0.00000000000E+00  0.74505805969E-08  0.10566000000E+00  0.10566000000E+00 0.  1.
     999900   -1    0    0    0    0 -0.00000000000E+00 -0.00000000000E+00 -0.74505805969E-08  0.93827000000E+00  0.93827000000E+00 0.  1.
     999902    2    1    2    0    0  0.29482184628E-02  0.17707346641E-01 -0.15063748421E-01  0.10204958661E+01  0.10202267660E+01 0.  0.
     999903    2    3    3    0    0  0.70980183041E-01 -0.32445110155E-01 -0.10472566128E+00  0.13191110603E+00  0.18498762310E-01 0.  0.
         14    1    1    2    0    0 -0.29482184628E-02 -0.17707346641E-01  0.15063748421E-01  0.23434133943E-01  0.00000000000E+00 0.  1.
     999901    1    3    3    0    0 -0.68031964579E-01  0.50152456796E-01  0.89661912859E-01  0.88858476002E+00  0.88000000000E+00 0. -1.
        -11    1    4    4    0    0  0.49963593943E-01 -0.14576598504E-01 -0.75672338697E-01  0.91844444081E-01  0.51100000000E-03 0. -1.
         11    1    4    4    0    0  0.21016589098E-01 -0.17868511651E-01 -0.29053322583E-01  0.40066661953E-01  0.51100000000E-03 0.  1.
</event>
<event>
 8    1  0.1112929E+005  0.1043930E+01  0.7957747E-01            NaN
         13   -1    0    0    0    0  0.00000000000E+00  0.00000000000E+00  0.74505805969E-08  0.10566000000E+00  0.10566000000E+00 0.  1.
     999900   -1    0    0    0    0 -0.00000000000E+00 -0.00000000000E+00 -0.74505805969E-08  0.93827000000E+00  0.93827000000E+00 0.  1.
     999902    2    1    2    0    0  0.15147276746E-01  0.18456865957E-01 -0.35010184290E-02  0.10197980083E+01  0.10195124446E+01 0.  0.
     999903    2    3    3    0    0 -0.61256281390E-01 -0.10522925839E+00 -0.33192877865E-01  0.12737581697E+00  0.17242470088E-01 0.  0.
         14    1    1    2    0    0 -0.15147276746E-01 -0.18456865957E-01  0.35010184290E-02  0.24131991709E-01  0.00000000000E+00 0. -1.
     999901    1    3    3    0    0  0.76403558136E-01  0.12368612435E+00  0.29691859436E-01  0.89242219133E+00  0.88000000000E+00 0. -1.
        -11    1    4    4    0    0 -0.31451492341E-01 -0.46683440439E-01 -0.73159704887E-02  0.56765522343E-01  0.51100000000E-03 0. -1.
         11    1    4    4    0    0 -0.29804789049E-01 -0.58545817956E-01 -0.25876907376E-01  0.70610294623E-01  0.51100000000E-03 0.  1.
</event>
<event>
 8    1  0.1112929E+005  0.1043930E+01  0.7957747E-01            NaN
         13   -1    0    0    0    0  0.00000000000E+00  0.00000000000E+00  0.74505805969E-08  0.10566000000E+00  0.10566000000E+00 0. -1.
     999900   -1    0    0    0    0 -0.00000000000E+00 -0.00000000000E+00 -0.74505805969E-08  0.93827000000E+00  0.93827000000E+00 0. -1.
     999902    2    1    2    0    0 -0.15473215673E-02 -0.78946877356E-02 -0.22145442263E-01  0.10203685715E+01  0.10200965057E+01 0.  0.
     999903    2    3    3    0    0  0.96691590991E-01 -0.81723011987E-01  0.15251838884E-01  0.13104294948E+00  0.30194727386E-01 0.  0.
         14    1    1    2    0    0  0.15473215673E-02  0.78946877356E-02  0.22145442263E-01  0.23561428469E-01  0.00000000000E+00 0. -1.
     999901    1    3    3    0    0 -0.98238912559E-01  0.73828324251E-01 -0.37397281148E-01  0.88932562205E+00  0.88000000000E+00 0. -1.
        -11    1    4    4    0    0  0.38290817052E-01 -0.41696547951E-01 -0.64734076631E-02  0.56982057785E-01  0.51100000000E-03 0.  1.
         11    1    4    4    0    0  0.58400773939E-01 -0.40026464035E-01  0.21725246548E-01  0.74060891693E-01  0.51100000000E-03 0. -1.
</event>
<event>
 8    1  0.1112929E+005  0.1043930E+01  0.7957747E-01            NaN
         13   -1    0    0    0    0  0.00000000000E+00  0.00000000000E+00  0.74505805969E-08  0.10566000000E+00  0.10566000000E+00 0.  1.
     999900   -1    0    0    0    0 -0.00000000000E+00 -0.00000000000E+00 -0.74505805969E-08  0.93827000000E+00  0.93827000000E+00 0. -1.
     999902    2    1    2    0    0 -0.31202565893E-02  0.23342260923E-01 -0.39574364277E-02  0.10200499152E+01  0.10197703521E+01 0.  0.
     999903    2    3    3    0    0 -0.74038998880E-01 -0.88093337520E-01 -0.53673303421E-01  0.12880414213E+00  0.21621148448E-01 0.  0.
         14    1    1    2    0    0  0.31202565893E-02 -0.23342260923E-01  0.39574364277E-02  0.23880084783E-01  0.00000000000E+00 0. -1.
     999901    1    3    3    0    0  0.70918742290E-01  0.11143559844E+00  0.49715866993E-01  0.89124577308E+00  0.88000000000E+00 0. -1.
        -11    1    4    4    0    0 -0.55850458527E-01 -0.78743568432E-01 -0.42337740712E-01  0.10541616905E+00  0.51100000000E-03 0. -1.
         11    1    4    4    0    0 -0.18188540353E-01 -0.93497690880E-02 -0.11335562709E-01  0.23387973086E-01  0.51100000000E-03 0.  1.
</event>
<event>
 8    1  0.1112929E+005  0.1043930E+01  0.7957747E-01            NaN
         13   -1    0    0    0    0  0.00000000000E+00  0.00000000000E+00  0.74505805969E-08  0.10566000000E+00  0.10566000000E+00 0. -1.
     999900   -1    0    0    0    0 -0.00000000000E+00 -0.00000000000E+00 -0.74505805969E-08  0.93827000000E+00  0.93827000000E+00 0.  1.
     999902    2    1    2    0    0 -0.22574744710E-01  0.55870211747E-02 -0.55968133634E-02  0.10200101709E+01  0.10197296654E+01 0.  0.
     999903    2    3    3    0    0 -0.60269920793E-01 -0.52442430982E-01 -0.10296414071E+00  0.13193993716E+00  0.20587880558E-01 0.  0.
         14    1    1    2    0    0  0.22574744710E-01 -0.55870211747E-02  0.55968133634E-02  0.23919829099E-01  0.00000000000E+00 0. -1.
     999901    1    3    3    0    0  0.37695176084E-01  0.58029452157E-01  0.97367327349E-01  0.88807023374E+00  0.88000000000E+00 0. -1.
        -11    1    4    4    0    0 -0.26488062743E-01 -0.13401997956E-01 -0.27261030189E-01  0.40307020543E-01  0.51100000000E-03 0. -1.
         11    1    4    4    0    0 -0.33781858051E-01 -0.39040433026E-01 -0.75703110523E-01  0.91632916619E-01  0.51100000000E-03 0.  1.
</event>
<event>
 8    1  0.1112929E+005  0.1043930E+01  0.7957747E-01            NaN
         13   -1    0    0    0    0  0.00000000000E+00  0.00000000000E+00  0.74505805969E-08  0.10566000000E+00  0.10566000000E+00 0.  1.
     999900   -1    0    0    0    0 -0.00000000000E+00 -0.00000000000E+00 -0.74505805969E-08  0.93827000000E+00  0.93827000000E+00 0.  1.
     999902    2    1    2    0    0 -0.26761846180E-03  0.23895251660E-01 -0.11138735062E-02  0.10200073040E+01  0.10197267304E+01 0.  0.
     999903    2    3    3    0    0 -0.39661111317E-01  0.15711161560E-01  0.12165938143E+00  0.13057372087E+00  0.20703795349E-01 0.  0.
         14    1    1    2    0    0  0.26761846180E-03 -0.23895251660E-01  0.11138735062E-02  0.23922696038E-01  0.00000000000E+00 0.  1.
     999901    1    3    3    0    0  0.39393492855E-01  0.81840900998E-02 -0.12277325494E+00  0.88943358310E+00  0.88000000000E+00 0.  1.
        -11    1    4    4    0    0 -0.61524634495E-02  0.79233024341E-02  0.51040694843E-01  0.52019661466E-01  0.51100000000E-03 0.  1.
         11    1    4    4    0    0 -0.33508647867E-01  0.77878591263E-02  0.70618686589E-01  0.78554059400E-01  0.51100000000E-03 0. -1.
</event>
<event>
 8    1  0.1112929E+005  0.1043930E+01  0.7957747E-01            NaN
         13   -1    0    0    0    0  0.00000000000E+00  0.00000000000E+00  0.74505805969E-08  0.10566000000E+00  0.10566000000E+00 0. -1.
     999900   -1    0    0    0    0 -0.00000000000E+00 -0.00000000000E+00 -0.74505805969E-08  0.93827000000E+00  0.93827000000E+00 0.  1.
     999902    2    1    2    0    0  0.77372718868E-03  0.20756197043E-01 -0.11656675803E-01  0.10201120139E+01  0.10198339201E+01 0.  0.
     999903    2    3    3    0    0  0.45647266307E-01  0.12065788788E+00  0.20059156820E-01  0.13275646153E+00  0.24081309690E-01 0.  0.
         14    1    1    2    0    0 -0.77372718868E-03 -0.20756197043E-01  0.11656675803E-01  0.23817986066E-01  0.00000000000E+00 0.  1.
     999901    1    3    3    0    0 -0.44873539118E-01 -0.99901690838E-01 -0.31715832624E-01  0.88735555241E+00  0.88000000000E+00 0. -1.
        -11    1    4    4    0    0  0.95232479642E-02  0.39929874028E-01  0.16490434028E-01  0.44241186999E-01  0.51100000000E-03 0. -1.
         11    1    4    4    0    0  0.36124018342E-01  0.80728013852E-01  0.35687227926E-02  0.88515274530E-01  0.51100000000E-03 0.  1.
</event>
<event>
 8    1  0.1112929E+005  0.1043930E+01  0.7957747E-01            NaN
         13   -1    0    0    0    0  0.00000000000E+00  0.00000000000E+00  0.74505805969E-08  0.10566000000E+00  0.10566000000E+00 0. -1.
     999900   -1    0    0    0    0 -0.00000000000E+00 -0.00000000000E+00 -0.74505805969E-08  0.93827000000E+00  0.93827000000E+00 0.  1.
     999902    2    1    2    0    0 -0.13991332044E-01 -0.88808093181E-03  0.19428410898E-01  0.10199715107E+01  0.10196900869E+01 0.  0.
     999903    2    3    3    0    0 -0.65450141842E-01  0.71419017561E-01 -0.83595875007E-01  0.12952761628E+00  0.20118049735E-01 0.  0.
         14    1    1    2    0    0  0.13991332044E-01  0.88808093181E-03 -0.19428410898E-01  0.23958489312E-01  0.00000000000E+00 0. -1.
     999901    1    3    3    0    0  0.51458809798E-01 -0.72307098493E-01  0.10302428590E+00  0.89044389441E+00  0.88000000000E+00 0. -1.
        -11    1    4    4    0    0 -0.36407654127E-01  0.33221931995E-01 -0.54163795823E-01  0.73233816939E-01  0.51100000000E-03 0. -1.
         11    1    4    4    0    0 -0.29042487715E-01  0.38197085566E-01 -0.29432079183E-01  0.56293799343E-01  0.51100000000E-03 0.  1.
</event>
<event>
 8    1  0.1112929E+005  0.1043930E+01  0.7957747E-01            NaN
         13   -1    0    0    0    0  0.00000000000E+00  0.00000000000E+00  0.74505805969E-08  0.10566000000E+00  0.10566000000E+00 0.  1.
     999900   -1    0    0    0    0 -0.00000000000E+00 -0.00000000000E+00 -0.74505805969E-08  0.93827000000E+00  0.93827000000E+00 0. -1.
     999902    2    1    2    0    0 -0.15764847812E-01  0.94106528456E-02 -0.13638222514E-01  0.10210587970E+01  0.10208026131E+01 0.  0.
     999903    2    3    3    0    0 -0.32496408863E-01 -0.37000922645E-01 -0.12193901898E+00  0.13304807522E+00  0.20188637970E-01 0.  0.
         14    1    1    2    0    0  0.15764847812E-01 -0.94106528456E-02  0.13638222514E-01  0.22871203004E-01  0.00000000000E+00 0.  1.
     999901    1    3    3    0    0  0.16731561051E-01  0.46411575491E-01  0.10830079647E+00  0.88801072178E+00  0.88000000000E+00 0.  1.
        -11    1    4    4    0    0 -0.11187087436E-01 -0.97604543861E-02 -0.17104607527E-01  0.22654935771E-01  0.51100000000E-03 0.  1.
         11    1    4    4    0    0 -0.21309321427E-01 -0.27240468259E-01 -0.10483441146E+00  0.11039313945E+00  0.51100000000E-03 0. -1.
</event>
<event>
 8    1  0.1112929E+005  0.1043930E+01  0.7957747E-01            NaN
         13   -1    0    0    0    0  0.00000000000E+00  0.00000000000E+00  0.74505805969E-08  0.10566000000E+00  0.10566000000E+00 0. -1.
     999900   -1    0    0    0    0 -0.00000000000E+00 -0.00000000000E+00 -0.74505805969E-08  0.93827000000E+00  0.93827000000E+00 0. -1.
     999902    2    1    2    0    0 -0.18622639389E-01  0.91445123804E-02 -0.11461944442E-01  0.10202276589E+01  0.10199522905E+01 0.  0.
     999903    2    3    3    0    0 -0.65944706904E-01 -0.83870647847E-01 -0.75146820328E-01  0.13177565594E+00  0.18297238945E-01 0.  0.
         14    1    1    2    0    0  0.18622639389E-01 -0.91445123804E-02  0.11461944442E-01  0.23702341127E-01  0.00000000000E+00 0.  1.
     999901    1    3    3    0    0  0.47322067515E-01  0.93015160228E-01  0.63684875887E-01  0.88845200294E+00  0.88000000000E+00 0.  1.
        -11    1    4    4    0    0 -0.43277875037E-01 -0.46828778434E-01 -0.53565597822E-01  0.83279309245E-01  0.51100000000E-03 0.  1.
         11    1    4    4    0    0 -0.22666831867E-01 -0.37041869413E-01 -0.21581222506E-01  0.48496346691E-01  0.51100000000E-03 0. -1.
</event>
<event>
 8    1  0.1112929E+005  0.1043930E+01  0.7957747E-01            NaN
         13   -1    0    0    0    0  0.00000000000E+00  0.00000000000E+00  0.74505805969E-08  0.10566000000E+00  0.10566000000E+00 0.  1.
     999900   -1    0    0    0    0 -0.00000000000E+00 -0.00000000000E+00 -0.74505805969E-08  0.93827000000E+00  0.93827000000E+00 0.  1.
     999902    2    1    2    0    0  0.12961847516E-01 -0.42314479217E-02 -0.18940570686E-01  0.10205920511E+01  0.10203251809E+01 0.  0.
     999903    2    3    3    0    0  0.11559918583E+00 -0.60164542017E-01 -0.17230919141E-01  0.13286131647E+00  0.19294583701E-01 0.  0.
         14    1    1    2    0    0 -0.12961847516E-01  0.42314479217E-02  0.18940570686E-01  0.23337948934E-01  0.00000000000E+00 0.  1.
     999901    1    3    3    0    0 -0.10263733831E+00  0.55933094096E-01 -0.17096515451E-02  0.88773073459E+00  0.88000000000E+00 0.  1.
        -11    1    4    4    0    0  0.79266292636E-01 -0.36749212375E-01 -0.19691772816E-01  0.89563814100E-01  0.51100000000E-03 0.  1.
         11    1    4    4    0    0  0.36332893193E-01 -0.23415329642E-01  0.24608536749E-02  0.43297502374E-01  0.51100000000E-03 0. -1.
</event>
<event>
 8    1  0.1112929E+005  0.1043930E+01  0.7957747E-01            NaN
         13   -1    0    0    0    0  0.00000000000E+00  0.00000000000E+00  0.74505805969E-08  0.10566000000E+00  0.10566000000E+00 0. -1.
     999900   -1    0    0    0    0 -0.00000000000E+00 -0.00000000000E+00 -0.74505805969E-08  0.93827000000E+00  0.93827000000E+00 0.  1.
     999902    2    1    2    0    0 -0.19188088516E-02 -0.15817024170E-01 -0.17840641017E-01  0.10200103731E+01  0.10197298724E+01 0.  0.
     999903    2    3    3    0    0  0.43112617888E-01  0.10540268712E+00 -0.58191590654E-01  0.12964514073E+00  0.21287954794E-01 0.  0.
         14    1    1    2    0    0  0.19188088516E-02  0.15817024170E-01  0.17840641017E-01  0.23919626939E-01  0.00000000000E+00 0.  1.
     999901    1    3    3    0    0 -0.45031426740E-01 -0.12121971129E+00  0.40350949637E-01  0.89036523233E+00  0.88000000000E+00 0. -1.
        -11    1    4    4    0    0  0.11742895418E-01  0.10381445736E-01 -0.60520971692E-02  0.16809491650E-01  0.51100000000E-03 0. -1.
         11    1    4    4    0    0  0.31369722470E-01  0.95021241386E-01 -0.52139493485E-01  0.11283564908E+00  0.51100000000E-03 0.  1.
</event>
<event>
 8    1  0.1112929E+005  0.1043930E+01  0.7957747E-01            NaN
         13   -1    0    0    0    0  0.00000000000E+00  0.00000000000E+00  0.74505805969E-08  0.10566000000E+00  0.10566000000E+00 0.  1.
     999900   -1    0    0    0    0 -0.00000000000E+00 -0.00000000000E+00 -0.74505805969E-08  0.93827000000E+00  0.93827000000E+00 0. -1.
     999902    2    1    2    0    0  0.15520032631E-01  0.19316549620E-01  0.39199187583E-02  0.10188428267E+01  0.10185339166E+01 0.  0.
     999903    2    3    3    0    0  0.31351381255E-01  0.10187781208E-01  0.12459372651E+00  0.13041942881E+00  0.19973250381E-01 0.  0.
         14    1    1    2    0    0 -0.15520032631E-01 -0.19316549620E-01 -0.39199187583E-02  0.25087173320E-01  0.00000000000E+00 0. -1.
     999901    1    3    3    0    0 -0.15831348624E-01  0.91287684117E-02 -0.12067380776E+00  0.88842339787E+00  0.88000000000E+00 0. -1.
        -11    1    4    4    0    0  0.26745391767E-01  0.10256767759E-01  0.70091862823E-01  0.75720853274E-01  0.51100000000E-03 0.  1.
         11    1    4    4    0    0  0.46059894877E-02 -0.68986550664E-04  0.54501863692E-01  0.54698575532E-01  0.51100000000E-03 0. -1.
</event>
<event>
 8    1  0.1112929E+005  0.1043930E+01  0.7957747E-01            NaN
         13   -1    0    0    0    0  0.00000000000E+00  0.00000000000E+00  0.74505805969E-08  0.10566000000E+00  0.10566000000E+00 0.  1.
     999900   -1    0    0    0    0 -0.00000000000E+00 -0.00000000000E+00 -0.74505805969E-08  0.93827000000E+00  0.93827000000E+00 0. -1.
     999902    2    1    2    0    0  0.18572968147E-01 -0.12842184383E-01  0.59931514128E-02  0.10205677503E+01  0.10203003177E+01 0.  0.
     999903    2    3    3    0    0 -0.64648070931E-01 -0.39030303840E-01 -0.10327515444E+00  0.12952840125E+00  0.20226505221E-01 0.  0.
         14    1    1    2    0    0 -0.18572968147E-01  0.12842184383E-01 -0.59931514128E-02  0.23362249664E-01  0.00000000000E+00 0. -1.
     999901    1    3    3    0    0  0.83221039078E-01  0.26188119457E-01  0.10926830586E+00  0.89103934908E+00  0.88000000000E+00 0.  1.
        -11    1    4    4    0    0 -0.49842888036E-01 -0.26341666335E-01 -0.61540876673E-01  0.83460993858E-01  0.51100000000E-03 0. -1.
         11    1    4    4    0    0 -0.14805182895E-01 -0.12688637505E-01 -0.41734277770E-01  0.46067407397E-01  0.51100000000E-03 0.  1.
</event>
<event>
 8    1  0.1112929E+005  0.1043930E+01  0.7957747E-01            NaN
         13   -1    0    0    0    0  0.00000000000E+00  0.00000000000E+00  0.74505805969E-08  0.10566000000E+00  0.10566000000E+00 0.  1.
     999900   -1    0    0    0    0 -0.00000000000E+00 -0.00000000000E+00 -0.74505805969E-08  0.93827000000E+00  0.93827000000E+00 0. -1.
     999902    2    1    2    0    0 -0.16009991464E-01 -0.12359085118E-01 -0.61904998934E-02  0.10227784256E+01  0.10225596896E+01 0.  0.
     999903    2    3    3    0    0 -0.19666388699E-01  0.71410071789E-01  0.10679207765E+00  0.13160184166E+00  0.20696175549E-01 0.  0.
         14    1    1    2    0    0  0.16009991464E-01  0.12359085118E-01  0.61904998934E-02  0.21151574423E-01  0.00000000000E+00 0.  1.
     999901    1    3    3    0    0  0.36563972350E-02 -0.83769156907E-01 -0.11298257755E+00  0.89117658391E+00  0.88000000000E+00 0. -1.
        -11    1    4    4    0    0 -0.24062293117E-01  0.61901738328E-01  0.92553856723E-01  0.11391793833E+00  0.51100000000E-03 0.  1.
         11    1    4    4    0    0  0.43959044174E-02  0.95083334605E-02  0.14238220928E-01  0.17683903332E-01  0.51100000000E-03 0. -1.
</event>
<event>
 8    1  0.1112929E+005  0.1043930E+01  0.7957747E-01            NaN
         13   -1    0    0    0    0  0.00000000000E+00  0.00000000000E+00  0.74505805969E-08  0.10566000000E+00  0.10566000000E+00 0. -1.
     999900   -1    0    0    0    0 -0.00000000000E+00 -0.00000000000E+00 -0.74505805969E-08  0.93827000000E+00  0.93827000000E+00 0. -1.
     999902    2    1    2    0    0 -0.20718448208E-01  0.66998925425E-02  0.55071620329E-02  0.10214695572E+01  0.10212225932E+01 0.  0.
     999903    2    3    3    0    0 -0.48808851397E-01  0.11651042315E+00 -0.37015851032E-01  0.13318152396E+00  0.20252467011E-01 0.  0.
         14    1    1    2    0    0  0.20718448208E-01 -0.66998925425E-02 -0.55071620329E-02  0.22460442780E-01  0.00000000000E+00 0.  1.
     999901    1    3    3    0    0  0.28090403189E-01 -0.10981053061E+00  0.42523013064E-01  0.88828803326E+00  0.88000000000E+00 0.  1.
        -11    1    4    4    0    0 -0.24536259489E-01  0.76519977319E-01 -0.30473653579E-01  0.85943234999E-01  0.51100000000E-03 0. -1.
         11    1    4    4    0    0 -0.24272591908E-01  0.39990445834E-01 -0.65421974531E-02  0.47238288966E-01  0.51100000000E-03 0.  1.
</event>
<event>
 8    1  0.1112929E+005  0.1043930E+01  0.7957747E-01            NaN
         13   -1    0    0    0    0  0.00000000000E+00  0.00000000000E+00  0.74505805969E-08  0.10566000000E+00  0.10566000000E+00 0. -1.
     999900   -1    0    0    0    0 -0.00000000000E+00 -0.00000000000E+00 -0.74505805969E-08  0.93827000000E+00  0.93827000000E+00 0.  1.
     999902    2    1    2    0    0 -0.51296962146E-02  0.13381621250E-01 -0.21847568524E-01  0.10178015132E+01  0.10174660793E+01 0.  0.
     999903    2    3    3    0    0 -0.10857644551E+00 -0.11805929149E-01  0.62462174761E-01  0.12738375990E+00  0.19921709947E-01 0.  0.
         14    1    1    2    0    0  0.51296962146E-02 -0.13381621250E-01  0.21847568524E-01  0.26128486771E-01  0.00000000000E+00 0. -1.
     999901    1    3    3    0    0  0.10344674930E+00  0.25187550399E-01 -0.84309743285E-01  0.89041775333E+00  0.88000000000E+00 0.  1.
        -11    1    4    4    0    0 -0.43633461043E-01 -0.13397624675E-02  0.35582865175E-01  0.56321179863E-01  0.51100000000E-03 0.  1.
         11    1    4    4    0    0 -0.64942984466E-01 -0.10466166682E-01  0.26879309587E-01  0.71062580035E-01  0.51100000000E-03 0. -1.
</event>
<event>
 8    1  0.1112929E+005  0.1043930E+01  0.7957747E-01            NaN
         13   -1    0    0    0    0  0.00000000000E+00  0.00000000000E+00  0.74505805969E-08  0.10566000000E+00  0.10566000000E+00 0. -1.
     999900   -1    0    0    0    0 -0.00000000000E+00 -0.00000000000E+00 -0.74505805969E-08  0.93827000000E+00  0.93827000000E+00 0. -1.
     999902    2    1    2    0    0 -0.73135815002E-02  0.13868498593E-01 -0.17121970137E-01  0.10207139368E+01  0.10204498789E+01 0.  0.
     999903    2    3    3    0    0 -0.66502198696E-01  0.10664807902E+00  0.36506364379E-01  0.13223920944E+00  0.18924552435E-01 0.  0.
         14    1    1    2    0    0  0.73135815002E-02 -0.13868498593E-01  0.17121970137E-01  0.23216063167E-01  0.00000000000E+00 0. -1.
     999901    1    3    3    0    0  0.59188617195E-01 -0.92779580422E-01 -0.53628334516E-01  0.88847472739E+00  0.88000000000E+00 0.  1.
        -11    1    4    4    0    0 -0.46301562762E-02  0.20563730798E-01  0.63171641288E-02  0.22010748627E-01  0.51100000000E-03 0. -1.
         11    1    4    4    0    0 -0.61872042419E-01  0.86084348217E-01  0.30189200250E-01  0.11022846082E+00  0.51100000000E-03 0.  1.
</event>
<event>
 8    1  0.1112929E+005  0.1043930E+01  0.7957747E-01            NaN
         13   -1    0    0    0    0  0.00000000000E+00  0.00000000000E+00  0.74505805969E-08  0.10566000000E+00  0.10566000000E+00 0.  1.
     999900   -1    0    0    0    0 -0.00000000000E+00 -0.00000000000E+00 -0.74505805969E-08  0.93827000000E+00  0.93827000000E+00 0.  1.
     999902    2    1    2    0    0 -0.14943454546E-01 -0.28690549362E-02 -0.18921110634E-01  0.10196494164E+01  0.10193602826E+01 0.  0.
     999903    2    3    3    0    0 -0.33235823014E-01 -0.61008684490E-01 -0.11128599857E+00  0.13271869774E+00  0.20074853355E-01 0.  0.
         14    1    1    2    0    0  0.14943454546E-01  0.28690549362E-02  0.18921110634E-01  0.24280583552E-01  0.00000000000E+00 0.  1.
     999901    1    3    3    0    0  0.18292368468E-01  0.58139629554E-01  0.92364887934E-01  0.88693071871E+00  0.88000000000E+00 0. -1.
        -11    1    4    4    0    0 -0.17407240471E-01 -0.37958588627E-01 -0.83147723901E-01  0.93046609730E-01  0.51100000000E-03 0.  1.
         11    1    4    4    0    0 -0.15828582543E-01 -0.23050095863E-01 -0.28138274667E-01  0.39672088007E-01  0.51100000000E-03 0. -1.
</event>
<event>
 8    1  0.1112929E+005  0.1043930E+01  0.7957747E-01            NaN
         13   -1    0    0    0    0  0.00000000000E+00  0.00000000000E+00  0.74505805969E-08  0.10566000000E+00  0.10566000000E+00 0. -1.
     999900   -1    0    0    0    0 -0.00000000000E+00 -0.00000000000E+00 -0.74505805969E-08  0.93827000000E+00  0.93827000000E+00 0. -1.
     999902    2    1    2    0    0 -0.28413554408E-02 -0.22793493285E-01  0.24283588342E-01  0.10105038231E+01  0.10099508242E+01 0.  0.
     999903    2    3    3    0    0  0.10159963998E+00 -0.32540413274E-01  0.58899210217E-01  0.12359843627E+00  0.20641975300E-01 0.  0.
         14    1    1    2    0    0  0.28413554408E-02  0.22793493285E-01 -0.24283588342E-01  0.33426176862E-01  0.00000000000E+00 0. -1.
     999901    1    3    3    0    0 -0.10444099542E+00  0.97469199896E-02 -0.34615621875E-01  0.88690538687E+00  0.88000000000E+00 0.  1.
        -11    1    4    4    0    0  0.91990734030E-01 -0.34580119647E-01  0.49693044847E-01  0.11012601713E+00  0.51100000000E-03 0. -1.
         11    1    4    4    0    0  0.96089059520E-02  0.20397063726E-02  0.92061653696E-02  0.13472419140E-01  0.51100000000E-03 0.  1.
</event>
<event>
 8    1  0.1112929E+005  0.1043930E+01  0.7957747E-01            NaN
         13   -1    0    0    0    0  0.00000000000E+00  0.00000000000E+00  0.74505805969E-08  0.10566000000E+00  0.10566000000E+00 0.  1.
     999900   -1    0    0    0    0 -0.00000000000E+00 -0.00000000000E+00 -0.74505805969E-08  0.93827000000E+00  0.93827000000E+00 0.  1.
     999902    2    1    2    0    0  0.13922609379E-01 -0.17483550435E-01 -0.70531153034E-02  0.10204937029E+01  0.10202245525E+01 0.  0.
     999903    2    3    3    0    0 -0.12377715816E-01 -0.20888301524E-01  0.12630283700E+00  0.13005161635E+00  0.19274005566E-01 0.  0.
         14    1    1    2    0    0 -0.13922609379E-01  0.17483550435E-01  0.70531153034E-02  0.23436297131E-01  0.00000000000E+00 0.  1.
     999901    1    3    3    0    0  0.26300325195E-01  0.34047510886E-02 -0.13335595230E+00  0.89044208652E+00  0.88000000000E+00 0.  1.
        -11    1    4    4    0    0 -0.69860597244E-03 -0.83905390233E-02  0.13223869280E-01  0.15685057703E-01  0.51100000000E-03 0.  1.
         11    1    4    4    0    0 -0.11679109843E-01 -0.12497762501E-01  0.11307896772E+00  0.11436655864E+00  0.51100000000E-03 0. -1.
</event>
<event>
 8    1  0.1112929E+005  0.1043930E+01  0.7957747E-01            NaN
         13   -1    0    0    0    0  0.00000000000E+00  0.00000000000E+00  0.74505805969E-08  0.10566000000E+00  0.10566000000E+00 0. -1.
     999900   -1    0    0    0    0 -0.00000000000E+00 -0.00000000000E+00 -0.74505805969E-08  0.93827000000E+00  0.93827000000E+00 0.  1.
     999902    2    1    2    0    0  0.37620686664E-02  0.10541941251E-01  0.21282730802E-01  0.10198833720E+01  0.10195998491E+01 0.  0.
     999903    2    3    3    0    0  0.11499498061E+00 -0.24007735809E-01  0.55786606531E-01  0.13153830489E+00  0.19747486966E-01 0.  0.
         14    1    1    2    0    0 -0.37620686664E-02 -0.10541941251E-01 -0.21282730802E-01  0.24046627963E-01  0.00000000000E+00 0.  1.
     999901    1    3    3    0    0 -0.11123291194E+00  0.34549677060E-01 -0.34503875728E-01  0.88834506715E+00  0.88000000000E+00 0.  1.
        -11    1    4    4    0    0  0.66616346071E-01 -0.41697571952E-02  0.33718043750E-01  0.74781628989E-01  0.51100000000E-03 0.  1.
         11    1    4    4    0    0  0.48378634537E-01 -0.19837978614E-01  0.22068562780E-01  0.56756675901E-01  0.51100000000E-03 0. -1.
</event>
<event>
 8    1  0.1112929E+005  0.1043930E+01  0.7957747E-01            NaN
         13   -1    0    0    0    0  0.00000000000E+00  0.00000000000E+00  0.74505805969E-08  0.10566000000E+00  0.10566000000E+00 0.  1.
     999900   -1    0    0    0    0 -0.00000000000E+00 -0.00000000000E+00 -0.74505805969E-08  0.93827000000E+00  0.93827000000E+00 0. -1.
     999902    2    1    2    0    0 -0.94626733148E-02 -0.21513213554E-01 -0.68109842940E-03  0.10204177811E+01  0.10201468637E+01 0.  0.
     999903    2    3    3    0    0 -0.10686713080E+00 -0.58099014786E-01 -0.49745673342E-01  0.13293060838E+00  0.19995886177E-01 0.  0.
         14    1    1    2    0    0  0.94626733148E-02  0.21513213554E-01  0.68109842940E-03  0.23512218925E-01  0.00000000000E+00 0.  1.
     999901    1    3    3    0    0  0.97404457481E-01  0.36585801231E-01  0.49064574913E-01  0.88748717270E+00  0.88000000000E+00 0.  1.
        -11    1    4    4    0    0 -0.78045425222E-01 -0.51623809654E-01 -0.34959781613E-01  0.99892710308E-01  0.51100000000E-03 0.  1.
         11    1    4    4    0    0 -0.28821705574E-01 -0.64752051320E-02 -0.14785891730E-01  0.33037898071E-01  0.51100000000E-03 0. -1.
</event>
<event>
 8    1  0.1112929E+005  0.1043930E+01  0.7957747E-01            NaN
         13   -1    0    0    0    0  0.00000000000E+00  0.00000000000E+00  0.74505805969E-08  0.10566000000E+00  0.10566000000E+00 0.  1.
     999900   -1    0    0    0    0 -0.00000000000E+00 -0.00000000000E+00 -0.74505805969E-08  0.93827000000E+00  0.93827000000E+00 0.  1.
     999902    2    1    2    0    0 -0.13040862170E-01 -0.18475800468E-01  0.11077480350E-01  0.10187480648E+01  0.10184367873E+01 0.  0.
     999903    2    3    3    0    0 -0.59959417046E-01  0.40746634612E-01 -0.10361747240E+00  0.12809460819E+00  0.20401669897E-01 0.  0.
         14    1    1    2    0    0  0.13040862170E-01  0.18475800468E-01 -0.11077480350E-01  0.25181935191E-01  0.00000000000E+00 0. -1.
     999901    1    3    3    0    0  0.46918554876E-01 -0.59222435080E-01  0.11469495275E+00  0.89065345662E+00  0.88000000000E+00 0. -1.
        -11    1    4    4    0    0 -0.15783250248E-01  0.19676316016E-01 -0.25227739632E-01  0.35678682267E-01  0.51100000000E-03 0.  1.
         11    1    4    4    0    0 -0.44176166797E-01  0.21070318596E-01 -0.78389732770E-01  0.92415925918E-01  0.51100000000E-03 0. -1.
</event>
<event>
 8    1  0.1112929E+005  0.1043930E+01  0.7957747E-01            NaN
         13   -1    0    0    0    0  0.00000000000E+00  0.00000000000E+00  0.74505805969E-08  0.10566000000E+00  0.10566000000E+00 0.  1.
     999900   -1    0    0    0    0 -0.00000000000E+00 -0.00000000000E+00 -0.74505805969E-08  0.93827000000E+00  0.93827000000E+00 0. -1.
     999902    2    1    2    0    0 -0.75951003840E-02 -0.64782917810E-02  0.20923608507E-01  0.10207470061E+01  0.10204837084E+01 0.  0.
     999903    2    3    3    0    0 -0.96725250939E-01 -0.86202034800E-01  0.19839361574E-01  0.13265847753E+00  0.20447650751E-01 0.  0.
         14    1    1    2    0    0  0.75951003840E-02  0.64782917810E-02 -0.20923608507E-01  0.23182993922E-01  0.00000000000E+00 0. -1.
     999901    1    3    3    0    0  0.89130150555E-01  0.79723743019E-01  0.10842469335E-02  0.88808852854E+00  0.88000000000E+00 0. -1.
        -11    1    4    4    0    0 -0.57562078082E-01 -0.50092144059E-01  0.15154295697E-02  0.76322823437E-01  0.51100000000E-03 0. -1.
         11    1    4    4    0    0 -0.39163172857E-01 -0.36109890741E-01  0.18323932004E-01  0.56335654098E-01  0.51100000000E-03 0.  1.
</event>
<event>
 8    1  0.1112929E+005  0.1043930E+01  0.7957747E-01            NaN
         13   -1    0    0    0    0  0.00000000000E+00  0.00000000000E+00  0.74505805969E-08  0.10566000000E+00  0.10566000000E+00 0. -1.
     999900   -1    0    0    0    0 -0.00000000000E+00 -0.00000000000E+00 -0.74505805969E-08  0.93827000000E+00  0.93827000000E+00 0.  1.
     999902    2    1    2    0    0  0.16340298756E-01 -0.26600473539E-02 -0.16592208130E-01  0.10204910882E+01  0.10202218771E+01 0.  0.
     999903    2    3    3    0    0 -0.10911142746E+00 -0.27302206244E-01  0.57582777922E-01  0.12816418614E+00  0.21437542482E-01 0.  0.
         14    1    1    2    0    0 -0.16340298756E-01  0.26600473539E-02  0.16592208130E-01  0.23438911792E-01  0.00000000000E+00 0. -1.
     999901    1    3    3    0    0  0.12545172621E+00  0.24642158890E-01 -0.74174986052E-01  0.89232690207E+00  0.88000000000E+00 0.  1.
        -11    1    4    4    0    0 -0.10167681448E+00 -0.19176516486E-01  0.52352442305E-01  0.11596099656E+00  0.51100000000E-03 0. -1.
         11    1    4    4    0    0 -0.74346129777E-02 -0.81256897581E-02  0.52303356167E-02  0.12203189576E-01  0.51100000000E-03 0.  1.
</event>
<event>
 8    1  0.1112929E+005  0.1043930E+01  0.7957747E-01            NaN
         13   -1    0    0    0    0  0.00000000000E+00  0.00000000000E+00  0.74505805969E-08  0.10566000000E+00  0.10566000000E+00 0.  1.
     999900   -1    0    0    0    0 -0.00000000000E+00 -0.00000000000E+00 -0.74505805969E-08  0.93827000000E+00  0.93827000000E+00 0.  1.
     999902    2    1    2    0    0  0.15204578040E-01  0.17306088036E-02 -0.18465240730E-01  0.10199479376E+01  0.10196659532E+01 0.  0.
     999903    2    3    3    0    0  0.39766148632E-01  0.70050403728E-01 -0.10370283957E+00  0.13285362845E+00  0.20184202208E-01 0.  0.
         14    1    1    2    0    0 -0.15204578040E-01 -0.17306088036E-02  0.18465240730E-01  0.23982062368E-01  0.00000000000E+00 0.  1.
     999901    1    3    3    0    0 -0.24561570591E-01 -0.68319794925E-01  0.85237598836E-01  0.88709430918E+00  0.88000000000E+00 0. -1.
        -11    1    4    4    0    0  0.11317791684E-01  0.14526610735E-01 -0.38104275789E-01  0.42323891390E-01  0.51100000000E-03 0. -1.
         11    1    4    4    0    0  0.28448356947E-01  0.55523792994E-01 -0.65598563777E-01  0.90529737059E-01  0.51100000000E-03 0.  1.
</event>
<event>
 8    1  0.1112929E+005  0.1043930E+01  0.7957747E-01            NaN
         13   -1    0    0    0    0  0.00000000000E+00  0.00000000000E+00  0.74505805969E-08  0.10566000000E+00  0.10566000000E+00 0.  1.
     999900   -1    0    0    0    0 -0.00000000000E+00 -0.00000000000E+00 -0.74505805969E-08  0.93827000000E+00  0.93827000000E+00 0. -1.
     999902    2    1    2    0    0  0.19600791498E-01 -0.24336461220E-02  0.12436467721E-01  0.10205894904E+01  0.10203225610E+01 0.  0.
     999903    2    3    3    0    0  0.70276299909E-01  0.10664005502E+00  0.29110917515E-01  0.13225221392E+00  0.18230274399E-01 0.  0.
         14    1    1    2    0    0 -0.19600791498E-01  0.24336461220E-02 -0.12436467721E-01  0.23340509638E-01  0.00000000000E+00 0. -1.
     999901    1    3    3    0    0 -0.50675508411E-01 -0.10907370115E+00 -0.16674449795E-01  0.88833727644E+00  0.88000000000E+00 0.  1.
        -11    1    4    4    0    0  0.24105562374E-01  0.52933126639E-01  0.12090617104E-01  0.59409074864E-01  0.51100000000E-03 0.  1.
         11    1    4    4    0    0  0.46170737534E-01  0.53706928385E-01  0.17020300411E-01  0.72843139060E-01  0.51100000000E-03 0. -1.
</event>
<event>
 8    1  0.1112929E+005  0.1043930E+01  0.7957747E-01            NaN
         13   -1    0    0    0    0  0.00000000000E+00  0.00000000000E+00  0.74505805969E-08  0.10566000000E+00  0.10566000000E+00 0. -1.
     999900   -1    0    0    0    0 -0.00000000000E+00 -0.00000000000E+00 -0.74505805969E-08  0.93827000000E+00  0.93827000000E+00 0. -1.
     999902    2    1    2    0    0  0.78126531346E-03  0.16635377447E-01  0.15344147820E-01  0.10212851544E+01  0.10210340727E+01 0.  0.
     999903    2    3    3    0    0  0.46409250179E-02  0.59037631516E-01 -0.11503762183E+00  0.13066051185E+00  0.18208097146E-01 0.  0.
         14    1    1    2    0    0 -0.78126531346E-03 -0.16635377447E-01 -0.15344147820E-01  0.22644845564E-01  0.00000000000E+00 0.  1.
     999901    1    3    3    0    0 -0.38596597045E-02 -0.42402254069E-01  0.13038176965E+00  0.89062464258E+00  0.88000000000E+00 0.  1.
        -11    1    4    4    0    0  0.15460148140E-02  0.49584661798E-01 -0.79121385351E-01  0.93388883644E-01  0.51100000000E-03 0.  1.
         11    1    4    4    0    0  0.30949102039E-02  0.94529697186E-02 -0.35916236475E-01  0.37271628207E-01  0.51100000000E-03 0. -1.
</event>
<event>
 8    1  0.1112929E+005  0.1043930E+01  0.7957747E-01            NaN
         13   -1    0    0    0    0  0.00000000000E+00  0.00000000000E+00  0.74505805969E-08  0.10566000000E+00  0.10566000000E+00 0.  1.
     999900   -1    0    0    0    0 -0.00000000000E+00 -0.00000000000E+00 -0.74505805969E-08  0.93827000000E+00  0.93827000000E+00 0.  1.
     999902    2    1    2    0    0 -0.68817863919E-02 -0.40714438241E-02 -0.21855528654E-01  0.10206577038E+01  0.10203923503E+01 0.  0.
     999903    2    3    3    0    0  0.10773444747E+00 -0.14395151223E-01  0.66219760172E-01  0.12880529642E+00  0.19794347641E-01 0.  0.
         14    1    1    2    0    0  0.68817863919E-02  0.40714438241E-02  0.21855528654E-01  0.23272296223E-01  0.00000000000E+00 0.  1.
     999901    1    3    3    0    0 -0.11461623386E+00  0.10323707399E-01 -0.88075288827E-01  0.89185240735E+00  0.88000000000E+00 0.  1.
        -11    1    4    4    0    0  0.27667332831E-01  0.14961136909E-02  0.90746185328E-02  0.29160409542E-01  0.51100000000E-03 0.  1.
         11    1    4    4    0    0  0.80067114641E-01 -0.15891264914E-01  0.57145141640E-01  0.99644886881E-01  0.51100000000E-03 0. -1.
</event>
<event>
 8    1  0.1112929E+005  0.1043930E+01  0.7957747E-01            NaN
         13   -1    0    0    0    0  0.00000000000E+00  0.00000000000E+00  0.74505805969E-08  0.10566000000E+00  0.10566000000E+00 0.  1.
     999900   -1    0    0    0    0 -0.00000000000E+00 -0.00000000000E+00 -0.74505805969E-08  0.93827000000E+00  0.93827000000E+00 0.  1.
     999902    2    1    2    0    0  0.90566166428E-02  0.74953553072E-02  0.21397486344E-01  0.10195157608E+01  0.10192233962E+01 0.  0.
     999903    2    3    3    0    0  0.23321511618E-01  0.57424539182E-01  0.11588849790E+00  0.13293527264E+00  0.20004303638E-01 0.  0.
         14    1    1    2    0    0 -0.90566166428E-02 -0.74953553072E-02 -0.21397486344E-01  0.24414239248E-01  0.00000000000E+00 0. -1.
     999901    1    3    3    0    0 -0.14264894975E-01 -0.49929183875E-01 -0.94491011551E-01  0.88658048811E+00  0.88000000000E+00 0.  1.
        -11    1    4    4    0    0  0.21796180406E-01  0.46749076727E-01  0.77804974201E-01  0.93351083478E-01  0.51100000000E-03 0. -1.
         11    1    4    4    0    0  0.15253312116E-02  0.10675462455E-01  0.38083523695E-01  0.39584189166E-01  0.51100000000E-03 0.  1.
</event>
<event>
 8    1  0.1112929E+005  0.1043930E+01  0.7957747E-01            NaN
         13   -1    0    0    0    0  0.00000000000E+00  0.00000000000E+00  0.74505805969E-08  0.10566000000E+00  0.10566000000E+00 0.  1.
     999900   -1    0    0    0    0 -0.00000000000E+00 -0.00000000000E+00 -0.74505805969E-08  0.93827000000E+00  0.93827000000E+00 0.  1.
     999902    2    1    2    0    0 -0.18967205803E-01  0.12651278345E-01  0.56837448073E-02  0.10204328790E+01  0.10201623135E+01 0.  0.
     999903    2    3    3    0    0 -0.62894510439E-01 -0.11244396504E+00 -0.40084847925E-02  0.13044840312E+00  0.20033801695E-01 0.  0.
         14    1    1    2    0    0  0.18967205803E-01 -0.12651278345E-01 -0.56837448073E-02  0.23497120989E-01  0.00000000000E+00 0. -1.
     999901    1    3    3    0    0  0.43927304636E-01  0.12509524338E+00  0.96922295998E-02  0.88998447589E+00  0.88000000000E+00 0. -1.
        -11    1    4    4    0    0 -0.48934352097E-02 -0.16324056909E-01 -0.62560466340E-02  0.18160941127E-01  0.51100000000E-03 0.  1.
         11    1    4    4    0    0 -0.58001075229E-01 -0.96119908127E-01  0.22475618415E-02  0.11228746200E+00  0.51100000000E-03 0. -1.
</event>
<event>
 8    1  0.1112929E+005  0.1043930E+01  0.7957747E-01            NaN
         13   -1    0    0    0    0  0.00000000000E+00  0.00000000000E+00  0.74505805969E-08  0.10566000000E+00  0.10566000000E+00 0.  1.
     999900   -1    0    0    0    0 -0.00000000000E+00 -0.00000000000E+00 -0.74505805969E-08  0.93827000000E+00  0.93827000000E+00 0. -1.
     999902    2    1    2    0    0  0.15173509071E-01  0.12705991235E-01 -0.11661867808E-01  0.10209587843E+01  0.10207003294E+01 0.  0.
     999903    2    3    3    0    0 -0.90590276759E-01  0.72753231152E-01  0.55142148795E-01  0.13008593923E+00  0.19546460693E-01 0.  0.
         14    1    1    2    0    0 -0.15173509071E-01 -0.12705991235E-01  0.11661867808E-01  0.22971215718E-01  0.00000000000E+00 0.  1.
     999901    1    3    3    0    0  0.10576378583E+00 -0.60047239917E-01 -0.66804016603E-01  0.89087284505E+00  0.88000000000E+00 0. -1.
        -11    1    4    4    0    0 -0.38673695430E-01  0.41372819353E-01  0.32727170971E-01  0.65411724792E-01  0.51100000000E-03 0. -1.
         11    1    4    4    0    0 -0.51916581328E-01  0.31380411799E-01  0.22414977824E-01  0.64674214439E-01  0.51100000000E-03 0.  1.
</event>
<event>
 8    1  0.1112929E+005  0.1043930E+01  0.7957747E-01            NaN
         13   -1    0    0    0    0  0.00000000000E+00  0.00000000000E+00  0.74505805969E-08  0.10566000000E+00  0.10566000000E+00 0. -1.
     999900   -1    0    0    0    0 -0.00000000000E+00 -0.00000000000E+00 -0.74505805969E-08  0.93827000000E+00  0.93827000000E+00 0.  1.
     999902    2    1    2    0    0  0.63767148172E-02  0.17395877711E-01  0.14779413294E-01  0.10202295757E+01  0.10199542524E+01 0.  0.
     999903    2    3    3    0    0 -0.39853823372E-01 -0.10015648145E+00  0.68548982575E-01  0.12958543446E+00  0.21766345501E-01 0.  0.
         14    1    1    2    0    0 -0.63767148172E-02 -0.17395877711E-01 -0.14779413294E-01  0.23700424269E-01  0.00000000000E+00 0.  1.
     999901    1    3    3    0    0  0.46230538190E-01  0.11755235917E+00 -0.53769569280E-01  0.89064414127E+00  0.88000000000E+00 0. -1.
        -11    1    4    4    0    0 -0.42468473394E-02 -0.21484616307E-01  0.52833152511E-02  0.22534395737E-01  0.51100000000E-03 0. -1.
         11    1    4    4    0    0 -0.35606976033E-01 -0.78671865147E-01  0.63265667323E-01  0.10705103872E+00  0.51100000000E-03 0.  1.
</event>
<event>
 8    1  0.1112929E+005  0.1043930E+01  0.7957747E-01            NaN
         13   -1    0    0    0    0  0.00000000000E+00  0.00000000000E+00  0.74505805969E-08  0.10566000000E+00  0.10566000000E+00 0. -1.
     999900   -1    0    0    0    0 -0.00000000000E+00 -0.00000000000E+00 -0.74505805969E-08  0.93827000000E+00  0.93827000000E+00 0. -1.
     999902    2    1    2    0    0 -0.21071375631E-01  0.98566698798E-02 -0.17761332737E-02  0.10205995165E+01  0.10203328190E+01 0.  0.
     999903    2    3    3    0    0 -0.11172802984E+00  0.60594653234E-01 -0.36466591446E-01  0.13380957529E+00  0.20501841225E-01 0.  0.
         14    1    1    2    0    0  0.21071375631E-01 -0.98566698798E-02  0.17761332737E-02  0.23330483525E-01  0.00000000000E+00 0. -1.
     999901    1    3    3    0    0  0.90656654210E-01 -0.50737983354E-01  0.34690458172E-01  0.88678994119E+00  0.88000000000E+00 0.  1.
        -11    1    4    4    0    0 -0.74006002364E-01  0.39381115086E-01 -0.13829558897E-01  0.84966337049E-01  0.51100000000E-03 0.  1.
         11    1    4    4    0    0 -0.37722027477E-01  0.21213538148E-01 -0.22637032549E-01  0.48843238236E-01  0.51100000000E-03 0. -1.
</event>
<event>
 8    1  0.1112929E+005  0.1043930E+01  0.7957747E-01            NaN
         13   -1    0    0    0    0  0.00000000000E+00  0.00000000000E+00  0.74505805969E-08  0.10566000000E+00  0.10566000000E+00 0.  1.
     999900   -1    0    0    0    0 -0.00000000000E+00 -0.00000000000E+00 -0.74505805969E-08  0.93827000000E+00  0.93827000000E+00 0.  1.
     999902    2    1    2    0    0  0.20513831357E-02  0.22357119116E-01 -0.69051126126E-02  0.10204410765E+01  0.10201707019E+01 0.  0.
     999903    2    3    3    0    0 -0.60747160789E-02 -0.11596408585E+00 -0.51288686601E-01  0.12849450248E+00  0.19893124741E-01 0.  0.
         14    1    1    2    0    0 -0.20513831357E-02 -0.22357119116E-01  0.69051126126E-02  0.23488923520E-01  0.00000000000E+00 0.  1.
     999901    1    3    3    0    0  0.81260992146E-02  0.13832120496E+00  0.44383573988E-01  0.89194657400E+00  0.88000000000E+00 0.  1.
        -11    1    4    4    0    0 -0.73734909148E-02 -0.47008905368E-01 -0.30251571286E-01  0.56388156899E-01  0.51100000000E-03 0.  1.
         11    1    4    4    0    0  0.12987748360E-02 -0.68955180481E-01 -0.21037115315E-01  0.72106345581E-01  0.51100000000E-03 0. -1.
</event>
<event>
 8    1  0.1112929E+005  0.1043930E+01  0.7957747E-01            NaN
         13   -1    0    0    0    0  0.00000000000E+00  0.00000000000E+00  0.74505805969E-08  0.10566000000E+00  0.10566000000E+00 0.  1.
     999900   -1    0    0    0    0 -0.00000000000E+00 -0.00000000000E+00 -0.74505805969E-08  0.93827000000E+00  0.93827000000E+00 0. -1.
     999902    2    1    2    0    0  0.23581336708E-01  0.13661432081E-02 -0.10120563364E-02  0.10202874526E+01  0.10200134881E+01 0.  0.
     999903    2    3    3    0    0  0.35574077445E-01  0.86503970037E-01 -0.90306397012E-01  0.13159979396E+00  0.20366850796E-01 0.  0.
         14    1    1    2    0    0 -0.23581336708E-01 -0.13661432081E-02  0.10120563364E-02  0.23642547372E-01  0.00000000000E+00 0. -1.
     999901    1    3    3    0    0 -0.11992740736E-01 -0.85137826829E-01  0.89294340676E-01  0.88868765867E+00  0.88000000000E+00 0.  1.
        -11    1    4    4    0    0  0.15053680768E-01  0.40037451967E-01 -0.55271289704E-01  0.69891254469E-01  0.51100000000E-03 0. -1.
         11    1    4    4    0    0  0.20520396677E-01  0.46466518070E-01 -0.35035107309E-01  0.61708539494E-01  0.51100000000E-03 0.  1.
</event>
<event>
 8    1  0.1112929E+005  0.1043930E+01  0.7957747E-01            NaN
         13   -1    0    0    0    0  0.00000000000E+00  0.00000000000E+00  0.74505805969E-08  0.10566000000E+00  0.10566000000E+00 0. -1.
     999900   -1    0    0    0    0 -0.00000000000E+00 -0.00000000000E+00 -0.74505805969E-08  0.93827000000E+00  0.93827000000E+00 0. -1.
     999902    2    1    2    0    0 -0.30209162730E-02 -0.16135605021E-02  0.22684114146E-01  0.10209888024E+01  0.10207310302E+01 0.  0.
     999903    2    3    3    0    0 -0.27103870959E-01 -0.11228445359E+00  0.59346273783E-01  0.13297295275E+00  0.28590341221E-01 0.  0.
         14    1    1    2    0    0  0.30209162730E-02  0.16135605021E-02 -0.22684114146E-01  0.22941197597E-01  0.00000000000E+00 0.  1.
     999901    1    3    3    0    0  0.24082954686E-01  0.11067089309E+00 -0.36662159638E-01  0.88801584965E+00  0.88000000000E+00 0. -1.
        -11    1    4    4    0    0 -0.14371870504E-01 -0.20887365202E-01  0.21447148634E-01  0.33212557751E-01  0.51100000000E-03 0. -1.
         11    1    4    4    0    0 -0.12732000455E-01 -0.91397088393E-01  0.37899125150E-01  0.99760394999E-01  0.51100000000E-03 0.  1.
</event>
<event>
 8    1  0.1112929E+005  0.1043930E+01  0.7957747E-01            NaN
         13   -1    0    0    0    0  0.00000000000E+00  0.00000000000E+00  0.74505805969E-08  0.10566000000E+00  0.10566000000E+00 0. -1.
     999900   -1    0    0    0    0 -0.00000000000E+00 -0.00000000000E+00 -0.74505805969E-08  0.93827000000E+00  0.93827000000E+00 0.  1.
     999902    2    1    2    0    0  0.95937380413E-05  0.12512217224E-01  0.17916445249E-01  0.10220769754E+01  0.10218433290E+01 0.  0.
     999903    2    3    3    0    0  0.40703885892E-01  0.11376699275E+00  0.57101103040E-01  0.13447121139E+00  0.14907573862E-01 0.  0.
         14    1    1    2    0    0 -0.95937380413E-05 -0.12512217224E-01 -0.17916445249E-01  0.21853024557E-01  0.00000000000E+00 0.  1.
     999901    1    3    3    0    0 -0.40694292154E-01 -0.10125477552E+00 -0.39184657790E-01  0.88760576406E+00  0.88000000000E+00 0. -1.
        -11    1    4    4    0    0  0.28423705708E-01  0.86353166168E-01  0.36108547059E-01  0.97820573731E-01  0.51100000000E-03 0.  1.
         11    1    4    4    0    0  0.12280180184E-01  0.27413826578E-01  0.20992555980E-01  0.36650637656E-01  0.51100000000E-03 0. -1.
</event>
<event>
 8    1  0.1112929E+005  0.1043930E+01  0.7957747E-01            NaN
         13   -1    0    0    0    0  0.00000000000E+00  0.00000000000E+00  0.74505805969E-08  0.10566000000E+00  0.10566000000E+00 0. -1.
     999900   -1    0    0    0    0 -0.00000000000E+00 -0.00000000000E+00 -0.74505805969E-08  0.93827000000E+00  0.93827000000E+00 0.  1.
     999902    2    1    2    0    0 -0.15526638376E-01  0.18079608954E-01  0.14314939520E-01  0.10161295278E+01  0.10157491576E+01 0.  0.
     999903    2    3    3    0    0  0.54886455761E-01  0.88409872035E-01  0.72905046579E-01  0.12858395133E+00  0.19744827755E-01 0.  0.
         14    1    1    2    0    0  0.15526638376E-01 -0.18079608954E-01 -0.14314939520E-01  0.27800472166E-01  0.00000000000E+00 0.  1.
     999901    1    3    3    0    0 -0.70413094137E-01 -0.70330263080E-01 -0.58590107059E-01  0.88754557651E+00  0.88000000000E+00 0.  1.
        -11    1    4    4    0    0  0.12904966945E-01  0.38872017795E-01  0.29443356613E-01  0.50445458754E-01  0.51100000000E-03 0. -1.
         11    1    4    4    0    0  0.41981488816E-01  0.49537854240E-01  0.43461689966E-01  0.78138492573E-01  0.51100000000E-03 0.  1.
</event>
<event>
 8    1  0.1112929E+005  0.1043930E+01  0.7957747E-01            NaN
         13   -1    0    0    0    0  0.00000000000E+00  0.00000000000E+00  0.74505805969E-08  0.10566000000E+00  0.10566000000E+00 0. -1.
     999900   -1    0    0    0    0 -0.00000000000E+00 -0.00000000000E+00 -0.74505805969E-08  0.93827000000E+00  0.93827000000E+00 0.  1.
     999902    2    1    2    0    0 -0.21980601777E-01  0.58470572534E-02  0.34339847951E-02  0.10209272353E+01  0.10206680619E+01 0.  0.
     999903    2    3    3    0    0 -0.11028031870E+00  0.73185548591E-01 -0.36064003068E-02  0.13392053889E+00  0.20095556695E-01 0.  0.
         14    1    1    2    0    0  0.21980601777E-01 -0.58470572534E-02 -0.34339847951E-02  0.23002764715E-01  0.00000000000E+00 0.  1.
     999901    1    3    3    0    0  0.88299716922E-01 -0.67338491338E-01  0.70403851019E-02  0.88700669639E+00  0.88000000000E+00 0. -1.
        -11    1    4    4    0    0 -0.32061417687E-01  0.28195166668E-01 -0.85610620279E-02  0.43548304578E-01  0.51100000000E-03 0. -1.
         11    1    4    4    0    0 -0.78218901011E-01  0.44990381923E-01  0.49546617211E-02  0.90372234313E-01  0.51100000000E-03 0.  1.
</event>
<event>
 8    1  0.1112929E+005  0.1043930E+01  0.7957747E-01            NaN
         13   -1    0    0    0    0  0.00000000000E+00  0.00000000000E+00  0.74505805969E-08  0.10566000000E+00  0.10566000000E+00 0.  1.
     999900   -1    0    0    0    0 -0.00000000000E+00 -0.00000000000E+00 -0.74505805969E-08  0.93827000000E+00  0.93827000000E+00 0.  1.
     999902    2    1    2    0    0  0.21472493153E-01  0.88079680692E-02  0.27822923789E-02  0.10205550259E+01  0.10202872985E+01 0.  0.
     999903    2    3    3    0    0 -0.88128272262E-01 -0.71818175193E-01 -0.55589464940E-01  0.12818729630E+00  0.20429186509E-01 0.  0.
         14    1    1    2    0    0 -0.21472493153E-01 -0.88079680692E-02 -0.27822923789E-02  0.23374974109E-01  0.00000000000E+00 0.  1.
     999901    1    3    3    0    0  0.10960076542E+00  0.80626143262E-01  0.58371757319E-01  0.89236772959E+00  0.88000000000E+00 0. -1.
        -11    1    4    4    0    0 -0.29084143850E-01 -0.36604482436E-01 -0.22895441893E-01  0.52059945625E-01  0.51100000000E-03 0. -1.
         11    1    4    4    0    0 -0.59044128412E-01 -0.35213692756E-01 -0.32694023047E-01  0.76127350679E-01  0.51100000000E-03 0.  1.
</event>
<event>
 8    1  0.1112929E+005  0.1043930E+01  0.7957747E-01            NaN
         13   -1    0    0    0    0  0.00000000000E+00  0.00000000000E+00  0.74505805969E-08  0.10566000000E+00  0.10566000000E+00 0.  1.
     999900   -1    0    0    0    0 -0.00000000000E+00 -0.00000000000E+00 -0.74505805969E-08  0.93827000000E+00  0.93827000000E+00 0. -1.
     999902    2    1    2    0    0  0.18951275537E-01 -0.52247642207E-02 -0.13858816208E-01  0.10198776448E+01  0.10195939851E+01 0.  0.
     999903    2    3    3    0    0 -0.99347814252E-01 -0.66872081649E-01 -0.44490154689E-01  0.12929730292E+00  0.19913693191E-01 0.  0.
         14    1    1    2    0    0 -0.18951275537E-01  0.52247642207E-02  0.13858816208E-01  0.24052355234E-01  0.00000000000E+00 0.  1.
     999901    1    3    3    0    0  0.11829908979E+00  0.61647317429E-01  0.30631338481E-01  0.89058034185E+00  0.88000000000E+00 0.  1.
        -11    1    4    4    0    0 -0.81584442299E-01 -0.63000543082E-01 -0.39961701968E-01  0.11055445897E+00  0.51100000000E-03 0.  1.
         11    1    4    4    0    0 -0.17763371952E-01 -0.38715385675E-02 -0.45284527212E-02  0.18742843942E-01  0.51100000000E-03 0. -1.
</event>
<event>
 8    1  0.1112929E+005  0.1043930E+01  0.7957747E-01            NaN
         13   -1    0    0    0    0  0.00000000000E+00  0.00000000000E+00  0.74505805969E-08  0.10566000000E+00  0.10566000000E+00 0. -1.
     999900   -1    0    0    0    0 -0.00000000000E+00 -0.00000000000E+00 -0.74505805969E-08  0.93827000000E+00  0.93827000000E+00 0.  1.
     999902    2    1    2    0    0 -0.36765978295E-02 -0.26274223169E-02 -0.22134803422E-01  0.10213386246E+01  0.10210887404E+01 0.  0.
     999903    2    3    3    0    0 -0.38232353536E-01 -0.11426616951E+00  0.46941547996E-01  0.13092925109E+00  0.20505840893E-01 0.  0.
         14    1    1    2    0    0  0.36765978295E-02  0.26274223169E-02  0.22134803422E-01  0.22591375394E-01  0.00000000000E+00 0. -1.
     999901    1    3    3    0    0  0.34555755707E-01  0.11163874719E+00 -0.69076351419E-01  0.89040937352E+00  0.88000000000E+00 0.  1.
        -11    1    4    4    0    0 -0.60205253752E-02 -0.15548820719E-01  0.14599873798E-01  0.22168220214E-01  0.51100000000E-03 0.  1.
         11    1    4    4    0    0 -0.32211828161E-01 -0.98717348789E-01  0.32341674198E-01  0.10876103087E+00  0.51100000000E-03 0. -1.
</event>
<event>
 8    1  0.1112929E+005  0.1043930E+01  0.7957747E-01            NaN
         13   -1    0    0    0    0  0.00000000000E+00  0.00000000000E+00  0.74505805969E-08  0.10566000000E+00  0.10566000000E+00 0.  1.
     999900   -1    0    0    0    0 -0.00000000000E+00 -0.00000000000E+00 -0.74505805969E-08  0.93827000000E+00  0.93827000000E+00 0.  1.
     999902    2    1    2    0    0 -0.65376297695E-02 -0.19100034220E-01 -0.15460829988E-01  0.10185018822E+01  0.10181844110E+01 0.  0.
     999903    2    3    3    0    0 -0.11886476811E+00 -0.19073999415E-01  0.43149533170E-01  0.12942789128E+00  0.19926020063E-01 0.  0.
         14    1    1    2    0    0  0.65376297695E-02  0.19100034220E-01  0.15460829988E-01  0.25428117786E-01  0.00000000000E+00 0.  1.
     999901    1    3    3    0    0  0.11232713835E+00 -0.26034805324E-04 -0.58610363158E-01  0.88907399093E+00  0.88000000000E+00 0.  1.
        -11    1    4    4    0    0 -0.50631574798E-01 -0.17725790740E-01  0.21934792368E-01  0.57958228588E-01  0.51100000000E-03 0. -1.
         11    1    4    4    0    0 -0.68233193317E-01 -0.13482086750E-02  0.21214740802E-01  0.71469662691E-01  0.51100000000E-03 0.  1.
</event>
<event>
 8    1  0.1112929E+005  0.1043930E+01  0.7957747E-01            NaN
         13   -1    0    0    0    0  0.00000000000E+00  0.00000000000E+00  0.74505805969E-08  0.10566000000E+00  0.10566000000E+00 0. -1.
     999900   -1    0    0    0    0 -0.00000000000E+00 -0.00000000000E+00 -0.74505805969E-08  0.93827000000E+00  0.93827000000E+00 0. -1.
     999902    2    1    2    0    0  0.16079017318E-01  0.44400304990E-02 -0.15815456831E-01  0.10209435400E+01  0.10206847381E+01 0.  0.
     999903    2    3    3    0    0 -0.96390122311E-01 -0.53922838749E-01  0.63143043205E-01  0.12836862628E+00  0.17109415207E-01 0.  0.
         14    1    1    2    0    0 -0.16079017318E-01 -0.44400304990E-02  0.15815456831E-01  0.22986460004E-01  0.00000000000E+00 0. -1.
     999901    1    3    3    0    0  0.11246913963E+00  0.58362869248E-01 -0.78958500036E-01  0.89257491372E+00  0.88000000000E+00 0. -1.
        -11    1    4    4    0    0 -0.72784478875E-01 -0.38331392412E-01  0.38410138739E-01  0.90788082304E-01  0.51100000000E-03 0. -1.
         11    1    4    4    0    0 -0.23605643436E-01 -0.15591446336E-01  0.24732904466E-01  0.37580543971E-01  0.51100000000E-03 0.  1.
</event>
<event>
 8    1  0.1112929E+005  0.1043930E+01  0.7957747E-01            NaN
         13   -1    0    0    0    0  0.00000000000E+00  0.00000000000E+00  0.74505805969E-08  0.10566000000E+00  0.10566000000E+00 0. -1.
     999900   -1    0    0    0    0 -0.00000000000E+00 -0.00000000000E+00 -0.74505805969E-08  0.93827000000E+00  0.93827000000E+00 0. -1.
     999902    2    1    2    0    0 -0.15839324942E-01 -0.16700560887E-01 -0.40686471019E-02  0.10205559366E+01  0.10202882303E+01 0.  0.
     999903    2    3    3    0    0  0.67788843321E-01  0.22042047577E-02 -0.10931957695E+00  0.13014658195E+00  0.19676816085E-01 0.  0.
         14    1    1    2    0    0  0.15839324942E-01  0.16700560887E-01  0.40686471019E-02  0.23374063357E-01  0.00000000000E+00 0. -1.
     999901    1    3    3    0    0 -0.83628168263E-01 -0.18904765645E-01  0.10525092985E+00  0.89040935469E+00  0.88000000000E+00 0. -1.
        -11    1    4    4    0    0  0.15632968163E-01  0.86143199669E-02 -0.23480332447E-01  0.29498870062E-01  0.51100000000E-03 0. -1.
         11    1    4    4    0    0  0.52155875158E-01 -0.64101152092E-02 -0.85839244503E-01  0.10064771189E+00  0.51100000000E-03 0.  1.
</event>
<event>
 8    1  0.1112929E+005  0.1043930E+01  0.7957747E-01            NaN
         13   -1    0    0    0    0  0.00000000000E+00  0.00000000000E+00  0.74505805969E-08  0.10566000000E+00  0.10566000000E+00 0. -1.
     999900   -1    0    0    0    0 -0.00000000000E+00 -0.00000000000E+00 -0.74505805969E-08  0.93827000000E+00  0.93827000000E+00 0.  1.
     999902    2    1    2    0    0 -0.28971118050E-02 -0.23242021387E-01 -0.28500070055E-02  0.10203353533E+01  0.10200625107E+01 0.  0.
     999903    2    3    3    0    0  0.12766341062E+00  0.12789311612E-01 -0.29338817411E-02  0.12997345268E+00  0.20566424984E-01 0.  0.
         14    1    1    2    0    0  0.28971118050E-02  0.23242021387E-01  0.28500070055E-02  0.23594646743E-01  0.00000000000E+00 0. -1.
     999901    1    3    3    0    0 -0.13056052242E+00 -0.36031332999E-01  0.83874735576E-04  0.89036190058E+00  0.88000000000E+00 0.  1.
        -11    1    4    4    0    0  0.59303525101E-01 -0.31725900726E-03  0.67767243505E-02  0.59692494140E-01  0.51100000000E-03 0. -1.
         11    1    4    4    0    0  0.68359885515E-01  0.13106570619E-01 -0.97106060916E-02  0.70280958536E-01  0.51100000000E-03 0.  1.
</event>
<event>
 8    1  0.1112929E+005  0.1043930E+01  0.7957747E-01            NaN
         13   -1    0    0    0    0  0.00000000000E+00  0.00000000000E+00  0.74505805969E-08  0.10566000000E+00  0.10566000000E+00 0.  1.
     999900   -1    0    0    0    0 -0.00000000000E+00 -0.00000000000E+00 -0.74505805969E-08  0.93827000000E+00  0.93827000000E+00 0.  1.
     999902    2    1    2    0    0  0.51254059775E-04  0.11801530617E-01  0.20798755539E-01  0.10200162595E+01  0.10197358985E+01 0.  0.
     999903    2    3    3    0    0  0.67301785480E-01 -0.55802362555E-01 -0.91070469151E-01  0.12782365487E+00  0.20040518921E-01 0.  0.
         14    1    1    2    0    0 -0.51254059775E-04 -0.11801530617E-01 -0.20798755539E-01  0.23913740482E-01  0.00000000000E+00 0. -1.
     999901    1    3    3    0    0 -0.67250531420E-01  0.67603893171E-01  0.11186922469E+00  0.89219260464E+00  0.88000000000E+00 0. -1.
        -11    1    4    4    0    0  0.27698279612E-01 -0.34321800424E-01 -0.38116843416E-01  0.58295244668E-01  0.51100000000E-03 0. -1.
         11    1    4    4    0    0  0.39603505867E-01 -0.21480562131E-01 -0.52953625734E-01  0.69528410207E-01  0.51100000000E-03 0.  1.
</event>
<event>
 8    1  0.1112929E+005  0.1043930E+01  0.7957747E-01            NaN
         13   -1    0    0    0    0  0.00000000000E+00  0.00000000000E+00  0.74505805969E-08  0.10566000000E+00  0.10566000000E+00 0.  1.
     999900   -1    0    0    0    0 -0.00000000000E+00 -0.00000000000E+00 -0.74505805969E-08  0.93827000000E+00  0.93827000000E+00 0. -1.
     999902    2    1    2    0    0  0.23742262617E-02  0.50004060912E-03  0.17452945158E-01  0.10263092087E+01  0.10261579311E+01 0.  0.
     999903    2    3    3    0    0  0.77605009090E-01  0.10345756002E+00 -0.35766025625E-01  0.13552742829E+00  0.19038672949E-01 0.  0.
         14    1    1    2    0    0 -0.23742262617E-02 -0.50004060912E-03 -0.17452945158E-01  0.17620791288E-01  0.00000000000E+00 0. -1.
     999901    1    3    3    0    0 -0.75230782828E-01 -0.10295751941E+00  0.53218970782E-01  0.89078178043E+00  0.88000000000E+00 0.  1.
        -11    1    4    4    0    0  0.56483935593E-01  0.87459502115E-01 -0.30701008825E-01  0.10854682194E+00  0.51100000000E-03 0. -1.
         11    1    4    4    0    0  0.21121073496E-01  0.15998057904E-01 -0.50650168000E-02  0.26980606341E-01  0.51100000000E-03 0.  1.
</event>
<event>
 8    1  0.1112929E+005  0.1043930E+01  0.7957747E-01            NaN
         13   -1    0    0    0    0  0.00000000000E+00  0.00000000000E+00  0.74505805969E-08  0.10566000000E+00  0.10566000000E+00 0.  1.
     999900   -1    0    0    0    0 -0.00000000000E+00 -0.00000000000E+00 -0.74505805969E-08  0.93827000000E+00  0.93827000000E+00 0.  1.
     999902    2    1    2    0    0 -0.67963667972E-02  0.18304070022E-01  0.10877731355E-01  0.10215792814E+01  0.10213347510E+01 0.  0.
     999903    2    3    3    0    0 -0.12013783154E+00 -0.82960880695E-02 -0.50246670026E-01  0.13180962108E+00  0.18631283284E-01 0.  0.
         14    1    1    2    0    0  0.67963667972E-02 -0.18304070022E-01 -0.10877731355E-01  0.22350718566E-01  0.00000000000E+00 0. -1.
     999901    1    3    3    0    0  0.11334146474E+00  0.26600158091E-01  0.61124401380E-01  0.88976966035E+00  0.88000000000E+00 0.  1.
        -11    1    4    4    0    0 -0.70320910943E-01 -0.11434195299E-01 -0.36401515830E-01  0.80006892288E-01  0.51100000000E-03 0.  1.
         11    1    4    4    0    0 -0.49816920596E-01  0.31381072297E-02 -0.13845154196E-01  0.51802728793E-01  0.51100000000E-03 0. -1.
</event>
<event>
 8    1  0.1112929E+005  0.1043930E+01  0.7957747E-01            NaN
         13   -1    0    0    0    0  0.00000000000E+00  0.00000000000E+00  0.74505805969E-08  0.10566000000E+00  0.10566000000E+00 0.  1.
     999900   -1    0    0    0    0 -0.00000000000E+00 -0.00000000000E+00 -0.74505805969E-08  0.93827000000E+00  0.93827000000E+00 0. -1.
     999902    2    1    2    0    0  0.14351696263E-01  0.11831902871E-01 -0.15021521715E-01  0.10200216076E+01  0.10197413735E+01 0.  0.
     999903    2    3    3    0    0  0.32041158996E-01  0.12189960184E+00  0.35057758969E-01  0.13157591441E+00  0.14036594663E-01 0.  0.
         14    1    1    2    0    0 -0.14351696263E-01 -0.11831902871E-01  0.15021521715E-01  0.23908392372E-01  0.00000000000E+00 0.  1.
     999901    1    3    3    0    0 -0.17689462732E-01 -0.11006769897E+00 -0.50079280685E-01  0.88844569322E+00  0.88000000000E+00 0. -1.
        -11    1    4    4    0    0  0.94707805594E-02  0.53062682517E-01  0.93701132222E-02  0.54712010593E-01  0.51100000000E-03 0.  1.
         11    1    4    4    0    0  0.22570378436E-01  0.68836919323E-01  0.25687645747E-01  0.76863903815E-01  0.51100000000E-03 0. -1.
</event>
<event>
 7    1  0.1112929E+005  0.1043930E+01  0.7957747E-01            NaN
         13   -1    0    0    0    0  0.00000000000E+00  0.00000000000E+00  0.74505805969E-08  0.10566000000E+00  0.10566000000E+00 0. -1.
     999900   -1    0    0    0    0 -0.00000000000E+00 -0.00000000000E+00 -0.74505805969E-08  0.93827000000E+00  0.93827000000E+00 0. -1.
     999903    2    1    2    0    0  0.53607175517E-02  0.53072034600E-01  0.90389343449E-01  0.10665489384E+00  0.18964567514E-01 0.  0.
         14    1    1    2    0    0 -0.46276828390E-01 -0.16957503115E-01 -0.18555099994E-01  0.52663018272E-01  0.00000000000E+00 0. -1.
     999901    1    1    2    0    0  0.40916110838E-01 -0.36114531485E-01 -0.71834243454E-01  0.88461208789E+00  0.88000000000E+00 0. -1.
        -11    1    3    3    0    0  0.11600839938E-01  0.35987884819E-01  0.67970774644E-01  0.77781711654E-01  0.51100000000E-03 0. -1.
         11    1    3    3    0    0 -0.62401223867E-02  0.17084149781E-01  0.22418568804E-01  0.28873182183E-01  0.51100000000E-03 0.  1.
</event>
<event>
 8    1  0.1112929E+005  0.1043930E+01  0.7957747E-01            NaN
         13   -1    0    0    0    0  0.00000000000E+00  0.00000000000E+00  0.74505805969E-08  0.10566000000E+00  0.10566000000E+00 0.  1.
     999900   -1    0    0    0    0 -0.00000000000E+00 -0.00000000000E+00 -0.74505805969E-08  0.93827000000E+00  0.93827000000E+00 0. -1.
     999902    2    1    2    0    0  0.30473747062E-02  0.17950353165E-01 -0.15129023699E-01  0.10202574625E+01  0.10199827944E+01 0.  0.
     999903    2    3    3    0    0 -0.46611232892E-01  0.68071594410E-01 -0.10233279377E+00  0.13313705716E+00  0.21145361467E-01 0.  0.
         14    1    1    2    0    0 -0.30473747062E-02 -0.17950353165E-01  0.15129023699E-01  0.23672537453E-01  0.00000000000E+00 0.  1.
     999901    1    3    3    0    0  0.49658607599E-01 -0.50121241245E-01  0.87203770075E-01  0.88712040538E+00  0.88000000000E+00 0. -1.
        -11    1    4    4    0    0 -0.31610718935E-01  0.27799142292E-01 -0.53702866743E-01  0.68237005218E-01  0.51100000000E-03 0.  1.
         11    1    4    4    0    0 -0.15000513958E-01  0.40272452118E-01 -0.48629927031E-01  0.64900051946E-01  0.51100000000E-03 0. -1.
</event>
<event>
 8    1  0.1112929E+005  0.1043930E+01  0.7957747E-01            NaN
         13   -1    0    0    0    0  0.00000000000E+00  0.00000000000E+00  0.74505805969E-08  0.10566000000E+00  0.10566000000E+00 0.  1.
     999900   -1    0    0    0    0 -0.00000000000E+00 -0.00000000000E+00 -0.74505805969E-08  0.93827000000E+00  0.93827000000E+00 0. -1.
     999902    2    1    2    0    0  0.32811780478E-02  0.12452051756E-01  0.19979498426E-01  0.10201602697E+01  0.10198833148E+01 0.  0.
     999903    2    3    3    0    0 -0.12594005812E+00 -0.20119764690E-01  0.11883616968E-01  0.13009027557E+00  0.22727874436E-01 0.  0.
         14    1    1    2    0    0 -0.32811780478E-02 -0.12452051756E-01 -0.19979498426E-01  0.23769730324E-01  0.00000000000E+00 0. -1.
     999901    1    3    3    0    0  0.12922123617E+00  0.32571816445E-01  0.80958814578E-02  0.89006999410E+00  0.88000000000E+00 0. -1.
        -11    1    4    4    0    0 -0.90092816794E-01 -0.22544632155E-01  0.14780271703E-01  0.94040914657E-01  0.51100000000E-03 0.  1.
         11    1    4    4    0    0 -0.35847241326E-01  0.24248674658E-02 -0.28966547351E-02  0.36049360918E-01  0.51100000000E-03 0. -1.
</event>
<event>
 8    1  0.1112929E+005  0.1043930E+01  0.7957747E-01            NaN
         13   -1    0    0    0    0  0.00000000000E+00  0.00000000000E+00  0.74505805969E-08  0.10566000000E+00  0.10566000000E+00 0.  1.
     999900   -1    0    0    0    0 -0.00000000000E+00 -0.00000000000E+00 -0.74505805969E-08  0.93827000000E+00  0.93827000000E+00 0.  1.
     999902    2    1    2    0    0  0.23060115038E-01 -0.56099127290E-02 -0.31074848108E-02  0.10199947438E+01  0.10197138721E+01 0.  0.
     999903    2    3    3    0    0  0.88606712470E-01 -0.87946436870E-01 -0.40967423343E-01  0.13291581014E+00  0.20063837031E-01 0.  0.
         14    1    1    2    0    0 -0.23060115038E-01  0.56099127290E-02  0.31074848108E-02  0.23935256177E-01  0.00000000000E+00 0.  1.
     999901    1    3    3    0    0 -0.65546597431E-01  0.82336524141E-01  0.37859938532E-01  0.88707893369E+00  0.88000000000E+00 0. -1.
        -11    1    4    4    0    0  0.25823900152E-01 -0.24476922896E-01 -0.24017049889E-02  0.35665429780E-01  0.51100000000E-03 0.  1.
         11    1    4    4    0    0  0.62782812318E-01 -0.63469513974E-01 -0.38565718354E-01  0.97250380358E-01  0.51100000000E-03 0. -1.
</event>
<event>
 8    1  0.1112929E+005  0.1043930E+01  0.7957747E-01            NaN
         13   -1    0    0    0    0  0.00000000000E+00  0.00000000000E+00  0.74505805969E-08  0.10566000000E+00  0.10566000000E+00 0. -1.
     999900   -1    0    0    0    0 -0.00000000000E+00 -0.00000000000E+00 -0.74505805969E-08  0.93827000000E+00  0.93827000000E+00 0. -1.
     999902    2    1    2    0    0 -0.78760039264E-02 -0.16037505755E-01 -0.17313295036E-01  0.10190506267E+01  0.10187468757E+01 0.  0.
     999903    2    3    3    0    0  0.62647728365E-01 -0.11035056547E+00  0.22020221683E-01  0.13033488164E+00  0.20007649574E-01 0.  0.
         14    1    1    2    0    0  0.78760039264E-02  0.16037505755E-01  0.17313295036E-01  0.24879373257E-01  0.00000000000E+00 0. -1.
     999901    1    3    3    0    0 -0.70523732291E-01  0.94313059714E-01 -0.39333516719E-01  0.88871574510E+00  0.88000000000E+00 0. -1.
        -11    1    4    4    0    0  0.34336470755E-01 -0.78842391326E-01  0.17197261151E-01  0.87699046779E-01  0.51100000000E-03 0.  1.
         11    1    4    4    0    0  0.28311257610E-01 -0.31508174144E-01  0.48229605315E-02  0.42635834865E-01  0.51100000000E-03 0. -1.
</event>
<event>
 8    1  0.1112929E+005  0.1043930E+01  0.7957747E-01            NaN
         13   -1    0    0    0    0  0.00000000000E+00  0.00000000000E+00  0.74505805969E-08  0.10566000000E+00  0.10566000000E+00 0.  1.
     999900   -1    0    0    0    0 -0.00000000000E+00 -0.00000000000E+00 -0.74505805969E-08  0.93827000000E+00  0.93827000000E+00 0. -1.
     999902    2    1    2    0    0 -0.45369569234E-02  0.14753248563E-01 -0.18002909376E-01  0.10202161419E+01  0.10199405027E+01 0.  0.
     999903    2    3    3    0    0 -0.61327737134E-01  0.85660669439E-01  0.75209272095E-01  0.13064233053E+00  0.17667548970E-01 0.  0.
         14    1    1    2    0    0  0.45369569234E-02 -0.14753248563E-01  0.18002909376E-01  0.23713858127E-01  0.00000000000E+00 0.  1.
     999901    1    3    3    0    0  0.56790780211E-01 -0.70907420876E-01 -0.93212181471E-01  0.88957381134E+00  0.88000000000E+00 0. -1.
        -11    1    4    4    0    0 -0.32294917221E-01  0.58144710905E-01  0.42130689772E-01  0.78733888677E-01  0.51100000000E-03 0.  1.
         11    1    4    4    0    0 -0.29032819912E-01  0.27515958534E-01  0.33078582323E-01  0.51908441853E-01  0.51100000000E-03 0. -1.
</event>
<event>
 8    1  0.1112929E+005  0.1043930E+01  0.7957747E-01            NaN
         13   -1    0    0    0    0  0.00000000000E+00  0.00000000000E+00  0.74505805969E-08  0.10566000000E+00  0.10566000000E+00 0.  1.
     999900   -1    0    0    0    0 -0.00000000000E+00 -0.00000000000E+00 -0.74505805969E-08  0.93827000000E+00  0.93827000000E+00 0. -1.
     999902    2    1    2    0    0 -0.13641147506E-01  0.10163542729E-01  0.15039228691E-01  0.10212241218E+01  0.10209716695E+01 0.  0.
     999903    2    3    3    0    0 -0.12135920234E+00 -0.41156474409E-01 -0.25737409954E-01  0.13223612537E+00  0.20051613539E-01 0.  0.
         14    1    1    2    0    0  0.13641147506E-01 -0.10163542729E-01 -0.15039228691E-01  0.22705878219E-01  0.00000000000E+00 0. -1.
     999901    1    3    3    0    0  0.10771805483E+00  0.51320017139E-01  0.40776638645E-01  0.88898799641E+00  0.88000000000E+00 0. -1.
        -11    1    4    4    0    0 -0.44190279517E-01 -0.54897263912E-02 -0.11977846180E-01  0.46115591937E-01  0.51100000000E-03 0. -1.
         11    1    4    4    0    0 -0.77168922819E-01 -0.35666748018E-01 -0.13759563774E-01  0.86120533437E-01  0.51100000000E-03 0.  1.
</event>
<event>
 8    1  0.1112929E+005  0.1043930E+01  0.7957747E-01            NaN
         13   -1    0    0    0    0  0.00000000000E+00  0.00000000000E+00  0.74505805969E-08  0.10566000000E+00  0.10566000000E+00 0.  1.
     999900   -1    0    0    0    0 -0.00000000000E+00 -0.00000000000E+00 -0.74505805969E-08  0.93827000000E+00  0.93827000000E+00 0.  1.
     999902    2    1    2    0    0  0.84915119063E-02 -0.11139319118E-01 -0.19849548169E-01  0.10196360755E+01  0.10193466200E+01 0.  0.
     999903    2    3    3    0    0 -0.48488434594E-01 -0.37422462257E-01 -0.11542462051E+00  0.13223982108E+00  0.20321375153E-01 0.  0.
         14    1    1    2    0    0 -0.84915119063E-02  0.11139319118E-01  0.19849548169E-01  0.24293924496E-01  0.00000000000E+00 0.  1.
     999901    1    3    3    0    0  0.56979946501E-01  0.26283143139E-01  0.95575072340E-01  0.88739625443E+00  0.88000000000E+00 0. -1.
        -11    1    4    4    0    0 -0.14182896855E-01 -0.21279114849E-01 -0.58447475171E-01  0.63799089075E-01  0.51100000000E-03 0. -1.
         11    1    4    4    0    0 -0.34305537739E-01 -0.16143347408E-01 -0.56977145339E-01  0.68440732003E-01  0.51100000000E-03 0.  1.
</event>
<event>
 8    1  0.1112929E+005  0.1043930E+01  0.7957747E-01            NaN
         13   -1    0    0    0    0  0.00000000000E+00  0.00000000000E+00  0.74505805969E-08  0.10566000000E+00  0.10566000000E+00 0.  1.
     999900   -1    0    0    0    0 -0.00000000000E+00 -0.00000000000E+00 -0.74505805969E-08  0.93827000000E+00  0.93827000000E+00 0. -1.
     999902    2    1    2    0    0 -0.24638283063E-01 -0.68988651819E-02 -0.16905690881E-01  0.10132633778E+01  0.10127992057E+01 0.  0.
     999903    2    3    3    0    0 -0.23189786994E-02  0.95566190642E-01 -0.77798281226E-01  0.12494747308E+00  0.20518869657E-01 0.  0.
         14    1    1    2    0    0  0.24638283063E-01  0.68988651819E-02  0.16905690881E-01  0.30666622201E-01  0.00000000000E+00 0.  1.
     999901    1    3    3    0    0 -0.22319304364E-01 -0.10246505582E+00  0.60892590345E-01  0.88831590472E+00  0.88000000000E+00 0.  1.
        -11    1    4    4    0    0 -0.26238648951E-02  0.73397851683E-02 -0.81310523040E-03  0.78536217391E-02  0.51100000000E-03 0. -1.
         11    1    4    4    0    0  0.30488619564E-03  0.88226405474E-01 -0.76985175995E-01  0.11709385134E+00  0.51100000000E-03 0.  1.
</event>
<event>
 8    1  0.1112929E+005  0.1043930E+01  0.7957747E-01            NaN
         13   -1    0    0    0    0  0.00000000000E+00  0.00000000000E+00  0.74505805969E-08  0.10566000000E+00  0.10566000000E+00 0.  1.
     999900   -1    0    0    0    0 -0.00000000000E+00 -0.00000000000E+00 -0.74505805969E-08  0.93827000000E+00  0.93827000000E+00 0.  1.
     999902    2    1    2    0    0  0.43770913108E-02  0.20905948069E-01  0.60728062582E-02  0.10217242222E+01  0.10214828876E+01 0.  0.
     999903    2    3    3    0    0 -0.24804697373E-01 -0.25211229185E-01 -0.12490545706E+00  0.13035803688E+00  0.11872888771E-01 0.  0.
         14    1    1    2    0    0 -0.43770913108E-02 -0.20905948069E-01 -0.60728062582E-02  0.22205777826E-01  0.00000000000E+00 0. -1.
     999901    1    3    3    0    0  0.29181788684E-01  0.46117177254E-01  0.13097826331E+00  0.89136618530E+00  0.88000000000E+00 0. -1.
        -11    1    4    4    0    0 -0.15599997967E-01 -0.19063161875E-01 -0.10171204386E+00  0.10465354778E+00  0.51100000000E-03 0. -1.
         11    1    4    4    0    0 -0.92046994062E-02 -0.61480673102E-02 -0.23193413200E-01  0.25704489096E-01  0.51100000000E-03 0.  1.
</event>
<event>
 8    1  0.1112929E+005  0.1043930E+01  0.7957747E-01            NaN
         13   -1    0    0    0    0  0.00000000000E+00  0.00000000000E+00  0.74505805969E-08  0.10566000000E+00  0.10566000000E+00 0. -1.
     999900   -1    0    0    0    0 -0.00000000000E+00 -0.00000000000E+00 -0.74505805969E-08  0.93827000000E+00  0.93827000000E+00 0.  1.
     999902    2    1    2    0    0 -0.14160863585E-01 -0.33148262700E-02 -0.18029903783E-01  0.10207654676E+01  0.10205025940E+01 0.  0.
     999903    2    3    3    0    0  0.10682822307E+00  0.18339283379E-01 -0.68579175552E-01  0.13078654177E+00  0.25562034920E-01 0.  0.
         14    1    1    2    0    0  0.14160863585E-01  0.33148262700E-02  0.18029903783E-01  0.23164532395E-01  0.00000000000E+00 0. -1.
     999901    1    3    3    0    0 -0.12098908666E+00 -0.21654109649E-01  0.50549271770E-01  0.88997892584E+00  0.88000000000E+00 0. -1.
        -11    1    4    4    0    0  0.85742761788E-01  0.10106200345E-01 -0.64523690794E-01  0.10778461986E+00  0.51100000000E-03 0. -1.
         11    1    4    4    0    0  0.21085461282E-01  0.82330830341E-02 -0.40554847587E-02  0.23001921905E-01  0.51100000000E-03 0.  1.
</event>
<event>
 8    1  0.1112929E+005  0.1043930E+01  0.7957747E-01            NaN
         13   -1    0    0    0    0  0.00000000000E+00  0.00000000000E+00  0.74505805969E-08  0.10566000000E+00  0.10566000000E+00 0.  1.
     999900   -1    0    0    0    0 -0.00000000000E+00 -0.00000000000E+00 -0.74505805969E-08  0.93827000000E+00  0.93827000000E+00 0.  1.
     999902    2    1    2    0    0  0.20382499708E-01  0.22568501982E-01  0.30851707151E-02  0.10133636483E+01  0.10129025530E+01 0.  0.
     999903    2    3    3    0    0 -0.90940280001E-01 -0.74998501418E-01  0.17234078223E-01  0.12088828563E+00  0.20543962860E-01 0.  0.
         14    1    1    2    0    0 -0.20382499708E-01 -0.22568501982E-01 -0.30851707151E-02  0.30566351670E-01  0.00000000000E+00 0. -1.
     999901    1    3    3    0    0  0.11132277971E+00  0.97567003400E-01 -0.14148907508E-01  0.89247536270E+00  0.88000000000E+00 0. -1.
        -11    1    4    4    0    0 -0.32819389258E-01 -0.38772965707E-01  0.12012264553E-01  0.52201636006E-01  0.51100000000E-03 0. -1.
         11    1    4    4    0    0 -0.58120890742E-01 -0.36225535710E-01  0.52218136695E-02  0.68686649629E-01  0.51100000000E-03 0.  1.
</event>
<event>
 8    1  0.1112929E+005  0.1043930E+01  0.7957747E-01            NaN
         13   -1    0    0    0    0  0.00000000000E+00  0.00000000000E+00  0.74505805969E-08  0.10566000000E+00  0.10566000000E+00 0.  1.
     999900   -1    0    0    0    0 -0.00000000000E+00 -0.00000000000E+00 -0.74505805969E-08  0.93827000000E+00  0.93827000000E+00 0.  1.
     999902    2    1    2    0    0  0.12821505913E-01 -0.19957380955E-01  0.78260980326E-02  0.10189512915E+01  0.10186450798E+01 0.  0.
     999903    2    3    3    0    0 -0.87802917911E-01 -0.49050833456E-01  0.79430615779E-01  0.12985123491E+00  0.20899373868E-01 0.  0.
         14    1    1    2    0    0 -0.12821505913E-01  0.19957380955E-01 -0.78260980326E-02  0.24978708511E-01  0.00000000000E+00 0. -1.
     999901    1    3    3    0    0  0.10062442382E+00  0.29093452501E-01 -0.71604517746E-01  0.88910005658E+00  0.88000000000E+00 0.  1.
        -11    1    4    4    0    0 -0.30568367381E-01 -0.65324767409E-02  0.27590530575E-01  0.41696484685E-01  0.51100000000E-03 0.  1.
         11    1    4    4    0    0 -0.57234550530E-01 -0.42518356715E-01  0.51840085204E-01  0.88154750225E-01  0.51100000000E-03 0. -1.
</event>
<event>
 8    1  0.1112929E+005  0.1043930E+01  0.7957747E-01            NaN
         13   -1    0    0    0    0  0.00000000000E+00  0.00000000000E+00  0.74505805969E-08  0.10566000000E+00  0.10566000000E+00 0. -1.
     999900   -1    0    0    0    0 -0.00000000000E+00 -0.00000000000E+00 -0.74505805969E-08  0.93827000000E+00  0.93827000000E+00 0.  1.
     999902    2    1    2    0    0 -0.20544047324E-01  0.52798335433E-02  0.79645432900E-02  0.10212723639E+01  0.10210209953E+01 0.  0.
     999903    2    3    3    0    0  0.38519984817E-01 -0.12261799293E+00 -0.46048413429E-02  0.12997869552E+00  0.18822733697E-01 0.  0.
         14    1    1    2    0    0  0.20544047324E-01 -0.52798335433E-02 -0.79645432900E-02  0.22657636075E-01  0.00000000000E+00 0.  1.
     999901    1    3    3    0    0 -0.59064032141E-01  0.12789782648E+00  0.12569384633E-01  0.89129366841E+00  0.88000000000E+00 0.  1.
        -11    1    4    4    0    0  0.29485820720E-01 -0.81612068440E-01 -0.11111196343E-01  0.87485216716E-01  0.51100000000E-03 0. -1.
         11    1    4    4    0    0  0.90341640975E-02 -0.41005924493E-01  0.65063549997E-02  0.42493478803E-01  0.51100000000E-03 0.  1.
</event>
<event>
 8    1  0.1112929E+005  0.1043930E+01  0.7957747E-01            NaN
         13   -1    0    0    0    0  0.00000000000E+00  0.00000000000E+00  0.74505805969E-08  0.10566000000E+00  0.10566000000E+00 0. -1.
     999900   -1    0    0    0    0 -0.00000000000E+00 -0.00000000000E+00 -0.74505805969E-08  0.93827000000E+00  0.93827000000E+00 0. -1.
     999902    2    1    2    0    0  0.19379389410E-01  0.12690544483E-01  0.58933586174E-02  0.10200272318E+01  0.10197471310E+01 0.  0.
     999903    2    3    3    0    0  0.25184583006E-01  0.99862397092E-01  0.80789290212E-01  0.13253524154E+00  0.20782667355E-01 0.  0.
         14    1    1    2    0    0 -0.19379389410E-01 -0.12690544483E-01 -0.58933586174E-02  0.23902768228E-01  0.00000000000E+00 0.  1.
     999901    1    3    3    0    0 -0.58051935964E-02 -0.87171852610E-01 -0.74895931594E-01  0.88749199023E+00  0.88000000000E+00 0. -1.
        -11    1    4    4    0    0  0.88787499984E-02  0.29375807679E-01  0.12806842034E-01  0.33257278936E-01  0.51100000000E-03 0. -1.
         11    1    4    4    0    0  0.16305833008E-01  0.70486589413E-01  0.67982448178E-01  0.99277962602E-01  0.51100000000E-03 0.  1.
</event>
<event>
 8    1  0.1112929E+005  0.1043930E+01  0.7957747E-01            NaN
         13   -1    0    0    0    0  0.00000000000E+00  0.00000000000E+00  0.74505805969E-08  0.10566000000E+00  0.10566000000E+00 0. -1.
     999900   -1    0    0    0    0 -0.00000000000E+00 -0.00000000000E+00 -0.74505805969E-08  0.93827000000E+00  0.93827000000E+00 0. -1.
     999902    2    1    2    0    0 -0.11365863045E-01 -0.12335062275E-01  0.14559449232E-01  0.10217193232E+01  0.10214778809E+01 0.  0.
     999903    2    3    3    0    0 -0.95602778260E-01  0.58288507784E-01 -0.64496978716E-01  0.13136351488E+00  0.23644691293E-01 0.  0.
         14    1    1    2    0    0  0.11365863045E-01  0.12335062275E-01 -0.14559449232E-01  0.22210676848E-01  0.00000000000E+00 0. -1.
     999901    1    3    3    0    0  0.84236915214E-01 -0.70623570059E-01  0.79056427948E-01  0.89035580828E+00  0.88000000000E+00 0.  1.
        -11    1    4    4    0    0 -0.16458552656E-01  0.20849042919E-01 -0.19251642194E-01  0.32809349191E-01  0.51100000000E-03 0. -1.
         11    1    4    4    0    0 -0.79144225604E-01  0.37439464865E-01 -0.45245336522E-01  0.98554165685E-01  0.51100000000E-03 0.  1.
</event>
<event>
 8    1  0.1112929E+005  0.1043930E+01  0.7957747E-01            NaN
         13   -1    0    0    0    0  0.00000000000E+00  0.00000000000E+00  0.74505805969E-08  0.10566000000E+00  0.10566000000E+00 0.  1.
     999900   -1    0    0    0    0 -0.00000000000E+00 -0.00000000000E+00 -0.74505805969E-08  0.93827000000E+00  0.93827000000E+00 0. -1.
     999902    2    1    2    0    0  0.30136402793E-02 -0.29835496464E-01  0.11842239046E-01  0.10116890710E+01  0.10111752068E+01 0.  0.
     999903    2    3    3    0    0 -0.10133706141E+00 -0.65402922191E-01 -0.18727745260E-01  0.12428350721E+00  0.23429030598E-01 0.  0.
         14    1    1    2    0    0 -0.30136402793E-02  0.29835496464E-01 -0.11842239046E-01  0.32240928998E-01  0.00000000000E+00 0. -1.
     999901    1    3    3    0    0  0.10435070169E+00  0.35567425727E-01  0.30569984307E-01  0.88740556380E+00  0.88000000000E+00 0. -1.
        -11    1    4    4    0    0 -0.41957483743E-01 -0.40820785813E-01 -0.10781184418E-01  0.59525306005E-01  0.51100000000E-03 0.  1.
         11    1    4    4    0    0 -0.59379577666E-01 -0.24582136378E-01 -0.79465608425E-02  0.64758201202E-01  0.51100000000E-03 0. -1.
</event>
<event>
 8    1  0.1112929E+005  0.1043930E+01  0.7957747E-01            NaN
         13   -1    0    0    0    0  0.00000000000E+00  0.00000000000E+00  0.74505805969E-08  0.10566000000E+00  0.10566000000E+00 0.  1.
     999900   -1    0    0    0    0 -0.00000000000E+00 -0.00000000000E+00 -0.74505805969E-08  0.93827000000E+00  0.93827000000E+00 0.  1.
     999902    2    1    2    0    0  0.93080044345E-02 -0.21088828284E-01 -0.28193069355E-02  0.10207066041E+01  0.10204423774E+01 0.  0.
     999903    2    3    3    0    0  0.67858981742E-01 -0.10523122994E+00 -0.43073096051E-01  0.13384216789E+00  0.19493105016E-01 0.  0.
         14    1    1    2    0    0 -0.93080044345E-02  0.21088828284E-01  0.28193069355E-02  0.23223395887E-01  0.00000000000E+00 0. -1.
     999901    1    3    3    0    0 -0.58550977307E-01  0.84142401660E-01  0.40253789116E-01  0.88686443622E+00  0.88000000000E+00 0.  1.
        -11    1    4    4    0    0  0.80715909003E-02 -0.15120699296E-01 -0.13228943388E-01  0.21657612773E-01  0.51100000000E-03 0. -1.
         11    1    4    4    0    0  0.59787390842E-01 -0.90110530648E-01 -0.29844152663E-01  0.11218455512E+00  0.51100000000E-03 0.  1.
</event>
<event>
 8    1  0.1112929E+005  0.1043930E+01  0.7957747E-01            NaN
         13   -1    0    0    0    0  0.00000000000E+00  0.00000000000E+00  0.74505805969E-08  0.10566000000E+00  0.10566000000E+00 0.  1.
     999900   -1    0    0    0    0 -0.00000000000E+00 -0.00000000000E+00 -0.74505805969E-08  0.93827000000E+00  0.93827000000E+00 0. -1.
     999902    2    1    2    0    0 -0.24864817113E-02  0.22728578313E-01 -0.31544482040E-04  0.10210657953E+01  0.10208097699E+01 0.  0.
     999903    2    3    3    0    0  0.91641648574E-01  0.93700132358E-01  0.42803011966E-02  0.13319437528E+00  0.23334825296E-01 0.  0.
         14    1    1    2    0    0  0.24864817113E-02 -0.22728578313E-01  0.31544482040E-04  0.22864204742E-01  0.00000000000E+00 0.  1.
     999901    1    3    3    0    0 -0.94128130285E-01 -0.70971554045E-01 -0.43118456787E-02  0.88787141997E+00  0.88000000000E+00 0.  1.
        -11    1    4    4    0    0  0.63848015423E-01  0.74974038659E-01  0.10733898283E-01  0.99061360982E-01  0.51100000000E-03 0.  1.
         11    1    4    4    0    0  0.27793633151E-01  0.18726093699E-01 -0.64535970861E-02  0.34133014301E-01  0.51100000000E-03 0. -1.
</event>
<event>
 8    1  0.1112929E+005  0.1043930E+01  0.7957747E-01            NaN
         13   -1    0    0    0    0  0.00000000000E+00  0.00000000000E+00  0.74505805969E-08  0.10566000000E+00  0.10566000000E+00 0.  1.
     999900   -1    0    0    0    0 -0.00000000000E+00 -0.00000000000E+00 -0.74505805969E-08  0.93827000000E+00  0.93827000000E+00 0.  1.
     999902    2    1    2    0    0  0.14201751263E-01  0.17346688622E-01  0.81905200901E-02  0.10200619887E+01  0.10197827116E+01 0.  0.
     999903    2    3    3    0    0 -0.11323058614E+00  0.36723190774E-01 -0.45733391057E-01  0.12903884776E+00  0.19741398049E-01 0.  0.
         14    1    1    2    0    0 -0.14201751263E-01 -0.17346688622E-01 -0.81905200901E-02  0.23868011322E-01  0.00000000000E+00 0. -1.
     999901    1    3    3    0    0  0.12743233740E+00 -0.19376502151E-01  0.53923911147E-01  0.89102314091E+00  0.88000000000E+00 0.  1.
        -11    1    4    4    0    0 -0.13579358532E-01  0.72950688560E-03  0.69901746667E-04  0.13608716533E-01  0.51100000000E-03 0.  1.
         11    1    4    4    0    0 -0.99651227607E-01  0.35993683888E-01 -0.45803292803E-01  0.11543013123E+00  0.51100000000E-03 0. -1.
</event>
<event>
 8    1  0.1112929E+005  0.1043930E+01  0.7957747E-01            NaN
         13   -1    0    0    0    0  0.00000000000E+00  0.00000000000E+00  0.74505805969E-08  0.10566000000E+00  0.10566000000E+00 0. -1.
     999900   -1    0    0    0    0 -0.00000000000E+00 -0.00000000000E+00 -0.74505805969E-08  0.93827000000E+00  0.93827000000E+00 0.  1.
     999902    2    1    2    0    0  0.22779680929E-02 -0.23108538575E-01  0.23928894446E-02  0.10205864867E+01  0.10203194878E+01 0.  0.
     999903    2    3    3    0    0 -0.30680281293E-01  0.11233017565E+00  0.49930563087E-01  0.12834788524E+00  0.20512691035E-01 0.  0.
         14    1    1    2    0    0 -0.22779680929E-02  0.23108538575E-01 -0.23928894446E-02  0.23343513309E-01  0.00000000000E+00 0.  1.
     999901    1    3    3    0    0  0.32958249386E-01 -0.13543871422E+00 -0.47537673642E-01  0.89223860146E+00  0.88000000000E+00 0.  1.
        -11    1    4    4    0    0 -0.15955340545E-01  0.30384483162E-01  0.20830735186E-01  0.40149350659E-01  0.51100000000E-03 0.  1.
         11    1    4    4    0    0 -0.14724940748E-01  0.81945692484E-01  0.29099827900E-01  0.88198534577E-01  0.51100000000E-03 0. -1.
</event>
<event>
 8    1  0.1112929E+005  0.1043930E+01  0.7957747E-01            NaN
         13   -1    0    0    0    0  0.00000000000E+00  0.00000000000E+00  0.74505805969E-08  0.10566000000E+00  0.10566000000E+00 0.  1.
     999900   -1    0    0    0    0 -0.00000000000E+00 -0.00000000000E+00 -0.74505805969E-08  0.93827000000E+00  0.93827000000E+00 0.  1.
     999902    2    1    2    0    0 -0.15454139389E-01 -0.15027317327E-01 -0.10764576179E-01  0.10198358764E+01  0.10195512189E+01 0.  0.
     999903    2    3    3    0    0 -0.93289654596E-02 -0.26922016745E-01 -0.12740047738E+00  0.13203920203E+00  0.19790013964E-01 0.  0.
         14    1    1    2    0    0  0.15454139389E-01  0.15027317327E-01  0.10764576179E-01  0.24094123570E-01  0.00000000000E+00 0. -1.
     999901    1    3    3    0    0 -0.61251739295E-02  0.11894699418E-01  0.11663590120E+00  0.88779667440E+00  0.88000000000E+00 0. -1.
        -11    1    4    4    0    0 -0.11013127134E-01 -0.25960654525E-01 -0.84321264891E-01  0.88913336381E-01  0.51100000000E-03 0. -1.
         11    1    4    4    0    0  0.16841616747E-02 -0.96136221990E-03 -0.43079212492E-01  0.43125865646E-01  0.51100000000E-03 0.  1.
</event>
<event>
 8    1  0.1112929E+005  0.1043930E+01  0.7957747E-01            NaN
         13   -1    0    0    0    0  0.00000000000E+00  0.00000000000E+00  0.74505805969E-08  0.10566000000E+00  0.10566000000E+00 0.  1.
     999900   -1    0    0    0    0 -0.00000000000E+00 -0.00000000000E+00 -0.74505805969E-08  0.93827000000E+00  0.93827000000E+00 0. -1.
     999902    2    1    2    0    0 -0.13298935051E-01  0.10217425431E-01 -0.18374100559E-01  0.10190530020E+01  0.10187493097E+01 0.  0.
     999903    2    3    3    0    0 -0.51336691690E-01 -0.79158555644E-01  0.83315793839E-01  0.12788760127E+00  0.22631487113E-01 0.  0.
         14    1    1    2    0    0  0.13298935051E-01 -0.10217425431E-01  0.18374100559E-01  0.24876997955E-01  0.00000000000E+00 0.  1.
     999901    1    3    3    0    0  0.38037756640E-01  0.89375981075E-01 -0.10168989440E+00  0.89116540078E+00  0.88000000000E+00 0. -1.
        -11    1    4    4    0    0 -0.45385269295E-01 -0.72275843867E-01  0.64487402142E-01  0.10696965192E+00  0.51100000000E-03 0.  1.
         11    1    4    4    0    0 -0.59514223949E-02 -0.68827117770E-02  0.18828391698E-01  0.20917949346E-01  0.51100000000E-03 0. -1.
</event>
<event>
 8    1  0.1112929E+005  0.1043930E+01  0.7957747E-01            NaN
         13   -1    0    0    0    0  0.00000000000E+00  0.00000000000E+00  0.74505805969E-08  0.10566000000E+00  0.10566000000E+00 0. -1.
     999900   -1    0    0    0    0 -0.00000000000E+00 -0.00000000000E+00 -0.74505805969E-08  0.93827000000E+00  0.93827000000E+00 0. -1.
     999902    2    1    2    0    0 -0.14953220207E-01 -0.79559419011E-02  0.17230267947E-01  0.10197685030E+01  0.10194822322E+01 0.  0.
     999903    2    3    3    0    0 -0.60478142343E-01 -0.30049245471E-02 -0.11203010258E+00  0.12914777868E+00  0.21488824586E-01 0.  0.
         14    1    1    2    0    0  0.14953220207E-01  0.79559419011E-02 -0.17230267947E-01  0.24161497049E-01  0.00000000000E+00 0.  1.
     999901    1    3    3    0    0  0.45524922136E-01 -0.49510173539E-02  0.12926037053E+00  0.89062072427E+00  0.88000000000E+00 0.  1.
        -11    1    4    4    0    0 -0.47925179025E-01 -0.10861758846E-01 -0.80609597406E-01  0.94408521357E-01  0.51100000000E-03 0.  1.
         11    1    4    4    0    0 -0.12552963318E-01  0.78568342986E-02 -0.31420505172E-01  0.34739257326E-01  0.51100000000E-03 0. -1.
</event>
<event>
 8    1  0.1112929E+005  0.1043930E+01  0.7957747E-01            NaN
         13   -1    0    0    0    0  0.00000000000E+00  0.00000000000E+00  0.74505805969E-08  0.10566000000E+00  0.10566000000E+00 0. -1.
     999900   -1    0    0    0    0 -0.00000000000E+00 -0.00000000000E+00 -0.74505805969E-08  0.93827000000E+00  0.93827000000E+00 0. -1.
     999902    2    1    2    0    0  0.85696213762E-03 -0.22431276148E-01 -0.25260092810E-02  0.10213406827E+01  0.10210908446E+01 0.  0.
     999903    2    3    3    0    0  0.12015430023E+00 -0.49683156842E-01  0.16511389553E-01  0.13266923472E+00  0.20567642514E-01 0.  0.
         14    1    1    2    0    0 -0.85696213762E-03  0.22431276148E-01  0.25260092810E-02  0.22589317312E-01  0.00000000000E+00 0. -1.
     999901    1    3    3    0    0 -0.11929733809E+00  0.27251880693E-01 -0.19037398834E-01  0.88867144797E+00  0.88000000000E+00 0. -1.
        -11    1    4    4    0    0  0.94588799914E-01 -0.36734784192E-01  0.44433089365E-02  0.10157012136E+00  0.51100000000E-03 0. -1.
         11    1    4    4    0    0  0.25565500317E-01 -0.12948372650E-01  0.12068080616E-01  0.31099113356E-01  0.51100000000E-03 0.  1.
</event>
<event>
 8    1  0.1112929E+005  0.1043930E+01  0.7957747E-01            NaN
         13   -1    0    0    0    0  0.00000000000E+00  0.00000000000E+00  0.74505805969E-08  0.10566000000E+00  0.10566000000E+00 0.  1.
     999900   -1    0    0    0    0 -0.00000000000E+00 -0.00000000000E+00 -0.74505805969E-08  0.93827000000E+00  0.93827000000E+00 0.  1.
     999902    2    1    2    0    0 -0.12237866262E-02  0.21370640451E-01  0.90710143717E-02  0.10206816618E+01  0.10204168607E+01 0.  0.
     999903    2    3    3    0    0 -0.56291593136E-01  0.15177675651E-01  0.11705977572E+00  0.13235042364E+00  0.20360212416E-01 0.  0.
         14    1    1    2    0    0  0.12237866262E-02 -0.21370640451E-01 -0.90710143717E-02  0.23248338193E-01  0.00000000000E+00 0. -1.
     999901    1    3    3    0    0  0.55067806509E-01  0.61929648000E-02 -0.10798876135E+00  0.88833123817E+00  0.88000000000E+00 0.  1.
        -11    1    4    4    0    0 -0.13767022046E-01  0.46799438972E-02  0.51403197975E-01  0.53422679210E-01  0.51100000000E-03 0.  1.
         11    1    4    4    0    0 -0.42524571090E-01  0.10497731754E-01  0.65656577746E-01  0.78927744430E-01  0.51100000000E-03 0. -1.
</event>
<event>
 8    1  0.1112929E+005  0.1043930E+01  0.7957747E-01            NaN
         13   -1    0    0    0    0  0.00000000000E+00  0.00000000000E+00  0.74505805969E-08  0.10566000000E+00  0.10566000000E+00 0. -1.
     999900   -1    0    0    0    0 -0.00000000000E+00 -0.00000000000E+00 -0.74505805969E-08  0.93827000000E+00  0.93827000000E+00 0. -1.
     999902    2    1    2    0    0 -0.65898933613E-02 -0.23311504034E-01  0.20885977144E-02  0.10196150837E+01  0.10193251217E+01 0.  0.
     999903    2    3    3    0    0  0.10257817722E+00 -0.56232937707E-01  0.54809583170E-01  0.13069383254E+00  0.19808122887E-01 0.  0.
         14    1    1    2    0    0  0.65898933613E-02  0.23311504034E-01 -0.20885977144E-02  0.24314916312E-01  0.00000000000E+00 0. -1.
     999901    1    3    3    0    0 -0.10916807058E+00  0.32921433672E-01 -0.52720985455E-01  0.88892125115E+00  0.88000000000E+00 0. -1.
        -11    1    4    4    0    0  0.68020954151E-01 -0.41984639979E-01  0.46219708336E-01  0.92336789837E-01  0.51100000000E-03 0. -1.
         11    1    4    4    0    0  0.34557223070E-01 -0.14248297728E-01  0.85898748340E-02  0.38357042706E-01  0.51100000000E-03 0.  1.
</event>
<event>
 8    1  0.1112929E+005  0.1043930E+01  0.7957747E-01            NaN
         13   -1    0    0    0    0  0.00000000000E+00  0.00000000000E+00  0.74505805969E-08  0.10566000000E+00  0.10566000000E+00 0. -1.
     999900   -1    0    0    0    0 -0.00000000000E+00 -0.00000000000E+00 -0.74505805969E-08  0.93827000000E+00  0.93827000000E+00 0. -1.
     999902    2    1    2    0    0  0.24505148083E-01 -0.67454034903E-02 -0.33405560918E-02  0.10182948276E+01  0.10179720987E+01 0.  0.
     999903    2    3    3    0    0  0.11866398538E+00 -0.30403004956E-01  0.44013597162E-01  0.13169007652E+00  0.19989881990E-01 0.  0.
         14    1    1    2    0    0 -0.24505148083E-01  0.67454034903E-02  0.33405560918E-02  0.25635172436E-01  0.00000000000E+00 0.  1.
     999901    1    3    3    0    0 -0.94158837294E-01  0.23657601465E-01 -0.47354153254E-01  0.88660475105E+00  0.88000000000E+00 0.  1.
        -11    1    4    4    0    0  0.72420637209E-01 -0.86641832569E-02  0.23584649924E-01  0.76657117075E-01  0.51100000000E-03 0.  1.
         11    1    4    4    0    0  0.46243348169E-01 -0.21738821699E-01  0.20428947238E-01  0.55032959442E-01  0.51100000000E-03 0. -1.
</event>
<event>
 8    1  0.1112929E+005  0.1043930E+01  0.7957747E-01            NaN
         13   -1    0    0    0    0  0.00000000000E+00  0.00000000000E+00  0.74505805969E-08  0.10566000000E+00  0.10566000000E+00 0.  1.
     999900   -1    0    0    0    0 -0.00000000000E+00 -0.00000000000E+00 -0.74505805969E-08  0.93827000000E+00  0.93827000000E+00 0.  1.
     999902    2    1    2    0    0  0.13442840550E-01  0.72185751071E-02 -0.18920890294E-01  0.10196232545E+01  0.10193334897E+01 0.  0.
     999903    2    3    3    0    0 -0.31372957305E-01 -0.10885017848E+00  0.55964996739E-01  0.12772174232E+00  0.18658477900E-01 0.  0.
         14    1    1    2    0    0 -0.13442840550E-01 -0.72185751071E-02  0.18920890294E-01  0.24306745528E-01  0.00000000000E+00 0.  1.
     999901    1    3    3    0    0  0.44815797856E-01  0.11606875358E+00 -0.74885887033E-01  0.89190151215E+00  0.88000000000E+00 0.  1.
        -11    1    4    4    0    0 -0.58728393036E-02 -0.71779783960E-02  0.87344159281E-02  0.12750088547E-01  0.51100000000E-03 0. -1.
         11    1    4    4    0    0 -0.25500118002E-01 -0.10167220008E+00  0.47230580811E-01  0.11497165378E+00  0.51100000000E-03 0.  1.
</event>
<event>
 8    1  0.1112929E+005  0.1043930E+01  0.7957747E-01            NaN
         13   -1    0    0    0    0  0.00000000000E+00  0.00000000000E+00  0.74505805969E-08  0.10566000000E+00  0.10566000000E+00 0. -1.
     999900   -1    0    0    0    0 -0.00000000000E+00 -0.00000000000E+00 -0.74505805969E-08  0.93827000000E+00  0.93827000000E+00 0.  1.
     999902    2    1    2    0    0 -0.13755788992E-01  0.19793397247E-01  0.35887616607E-03  0.10198233806E+01  0.10195384243E+01 0.  0.
     999903    2    3    3    0    0  0.82766034436E-01 -0.54445115084E-01 -0.78663003857E-01  0.12793085536E+00  0.19077436003E-01 0.  0.
         14    1    1    2    0    0  0.13755788992E-01 -0.19793397247E-01 -0.35887616607E-03  0.24106619370E-01  0.00000000000E+00 0.  1.
     999901    1    3    3    0    0 -0.96521823428E-01  0.74238512330E-01  0.79021880023E-01  0.89189252527E+00  0.88000000000E+00 0. -1.
        -11    1    4    4    0    0  0.31541386182E-01 -0.11844217464E-01 -0.32961960005E-01  0.47136996701E-01  0.51100000000E-03 0.  1.
         11    1    4    4    0    0  0.51224648254E-01 -0.42600897620E-01 -0.45701043852E-01  0.80793858658E-01  0.51100000000E-03 0. -1.
</event>
<event>
 8    1  0.1112929E+005  0.1043930E+01  0.7957747E-01            NaN
         13   -1    0    0    0    0  0.00000000000E+00  0.00000000000E+00  0.74505805969E-08  0.10566000000E+00  0.10566000000E+00 0. -1.
     999900   -1    0    0    0    0 -0.00000000000E+00 -0.00000000000E+00 -0.74505805969E-08  0.93827000000E+00  0.93827000000E+00 0. -1.
     999902    2    1    2    0    0 -0.17515729136E-01 -0.22332701438E-02  0.13827524055E-01  0.10215025908E+01  0.10212563607E+01 0.  0.
     999903    2    3    3    0    0  0.92799381013E-01  0.88534634638E-01  0.28863775132E-02  0.12991527327E+00  0.20482685522E-01 0.  0.
         14    1    1    2    0    0  0.17515729136E-01  0.22332701438E-02 -0.13827524055E-01  0.22427409218E-01  0.00000000000E+00 0.  1.
     999901    1    3    3    0    0 -0.11031511015E+00 -0.90767904782E-01  0.10941146542E-01  0.89158731751E+00  0.88000000000E+00 0. -1.
        -11    1    4    4    0    0  0.25986036833E-01  0.35977499140E-01  0.63501284304E-02  0.44835697906E-01  0.51100000000E-03 0.  1.
         11    1    4    4    0    0  0.66813344180E-01  0.52557135498E-01 -0.34637509172E-02  0.85079575362E-01  0.51100000000E-03 0. -1.
</event>
<event>
 8    1  0.1112929E+005  0.1043930E+01  0.7957747E-01            NaN
         13   -1    0    0    0    0  0.00000000000E+00  0.00000000000E+00  0.74505805969E-08  0.10566000000E+00  0.10566000000E+00 0. -1.
     999900   -1    0    0    0    0 -0.00000000000E+00 -0.00000000000E+00 -0.74505805969E-08  0.93827000000E+00  0.93827000000E+00 0. -1.
     999902    2    1    2    0    0  0.20743632477E-02 -0.80134375106E-02 -0.22693522947E-01  0.10197739625E+01  0.10194878226E+01 0.  0.
     999903    2    3    3    0    0  0.59445198075E-01 -0.10889691844E+00 -0.40150531548E-01  0.13198252497E+00  0.20372807736E-01 0.  0.
         14    1    1    2    0    0 -0.20743632477E-02  0.80134375106E-02  0.22693522947E-01  0.24156037493E-01  0.00000000000E+00 0. -1.
     999901    1    3    3    0    0 -0.57370834828E-01  0.10088348093E+00  0.17457008601E-01  0.88779143754E+00  0.88000000000E+00 0.  1.
        -11    1    4    4    0    0  0.37062630262E-01 -0.61924573425E-01 -0.33355913925E-01  0.79505782624E-01  0.51100000000E-03 0.  1.
         11    1    4    4    0    0  0.22382567814E-01 -0.46972345011E-01 -0.67946176224E-02  0.52476742348E-01  0.51100000000E-03 0. -1.
</event>
<event>
 8    1  0.1112929E+005  0.1043930E+01  0.7957747E-01            NaN
         13   -1    0    0    0    0  0.00000000000E+00  0.00000000000E+00  0.74505805969E-08  0.10566000000E+00  0.10566000000E+00 0.  1.
     999900   -1    0    0    0    0 -0.00000000000E+00 -0.00000000000E+00 -0.74505805969E-08  0.93827000000E+00  0.93827000000E+00 0.  1.
     999902    2    1    2    0    0  0.58610607678E-02 -0.10648348850E-01  0.19832500002E-01  0.10206691440E+01  0.10204040543E+01 0.  0.
     999903    2    3    3    0    0  0.12431355762E-01  0.77133204865E-01  0.10358349768E+00  0.13232067656E+00  0.25983659409E-01 0.  0.
         14    1    1    2    0    0 -0.58610607678E-02  0.10648348850E-01 -0.19832500002E-01  0.23260856022E-01  0.00000000000E+00 0. -1.
     999901    1    3    3    0    0 -0.65702949942E-02 -0.87781553715E-01 -0.83750997674E-01  0.88834846742E+00  0.88000000000E+00 0.  1.
        -11    1    4    4    0    0  0.14814136404E-01  0.42034130641E-01  0.41182504584E-01  0.60684319070E-01  0.51100000000E-03 0.  1.
         11    1    4    4    0    0 -0.23827806417E-02  0.35099074224E-01  0.62400993091E-01  0.71636357492E-01  0.51100000000E-03 0. -1.
</event>
<event>
 8    1  0.1112929E+005  0.1043930E+01  0.7957747E-01            NaN
         13   -1    0    0    0    0  0.00000000000E+00  0.00000000000E+00  0.74505805969E-08  0.10566000000E+00  0.10566000000E+00 0.  1.
     999900   -1    0    0    0    0 -0.00000000000E+00 -0.00000000000E+00 -0.74505805969E-08  0.93827000000E+00  0.93827000000E+00 0. -1.
     999902    2    1    2    0    0 -0.21620056884E-01 -0.70302622817E-03  0.10289921491E-01  0.10199758022E+01  0.10196944805E+01 0.  0.
     999903    2    3    3    0    0 -0.98423191712E-01 -0.70127631792E-01  0.51717778884E-01  0.13293873158E+00  0.19823427896E-01 0.  0.
         14    1    1    2    0    0  0.21620056884E-01  0.70302622817E-03 -0.10289921491E-01  0.23954197750E-01  0.00000000000E+00 0. -1.
     999901    1    3    3    0    0  0.76803134828E-01  0.69424605564E-01 -0.41427857392E-01  0.88703707067E+00  0.88000000000E+00 0.  1.
        -11    1    4    4    0    0 -0.69783069471E-01 -0.41039222425E-01  0.27658605725E-01  0.85552055228E-01  0.51100000000E-03 0. -1.
         11    1    4    4    0    0 -0.28640122240E-01 -0.29088409367E-01  0.24059173159E-01  0.47386676351E-01  0.51100000000E-03 0.  1.
</event>
<event>
 8    1  0.1112929E+005  0.1043930E+01  0.7957747E-01            NaN
         13   -1    0    0    0    0  0.00000000000E+00  0.00000000000E+00  0.74505805969E-08  0.10566000000E+00  0.10566000000E+00 0.  1.
     999900   -1    0    0    0    0 -0.00000000000E+00 -0.00000000000E+00 -0.74505805969E-08  0.93827000000E+00  0.93827000000E+00 0.  1.
     999902    2    1    2    0    0 -0.88237116327E-02 -0.68263225021E-02 -0.19434005247E-02  0.10326059825E+01  0.10325438886E+01 0.  0.
     999903    2    3    3    0    0 -0.27195281133E-01 -0.11453352713E+00 -0.78136013084E-01  0.14258144877E+00  0.19149956695E-01 0.  0.
         14    1    1    2    0    0  0.88237116327E-02  0.68263225021E-02  0.19434005247E-02  0.11324017462E-01  0.00000000000E+00 0.  1.
     999901    1    3    3    0    0  0.18371569500E-01  0.10770720463E+00  0.76192612559E-01  0.89002453376E+00  0.88000000000E+00 0.  1.
        -11    1    4    4    0    0 -0.25306743823E-01 -0.72512550780E-01 -0.44859667660E-01  0.88944658115E-01  0.51100000000E-03 0.  1.
         11    1    4    4    0    0 -0.18885373099E-02 -0.42020976348E-01 -0.33276345424E-01  0.53636790659E-01  0.51100000000E-03 0. -1.
</event>
<event>
 8    1  0.1112929E+005  0.1043930E+01  0.7957747E-01            NaN
         13   -1    0    0    0    0  0.00000000000E+00  0.00000000000E+00  0.74505805969E-08  0.10566000000E+00  0.10566000000E+00 0.  1.
     999900   -1    0    0    0    0 -0.00000000000E+00 -0.00000000000E+00 -0.74505805969E-08  0.93827000000E+00  0.93827000000E+00 0. -1.
     999902    2    1    2    0    0  0.65865736590E-02  0.14926803781E-01  0.17081327265E-01  0.10203087349E+01  0.10200352692E+01 0.  0.
     999903    2    3    3    0    0  0.10545294041E+00 -0.49026310868E-01 -0.53868940166E-01  0.12963567491E+00  0.19484447551E-01 0.  0.
         14    1    1    2    0    0 -0.65865736590E-02 -0.14926803781E-01 -0.17081327265E-01  0.23621265097E-01  0.00000000000E+00 0. -1.
     999901    1    3    3    0    0 -0.98866366751E-01  0.63953114649E-01  0.70950267431E-01  0.89067305999E+00  0.88000000000E+00 0.  1.
        -11    1    4    4    0    0  0.32848060838E-01 -0.16208496775E-01 -0.73236833495E-02  0.37357836224E-01  0.51100000000E-03 0. -1.
         11    1    4    4    0    0  0.72604879572E-01 -0.32817814094E-01 -0.46545256817E-01  0.92277838686E-01  0.51100000000E-03 0.  1.
</event>
<event>
 8    1  0.1112929E+005  0.1043930E+01  0.7957747E-01            NaN
         13   -1    0    0    0    0  0.00000000000E+00  0.00000000000E+00  0.74505805969E-08  0.10566000000E+00  0.10566000000E+00 0.  1.
     999900   -1    0    0    0    0 -0.00000000000E+00 -0.00000000000E+00 -0.74505805969E-08  0.93827000000E+00  0.93827000000E+00 0. -1.
     999902    2    1    2    0    0 -0.21514528458E-01  0.58085344508E-02  0.55166579013E-02  0.10209724844E+01  0.10207143412E+01 0.  0.
     999903    2    3    3    0    0 -0.75313157288E-01  0.90903647887E-01  0.59038623073E-01  0.13361682204E+00  0.20793057950E-01 0.  0.
         14    1    1    2    0    0  0.21514528458E-01 -0.58085344508E-02 -0.55166579013E-02  0.22957515581E-01  0.00000000000E+00 0. -1.
     999901    1    3    3    0    0  0.53798628830E-01 -0.85095113436E-01 -0.53521965171E-01  0.88735566238E+00  0.88000000000E+00 0. -1.
        -11    1    4    4    0    0 -0.41290147932E-01  0.65087533373E-01  0.35743797722E-01  0.84965543095E-01  0.51100000000E-03 0. -1.
         11    1    4    4    0    0 -0.34023009356E-01  0.25816114514E-01  0.23294825350E-01  0.48651278948E-01  0.51100000000E-03 0.  1.
</event>
<event>
 8    1  0.1112929E+005  0.1043930E+01  0.7957747E-01            NaN
         13   -1    0    0    0    0  0.00000000000E+00  0.00000000000E+00  0.74505805969E-08  0.10566000000E+00  0.10566000000E+00 0.  1.
     999900   -1    0    0    0    0 -0.00000000000E+00 -0.00000000000E+00 -0.74505805969E-08  0.93827000000E+00  0.93827000000E+00 0. -1.
     999902    2    1    2    0    0  0.26373370491E-01  0.70729420745E-02 -0.16574829700E-01  0.10119877684E+01  0.10114835328E+01 0.  0.
     999903    2    3    3    0    0 -0.99191474182E-01  0.16430358908E-01 -0.65556976484E-01  0.12167695627E+00  0.19966453814E-01 0.  0.
         14    1    1    2    0    0 -0.26373370491E-01 -0.70729420745E-02  0.16574829700E-01  0.31942231610E-01  0.00000000000E+00 0. -1.
     999901    1    3    3    0    0  0.12556484467E+00 -0.93574168336E-02  0.48982146784E-01  0.89031081212E+00  0.88000000000E+00 0.  1.
        -11    1    4    4    0    0 -0.57495879570E-01  0.12234446613E-01 -0.26847173668E-01  0.64625766582E-01  0.51100000000E-03 0. -1.
         11    1    4    4    0    0 -0.41695594613E-01  0.41959122948E-02 -0.38709802816E-01  0.57051189691E-01  0.51100000000E-03 0.  1.
</event>
<event>
 8    1  0.1112929E+005  0.1043930E+01  0.7957747E-01            NaN
         13   -1    0    0    0    0  0.00000000000E+00  0.00000000000E+00  0.74505805969E-08  0.10566000000E+00  0.10566000000E+00 0. -1.
     999900   -1    0    0    0    0 -0.00000000000E+00 -0.00000000000E+00 -0.74505805969E-08  0.93827000000E+00  0.93827000000E+00 0. -1.
     999902    2    1    2    0    0  0.31797691572E-02  0.22943143525E-02 -0.24461283096E-01  0.10191564419E+01  0.10188553008E+01 0.  0.
     999903    2    3    3    0    0 -0.12454622700E-01 -0.98116743097E-01  0.77736678482E-01  0.12743269655E+00  0.20349153949E-01 0.  0.
         14    1    1    2    0    0 -0.31797691572E-02 -0.22943143525E-02  0.24461283096E-01  0.24773558100E-01  0.00000000000E+00 0. -1.
     999901    1    3    3    0    0  0.15634391857E-01  0.10041105745E+00 -0.10219796158E+00  0.89172374535E+00  0.88000000000E+00 0. -1.
        -11    1    4    4    0    0  0.52665067232E-02 -0.31877447112E-01  0.27454545244E-01  0.42401897399E-01  0.51100000000E-03 0.  1.
         11    1    4    4    0    0 -0.17721129423E-01 -0.66239295986E-01  0.50282133237E-01  0.85030799153E-01  0.51100000000E-03 0. -1.
</event>
<event>
 8    1  0.1112929E+005  0.1043930E+01  0.7957747E-01            NaN
         13   -1    0    0    0    0  0.00000000000E+00  0.00000000000E+00  0.74505805969E-08  0.10566000000E+00  0.10566000000E+00 0. -1.
     999900   -1    0    0    0    0 -0.00000000000E+00 -0.00000000000E+00 -0.74505805969E-08  0.93827000000E+00  0.93827000000E+00 0.  1.
     999902    2    1    2    0    0 -0.23376785216E-02 -0.17003768255E-02 -0.24609894587E-01  0.10191509174E+01  0.10188496403E+01 0.  0.
     999903    2    3    3    0    0  0.18281399164E-01  0.69095209070E-01  0.10313611718E+00  0.12687506048E+00  0.18758060449E-01 0.  0.
         14    1    1    2    0    0  0.23376785216E-02  0.17003768255E-02  0.24609894587E-01  0.24779082586E-01  0.00000000000E+00 0. -1.
     999901    1    3    3    0    0 -0.20619077685E-01 -0.70795585895E-01 -0.12774601177E+00  0.89227585694E+00  0.88000000000E+00 0.  1.
        -11    1    4    4    0    0  0.12869756714E-02  0.41201447765E-01  0.57954502020E-01  0.71121030854E-01  0.51100000000E-03 0.  1.
         11    1    4    4    0    0  0.16994423492E-01  0.27893761305E-01  0.45181615164E-01  0.55754029625E-01  0.51100000000E-03 0. -1.
</event>
<event>
 8    1  0.1112929E+005  0.1043930E+01  0.7957747E-01            NaN
         13   -1    0    0    0    0  0.00000000000E+00  0.00000000000E+00  0.74505805969E-08  0.10566000000E+00  0.10566000000E+00 0.  1.
     999900   -1    0    0    0    0 -0.00000000000E+00 -0.00000000000E+00 -0.74505805969E-08  0.93827000000E+00  0.93827000000E+00 0. -1.
     999902    2    1    2    0    0 -0.16917652422E-01  0.13632138208E-01 -0.96837746140E-02  0.10201430782E+01  0.10198657179E+01 0.  0.
     999903    2    3    3    0    0  0.81650994089E-01  0.54897363581E-01 -0.83730713186E-01  0.13059176100E+00  0.19046531121E-01 0.  0.
         14    1    1    2    0    0  0.16917652422E-01 -0.13632138208E-01  0.96837746140E-02  0.23786921751E-01  0.00000000000E+00 0.  1.
     999901    1    3    3    0    0 -0.98568646511E-01 -0.41265225372E-01  0.74046938572E-01  0.88955131724E+00  0.88000000000E+00 0.  1.
        -11    1    4    4    0    0  0.34029816243E-01  0.28186784033E-01 -0.48483375153E-01  0.65600472367E-01  0.51100000000E-03 0. -1.
         11    1    4    4    0    0  0.47621177847E-01  0.26710579548E-01 -0.35247338033E-01  0.64991288637E-01  0.51100000000E-03 0.  1.
</event>
<event>
 8    1  0.1112929E+005  0.1043930E+01  0.7957747E-01            NaN
         13   -1    0    0    0    0  0.00000000000E+00  0.00000000000E+00  0.74505805969E-08  0.10566000000E+00  0.10566000000E+00 0.  1.
     999900   -1    0    0    0    0 -0.00000000000E+00 -0.00000000000E+00 -0.74505805969E-08  0.93827000000E+00  0.93827000000E+00 0. -1.
     999902    2    1    2    0    0  0.16570407699E-01 -0.19784499430E-02  0.17804132062E-01  0.10195275453E+01  0.10192354664E+01 0.  0.
     999903    2    3    3    0    0 -0.11721437201E+00 -0.42837601159E-01  0.22847445908E-01  0.12846454389E+00  0.20170874366E-01 0.  0.
         14    1    1    2    0    0 -0.16570407699E-01  0.19784499430E-02 -0.17804132062E-01  0.24402454671E-01  0.00000000000E+00 0. -1.
     999901    1    3    3    0    0  0.13378477971E+00  0.40859151216E-01 -0.50433138462E-02  0.89106300144E+00  0.88000000000E+00 0.  1.
        -11    1    4    4    0    0 -0.18286596869E-01 -0.13027329777E-01  0.90969712685E-02  0.24230702702E-01  0.51100000000E-03 0.  1.
         11    1    4    4    0    0 -0.98927775144E-01 -0.29810271381E-01  0.13750474640E-01  0.10423384119E+00  0.51100000000E-03 0. -1.
</event>
<event>
 8    1  0.1112929E+005  0.1043930E+01  0.7957747E-01            NaN
         13   -1    0    0    0    0  0.00000000000E+00  0.00000000000E+00  0.74505805969E-08  0.10566000000E+00  0.10566000000E+00 0. -1.
     999900   -1    0    0    0    0 -0.00000000000E+00 -0.00000000000E+00 -0.74505805969E-08  0.93827000000E+00  0.93827000000E+00 0.  1.
     999902    2    1    2    0    0  0.18733007545E-01 -0.19754456563E-01  0.11195544700E-02  0.10166826602E+01  0.10163174770E+01 0.  0.
     999903    2    3    3    0    0  0.87369123841E-01  0.64123196325E-01 -0.64321531412E-01  0.12762196886E+00  0.20123603646E-01 0.  0.
         14    1    1    2    0    0 -0.18733007545E-01  0.19754456563E-01 -0.11195544700E-02  0.27247339833E-01  0.00000000000E+00 0.  1.
     999901    1    3    3    0    0 -0.68636116296E-01 -0.83877652888E-01  0.65441085882E-01  0.88906069131E+00  0.88000000000E+00 0. -1.
        -11    1    4    4    0    0  0.43177272534E-01  0.43176263640E-01 -0.31374148582E-01  0.68651765641E-01  0.51100000000E-03 0.  1.
         11    1    4    4    0    0  0.44191851306E-01  0.20946932686E-01 -0.32947382830E-01  0.58970203214E-01  0.51100000000E-03 0. -1.
</event>
<event>
 8    1  0.1112929E+005  0.1043930E+01  0.7957747E-01            NaN
         13   -1    0    0    0    0  0.00000000000E+00  0.00000000000E+00  0.74505805969E-08  0.10566000000E+00  0.10566000000E+00 0. -1.
     999900   -1    0    0    0    0 -0.00000000000E+00 -0.00000000000E+00 -0.74505805969E-08  0.93827000000E+00  0.93827000000E+00 0. -1.
     999902    2    1    2    0    0 -0.17983562632E-01  0.15380638439E-01  0.32284217529E-02  0.10200470506E+01  0.10197674197E+01 0.  0.
     999903    2    3    3    0    0  0.35196594781E-01 -0.85993577440E-01 -0.85947022954E-01  0.12816302188E+00  0.20128928905E-01 0.  0.
         14    1    1    2    0    0  0.17983562632E-01 -0.15380638439E-01 -0.32284217529E-02  0.23882949373E-01  0.00000000000E+00 0.  1.
     999901    1    3    3    0    0 -0.53180157413E-01  0.10137421588E+00  0.89175444707E-01  0.89188402874E+00  0.88000000000E+00 0. -1.
        -11    1    4    4    0    0  0.27858107455E-01 -0.46546556091E-01 -0.41649066526E-01  0.68392703547E-01  0.51100000000E-03 0. -1.
         11    1    4    4    0    0  0.73384873258E-02 -0.39447021348E-01 -0.44297956428E-01  0.59770318338E-01  0.51100000000E-03 0.  1.
</event>
<event>
 8    1  0.1112929E+005  0.1043930E+01  0.7957747E-01            NaN
         13   -1    0    0    0    0  0.00000000000E+00  0.00000000000E+00  0.74505805969E-08  0.10566000000E+00  0.10566000000E+00 0. -1.
     999900   -1    0    0    0    0 -0.00000000000E+00 -0.00000000000E+00 -0.74505805969E-08  0.93827000000E+00  0.93827000000E+00 0. -1.
     999902    2    1    2    0    0  0.22337999206E-01  0.74580153881E-02 -0.24922861641E-02  0.10202483680E+01  0.10199734863E+01 0.  0.
     999903    2    3    3    0    0  0.53183734003E-01 -0.11167930921E+00  0.39043543550E-01  0.13071456507E+00  0.16159256202E-01 0.  0.
         14    1    1    2    0    0 -0.22337999206E-01 -0.74580153881E-02  0.24922861641E-02  0.23681631962E-01  0.00000000000E+00 0. -1.
     999901    1    3    3    0    0 -0.30845734797E-01  0.11913732460E+00 -0.41535829714E-01  0.88953380297E+00  0.88000000000E+00 0.  1.
        -11    1    4    4    0    0  0.32524947890E-01 -0.49743345969E-01  0.19766139113E-01  0.62635725268E-01  0.51100000000E-03 0. -1.
         11    1    4    4    0    0  0.20658786113E-01 -0.61935963242E-01  0.19277404437E-01  0.68078839805E-01  0.51100000000E-03 0.  1.
</event>
<event>
 8    1  0.1112929E+005  0.1043930E+01  0.7957747E-01            NaN
         13   -1    0    0    0    0  0.00000000000E+00  0.00000000000E+00  0.74505805969E-08  0.10566000000E+00  0.10566000000E+00 0.  1.
     999900   -1    0    0    0    0 -0.00000000000E+00 -0.00000000000E+00 -0.74505805969E-08  0.93827000000E+00  0.93827000000E+00 0. -1.
     999902    2    1    2    0    0 -0.19723841095E-01  0.32909610726E-02  0.12497542401E-01  0.10203493109E+01  0.10200767948E+01 0.  0.
     999903    2    3    3    0    0 -0.92605012595E-01 -0.22523498259E-01 -0.87930214474E-01  0.13126900754E+00  0.20416498037E-01 0.  0.
         14    1    1    2    0    0  0.19723841095E-01 -0.32909610726E-02 -0.12497542401E-01  0.23580689099E-01  0.00000000000E+00 0.  1.
     999901    1    3    3    0    0  0.72881171500E-01  0.25814459332E-01  0.10042775687E+00  0.88908030336E+00  0.88000000000E+00 0.  1.
        -11    1    4    4    0    0 -0.36491637241E-01 -0.29048121956E-02 -0.44628072116E-01  0.57723508766E-01  0.51100000000E-03 0. -1.
         11    1    4    4    0    0 -0.56113375354E-01 -0.19618686064E-01 -0.43302142358E-01  0.73545498776E-01  0.51100000000E-03 0.  1.
</event>
<event>
 8    1  0.1112929E+005  0.1043930E+01  0.7957747E-01            NaN
         13   -1    0    0    0    0  0.00000000000E+00  0.00000000000E+00  0.74505805969E-08  0.10566000000E+00  0.10566000000E+00 0. -1.
     999900   -1    0    0    0    0 -0.00000000000E+00 -0.00000000000E+00 -0.74505805969E-08  0.93827000000E+00  0.93827000000E+00 0. -1.
     999902    2    1    2    0    0  0.24105842867E-01  0.44335243869E-03 -0.31870766667E-02  0.10196103438E+01  0.10193202674E+01 0.  0.
     999903    2    3    3    0    0 -0.79689511359E-01  0.86054280688E-01 -0.47557970862E-01  0.12827904574E+00  0.20928342913E-01 0.  0.
         14    1    1    2    0    0 -0.24105842867E-01 -0.44335243869E-03  0.31870766667E-02  0.24319656235E-01  0.00000000000E+00 0. -1.
     999901    1    3    3    0    0  0.10379535423E+00 -0.85610928249E-01  0.44370894195E-01  0.89133129803E+00  0.88000000000E+00 0.  1.
        -11    1    4    4    0    0 -0.29616653097E-01  0.47243106021E-01 -0.21054732159E-01  0.59603859560E-01  0.51100000000E-03 0.  1.
         11    1    4    4    0    0 -0.50072858262E-01  0.38811174668E-01 -0.26503238702E-01  0.68675186176E-01  0.51100000000E-03 0. -1.
</event>
<event>
 8    1  0.1112929E+005  0.1043930E+01  0.7957747E-01            NaN
         13   -1    0    0    0    0  0.00000000000E+00  0.00000000000E+00  0.74505805969E-08  0.10566000000E+00  0.10566000000E+00 0.  1.
     999900   -1    0    0    0    0 -0.00000000000E+00 -0.00000000000E+00 -0.74505805969E-08  0.93827000000E+00  0.93827000000E+00 0. -1.
     999902    2    1    2    0    0 -0.15238789180E-01 -0.17158184171E-01  0.51806150574E-03  0.10209758638E+01  0.10207177975E+01 0.  0.
     999903    2    3    3    0    0  0.43743104384E-01  0.58850126602E-01 -0.10473051003E+00  0.12949765945E+00  0.20600181748E-01 0.  0.
         14    1    1    2    0    0  0.15238789180E-01  0.17158184171E-01 -0.51806150574E-03  0.22954136173E-01  0.00000000000E+00 0.  1.
     999901    1    3    3    0    0 -0.58981893564E-01 -0.76008310773E-01  0.10524857154E+00  0.89147820438E+00  0.88000000000E+00 0.  1.
        -11    1    4    4    0    0  0.11857994614E-01  0.11782505652E-01 -0.39937137865E-01  0.43297523920E-01  0.51100000000E-03 0.  1.
         11    1    4    4    0    0  0.31885109770E-01  0.47067620950E-01 -0.64793372168E-01  0.86200135526E-01  0.51100000000E-03 0. -1.
</event>
<event>
 8    1  0.1112929E+005  0.1043930E+01  0.7957747E-01            NaN
         13   -1    0    0    0    0  0.00000000000E+00  0.00000000000E+00  0.74505805969E-08  0.10566000000E+00  0.10566000000E+00 0. -1.
     999900   -1    0    0    0    0 -0.00000000000E+00 -0.00000000000E+00 -0.74505805969E-08  0.93827000000E+00  0.93827000000E+00 0.  1.
     999902    2    1    2    0    0 -0.69840158634E-02  0.42867441561E-02  0.22248301822E-01  0.10202205169E+01  0.10199449807E+01 0.  0.
     999903    2    3    3    0    0  0.12029160773E+00 -0.11996442517E-01  0.46579379627E-01  0.13058226019E+00  0.16373837258E-01 0.  0.
         14    1    1    2    0    0  0.69840158634E-02 -0.42867441561E-02 -0.22248301822E-01  0.23709483061E-01  0.00000000000E+00 0.  1.
     999901    1    3    3    0    0 -0.12727562359E+00  0.16283186673E-01 -0.24331077804E-01  0.88963825675E+00  0.88000000000E+00 0.  1.
        -11    1    4    4    0    0  0.47735346806E-01  0.32277975383E-02  0.18955632781E-01  0.51465125540E-01  0.51100000000E-03 0.  1.
         11    1    4    4    0    0  0.72556260921E-01 -0.15224240056E-01  0.27623746845E-01  0.79117134648E-01  0.51100000000E-03 0. -1.
</event>
<event>
 8    1  0.1112929E+005  0.1043930E+01  0.7957747E-01            NaN
         13   -1    0    0    0    0  0.00000000000E+00  0.00000000000E+00  0.74505805969E-08  0.10566000000E+00  0.10566000000E+00 0. -1.
     999900   -1    0    0    0    0 -0.00000000000E+00 -0.00000000000E+00 -0.74505805969E-08  0.93827000000E+00  0.93827000000E+00 0. -1.
     999902    2    1    2    0    0  0.73335251891E-03 -0.56146760919E-02  0.26083378732E-01  0.10172390832E+01  0.10168888569E+01 0.  0.
     999903    2    3    3    0    0 -0.99807710950E-01 -0.48351861469E-01 -0.57945939613E-01  0.12651134769E+00  0.18652278818E-01 0.  0.
         14    1    1    2    0    0 -0.73335251891E-03  0.56146760919E-02 -0.26083378732E-01  0.26690916800E-01  0.00000000000E+00 0.  1.
     999901    1    3    3    0    0  0.10054106347E+00  0.42737185377E-01  0.84029318345E-01  0.89072773551E+00  0.88000000000E+00 0. -1.
        -11    1    4    4    0    0 -0.48051623236E-01 -0.22552587090E-01 -0.38206715093E-01  0.65403301746E-01  0.51100000000E-03 0. -1.
         11    1    4    4    0    0 -0.51756087714E-01 -0.25799274380E-01 -0.19739224520E-01  0.61108045948E-01  0.51100000000E-03 0.  1.
</event>
<event>
 8    1  0.1112929E+005  0.1043930E+01  0.7957747E-01            NaN
         13   -1    0    0    0    0  0.00000000000E+00  0.00000000000E+00  0.74505805969E-08  0.10566000000E+00  0.10566000000E+00 0.  1.
     999900   -1    0    0    0    0 -0.00000000000E+00 -0.00000000000E+00 -0.74505805969E-08  0.93827000000E+00  0.93827000000E+00 0. -1.
     999902    2    1    2    0    0 -0.16010945639E-02  0.20328639060E-01  0.11154105156E-01  0.10206871273E+01  0.10204224521E+01 0.  0.
     999903    2    3    3    0    0 -0.13155065549E-01  0.88001652012E-01  0.97837502168E-01  0.13376709581E+00  0.20102551697E-01 0.  0.
         14    1    1    2    0    0  0.16010945639E-02 -0.20328639060E-01 -0.11154105156E-01  0.23242872706E-01  0.00000000000E+00 0.  1.
     999901    1    3    3    0    0  0.11553970985E-01 -0.67673012952E-01 -0.86683397013E-01  0.88692003148E+00  0.88000000000E+00 0. -1.
        -11    1    4    4    0    0 -0.47363206975E-02  0.15238266382E-01  0.29730082985E-01  0.33745761976E-01  0.51100000000E-03 0.  1.
         11    1    4    4    0    0 -0.84187448519E-02  0.72763385630E-01  0.68107419184E-01  0.10002133383E+00  0.51100000000E-03 0. -1.
</event>
<event>
 8    1  0.1112929E+005  0.1043930E+01  0.7957747E-01            NaN
         13   -1    0    0    0    0  0.00000000000E+00  0.00000000000E+00  0.74505805969E-08  0.10566000000E+00  0.10566000000E+00 0.  1.
     999900   -1    0    0    0    0 -0.00000000000E+00 -0.00000000000E+00 -0.74505805969E-08  0.93827000000E+00  0.93827000000E+00 0.  1.
     999902    2    1    2    0    0  0.92807702303E-02 -0.82362720784E-02 -0.21715329435E-01  0.10189195141E+01  0.10186125131E+01 0.  0.
     999903    2    3    3    0    0  0.83941618498E-01 -0.23445997158E-01  0.92076708777E-01  0.12832746046E+00  0.19847083153E-01 0.  0.
         14    1    1    2    0    0 -0.92807702303E-02  0.82362720784E-02  0.21715329435E-01  0.25010485927E-01  0.00000000000E+00 0.  1.
     999901    1    3    3    0    0 -0.74660848268E-01  0.15209725079E-01 -0.11379203821E+00  0.89059205361E+00  0.88000000000E+00 0.  1.
        -11    1    4    4    0    0  0.73943792490E-01 -0.26280466831E-01  0.85313460089E-01  0.11591805286E+00  0.51100000000E-03 0. -1.
         11    1    4    4    0    0  0.99978260079E-02  0.28344696732E-02  0.67632486880E-02  0.12409407602E-01  0.51100000000E-03 0.  1.
</event>
<event>
 8    1  0.1112929E+005  0.1043930E+01  0.7957747E-01            NaN
         13   -1    0    0    0    0  0.00000000000E+00  0.00000000000E+00  0.74505805969E-08  0.10566000000E+00  0.10566000000E+00 0. -1.
     999900   -1    0    0    0    0 -0.00000000000E+00 -0.00000000000E+00 -0.74505805969E-08  0.93827000000E+00  0.93827000000E+00 0. -1.
     999902    2    1    2    0    0  0.66387234107E-02  0.28605439140E-02  0.21928290771E-01  0.10208409269E+01  0.10205797827E+01 0.  0.
     999903    2    3    3    0    0  0.70502620450E-01  0.96223184412E-01  0.54903715546E-01  0.13298814710E+00  0.21021621694E-01 0.  0.
         14    1    1    2    0    0 -0.66387234107E-02 -0.28605439140E-02 -0.21928290771E-01  0.23089073089E-01  0.00000000000E+00 0.  1.
     999901    1    3    3    0    0 -0.63863897039E-01 -0.93362640498E-01 -0.32975424775E-01  0.88785277981E+00  0.88000000000E+00 0. -1.
        -11    1    4    4    0    0  0.34236310439E-01  0.50555237956E-01  0.16811461204E-01  0.63331219680E-01  0.51100000000E-03 0. -1.
         11    1    4    4    0    0  0.36266310010E-01  0.45667946455E-01  0.38092254342E-01  0.69656927416E-01  0.51100000000E-03 0.  1.
</event>
<event>
 8    1  0.1112929E+005  0.1043930E+01  0.7957747E-01            NaN
         13   -1    0    0    0    0  0.00000000000E+00  0.00000000000E+00  0.74505805969E-08  0.10566000000E+00  0.10566000000E+00 0. -1.
     999900   -1    0    0    0    0 -0.00000000000E+00 -0.00000000000E+00 -0.74505805969E-08  0.93827000000E+00  0.93827000000E+00 0. -1.
     999902    2    1    2    0    0 -0.23249237378E-01 -0.45771237783E-02  0.45885278633E-02  0.10197943067E+01  0.10195086544E+01 0.  0.
     999903    2    3    3    0    0 -0.89379989216E-01  0.93736640497E-01 -0.12987024614E-01  0.13167957732E+00  0.19887383709E-01 0.  0.
         14    1    1    2    0    0  0.23249237378E-01  0.45771237783E-02 -0.45885278633E-02  0.24135693251E-01  0.00000000000E+00 0.  1.
     999901    1    3    3    0    0  0.66130751837E-01 -0.98313764275E-01  0.17575552478E-01  0.88811472943E+00  0.88000000000E+00 0.  1.
        -11    1    4    4    0    0 -0.66289334455E-01  0.58857554247E-01 -0.14458024712E-01  0.89820839197E-01  0.51100000000E-03 0.  1.
         11    1    4    4    0    0 -0.23090654761E-01  0.34879086250E-01  0.14710000980E-02  0.41858738123E-01  0.51100000000E-03 0. -1.
</event>
<event>
 8    1  0.1112929E+005  0.1043930E+01  0.7957747E-01            NaN
         13   -1    0    0    0    0  0.00000000000E+00  0.00000000000E+00  0.74505805969E-08  0.10566000000E+00  0.10566000000E+00 0. -1.
     999900   -1    0    0    0    0 -0.00000000000E+00 -0.00000000000E+00 -0.74505805969E-08  0.93827000000E+00  0.93827000000E+00 0. -1.
     999902    2    1    2    0    0 -0.66154907929E-02  0.39746323525E-02  0.22185864859E-01  0.10204401081E+01  0.10201697110E+01 0.  0.
     999903    2    3    3    0    0  0.31098565188E-01 -0.92092210304E-02 -0.12202183953E+00  0.12780803049E+00  0.19840182130E-01 0.  0.
         14    1    1    2    0    0  0.66154907929E-02 -0.39746323525E-02 -0.22185864859E-01  0.23489891876E-01  0.00000000000E+00 0.  1.
     999901    1    3    3    0    0 -0.37714055981E-01  0.13183853383E-01  0.14420770439E+00  0.89263207763E+00  0.88000000000E+00 0.  1.
        -11    1    4    4    0    0  0.25335828888E-01  0.17351692438E-02 -0.75025969394E-01  0.79209041417E-01  0.51100000000E-03 0.  1.
         11    1    4    4    0    0  0.57627363002E-02 -0.10944390274E-01 -0.46995870139E-01  0.48598989077E-01  0.51100000000E-03 0. -1.
</event>
<event>
 8    1  0.1112929E+005  0.1043930E+01  0.7957747E-01            NaN
         13   -1    0    0    0    0  0.00000000000E+00  0.00000000000E+00  0.74505805969E-08  0.10566000000E+00  0.10566000000E+00 0.  1.
     999900   -1    0    0    0    0 -0.00000000000E+00 -0.00000000000E+00 -0.74505805969E-08  0.93827000000E+00  0.93827000000E+00 0. -1.
     999902    2    1    2    0    0 -0.15232613533E-01  0.16005758108E-01  0.32102210767E-02  0.10216023864E+01  0.10213583669E+01 0.  0.
     999903    2    3    3    0    0  0.88793030149E-01  0.93392600588E-01 -0.18786664486E-01  0.13183055001E+00  0.20493294199E-01 0.  0.
         14    1    1    2    0    0  0.15232613533E-01 -0.16005758108E-01 -0.32102210767E-02  0.22327613554E-01  0.00000000000E+00 0.  1.
     999901    1    3    3    0    0 -0.10402564368E+00 -0.77386842480E-01  0.21996885563E-01  0.88977183643E+00  0.88000000000E+00 0.  1.
        -11    1    4    4    0    0  0.86077815569E-01  0.82446221821E-01 -0.17373846587E-01  0.12045281853E+00  0.51100000000E-03 0. -1.
         11    1    4    4    0    0  0.27152145800E-02  0.10946378766E-01 -0.14128178989E-02  0.11377731484E-01  0.51100000000E-03 0.  1.
</event>
<event>
 8    1  0.1112929E+005  0.1043930E+01  0.7957747E-01            NaN
         13   -1    0    0    0    0  0.00000000000E+00  0.00000000000E+00  0.74505805969E-08  0.10566000000E+00  0.10566000000E+00 0. -1.
     999900   -1    0    0    0    0 -0.00000000000E+00 -0.00000000000E+00 -0.74505805969E-08  0.93827000000E+00  0.93827000000E+00 0.  1.
     999902    2    1    2    0    0 -0.22684388866E-01 -0.21478723986E-02 -0.50338859770E-02  0.10205947292E+01  0.10203279210E+01 0.  0.
     999903    2    3    3    0    0 -0.31931538680E-01  0.12540137988E+00  0.94755871925E-02  0.13123268464E+00  0.19674895838E-01 0.  0.
         14    1    1    2    0    0  0.22684388866E-01  0.21478723986E-02  0.50338859770E-02  0.23335270774E-01  0.00000000000E+00 0.  1.
     999901    1    3    3    0    0  0.92471498140E-02 -0.12754925228E+00 -0.14509473170E-01  0.88936204459E+00  0.88000000000E+00 0. -1.
        -11    1    4    4    0    0 -0.21656310713E-01  0.48846011377E-01  0.20119654268E-03  0.53434354325E-01  0.51100000000E-03 0.  1.
         11    1    4    4    0    0 -0.10275227967E-01  0.76555368506E-01  0.92743906498E-02  0.77798330315E-01  0.51100000000E-03 0. -1.
</event>
<event>
 8    1  0.1112929E+005  0.1043930E+01  0.7957747E-01            NaN
         13   -1    0    0    0    0  0.00000000000E+00  0.00000000000E+00  0.74505805969E-08  0.10566000000E+00  0.10566000000E+00 0.  1.
     999900   -1    0    0    0    0 -0.00000000000E+00 -0.00000000000E+00 -0.74505805969E-08  0.93827000000E+00  0.93827000000E+00 0.  1.
     999902    2    1    2    0    0  0.87835315706E-02 -0.21703731805E-01  0.56529171386E-02  0.10198435334E+01  0.10195590590E+01 0.  0.
     999903    2    3    3    0    0 -0.55482159504E-01 -0.10779530008E+00  0.49191027843E-01  0.13224148053E+00  0.19234219769E-01 0.  0.
         14    1    1    2    0    0 -0.87835315706E-02  0.21703731805E-01 -0.56529171386E-02  0.24086466601E-01  0.00000000000E+00 0.  1.
     999901    1    3    3    0    0  0.64265691074E-01  0.86091568273E-01 -0.43538110704E-01  0.88760205287E+00  0.88000000000E+00 0. -1.
        -11    1    4    4    0    0 -0.37406136012E-01 -0.80591349736E-01  0.44059464904E-01  0.99175008103E-01  0.51100000000E-03 0.  1.
         11    1    4    4    0    0 -0.18076023491E-01 -0.27203950342E-01  0.51315629382E-02  0.33066472425E-01  0.51100000000E-03 0. -1.
</event>
<event>
 8    1  0.1112929E+005  0.1043930E+01  0.7957747E-01            NaN
         13   -1    0    0    0    0  0.00000000000E+00  0.00000000000E+00  0.74505805969E-08  0.10566000000E+00  0.10566000000E+00 0. -1.
     999900   -1    0    0    0    0 -0.00000000000E+00 -0.00000000000E+00 -0.74505805969E-08  0.93827000000E+00  0.93827000000E+00 0.  1.
     999902    2    1    2    0    0 -0.12825458119E-01  0.10379316775E-01  0.16781461993E-01  0.10203961933E+01  0.10201247724E+01 0.  0.
     999903    2    3    3    0    0  0.10444553744E+00  0.26614736982E-01  0.71309853843E-01  0.13079548464E+00  0.20128314189E-01 0.  0.
         14    1    1    2    0    0  0.12825458119E-01 -0.10379316775E-01 -0.16781461993E-01  0.23533806732E-01  0.00000000000E+00 0.  1.
     999901    1    3    3    0    0 -0.11727099556E+00 -0.16235420207E-01 -0.54528391849E-01  0.88960070863E+00  0.88000000000E+00 0. -1.
        -11    1    4    4    0    0  0.93612529393E-01  0.25551124755E-01  0.70349676807E-01  0.11985617958E+00  0.51100000000E-03 0.  1.
         11    1    4    4    0    0  0.10833008047E-01  0.10636122276E-02  0.96017703538E-03  0.10939305063E-01  0.51100000000E-03 0. -1.
</event>
<event>
 8    1  0.1112929E+005  0.1043930E+01  0.7957747E-01            NaN
         13   -1    0    0    0    0  0.00000000000E+00  0.00000000000E+00  0.74505805969E-08  0.10566000000E+00  0.10566000000E+00 0.  1.
     999900   -1    0    0    0    0 -0.00000000000E+00 -0.00000000000E+00 -0.74505805969E-08  0.93827000000E+00  0.93827000000E+00 0. -1.
     999902    2    1    2    0    0  0.81272272375E-02 -0.59239946961E-02 -0.21119743921E-01  0.10205379261E+01  0.10202698024E+01 0.  0.
     999903    2    3    3    0    0 -0.55090696868E-01 -0.26587103206E-01  0.11090682701E+00  0.12820699795E+00  0.19870860772E-01 0.  0.
         14    1    1    2    0    0 -0.81272272375E-02  0.59239946961E-02  0.21119743921E-01  0.23392073851E-01  0.00000000000E+00 0.  1.
     999901    1    3    3    0    0  0.63217924106E-01  0.20663108510E-01 -0.13202657093E+00  0.89233092820E+00  0.88000000000E+00 0. -1.
        -11    1    4    4    0    0 -0.42675353374E-01 -0.22945781066E-01  0.68776830388E-01  0.84132087657E-01  0.51100000000E-03 0.  1.
         11    1    4    4    0    0 -0.12415343494E-01 -0.36413221405E-02  0.42129996625E-01  0.44074910297E-01  0.51100000000E-03 0. -1.
</event>
<event>
 8    1  0.1112929E+005  0.1043930E+01  0.7957747E-01            NaN
         13   -1    0    0    0    0  0.00000000000E+00  0.00000000000E+00  0.74505805969E-08  0.10566000000E+00  0.10566000000E+00 0. -1.
     999900   -1    0    0    0    0 -0.00000000000E+00 -0.00000000000E+00 -0.74505805969E-08  0.93827000000E+00  0.93827000000E+00 0. -1.
     999902    2    1    2    0    0  0.12964399326E-01  0.99027413326E-04  0.20658424381E-01  0.10195403310E+01  0.10192485617E+01 0.  0.
     999903    2    3    3    0    0  0.58203894073E-02  0.51199855175E-01 -0.11504604442E+00  0.12764457793E+00  0.20056017432E-01 0.  0.
         14    1    1    2    0    0 -0.12964399326E-01 -0.99027413326E-04 -0.20658424381E-01  0.24389669006E-01  0.00000000000E+00 0.  1.
     999901    1    3    3    0    0  0.71440099188E-02 -0.51100827762E-01  0.13570446880E+00  0.89189575306E+00  0.88000000000E+00 0.  1.
        -11    1    4    4    0    0 -0.37734853222E-02  0.35997793488E-01 -0.88120009950E-01  0.95265301144E-01  0.51100000000E-03 0. -1.
         11    1    4    4    0    0  0.95938747295E-02  0.15202061688E-01 -0.26926034473E-01  0.32379276788E-01  0.51100000000E-03 0.  1.
</event>
<event>
 8    1  0.1112929E+005  0.1043930E+01  0.7957747E-01            NaN
         13   -1    0    0    0    0  0.00000000000E+00  0.00000000000E+00  0.74505805969E-08  0.10566000000E+00  0.10566000000E+00 0.  1.
     999900   -1    0    0    0    0 -0.00000000000E+00 -0.00000000000E+00 -0.74505805969E-08  0.93827000000E+00  0.93827000000E+00 0. -1.
     999902    2    1    2    0    0 -0.22849377553E-02 -0.25070211778E-02 -0.23499257807E-01  0.10201871861E+01  0.10199108654E+01 0.  0.
     999903    2    3    3    0    0 -0.69417026606E-01 -0.77109506899E-01 -0.80248573431E-01  0.13266663248E+00  0.19899803975E-01 0.  0.
         14    1    1    2    0    0  0.22849377553E-02  0.25070211778E-02  0.23499257807E-01  0.23742813928E-01  0.00000000000E+00 0.  1.
     999901    1    3    3    0    0  0.67132088851E-01  0.74602485721E-01  0.56749315624E-01  0.88752055359E+00  0.88000000000E+00 0.  1.
        -11    1    4    4    0    0 -0.47935762472E-01 -0.65326559332E-01 -0.59024732005E-01  0.10024757746E+00  0.51100000000E-03 0.  1.
         11    1    4    4    0    0 -0.21481264135E-01 -0.11782947566E-01 -0.21223841425E-01  0.32419055014E-01  0.51100000000E-03 0. -1.
</event>
<event>
 8    1  0.1112929E+005  0.1043930E+01  0.7957747E-01            NaN
         13   -1    0    0    0    0  0.00000000000E+00  0.00000000000E+00  0.74505805969E-08  0.10566000000E+00  0.10566000000E+00 0. -1.
     999900   -1    0    0    0    0 -0.00000000000E+00 -0.00000000000E+00 -0.74505805969E-08  0.93827000000E+00  0.93827000000E+00 0.  1.
     999902    2    1    2    0    0  0.10483924708E-01  0.21327267787E-01  0.10547542490E-02  0.10201418194E+01  0.10198644293E+01 0.  0.
     999903    2    3    3    0    0 -0.91444684157E-01  0.69647595363E-01  0.58572133102E-01  0.13107908585E+00  0.23197288007E-01 0.  0.
         14    1    1    2    0    0 -0.10483924708E-01 -0.21327267787E-01 -0.10547542490E-02  0.23788180575E-01  0.00000000000E+00 0.  1.
     999901    1    3    3    0    0  0.10192860886E+00 -0.48320327576E-01 -0.57517378853E-01  0.88906273358E+00  0.88000000000E+00 0.  1.
        -11    1    4    4    0    0 -0.13350561331E-01  0.19992670028E-01  0.17972264295E-01  0.30020122378E-01  0.51100000000E-03 0.  1.
         11    1    4    4    0    0 -0.78094122826E-01  0.49654925335E-01  0.40599868807E-01  0.10105896347E+00  0.51100000000E-03 0. -1.
</event>
<event>
 8    1  0.1112929E+005  0.1043930E+01  0.7957747E-01            NaN
         13   -1    0    0    0    0  0.00000000000E+00  0.00000000000E+00  0.74505805969E-08  0.10566000000E+00  0.10566000000E+00 0. -1.
     999900   -1    0    0    0    0 -0.00000000000E+00 -0.00000000000E+00 -0.74505805969E-08  0.93827000000E+00  0.93827000000E+00 0. -1.
     999902    2    1    2    0    0 -0.12533954977E-01 -0.20074805173E-01 -0.18006919655E-02  0.10201952086E+01  0.10199190769E+01 0.  0.
     999903    2    3    3    0    0  0.73141136698E-01  0.27849594666E-01 -0.10045943795E+00  0.12925720989E+00  0.22138243692E-01 0.  0.
         14    1    1    2    0    0  0.12533954977E-01  0.20074805173E-01  0.18006919655E-02  0.23734791376E-01  0.00000000000E+00 0.  1.
     999901    1    3    3    0    0 -0.85675091675E-01 -0.47924399839E-01  0.98658745986E-01  0.89093799874E+00  0.88000000000E+00 0.  1.
        -11    1    4    4    0    0  0.50494902128E-01  0.25983446704E-01 -0.83126736771E-01  0.10067368142E+00  0.51100000000E-03 0. -1.
         11    1    4    4    0    0  0.22646234570E-01  0.18661479622E-02 -0.17332701181E-01  0.28583528467E-01  0.51100000000E-03 0.  1.
</event>
<event>
 8    1  0.1112929E+005  0.1043930E+01  0.7957747E-01            NaN
         13   -1    0    0    0    0  0.00000000000E+00  0.00000000000E+00  0.74505805969E-08  0.10566000000E+00  0.10566000000E+00 0.  1.
     999900   -1    0    0    0    0 -0.00000000000E+00 -0.00000000000E+00 -0.74505805969E-08  0.93827000000E+00  0.93827000000E+00 0.  1.
     999902    2    1    2    0    0  0.12221558777E-01  0.80473760690E-02  0.18725960269E-01  0.10201647239E+01  0.10198878740E+01 0.  0.
     999903    2    3    3    0    0 -0.10296934780E+00  0.20934399183E-01  0.75130323731E-01  0.13077365550E+00  0.20402151173E-01 0.  0.
         14    1    1    2    0    0 -0.12221558777E-01 -0.80473760690E-02 -0.18725960269E-01  0.23765276108E-01  0.00000000000E+00 0. -1.
     999901    1    3    3    0    0  0.11519090658E+00 -0.12887023114E-01 -0.56404363463E-01  0.88939106839E+00  0.88000000000E+00 0.  1.
        -11    1    4    4    0    0 -0.40055980424E-01  0.59787179710E-02  0.41076516128E-01  0.57686809017E-01  0.51100000000E-03 0. -1.
         11    1    4    4    0    0 -0.62913367376E-01  0.14955681212E-01  0.34053807603E-01  0.73086846480E-01  0.51100000000E-03 0.  1.
</event>
<event>
 8    1  0.1112929E+005  0.1043930E+01  0.7957747E-01            NaN
         13   -1    0    0    0    0  0.00000000000E+00  0.00000000000E+00  0.74505805969E-08  0.10566000000E+00  0.10566000000E+00 0. -1.
     999900   -1    0    0    0    0 -0.00000000000E+00 -0.00000000000E+00 -0.74505805969E-08  0.93827000000E+00  0.93827000000E+00 0. -1.
     999902    2    1    2    0    0  0.17682542346E-01  0.16857041883E-01 -0.38259868055E-02  0.10192020737E+01  0.10189020545E+01 0.  0.
     999903    2    3    3    0    0  0.50274380921E-01 -0.77217370154E-01  0.87818001470E-01  0.12885896930E+00  0.20064818853E-01 0.  0.
         14    1    1    2    0    0 -0.17682542346E-01 -0.16857041883E-01  0.38259868055E-02  0.24727926317E-01  0.00000000000E+00 0. -1.
     999901    1    3    3    0    0 -0.32591838575E-01  0.94074412037E-01 -0.91643988275E-01  0.89034310439E+00  0.88000000000E+00 0. -1.
        -11    1    4    4    0    0  0.19696604714E-01 -0.19212071833E-01  0.35821936931E-01  0.45172250640E-01  0.51100000000E-03 0. -1.
         11    1    4    4    0    0  0.30577776207E-01 -0.58005298321E-01  0.51996064539E-01  0.83686718657E-01  0.51100000000E-03 0.  1.
</event>
<event>
 8    1  0.1112929E+005  0.1043930E+01  0.7957747E-01            NaN
         13   -1    0    0    0    0  0.00000000000E+00  0.00000000000E+00  0.74505805969E-08  0.10566000000E+00  0.10566000000E+00 0. -1.
     999900   -1    0    0    0    0 -0.00000000000E+00 -0.00000000000E+00 -0.74505805969E-08  0.93827000000E+00  0.93827000000E+00 0.  1.
     999902    2    1    2    0    0 -0.73205499756E-03 -0.79826921992E-02 -0.22826058663E-01  0.10197372690E+01  0.10194502487E+01 0.  0.
     999903    2    3    3    0    0 -0.63902471244E-01 -0.70261112151E-01 -0.90801193923E-01  0.13266922082E+00  0.18333456408E-01 0.  0.
         14    1    1    2    0    0  0.73205499756E-03  0.79826921992E-02  0.22826058663E-01  0.24192731003E-01  0.00000000000E+00 0. -1.
     999901    1    3    3    0    0  0.63170416247E-01  0.62278419952E-01  0.67975135259E-01  0.88706804818E+00  0.88000000000E+00 0.  1.
        -11    1    4    4    0    0 -0.36963006839E-01 -0.29145036866E-01 -0.37722280018E-01  0.60323532549E-01  0.51100000000E-03 0. -1.
         11    1    4    4    0    0 -0.26939464406E-01 -0.41116075285E-01 -0.53078913905E-01  0.72345688273E-01  0.51100000000E-03 0.  1.
</event>
<event>
 8    1  0.1112929E+005  0.1043930E+01  0.7957747E-01            NaN
         13   -1    0    0    0    0  0.00000000000E+00  0.00000000000E+00  0.74505805969E-08  0.10566000000E+00  0.10566000000E+00 0. -1.
     999900   -1    0    0    0    0 -0.00000000000E+00 -0.00000000000E+00 -0.74505805969E-08  0.93827000000E+00  0.93827000000E+00 0. -1.
     999902    2    1    2    0    0  0.58241358269E-02  0.19807381918E-01 -0.12515165189E-01  0.10197870446E+01  0.10195012182E+01 0.  0.
     999903    2    3    3    0    0  0.43185443905E-01 -0.55957573016E-01  0.10480488922E+00  0.12799099676E+00  0.20034917129E-01 0.  0.
         14    1    1    2    0    0 -0.58241358269E-02 -0.19807381918E-01  0.12515165189E-01  0.24142955418E-01  0.00000000000E+00 0. -1.
     999901    1    3    3    0    0 -0.37361308079E-01  0.75764954934E-01 -0.11732005441E+00  0.89179604782E+00  0.88000000000E+00 0. -1.
        -11    1    4    4    0    0  0.15726130163E-01 -0.10601686686E-01  0.17304924954E-01  0.25679339539E-01  0.51100000000E-03 0.  1.
         11    1    4    4    0    0  0.27459313742E-01 -0.45355886329E-01  0.87499964269E-01  0.10231165722E+00  0.51100000000E-03 0. -1.
</event>
<event>
 8    1  0.1112929E+005  0.1043930E+01  0.7957747E-01            NaN
         13   -1    0    0    0    0  0.00000000000E+00  0.00000000000E+00  0.74505805969E-08  0.10566000000E+00  0.10566000000E+00 0. -1.
     999900   -1    0    0    0    0 -0.00000000000E+00 -0.00000000000E+00 -0.74505805969E-08  0.93827000000E+00  0.93827000000E+00 0.  1.
     999902    2    1    2    0    0  0.13724575186E-01  0.11835231509E-01  0.96838927977E-02  0.10233821425E+01  0.10231758378E+01 0.  0.
     999903    2    3    3    0    0  0.10051852516E+00 -0.26207579664E-01  0.84282273623E-01  0.13515617818E+00  0.19310093759E-01 0.  0.
         14    1    1    2    0    0 -0.13724575186E-01 -0.11835231509E-01 -0.96838927977E-02  0.20547857519E-01  0.00000000000E+00 0.  1.
     999901    1    3    3    0    0 -0.86793949976E-01  0.38042811173E-01 -0.74598380825E-01  0.88822596430E+00  0.88000000000E+00 0.  1.
        -11    1    4    4    0    0  0.93219029099E-01 -0.27499998040E-01  0.72611860410E-01  0.12132098199E+00  0.51100000000E-03 0. -1.
         11    1    4    4    0    0  0.72994960633E-02  0.12924183761E-02  0.11670413213E-01  0.13835196190E-01  0.51100000000E-03 0.  1.
</event>
<event>
 8    1  0.1112929E+005  0.1043930E+01  0.7957747E-01            NaN
         13   -1    0    0    0    0  0.00000000000E+00  0.00000000000E+00  0.74505805969E-08  0.10566000000E+00  0.10566000000E+00 0.  1.
     999900   -1    0    0    0    0 -0.00000000000E+00 -0.00000000000E+00 -0.74505805969E-08  0.93827000000E+00  0.93827000000E+00 0. -1.
     999902    2    1    2    0    0 -0.46516113046E-02 -0.54671703553E-02  0.21565612515E-01  0.10212010959E+01  0.10209481256E+01 0.  0.
     999903    2    3    3    0    0 -0.70508938454E-01 -0.10929329123E+00 -0.84812519155E-02  0.13214549302E+00  0.21770755205E-01 0.  0.
         14    1    1    2    0    0  0.46516113046E-02  0.54671703553E-02 -0.21565612515E-01  0.22728904121E-01  0.00000000000E+00 0. -1.
     999901    1    3    3    0    0  0.65857327150E-01  0.10382612087E+00  0.30046864430E-01  0.88905560286E+00  0.88000000000E+00 0.  1.
        -11    1    4    4    0    0 -0.15055376476E-01 -0.41562160845E-01 -0.10674436670E-03  0.44208031966E-01  0.51100000000E-03 0.  1.
         11    1    4    4    0    0 -0.55453561978E-01 -0.67731130381E-01 -0.83745075488E-02  0.87937461053E-01  0.51100000000E-03 0. -1.
</event>
<event>
 8    1  0.1112929E+005  0.1043930E+01  0.7957747E-01            NaN
         13   -1    0    0    0    0  0.00000000000E+00  0.00000000000E+00  0.74505805969E-08  0.10566000000E+00  0.10566000000E+00 0.  1.
     999900   -1    0    0    0    0 -0.00000000000E+00 -0.00000000000E+00 -0.74505805969E-08  0.93827000000E+00  0.93827000000E+00 0.  1.
     999902    2    1    2    0    0 -0.16725489017E-01 -0.71321149051E-02  0.16203793312E-01  0.10195748781E+01  0.10192839448E+01 0.  0.
     999903    2    3    3    0    0  0.56957680778E-01 -0.39311071594E-02  0.11621779629E+00  0.13084417829E+00  0.18814670208E-01 0.  0.
         14    1    1    2    0    0  0.16725489017E-01  0.71321149051E-02 -0.16203793312E-01  0.24355121917E-01  0.00000000000E+00 0. -1.
     999901    1    3    3    0    0 -0.73683169796E-01 -0.32010077457E-02 -0.10001400298E+00  0.88873069979E+00  0.88000000000E+00 0.  1.
        -11    1    4    4    0    0  0.19766246838E-01 -0.10253038779E-01  0.47053435813E-01  0.52058776984E-01  0.51100000000E-03 0. -1.
         11    1    4    4    0    0  0.37191433940E-01  0.63219316196E-02  0.69164360477E-01  0.78785401307E-01  0.51100000000E-03 0.  1.
</event>
<event>
 8    1  0.1112929E+005  0.1043930E+01  0.7957747E-01            NaN
         13   -1    0    0    0    0  0.00000000000E+00  0.00000000000E+00  0.74505805969E-08  0.10566000000E+00  0.10566000000E+00 0. -1.
     999900   -1    0    0    0    0 -0.00000000000E+00 -0.00000000000E+00 -0.74505805969E-08  0.93827000000E+00  0.93827000000E+00 0. -1.
     999902    2    1    2    0    0  0.20584350767E-01 -0.51541165459E-02  0.84392717725E-02  0.10210935878E+01  0.10208381916E+01 0.  0.
     999903    2    3    3    0    0 -0.25959543557E-01  0.11495582427E+00  0.49301143899E-01  0.13077767501E+00  0.27990320760E-01 0.  0.
         14    1    1    2    0    0 -0.20584350767E-01  0.51541165459E-02 -0.84392717725E-02  0.22836412194E-01  0.00000000000E+00 0.  1.
     999901    1    3    3    0    0  0.46543894323E-01 -0.12010994082E+00 -0.40861872127E-01  0.89031591279E+00  0.88000000000E+00 0. -1.
        -11    1    4    4    0    0 -0.28507980184E-01  0.91344311347E-01  0.30345361602E-01  0.10038720158E+00  0.51100000000E-03 0.  1.
         11    1    4    4    0    0  0.25484366276E-02  0.23611512924E-01  0.18955782297E-01  0.30390473430E-01  0.51100000000E-03 0. -1.
</event>
<event>
 8    1  0.1112929E+005  0.1043930E+01  0.7957747E-01            NaN
         13   -1    0    0    0    0  0.00000000000E+00  0.00000000000E+00  0.74505805969E-08  0.10566000000E+00  0.10566000000E+00 0. -1.
     999900   -1    0    0    0    0 -0.00000000000E+00 -0.00000000000E+00 -0.74505805969E-08  0.93827000000E+00  0.93827000000E+00 0. -1.
     999902    2    1    2    0    0 -0.19582524869E-01 -0.12343721215E-01 -0.25322066996E-02  0.10206436348E+01  0.10203779567E+01 0.  0.
     999903    2    3    3    0    0  0.55094894664E-02  0.27969961872E-01 -0.12577639380E+00  0.13078750492E+00  0.21748493378E-01 0.  0.
         14    1    1    2    0    0  0.19582524869E-01  0.12343721215E-01  0.25322066996E-02  0.23286365205E-01  0.00000000000E+00 0. -1.
     999901    1    3    3    0    0 -0.25092014335E-01 -0.40313683088E-01  0.12324418710E+00  0.88985612988E+00  0.88000000000E+00 0.  1.
        -11    1    4    4    0    0  0.12608954688E-01  0.18194883558E-01 -0.61055337868E-01  0.64946554406E-01  0.51100000000E-03 0.  1.
         11    1    4    4    0    0 -0.70994652217E-02  0.97750783143E-02 -0.64721055930E-01  0.65840950511E-01  0.51100000000E-03 0. -1.
</event>
<event>
 8    1  0.1112929E+005  0.1043930E+01  0.7957747E-01            NaN
         13   -1    0    0    0    0  0.00000000000E+00  0.00000000000E+00  0.74505805969E-08  0.10566000000E+00  0.10566000000E+00 0.  1.
     999900   -1    0    0    0    0 -0.00000000000E+00 -0.00000000000E+00 -0.74505805969E-08  0.93827000000E+00  0.93827000000E+00 0. -1.
     999902    2    1    2    0    0  0.61032965591E-02  0.24105549855E-01 -0.57389369423E-03  0.10190571812E+01  0.10187535921E+01 0.  0.
     999903    2    3    3    0    0 -0.11287783207E+00 -0.51114187865E-01  0.24548184871E-01  0.12751602298E+00  0.17425772920E-01 0.  0.
         14    1    1    2    0    0 -0.61032965591E-02 -0.24105549855E-01  0.57389369423E-03  0.24872818833E-01  0.00000000000E+00 0.  1.
     999901    1    3    3    0    0  0.11898112863E+00  0.75219737721E-01 -0.25122078566E-01  0.89154115819E+00  0.88000000000E+00 0.  1.
        -11    1    4    4    0    0 -0.57053892253E-01 -0.33416330314E-01  0.76509065106E-02  0.66562716624E-01  0.51100000000E-03 0.  1.
         11    1    4    4    0    0 -0.55823939817E-01 -0.17697857551E-01  0.16897278361E-01  0.60953306355E-01  0.51100000000E-03 0. -1.
</event>
<event>
 8    1  0.1112929E+005  0.1043930E+01  0.7957747E-01            NaN
         13   -1    0    0    0    0  0.00000000000E+00  0.00000000000E+00  0.74505805969E-08  0.10566000000E+00  0.10566000000E+00 0. -1.
     999900   -1    0    0    0    0 -0.00000000000E+00 -0.00000000000E+00 -0.74505805969E-08  0.93827000000E+00  0.93827000000E+00 0.  1.
     999902    2    1    2    0    0  0.50810883449E-02 -0.23596293170E-02  0.22238537365E-01  0.10209966650E+01  0.10207390715E+01 0.  0.
     999903    2    3    3    0    0 -0.28715921568E-01  0.94013108565E-01  0.87220307893E-01  0.13271035251E+00  0.18482067553E-01 0.  0.
         14    1    1    2    0    0 -0.50810883449E-02  0.23596293170E-02 -0.22238537365E-01  0.22933334983E-01  0.00000000000E+00 0.  1.
     999901    1    3    3    0    0  0.33797009913E-01 -0.96372737882E-01 -0.64981770528E-01  0.88828631251E+00  0.88000000000E+00 0.  1.
        -11    1    4    4    0    0 -0.18899681136E-01  0.50932439165E-01  0.59381009112E-01  0.80484015000E-01  0.51100000000E-03 0. -1.
         11    1    4    4    0    0 -0.98162404325E-02  0.43080669400E-01  0.27839298781E-01  0.52226337511E-01  0.51100000000E-03 0.  1.
</event>
<event>
 8    1  0.1112929E+005  0.1043930E+01  0.7957747E-01            NaN
         13   -1    0    0    0    0  0.00000000000E+00  0.00000000000E+00  0.74505805969E-08  0.10566000000E+00  0.10566000000E+00 0. -1.
     999900   -1    0    0    0    0 -0.00000000000E+00 -0.00000000000E+00 -0.74505805969E-08  0.93827000000E+00  0.93827000000E+00 0.  1.
     999902    2    1    2    0    0 -0.16345671265E-01  0.47459507114E-02  0.16566071849E-01  0.10201783737E+01  0.10199018454E+01 0.  0.
     999903    2    3    3    0    0 -0.10571053695E+00  0.66465768738E-01  0.41702965191E-01  0.13314552277E+00  0.19904192833E-01 0.  0.
         14    1    1    2    0    0  0.16345671265E-01 -0.47459507114E-02 -0.16566071849E-01  0.23751626339E-01  0.00000000000E+00 0.  1.
     999901    1    3    3    0    0  0.89364865680E-01 -0.61719818026E-01 -0.25136893342E-01  0.88703285089E+00  0.88000000000E+00 0.  1.
        -11    1    4    4    0    0 -0.73563457175E-01  0.46806729111E-01  0.19299491529E-01  0.89303883543E-01  0.51100000000E-03 0.  1.
         11    1    4    4    0    0 -0.32147079770E-01  0.19659039627E-01  0.22403473662E-01  0.43841639225E-01  0.51100000000E-03 0. -1.
</event>
<event>
 8    1  0.1112929E+005  0.1043930E+01  0.7957747E-01            NaN
         13   -1    0    0    0    0  0.00000000000E+00  0.00000000000E+00  0.74505805969E-08  0.10566000000E+00  0.10566000000E+00 0.  1.
     999900   -1    0    0    0    0 -0.00000000000E+00 -0.00000000000E+00 -0.74505805969E-08  0.93827000000E+00  0.93827000000E+00 0. -1.
     999902    2    1    2    0    0  0.68880757061E-02 -0.10965761947E-01  0.19667067090E-01  0.10203824513E+01  0.10201107096E+01 0.  0.
     999903    2    3    3    0    0  0.95935879122E-01 -0.87221069782E-01  0.19876961609E-01  0.13260746442E+00  0.19453485561E-01 0.  0.
         14    1    1    2    0    0 -0.68880757061E-02  0.10965761947E-01 -0.19667067090E-01  0.23547548703E-01  0.00000000000E+00 0. -1.
     999901    1    3    3    0    0 -0.89047803416E-01  0.76255307835E-01 -0.20989451883E-03  0.88777498688E+00  0.88000000000E+00 0. -1.
        -11    1    4    4    0    0  0.51719877607E-01 -0.40346618459E-01  0.18484555820E-01  0.68152294794E-01  0.51100000000E-03 0. -1.
         11    1    4    4    0    0  0.44216001515E-01 -0.46874451323E-01  0.13924057891E-02  0.64455169627E-01  0.51100000000E-03 0.  1.
</event>
<event>
 8    1  0.1112929E+005  0.1043930E+01  0.7957747E-01            NaN
         13   -1    0    0    0    0  0.00000000000E+00  0.00000000000E+00  0.74505805969E-08  0.10566000000E+00  0.10566000000E+00 0.  1.
     999900   -1    0    0    0    0 -0.00000000000E+00 -0.00000000000E+00 -0.74505805969E-08  0.93827000000E+00  0.93827000000E+00 0.  1.
     999902    2    1    2    0    0  0.16834546589E-01 -0.15525164225E-01 -0.60984935682E-02  0.10202313860E+01  0.10199561052E+01 0.  0.
     999903    2    3    3    0    0  0.76458607420E-01 -0.12382201323E-01 -0.10575288928E+00  0.13259637910E+00  0.19972195655E-01 0.  0.
         14    1    1    2    0    0 -0.16834546589E-01  0.15525164225E-01  0.60984935682E-02  0.23698614028E-01  0.00000000000E+00 0.  1.
     999901    1    3    3    0    0 -0.59624060831E-01 -0.31429629019E-02  0.99654395716E-01  0.88763500688E+00  0.88000000000E+00 0. -1.
        -11    1    4    4    0    0  0.61933934813E-01 -0.84448399024E-02 -0.70261353448E-01  0.94042790855E-01  0.51100000000E-03 0.  1.
         11    1    4    4    0    0  0.14524672607E-01 -0.39373614208E-02 -0.35491535836E-01  0.38553588241E-01  0.51100000000E-03 0. -1.
</event>
<event>
 8    1  0.1112929E+005  0.1043930E+01  0.7957747E-01            NaN
         13   -1    0    0    0    0  0.00000000000E+00  0.00000000000E+00  0.74505805969E-08  0.10566000000E+00  0.10566000000E+00 0. -1.
     999900   -1    0    0    0    0 -0.00000000000E+00 -0.00000000000E+00 -0.74505805969E-08  0.93827000000E+00  0.93827000000E+00 0.  1.
     999902    2    1    2    0    0 -0.15441415404E-01  0.18722971272E-02 -0.15842876869E-01  0.10217277579E+01  0.10214865010E+01 0.  0.
     999903    2    3    3    0    0 -0.12112417550E+00  0.52550723607E-01 -0.50218135619E-02  0.13389092375E+00  0.21654477761E-01 0.  0.
         14    1    1    2    0    0  0.15441415404E-01 -0.18722971272E-02  0.15842876869E-01  0.22202242087E-01  0.00000000000E+00 0. -1.
     999901    1    3    3    0    0  0.10568276010E+00 -0.50678426480E-01 -0.10821063307E-01  0.88783683417E+00  0.88000000000E+00 0. -1.
        -11    1    4    4    0    0 -0.17760145834E-01  0.99853590875E-02  0.67895076852E-02  0.21482288327E-01  0.51100000000E-03 0. -1.
         11    1    4    4    0    0 -0.10336402967E+00  0.42565364520E-01 -0.11811321247E-01  0.11240863542E+00  0.51100000000E-03 0.  1.
</event>
<event>
 8    1  0.1112929E+005  0.1043930E+01  0.7957747E-01            NaN
         13   -1    0    0    0    0  0.00000000000E+00  0.00000000000E+00  0.74505805969E-08  0.10566000000E+00  0.10566000000E+00 0.  1.
     999900   -1    0    0    0    0 -0.00000000000E+00 -0.00000000000E+00 -0.74505805969E-08  0.93827000000E+00  0.93827000000E+00 0.  1.
     999902    2    1    2    0    0 -0.10083270127E-01 -0.39810634788E-03  0.21977895948E-01  0.10197461472E+01  0.10194593401E+01 0.  0.
     999903    2    3    3    0    0  0.47239230682E-01  0.68435247381E-01  0.10027839427E+00  0.13174002803E+00  0.19615061255E-01 0.  0.
         14    1    1    2    0    0  0.10083270127E-01  0.39810634788E-03 -0.21977895948E-01  0.24183852782E-01  0.00000000000E+00 0. -1.
     999901    1    3    3    0    0 -0.57322500808E-01 -0.68833353728E-01 -0.78300498320E-01  0.88800611919E+00  0.88000000000E+00 0.  1.
        -11    1    4    4    0    0  0.45341322226E-01  0.54085066834E-01  0.87567663377E-01  0.11246949251E+00  0.51100000000E-03 0.  1.
         11    1    4    4    0    0  0.18979084553E-02  0.14350180547E-01  0.12710730891E-01  0.19270535514E-01  0.51100000000E-03 0. -1.
</event>
<event>
 8    1  0.1112929E+005  0.1043930E+01  0.7957747E-01            NaN
         13   -1    0    0    0    0  0.00000000000E+00  0.00000000000E+00  0.74505805969E-08  0.10566000000E+00  0.10566000000E+00 0.  1.
     999900   -1    0    0    0    0 -0.00000000000E+00 -0.00000000000E+00 -0.74505805969E-08  0.93827000000E+00  0.93827000000E+00 0. -1.
     999902    2    1    2    0    0 -0.23057809745E-01 -0.70005112814E-02 -0.51821127069E-02  0.10192819972E+01  0.10189839380E+01 0.  0.
     999903    2    3    3    0    0  0.11734473739E+00 -0.24540770371E-01 -0.37419011498E-01  0.12739649248E+00  0.21392687328E-01 0.  0.
         14    1    1    2    0    0  0.23057809745E-01  0.70005112814E-02  0.51821127069E-02  0.24648002770E-01  0.00000000000E+00 0.  1.
     999901    1    3    3    0    0 -0.14040254714E+00  0.17540259090E-01  0.32236898791E-01  0.89188550475E+00  0.88000000000E+00 0. -1.
        -11    1    4    4    0    0  0.52605011485E-01 -0.20015343377E-01 -0.11140113315E-01  0.57378257637E-01  0.51100000000E-03 0.  1.
         11    1    4    4    0    0  0.64739725910E-01 -0.45254269945E-02 -0.26278898183E-01  0.70018234847E-01  0.51100000000E-03 0. -1.
</event>
<event>
 8    1  0.1112929E+005  0.1043930E+01  0.7957747E-01            NaN
         13   -1    0    0    0    0  0.00000000000E+00  0.00000000000E+00  0.74505805969E-08  0.10566000000E+00  0.10566000000E+00 0. -1.
     999900   -1    0    0    0    0 -0.00000000000E+00 -0.00000000000E+00 -0.74505805969E-08  0.93827000000E+00  0.93827000000E+00 0. -1.
     999902    2    1    2    0    0 -0.21560097431E-02 -0.17246540333E-01 -0.15569531304E-01  0.10205954369E+01  0.10203286451E+01 0.  0.
     999903    2    3    3    0    0  0.89097288936E-01  0.25263361074E-01 -0.91309313575E-01  0.13162368768E+00  0.20269191025E-01 0.  0.
         14    1    1    2    0    0  0.21560097431E-02  0.17246540333E-01  0.15569531304E-01  0.23334563131E-01  0.00000000000E+00 0. -1.
     999901    1    3    3    0    0 -0.91253298679E-01 -0.42509901406E-01  0.75739782270E-01  0.88897174919E+00  0.88000000000E+00 0.  1.
        -11    1    4    4    0    0  0.51785073806E-01  0.21915368577E-01 -0.44778157426E-01  0.71884085529E-01  0.51100000000E-03 0. -1.
         11    1    4    4    0    0  0.37312215130E-01  0.33479924964E-02 -0.46531156149E-01  0.59739602151E-01  0.51100000000E-03 0.  1.
</event>
<event>
 8    1  0.1112929E+005  0.1043930E+01  0.7957747E-01            NaN
         13   -1    0    0    0    0  0.00000000000E+00  0.00000000000E+00  0.74505805969E-08  0.10566000000E+00  0.10566000000E+00 0. -1.
     999900   -1    0    0    0    0 -0.00000000000E+00 -0.00000000000E+00 -0.74505805969E-08  0.93827000000E+00  0.93827000000E+00 0.  1.
     999902    2    1    2    0    0 -0.35295094311E-02 -0.76430050847E-02 -0.22415839392E-01  0.10199854219E+01  0.10197043288E+01 0.  0.
     999903    2    3    3    0    0  0.81975276388E-01  0.72400381032E-01 -0.69212911250E-01  0.13099274592E+00  0.20172042215E-01 0.  0.
         14    1    1    2    0    0  0.35295094311E-02  0.76430050847E-02  0.22415839392E-01  0.23944578075E-01  0.00000000000E+00 0. -1.
     999901    1    3    3    0    0 -0.85504785819E-01 -0.80043386117E-01  0.46797071858E-01  0.88899267601E+00  0.88000000000E+00 0. -1.
        -11    1    4    4    0    0  0.16675736613E-01  0.24577338599E-01 -0.24619244888E-01  0.38581007037E-01  0.51100000000E-03 0.  1.
         11    1    4    4    0    0  0.65299539775E-01  0.47823042434E-01 -0.44593666362E-01  0.92411738881E-01  0.51100000000E-03 0. -1.
</event>
<event>
 8    1  0.1112929E+005  0.1043930E+01  0.7957747E-01            NaN
         13   -1    0    0    0    0  0.00000000000E+00  0.00000000000E+00  0.74505805969E-08  0.10566000000E+00  0.10566000000E+00 0. -1.
     999900   -1    0    0    0    0 -0.00000000000E+00 -0.00000000000E+00 -0.74505805969E-08  0.93827000000E+00  0.93827000000E+00 0.  1.
     999902    2    1    2    0    0 -0.43572637500E-02 -0.12327181185E-01 -0.19479610365E-01  0.10204693870E+01  0.10201996713E+01 0.  0.
     999903    2    3    3    0    0 -0.34017525292E-01  0.30681655319E-01 -0.12286432260E+00  0.13287832694E+00  0.21504697263E-01 0.  0.
         14    1    1    2    0    0  0.43572637500E-02  0.12327181185E-01  0.19479610365E-01  0.23460613021E-01  0.00000000000E+00 0. -1.
     999901    1    3    3    0    0  0.29660261542E-01 -0.43008836504E-01  0.10338471223E+00  0.88759106004E+00  0.88000000000E+00 0.  1.
        -11    1    4    4    0    0 -0.45859516011E-02  0.45328599102E-02 -0.38662995047E-02  0.75357258385E-02  0.51100000000E-03 0. -1.
         11    1    4    4    0    0 -0.29431573690E-01  0.26148795409E-01 -0.11899802309E+00  0.12534260110E+00  0.51100000000E-03 0.  1.
</event>
<event>
 8    1  0.1112929E+005  0.1043930E+01  0.7957747E-01            NaN
         13   -1    0    0    0    0  0.00000000000E+00  0.00000000000E+00  0.74505805969E-08  0.10566000000E+00  0.10566000000E+00 0. -1.
     999900   -1    0    0    0    0 -0.00000000000E+00 -0.00000000000E+00 -0.74505805969E-08  0.93827000000E+00  0.93827000000E+00 0.  1.
     999902    2    1    2    0    0 -0.23004381820E-01 -0.26980707401E-02 -0.29678450883E-02  0.10205785702E+01  0.10203113881E+01 0.  0.
     999903    2    3    3    0    0  0.43037483152E-01 -0.12119059359E+00 -0.11280206295E-02  0.13018237140E+00  0.20169096765E-01 0.  0.
         14    1    1    2    0    0  0.23004381820E-01  0.26980707401E-02  0.29678450883E-02  0.23351429787E-01  0.00000000000E+00 0.  1.
     999901    1    3    3    0    0 -0.66041864972E-01  0.11849252285E+00 -0.18398244588E-02  0.89039619881E+00  0.88000000000E+00 0.  1.
        -11    1    4    4    0    0  0.36427278955E-01 -0.76419346478E-01  0.31781202450E-02  0.84718502923E-01  0.51100000000E-03 0.  1.
         11    1    4    4    0    0  0.66102041967E-02 -0.44771247107E-01 -0.43061408745E-02  0.45463868481E-01  0.51100000000E-03 0. -1.
</event>
<event>
 8    1  0.1112929E+005  0.1043930E+01  0.7957747E-01            NaN
         13   -1    0    0    0    0  0.00000000000E+00  0.00000000000E+00  0.74505805969E-08  0.10566000000E+00  0.10566000000E+00 0.  1.
     999900   -1    0    0    0    0 -0.00000000000E+00 -0.00000000000E+00 -0.74505805969E-08  0.93827000000E+00  0.93827000000E+00 0. -1.
     999902    2    1    2    0    0  0.15935961310E-01 -0.53278070657E-02  0.16689312575E-01  0.10202472310E+01  0.10199723226E+01 0.  0.
     999903    2    3    3    0    0 -0.84774801507E-01 -0.93939502131E-01  0.22478527551E-01  0.13006286517E+00  0.19991689858E-01 0.  0.
         14    1    1    2    0    0 -0.15935961310E-01  0.53278070657E-02 -0.16689312575E-01  0.23682768952E-01  0.00000000000E+00 0. -1.
     999901    1    3    3    0    0  0.10071076282E+00  0.88611695065E-01 -0.57892149768E-02  0.89018436588E+00  0.88000000000E+00 0.  1.
        -11    1    4    4    0    0 -0.99177758210E-02 -0.18921681508E-01 -0.14419322135E-02  0.21418043744E-01  0.51100000000E-03 0.  1.
         11    1    4    4    0    0 -0.74857025686E-01 -0.75017820623E-01  0.23920459765E-01  0.10864482142E+00  0.51100000000E-03 0. -1.
</event>
<event>
 8    1  0.1112929E+005  0.1043930E+01  0.7957747E-01            NaN
         13   -1    0    0    0    0  0.00000000000E+00  0.00000000000E+00  0.74505805969E-08  0.10566000000E+00  0.10566000000E+00 0.  1.
     999900   -1    0    0    0    0 -0.00000000000E+00 -0.00000000000E+00 -0.74505805969E-08  0.93827000000E+00  0.93827000000E+00 0.  1.
     999902    2    1    2    0    0  0.70223987981E-02 -0.95949461627E-02  0.20850145755E-01  0.10199277990E+01  0.10196453351E+01 0.  0.
     999903    2    3    3    0    0  0.10232068531E+00 -0.11931366312E-01 -0.75828105539E-01  0.12951558737E+00  0.20310234804E-01 0.  0.
         14    1    1    2    0    0 -0.70223987981E-02  0.95949461627E-02 -0.20850145755E-01  0.24002201040E-01  0.00000000000E+00 0. -1.
     999901    1    3    3    0    0 -0.95298286515E-01  0.23364201491E-02  0.96678251294E-01  0.89041221159E+00  0.88000000000E+00 0. -1.
        -11    1    4    4    0    0  0.82338281017E-01 -0.67444840155E-02 -0.50468194381E-01  0.96811054898E-01  0.51100000000E-03 0.  1.
         11    1    4    4    0    0  0.19982404296E-01 -0.51868822962E-02 -0.25359911158E-01  0.32704532474E-01  0.51100000000E-03 0. -1.
</event>
<event>
 8    1  0.1112929E+005  0.1043930E+01  0.7957747E-01            NaN
         13   -1    0    0    0    0  0.00000000000E+00  0.00000000000E+00  0.74505805969E-08  0.10566000000E+00  0.10566000000E+00 0. -1.
     999900   -1    0    0    0    0 -0.00000000000E+00 -0.00000000000E+00 -0.74505805969E-08  0.93827000000E+00  0.93827000000E+00 0. -1.
     999902    2    1    2    0    0 -0.29299494496E-04 -0.21501208967E-01  0.84082261385E-02  0.10208431831E+01  0.10205820905E+01 0.  0.
     999903    2    3    3    0    0  0.11597258509E-02 -0.63138055010E-01  0.11576433412E+00  0.13334085941E+00  0.19764735742E-01 0.  0.
         14    1    1    2    0    0  0.29299494496E-04  0.21501208967E-01 -0.84082261385E-02  0.23086816851E-01  0.00000000000E+00 0. -1.
     999901    1    3    3    0    0 -0.11890253454E-02  0.41636846043E-01 -0.10735610798E+00  0.88750232374E+00  0.88000000000E+00 0. -1.
        -11    1    4    4    0    0  0.63884422586E-03 -0.38095742879E-01  0.49283960108E-01  0.62296577694E-01  0.51100000000E-03 0.  1.
         11    1    4    4    0    0  0.52088162503E-03 -0.25042312131E-01  0.66480374010E-01  0.71044281712E-01  0.51100000000E-03 0. -1.
</event>
<event>
 8    1  0.1112929E+005  0.1043930E+01  0.7957747E-01            NaN
         13   -1    0    0    0    0  0.00000000000E+00  0.00000000000E+00  0.74505805969E-08  0.10566000000E+00  0.10566000000E+00 0. -1.
     999900   -1    0    0    0    0 -0.00000000000E+00 -0.00000000000E+00 -0.74505805969E-08  0.93827000000E+00  0.93827000000E+00 0.  1.
     999902    2    1    2    0    0  0.15897383045E-01 -0.14233435409E-02 -0.17348895030E-01  0.10203559284E+01  0.10200835670E+01 0.  0.
     999903    2    3    3    0    0 -0.32854984385E-01 -0.12239782177E+00 -0.24713987622E-01  0.13071225683E+00  0.20352791687E-01 0.  0.
         14    1    1    2    0    0 -0.15897383045E-01  0.14233435409E-02  0.17348895030E-01  0.23574071631E-01  0.00000000000E+00 0.  1.
     999901    1    3    3    0    0  0.48752367430E-01  0.12097447823E+00  0.73650925917E-02  0.88964367153E+00  0.88000000000E+00 0.  1.
        -11    1    4    4    0    0 -0.18968669351E-01 -0.73139397950E-01 -0.24814912968E-01  0.79531270429E-01  0.51100000000E-03 0. -1.
         11    1    4    4    0    0 -0.13886315034E-01 -0.49258423820E-01  0.10092534638E-03  0.51180986405E-01  0.51100000000E-03 0.  1.
</event>
<event>
 8    1  0.1112929E+005  0.1043930E+01  0.7957747E-01            NaN
         13   -1    0    0    0    0  0.00000000000E+00  0.00000000000E+00  0.74505805969E-08  0.10566000000E+00  0.10566000000E+00 0.  1.
     999900   -1    0    0    0    0 -0.00000000000E+00 -0.00000000000E+00 -0.74505805969E-08  0.93827000000E+00  0.93827000000E+00 0.  1.
     999902    2    1    2    0    0 -0.13198977121E-01  0.13524966594E-01 -0.12684606123E-01  0.10211695749E+01  0.10209158945E+01 0.  0.
     999903    2    3    3    0    0 -0.57779297457E-01 -0.23032386492E-01  0.11327280139E+00  0.13033338707E+00  0.16944798911E-01 0.  0.
         14    1    1    2    0    0  0.13198977121E-01 -0.13524966594E-01  0.12684606123E-01  0.22760425103E-01  0.00000000000E+00 0.  1.
     999901    1    3    3    0    0  0.44580320336E-01  0.36557353086E-01 -0.12595740751E+00  0.89083618782E+00  0.88000000000E+00 0.  1.
        -11    1    4    4    0    0 -0.43945911635E-01 -0.24172442162E-01  0.94431138959E-01  0.10692544709E+00  0.51100000000E-03 0.  1.
         11    1    4    4    0    0 -0.13833385822E-01  0.11400556697E-02  0.18841662429E-01  0.23407939984E-01  0.51100000000E-03 0. -1.
</event>
<event>
 8    1  0.1112929E+005  0.1043930E+01  0.7957747E-01            NaN
         13   -1    0    0    0    0  0.00000000000E+00  0.00000000000E+00  0.74505805969E-08  0.10566000000E+00  0.10566000000E+00 0. -1.
     999900   -1    0    0    0    0 -0.00000000000E+00 -0.00000000000E+00 -0.74505805969E-08  0.93827000000E+00  0.93827000000E+00 0.  1.
     999902    2    1    2    0    0 -0.47060343241E-03  0.13950589874E-01  0.62324643662E-02  0.10286432725E+01  0.10285296778E+01 0.  0.
     999903    2    3    3    0    0 -0.21527264505E-01 -0.60491802536E-01  0.12055551656E+00  0.13788246677E+00  0.18848362805E-01 0.  0.
         14    1    1    2    0    0  0.47060343241E-03 -0.13950589874E-01 -0.62324643662E-02  0.15286727495E-01  0.00000000000E+00 0.  1.
     999901    1    3    3    0    0  0.21056661072E-01  0.74442392410E-01 -0.11432305219E+00  0.89076080573E+00  0.88000000000E+00 0.  1.
        -11    1    4    4    0    0 -0.16033286762E-01 -0.24212172541E-01  0.66292127951E-01  0.72375430450E-01  0.51100000000E-03 0. -1.
         11    1    4    4    0    0 -0.54939777422E-02 -0.36279629995E-01  0.54263388606E-01  0.65507036324E-01  0.51100000000E-03 0.  1.
</event>
<event>
 8    1  0.1112929E+005  0.1043930E+01  0.7957747E-01            NaN
         13   -1    0    0    0    0  0.00000000000E+00  0.00000000000E+00  0.74505805969E-08  0.10566000000E+00  0.10566000000E+00 0. -1.
     999900   -1    0    0    0    0 -0.00000000000E+00 -0.00000000000E+00 -0.74505805969E-08  0.93827000000E+00  0.93827000000E+00 0.  1.
     999902    2    1    2    0    0 -0.90180304920E-02  0.10934682349E-01  0.18460418665E-01  0.10206559971E+01  0.10203906043E+01 0.  0.
     999903    2    3    3    0    0  0.10378469139E+00 -0.63900371839E-01  0.40363686828E-01  0.13003571185E+00  0.20628607708E-01 0.  0.
         14    1    1    2    0    0  0.90180304920E-02 -0.10934682349E-01 -0.18460418665E-01  0.23274002864E-01  0.00000000000E+00 0.  1.
     999901    1    3    3    0    0 -0.11280272188E+00  0.74835054188E-01 -0.21903268162E-01  0.89062028528E+00  0.88000000000E+00 0.  1.
        -11    1    4    4    0    0  0.56955131818E-01 -0.23113127324E-01  0.18415136093E-01  0.64167609067E-01  0.51100000000E-03 0. -1.
         11    1    4    4    0    0  0.46829559568E-01 -0.40787244515E-01  0.21948550734E-01  0.65868102787E-01  0.51100000000E-03 0.  1.
</event>
<event>
 8    1  0.1112929E+005  0.1043930E+01  0.7957747E-01            NaN
         13   -1    0    0    0    0  0.00000000000E+00  0.00000000000E+00  0.74505805969E-08  0.10566000000E+00  0.10566000000E+00 0. -1.
     999900   -1    0    0    0    0 -0.00000000000E+00 -0.00000000000E+00 -0.74505805969E-08  0.93827000000E+00  0.93827000000E+00 0.  1.
     999902    2    1    2    0    0 -0.15280846900E-01 -0.35735559765E-02  0.18844791144E-01  0.10194065268E+01  0.10191115082E+01 0.  0.
     999903    2    3    3    0    0  0.12381386471E+00 -0.67111053573E-03 -0.23002227007E-01  0.12749457156E+00  0.19885669346E-01 0.  0.
         14    1    1    2    0    0  0.15280846900E-01  0.35735559765E-02 -0.18844791144E-01  0.24523473195E-01  0.00000000000E+00 0.  1.
     999901    1    3    3    0    0 -0.13909471161E+00 -0.29024454407E-02  0.41847018150E-01  0.89191195525E+00  0.88000000000E+00 0. -1.
        -11    1    4    4    0    0  0.80739494780E-01 -0.66534559555E-02 -0.22179455677E-01  0.83995975312E-01  0.51100000000E-03 0. -1.
         11    1    4    4    0    0  0.43074369930E-01  0.59823454197E-02 -0.82277132994E-03  0.43498596244E-01  0.51100000000E-03 0.  1.
</event>
<event>
 8    1  0.1112929E+005  0.1043930E+01  0.7957747E-01            NaN
         13   -1    0    0    0    0  0.00000000000E+00  0.00000000000E+00  0.74505805969E-08  0.10566000000E+00  0.10566000000E+00 0. -1.
     999900   -1    0    0    0    0 -0.00000000000E+00 -0.00000000000E+00 -0.74505805969E-08  0.93827000000E+00  0.93827000000E+00 0.  1.
     999902    2    1    2    0    0 -0.56139968662E-02 -0.62321714588E-02 -0.22206713985E-01  0.10201919489E+01  0.10199157405E+01 0.  0.
     999903    2    3    3    0    0 -0.11348491413E+00  0.44568649887E-01 -0.46148868431E-01  0.13182823683E+00  0.19590193510E-01 0.  0.
         14    1    1    2    0    0  0.56139968662E-02  0.62321714588E-02  0.22206713985E-01  0.23738051055E-01  0.00000000000E+00 0. -1.
     999901    1    3    3    0    0  0.10787091726E+00 -0.50800821346E-01  0.23942154446E-01  0.88836371211E+00  0.88000000000E+00 0. -1.
        -11    1    4    4    0    0 -0.53042786457E-01  0.11456836089E-01 -0.24893383611E-01  0.59705426528E-01  0.51100000000E-03 0.  1.
         11    1    4    4    0    0 -0.60442127668E-01  0.33111813798E-01 -0.21255484821E-01  0.72122810303E-01  0.51100000000E-03 0. -1.
</event>
<event>
 8    1  0.1112929E+005  0.1043930E+01  0.7957747E-01            NaN
         13   -1    0    0    0    0  0.00000000000E+00  0.00000000000E+00  0.74505805969E-08  0.10566000000E+00  0.10566000000E+00 0. -1.
     999900   -1    0    0    0    0 -0.00000000000E+00 -0.00000000000E+00 -0.74505805969E-08  0.93827000000E+00  0.93827000000E+00 0. -1.
     999902    2    1    2    0    0 -0.18735290280E-01  0.15015028465E-01 -0.52466279153E-03  0.10199146413E+01  0.10196318640E+01 0.  0.
     999903    2    3    3    0    0 -0.71458156836E-02 -0.45070397214E-01 -0.11979575870E+00  0.12976287413E+00  0.20124023319E-01 0.  0.
         14    1    1    2    0    0  0.18735290280E-01 -0.15015028465E-01  0.52466279153E-03  0.24015358684E-01  0.00000000000E+00 0.  1.
     999901    1    3    3    0    0 -0.11589474597E-01  0.60085425678E-01  0.11927109591E+00  0.89015176718E+00  0.88000000000E+00 0.  1.
        -11    1    4    4    0    0  0.59851562999E-02 -0.26191705713E-01 -0.64516102458E-01  0.69888598079E-01  0.51100000000E-03 0.  1.
         11    1    4    4    0    0 -0.13130971983E-01 -0.18878691501E-01 -0.55279656239E-01  0.59874276054E-01  0.51100000000E-03 0. -1.
</event>
<event>
 8    1  0.1112929E+005  0.1043930E+01  0.7957747E-01            NaN
         13   -1    0    0    0    0  0.00000000000E+00  0.00000000000E+00  0.74505805969E-08  0.10566000000E+00  0.10566000000E+00 0. -1.
     999900   -1    0    0    0    0 -0.00000000000E+00 -0.00000000000E+00 -0.74505805969E-08  0.93827000000E+00  0.93827000000E+00 0.  1.
     999902    2    1    2    0    0  0.11700844767E-01  0.19577114266E-01  0.60396550129E-02  0.10203365559E+01  0.10200637415E+01 0.  0.
     999903    2    3    3    0    0 -0.12006839465E+00 -0.40173094222E-01 -0.43685359196E-02  0.12846125616E+00  0.21281760638E-01 0.  0.
         14    1    1    2    0    0 -0.11700844767E-01 -0.19577114266E-01 -0.60396550129E-02  0.23593444088E-01  0.00000000000E+00 0. -1.
     999901    1    3    3    0    0  0.13176923941E+00  0.59750208489E-01  0.10408190932E-01  0.89187529975E+00  0.88000000000E+00 0. -1.
        -11    1    4    4    0    0 -0.64294764764E-01 -0.20468452438E-01  0.82421162031E-02  0.67977701651E-01  0.51100000000E-03 0. -1.
         11    1    4    4    0    0 -0.55773629882E-01 -0.19704641784E-01 -0.12610652123E-01  0.60483554509E-01  0.51100000000E-03 0.  1.
</event>
<event>
 8    1  0.1112929E+005  0.1043930E+01  0.7957747E-01            NaN
         13   -1    0    0    0    0  0.00000000000E+00  0.00000000000E+00  0.74505805969E-08  0.10566000000E+00  0.10566000000E+00 0. -1.
     999900   -1    0    0    0    0 -0.00000000000E+00 -0.00000000000E+00 -0.74505805969E-08  0.93827000000E+00  0.93827000000E+00 0.  1.
     999902    2    1    2    0    0  0.14629047174E-01  0.17760772767E-01  0.47189761922E-02  0.10204412196E+01  0.10201708483E+01 0.  0.
     999903    2    3    3    0    0 -0.80268774532E-01 -0.96556626402E-01  0.15369927415E-01  0.12792370876E+00  0.19025833135E-01 0.  0.
         14    1    1    2    0    0 -0.14629047174E-01 -0.17760772767E-01 -0.47189761922E-02  0.23488780445E-01  0.00000000000E+00 0. -1.
     999901    1    3    3    0    0  0.94897821706E-01  0.11431739917E+00 -0.10650951222E-01  0.89251751080E+00  0.88000000000E+00 0. -1.
        -11    1    4    4    0    0 -0.12596979075E-01 -0.26062352665E-01  0.73823172400E-02  0.29877915541E-01  0.51100000000E-03 0. -1.
         11    1    4    4    0    0 -0.67671795457E-01 -0.70494273737E-01  0.79876101746E-02  0.98045793216E-01  0.51100000000E-03 0.  1.
</event>
<event>
 8    1  0.1112929E+005  0.1043930E+01  0.7957747E-01            NaN
         13   -1    0    0    0    0  0.00000000000E+00  0.00000000000E+00  0.74505805969E-08  0.10566000000E+00  0.10566000000E+00 0. -1.
     999900   -1    0    0    0    0 -0.00000000000E+00 -0.00000000000E+00 -0.74505805969E-08  0.93827000000E+00  0.93827000000E+00 0.  1.
     999902    2    1    2    0    0 -0.26692239129E-02  0.20013128628E-01  0.11027246754E-01  0.10209245605E+01  0.10206653262E+01 0.  0.
     999903    2    3    3    0    0 -0.11874433173E+00 -0.49818780828E-01  0.68099055553E-02  0.13054952035E+00  0.20363575529E-01 0.  0.
         14    1    1    2    0    0  0.26692239129E-02 -0.20013128628E-01 -0.11027246754E-01  0.23005439460E-01  0.00000000000E+00 0.  1.
     999901    1    3    3    0    0  0.11607510782E+00  0.69831909456E-01  0.42173411988E-02  0.89037504019E+00  0.88000000000E+00 0.  1.
        -11    1    4    4    0    0 -0.87939399813E-01 -0.44014695070E-01 -0.56646832581E-03  0.98342327759E-01  0.51100000000E-03 0.  1.
         11    1    4    4    0    0 -0.30804931915E-01 -0.58040857575E-02  0.73763738811E-02  0.32207192588E-01  0.51100000000E-03 0. -1.
</event>
<event>
 8    1  0.1112929E+005  0.1043930E+01  0.7957747E-01            NaN
         13   -1    0    0    0    0  0.00000000000E+00  0.00000000000E+00  0.74505805969E-08  0.10566000000E+00  0.10566000000E+00 0.  1.
     999900   -1    0    0    0    0 -0.00000000000E+00 -0.00000000000E+00 -0.74505805969E-08  0.93827000000E+00  0.93827000000E+00 0.  1.
     999902    2    1    2    0    0 -0.23369788634E-02 -0.22948285254E-01  0.74129578632E-02  0.10197011492E+01  0.10194132609E+01 0.  0.
     999903    2    3    3    0    0 -0.86774322967E-01 -0.44250810804E-02 -0.94174691837E-01  0.12964900201E+00  0.19764277608E-01 0.  0.
         14    1    1    2    0    0  0.23369788634E-02  0.22948285254E-01 -0.74129578632E-02  0.24228850790E-01  0.00000000000E+00 0. -1.
     999901    1    3    3    0    0  0.84437344104E-01 -0.18523204174E-01  0.10158764970E+00  0.89005214720E+00  0.88000000000E+00 0. -1.
        -11    1    4    4    0    0 -0.31090677711E-01  0.71252376191E-02 -0.28554065315E-01  0.42813491082E-01  0.51100000000E-03 0.  1.
         11    1    4    4    0    0 -0.55683645256E-01 -0.11550318699E-01 -0.65620626522E-01  0.86835510923E-01  0.51100000000E-03 0. -1.
</event>
<event>
 8    1  0.1112929E+005  0.1043930E+01  0.7957747E-01            NaN
         13   -1    0    0    0    0  0.00000000000E+00  0.00000000000E+00  0.74505805969E-08  0.10566000000E+00  0.10566000000E+00 0. -1.
     999900   -1    0    0    0    0 -0.00000000000E+00 -0.00000000000E+00 -0.74505805969E-08  0.93827000000E+00  0.93827000000E+00 0. -1.
     999902    2    1    2    0    0  0.94628449233E-02  0.22211546552E-01 -0.85913822694E-03  0.10197714331E+01  0.10194852326E+01 0.  0.
     999903    2    3    3    0    0 -0.28568623811E-01 -0.66927467509E-03 -0.12502111150E+00  0.12994778758E+00  0.20965089531E-01 0.  0.
         14    1    1    2    0    0 -0.94628449233E-02 -0.22211546552E-01  0.85913822694E-03  0.24158566861E-01  0.00000000000E+00 0. -1.
     999901    1    3    3    0    0  0.38031468735E-01  0.22880821227E-01  0.12416197328E+00  0.88982364556E+00  0.88000000000E+00 0.  1.
        -11    1    4    4    0    0 -0.22546039699E-02 -0.77893695178E-02 -0.31761575408E-01  0.32784391255E-01  0.51100000000E-03 0. -1.
         11    1    4    4    0    0 -0.26314019841E-01  0.71200948427E-02 -0.93259536096E-01  0.97163396321E-01  0.51100000000E-03 0.  1.
</event>
<event>
 8    1  0.1112929E+005  0.1043930E+01  0.7957747E-01            NaN
         13   -1    0    0    0    0  0.00000000000E+00  0.00000000000E+00  0.74505805969E-08  0.10566000000E+00  0.10566000000E+00 0. -1.
     999900   -1    0    0    0    0 -0.00000000000E+00 -0.00000000000E+00 -0.74505805969E-08  0.93827000000E+00  0.93827000000E+00 0. -1.
     999902    2    1    2    0    0 -0.12087859482E-01 -0.58820500552E-03 -0.20389228464E-01  0.10202196021E+01  0.10199440443E+01 0.  0.
     999903    2    3    3    0    0 -0.54830493015E-01 -0.17198857984E-01 -0.11889366982E+00  0.13353703686E+00  0.19855775200E-01 0.  0.
         14    1    1    2    0    0  0.12087859482E-01  0.58820500552E-03  0.20389228464E-01  0.23710397916E-01  0.00000000000E+00 0. -1.
     999901    1    3    3    0    0  0.42742633533E-01  0.16610652978E-01  0.98504441355E-01  0.88668256523E+00  0.88000000000E+00 0.  1.
        -11    1    4    4    0    0 -0.90803015631E-02 -0.28116212304E-02 -0.40762367069E-01  0.41859154082E-01  0.51100000000E-03 0.  1.
         11    1    4    4    0    0 -0.45750191452E-01 -0.14387236754E-01 -0.78131302750E-01  0.91677882773E-01  0.51100000000E-03 0. -1.
</event>
<event>
 8    1  0.1112929E+005  0.1043930E+01  0.7957747E-01            NaN
         13   -1    0    0    0    0  0.00000000000E+00  0.00000000000E+00  0.74505805969E-08  0.10566000000E+00  0.10566000000E+00 0. -1.
     999900   -1    0    0    0    0 -0.00000000000E+00 -0.00000000000E+00 -0.74505805969E-08  0.93827000000E+00  0.93827000000E+00 0.  1.
     999902    2    1    2    0    0 -0.17716618567E-01 -0.12631030090E-01  0.93606303966E-02  0.10202436559E+01  0.10199686635E+01 0.  0.
     999903    2    3    3    0    0  0.44442789076E-01  0.97470364339E-01 -0.67222961024E-01  0.12791459358E+00  0.19172462987E-01 0.  0.
         14    1    1    2    0    0  0.17716618567E-01  0.12631030090E-01 -0.93606303966E-02  0.23686344083E-01  0.00000000000E+00 0.  1.
     999901    1    3    3    0    0 -0.62159407643E-01 -0.11010139443E+00  0.76583591421E-01  0.89232906234E+00  0.88000000000E+00 0. -1.
        -11    1    4    4    0    0  0.22345071947E-01  0.69589495155E-01 -0.41965786416E-01  0.84281601947E-01  0.51100000000E-03 0. -1.
         11    1    4    4    0    0  0.22097717129E-01  0.27880869184E-01 -0.25257174609E-01  0.43632991635E-01  0.51100000000E-03 0.  1.
</event>
<event>
 8    1  0.1112929E+005  0.1043930E+01  0.7957747E-01            NaN
         13   -1    0    0    0    0  0.00000000000E+00  0.00000000000E+00  0.74505805969E-08  0.10566000000E+00  0.10566000000E+00 0. -1.
     999900   -1    0    0    0    0 -0.00000000000E+00 -0.00000000000E+00 -0.74505805969E-08  0.93827000000E+00  0.93827000000E+00 0.  1.
     999902    2    1    2    0    0  0.39742742912E-02 -0.22716679983E-01 -0.57172034519E-02  0.10201701847E+01  0.10198934636E+01 0.  0.
     999903    2    3    3    0    0  0.33193512811E-01  0.12071630603E+00  0.12281785773E-01  0.12789738510E+00  0.23079493464E-01 0.  0.
         14    1    1    2    0    0 -0.39742742912E-02  0.22716679983E-01  0.57172034519E-02  0.23759815254E-01  0.00000000000E+00 0. -1.
     999901    1    3    3    0    0 -0.29219238520E-01 -0.14343298602E+00 -0.17998989224E-01  0.89227279965E+00  0.88000000000E+00 0. -1.
        -11    1    4    4    0    0  0.26230742928E-01  0.81096560409E-01 -0.18570979083E-02  0.85254993510E-01  0.51100000000E-03 0.  1.
         11    1    4    4    0    0  0.69627698830E-02  0.39619745624E-01  0.14138883681E-01  0.42642391589E-01  0.51100000000E-03 0. -1.
</event>
<event>
 8    1  0.1112929E+005  0.1043930E+01  0.7957747E-01            NaN
         13   -1    0    0    0    0  0.00000000000E+00  0.00000000000E+00  0.74505805969E-08  0.10566000000E+00  0.10566000000E+00 0. -1.
     999900   -1    0    0    0    0 -0.00000000000E+00 -0.00000000000E+00 -0.74505805969E-08  0.93827000000E+00  0.93827000000E+00 0.  1.
     999902    2    1    2    0    0  0.37844709546E-02 -0.22293073746E-01 -0.82091335199E-02  0.10198739565E+01  0.10195902088E+01 0.  0.
     999903    2    3    3    0    0  0.12029736116E+00 -0.87904226708E-02  0.44595389462E-01  0.13052256763E+00  0.22330814306E-01 0.  0.
         14    1    1    2    0    0 -0.37844709546E-02  0.22293073746E-01  0.82091335199E-02  0.24056043536E-01  0.00000000000E+00 0. -1.
     999901    1    3    3    0    0 -0.11651289020E+00 -0.13502651075E-01 -0.52804522982E-01  0.88935138883E+00  0.88000000000E+00 0.  1.
        -11    1    4    4    0    0  0.62399784332E-01 -0.10351811305E-01  0.13116542676E-01  0.64600293302E-01  0.51100000000E-03 0.  1.
         11    1    4    4    0    0  0.57897576827E-01  0.15613886337E-02  0.31478846786E-01  0.65922274330E-01  0.51100000000E-03 0. -1.
</event>
<event>
 8    1  0.1112929E+005  0.1043930E+01  0.7957747E-01            NaN
         13   -1    0    0    0    0  0.00000000000E+00  0.00000000000E+00  0.74505805969E-08  0.10566000000E+00  0.10566000000E+00 0. -1.
     999900   -1    0    0    0    0 -0.00000000000E+00 -0.00000000000E+00 -0.74505805969E-08  0.93827000000E+00  0.93827000000E+00 0.  1.
     999902    2    1    2    0    0  0.87972828746E-02 -0.30597026103E-02 -0.22009448152E-01  0.10200308416E+01  0.10197508264E+01 0.  0.
     999903    2    3    3    0    0  0.15427897104E-01 -0.12844465159E+00 -0.86681423404E-03  0.13086698633E+00  0.19732415329E-01 0.  0.
         14    1    1    2    0    0 -0.87972828746E-02  0.30597026103E-02  0.22009448152E-01  0.23899158437E-01  0.00000000000E+00 0. -1.
     999901    1    3    3    0    0 -0.66306142290E-02  0.12538494898E+00 -0.21142633918E-01  0.88916385523E+00  0.88000000000E+00 0.  1.
        -11    1    4    4    0    0  0.89544084391E-02 -0.99719778185E-01  0.70545639077E-02  0.10037053146E+00  0.51100000000E-03 0. -1.
         11    1    4    4    0    0  0.64734886645E-02 -0.28724873404E-01 -0.79213781417E-02  0.30496454879E-01  0.51100000000E-03 0.  1.
</event>
<event>
 8    1  0.1112929E+005  0.1043930E+01  0.7957747E-01            NaN
         13   -1    0    0    0    0  0.00000000000E+00  0.00000000000E+00  0.74505805969E-08  0.10566000000E+00  0.10566000000E+00 0. -1.
     999900   -1    0    0    0    0 -0.00000000000E+00 -0.00000000000E+00 -0.74505805969E-08  0.93827000000E+00  0.93827000000E+00 0.  1.
     999902    2    1    2    0    0  0.14005033268E-01 -0.17112913203E-01 -0.73756191640E-02  0.10206192189E+01  0.10203529770E+01 0.  0.
     999903    2    3    3    0    0 -0.89159871804E-01  0.53985185390E-01 -0.73891608604E-01  0.12925940714E+00  0.19599528816E-01 0.  0.
         14    1    1    2    0    0 -0.14005033268E-01  0.17112913203E-01  0.73756191640E-02  0.23310781050E-01  0.00000000000E+00 0. -1.
     999901    1    3    3    0    0  0.10316490507E+00 -0.71098098593E-01  0.66515989440E-01  0.89135981181E+00  0.88000000000E+00 0. -1.
        -11    1    4    4    0    0 -0.55430092315E-01  0.40951678663E-01 -0.56563100428E-01  0.89158177250E-01  0.51100000000E-03 0. -1.
         11    1    4    4    0    0 -0.33729779488E-01  0.13033506727E-01 -0.17328508176E-01  0.40101229888E-01  0.51100000000E-03 0.  1.
</event>
<event>
 7    1  0.1112929E+005  0.1043930E+01  0.7957747E-01            NaN
         13   -1    0    0    0    0  0.00000000000E+00  0.00000000000E+00  0.74505805969E-08  0.10566000000E+00  0.10566000000E+00 0. -1.
     999900   -1    0    0    0    0 -0.00000000000E+00 -0.00000000000E+00 -0.74505805969E-08  0.93827000000E+00  0.93827000000E+00 0. -1.
     999902    2    1    2    0    0 -0.13800446395E-01  0.18654324667E-01  0.30460450719E-02  0.10205266981E+01  0.10202583139E+01 0.  0.
         14    1    1    2    0    0  0.13800446395E-01 -0.18654324667E-01 -0.30460450719E-02  0.23403301905E-01  0.00000000000E+00 0.  1.
     999901    1    3    3    0    0 -0.81336360938E-01  0.88150236400E-01  0.79459004415E-01  0.89168368897E+00  0.88000000000E+00 0. -1.
        -11    1    3    3    0    0  0.23594344463E-01 -0.33369336389E-01 -0.53943094411E-01  0.67678092891E-01  0.51100000000E-03 0. -1.
         11    1    3    3    0    0  0.43941570080E-01 -0.36126575344E-01 -0.22469864932E-01  0.61164916236E-01  0.51100000000E-03 0.  1.
</event>
<event>
 8    1  0.1112929E+005  0.1043930E+01  0.7957747E-01            NaN
         13   -1    0    0    0    0  0.00000000000E+00  0.00000000000E+00  0.74505805969E-08  0.10566000000E+00  0.10566000000E+00 0.  1.
     999900   -1    0    0    0    0 -0.00000000000E+00 -0.00000000000E+00 -0.74505805969E-08  0.93827000000E+00  0.93827000000E+00 0.  1.
     999902    2    1    2    0    0  0.18725648389E-01 -0.13517674156E-01  0.31567598181E-02  0.10206202905E+01  0.10203540733E+01 0.  0.
     999903    2    3    3    0    0  0.48903055545E-01 -0.79844921953E-01 -0.91574548519E-01  0.13254146495E+00  0.20362258968E-01 0.  0.
         14    1    1    2    0    0 -0.18725648389E-01  0.13517674156E-01 -0.31567598181E-02  0.23309709452E-01  0.00000000000E+00 0. -1.
     999901    1    3    3    0    0 -0.30177407156E-01  0.66327247797E-01  0.94731308337E-01  0.88807882560E+00  0.88000000000E+00 0. -1.
        -11    1    4    4    0    0  0.43284749558E-01 -0.72973411481E-01 -0.72918227367E-01  0.11187500762E+00  0.51100000000E-03 0.  1.
         11    1    4    4    0    0  0.56183059876E-02 -0.68715104719E-02 -0.18656321152E-01  0.20666457322E-01  0.51100000000E-03 0. -1.
</event>
<event>
 8    1  0.1112929E+005  0.1043930E+01  0.7957747E-01            NaN
         13   -1    0    0    0    0  0.00000000000E+00  0.00000000000E+00  0.74505805969E-08  0.10566000000E+00  0.10566000000E+00 0.  1.
     999900   -1    0    0    0    0 -0.00000000000E+00 -0.00000000000E+00 -0.74505805969E-08  0.93827000000E+00  0.93827000000E+00 0.  1.
     999902    2    1    2    0    0 -0.11892638430E-01 -0.19590228847E-01 -0.21677932760E-01  0.10123840861E+01  0.10118924810E+01 0.  0.
     999903    2    3    3    0    0 -0.59091710258E-01 -0.85777202863E-01 -0.70811028656E-01  0.12727249482E+00  0.18290090358E-01 0.  0.
         14    1    1    2    0    0  0.11892638430E-01  0.19590228847E-01  0.21677932760E-01  0.31545913901E-01  0.00000000000E+00 0. -1.
     999901    1    3    3    0    0  0.47199071828E-01  0.66186974016E-01  0.49133095896E-01  0.88511159128E+00  0.88000000000E+00 0. -1.
        -11    1    4    4    0    0 -0.27870416704E-02 -0.14978725417E-01 -0.11626695285E-01  0.19172140742E-01  0.51100000000E-03 0. -1.
         11    1    4    4    0    0 -0.56304668588E-01 -0.70798477445E-01 -0.59184333371E-01  0.10810035407E+00  0.51100000000E-03 0.  1.
</event>
<event>
 8    1  0.1112929E+005  0.1043930E+01  0.7957747E-01            NaN
         13   -1    0    0    0    0  0.00000000000E+00  0.00000000000E+00  0.74505805969E-08  0.10566000000E+00  0.10566000000E+00 0. -1.
     999900   -1    0    0    0    0 -0.00000000000E+00 -0.00000000000E+00 -0.74505805969E-08  0.93827000000E+00  0.93827000000E+00 0. -1.
     999902    2    1    2    0    0  0.10664244425E-01 -0.56852821535E-02 -0.21597402234E-01  0.10191813369E+01  0.10188808081E+01 0.  0.
     999903    2    3    3    0    0 -0.72487499704E-01 -0.91295836429E-02 -0.10702204702E+00  0.13113660508E+00  0.20132156712E-01 0.  0.
         14    1    1    2    0    0 -0.10664244425E-01  0.56852821535E-02  0.21597402234E-01  0.24748663107E-01  0.00000000000E+00 0. -1.
     999901    1    3    3    0    0  0.83151744129E-01  0.34443014894E-02  0.85424644781E-01  0.88804473181E+00  0.88000000000E+00 0.  1.
        -11    1    4    4    0    0 -0.26271114750E-01 -0.98945981247E-02 -0.28425569632E-01  0.39954332333E-01  0.51100000000E-03 0.  1.
         11    1    4    4    0    0 -0.46216384954E-01  0.76501448176E-03 -0.78596477383E-01  0.91182272748E-01  0.51100000000E-03 0. -1.
</event>
<event>
 8    1  0.1112929E+005  0.1043930E+01  0.7957747E-01            NaN
         13   -1    0    0    0    0  0.00000000000E+00  0.00000000000E+00  0.74505805969E-08  0.10566000000E+00  0.10566000000E+00 0. -1.
     999900   -1    0    0    0    0 -0.00000000000E+00 -0.00000000000E+00 -0.74505805969E-08  0.93827000000E+00  0.93827000000E+00 0. -1.
     999902    2    1    2    0    0 -0.16452950670E-01 -0.14911953957E-01 -0.52966575633E-02  0.10211019353E+01  0.10208467278E+01 0.  0.
     999903    2    3    3    0    0 -0.12398548468E+00 -0.46356164755E-01  0.58223430527E-02  0.13392911311E+00  0.19540041905E-01 0.  0.
         14    1    1    2    0    0  0.16452950670E-01  0.14911953957E-01  0.52966575633E-02  0.22828064699E-01  0.00000000000E+00 0. -1.
     999901    1    3    3    0    0  0.10753253401E+00  0.31444210799E-01 -0.11119000616E-01  0.88717282219E+00  0.88000000000E+00 0. -1.
        -11    1    4    4    0    0 -0.56934931193E-01 -0.29753602833E-01  0.84840052073E-02  0.64800484079E-01  0.51100000000E-03 0.  1.
         11    1    4    4    0    0 -0.67050553485E-01 -0.16602561922E-01 -0.26616621546E-02  0.69128629029E-01  0.51100000000E-03 0. -1.
</event>
<event>
 8    1  0.1112929E+005  0.1043930E+01  0.7957747E-01            NaN
         13   -1    0    0    0    0  0.00000000000E+00  0.00000000000E+00  0.74505805969E-08  0.10566000000E+00  0.10566000000E+00 0.  1.
     999900   -1    0    0    0    0 -0.00000000000E+00 -0.00000000000E+00 -0.74505805969E-08  0.93827000000E+00  0.93827000000E+00 0. -1.
     999902    2    1    2    0    0 -0.63877526162E-02 -0.18708727405E-01  0.10862462663E-01  0.10213731172E+01  0.10211240041E+01 0.  0.
     999903    2    3    3    0    0 -0.17986345300E-01 -0.99289415658E-01 -0.83989646610E-01  0.13253978230E+00  0.18183412099E-01 0.  0.
         14    1    1    2    0    0  0.63877526162E-02  0.18708727405E-01 -0.10862462663E-01  0.22556882757E-01  0.00000000000E+00 0.  1.
     999901    1    3    3    0    0  0.11598592684E-01  0.80580688253E-01  0.94852109273E-01  0.88883333494E+00  0.88000000000E+00 0.  1.
        -11    1    4    4    0    0 -0.75120409916E-02 -0.56632955219E-01 -0.36226797567E-01  0.67648831178E-01  0.51100000000E-03 0.  1.
         11    1    4    4    0    0 -0.10474304308E-01 -0.42656460439E-01 -0.47762849043E-01  0.64890951123E-01  0.51100000000E-03 0. -1.
</event>
<event>
 8    1  0.1112929E+005  0.1043930E+01  0.7957747E-01            NaN
         13   -1    0    0    0    0  0.00000000000E+00  0.00000000000E+00  0.74505805969E-08  0.10566000000E+00  0.10566000000E+00 0. -1.
     999900   -1    0    0    0    0 -0.00000000000E+00 -0.00000000000E+00 -0.74505805969E-08  0.93827000000E+00  0.93827000000E+00 0.  1.
     999902    2    1    2    0    0 -0.16155942233E-01  0.16932454471E-01 -0.51359543186E-02  0.10199696054E+01  0.10196881363E+01 0.  0.
     999903    2    3    3    0    0 -0.84303014349E-01 -0.91117767618E-01 -0.33579712095E-01  0.13029105596E+00  0.20945557874E-01 0.  0.
         14    1    1    2    0    0  0.16155942233E-01 -0.16932454471E-01  0.51359543186E-02  0.23960394626E-01  0.00000000000E+00 0.  1.
     999901    1    3    3    0    0  0.68147072115E-01  0.10805022209E+00  0.28443757776E-01  0.88967854941E+00  0.88000000000E+00 0.  1.
        -11    1    4    4    0    0 -0.66057464156E-01 -0.81336736627E-01 -0.24114412320E-01  0.10752218050E+00  0.51100000000E-03 0.  1.
         11    1    4    4    0    0 -0.18245550192E-01 -0.97810309912E-02 -0.94652997752E-02  0.22768875464E-01  0.51100000000E-03 0. -1.
</event>
<event>
 8    1  0.1112929E+005  0.1043930E+01  0.7957747E-01            NaN
         13   -1    0    0    0    0  0.00000000000E+00  0.00000000000E+00  0.74505805969E-08  0.10566000000E+00  0.10566000000E+00 0. -1.
     999900   -1    0    0    0    0 -0.00000000000E+00 -0.00000000000E+00 -0.74505805969E-08  0.93827000000E+00  0.93827000000E+00 0. -1.
     999902    2    1    2    0    0 -0.97899789247E-02  0.10515306127E-01  0.15395935343E-01  0.10228717433E+01  0.10226549531E+01 0.  0.
     999903    2    3    3    0    0  0.25157791556E-01  0.91324899611E-01  0.94006500575E-01  0.13499159484E+00  0.20306569422E-01 0.  0.
         14    1    1    2    0    0  0.97899789247E-02 -0.10515306127E-01 -0.15395935343E-01  0.21058256704E-01  0.00000000000E+00 0. -1.
     999901    1    3    3    0    0 -0.34947770481E-01 -0.80809593484E-01 -0.78610565231E-01  0.88788014846E+00  0.88000000000E+00 0. -1.
        -11    1    4    4    0    0  0.12340196190E-01  0.16158825762E-01  0.15711036739E-01  0.25699920008E-01  0.51100000000E-03 0. -1.
         11    1    4    4    0    0  0.12817595366E-01  0.75166073849E-01  0.78295463836E-01  0.10929167483E+00  0.51100000000E-03 0.  1.
</event>
<event>
 8    1  0.1112929E+005  0.1043930E+01  0.7957747E-01            NaN
         13   -1    0    0    0    0  0.00000000000E+00  0.00000000000E+00  0.74505805969E-08  0.10566000000E+00  0.10566000000E+00 0.  1.
     999900   -1    0    0    0    0 -0.00000000000E+00 -0.00000000000E+00 -0.74505805969E-08  0.93827000000E+00  0.93827000000E+00 0. -1.
     999902    2    1    2    0    0 -0.20411514278E-01  0.88182186613E-02 -0.26671303227E-02  0.10215357043E+01  0.10212902088E+01 0.  0.
     999903    2    3    3    0    0  0.60136555966E-01  0.86405969169E-01 -0.75425026811E-01  0.13147864875E+00  0.22700298135E-01 0.  0.
         14    1    1    2    0    0  0.20411514278E-01 -0.88182186613E-02  0.26671303227E-02  0.22394295694E-01  0.00000000000E+00 0. -1.
     999901    1    3    3    0    0 -0.80548070244E-01 -0.77587750508E-01  0.72757896488E-01  0.89005705556E+00  0.88000000000E+00 0. -1.
        -11    1    4    4    0    0  0.21352279947E-01  0.50158791144E-01 -0.40865545275E-01  0.68132797532E-01  0.51100000000E-03 0.  1.
         11    1    4    4    0    0  0.38784276019E-01  0.36247178025E-01 -0.34559481536E-01  0.63345851215E-01  0.51100000000E-03 0. -1.
</event>
<event>
 8    1  0.1112929E+005  0.1043930E+01  0.7957747E-01            NaN
         13   -1    0    0    0    0  0.00000000000E+00  0.00000000000E+00  0.74505805969E-08  0.10566000000E+00  0.10566000000E+00 0. -1.
     999900   -1    0    0    0    0 -0.00000000000E+00 -0.00000000000E+00 -0.74505805969E-08  0.93827000000E+00  0.93827000000E+00 0.  1.
     999902    2    1    2    0    0  0.10818224955E-01  0.17142689560E-01 -0.10684274680E-01  0.10210158227E+01  0.10207586643E+01 0.  0.
     999903    2    3    3    0    0  0.24085405895E-01  0.12256887043E+00  0.41229282737E-01  0.13310495151E+00  0.20343047611E-01 0.  0.
         14    1    1    2    0    0 -0.10818224955E-01 -0.17142689560E-01  0.10684274680E-01  0.22914177313E-01  0.00000000000E+00 0. -1.
     999901    1    3    3    0    0 -0.13267180940E-01 -0.10542618087E+00 -0.51913557417E-01  0.88791087117E+00  0.88000000000E+00 0.  1.
        -11    1    4    4    0    0  0.97051205660E-02  0.65980075908E-01  0.32067361969E-01  0.74000923013E-01  0.51100000000E-03 0. -1.
         11    1    4    4    0    0  0.14380285329E-01  0.56588794524E-01  0.91619207680E-02  0.59104028501E-01  0.51100000000E-03 0.  1.
</event>
<event>
 8    1  0.1112929E+005  0.1043930E+01  0.7957747E-01            NaN
         13   -1    0    0    0    0  0.00000000000E+00  0.00000000000E+00  0.74505805969E-08  0.10566000000E+00  0.10566000000E+00 0. -1.
     999900   -1    0    0    0    0 -0.00000000000E+00 -0.00000000000E+00 -0.74505805969E-08  0.93827000000E+00  0.93827000000E+00 0. -1.
     999902    2    1    2    0    0  0.17264109137E-01 -0.12117734400E-01 -0.86117157818E-02  0.10211473180E+01  0.10208931357E+01 0.  0.
     999903    2    3    3    0    0  0.25817966909E-02  0.12703083017E+00 -0.18753006401E-01  0.13003523799E+00  0.20346753605E-01 0.  0.
         14    1    1    2    0    0 -0.17264109137E-01  0.12117734400E-01  0.86117157818E-02  0.22782682019E-01  0.00000000000E+00 0. -1.
     999901    1    3    3    0    0  0.14682312446E-01 -0.13914856457E+00  0.10141290619E-01  0.89111207999E+00  0.88000000000E+00 0. -1.
        -11    1    4    4    0    0  0.88198694273E-02  0.77258990423E-01 -0.18220486418E-01  0.79868572944E-01  0.51100000000E-03 0. -1.
         11    1    4    4    0    0 -0.62380727364E-02  0.49771839752E-01 -0.53251998320E-03  0.50166665050E-01  0.51100000000E-03 0.  1.
</event>
<event>
 8    1  0.1112929E+005  0.1043930E+01  0.7957747E-01            NaN
         13   -1    0    0    0    0  0.00000000000E+00  0.00000000000E+00  0.74505805969E-08  0.10566000000E+00  0.10566000000E+00 0. -1.
     999900   -1    0    0    0    0 -0.00000000000E+00 -0.00000000000E+00 -0.74505805969E-08  0.93827000000E+00  0.93827000000E+00 0.  1.
     999902    2    1    2    0    0  0.90475976357E-02  0.64689400102E-02 -0.21726803362E-01  0.10195218007E+01  0.10192295826E+01 0.  0.
     999903    2    3    3    0    0  0.97277623180E-01  0.97847869776E-02 -0.85715459857E-01  0.13279180776E+00  0.26978623436E-01 0.  0.
         14    1    1    2    0    0 -0.90475976357E-02 -0.64689400102E-02  0.21726803362E-01  0.24408199282E-01  0.00000000000E+00 0. -1.
     999901    1    3    3    0    0 -0.88230025544E-01 -0.33158469674E-02  0.63988656495E-01  0.88672999296E+00  0.88000000000E+00 0. -1.
        -11    1    4    4    0    0  0.47264350015E-01 -0.77644462877E-02 -0.34027298736E-01  0.58756476994E-01  0.51100000000E-03 0.  1.
         11    1    4    4    0    0  0.50013273165E-01  0.17549233265E-01 -0.51688161121E-01  0.74035330768E-01  0.51100000000E-03 0. -1.
</event>
<event>
 8    1  0.1112929E+005  0.1043930E+01  0.7957747E-01            NaN
         13   -1    0    0    0    0  0.00000000000E+00  0.00000000000E+00  0.74505805969E-08  0.10566000000E+00  0.10566000000E+00 0.  1.
     999900   -1    0    0    0    0 -0.00000000000E+00 -0.00000000000E+00 -0.74505805969E-08  0.93827000000E+00  0.93827000000E+00 0. -1.
     999902    2    1    2    0    0  0.93837172950E-02 -0.21773230244E-01 -0.24553431740E-02  0.10200939681E+01  0.10198154477E+01 0.  0.
     999903    2    3    3    0    0  0.81562361642E-01  0.90029323064E-01 -0.38227894059E-01  0.12936996877E+00  0.22749045859E-01 0.  0.
         14    1    1    2    0    0 -0.93837172950E-02  0.21773230244E-01  0.24553431740E-02  0.23836031877E-01  0.00000000000E+00 0. -1.
     999901    1    3    3    0    0 -0.72178644347E-01 -0.11180255331E+00  0.35772550885E-01  0.89072399935E+00  0.88000000000E+00 0. -1.
        -11    1    4    4    0    0  0.23789108311E-01  0.12896931944E-01 -0.57128809856E-02  0.27661356763E-01  0.51100000000E-03 0.  1.
         11    1    4    4    0    0  0.57773253330E-01  0.77132391120E-01 -0.32515013073E-01  0.10170861201E+00  0.51100000000E-03 0. -1.
</event>
<event>
 8    1  0.1112929E+005  0.1043930E+01  0.7957747E-01            NaN
         13   -1    0    0    0    0  0.00000000000E+00  0.00000000000E+00  0.74505805969E-08  0.10566000000E+00  0.10566000000E+00 0.  1.
     999900   -1    0    0    0    0 -0.00000000000E+00 -0.00000000000E+00 -0.74505805969E-08  0.93827000000E+00  0.93827000000E+00 0. -1.
     999902    2    1    2    0    0  0.15208683997E-01 -0.11975036883E-01  0.17801693125E-01  0.10176315998E+01  0.10172917315E+01 0.  0.
     999903    2    3    3    0    0  0.75205731260E-01  0.10089490734E+00  0.14246632642E-01  0.12838927708E+00  0.21098710485E-01 0.  0.
         14    1    1    2    0    0 -0.15208683997E-01  0.11975036883E-01 -0.17801693125E-01  0.26298400244E-01  0.00000000000E+00 0. -1.
     999901    1    3    3    0    0 -0.59997047263E-01 -0.11286994423E+00  0.35550604834E-02  0.88924232268E+00  0.88000000000E+00 0.  1.
        -11    1    4    4    0    0  0.50431551951E-01  0.81413773582E-01  0.68598954315E-02  0.96014911588E-01  0.51100000000E-03 0. -1.
         11    1    4    4    0    0  0.24774179309E-01  0.19481133762E-01  0.73867372103E-02  0.32374365488E-01  0.51100000000E-03 0.  1.
</event>
<event>
 8    1  0.1112929E+005  0.1043930E+01  0.7957747E-01            NaN
         13   -1    0    0    0    0  0.00000000000E+00  0.00000000000E+00  0.74505805969E-08  0.10566000000E+00  0.10566000000E+00 0.  1.
     999900   -1    0    0    0    0 -0.00000000000E+00 -0.00000000000E+00 -0.74505805969E-08  0.93827000000E+00  0.93827000000E+00 0.  1.
     999902    2    1    2    0    0  0.19747043316E-01 -0.58508308962E-02 -0.48071717180E-02  0.10227808430E+01  0.10225621575E+01 0.  0.
     999903    2    3    3    0    0 -0.77356002742E-01  0.25340825417E-01  0.10019692448E+00  0.13068904212E+00  0.20349286526E-01 0.  0.
         14    1    1    2    0    0 -0.19747043316E-01  0.58508308962E-02  0.48071717180E-02  0.21149157000E-01  0.00000000000E+00 0. -1.
     999901    1    3    3    0    0  0.97103046057E-01 -0.31191656314E-01 -0.10500409620E+00  0.89209180088E+00  0.88000000000E+00 0.  1.
        -11    1    4    4    0    0 -0.34834654226E-01  0.21867805446E-01  0.45885654992E-01  0.61623116645E-01  0.51100000000E-03 0. -1.
         11    1    4    4    0    0 -0.42521348516E-01  0.34730199714E-02  0.54311269489E-01  0.69065925476E-01  0.51100000000E-03 0.  1.
</event>
<event>
 8    1  0.1112929E+005  0.1043930E+01  0.7957747E-01            NaN
         13   -1    0    0    0    0  0.00000000000E+00  0.00000000000E+00  0.74505805969E-08  0.10566000000E+00  0.10566000000E+00 0. -1.
     999900   -1    0    0    0    0 -0.00000000000E+00 -0.00000000000E+00 -0.74505805969E-08  0.93827000000E+00  0.93827000000E+00 0.  1.
     999902    2    1    2    0    0  0.14436827845E-02 -0.23155809808E-01 -0.38825385763E-02  0.10204066105E+01  0.10201354326E+01 0.  0.
     999903    2    3    3    0    0  0.86818479833E-01 -0.90448670821E-01 -0.39043707177E-01  0.13302084721E+00  0.21253805021E-01 0.  0.
         14    1    1    2    0    0 -0.14436827845E-02  0.23155809808E-01  0.38825385763E-02  0.23523389502E-01  0.00000000000E+00 0. -1.
     999901    1    3    3    0    0 -0.85374797048E-01  0.67292861012E-01  0.35161168601E-01  0.88738576329E+00  0.88000000000E+00 0.  1.
        -11    1    4    4    0    0  0.27687135579E-01 -0.33289878372E-01 -0.35547078579E-02  0.43447560893E-01  0.51100000000E-03 0.  1.
         11    1    4    4    0    0  0.59131344253E-01 -0.57158792448E-01 -0.35488999319E-01  0.89573286314E-01  0.51100000000E-03 0. -1.
</event>
<event>
 8    1  0.1112929E+005  0.1043930E+01  0.7957747E-01            NaN
         13   -1    0    0    0    0  0.00000000000E+00  0.00000000000E+00  0.74505805969E-08  0.10566000000E+00  0.10566000000E+00 0.  1.
     999900   -1    0    0    0    0 -0.00000000000E+00 -0.00000000000E+00 -0.74505805969E-08  0.93827000000E+00  0.93827000000E+00 0. -1.
     999902    2    1    2    0    0  0.15111899810E-01  0.99399483691E-02 -0.15665808432E-01  0.10200011546E+01  0.10197204351E+01 0.  0.
     999903    2    3    3    0    0  0.14078161228E-01  0.81320798234E-01  0.98328735608E-01  0.12978149044E+00  0.19063792013E-01 0.  0.
         14    1    1    2    0    0 -0.15111899810E-01 -0.99399483691E-02  0.15665808432E-01  0.23928845423E-01  0.00000000000E+00 0.  1.
     999901    1    3    3    0    0  0.10337385817E-02 -0.71380849865E-01 -0.11399454404E+00  0.89021966414E+00  0.88000000000E+00 0.  1.
        -11    1    4    4    0    0  0.16784496251E-01  0.56940140048E-01  0.77314992952E-01  0.97477013286E-01  0.51100000000E-03 0. -1.
         11    1    4    4    0    0 -0.27063350226E-02  0.24380658186E-01  0.21013742656E-01  0.32304477155E-01  0.51100000000E-03 0.  1.
</event>
<event>
 8    1  0.1112929E+005  0.1043930E+01  0.7957747E-01            NaN
         13   -1    0    0    0    0  0.00000000000E+00  0.00000000000E+00  0.74505805969E-08  0.10566000000E+00  0.10566000000E+00 0.  1.
     999900   -1    0    0    0    0 -0.00000000000E+00 -0.00000000000E+00 -0.74505805969E-08  0.93827000000E+00  0.93827000000E+00 0. -1.
     999902    2    1    2    0    0  0.36278808042E-02  0.52971729321E-02 -0.23391809795E-01  0.10196730767E+01  0.10193845129E+01 0.  0.
     999903    2    3    3    0    0  0.41784415186E-01  0.14144251096E-02 -0.12464361137E+00  0.13303734311E+00  0.20370735246E-01 0.  0.
         14    1    1    2    0    0 -0.36278808042E-02 -0.52971729321E-02  0.23391809795E-01  0.24256923253E-01  0.00000000000E+00 0.  1.
     999901    1    3    3    0    0 -0.38156534382E-01  0.38827478225E-02  0.10125180158E+00  0.88663573364E+00  0.88000000000E+00 0.  1.
        -11    1    4    4    0    0  0.16436090540E-01  0.66882076870E-02 -0.74686318041E-01  0.76767078997E-01  0.51100000000E-03 0.  1.
         11    1    4    4    0    0  0.25348324646E-01 -0.52737825773E-02 -0.49957293330E-01  0.56270264109E-01  0.51100000000E-03 0. -1.
</event>
<event>
 8    1  0.1112929E+005  0.1043930E+01  0.7957747E-01            NaN
         13   -1    0    0    0    0  0.00000000000E+00  0.00000000000E+00  0.74505805969E-08  0.10566000000E+00  0.10566000000E+00 0.  1.
     999900   -1    0    0    0    0 -0.00000000000E+00 -0.00000000000E+00 -0.74505805969E-08  0.93827000000E+00  0.93827000000E+00 0.  1.
     999902    2    1    2    0    0  0.10480459817E-01  0.20041336936E-01 -0.57122665829E-02  0.10206035083E+01  0.10203369032E+01 0.  0.
     999903    2    3    3    0    0 -0.97875744872E-01 -0.51376090853E-01  0.63500037858E-01  0.12839733307E+00  0.15311962177E-01 0.  0.
         14    1    1    2    0    0 -0.10480459817E-01 -0.20041336936E-01  0.57122665829E-02  0.23326491671E-01  0.00000000000E+00 0. -1.
     999901    1    3    3    0    0  0.10835620469E+00  0.71417427789E-01 -0.69212304441E-01  0.89220617526E+00  0.88000000000E+00 0. -1.
        -11    1    4    4    0    0 -0.55794807879E-01 -0.30434677538E-01  0.27803125089E-01  0.69372941907E-01  0.51100000000E-03 0.  1.
         11    1    4    4    0    0 -0.42080936993E-01 -0.20941413315E-01  0.35696912769E-01  0.59024391162E-01  0.51100000000E-03 0. -1.
</event>
<event>
 8    1  0.1112929E+005  0.1043930E+01  0.7957747E-01            NaN
         13   -1    0    0    0    0  0.00000000000E+00  0.00000000000E+00  0.74505805969E-08  0.10566000000E+00  0.10566000000E+00 0.  1.
     999900   -1    0    0    0    0 -0.00000000000E+00 -0.00000000000E+00 -0.74505805969E-08  0.93827000000E+00  0.93827000000E+00 0. -1.
     999902    2    1    2    0    0 -0.11383722048E-01 -0.96695823035E-02  0.17747377937E-01  0.10207338931E+01  0.10204702941E+01 0.  0.
     999903    2    3    3    0    0  0.10300056609E+00  0.73381887291E-01  0.19178616826E-01  0.12945202952E+00  0.19899512716E-01 0.  0.
         14    1    1    2    0    0  0.11383722048E-01  0.96695823035E-02 -0.17747377937E-01  0.23196106855E-01  0.00000000000E+00 0. -1.
     999901    1    3    3    0    0 -0.11438428814E+00 -0.83051469595E-01 -0.14312388896E-02  0.89128186362E+00  0.88000000000E+00 0. -1.
        -11    1    4    4    0    0  0.55632097831E-02  0.10015753741E-01  0.44087632247E-02  0.12286697696E-01  0.51100000000E-03 0.  1.
         11    1    4    4    0    0  0.97437356311E-01  0.63366133550E-01  0.14769853602E-01  0.11716533183E+00  0.51100000000E-03 0. -1.
</event>
<event>
 8    1  0.1112929E+005  0.1043930E+01  0.7957747E-01            NaN
         13   -1    0    0    0    0  0.00000000000E+00  0.00000000000E+00  0.74505805969E-08  0.10566000000E+00  0.10566000000E+00 0. -1.
     999900   -1    0    0    0    0 -0.00000000000E+00 -0.00000000000E+00 -0.74505805969E-08  0.93827000000E+00  0.93827000000E+00 0. -1.
     999902    2    1    2    0    0  0.50971530493E-03  0.14081451136E-01 -0.20028682446E-01  0.10194413251E+01  0.10191471534E+01 0.  0.
     999903    2    3    3    0    0  0.80756881506E-01  0.32108086856E-02  0.98237127311E-01  0.12784467850E+00  0.12717917857E-01 0.  0.
         14    1    1    2    0    0 -0.50971530493E-03 -0.14081451136E-01  0.20028682446E-01  0.24488674858E-01  0.00000000000E+00 0. -1.
     999901    1    3    3    0    0 -0.80247166201E-01  0.10870642450E-01 -0.11826580976E+00  0.89159664664E+00  0.88000000000E+00 0. -1.
        -11    1    4    4    0    0  0.65419662199E-01 -0.18402092423E-02  0.74963894637E-01  0.99513643248E-01  0.51100000000E-03 0. -1.
         11    1    4    4    0    0  0.15337219307E-01  0.50510179280E-02  0.23273232674E-01  0.28331035249E-01  0.51100000000E-03 0.  1.
</event>
<event>
 8    1  0.1112929E+005  0.1043930E+01  0.7957747E-01            NaN
         13   -1    0    0    0    0  0.00000000000E+00  0.00000000000E+00  0.74505805969E-08  0.10566000000E+00  0.10566000000E+00 0.  1.
     999900   -1    0    0    0    0 -0.00000000000E+00 -0.00000000000E+00 -0.74505805969E-08  0.93827000000E+00  0.93827000000E+00 0.  1.
     999902    2    1    2    0    0 -0.93053920460E-02 -0.56207464636E-02 -0.21305068316E-01  0.10200116169E+01  0.10197311458E+01 0.  0.
     999903    2    3    3    0    0 -0.14608388605E-02 -0.12894456189E+00  0.64814694632E-02  0.13094334502E+00  0.21801744611E-01 0.  0.
         14    1    1    2    0    0  0.93053920460E-02  0.56207464636E-02  0.21305068316E-01  0.23918383053E-01  0.00000000000E+00 0.  1.
     999901    1    3    3    0    0 -0.78445531855E-02  0.12332381542E+00 -0.27786537779E-01  0.88906827193E+00  0.88000000000E+00 0.  1.
        -11    1    4    4    0    0 -0.68132333449E-02 -0.41106933069E-01  0.10062133652E-01  0.42868493671E-01  0.51100000000E-03 0.  1.
         11    1    4    4    0    0  0.53523944843E-02 -0.87837628818E-01 -0.35806641892E-02  0.88074851349E-01  0.51100000000E-03 0. -1.
</event>
<event>
 8    1  0.1112929E+005  0.1043930E+01  0.7957747E-01            NaN
         13   -1    0    0    0    0  0.00000000000E+00  0.00000000000E+00  0.74505805969E-08  0.10566000000E+00  0.10566000000E+00 0. -1.
     999900   -1    0    0    0    0 -0.00000000000E+00 -0.00000000000E+00 -0.74505805969E-08  0.93827000000E+00  0.93827000000E+00 0.  1.
     999902    2    1    2    0    0 -0.16990598631E-01  0.16008128053E-01 -0.53521928108E-02  0.10199803325E+01  0.10196991184E+01 0.  0.
     999903    2    3    3    0    0 -0.74519619731E-01  0.88894432309E-01  0.60966450803E-01  0.13261334860E+00  0.20346947769E-01 0.  0.
         14    1    1    2    0    0  0.16990598631E-01 -0.16008128053E-01  0.53521928108E-02  0.23949667503E-01  0.00000000000E+00 0. -1.
     999901    1    3    3    0    0  0.57529021100E-01 -0.72886304256E-01 -0.66318643614E-01  0.88736698390E+00  0.88000000000E+00 0.  1.
        -11    1    4    4    0    0 -0.36847753001E-01  0.51546736610E-01  0.23135645328E-01  0.67456224042E-01  0.51100000000E-03 0. -1.
         11    1    4    4    0    0 -0.37671866730E-01  0.37347695699E-01  0.37830805475E-01  0.65157124559E-01  0.51100000000E-03 0.  1.
</event>
<event>
 8    1  0.1112929E+005  0.1043930E+01  0.7957747E-01            NaN
         13   -1    0    0    0    0  0.00000000000E+00  0.00000000000E+00  0.74505805969E-08  0.10566000000E+00  0.10566000000E+00 0. -1.
     999900   -1    0    0    0    0 -0.00000000000E+00 -0.00000000000E+00 -0.74505805969E-08  0.93827000000E+00  0.93827000000E+00 0.  1.
     999902    2    1    2    0    0 -0.28226066890E-02  0.10969078139E-02  0.22700342012E-01  0.10210285624E+01  0.10207716931E+01 0.  0.
     999903    2    3    3    0    0  0.65348489881E-01 -0.11170009784E+00  0.96499557005E-02  0.13111801891E+00  0.18747699870E-01 0.  0.
         14    1    1    2    0    0  0.28226066890E-02 -0.10969078139E-02 -0.22700342012E-01  0.22901437569E-01  0.00000000000E+00 0.  1.
     999901    1    3    3    0    0 -0.68171096570E-01  0.11279700565E+00  0.13050386311E-01  0.88991054352E+00  0.88000000000E+00 0.  1.
        -11    1    4    4    0    0  0.21818145915E-01 -0.39027081815E-01 -0.55266734061E-02  0.45054964722E-01  0.51100000000E-03 0.  1.
         11    1    4    4    0    0  0.43530343965E-01 -0.72673016023E-01  0.15176629107E-01  0.86063054185E-01  0.51100000000E-03 0. -1.
</event>
<event>
 8    1  0.1112929E+005  0.1043930E+01  0.7957747E-01            NaN
         13   -1    0    0    0    0  0.00000000000E+00  0.00000000000E+00  0.74505805969E-08  0.10566000000E+00  0.10566000000E+00 0. -1.
     999900   -1    0    0    0    0 -0.00000000000E+00 -0.00000000000E+00 -0.74505805969E-08  0.93827000000E+00  0.93827000000E+00 0. -1.
     999902    2    1    2    0    0 -0.90271206070E-02  0.33202260506E-02 -0.21779869966E-01  0.10201208517E+01  0.10198429666E+01 0.  0.
     999903    2    3    3    0    0 -0.10926569386E+00 -0.59192576466E-01  0.34363093587E-01  0.13045369235E+00  0.19864306779E-01 0.  0.
         14    1    1    2    0    0  0.90271206070E-02 -0.33202260506E-02  0.21779869966E-01  0.23809148309E-01  0.00000000000E+00 0. -1.
     999901    1    3    3    0    0  0.10023857326E+00  0.62512802516E-01 -0.56142963552E-01  0.88966715934E+00  0.88000000000E+00 0. -1.
        -11    1    4    4    0    0 -0.54449488509E-01 -0.18279804990E-01  0.15078345961E-01  0.59384473621E-01  0.51100000000E-03 0.  1.
         11    1    4    4    0    0 -0.54816205354E-01 -0.40912771475E-01  0.19284747626E-01  0.71069218732E-01  0.51100000000E-03 0. -1.
</event>
<event>
 8    1  0.1112929E+005  0.1043930E+01  0.7957747E-01            NaN
         13   -1    0    0    0    0  0.00000000000E+00  0.00000000000E+00  0.74505805969E-08  0.10566000000E+00  0.10566000000E+00 0. -1.
     999900   -1    0    0    0    0 -0.00000000000E+00 -0.00000000000E+00 -0.74505805969E-08  0.93827000000E+00  0.93827000000E+00 0.  1.
     999902    2    1    2    0    0  0.13457959751E-01  0.22638704501E-01  0.24578710469E-01  0.10079058327E+01  0.10072618463E+01 0.  0.
     999903    2    3    3    0    0  0.38199838109E-01  0.11376607639E+00  0.17202372491E-01  0.12282348126E+00  0.19691068034E-01 0.  0.
         14    1    1    2    0    0 -0.13457959751E-01 -0.22638704501E-01 -0.24578710469E-01  0.36024167311E-01  0.00000000000E+00 0.  1.
     999901    1    3    3    0    0 -0.24741878358E-01 -0.91127371889E-01  0.73763379784E-02  0.88508235143E+00  0.88000000000E+00 0.  1.
        -11    1    4    4    0    0  0.38068288447E-01  0.10044336027E+00  0.19835911372E-01  0.10923272270E+00  0.51100000000E-03 0.  1.
         11    1    4    4    0    0  0.13154966177E-03  0.13322716123E-01 -0.26335388810E-02  0.13590758560E-01  0.51100000000E-03 0. -1.
</event>
<event>
 8    1  0.1112929E+005  0.1043930E+01  0.7957747E-01            NaN
         13   -1    0    0    0    0  0.00000000000E+00  0.00000000000E+00  0.74505805969E-08  0.10566000000E+00  0.10566000000E+00 0. -1.
     999900   -1    0    0    0    0 -0.00000000000E+00 -0.00000000000E+00 -0.74505805969E-08  0.93827000000E+00  0.93827000000E+00 0. -1.
     999902    2    1    2    0    0 -0.17594883630E-01  0.16208781776E-02  0.15312838791E-01  0.10205485927E+01  0.10202807162E+01 0.  0.
     999903    2    3    3    0    0  0.79969484709E-01 -0.94180341832E-01  0.34049419442E-01  0.12979175764E+00  0.20530029607E-01 0.  0.
         14    1    1    2    0    0  0.17594883630E-01 -0.16208781776E-02 -0.15312838791E-01  0.23381407311E-01  0.00000000000E+00 0.  1.
     999901    1    3    3    0    0 -0.97564368339E-01  0.95801220010E-01 -0.18736580651E-01  0.89075683504E+00  0.88000000000E+00 0. -1.
        -11    1    4    4    0    0  0.35716177795E-01 -0.55619271906E-01  0.12568800370E-01  0.67285842696E-01  0.51100000000E-03 0.  1.
         11    1    4    4    0    0  0.44253306914E-01 -0.38561069926E-01  0.21480619072E-01  0.62505914948E-01  0.51100000000E-03 0. -1.
</event>
<event>
 7    1  0.1112929E+005  0.1043930E+01  0.7957747E-01            NaN
         13   -1    0    0    0    0  0.00000000000E+00  0.00000000000E+00  0.74505805969E-08  0.10566000000E+00  0.10566000000E+00 0. -1.
     999900   -1    0    0    0    0 -0.00000000000E+00 -0.00000000000E+00 -0.74505805969E-08  0.93827000000E+00  0.93827000000E+00 0. -1.
     999903    2    1    2    0    0 -0.53406627830E-01  0.49796309823E-03 -0.34252349724E-01  0.65678757157E-01  0.16969378794E-01 0.  0.
         14    1    1    2    0    0  0.54543044594E-01 -0.62487366665E-01 -0.41644647278E-01  0.92811051891E-01  0.00000000000E+00 0.  1.
     999901    1    1    2    0    0 -0.11364167632E-02  0.61989403567E-01  0.75896997002E-01  0.88544019095E+00  0.88000000000E+00 0.  1.
        -11    1    3    3    0    0 -0.12408829049E-01 -0.69925896271E-02 -0.69853842090E-02  0.15872367864E-01  0.51100000000E-03 0. -1.
         11    1    3    3    0    0 -0.40997798782E-01  0.74905527253E-02 -0.27266965515E-01  0.49806389294E-01  0.51100000000E-03 0.  1.
</event>
<event>
 8    1  0.1112929E+005  0.1043930E+01  0.7957747E-01            NaN
         13   -1    0    0    0    0  0.00000000000E+00  0.00000000000E+00  0.74505805969E-08  0.10566000000E+00  0.10566000000E+00 0. -1.
     999900   -1    0    0    0    0 -0.00000000000E+00 -0.00000000000E+00 -0.74505805969E-08  0.93827000000E+00  0.93827000000E+00 0.  1.
     999902    2    1    2    0    0  0.21464041307E-01  0.52620851328E-02  0.82155783437E-02  0.10203526733E+01  0.10200802358E+01 0.  0.
     999903    2    3    3    0    0 -0.21291728292E-01 -0.11785668275E+00 -0.44209149495E-01  0.12921035076E+00  0.19933150314E-01 0.  0.
         14    1    1    2    0    0 -0.21464041307E-01 -0.52620851328E-02 -0.82155783437E-02  0.23577326750E-01  0.00000000000E+00 0. -1.
     999901    1    3    3    0    0  0.42755769599E-01  0.12311876789E+00  0.52424727838E-01  0.89114232249E+00  0.88000000000E+00 0.  1.
        -11    1    4    4    0    0  0.11103633245E-02 -0.48648452021E-01 -0.17293590544E-01  0.51645272637E-01  0.51100000000E-03 0.  1.
         11    1    4    4    0    0 -0.22402091617E-01 -0.69208230733E-01 -0.26915558950E-01  0.77565078126E-01  0.51100000000E-03 0. -1.
</event>
<event>
 7    1  0.1112929E+005  0.1043930E+01  0.7957747E-01            NaN
         13   -1    0    0    0    0  0.00000000000E+00  0.00000000000E+00  0.74505805969E-08  0.10566000000E+00  0.10566000000E+00 0.  1.
     999900   -1    0    0    0    0 -0.00000000000E+00 -0.00000000000E+00 -0.74505805969E-08  0.93827000000E+00  0.93827000000E+00 0. -1.
     999903    2    1    2    0    0 -0.55178988402E-01 -0.14666435882E-01 -0.37395501858E-01  0.70814765266E-01  0.18880739337E-01 0.  0.
         14    1    1    2    0    0  0.89013892847E-01 -0.10327000386E-01 -0.13593679268E-01  0.90636130615E-01  0.00000000000E+00 0. -1.
     999901    1    1    2    0    0 -0.33834904445E-01  0.24993436268E-01  0.50989181126E-01  0.88247910412E+00  0.88000000000E+00 0.  1.
        -11    1    3    3    0    0 -0.14145003591E-01 -0.10597382742E-01 -0.18038387590E-01  0.25259259597E-01  0.51100000000E-03 0.  1.
         11    1    3    3    0    0 -0.41033984811E-01 -0.40690531399E-02 -0.19357114269E-01  0.45555505669E-01  0.51100000000E-03 0. -1.
</event>
<event>
 8    1  0.1112929E+005  0.1043930E+01  0.7957747E-01            NaN
         13   -1    0    0    0    0  0.00000000000E+00  0.00000000000E+00  0.74505805969E-08  0.10566000000E+00  0.10566000000E+00 0. -1.
     999900   -1    0    0    0    0 -0.00000000000E+00 -0.00000000000E+00 -0.74505805969E-08  0.93827000000E+00  0.93827000000E+00 0. -1.
     999902    2    1    2    0    0  0.12218638546E-01 -0.15997099072E-01  0.12495674896E-01  0.10202372965E+01  0.10199621547E+01 0.  0.
     999903    2    3    3    0    0  0.46888834883E-01 -0.11561751324E+00  0.42776513293E-01  0.13342098037E+00  0.20133447508E-01 0.  0.
         14    1    1    2    0    0 -0.12218638546E-01  0.15997099072E-01 -0.12495674896E-01  0.23692703471E-01  0.00000000000E+00 0. -1.
     999901    1    3    3    0    0 -0.34670196337E-01  0.99620414169E-01 -0.30280838397E-01  0.88681631616E+00  0.88000000000E+00 0. -1.
        -11    1    4    4    0    0  0.20081450989E-01 -0.62576360444E-01  0.31690313591E-01  0.72963022530E-01  0.51100000000E-03 0.  1.
         11    1    4    4    0    0  0.26807383894E-01 -0.53041152797E-01  0.11086199702E-01  0.60457957840E-01  0.51100000000E-03 0. -1.
</event>
<event>
 8    1  0.1112929E+005  0.1043930E+01  0.7957747E-01            NaN
         13   -1    0    0    0    0  0.00000000000E+00  0.00000000000E+00  0.74505805969E-08  0.10566000000E+00  0.10566000000E+00 0. -1.
     999900   -1    0    0    0    0 -0.00000000000E+00 -0.00000000000E+00 -0.74505805969E-08  0.93827000000E+00  0.93827000000E+00 0.  1.
     999902    2    1    2    0    0  0.17835453692E-01 -0.20778269696E-03 -0.15264410328E-01  0.10204534414E+01  0.10201833547E+01 0.  0.
     999903    2    3    3    0    0  0.12015525332E+00  0.37373143740E-01 -0.40024024335E-01  0.13338258406E+00  0.18840234419E-01 0.  0.
         14    1    1    2    0    0 -0.17835453692E-01  0.20778269696E-03  0.15264410328E-01  0.23476558621E-01  0.00000000000E+00 0. -1.
     999901    1    3    3    0    0 -0.10231979962E+00 -0.37580926437E-01  0.24759614007E-01  0.88707085732E+00  0.88000000000E+00 0.  1.
        -11    1    4    4    0    0  0.49712663162E-01  0.72465633758E-02 -0.10842714397E-01  0.51397345612E-01  0.51100000000E-03 0.  1.
         11    1    4    4    0    0  0.70442590153E-01  0.30126580364E-01 -0.29181309938E-01  0.81985238443E-01  0.51100000000E-03 0. -1.
</event>
<event>
 8    1  0.1112929E+005  0.1043930E+01  0.7957747E-01            NaN
         13   -1    0    0    0    0  0.00000000000E+00  0.00000000000E+00  0.74505805969E-08  0.10566000000E+00  0.10566000000E+00 0. -1.
     999900   -1    0    0    0    0 -0.00000000000E+00 -0.00000000000E+00 -0.74505805969E-08  0.93827000000E+00  0.93827000000E+00 0. -1.
     999902    2    1    2    0    0 -0.20831271780E-01  0.12592660411E-01  0.22642391621E-02  0.10194832464E+01  0.10191900932E+01 0.  0.
     999903    2    3    3    0    0 -0.77415993730E-01  0.54253248556E-01 -0.89849706340E-01  0.13188963768E+00  0.19627932528E-01 0.  0.
         14    1    1    2    0    0  0.20831271780E-01 -0.12592660411E-01 -0.22642391621E-02  0.24446753551E-01  0.00000000000E+00 0.  1.
     999901    1    3    3    0    0  0.56584721949E-01 -0.41660588145E-01  0.92113945502E-01  0.88759360876E+00  0.88000000000E+00 0.  1.
        -11    1    4    4    0    0 -0.32592465660E-01  0.33750238309E-01 -0.49319468894E-01  0.68073625852E-01  0.51100000000E-03 0. -1.
         11    1    4    4    0    0 -0.44823528070E-01  0.20503010247E-01 -0.40530237446E-01  0.63816011833E-01  0.51100000000E-03 0.  1.
</event>
<event>
 8    1  0.1112929E+005  0.1043930E+01  0.7957747E-01            NaN
         13   -1    0    0    0    0  0.00000000000E+00  0.00000000000E+00  0.74505805969E-08  0.10566000000E+00  0.10566000000E+00 0.  1.
     999900   -1    0    0    0    0 -0.00000000000E+00 -0.00000000000E+00 -0.74505805969E-08  0.93827000000E+00  0.93827000000E+00 0. -1.
     999902    2    1    2    0    0 -0.34651034663E-01 -0.30451391123E-02  0.74442059078E-02  0.10083577738E+01  0.10077301309E+01 0.  0.
     999903    2    3    3    0    0 -0.11287329988E+00 -0.17147878150E-02  0.47171599438E-01  0.12399429739E+00  0.20152013990E-01 0.  0.
         14    1    1    2    0    0  0.34651034663E-01  0.30451391123E-02 -0.74442059078E-02  0.35572226203E-01  0.00000000000E+00 0.  1.
     999901    1    3    3    0    0  0.78222265217E-01 -0.13303512973E-02 -0.39727393530E-01  0.88436347641E+00  0.88000000000E+00 0.  1.
        -11    1    4    4    0    0 -0.85060000282E-01 -0.26191019138E-02  0.25874888338E-01  0.88948492457E-01  0.51100000000E-03 0. -1.
         11    1    4    4    0    0 -0.27813299598E-01  0.90431409883E-03  0.21296711100E-01  0.35045804931E-01  0.51100000000E-03 0.  1.
</event>
<event>
 8    1  0.1112929E+005  0.1043930E+01  0.7957747E-01            NaN
         13   -1    0    0    0    0  0.00000000000E+00  0.00000000000E+00  0.74505805969E-08  0.10566000000E+00  0.10566000000E+00 0.  1.
     999900   -1    0    0    0    0 -0.00000000000E+00 -0.00000000000E+00 -0.74505805969E-08  0.93827000000E+00  0.93827000000E+00 0. -1.
     999902    2    1    2    0    0 -0.23178530105E-01  0.76180061398E-02  0.74989651192E-03  0.10195201532E+01  0.10192278951E+01 0.  0.
     999903    2    3    3    0    0 -0.11905534739E+00 -0.53686583021E-01  0.42262947174E-02  0.13218554773E+00  0.19968287955E-01 0.  0.
         14    1    1    2    0    0  0.23178530105E-01 -0.76180061398E-02 -0.74989651192E-03  0.24409846787E-01  0.00000000000E+00 0.  1.
     999901    1    3    3    0    0  0.95876817281E-01  0.61304589160E-01 -0.34763982055E-02  0.88733460548E+00  0.88000000000E+00 0.  1.
        -11    1    4    4    0    0 -0.69179173102E-01 -0.41466690991E-01  0.51793418412E-02  0.80822838083E-01  0.51100000000E-03 0.  1.
         11    1    4    4    0    0 -0.49876174284E-01 -0.12219892029E-01 -0.95304712377E-03  0.51362709647E-01  0.51100000000E-03 0. -1.
</event>
<event>
 8    1  0.1112929E+005  0.1043930E+01  0.7957747E-01            NaN
         13   -1    0    0    0    0  0.00000000000E+00  0.00000000000E+00  0.74505805969E-08  0.10566000000E+00  0.10566000000E+00 0.  1.
     999900   -1    0    0    0    0 -0.00000000000E+00 -0.00000000000E+00 -0.74505805969E-08  0.93827000000E+00  0.93827000000E+00 0.  1.
     999902    2    1    2    0    0  0.17339415850E-01 -0.10049522603E-01 -0.12862885500E-01  0.10201160950E+01  0.10198380976E+01 0.  0.
     999903    2    3    3    0    0  0.59016505052E-01 -0.97932514497E-01 -0.65271836243E-01  0.13320736345E+00  0.20250032279E-01 0.  0.
         14    1    1    2    0    0 -0.17339415850E-01  0.10049522603E-01  0.12862885500E-01  0.23813904970E-01  0.00000000000E+00 0.  1.
     999901    1    3    3    0    0 -0.41677089203E-01  0.87882991894E-01  0.52408950743E-01  0.88690873158E+00  0.88000000000E+00 0. -1.
        -11    1    4    4    0    0  0.78050917505E-02 -0.30166210185E-01 -0.16608077266E-01  0.35313015245E-01  0.51100000000E-03 0.  1.
         11    1    4    4    0    0  0.51211413302E-01 -0.67766304312E-01 -0.48663758977E-01  0.97894348208E-01  0.51100000000E-03 0. -1.
</event>
<event>
 8    1  0.1112929E+005  0.1043930E+01  0.7957747E-01            NaN
         13   -1    0    0    0    0  0.00000000000E+00  0.00000000000E+00  0.74505805969E-08  0.10566000000E+00  0.10566000000E+00 0. -1.
     999900   -1    0    0    0    0 -0.00000000000E+00 -0.00000000000E+00 -0.74505805969E-08  0.93827000000E+00  0.93827000000E+00 0.  1.
     999902    2    1    2    0    0 -0.15821479476E-01  0.16196038608E-01  0.19266508238E-02  0.10212068210E+01  0.10209539796E+01 0.  0.
     999903    2    3    3    0    0 -0.12494671867E+00 -0.30563661287E-02 -0.41545608508E-01  0.13319285140E+00  0.19831142083E-01 0.  0.
         14    1    1    2    0    0  0.15821479476E-01 -0.16196038608E-01 -0.19266508238E-02  0.22723178976E-01  0.00000000000E+00 0. -1.
     999901    1    3    3    0    0  0.10912523920E+00  0.19252404736E-01  0.43472259332E-01  0.88801396963E+00  0.88000000000E+00 0. -1.
        -11    1    4    4    0    0 -0.15672148062E-01 -0.21968960345E-02 -0.12351120537E-01  0.20081182151E-01  0.51100000000E-03 0.  1.
         11    1    4    4    0    0 -0.10927457061E+00 -0.85947009416E-03 -0.29194487971E-01  0.11311166925E+00  0.51100000000E-03 0. -1.
</event>
<event>
 8    1  0.1112929E+005  0.1043930E+01  0.7957747E-01            NaN
         13   -1    0    0    0    0  0.00000000000E+00  0.00000000000E+00  0.74505805969E-08  0.10566000000E+00  0.10566000000E+00 0. -1.
     999900   -1    0    0    0    0 -0.00000000000E+00 -0.00000000000E+00 -0.74505805969E-08  0.93827000000E+00  0.93827000000E+00 0.  1.
     999902    2    1    2    0    0  0.11773150173E-04 -0.14042443296E-01  0.19869985715E-01  0.10195988125E+01  0.10193084576E+01 0.  0.
     999903    2    3    3    0    0 -0.26174299395E-01  0.79873895475E-01 -0.93304305004E-01  0.12701021233E+00  0.18999146763E-01 0.  0.
         14    1    1    2    0    0 -0.11773150173E-04  0.14042443296E-01 -0.19869985715E-01  0.24331187490E-01  0.00000000000E+00 0.  1.
     999901    1    3    3    0    0  0.26186072546E-01 -0.93916338772E-01  0.11317429072E+00  0.89258860018E+00  0.88000000000E+00 0. -1.
        -11    1    4    4    0    0 -0.10736047444E-01  0.19920998830E-01 -0.14858040122E-01  0.27076399066E-01  0.51100000000E-03 0. -1.
         11    1    4    4    0    0 -0.15438251952E-01  0.59952896645E-01 -0.78446264882E-01  0.99933813268E-01  0.51100000000E-03 0.  1.
</event>
<event>
 8    1  0.1112929E+005  0.1043930E+01  0.7957747E-01            NaN
         13   -1    0    0    0    0  0.00000000000E+00  0.00000000000E+00  0.74505805969E-08  0.10566000000E+00  0.10566000000E+00 0. -1.
     999900   -1    0    0    0    0 -0.00000000000E+00 -0.00000000000E+00 -0.74505805969E-08  0.93827000000E+00  0.93827000000E+00 0. -1.
     999902    2    1    2    0    0  0.80383731383E-02 -0.49121250699E-02 -0.20996864785E-01  0.10209166833E+01  0.10206572693E+01 0.  0.
     999903    2    3    3    0    0 -0.19042411393E-01  0.12299120374E+00 -0.35483032289E-01  0.13114003746E+00  0.21194674198E-01 0.  0.
         14    1    1    2    0    0 -0.80383731383E-02  0.49121250699E-02  0.20996864785E-01  0.23013316714E-01  0.00000000000E+00 0. -1.
     999901    1    3    3    0    0  0.27080784531E-01 -0.12790332881E+00  0.14486167504E-01  0.88977664583E+00  0.88000000000E+00 0.  1.
        -11    1    4    4    0    0 -0.11182456934E-01  0.44310227506E-01 -0.22734515203E-01  0.51044714782E-01  0.51100000000E-03 0.  1.
         11    1    4    4    0    0 -0.78599544592E-02  0.78680976236E-01 -0.12748517086E-01  0.80095322675E-01  0.51100000000E-03 0. -1.
</event>
<event>
 8    1  0.1112929E+005  0.1043930E+01  0.7957747E-01            NaN
         13   -1    0    0    0    0  0.00000000000E+00  0.00000000000E+00  0.74505805969E-08  0.10566000000E+00  0.10566000000E+00 0. -1.
     999900   -1    0    0    0    0 -0.00000000000E+00 -0.00000000000E+00 -0.74505805969E-08  0.93827000000E+00  0.93827000000E+00 0.  1.
     999902    2    1    2    0    0 -0.18356309751E-01 -0.15811710315E-01 -0.83348677861E-02  0.10183090259E+01  0.10179866590E+01 0.  0.
     999903    2    3    3    0    0  0.87518914732E-01  0.79333968217E-02  0.88495465386E-01  0.12637320611E+00  0.20401975588E-01 0.  0.
         14    1    1    2    0    0  0.18356309751E-01  0.15811710315E-01  0.83348677861E-02  0.25620974060E-01  0.00000000000E+00 0.  1.
     999901    1    3    3    0    0 -0.10587522448E+00 -0.23745107137E-01 -0.96830333172E-01  0.89193581983E+00  0.88000000000E+00 0.  1.
        -11    1    4    4    0    0  0.54719258844E-01 -0.17431258287E-02  0.43919722974E-01  0.70188595678E-01  0.51100000000E-03 0.  1.
         11    1    4    4    0    0  0.32799655888E-01  0.96765226504E-02  0.44575742412E-01  0.56184610433E-01  0.51100000000E-03 0. -1.
</event>
<event>
 8    1  0.1112929E+005  0.1043930E+01  0.7957747E-01            NaN
         13   -1    0    0    0    0  0.00000000000E+00  0.00000000000E+00  0.74505805969E-08  0.10566000000E+00  0.10566000000E+00 0. -1.
     999900   -1    0    0    0    0 -0.00000000000E+00 -0.00000000000E+00 -0.74505805969E-08  0.93827000000E+00  0.93827000000E+00 0. -1.
     999902    2    1    2    0    0  0.16786634027E-01 -0.73841485924E-02 -0.15515030162E-01  0.10199084910E+01  0.10196255671E+01 0.  0.
     999903    2    3    3    0    0 -0.23302649443E-02  0.77014402740E-01  0.10031002458E+00  0.12811029940E+00  0.20334685069E-01 0.  0.
         14    1    1    2    0    0 -0.16786634027E-01  0.73841485924E-02  0.15515030162E-01  0.24021508972E-01  0.00000000000E+00 0.  1.
     999901    1    3    3    0    0  0.19116898971E-01 -0.84398551333E-01 -0.11582505474E+00  0.89179819163E+00  0.88000000000E+00 0. -1.
        -11    1    4    4    0    0 -0.39452542837E-02  0.36876067175E-01  0.63939090700E-01  0.73918047879E-01  0.51100000000E-03 0.  1.
         11    1    4    4    0    0  0.16149893394E-02  0.40138335566E-01  0.36370933875E-01  0.54192251517E-01  0.51100000000E-03 0. -1.
</event>
<event>
 8    1  0.1112929E+005  0.1043930E+01  0.7957747E-01            NaN
         13   -1    0    0    0    0  0.00000000000E+00  0.00000000000E+00  0.74505805969E-08  0.10566000000E+00  0.10566000000E+00 0.  1.
     999900   -1    0    0    0    0 -0.00000000000E+00 -0.00000000000E+00 -0.74505805969E-08  0.93827000000E+00  0.93827000000E+00 0.  1.
     999902    2    1    2    0    0  0.73829552248E-02 -0.24193240808E-02 -0.22076665199E-01  0.10205261477E+01  0.10202577507E+01 0.  0.
     999903    2    3    3    0    0 -0.51360912322E-01  0.11750205786E+00  0.71423940034E-02  0.12997253715E+00  0.19929116992E-01 0.  0.
         14    1    1    2    0    0 -0.73829552248E-02  0.24193240808E-02  0.22076665199E-01  0.23403852314E-01  0.00000000000E+00 0.  1.
     999901    1    3    3    0    0  0.58743867547E-01 -0.11992138194E+00 -0.29219059202E-01  0.89055361054E+00  0.88000000000E+00 0. -1.
        -11    1    4    4    0    0 -0.22884953585E-02  0.88615575748E-02  0.56203958981E-02  0.10752412971E-01  0.51100000000E-03 0. -1.
         11    1    4    4    0    0 -0.49072416963E-01  0.10864050029E+00  0.15219981053E-02  0.11922012418E+00  0.51100000000E-03 0.  1.
</event>
<event>
 8    1  0.1112929E+005  0.1043930E+01  0.7957747E-01            NaN
         13   -1    0    0    0    0  0.00000000000E+00  0.00000000000E+00  0.74505805969E-08  0.10566000000E+00  0.10566000000E+00 0.  1.
     999900   -1    0    0    0    0 -0.00000000000E+00 -0.00000000000E+00 -0.74505805969E-08  0.93827000000E+00  0.93827000000E+00 0. -1.
     999902    2    1    2    0    0  0.15767457378E-01 -0.15065357200E-01  0.87384466087E-02  0.10204366361E+01  0.10201661581E+01 0.  0.
     999903    2    3    3    0    0 -0.99936528270E-01  0.33090357409E-01  0.73134694869E-01  0.12922775935E+00  0.16396608120E-01 0.  0.
         14    1    1    2    0    0 -0.15767457378E-01  0.15065357200E-01 -0.87384466087E-02  0.23493363932E-01  0.00000000000E+00 0.  1.
     999901    1    3    3    0    0  0.11570398565E+00 -0.48155714608E-01 -0.64396248260E-01  0.89120887671E+00  0.88000000000E+00 0.  1.
        -11    1    4    4    0    0 -0.23093205088E-01  0.15094115008E-01  0.20161252507E-01  0.34174049405E-01  0.51100000000E-03 0. -1.
         11    1    4    4    0    0 -0.76843323182E-01  0.17996242401E-01  0.52973442362E-01  0.95053709948E-01  0.51100000000E-03 0.  1.
</event>
<event>
 8    1  0.1112929E+005  0.1043930E+01  0.7957747E-01            NaN
         13   -1    0    0    0    0  0.00000000000E+00  0.00000000000E+00  0.74505805969E-08  0.10566000000E+00  0.10566000000E+00 0.  1.
     999900   -1    0    0    0    0 -0.00000000000E+00 -0.00000000000E+00 -0.74505805969E-08  0.93827000000E+00  0.93827000000E+00 0.  1.
     999902    2    1    2    0    0 -0.82205990279E-02  0.20117733190E-01  0.11631142853E-01  0.10192807623E+01  0.10189826728E+01 0.  0.
     999903    2    3    3    0    0 -0.22315663585E-01 -0.10218746582E+00 -0.69402114083E-01  0.12702316421E+00  0.19441290994E-01 0.  0.
         14    1    1    2    0    0  0.82205990279E-02 -0.20117733190E-01 -0.11631142853E-01  0.24649237740E-01  0.00000000000E+00 0.  1.
     999901    1    3    3    0    0  0.14095064557E-01  0.12230519901E+00  0.81033256936E-01  0.89225759805E+00  0.88000000000E+00 0. -1.
        -11    1    4    4    0    0 -0.11123730365E-01 -0.18182850651E-01 -0.10140690329E-01  0.23610340031E-01  0.51100000000E-03 0.  1.
         11    1    4    4    0    0 -0.11191933219E-01 -0.84004615165E-01 -0.59261423754E-01  0.10341282418E+00  0.51100000000E-03 0. -1.
</event>
<event>
 7    1  0.1112929E+005  0.1043930E+01  0.7957747E-01            NaN
         13   -1    0    0    0    0  0.00000000000E+00  0.00000000000E+00  0.74505805969E-08  0.10566000000E+00  0.10566000000E+00 0. -1.
     999900   -1    0    0    0    0 -0.00000000000E+00 -0.00000000000E+00 -0.74505805969E-08  0.93827000000E+00  0.93827000000E+00 0.  1.
     999903    2    1    2    0    0  0.82720908636E-01  0.63047223961E-01 -0.39020423012E-01  0.11421353189E+00  0.26541218489E-01 0.  0.
         14    1    1    2    0    0  0.49163849525E-02 -0.32663175219E-01 -0.26602509274E-01  0.42411641752E-01  0.00000000000E+00 0. -1.
     999901    1    1    2    0    0 -0.87637293589E-01 -0.30384048742E-01  0.65622932286E-01  0.88730482636E+00  0.88000000000E+00 0.  1.
        -11    1    3    3    0    0  0.23111517233E-01  0.24858052755E-01 -0.24708699811E-01  0.41986259454E-01  0.51100000000E-03 0.  1.
         11    1    3    3    0    0  0.59609391403E-01  0.38189171206E-01 -0.14311723201E-01  0.72227272431E-01  0.51100000000E-03 0. -1.
</event>
<event>
 8    1  0.1509551E+005  0.1043930E+01  0.7957747E-01            NaN
         13   -1    0    0    0    0  0.00000000000E+00  0.00000000000E+00  0.74505805969E-08  0.10566000000E+00  0.10566000000E+00 0. -1.
     999900   -1    0    0    0    0 -0.00000000000E+00 -0.00000000000E+00 -0.74505805969E-08  0.93827000000E+00  0.93827000000E+00 0. -1.
     999902    2    1    2    0    0  0.62500323822E-02 -0.10204325830E-01 -0.20060964973E-01  0.10205712011E+01  0.10203038484E+01 0.  0.
     999903    2    3    3    0    0  0.43142122706E-01 -0.11194433634E+00  0.49138493072E-01  0.13124526475E+00  0.20443845727E-01 0.  0.
         14    1    1    2    0    0 -0.62500323822E-02  0.10204325830E-01  0.20060964973E-01  0.23358798900E-01  0.00000000000E+00 0. -1.
     999901    1    3    3    0    0 -0.36892090324E-01  0.10174001051E+00 -0.69199458045E-01  0.88932593635E+00  0.88000000000E+00 0. -1.
        -11    1    4    4    0    0  0.32507556451E-01 -0.56510214000E-01  0.24333256708E-01  0.69588174395E-01  0.51100000000E-03 0. -1.
         11    1    4    4    0    0  0.10634566255E-01 -0.55434122341E-01  0.24805236364E-01  0.61657090357E-01  0.51100000000E-03 0.  1.
</event>
<event>
 8    1  0.1112929E+005  0.1043930E+01  0.7957747E-01            NaN
         13   -1    0    0    0    0  0.00000000000E+00  0.00000000000E+00  0.74505805969E-08  0.10566000000E+00  0.10566000000E+00 0.  1.
     999900   -1    0    0    0    0 -0.00000000000E+00 -0.00000000000E+00 -0.74505805969E-08  0.93827000000E+00  0.93827000000E+00 0.  1.
     999902    2    1    2    0    0  0.16726349221E-01 -0.15536189465E-01 -0.67432303285E-02  0.10201263218E+01  0.10198485659E+01 0.  0.
     999903    2    3    3    0    0  0.73054098967E-01  0.85531055082E-01 -0.63609000776E-01  0.13073264114E+00  0.19810495239E-01 0.  0.
         14    1    1    2    0    0 -0.16726349221E-01  0.15536189465E-01  0.67432303285E-02  0.23803678216E-01  0.00000000000E+00 0.  1.
     999901    1    3    3    0    0 -0.56327749746E-01 -0.10106724455E+00  0.56865770448E-01  0.88939368064E+00  0.88000000000E+00 0. -1.
        -11    1    4    4    0    0  0.19792618213E-01  0.13655311122E-01 -0.77688824116E-02  0.25275124381E-01  0.51100000000E-03 0.  1.
         11    1    4    4    0    0  0.53261480754E-01  0.71875743960E-01 -0.55840118365E-01  0.10545751676E+00  0.51100000000E-03 0. -1.
</event>
<event>
 8    1  0.1112929E+005  0.1043930E+01  0.7957747E-01            NaN
         13   -1    0    0    0    0  0.00000000000E+00  0.00000000000E+00  0.74505805969E-08  0.10566000000E+00  0.10566000000E+00 0.  1.
     999900   -1    0    0    0    0 -0.00000000000E+00 -0.00000000000E+00 -0.74505805969E-08  0.93827000000E+00  0.93827000000E+00 0. -1.
     999902    2    1    2    0    0  0.19065752248E-01 -0.87534433106E-02  0.60324876770E-02  0.10221007401E+01  0.10218676071E+01 0.  0.
     999903    2    3    3    0    0  0.12147207943E-01 -0.23959483000E-01 -0.12757908874E+00  0.13185855778E+00  0.19714053113E-01 0.  0.
         14    1    1    2    0    0 -0.19065752248E-01  0.87534433106E-02 -0.60324876770E-02  0.21829259863E-01  0.00000000000E+00 0. -1.
     999901    1    3    3    0    0  0.69185443053E-02  0.15206039689E-01  0.13361157641E+00  0.89024218236E+00  0.88000000000E+00 0.  1.
        -11    1    4    4    0    0  0.98227642254E-02 -0.96983460212E-02 -0.97627233972E-01  0.98599607233E-01  0.51100000000E-03 0. -1.
         11    1    4    4    0    0  0.23244437178E-02 -0.14261136979E-01 -0.29951854765E-01  0.33258950545E-01  0.51100000000E-03 0.  1.
</event>
<event>
 7    1  0.1112929E+005  0.1043930E+01  0.7957747E-01            NaN
         13   -1    0    0    0    0  0.00000000000E+00  0.00000000000E+00  0.74505805969E-08  0.10566000000E+00  0.10566000000E+00 0.  1.
     999900   -1    0    0    0    0 -0.00000000000E+00 -0.00000000000E+00 -0.74505805969E-08  0.93827000000E+00  0.93827000000E+00 0. -1.
     999903    2    1    2    0    0 -0.43196230000E-01  0.54389656354E-01  0.80649197215E-01  0.10820413745E+00  0.19485721578E-01 0.  0.
         14    1    1    2    0    0 -0.99225036034E-02 -0.48786485226E-01  0.45836055616E-02  0.49995866413E-01  0.00000000000E+00 0.  1.
     999901    1    1    2    0    0  0.53118733603E-01 -0.56031711284E-02 -0.85232802777E-01  0.88572999614E+00  0.88000000000E+00 0. -1.
        -11    1    3    3    0    0 -0.29555003597E-01  0.22525107929E-01  0.46710454397E-01  0.59690923898E-01  0.51100000000E-03 0.  1.
         11    1    3    3    0    0 -0.13641226403E-01  0.31864548425E-01  0.33938742818E-01  0.48513213553E-01  0.51100000000E-03 0. -1.
</event>
<event>
 7    1  0.1112929E+005  0.1043930E+01  0.7957747E-01            NaN
         13   -1    0    0    0    0  0.00000000000E+00  0.00000000000E+00  0.74505805969E-08  0.10566000000E+00  0.10566000000E+00 0. -1.
     999900   -1    0    0    0    0 -0.00000000000E+00 -0.00000000000E+00 -0.74505805969E-08  0.93827000000E+00  0.93827000000E+00 0.  1.
     999903    2    1    2    0    0  0.36018979688E-02  0.51985053434E-03 -0.11007108860E+00  0.11203890934E+00  0.20587101478E-01 0.  0.
         14    1    1    2    0    0  0.35268840655E-01  0.11301261528E-01 -0.18873067761E-01  0.41566841592E-01  0.00000000000E+00 0. -1.
     999901    1    1    2    0    0 -0.38870738623E-01 -0.11821112062E-01  0.12894415636E+00  0.89032424906E+00  0.88000000000E+00 0. -1.
        -11    1    3    3    0    0 -0.34025614706E-02 -0.37804581712E-02 -0.92420466433E-01  0.92561725488E-01  0.51100000000E-03 0.  1.
         11    1    3    3    0    0  0.70044594394E-02  0.43003087056E-02 -0.17650622169E-01  0.19477183856E-01  0.51100000000E-03 0. -1.
</event>
<event>
 8    1  0.1112929E+005  0.1043930E+01  0.7957747E-01            NaN
         13   -1    0    0    0    0  0.00000000000E+00  0.00000000000E+00  0.74505805969E-08  0.10566000000E+00  0.10566000000E+00 0.  1.
     999900   -1    0    0    0    0 -0.00000000000E+00 -0.00000000000E+00 -0.74505805969E-08  0.93827000000E+00  0.93827000000E+00 0.  1.
     999902    2    1    2    0    0  0.19103782114E-01  0.14092136259E-01 -0.86876565608E-03  0.10201750521E+01  0.10198984456E+01 0.  0.
     999903    2    3    3    0    0 -0.11743520126E+00  0.47906786984E-01 -0.12843995545E-01  0.12892327471E+00  0.19239433664E-01 0.  0.
         14    1    1    2    0    0 -0.19103782114E-01 -0.14092136259E-01  0.86876565608E-03  0.23754947888E-01  0.00000000000E+00 0. -1.
     999901    1    3    3    0    0  0.13653898337E+00 -0.33814650725E-01  0.11975229889E-01  0.89125177740E+00  0.88000000000E+00 0.  1.
        -11    1    4    4    0    0 -0.34609111353E-01  0.51630545787E-02 -0.55324823634E-02  0.35430455873E-01  0.51100000000E-03 0.  1.
         11    1    4    4    0    0 -0.82826089905E-01  0.42743732406E-01 -0.73115131816E-02  0.93492818841E-01  0.51100000000E-03 0. -1.
</event>
<event>
 8    1  0.1112929E+005  0.1043930E+01  0.7957747E-01            NaN
         13   -1    0    0    0    0  0.00000000000E+00  0.00000000000E+00  0.74505805969E-08  0.10566000000E+00  0.10566000000E+00 0.  1.
     999900   -1    0    0    0    0 -0.00000000000E+00 -0.00000000000E+00 -0.74505805969E-08  0.93827000000E+00  0.93827000000E+00 0. -1.
     999902    2    1    2    0    0  0.80536566837E-02 -0.97496832955E-02  0.21698597549E-01  0.10188153261E+01  0.10185057299E+01 0.  0.
     999903    2    3    3    0    0  0.11300387954E+00  0.87036333667E-02 -0.57878673262E-01  0.12882228330E+00  0.19990243420E-01 0.  0.
         14    1    1    2    0    0 -0.80536566837E-02  0.97496832955E-02 -0.21698597549E-01  0.25114673917E-01  0.00000000000E+00 0. -1.
     999901    1    3    3    0    0 -0.10495022285E+00 -0.18453316662E-01  0.79577270811E-01  0.88999304278E+00  0.88000000000E+00 0.  1.
        -11    1    4    4    0    0  0.93979293917E-01  0.24143064812E-02 -0.53967221351E-01  0.10840045508E+00  0.51100000000E-03 0.  1.
         11    1    4    4    0    0  0.19024585620E-01  0.62893268855E-02 -0.39114519114E-02  0.20421828217E-01  0.51100000000E-03 0. -1.
</event>
<event>
 8    1  0.1112929E+005  0.1043930E+01  0.7957747E-01            NaN
         13   -1    0    0    0    0  0.00000000000E+00  0.00000000000E+00  0.74505805969E-08  0.10566000000E+00  0.10566000000E+00 0. -1.
     999900   -1    0    0    0    0 -0.00000000000E+00 -0.00000000000E+00 -0.74505805969E-08  0.93827000000E+00  0.93827000000E+00 0. -1.
     999902    2    1    2    0    0 -0.20250208168E-01 -0.12367109360E-01  0.38795394792E-03  0.10201988636E+01  0.10199228179E+01 0.  0.
     999903    2    3    3    0    0 -0.61493659206E-01  0.72053231235E-02 -0.11437049704E+00  0.13157430600E+00  0.19944939283E-01 0.  0.
         14    1    1    2    0    0  0.20250208168E-01  0.12367109360E-01 -0.38795394792E-03  0.23731136362E-01  0.00000000000E+00 0. -1.
     999901    1    3    3    0    0  0.41243451038E-01 -0.19572432484E-01  0.11475845098E+00  0.88862455764E+00  0.88000000000E+00 0.  1.
        -11    1    4    4    0    0 -0.82062311711E-02  0.37377849866E-02 -0.33242786948E-01  0.34447892123E-01  0.51100000000E-03 0. -1.
         11    1    4    4    0    0 -0.53287428035E-01  0.34675381370E-02 -0.81127710088E-01  0.97126413876E-01  0.51100000000E-03 0.  1.
</event>
<event>
 8    1  0.1112929E+005  0.1043930E+01  0.7957747E-01            NaN
         13   -1    0    0    0    0  0.00000000000E+00  0.00000000000E+00  0.74505805969E-08  0.10566000000E+00  0.10566000000E+00 0.  1.
     999900   -1    0    0    0    0 -0.00000000000E+00 -0.00000000000E+00 -0.74505805969E-08  0.93827000000E+00  0.93827000000E+00 0.  1.
     999902    2    1    2    0    0  0.14548550257E-01  0.18458561904E-01 -0.45261754497E-02  0.10199953998E+01  0.10197145437E+01 0.  0.
     999903    2    3    3    0    0  0.69547295606E-01  0.72940997323E-01 -0.84421510736E-01  0.13299119330E+00  0.20061171558E-01 0.  0.
         14    1    1    2    0    0 -0.14548550257E-01 -0.18458561904E-01  0.45261754497E-02  0.23934600192E-01  0.00000000000E+00 0.  1.
     999901    1    3    3    0    0 -0.54998745348E-01 -0.54482435419E-01  0.79895335286E-01  0.88700420651E+00  0.88000000000E+00 0. -1.
        -11    1    4    4    0    0  0.40675085548E-01  0.42159633372E-01 -0.61600219020E-01  0.85010266290E-01  0.51100000000E-03 0. -1.
         11    1    4    4    0    0  0.28872210058E-01  0.30781363951E-01 -0.22821291716E-01  0.47980927012E-01  0.51100000000E-03 0.  1.
</event>
<event>
 8    1  0.1112929E+005  0.1043930E+01  0.7957747E-01            NaN
         13   -1    0    0    0    0  0.00000000000E+00  0.00000000000E+00  0.74505805969E-08  0.10566000000E+00  0.10566000000E+00 0. -1.
     999900   -1    0    0    0    0 -0.00000000000E+00 -0.00000000000E+00 -0.74505805969E-08  0.93827000000E+00  0.93827000000E+00 0.  1.
     999902    2    1    2    0    0 -0.21759647430E-02 -0.30961201574E-02 -0.23417117929E-01  0.10202090769E+01  0.10199332715E+01 0.  0.
     999903    2    3    3    0    0  0.36560899438E-01 -0.21463719566E-01 -0.12468272934E+00  0.13336487554E+00  0.21047954954E-01 0.  0.
         14    1    1    2    0    0  0.21759647430E-02  0.30961201574E-02  0.23417117929E-01  0.23720923142E-01  0.00000000000E+00 0. -1.
     999901    1    3    3    0    0 -0.38736864181E-01  0.18367599408E-01  0.10126561141E+00  0.88684420132E+00  0.88000000000E+00 0. -1.
        -11    1    4    4    0    0 -0.26153531216E-02 -0.25320337210E-02 -0.12829816400E-01  0.13346032241E-01  0.51100000000E-03 0. -1.
         11    1    4    4    0    0  0.39176252559E-01 -0.18931685845E-01 -0.11185291294E+00  0.12001884330E+00  0.51100000000E-03 0.  1.
</event>
<event>
 8    1  0.1112929E+005  0.1043930E+01  0.7957747E-01            NaN
         13   -1    0    0    0    0  0.00000000000E+00  0.00000000000E+00  0.74505805969E-08  0.10566000000E+00  0.10566000000E+00 0.  1.
     999900   -1    0    0    0    0 -0.00000000000E+00 -0.00000000000E+00 -0.74505805969E-08  0.93827000000E+00  0.93827000000E+00 0.  1.
     999902    2    1    2    0    0  0.98195011016E-02 -0.14690280935E-01  0.14431342407E-01  0.10211157369E+01  0.10208608414E+01 0.  0.
     999903    2    3    3    0    0 -0.58097491520E-01  0.11331687704E+00  0.11769140917E-01  0.12926057061E+00  0.18808224058E-01 0.  0.
         14    1    1    2    0    0 -0.98195011016E-02  0.14690280935E-01 -0.14431342407E-01  0.22814263071E-01  0.00000000000E+00 0. -1.
     999901    1    3    3    0    0  0.67916992622E-01 -0.12800715798E+00  0.26622014899E-02  0.89185516632E+00  0.88000000000E+00 0. -1.
        -11    1    4    4    0    0 -0.36876896910E-01  0.62011952199E-01  0.14810650478E-01  0.73654628027E-01  0.51100000000E-03 0. -1.
         11    1    4    4    0    0 -0.21220594610E-01  0.51304924842E-01 -0.30415095617E-02  0.55605942579E-01  0.51100000000E-03 0.  1.
</event>
<event>
 8    1  0.1112929E+005  0.1043930E+01  0.7957747E-01            NaN
         13   -1    0    0    0    0  0.00000000000E+00  0.00000000000E+00  0.74505805969E-08  0.10566000000E+00  0.10566000000E+00 0. -1.
     999900   -1    0    0    0    0 -0.00000000000E+00 -0.00000000000E+00 -0.74505805969E-08  0.93827000000E+00  0.93827000000E+00 0. -1.
     999902    2    1    2    0    0 -0.13165892980E-01 -0.16400406518E-01 -0.10627747658E-01  0.10203659789E+01  0.10200938524E+01 0.  0.
     999903    2    3    3    0    0 -0.81606188072E-01 -0.73972473031E-01  0.70146578344E-01  0.13215254248E+00  0.20304071798E-01 0.  0.
         14    1    1    2    0    0  0.13165892980E-01  0.16400406518E-01  0.10627747658E-01  0.23564021138E-01  0.00000000000E+00 0.  1.
     999901    1    3    3    0    0  0.68440295091E-01  0.57572066513E-01 -0.80774326002E-01  0.88821343639E+00  0.88000000000E+00 0. -1.
        -11    1    4    4    0    0 -0.16494420469E-01 -0.20611613547E-01  0.26158450254E-01  0.37167595568E-01  0.51100000000E-03 0. -1.
         11    1    4    4    0    0 -0.65111767603E-01 -0.53360859484E-01  0.43988128090E-01  0.94984946908E-01  0.51100000000E-03 0.  1.
</event>
<event>
 8    1  0.1112929E+005  0.1043930E+01  0.7957747E-01            NaN
         13   -1    0    0    0    0  0.00000000000E+00  0.00000000000E+00  0.74505805969E-08  0.10566000000E+00  0.10566000000E+00 0. -1.
     999900   -1    0    0    0    0 -0.00000000000E+00 -0.00000000000E+00 -0.74505805969E-08  0.93827000000E+00  0.93827000000E+00 0.  1.
     999902    2    1    2    0    0  0.17119108264E-01 -0.60772039301E-02 -0.15079552624E-01  0.10203209089E+01  0.10200477283E+01 0.  0.
     999903    2    3    3    0    0  0.25949828216E-01 -0.40870808937E-02 -0.12864320793E+00  0.13297731929E+00  0.21066435037E-01 0.  0.
         14    1    1    2    0    0 -0.17119108264E-01  0.60772039301E-02  0.15079552624E-01  0.23609091103E-01  0.00000000000E+00 0. -1.
     999901    1    3    3    0    0 -0.88307199522E-02 -0.19901230364E-02  0.11356365531E+00  0.88734358960E+00  0.88000000000E+00 0. -1.
        -11    1    4    4    0    0  0.16234627894E-01 -0.58439784174E-02 -0.37299919804E-01  0.41100612708E-01  0.51100000000E-03 0.  1.
         11    1    4    4    0    0  0.97152003222E-02  0.17568975238E-02 -0.91343288126E-01  0.91876706585E-01  0.51100000000E-03 0. -1.
</event>
<event>
 8    1  0.1112929E+005  0.1043930E+01  0.7957747E-01            NaN
         13   -1    0    0    0    0  0.00000000000E+00  0.00000000000E+00  0.74505805969E-08  0.10566000000E+00  0.10566000000E+00 0. -1.
     999900   -1    0    0    0    0 -0.00000000000E+00 -0.00000000000E+00 -0.74505805969E-08  0.93827000000E+00  0.93827000000E+00 0. -1.
     999902    2    1    2    0    0  0.11599785904E-01 -0.19961111201E-01 -0.56305806068E-02  0.10201664895E+01  0.10198896812E+01 0.  0.
     999903    2    3    3    0    0  0.47863802267E-01 -0.10948269028E+00 -0.57274424308E-01  0.13337661664E+00  0.15217067702E-01 0.  0.
         14    1    1    2    0    0 -0.11599785904E-01  0.19961111201E-01  0.56305806068E-02  0.23763510501E-01  0.00000000000E+00 0. -1.
     999901    1    3    3    0    0 -0.36264016364E-01  0.89521579079E-01  0.51643843701E-01  0.88678987285E+00  0.88000000000E+00 0. -1.
        -11    1    4    4    0    0  0.19257527039E-01 -0.52255476072E-01 -0.34234288178E-01  0.65373807716E-01  0.51100000000E-03 0.  1.
         11    1    4    4    0    0  0.28606275228E-01 -0.57227214207E-01 -0.23040136131E-01  0.68002808929E-01  0.51100000000E-03 0. -1.
</event>
<event>
 8    1  0.1112929E+005  0.1043930E+01  0.7957747E-01            NaN
         13   -1    0    0    0    0  0.00000000000E+00  0.00000000000E+00  0.74505805969E-08  0.10566000000E+00  0.10566000000E+00 0. -1.
     999900   -1    0    0    0    0 -0.00000000000E+00 -0.00000000000E+00 -0.74505805969E-08  0.93827000000E+00  0.93827000000E+00 0. -1.
     999902    2    1    2    0    0  0.25098345996E-02  0.25123729126E-01  0.43203153914E-02  0.10183142595E+01  0.10179920260E+01 0.  0.
     999903    2    3    3    0    0 -0.12001552959E-01  0.12682774451E+00 -0.26719760371E-01  0.13179422398E+00  0.20650855410E-01 0.  0.
         14    1    1    2    0    0 -0.25098345996E-02 -0.25123729126E-01 -0.43203153914E-02  0.25615740473E-01  0.00000000000E+00 0. -1.
     999901    1    3    3    0    0  0.14511387559E-01 -0.10170401539E+00  0.31040075763E-01  0.88652003554E+00  0.88000000000E+00 0. -1.
        -11    1    4    4    0    0 -0.12986853378E-01  0.54871860909E-01 -0.49392330167E-02  0.56605976929E-01  0.51100000000E-03 0.  1.
         11    1    4    4    0    0  0.98530041944E-03  0.71955883606E-01 -0.21780527355E-01  0.75188247056E-01  0.51100000000E-03 0. -1.
</event>
<event>
 8    1  0.1112929E+005  0.1043930E+01  0.7957747E-01            NaN
         13   -1    0    0    0    0  0.00000000000E+00  0.00000000000E+00  0.74505805969E-08  0.10566000000E+00  0.10566000000E+00 0. -1.
     999900   -1    0    0    0    0 -0.00000000000E+00 -0.00000000000E+00 -0.74505805969E-08  0.93827000000E+00  0.93827000000E+00 0. -1.
     999902    2    1    2    0    0  0.21340572752E-01  0.60179665562E-02  0.97971629331E-02  0.10196891178E+01  0.10194009401E+01 0.  0.
     999903    2    3    3    0    0 -0.39888744578E-01 -0.79370044134E-01  0.92134111767E-01  0.12962197721E+00  0.20553505164E-01 0.  0.
         14    1    1    2    0    0 -0.21340572752E-01 -0.60179665562E-02 -0.97971629331E-02  0.24240882170E-01  0.00000000000E+00 0. -1.
     999901    1    3    3    0    0  0.61229317330E-01  0.85388010690E-01 -0.82336948834E-01  0.89006714062E+00  0.88000000000E+00 0.  1.
        -11    1    4    4    0    0 -0.16052308199E-01 -0.26910164537E-01  0.46703833920E-01  0.56243602105E-01  0.51100000000E-03 0.  1.
         11    1    4    4    0    0 -0.23836436379E-01 -0.52459879597E-01  0.45430277847E-01  0.73378375103E-01  0.51100000000E-03 0. -1.
</event>
<event>
 8    1  0.1112929E+005  0.1043930E+01  0.7957747E-01            NaN
         13   -1    0    0    0    0  0.00000000000E+00  0.00000000000E+00  0.74505805969E-08  0.10566000000E+00  0.10566000000E+00 0.  1.
     999900   -1    0    0    0    0 -0.00000000000E+00 -0.00000000000E+00 -0.74505805969E-08  0.93827000000E+00  0.93827000000E+00 0.  1.
     999902    2    1    2    0    0 -0.19367585630E-01 -0.12065727101E-01 -0.62670514546E-02  0.10202665033E+01  0.10199920473E+01 0.  0.
     999903    2    3    3    0    0 -0.10395072236E+00  0.62339138355E-01  0.46971388662E-01  0.13148940943E+00  0.19779600353E-01 0.  0.
         14    1    1    2    0    0  0.19367585630E-01  0.12065727101E-01  0.62670514546E-02  0.23663496731E-01  0.00000000000E+00 0.  1.
     999901    1    3    3    0    0  0.84583136730E-01 -0.74404865456E-01 -0.53238440116E-01  0.88877709384E+00  0.88000000000E+00 0. -1.
        -11    1    4    4    0    0 -0.51513213428E-01  0.28277372660E-01  0.12481654408E-01  0.60077231794E-01  0.51100000000E-03 0. -1.
         11    1    4    4    0    0 -0.52437508931E-01  0.34061765696E-01  0.34489734253E-01  0.71412177639E-01  0.51100000000E-03 0.  1.
</event>
<event>
 8    1  0.1112929E+005  0.1043930E+01  0.7957747E-01            NaN
         13   -1    0    0    0    0  0.00000000000E+00  0.00000000000E+00  0.74505805969E-08  0.10566000000E+00  0.10566000000E+00 0. -1.
     999900   -1    0    0    0    0 -0.00000000000E+00 -0.00000000000E+00 -0.74505805969E-08  0.93827000000E+00  0.93827000000E+00 0.  1.
     999902    2    1    2    0    0 -0.17684857185E-01 -0.43996561810E-02 -0.14256403150E-01  0.10207922348E+01  0.10205299753E+01 0.  0.
     999903    2    3    3    0    0  0.11257852398E+00  0.64947413345E-02  0.57757007784E-01  0.12822673707E+00  0.19751415770E-01 0.  0.
         14    1    1    2    0    0  0.17684857185E-01  0.43996561810E-02  0.14256403150E-01  0.23137765211E-01  0.00000000000E+00 0. -1.
     999901    1    3    3    0    0 -0.13026338116E+00 -0.10894397515E-01 -0.72013410934E-01  0.89256549772E+00  0.88000000000E+00 0.  1.
        -11    1    4    4    0    0  0.84171338427E-01  0.13352018823E-01  0.41730261480E-01  0.94893447948E-01  0.51100000000E-03 0. -1.
         11    1    4    4    0    0  0.28407185550E-01 -0.68572774885E-02  0.16026746304E-01  0.33333289120E-01  0.51100000000E-03 0.  1.
</event>
<event>
 8    1  0.1112929E+005  0.1043930E+01  0.7957747E-01            NaN
         13   -1    0    0    0    0  0.00000000000E+00  0.00000000000E+00  0.74505805969E-08  0.10566000000E+00  0.10566000000E+00 0.  1.
     999900   -1    0    0    0    0 -0.00000000000E+00 -0.00000000000E+00 -0.74505805969E-08  0.93827000000E+00  0.93827000000E+00 0. -1.
     999902    2    1    2    0    0 -0.13748787292E-02 -0.17455373721E-01 -0.14613208095E-01  0.10211237242E+01  0.10208690092E+01 0.  0.
     999903    2    3    3    0    0  0.55728986352E-01 -0.11941481291E+00  0.94905383911E-03  0.13326181907E+00  0.19803894998E-01 0.  0.
         14    1    1    2    0    0  0.13748787292E-02  0.17455373721E-01  0.14613208095E-01  0.22806275761E-01  0.00000000000E+00 0.  1.
     999901    1    3    3    0    0 -0.57103865081E-01  0.10195943919E+00 -0.15562261934E-01  0.88786190517E+00  0.88000000000E+00 0. -1.
        -11    1    4    4    0    0  0.22845185275E-01 -0.47416011369E-01 -0.92877030227E-02  0.53448135355E-01  0.51100000000E-03 0.  1.
         11    1    4    4    0    0  0.32883801077E-01 -0.71998801542E-01  0.10236756862E-01  0.79813683719E-01  0.51100000000E-03 0. -1.
</event>
<event>
 8    1  0.1112929E+005  0.1043930E+01  0.7957747E-01            NaN
         13   -1    0    0    0    0  0.00000000000E+00  0.00000000000E+00  0.74505805969E-08  0.10566000000E+00  0.10566000000E+00 0.  1.
     999900   -1    0    0    0    0 -0.00000000000E+00 -0.00000000000E+00 -0.74505805969E-08  0.93827000000E+00  0.93827000000E+00 0.  1.
     999902    2    1    2    0    0  0.13739067010E-01  0.77168547111E-02  0.17552902957E-01  0.10203415238E+01  0.10200688256E+01 0.  0.
     999903    2    3    3    0    0  0.54998647751E-01  0.74214086450E-01  0.94343724129E-01  0.13353767564E+00  0.19974750324E-01 0.  0.
         14    1    1    2    0    0 -0.13739067010E-01 -0.77168547111E-02 -0.17552902957E-01  0.23588476237E-01  0.00000000000E+00 0. -1.
     999901    1    3    3    0    0 -0.41259580741E-01 -0.66497231739E-01 -0.76790821172E-01  0.88680384812E+00  0.88000000000E+00 0. -1.
        -11    1    4    4    0    0  0.41095349303E-01  0.60766713449E-01  0.62981650320E-01  0.96686972213E-01  0.51100000000E-03 0. -1.
         11    1    4    4    0    0  0.13903298448E-01  0.13447373001E-01  0.31362073810E-01  0.36850703426E-01  0.51100000000E-03 0.  1.
</event>
<event>
 8    1  0.1112929E+005  0.1043930E+01  0.7957747E-01            NaN
         13   -1    0    0    0    0  0.00000000000E+00  0.00000000000E+00  0.74505805969E-08  0.10566000000E+00  0.10566000000E+00 0.  1.
     999900   -1    0    0    0    0 -0.00000000000E+00 -0.00000000000E+00 -0.74505805969E-08  0.93827000000E+00  0.93827000000E+00 0.  1.
     999902    2    1    2    0    0  0.19809879905E-01  0.97609267120E-02  0.59899491629E-02  0.10210479869E+01  0.10207915581E+01 0.  0.
     999903    2    3    3    0    0 -0.80480111406E-01  0.37823570513E-01  0.93501730666E-01  0.13059646872E+00  0.20129411006E-01 0.  0.
         14    1    1    2    0    0 -0.19809879905E-01 -0.97609267120E-02 -0.59899491629E-02  0.22882013091E-01  0.00000000000E+00 0. -1.
     999901    1    3    3    0    0  0.10028999131E+00 -0.28062643801E-01 -0.87511781503E-01  0.89045151818E+00  0.88000000000E+00 0.  1.
        -11    1    4    4    0    0 -0.15446827743E-01  0.35471398633E-02  0.27779845617E-01  0.31986991607E-01  0.51100000000E-03 0. -1.
         11    1    4    4    0    0 -0.65033283663E-01  0.34276430650E-01  0.65721885049E-01  0.98609477118E-01  0.51100000000E-03 0.  1.
</event>
<event>
 8    1  0.1112929E+005  0.1043930E+01  0.7957747E-01            NaN
         13   -1    0    0    0    0  0.00000000000E+00  0.00000000000E+00  0.74505805969E-08  0.10566000000E+00  0.10566000000E+00 0. -1.
     999900   -1    0    0    0    0 -0.00000000000E+00 -0.00000000000E+00 -0.74505805969E-08  0.93827000000E+00  0.93827000000E+00 0. -1.
     999902    2    1    2    0    0  0.11981068921E-01  0.16533395251E-01  0.10124466535E-01  0.10211395635E+01  0.10208852062E+01 0.  0.
     999903    2    3    3    0    0 -0.98118260124E-01  0.22356275080E-01  0.81879634525E-01  0.13136174166E+00  0.20606712925E-01 0.  0.
         14    1    1    2    0    0 -0.11981068921E-01 -0.16533395251E-01 -0.10124466535E-01  0.22790436451E-01  0.00000000000E+00 0.  1.
     999901    1    3    3    0    0  0.11009932904E+00 -0.58228798284E-02 -0.71755167990E-01  0.88977782189E+00  0.88000000000E+00 0.  1.
        -11    1    4    4    0    0 -0.71686518734E-01  0.24047249887E-01  0.54091007541E-01  0.92969486463E-01  0.51100000000E-03 0. -1.
         11    1    4    4    0    0 -0.26431741390E-01 -0.16909748076E-02  0.27788626984E-01  0.38392255200E-01  0.51100000000E-03 0.  1.
</event>
<event>
 8    1  0.1112929E+005  0.1043930E+01  0.7957747E-01            NaN
         13   -1    0    0    0    0  0.00000000000E+00  0.00000000000E+00  0.74505805969E-08  0.10566000000E+00  0.10566000000E+00 0. -1.
     999900   -1    0    0    0    0 -0.00000000000E+00 -0.00000000000E+00 -0.74505805969E-08  0.93827000000E+00  0.93827000000E+00 0.  1.
     999902    2    1    2    0    0  0.88360895344E-02 -0.15580022034E-01 -0.14591595515E-01  0.10208274412E+01  0.10205659883E+01 0.  0.
     999903    2    3    3    0    0  0.10376086992E+00  0.73528131518E-01 -0.25137454224E-01  0.13118583238E+00  0.20127760955E-01 0.  0.
         14    1    1    2    0    0 -0.88360895344E-02  0.15580022034E-01  0.14591595515E-01  0.23102558831E-01  0.00000000000E+00 0. -1.
     999901    1    3    3    0    0 -0.94924780382E-01 -0.89108153552E-01  0.10545858709E-01  0.88964160879E+00  0.88000000000E+00 0.  1.
        -11    1    4    4    0    0  0.62666363965E-01  0.51758583246E-01 -0.23669367008E-01  0.84655325691E-01  0.51100000000E-03 0.  1.
         11    1    4    4    0    0  0.41094505951E-01  0.21769548272E-01 -0.14680872166E-02  0.46530506686E-01  0.51100000000E-03 0. -1.
</event>
<event>
 8    1  0.1112929E+005  0.1043930E+01  0.7957747E-01            NaN
         13   -1    0    0    0    0  0.00000000000E+00  0.00000000000E+00  0.74505805969E-08  0.10566000000E+00  0.10566000000E+00 0.  1.
     999900   -1    0    0    0    0 -0.00000000000E+00 -0.00000000000E+00 -0.74505805969E-08  0.93827000000E+00  0.93827000000E+00 0.  1.
     999902    2    1    2    0    0  0.97290612395E-02  0.78093820994E-02  0.17666329865E-01  0.10223026957E+01  0.10220739021E+01 0.  0.
     999903    2    3    3    0    0  0.12114260822E+00  0.52389969704E-01  0.13024431114E-01  0.13414620357E+00  0.20132751291E-01 0.  0.
         14    1    1    2    0    0 -0.97290612395E-02 -0.78093820994E-02 -0.17666329865E-01  0.21627304323E-01  0.00000000000E+00 0.  1.
     999901    1    3    3    0    0 -0.11141354698E+00 -0.44580587605E-01  0.46418987513E-02  0.88815649210E+00  0.88000000000E+00 0.  1.
        -11    1    4    4    0    0  0.96168792331E-01  0.32724324389E-01  0.73353012201E-02  0.10184981978E+00  0.51100000000E-03 0.  1.
         11    1    4    4    0    0  0.24973815892E-01  0.19665645315E-01  0.56891298938E-02  0.32296383788E-01  0.51100000000E-03 0. -1.
</event>
<event>
 8    1  0.1112929E+005  0.1043930E+01  0.7957747E-01            NaN
         13   -1    0    0    0    0  0.00000000000E+00  0.00000000000E+00  0.74505805969E-08  0.10566000000E+00  0.10566000000E+00 0.  1.
     999900   -1    0    0    0    0 -0.00000000000E+00 -0.00000000000E+00 -0.74505805969E-08  0.93827000000E+00  0.93827000000E+00 0.  1.
     999902    2    1    2    0    0  0.28877411390E-05 -0.15304503197E-01  0.17053255816E-01  0.10210162190E+01  0.10207590696E+01 0.  0.
     999903    2    3    3    0    0  0.43120465337E-02  0.12754008463E+00 -0.33360847487E-02  0.12925455221E+00  0.20261857586E-01 0.  0.
         14    1    1    2    0    0 -0.28877411390E-05  0.15304503197E-01 -0.17053255816E-01  0.22913781014E-01  0.00000000000E+00 0. -1.
     999901    1    3    3    0    0 -0.43091587926E-02 -0.14284458783E+00  0.20389340564E-01  0.89176166678E+00  0.88000000000E+00 0. -1.
        -11    1    4    4    0    0 -0.28319216760E-02  0.23007922635E-01  0.63207084470E-02  0.24033242823E-01  0.51100000000E-03 0. -1.
         11    1    4    4    0    0  0.71439682097E-02  0.10453216200E+00 -0.96567931957E-02  0.10522130939E+00  0.51100000000E-03 0.  1.
</event>
<event>
 8    1  0.1112929E+005  0.1043930E+01  0.7957747E-01            NaN
         13   -1    0    0    0    0  0.00000000000E+00  0.00000000000E+00  0.74505805969E-08  0.10566000000E+00  0.10566000000E+00 0. -1.
     999900   -1    0    0    0    0 -0.00000000000E+00 -0.00000000000E+00 -0.74505805969E-08  0.93827000000E+00  0.93827000000E+00 0. -1.
     999902    2    1    2    0    0  0.20071871925E-01  0.14187316077E-01  0.56249853047E-02  0.10187149164E+01  0.10184028086E+01 0.  0.
     999903    2    3    3    0    0  0.11160071281E+00 -0.27475683777E-01  0.60048135127E-01  0.13131691468E+00  0.20705584971E-01 0.  0.
         14    1    1    2    0    0 -0.20071871925E-01 -0.14187316077E-01 -0.56249853047E-02  0.25215083576E-01  0.00000000000E+00 0.  1.
     999901    1    3    3    0    0 -0.91528840885E-01  0.41662999855E-01 -0.54423149823E-01  0.88739800175E+00  0.88000000000E+00 0.  1.
        -11    1    4    4    0    0  0.46387009854E-01 -0.21377521384E-01  0.30178523383E-01  0.59327544179E-01  0.51100000000E-03 0.  1.
         11    1    4    4    0    0  0.65213702956E-01 -0.60981623935E-02  0.29869611744E-01  0.71989370497E-01  0.51100000000E-03 0. -1.
</event>
<event>
 8    1  0.1112929E+005  0.1043930E+01  0.7957747E-01            NaN
         13   -1    0    0    0    0  0.00000000000E+00  0.00000000000E+00  0.74505805969E-08  0.10566000000E+00  0.10566000000E+00 0.  1.
     999900   -1    0    0    0    0 -0.00000000000E+00 -0.00000000000E+00 -0.74505805969E-08  0.93827000000E+00  0.93827000000E+00 0.  1.
     999902    2    1    2    0    0  0.21991277342E-01  0.91544603860E-02  0.21415202636E-02  0.10200133419E+01  0.10197329117E+01 0.  0.
     999903    2    3    3    0    0  0.11505348229E+00 -0.50411715768E-01  0.36813194209E-01  0.13242625984E+00  0.20071326622E-01 0.  0.
         14    1    1    2    0    0 -0.21991277342E-01 -0.91544603860E-02 -0.21415202636E-02  0.23916658068E-01  0.00000000000E+00 0. -1.
     999901    1    3    3    0    0 -0.93062204948E-01  0.59566176154E-01 -0.34671673946E-01  0.88758708210E+00  0.88000000000E+00 0.  1.
        -11    1    4    4    0    0  0.26543026051E-01 -0.14035032290E-01  0.38589890117E-03  0.30032056245E-01  0.51100000000E-03 0. -1.
         11    1    4    4    0    0  0.88510456239E-01 -0.36376683478E-01  0.36427295308E-01  0.10239420359E+00  0.51100000000E-03 0.  1.
</event>
<event>
 8    1  0.1112929E+005  0.1043930E+01  0.7957747E-01            NaN
         13   -1    0    0    0    0  0.00000000000E+00  0.00000000000E+00  0.74505805969E-08  0.10566000000E+00  0.10566000000E+00 0. -1.
     999900   -1    0    0    0    0 -0.00000000000E+00 -0.00000000000E+00 -0.74505805969E-08  0.93827000000E+00  0.93827000000E+00 0.  1.
     999902    2    1    2    0    0  0.33322773590E-02 -0.17982062696E-01 -0.38207731340E-02  0.10252469339E+01  0.10250766891E+01 0.  0.
     999903    2    3    3    0    0 -0.18407903812E-01  0.12469929696E+00  0.36147415575E-01  0.13259467128E+00  0.19645498536E-01 0.  0.
         14    1    1    2    0    0 -0.33322773590E-02  0.17982062696E-01  0.38207731340E-02  0.18683066091E-01  0.00000000000E+00 0. -1.
     999901    1    3    3    0    0  0.21740181171E-01 -0.14268135966E+00 -0.39968188709E-01  0.89265226263E+00  0.88000000000E+00 0. -1.
        -11    1    4    4    0    0 -0.67600389030E-02  0.80692429441E-01  0.14820968117E-01  0.82321859260E-01  0.51100000000E-03 0. -1.
         11    1    4    4    0    0 -0.11647864909E-01  0.44006867523E-01  0.21326447458E-01  0.50272812019E-01  0.51100000000E-03 0.  1.
</event>
<event>
 8    1  0.1112929E+005  0.1043930E+01  0.7957747E-01            NaN
         13   -1    0    0    0    0  0.00000000000E+00  0.00000000000E+00  0.74505805969E-08  0.10566000000E+00  0.10566000000E+00 0. -1.
     999900   -1    0    0    0    0 -0.00000000000E+00 -0.00000000000E+00 -0.74505805969E-08  0.93827000000E+00  0.93827000000E+00 0. -1.
     999902    2    1    2    0    0 -0.22318009153E-01  0.57754593202E-02 -0.63362633663E-02  0.10200218906E+01  0.10197416631E+01 0.  0.
     999903    2    3    3    0    0  0.93969900946E-01 -0.78356722841E-01 -0.32143190706E-01  0.12802015313E+00  0.19643232920E-01 0.  0.
         14    1    1    2    0    0  0.22318009153E-01 -0.57754593202E-02  0.63362633663E-02  0.23908109426E-01  0.00000000000E+00 0. -1.
     999901    1    3    3    0    0 -0.11628791010E+00  0.84132182162E-01  0.25806927339E-01  0.89200173745E+00  0.88000000000E+00 0.  1.
        -11    1    4    4    0    0  0.34265231660E-01 -0.38183484646E-01 -0.69556069369E-02  0.51775729732E-01  0.51100000000E-03 0.  1.
         11    1    4    4    0    0  0.59704669286E-01 -0.40173238196E-01 -0.25187583769E-01  0.76244423394E-01  0.51100000000E-03 0. -1.
</event>
<event>
 8    1  0.1112929E+005  0.1043930E+01  0.7957747E-01            NaN
         13   -1    0    0    0    0  0.00000000000E+00  0.00000000000E+00  0.74505805969E-08  0.10566000000E+00  0.10566000000E+00 0.  1.
     999900   -1    0    0    0    0 -0.00000000000E+00 -0.00000000000E+00 -0.74505805969E-08  0.93827000000E+00  0.93827000000E+00 0. -1.
     999902    2    1    2    0    0 -0.54516543007E-02  0.91568745611E-02 -0.17326321648E-01  0.10235886552E+01  0.10233865178E+01 0.  0.
     999903    2    3    3    0    0 -0.60533651557E-01  0.11526062393E+00  0.26738696201E-01  0.13441276830E+00  0.20062402817E-01 0.  0.
         14    1    1    2    0    0  0.54516543007E-02 -0.91568745611E-02  0.17326321648E-01  0.20341344798E-01  0.00000000000E+00 0.  1.
     999901    1    3    3    0    0  0.55081997256E-01 -0.10610374937E+00 -0.44065017850E-01  0.88917588690E+00  0.88000000000E+00 0. -1.
        -11    1    4    4    0    0 -0.42633554344E-01  0.78548987018E-01  0.88193620062E-02  0.89808716642E-01  0.51100000000E-03 0.  1.
         11    1    4    4    0    0 -0.17900097212E-01  0.36711636915E-01  0.17919334195E-01  0.44604051656E-01  0.51100000000E-03 0. -1.
</event>
<event>
 8    1  0.1112929E+005  0.1043930E+01  0.7957747E-01            NaN
         13   -1    0    0    0    0  0.00000000000E+00  0.00000000000E+00  0.74505805969E-08  0.10566000000E+00  0.10566000000E+00 0.  1.
     999900   -1    0    0    0    0 -0.00000000000E+00 -0.00000000000E+00 -0.74505805969E-08  0.93827000000E+00  0.93827000000E+00 0. -1.
     999902    2    1    2    0    0 -0.20400490907E-01 -0.12405758142E-01 -0.10695070323E-01  0.10177676722E+01  0.10174313575E+01 0.  0.
     999903    2    3    3    0    0 -0.39495917351E-01  0.43897483066E-01  0.11110731416E+00  0.12739106027E+00  0.19918094040E-01 0.  0.
         14    1    1    2    0    0  0.20400490907E-01  0.12405758142E-01  0.10695070323E-01  0.26162327755E-01  0.00000000000E+00 0.  1.
     999901    1    3    3    0    0  0.19095426444E-01 -0.56303241208E-01 -0.12180238448E+00  0.89037661197E+00  0.88000000000E+00 0. -1.
        -11    1    4    4    0    0 -0.21007181279E-01  0.12664963309E-01  0.31740624032E-01  0.40117717979E-01  0.51100000000E-03 0.  1.
         11    1    4    4    0    0 -0.18488736072E-01  0.31232519757E-01  0.79366690130E-01  0.87273342293E-01  0.51100000000E-03 0. -1.
</event>
<event>
 8    1  0.1112929E+005  0.1043930E+01  0.7957747E-01            NaN
         13   -1    0    0    0    0  0.00000000000E+00  0.00000000000E+00  0.74505805969E-08  0.10566000000E+00  0.10566000000E+00 0.  1.
     999900   -1    0    0    0    0 -0.00000000000E+00 -0.00000000000E+00 -0.74505805969E-08  0.93827000000E+00  0.93827000000E+00 0.  1.
     999902    2    1    2    0    0 -0.13647277569E-01  0.19313941465E-01 -0.46447466293E-02  0.10198291662E+01  0.10195443482E+01 0.  0.
     999903    2    3    3    0    0  0.16729769313E-01 -0.95866815682E-03  0.12658239234E+00  0.12934934850E+00  0.20672389361E-01 0.  0.
         14    1    1    2    0    0  0.13647277569E-01 -0.19313941465E-01  0.46447466293E-02  0.24100833828E-01  0.00000000000E+00 0.  1.
     999901    1    3    3    0    0 -0.30377046882E-01  0.20272609622E-01 -0.13122713897E+00  0.89047981767E+00  0.88000000000E+00 0.  1.
        -11    1    4    4    0    0  0.10292675785E-01 -0.93090944045E-02  0.95936367624E-01  0.96936299534E-01  0.51100000000E-03 0. -1.
         11    1    4    4    0    0  0.64370935285E-02  0.83504262477E-02  0.30646024713E-01  0.32413048966E-01  0.51100000000E-03 0.  1.
</event>
<event>
 8    1  0.1112929E+005  0.1043930E+01  0.7957747E-01            NaN
         13   -1    0    0    0    0  0.00000000000E+00  0.00000000000E+00  0.74505805969E-08  0.10566000000E+00  0.10566000000E+00 0.  1.
     999900   -1    0    0    0    0 -0.00000000000E+00 -0.00000000000E+00 -0.74505805969E-08  0.93827000000E+00  0.93827000000E+00 0.  1.
     999902    2    1    2    0    0 -0.68763515177E-02  0.19041859019E-01 -0.12447554584E-01  0.10201640954E+01  0.10198872307E+01 0.  0.
     999903    2    3    3    0    0 -0.10255956872E+00 -0.43250763607E-02 -0.79910541190E-01  0.13210297913E+00  0.22985453663E-01 0.  0.
         14    1    1    2    0    0  0.68763515177E-02 -0.19041859019E-01  0.12447554584E-01  0.23765904574E-01  0.00000000000E+00 0.  1.
     999901    1    3    3    0    0  0.95683217198E-01  0.23366935380E-01  0.67462986606E-01  0.88806111630E+00  0.88000000000E+00 0. -1.
        -11    1    4    4    0    0 -0.15785591709E-01  0.74418106749E-02 -0.10620187100E-01  0.20435629346E-01  0.51100000000E-03 0. -1.
         11    1    4    4    0    0 -0.86773977006E-01 -0.11766887036E-01 -0.69290354090E-01  0.11166734978E+00  0.51100000000E-03 0.  1.
</event>
<event>
 8    1  0.1112929E+005  0.1043930E+01  0.7957747E-01            NaN
         13   -1    0    0    0    0  0.00000000000E+00  0.00000000000E+00  0.74505805969E-08  0.10566000000E+00  0.10566000000E+00 0. -1.
     999900   -1    0    0    0    0 -0.00000000000E+00 -0.00000000000E+00 -0.74505805969E-08  0.93827000000E+00  0.93827000000E+00 0. -1.
     999902    2    1    2    0    0 -0.62033960853E-02  0.14898091582E-01  0.18445782137E-01  0.10194211825E+01  0.10191265207E+01 0.  0.
     999903    2    3    3    0    0  0.11487670869E-01  0.55327295186E-01  0.11849054705E+00  0.13265376693E+00  0.19077105845E-01 0.  0.
         14    1    1    2    0    0  0.62033960853E-02 -0.14898091582E-01 -0.18445782137E-01  0.24508817484E-01  0.00000000000E+00 0.  1.
     999901    1    3    3    0    0 -0.17691066954E-01 -0.40429203604E-01 -0.10004476491E+00  0.88676741558E+00  0.88000000000E+00 0.  1.
        -11    1    4    4    0    0  0.10026641521E-01  0.15297460671E-01  0.50833795961E-01  0.54026676522E-01  0.51100000000E-03 0.  1.
         11    1    4    4    0    0  0.14610293477E-02  0.40029834515E-01  0.67656751086E-01  0.78627090412E-01  0.51100000000E-03 0. -1.
</event>
<event>
 8    1  0.1112929E+005  0.1043930E+01  0.7957747E-01            NaN
         13   -1    0    0    0    0  0.00000000000E+00  0.00000000000E+00  0.74505805969E-08  0.10566000000E+00  0.10566000000E+00 0. -1.
     999900   -1    0    0    0    0 -0.00000000000E+00 -0.00000000000E+00 -0.74505805969E-08  0.93827000000E+00  0.93827000000E+00 0.  1.
     999902    2    1    2    0    0  0.17740374084E-01  0.30508508640E-02  0.12547347987E-01  0.10219877006E+01  0.10217521204E+01 0.  0.
     999903    2    3    3    0    0 -0.11509629438E+00 -0.26946208745E-01 -0.48685584812E-01  0.12941004223E+00  0.20085261142E-01 0.  0.
         14    1    1    2    0    0 -0.17740374084E-01 -0.30508508640E-02 -0.12547347987E-01  0.21942299450E-01  0.00000000000E+00 0.  1.
     999901    1    3    3    0    0  0.13283666847E+00  0.29997059609E-01  0.61232932799E-01  0.89257765832E+00  0.88000000000E+00 0. -1.
        -11    1    4    4    0    0 -0.50809806250E-01 -0.17444658373E-02 -0.21417523319E-01  0.55169293981E-01  0.51100000000E-03 0. -1.
         11    1    4    4    0    0 -0.64286488132E-01 -0.25201742908E-01 -0.27268061493E-01  0.74240748248E-01  0.51100000000E-03 0.  1.
</event>
<event>
 8    1  0.1112929E+005  0.1043930E+01  0.7957747E-01            NaN
         13   -1    0    0    0    0  0.00000000000E+00  0.00000000000E+00  0.74505805969E-08  0.10566000000E+00  0.10566000000E+00 0.  1.
     999900   -1    0    0    0    0 -0.00000000000E+00 -0.00000000000E+00 -0.74505805969E-08  0.93827000000E+00  0.93827000000E+00 0.  1.
     999902    2    1    2    0    0 -0.56049533357E-02 -0.78279313966E-02 -0.20765342623E-01  0.10210413245E+01  0.10207847446E+01 0.  0.
     999903    2    3    3    0    0  0.83105020380E-01 -0.25051431802E-01 -0.96687266866E-01  0.13316168909E+00  0.29147713784E-01 0.  0.
         14    1    1    2    0    0  0.56049533357E-02  0.78279313966E-02  0.20765342623E-01  0.22888675499E-01  0.00000000000E+00 0.  1.
     999901    1    3    3    0    0 -0.88709973715E-01  0.17223500406E-01  0.75921924243E-01  0.88787963541E+00  0.88000000000E+00 0. -1.
        -11    1    4    4    0    0  0.38773219602E-01 -0.59401764357E-02 -0.63275157347E-01  0.74449008809E-01  0.51100000000E-03 0. -1.
         11    1    4    4    0    0  0.44331800778E-01 -0.19111255366E-01 -0.33412109519E-01  0.58712680278E-01  0.51100000000E-03 0.  1.
</event>
<event>
 8    1  0.1112929E+005  0.1043930E+01  0.7957747E-01            NaN
         13   -1    0    0    0    0  0.00000000000E+00  0.00000000000E+00  0.74505805969E-08  0.10566000000E+00  0.10566000000E+00 0.  1.
     999900   -1    0    0    0    0 -0.00000000000E+00 -0.00000000000E+00 -0.74505805969E-08  0.93827000000E+00  0.93827000000E+00 0. -1.
     999902    2    1    2    0    0  0.14093392842E-01  0.32050003799E-02  0.23029112603E-02  0.10292944560E+01  0.10291903993E+01 0.  0.
     999903    2    3    3    0    0 -0.29364497449E-01 -0.52757407386E-01 -0.12189220352E+00  0.13775376376E+00  0.21743330131E-01 0.  0.
         14    1    1    2    0    0 -0.14093392842E-01 -0.32050003799E-02 -0.23029112603E-02  0.14635544045E-01  0.00000000000E+00 0.  1.
     999901    1    3    3    0    0  0.43457890291E-01  0.55962407765E-01  0.12419511478E+00  0.89154069220E+00  0.88000000000E+00 0.  1.
        -11    1    4    4    0    0 -0.15975153168E-01 -0.41445092370E-01 -0.69292860987E-01  0.82308340434E-01  0.51100000000E-03 0.  1.
         11    1    4    4    0    0 -0.13389344281E-01 -0.11312315016E-01 -0.52599342534E-01  0.55445423321E-01  0.51100000000E-03 0. -1.
</event>
<event>
 8    1  0.1112929E+005  0.1043930E+01  0.7957747E-01            NaN
         13   -1    0    0    0    0  0.00000000000E+00  0.00000000000E+00  0.74505805969E-08  0.10566000000E+00  0.10566000000E+00 0. -1.
     999900   -1    0    0    0    0 -0.00000000000E+00 -0.00000000000E+00 -0.74505805969E-08  0.93827000000E+00  0.93827000000E+00 0.  1.
     999902    2    1    2    0    0  0.47376158906E-02 -0.92744938421E-02 -0.20520897718E-01  0.10209176450E+01  0.10206582530E+01 0.  0.
     999903    2    3    3    0    0  0.45989364108E-01 -0.12198750026E+00  0.98358983572E-02  0.13225153017E+00  0.19943683308E-01 0.  0.
         14    1    1    2    0    0 -0.47376158906E-02  0.92744938421E-02  0.20520897718E-01  0.23012355019E-01  0.00000000000E+00 0.  1.
     999901    1    3    3    0    0 -0.41251748217E-01  0.11271300642E+00 -0.30356796075E-01  0.88866611481E+00  0.88000000000E+00 0. -1.
        -11    1    4    4    0    0  0.14664168725E-01 -0.26130818429E-01  0.93855841879E-02  0.31403946054E-01  0.51100000000E-03 0.  1.
         11    1    4    4    0    0  0.31325195383E-01 -0.95856681834E-01  0.45031416925E-03  0.10084758412E+00  0.51100000000E-03 0. -1.
</event>
<event>
 8    1  0.1112929E+005  0.1043930E+01  0.7957747E-01            NaN
         13   -1    0    0    0    0  0.00000000000E+00  0.00000000000E+00  0.74505805969E-08  0.10566000000E+00  0.10566000000E+00 0. -1.
     999900   -1    0    0    0    0 -0.00000000000E+00 -0.00000000000E+00 -0.74505805969E-08  0.93827000000E+00  0.93827000000E+00 0.  1.
     999902    2    1    2    0    0  0.10985472622E-01 -0.44305000478E-02 -0.20280194055E-01  0.10204439145E+01  0.10201736061E+01 0.  0.
     999903    2    3    3    0    0  0.99140158238E-02 -0.35213705508E-01 -0.12674519645E+00  0.13349208355E+00  0.20432786905E-01 0.  0.
         14    1    1    2    0    0 -0.10985472622E-01  0.44305000478E-02  0.20280194055E-01  0.23486085462E-01  0.00000000000E+00 0. -1.
     999901    1    3    3    0    0  0.10714567981E-02  0.30783205461E-01  0.10646500240E+00  0.88695183099E+00  0.88000000000E+00 0. -1.
        -11    1    4    4    0    0  0.80077257445E-02 -0.35235478984E-02 -0.15517221904E-01  0.17820896666E-01  0.51100000000E-03 0.  1.
         11    1    4    4    0    0  0.19062900793E-02 -0.31690157610E-01 -0.11122797455E+00  0.11567118688E+00  0.51100000000E-03 0. -1.
</event>
<event>
 8    1  0.1112929E+005  0.1043930E+01  0.7957747E-01            NaN
         13   -1    0    0    0    0  0.00000000000E+00  0.00000000000E+00  0.74505805969E-08  0.10566000000E+00  0.10566000000E+00 0.  1.
     999900   -1    0    0    0    0 -0.00000000000E+00 -0.00000000000E+00 -0.74505805969E-08  0.93827000000E+00  0.93827000000E+00 0.  1.
     999902    2    1    2    0    0 -0.15345057341E-01 -0.17696727424E-01 -0.47490492157E-02  0.10200302424E+01  0.10197502130E+01 0.  0.
     999903    2    3    3    0    0  0.88475535596E-01 -0.80653435043E-01 -0.48143886409E-01  0.13063416949E+00  0.20360635003E-01 0.  0.
         14    1    1    2    0    0  0.15345057341E-01  0.17696727424E-01  0.47490492157E-02  0.23899757630E-01  0.00000000000E+00 0.  1.
     999901    1    3    3    0    0 -0.10382059294E+00  0.62956707619E-01  0.43394837193E-01  0.88939607288E+00  0.88000000000E+00 0. -1.
        -11    1    4    4    0    0  0.52444113033E-01 -0.34899189761E-01 -0.28772332507E-01  0.69256383653E-01  0.51100000000E-03 0.  1.
         11    1    4    4    0    0  0.36031422563E-01 -0.45754245282E-01 -0.19371553902E-01  0.61377785842E-01  0.51100000000E-03 0. -1.
</event>
<event>
 8    1  0.1112929E+005  0.1043930E+01  0.7957747E-01            NaN
         13   -1    0    0    0    0  0.00000000000E+00  0.00000000000E+00  0.74505805969E-08  0.10566000000E+00  0.10566000000E+00 0. -1.
     999900   -1    0    0    0    0 -0.00000000000E+00 -0.00000000000E+00 -0.74505805969E-08  0.93827000000E+00  0.93827000000E+00 0.  1.
     999902    2    1    2    0    0  0.10376512651E-01  0.20884321813E-01 -0.10077736264E-02  0.10205881380E+01  0.10203211774E+01 0.  0.
     999903    2    3    3    0    0 -0.31663878267E-01 -0.11921622257E+00  0.27827321379E-01  0.12804849202E+00  0.20172941840E-01 0.  0.
         14    1    1    2    0    0 -0.10376512651E-01 -0.20884321813E-01  0.10077736264E-02  0.23341861967E-01  0.00000000000E+00 0. -1.
     999901    1    3    3    0    0  0.42040390919E-01  0.14010054438E+00 -0.28835095005E-01  0.89253964602E+00  0.88000000000E+00 0. -1.
        -11    1    4    4    0    0 -0.33830428413E-02 -0.50439281179E-01  0.92095682430E-02  0.51387190358E-01  0.51100000000E-03 0.  1.
         11    1    4    4    0    0 -0.28280835426E-01 -0.68776941390E-01  0.18617753136E-01  0.76661301660E-01  0.51100000000E-03 0. -1.
</event>
<event>
 8    1  0.1112929E+005  0.1043930E+01  0.7957747E-01            NaN
         13   -1    0    0    0    0  0.00000000000E+00  0.00000000000E+00  0.74505805969E-08  0.10566000000E+00  0.10566000000E+00 0.  1.
     999900   -1    0    0    0    0 -0.00000000000E+00 -0.00000000000E+00 -0.74505805969E-08  0.93827000000E+00  0.93827000000E+00 0. -1.
     999902    2    1    2    0    0  0.20202978280E-01  0.12076669270E-01 -0.72743854187E-03  0.10203814238E+01  0.10201096582E+01 0.  0.
     999903    2    3    3    0    0 -0.83616927471E-01 -0.26392413318E-01 -0.92157675674E-01  0.12874364346E+00  0.19837804967E-01 0.  0.
         14    1    1    2    0    0 -0.20202978280E-01 -0.12076669270E-01  0.72743854187E-03  0.23548576153E-01  0.00000000000E+00 0. -1.
     999901    1    3    3    0    0  0.10381990575E+00  0.38469082588E-01  0.91430237132E-01  0.89163778038E+00  0.88000000000E+00 0.  1.
        -11    1    4    4    0    0 -0.32566233714E-01 -0.11862959268E-01 -0.50579502617E-01  0.61317506365E-01  0.51100000000E-03 0. -1.
         11    1    4    4    0    0 -0.51050693757E-01 -0.14529454050E-01 -0.41578173058E-01  0.67426137098E-01  0.51100000000E-03 0.  1.
</event>
<event>
 8    1  0.1112929E+005  0.1043930E+01  0.7957747E-01            NaN
         13   -1    0    0    0    0  0.00000000000E+00  0.00000000000E+00  0.74505805969E-08  0.10566000000E+00  0.10566000000E+00 0.  1.
     999900   -1    0    0    0    0 -0.00000000000E+00 -0.00000000000E+00 -0.74505805969E-08  0.93827000000E+00  0.93827000000E+00 0. -1.
     999902    2    1    2    0    0 -0.57575995058E-02  0.87941186469E-02  0.24285847381E-01  0.10174670286E+01  0.10171228369E+01 0.  0.
     999903    2    3    3    0    0 -0.50082577567E-01  0.10087677319E+00  0.63259357340E-01  0.13069600206E+00  0.19882422356E-01 0.  0.
         14    1    1    2    0    0  0.57575995058E-02 -0.87941186469E-02 -0.24285847381E-01  0.26462971448E-01  0.00000000000E+00 0. -1.
     999901    1    3    3    0    0  0.44324978062E-01 -0.92082654541E-01 -0.38973509959E-01  0.88677102649E+00  0.88000000000E+00 0. -1.
        -11    1    4    4    0    0 -0.15520729552E-01  0.16053265945E-01  0.80142925937E-02  0.23729525914E-01  0.51100000000E-03 0.  1.
         11    1    4    4    0    0 -0.34561848016E-01  0.84823507242E-01  0.55245064747E-01  0.10696647615E+00  0.51100000000E-03 0. -1.
</event>
<event>
 8    1  0.1112929E+005  0.1043930E+01  0.7957747E-01            NaN
         13   -1    0    0    0    0  0.00000000000E+00  0.00000000000E+00  0.74505805969E-08  0.10566000000E+00  0.10566000000E+00 0.  1.
     999900   -1    0    0    0    0 -0.00000000000E+00 -0.00000000000E+00 -0.74505805969E-08  0.93827000000E+00  0.93827000000E+00 0.  1.
     999902    2    1    2    0    0 -0.46276413493E-03 -0.23347313492E-01  0.42733416564E-02  0.10201903149E+01  0.10199140680E+01 0.  0.
     999903    2    3    3    0    0 -0.82155816810E-01  0.72410225665E-01  0.65609854068E-01  0.12912049224E+00  0.19355349387E-01 0.  0.
         14    1    1    2    0    0  0.46276413493E-03  0.23347313492E-01 -0.42733416564E-02  0.23739685062E-01  0.00000000000E+00 0.  1.
     999901    1    3    3    0    0  0.81693052675E-01 -0.95757539157E-01 -0.61336512412E-01  0.89106982269E+00  0.88000000000E+00 0.  1.
        -11    1    4    4    0    0 -0.41495121970E-01  0.43271042250E-01  0.45232584490E-01  0.75103102901E-01  0.51100000000E-03 0.  1.
         11    1    4    4    0    0 -0.40660694839E-01  0.29139183415E-01  0.20377269578E-01  0.54017389343E-01  0.51100000000E-03 0. -1.
</event>
<event>
 8    1  0.1112929E+005  0.1043930E+01  0.7957747E-01            NaN
         13   -1    0    0    0    0  0.00000000000E+00  0.00000000000E+00  0.74505805969E-08  0.10566000000E+00  0.10566000000E+00 0.  1.
     999900   -1    0    0    0    0 -0.00000000000E+00 -0.00000000000E+00 -0.74505805969E-08  0.93827000000E+00  0.93827000000E+00 0. -1.
     999902    2    1    2    0    0 -0.15762818659E-01 -0.12425248697E-01  0.12407113944E-01  0.10203336076E+01  0.10200607242E+01 0.  0.
     999903    2    3    3    0    0 -0.47405317348E-02  0.47342465905E-01 -0.11740320697E+00  0.12873706773E+00  0.22933335590E-01 0.  0.
         14    1    1    2    0    0  0.15762818659E-01  0.12425248697E-01 -0.12407113944E-01  0.23596392387E-01  0.00000000000E+00 0.  1.
     999901    1    3    3    0    0 -0.11022286924E-01 -0.59767714602E-01  0.12981032091E+00  0.89159653988E+00  0.88000000000E+00 0.  1.
        -11    1    4    4    0    0  0.37756981149E-03  0.21326356194E-03 -0.23827923005E-01  0.23837346245E-01  0.51100000000E-03 0. -1.
         11    1    4    4    0    0 -0.51181015463E-02  0.47129202343E-01 -0.93575283966E-01  0.10489972148E+00  0.51100000000E-03 0.  1.
</event>
<event>
 8    1  0.1112929E+005  0.1043930E+01  0.7957747E-01            NaN
         13   -1    0    0    0    0  0.00000000000E+00  0.00000000000E+00  0.74505805969E-08  0.10566000000E+00  0.10566000000E+00 0. -1.
     999900   -1    0    0    0    0 -0.00000000000E+00 -0.00000000000E+00 -0.74505805969E-08  0.93827000000E+00  0.93827000000E+00 0. -1.
     999902    2    1    2    0    0 -0.97415879346E-02  0.66249746752E-02  0.20202348577E-01  0.10205435998E+01  0.10202756076E+01 0.  0.
     999903    2    3    3    0    0  0.43521190640E-01 -0.89290242284E-01  0.83688450411E-01  0.13146141153E+00  0.20285575848E-01 0.  0.
         14    1    1    2    0    0  0.97415879346E-02 -0.66249746752E-02 -0.20202348577E-01  0.23386400171E-01  0.00000000000E+00 0.  1.
     999901    1    3    3    0    0 -0.53262778574E-01  0.95915216959E-01 -0.63486101834E-01  0.88908218830E+00  0.88000000000E+00 0. -1.
        -11    1    4    4    0    0  0.29889028528E-01 -0.74976005139E-01  0.59819217747E-01  0.10046569218E+00  0.51100000000E-03 0.  1.
         11    1    4    4    0    0  0.13632162112E-01 -0.14314237145E-01  0.23869232663E-01  0.30995719347E-01  0.51100000000E-03 0. -1.
</event>
<event>
 8    1  0.1112929E+005  0.1043930E+01  0.7957747E-01            NaN
         13   -1    0    0    0    0  0.00000000000E+00  0.00000000000E+00  0.74505805969E-08  0.10566000000E+00  0.10566000000E+00 0. -1.
     999900   -1    0    0    0    0 -0.00000000000E+00 -0.00000000000E+00 -0.74505805969E-08  0.93827000000E+00  0.93827000000E+00 0. -1.
     999902    2    1    2    0    0 -0.82379924168E-02  0.22130904881E-01  0.94038909552E-02  0.10185120018E+01  0.10181947864E+01 0.  0.
     999903    2    3    3    0    0 -0.11706667383E-01  0.12815090610E+00 -0.18542268423E-01  0.13170127776E+00  0.21016899130E-01 0.  0.
         14    1    1    2    0    0  0.82379924168E-02 -0.22130904881E-01 -0.94038909552E-02  0.25417998250E-01  0.00000000000E+00 0.  1.
     999901    1    3    3    0    0  0.34686749658E-02 -0.10602000122E+00  0.27946159379E-01  0.88681072399E+00  0.88000000000E+00 0.  1.
        -11    1    4    4    0    0 -0.10061417509E-01  0.27369801398E-01  0.26301859214E-03  0.29166221055E-01  0.51100000000E-03 0.  1.
         11    1    4    4    0    0 -0.16452498739E-02  0.10078110470E+00 -0.18805287016E-01  0.10253505670E+00  0.51100000000E-03 0. -1.
</event>
<event>
 8    1  0.1112929E+005  0.1043930E+01  0.7957747E-01            NaN
         13   -1    0    0    0    0  0.00000000000E+00  0.00000000000E+00  0.74505805969E-08  0.10566000000E+00  0.10566000000E+00 0. -1.
     999900   -1    0    0    0    0 -0.00000000000E+00 -0.00000000000E+00 -0.74505805969E-08  0.93827000000E+00  0.93827000000E+00 0. -1.
     999902    2    1    2    0    0  0.17291942751E-01  0.10672493125E-01  0.10637123094E-01  0.10209939633E+01  0.10207363084E+01 0.  0.
     999903    2    3    3    0    0 -0.19354416099E-01 -0.21859661836E-02  0.12938468683E+00  0.13216930143E+00  0.18680342149E-01 0.  0.
         14    1    1    2    0    0 -0.17291942751E-01 -0.10672493125E-01 -0.10637123094E-01  0.22936036740E-01  0.00000000000E+00 0.  1.
     999901    1    3    3    0    0  0.36646358850E-01  0.12858459309E-01 -0.11874756373E+00  0.88882466183E+00  0.88000000000E+00 0. -1.
        -11    1    4    4    0    0  0.21896862995E-02 -0.47741027942E-02  0.24271463998E-01  0.24838515841E-01  0.51100000000E-03 0. -1.
         11    1    4    4    0    0 -0.21544102398E-01  0.25881366106E-02  0.10511322283E+00  0.10733078558E+00  0.51100000000E-03 0.  1.
</event>
<event>
 8    1  0.1112929E+005  0.1043930E+01  0.7957747E-01            NaN
         13   -1    0    0    0    0  0.00000000000E+00  0.00000000000E+00  0.74505805969E-08  0.10566000000E+00  0.10566000000E+00 0. -1.
     999900   -1    0    0    0    0 -0.00000000000E+00 -0.00000000000E+00 -0.74505805969E-08  0.93827000000E+00  0.93827000000E+00 0. -1.
     999902    2    1    2    0    0 -0.18016071467E-02  0.25769260711E-02  0.24937521632E-01  0.10187950379E+01  0.10184849350E+01 0.  0.
     999903    2    3    3    0    0  0.87982581910E-01 -0.20662146483E-01  0.93140738071E-01  0.13129690613E+00  0.19895262125E-01 0.  0.
         14    1    1    2    0    0  0.18016071467E-02 -0.25769260711E-02 -0.24937521632E-01  0.25134962133E-01  0.00000000000E+00 0.  1.
     999901    1    3    3    0    0 -0.89784189057E-01  0.23239072554E-01 -0.68203216439E-01  0.88749813173E+00  0.88000000000E+00 0. -1.
        -11    1    4    4    0    0  0.40237772939E-01  0.65563761801E-03  0.41075191784E-01  0.57506006060E-01  0.51100000000E-03 0.  1.
         11    1    4    4    0    0  0.47744808971E-01 -0.21317784101E-01  0.52065546286E-01  0.73790900074E-01  0.51100000000E-03 0. -1.
</event>
<event>
 8    1  0.1112929E+005  0.1043930E+01  0.7957747E-01            NaN
         13   -1    0    0    0    0  0.00000000000E+00  0.00000000000E+00  0.74505805969E-08  0.10566000000E+00  0.10566000000E+00 0.  1.
     999900   -1    0    0    0    0 -0.00000000000E+00 -0.00000000000E+00 -0.74505805969E-08  0.93827000000E+00  0.93827000000E+00 0.  1.
     999902    2    1    2    0    0 -0.16859747710E-01  0.83574932892E-02 -0.14410715409E-01  0.10202283649E+01  0.10199530132E+01 0.  0.
     999903    2    3    3    0    0 -0.32917014218E-01 -0.17202444319E-01  0.12204805599E+00  0.12919966588E+00  0.20429678816E-01 0.  0.
         14    1    1    2    0    0  0.16859747710E-01 -0.83574932892E-02  0.14410715409E-01  0.23701635081E-01  0.00000000000E+00 0.  1.
     999901    1    3    3    0    0  0.16057266508E-01  0.25559937608E-01 -0.13645877140E+00  0.89102869904E+00  0.88000000000E+00 0.  1.
        -11    1    4    4    0    0 -0.11255530612E-01 -0.11956237142E-01  0.27281716563E-01  0.31846377433E-01  0.51100000000E-03 0.  1.
         11    1    4    4    0    0 -0.21661483606E-01 -0.52462071767E-02  0.94766339429E-01  0.97353288447E-01  0.51100000000E-03 0. -1.
</event>
<event>
 7    1  0.1112929E+005  0.1043930E+01  0.7957747E-01            NaN
         13   -1    0    0    0    0  0.00000000000E+00  0.00000000000E+00  0.74505805969E-08  0.10566000000E+00  0.10566000000E+00 0.  1.
     999900   -1    0    0    0    0 -0.00000000000E+00 -0.00000000000E+00 -0.74505805969E-08  0.93827000000E+00  0.93827000000E+00 0. -1.
     999903    2    1    2    0    0  0.91227103391E-01  0.32532719260E-01 -0.51916876937E-01  0.11166238100E+00  0.19808154995E-01 0.  0.
         14    1    1    2    0    0 -0.20404425614E-01 -0.14226829188E-01  0.42427366744E-01  0.49181548392E-01  0.00000000000E+00 0.  1.
     999901    1    1    2    0    0 -0.70822677776E-01 -0.18305890072E-01  0.94895101928E-02  0.88308607061E+00  0.88000000000E+00 0.  1.
        -11    1    3    3    0    0  0.32784723229E-01  0.16063053556E-01 -0.29484583437E-01  0.46930390454E-01  0.51100000000E-03 0.  1.
         11    1    3    3    0    0  0.58442380162E-01  0.16469665704E-01 -0.22432293499E-01  0.64731990546E-01  0.51100000000E-03 0. -1.
</event>
<event>
 8    1  0.1112929E+005  0.1043930E+01  0.7957747E-01            NaN
         13   -1    0    0    0    0  0.00000000000E+00  0.00000000000E+00  0.74505805969E-08  0.10566000000E+00  0.10566000000E+00 0. -1.
     999900   -1    0    0    0    0 -0.00000000000E+00 -0.00000000000E+00 -0.74505805969E-08  0.93827000000E+00  0.93827000000E+00 0. -1.
     999902    2    1    2    0    0  0.18946050485E-01 -0.13462309759E-01 -0.85951287965E-02  0.10191497084E+01  0.10188484015E+01 0.  0.
     999903    2    3    3    0    0 -0.83817595894E-01 -0.12394275108E-01  0.93125650075E-01  0.12734893212E+00  0.19140438146E-01 0.  0.
         14    1    1    2    0    0 -0.18946050485E-01  0.13462309759E-01  0.85951287965E-02  0.24780291606E-01  0.00000000000E+00 0. -1.
     999901    1    3    3    0    0  0.10276364638E+00 -0.10680346516E-02 -0.10172077887E+00  0.89180077628E+00  0.88000000000E+00 0. -1.
        -11    1    4    4    0    0 -0.42030555538E-01 -0.68172448647E-02  0.32800433138E-01  0.53751018235E-01  0.51100000000E-03 0. -1.
         11    1    4    4    0    0 -0.41787040356E-01 -0.55770302432E-02  0.60325216938E-01  0.73597913881E-01  0.51100000000E-03 0.  1.
</event>
<event>
 8    1  0.1112929E+005  0.1043930E+01  0.7957747E-01            NaN
         13   -1    0    0    0    0  0.00000000000E+00  0.00000000000E+00  0.74505805969E-08  0.10566000000E+00  0.10566000000E+00 0. -1.
     999900   -1    0    0    0    0 -0.00000000000E+00 -0.00000000000E+00 -0.74505805969E-08  0.93827000000E+00  0.93827000000E+00 0. -1.
     999902    2    1    2    0    0  0.10305633549E-01  0.91420008071E-02  0.19828172157E-01  0.10197858771E+01  0.10195000227E+01 0.  0.
     999903    2    3    3    0    0 -0.12236934289E+00  0.16277874214E-01  0.34293348289E-01  0.12969441469E+00  0.20134105303E-01 0.  0.
         14    1    1    2    0    0 -0.10305633549E-01 -0.91420008071E-02 -0.19828172157E-01  0.24144122943E-01  0.00000000000E+00 0.  1.
     999901    1    3    3    0    0  0.13267497644E+00 -0.71358734070E-02 -0.14465176132E-01  0.89009146237E+00  0.88000000000E+00 0. -1.
        -11    1    4    4    0    0 -0.36066446683E-01 -0.90916919645E-03  0.26491781041E-02  0.36178646058E-01  0.51100000000E-03 0. -1.
         11    1    4    4    0    0 -0.86302896206E-01  0.17187043411E-01  0.31644170184E-01  0.93515768630E-01  0.51100000000E-03 0.  1.
</event>
<event>
 8    1  0.1112929E+005  0.1043930E+01  0.7957747E-01            NaN
         13   -1    0    0    0    0  0.00000000000E+00  0.00000000000E+00  0.74505805969E-08  0.10566000000E+00  0.10566000000E+00 0.  1.
     999900   -1    0    0    0    0 -0.00000000000E+00 -0.00000000000E+00 -0.74505805969E-08  0.93827000000E+00  0.93827000000E+00 0. -1.
     999902    2    1    2    0    0  0.20605347923E-01 -0.11970123279E-01 -0.31623205520E-02  0.10198911879E+01  0.10196078514E+01 0.  0.
     999903    2    3    3    0    0  0.38210562153E-01  0.11831396800E+00  0.30236297459E-01  0.12949837816E+00  0.19933744685E-01 0.  0.
         14    1    1    2    0    0 -0.20605347923E-01  0.11970123279E-01  0.31623205520E-02  0.24038812067E-01  0.00000000000E+00 0. -1.
     999901    1    3    3    0    0 -0.17605214230E-01 -0.13028409128E+00 -0.33398618011E-01  0.89039280977E+00  0.88000000000E+00 0. -1.
        -11    1    4    4    0    0  0.18209921608E-01  0.42032665955E-01  0.24179984367E-02  0.45874329311E-01  0.51100000000E-03 0. -1.
         11    1    4    4    0    0  0.20000640545E-01  0.76281302049E-01  0.27818299022E-01  0.83624048849E-01  0.51100000000E-03 0.  1.
</event>
<event>
 8    1  0.1112929E+005  0.1043930E+01  0.7957747E-01            NaN
         13   -1    0    0    0    0  0.00000000000E+00  0.00000000000E+00  0.74505805969E-08  0.10566000000E+00  0.10566000000E+00 0.  1.
     999900   -1    0    0    0    0 -0.00000000000E+00 -0.00000000000E+00 -0.74505805969E-08  0.93827000000E+00  0.93827000000E+00 0. -1.
     999902    2    1    2    0    0  0.36467792321E-02 -0.72913805591E-02  0.14618994321E-01  0.10271914749E+01  0.10270550851E+01 0.  0.
     999903    2    3    3    0    0 -0.13063487656E+00  0.32444054034E-01  0.35621114734E-02  0.13605022763E+00  0.19465050308E-01 0.  0.
         14    1    1    2    0    0 -0.36467792321E-02  0.72913805591E-02 -0.14618994321E-01  0.16738525149E-01  0.00000000000E+00 0. -1.
     999901    1    3    3    0    0  0.13428165579E+00 -0.39735434593E-01  0.11056882847E-01  0.89114124722E+00  0.88000000000E+00 0.  1.
        -11    1    4    4    0    0 -0.10182165361E+00  0.21988066455E-01  0.10250444564E-01  0.10467309561E+00  0.51100000000E-03 0. -1.
         11    1    4    4    0    0 -0.28813222952E-01  0.10455987579E-01 -0.66883330901E-02  0.31377132018E-01  0.51100000000E-03 0.  1.
</event>
<event>
 8    1  0.1112929E+005  0.1043930E+01  0.7957747E-01            NaN
         13   -1    0    0    0    0  0.00000000000E+00  0.00000000000E+00  0.74505805969E-08  0.10566000000E+00  0.10566000000E+00 0.  1.
     999900   -1    0    0    0    0 -0.00000000000E+00 -0.00000000000E+00 -0.74505805969E-08  0.93827000000E+00  0.93827000000E+00 0. -1.
     999902    2    1    2    0    0 -0.84947548989E-02 -0.14957970437E-01 -0.16416972149E-01  0.10201514652E+01  0.10198743027E+01 0.  0.
     999903    2    3    3    0    0 -0.11550130442E-01  0.25500563186E-01  0.12338807513E+00  0.12819200456E+00  0.20612828840E-01 0.  0.
         14    1    1    2    0    0  0.84947548989E-02  0.14957970437E-01  0.16416972149E-01  0.23778534751E-01  0.00000000000E+00 0.  1.
     999901    1    3    3    0    0  0.30553755435E-02 -0.40458533623E-01 -0.13980504728E+00  0.89195946069E+00  0.88000000000E+00 0. -1.
        -11    1    4    4    0    0 -0.13595030379E-01  0.66982359385E-02  0.67702902285E-01  0.69380366924E-01  0.51100000000E-03 0. -1.
         11    1    4    4    0    0  0.20448999364E-02  0.18802327247E-01  0.55685172847E-01  0.58811637638E-01  0.51100000000E-03 0.  1.
</event>
<event>
 8    1  0.1112929E+005  0.1043930E+01  0.7957747E-01            NaN
         13   -1    0    0    0    0  0.00000000000E+00  0.00000000000E+00  0.74505805969E-08  0.10566000000E+00  0.10566000000E+00 0.  1.
     999900   -1    0    0    0    0 -0.00000000000E+00 -0.00000000000E+00 -0.74505805969E-08  0.93827000000E+00  0.93827000000E+00 0.  1.
     999902    2    1    2    0    0  0.26271556202E-01  0.37912188359E-02 -0.12631607097E-02  0.10173562615E+01  0.10170091441E+01 0.  0.
     999903    2    3    3    0    0  0.58386413171E-01 -0.75918206099E-01 -0.84528818318E-01  0.12925822283E+00  0.19748918530E-01 0.  0.
         14    1    1    2    0    0 -0.26271556202E-01 -0.37912188359E-02  0.12631607097E-02  0.26573738550E-01  0.00000000000E+00 0. -1.
     999901    1    3    3    0    0 -0.32114856970E-01  0.79709424935E-01  0.83265657608E-01  0.88809803862E+00  0.88000000000E+00 0.  1.
        -11    1    4    4    0    0  0.40289054114E-01 -0.64407567256E-01 -0.70352997022E-01  0.10354394194E+00  0.51100000000E-03 0. -1.
         11    1    4    4    0    0  0.18097359058E-01 -0.11510638843E-01 -0.14175821296E-01  0.25714280893E-01  0.51100000000E-03 0.  1.
</event>
<event>
 8    1  0.1112929E+005  0.1043930E+01  0.7957747E-01            NaN
         13   -1    0    0    0    0  0.00000000000E+00  0.00000000000E+00  0.74505805969E-08  0.10566000000E+00  0.10566000000E+00 0. -1.
     999900   -1    0    0    0    0 -0.00000000000E+00 -0.00000000000E+00 -0.74505805969E-08  0.93827000000E+00  0.93827000000E+00 0.  1.
     999902    2    1    2    0    0  0.18484453221E-01 -0.12972140681E-01  0.63932799721E-02  0.10204603286E+01  0.10201904023E+01 0.  0.
     999903    2    3    3    0    0  0.95228704897E-02 -0.72743159487E-01 -0.10621387011E+00  0.13122849447E+00  0.23606762672E-01 0.  0.
         14    1    1    2    0    0 -0.18484453221E-01  0.12972140681E-01 -0.63932799721E-02  0.23469671355E-01  0.00000000000E+00 0.  1.
     999901    1    3    3    0    0  0.89615827315E-02  0.59771018806E-01  0.11260715008E+00  0.88923183417E+00  0.88000000000E+00 0. -1.
        -11    1    4    4    0    0  0.14696342677E-01 -0.25843573049E-01 -0.45050865040E-01  0.53978832128E-01  0.51100000000E-03 0. -1.
         11    1    4    4    0    0 -0.51734721870E-02 -0.46899586438E-01 -0.61163005068E-01  0.77249662346E-01  0.51100000000E-03 0.  1.
</event>
<event>
 8    1  0.1112929E+005  0.1043930E+01  0.7957747E-01            NaN
         13   -1    0    0    0    0  0.00000000000E+00  0.00000000000E+00  0.74505805969E-08  0.10566000000E+00  0.10566000000E+00 0. -1.
     999900   -1    0    0    0    0 -0.00000000000E+00 -0.00000000000E+00 -0.74505805969E-08  0.93827000000E+00  0.93827000000E+00 0. -1.
     999902    2    1    2    0    0  0.15637203343E-01  0.18893862576E-01 -0.46658900107E-03  0.10194000616E+01  0.10191048856E+01 0.  0.
     999903    2    3    3    0    0  0.97911075724E-01 -0.60310605858E-02  0.84661803013E-01  0.13112246706E+00  0.20063101411E-01 0.  0.
         14    1    1    2    0    0 -0.15637203343E-01 -0.18893862576E-01  0.46658900107E-03  0.24529938376E-01  0.00000000000E+00 0. -1.
     999901    1    3    3    0    0 -0.82273872380E-01  0.24924923161E-01 -0.85128392014E-01  0.88827759456E+00  0.88000000000E+00 0. -1.
        -11    1    4    4    0    0  0.23140329605E-01 -0.90436709142E-02  0.15948518777E-01  0.29527600817E-01  0.51100000000E-03 0.  1.
         11    1    4    4    0    0  0.74770746119E-01  0.30126103284E-02  0.68713284236E-01  0.10159486625E+00  0.51100000000E-03 0. -1.
</event>
<event>
 8    1  0.1112929E+005  0.1043930E+01  0.7957747E-01            NaN
         13   -1    0    0    0    0  0.00000000000E+00  0.00000000000E+00  0.74505805969E-08  0.10566000000E+00  0.10566000000E+00 0.  1.
     999900   -1    0    0    0    0 -0.00000000000E+00 -0.00000000000E+00 -0.74505805969E-08  0.93827000000E+00  0.93827000000E+00 0. -1.
     999902    2    1    2    0    0 -0.11020467395E-01 -0.59204449058E-02  0.20792114176E-01  0.10196645022E+01  0.10193757319E+01 0.  0.
     999903    2    3    3    0    0  0.23579155866E-01  0.10878787562E+00 -0.59515285548E-01  0.12792215651E+00  0.20766088671E-01 0.  0.
         14    1    1    2    0    0  0.11020467395E-01  0.59204449058E-02 -0.20792114176E-01  0.24265497757E-01  0.00000000000E+00 0. -1.
     999901    1    3    3    0    0 -0.34599623260E-01 -0.11470832052E+00  0.80307399724E-01  0.89174234574E+00  0.88000000000E+00 0.  1.
        -11    1    4    4    0    0  0.16381104223E-01  0.74826303549E-01 -0.29696403205E-01  0.82155059265E-01  0.51100000000E-03 0. -1.
         11    1    4    4    0    0  0.71980516427E-02  0.33961572070E-01 -0.29818882343E-01  0.45767097243E-01  0.51100000000E-03 0.  1.
</event>
<event>
 8    1  0.1112929E+005  0.1043930E+01  0.7957747E-01            NaN
         13   -1    0    0    0    0  0.00000000000E+00  0.00000000000E+00  0.74505805969E-08  0.10566000000E+00  0.10566000000E+00 0. -1.
     999900   -1    0    0    0    0 -0.00000000000E+00 -0.00000000000E+00 -0.74505805969E-08  0.93827000000E+00  0.93827000000E+00 0. -1.
     999902    2    1    2    0    0 -0.12614869078E-01  0.17507081570E-01  0.59437401201E-02  0.10215478448E+01  0.10213026183E+01 0.  0.
     999903    2    3    3    0    0  0.98107177561E-01 -0.38533823419E-01 -0.72328095517E-01  0.12940075212E+00  0.20083012995E-01 0.  0.
         14    1    1    2    0    0  0.12614869078E-01 -0.17507081570E-01 -0.59437401201E-02  0.22382155248E-01  0.00000000000E+00 0. -1.
     999901    1    3    3    0    0 -0.11072204664E+00  0.56040904989E-01  0.78271835637E-01  0.89214709264E+00  0.88000000000E+00 0. -1.
        -11    1    4    4    0    0  0.84530576736E-01 -0.25529735994E-01 -0.56615243263E-01  0.10489391171E+00  0.51100000000E-03 0.  1.
         11    1    4    4    0    0  0.13576600825E-01 -0.13004087425E-01 -0.15712852254E-01  0.24506840406E-01  0.51100000000E-03 0. -1.
</event>
<event>
 8    1  0.1112929E+005  0.1043930E+01  0.7957747E-01            NaN
         13   -1    0    0    0    0  0.00000000000E+00  0.00000000000E+00  0.74505805969E-08  0.10566000000E+00  0.10566000000E+00 0. -1.
     999900   -1    0    0    0    0 -0.00000000000E+00 -0.00000000000E+00 -0.74505805969E-08  0.93827000000E+00  0.93827000000E+00 0. -1.
     999902    2    1    2    0    0  0.15244491958E-01  0.15169157419E-01  0.98138000518E-02  0.10202908684E+01  0.10200169840E+01 0.  0.
     999903    2    3    3    0    0 -0.20538881544E-01 -0.12325250468E+00 -0.19643191049E-01  0.12826580109E+00  0.21289321515E-01 0.  0.
         14    1    1    2    0    0 -0.15244491958E-01 -0.15169157419E-01 -0.98138000518E-02  0.23639131611E-01  0.00000000000E+00 0.  1.
     999901    1    3    3    0    0  0.35783373502E-01  0.13842166210E+00  0.29456991101E-01  0.89202506729E+00  0.88000000000E+00 0.  1.
        -11    1    4    4    0    0 -0.27812874330E-02 -0.77797083599E-01 -0.95822113502E-02  0.78435971797E-01  0.51100000000E-03 0. -1.
         11    1    4    4    0    0 -0.17757594111E-01 -0.45455421082E-01 -0.10060979699E-01  0.49829829298E-01  0.51100000000E-03 0.  1.
</event>
<event>
 8    1  0.1112929E+005  0.1043930E+01  0.7957747E-01            NaN
         13   -1    0    0    0    0  0.00000000000E+00  0.00000000000E+00  0.74505805969E-08  0.10566000000E+00  0.10566000000E+00 0. -1.
     999900   -1    0    0    0    0 -0.00000000000E+00 -0.00000000000E+00 -0.74505805969E-08  0.93827000000E+00  0.93827000000E+00 0.  1.
     999902    2    1    2    0    0 -0.10404395670E-01 -0.16721307330E-01  0.91160503661E-02  0.10222284806E+01  0.10219980972E+01 0.  0.
     999903    2    3    3    0    0  0.94296391781E-01 -0.49386806092E-01  0.76986936223E-01  0.13282657664E+00  0.19622563380E-01 0.  0.
         14    1    1    2    0    0  0.10404395670E-01  0.16721307330E-01 -0.91160503661E-02  0.21701519356E-01  0.00000000000E+00 0.  1.
     999901    1    3    3    0    0 -0.10470078745E+00  0.32665498762E-01 -0.67870885856E-01  0.88940190401E+00  0.88000000000E+00 0.  1.
        -11    1    4    4    0    0  0.69348610464E-01 -0.27980467315E-01  0.59652007549E-01  0.95659601975E-01  0.51100000000E-03 0. -1.
         11    1    4    4    0    0  0.24947781318E-01 -0.21406338777E-01  0.17334928674E-01  0.37166974663E-01  0.51100000000E-03 0.  1.
</event>
<event>
 8    1  0.1112929E+005  0.1043930E+01  0.7957747E-01            NaN
         13   -1    0    0    0    0  0.00000000000E+00  0.00000000000E+00  0.74505805969E-08  0.10566000000E+00  0.10566000000E+00 0.  1.
     999900   -1    0    0    0    0 -0.00000000000E+00 -0.00000000000E+00 -0.74505805969E-08  0.93827000000E+00  0.93827000000E+00 0.  1.
     999902    2    1    2    0    0  0.28102951393E-02  0.59330147332E-02  0.22777824414E-01  0.10202249856E+01  0.10199495544E+01 0.  0.
     999903    2    3    3    0    0  0.72700659551E-01 -0.56057541454E-01  0.93147658434E-01  0.13248662007E+00  0.21175088504E-01 0.  0.
         14    1    1    2    0    0 -0.28102951393E-02 -0.59330147332E-02 -0.22777824414E-01  0.23705014399E-01  0.00000000000E+00 0. -1.
     999901    1    3    3    0    0 -0.69890364412E-01  0.61990556187E-01 -0.70369834020E-01  0.88773836553E+00  0.88000000000E+00 0.  1.
        -11    1    4    4    0    0  0.41966647476E-01 -0.25603172978E-01  0.36638551676E-01  0.61313673490E-01  0.51100000000E-03 0.  1.
         11    1    4    4    0    0  0.30734012075E-01 -0.30454368475E-01  0.56509106758E-01  0.71172946581E-01  0.51100000000E-03 0. -1.
</event>
<event>
 8    1  0.1112929E+005  0.1043930E+01  0.7957747E-01            NaN
         13   -1    0    0    0    0  0.00000000000E+00  0.00000000000E+00  0.74505805969E-08  0.10566000000E+00  0.10566000000E+00 0.  1.
     999900   -1    0    0    0    0 -0.00000000000E+00 -0.00000000000E+00 -0.74505805969E-08  0.93827000000E+00  0.93827000000E+00 0.  1.
     999902    2    1    2    0    0 -0.23061155455E-01 -0.19020037100E-02 -0.12145034848E-03  0.10207902234E+01  0.10205279178E+01 0.  0.
     999903    2    3    3    0    0 -0.96960775580E-02 -0.59005891042E-01  0.11582278472E+00  0.13124958643E+00  0.15356672093E-01 0.  0.
         14    1    1    2    0    0  0.23061155455E-01  0.19020037100E-02  0.12145034848E-03  0.23139776559E-01  0.00000000000E+00 0. -1.
     999901    1    3    3    0    0 -0.13365077897E-01  0.57103887332E-01 -0.11594423507E+00  0.88954063702E+00  0.88000000000E+00 0.  1.
        -11    1    4    4    0    0 -0.75654504564E-02 -0.53742866599E-01  0.92568178113E-01  0.10730638598E+00  0.51100000000E-03 0. -1.
         11    1    4    4    0    0 -0.21306271016E-02 -0.52630244428E-02  0.23254606611E-01  0.23943200450E-01  0.51100000000E-03 0.  1.
</event>
<event>
 8    1  0.1112929E+005  0.1043930E+01  0.7957747E-01            NaN
         13   -1    0    0    0    0  0.00000000000E+00  0.00000000000E+00  0.74505805969E-08  0.10566000000E+00  0.10566000000E+00 0.  1.
     999900   -1    0    0    0    0 -0.00000000000E+00 -0.00000000000E+00 -0.74505805969E-08  0.93827000000E+00  0.93827000000E+00 0. -1.
     999902    2    1    2    0    0  0.21240428020E-01 -0.12345760220E-01  0.62256485414E-02  0.10185857250E+01  0.10182703702E+01 0.  0.
     999903    2    3    3    0    0  0.15777360096E-01  0.11795412788E+00  0.42104259177E-01  0.12825141659E+00  0.22661770470E-01 0.  0.
         14    1    1    2    0    0 -0.21240428020E-01  0.12345760220E-01 -0.62256485414E-02  0.25344275047E-01  0.00000000000E+00 0.  1.
     999901    1    3    3    0    0  0.54630679244E-02 -0.13029988810E+00 -0.35878610635E-01  0.89033430836E+00  0.88000000000E+00 0. -1.
        -11    1    4    4    0    0  0.20332306299E-01  0.69825608543E-01  0.23160576832E-01  0.76326219139E-01  0.51100000000E-03 0. -1.
         11    1    4    4    0    0 -0.45549462037E-02  0.48128519337E-01  0.18943682344E-01  0.51925197450E-01  0.51100000000E-03 0.  1.
</event>
<event>
 8    1  0.1112929E+005  0.1043930E+01  0.7957747E-01            NaN
         13   -1    0    0    0    0  0.00000000000E+00  0.00000000000E+00  0.74505805969E-08  0.10566000000E+00  0.10566000000E+00 0.  1.
     999900   -1    0    0    0    0 -0.00000000000E+00 -0.00000000000E+00 -0.74505805969E-08  0.93827000000E+00  0.93827000000E+00 0. -1.
     999902    2    1    2    0    0 -0.34370940338E-02 -0.15875699368E-01  0.14775546911E-01  0.10219716705E+01  0.10217357423E+01 0.  0.
     999903    2    3    3    0    0  0.36458437831E-01 -0.10820771527E+00 -0.64566583736E-01  0.13269554452E+00  0.20028391550E-01 0.  0.
         14    1    1    2    0    0  0.34370940338E-02  0.15875699368E-01 -0.14775546911E-01  0.21958329452E-01  0.00000000000E+00 0. -1.
     999901    1    3    3    0    0 -0.39895531864E-01  0.92332015901E-01  0.79342130646E-01  0.88927612603E+00  0.88000000000E+00 0.  1.
        -11    1    4    4    0    0  0.34651597745E-01 -0.10617366738E+00 -0.58618254723E-01  0.12613461769E+00  0.51100000000E-03 0. -1.
         11    1    4    4    0    0  0.18068400854E-02 -0.20340478901E-02 -0.59483290130E-02  0.65609268370E-02  0.51100000000E-03 0.  1.
</event>
<event>
 8    1  0.1112929E+005  0.1043930E+01  0.7957747E-01            NaN
         13   -1    0    0    0    0  0.00000000000E+00  0.00000000000E+00  0.74505805969E-08  0.10566000000E+00  0.10566000000E+00 0.  1.
     999900   -1    0    0    0    0 -0.00000000000E+00 -0.00000000000E+00 -0.74505805969E-08  0.93827000000E+00  0.93827000000E+00 0.  1.
     999902    2    1    2    0    0  0.79531706061E-02  0.48949081425E-02  0.22242579114E-01  0.10198064560E+01  0.10195210946E+01 0.  0.
     999903    2    3    3    0    0  0.14816328811E-01 -0.12662253662E+00  0.14920387979E-01  0.12997638477E+00  0.20456105237E-01 0.  0.
         14    1    1    2    0    0 -0.79531706061E-02 -0.48949081425E-02 -0.22242579114E-01  0.24123543978E-01  0.00000000000E+00 0. -1.
     999901    1    3    3    0    0 -0.68631582048E-02  0.13151744476E+00  0.73221911345E-02  0.88983007125E+00  0.88000000000E+00 0. -1.
        -11    1    4    4    0    0 -0.10792988809E-02 -0.61314457017E-01  0.13238417886E-01  0.62738699018E-01  0.51100000000E-03 0. -1.
         11    1    4    4    0    0  0.15895627692E-01 -0.65308079604E-01  0.16819700930E-02  0.67237685755E-01  0.51100000000E-03 0.  1.
</event>
<event>
 8    1  0.1112929E+005  0.1043930E+01  0.7957747E-01            NaN
         13   -1    0    0    0    0  0.00000000000E+00  0.00000000000E+00  0.74505805969E-08  0.10566000000E+00  0.10566000000E+00 0. -1.
     999900   -1    0    0    0    0 -0.00000000000E+00 -0.00000000000E+00 -0.74505805969E-08  0.93827000000E+00  0.93827000000E+00 0. -1.
     999902    2    1    2    0    0  0.79717118258E-02  0.94534761701E-02 -0.20863387703E-01  0.10196772198E+01  0.10193887557E+01 0.  0.
     999903    2    3    3    0    0  0.11234628602E-02  0.12118586852E+00 -0.51130368957E-01  0.13206969607E+00  0.11866469314E-01 0.  0.
         14    1    1    2    0    0 -0.79717118258E-02 -0.94534761701E-02  0.20863387703E-01  0.24252780203E-01  0.00000000000E+00 0. -1.
     999901    1    3    3    0    0  0.68482489655E-02 -0.11173239235E+00  0.30266981255E-01  0.88760752372E+00  0.88000000000E+00 0. -1.
        -11    1    4    4    0    0 -0.15477243175E-02  0.17773428288E-01 -0.35219953015E-02  0.18192189961E-01  0.51100000000E-03 0.  1.
         11    1    4    4    0    0  0.26711871777E-02  0.10341244023E+00 -0.47608373656E-01  0.11387750611E+00  0.51100000000E-03 0. -1.
</event>
<event>
 8    1  0.1112929E+005  0.1043930E+01  0.7957747E-01            NaN
         13   -1    0    0    0    0  0.00000000000E+00  0.00000000000E+00  0.74505805969E-08  0.10566000000E+00  0.10566000000E+00 0. -1.
     999900   -1    0    0    0    0 -0.00000000000E+00 -0.00000000000E+00 -0.74505805969E-08  0.93827000000E+00  0.93827000000E+00 0. -1.
     999902    2    1    2    0    0 -0.59984912075E-02 -0.40795290670E-02  0.17445194168E-01  0.10250366347E+01  0.10248624996E+01 0.  0.
     999903    2    3    3    0    0 -0.10793814484E+00  0.50568186055E-01 -0.58634421299E-01  0.13421332242E+00  0.19168620218E-01 0.  0.
         14    1    1    2    0    0  0.59984912075E-02  0.40795290670E-02 -0.17445194168E-01  0.18893365337E-01  0.00000000000E+00 0.  1.
     999901    1    3    3    0    0  0.10193965363E+00 -0.54647715122E-01  0.76079615468E-01  0.89082331225E+00  0.88000000000E+00 0.  1.
        -11    1    4    4    0    0 -0.19670032274E-01  0.59487407011E-02 -0.17863482791E-01  0.27233487180E-01  0.51100000000E-03 0.  1.
         11    1    4    4    0    0 -0.88268112565E-01  0.44619445354E-01 -0.40770938509E-01  0.10697983524E+00  0.51100000000E-03 0. -1.
</event>
<event>
 7    1  0.1112929E+005  0.1043930E+01  0.7957747E-01            NaN
         13   -1    0    0    0    0  0.00000000000E+00  0.00000000000E+00  0.74505805969E-08  0.10566000000E+00  0.10566000000E+00 0.  1.
     999900   -1    0    0    0    0 -0.00000000000E+00 -0.00000000000E+00 -0.74505805969E-08  0.93827000000E+00  0.93827000000E+00 0. -1.
     999903    2    1    2    0    0 -0.24968577571E-01  0.73937475796E-01  0.40576102406E-01  0.90547136179E-01  0.21498455541E-01 0.  0.
         14    1    1    2    0    0 -0.61996671290E-01  0.13600923297E-01  0.45080607377E-02  0.63630927835E-01  0.00000000000E+00 0.  1.
     999901    1    1    2    0    0  0.86965248861E-01 -0.87538399093E-01 -0.45084163144E-01  0.88975193599E+00  0.88000000000E+00 0. -1.
        -11    1    3    3    0    0 -0.17215661628E-01  0.20911303950E-01  0.17114915350E-01  0.32044392437E-01  0.51100000000E-03 0. -1.
         11    1    3    3    0    0 -0.77529159425E-02  0.53026171846E-01  0.23461187055E-01  0.58502743742E-01  0.51100000000E-03 0.  1.
</event>
<event>
 8    1  0.1112929E+005  0.1043930E+01  0.7957747E-01            NaN
         13   -1    0    0    0    0  0.00000000000E+00  0.00000000000E+00  0.74505805969E-08  0.10566000000E+00  0.10566000000E+00 0. -1.
     999900   -1    0    0    0    0 -0.00000000000E+00 -0.00000000000E+00 -0.74505805969E-08  0.93827000000E+00  0.93827000000E+00 0. -1.
     999902    2    1    2    0    0 -0.87329315572E-02  0.18937567256E-01 -0.12270137201E-01  0.10197338885E+01  0.10194467870E+01 0.  0.
     999903    2    3    3    0    0  0.67751608044E-02  0.12988535916E+00  0.75632051547E-02  0.13241022996E+00  0.23646513411E-01 0.  0.
         14    1    1    2    0    0  0.87329315572E-02 -0.18937567256E-01  0.12270137201E-01  0.24196111549E-01  0.00000000000E+00 0. -1.
     999901    1    3    3    0    0 -0.15508092362E-01 -0.11094779190E+00 -0.19833342356E-01  0.88732365850E+00  0.88000000000E+00 0. -1.
        -11    1    4    4    0    0  0.51837687588E-02  0.76979018570E-02  0.41093770674E-02  0.10162541632E-01  0.51100000000E-03 0.  1.
         11    1    4    4    0    0  0.15913920455E-02  0.12218745730E+00  0.34538280872E-02  0.12224768832E+00  0.51100000000E-03 0. -1.
</event>
<event>
 8    1  0.1112929E+005  0.1043930E+01  0.7957747E-01            NaN
         13   -1    0    0    0    0  0.00000000000E+00  0.00000000000E+00  0.74505805969E-08  0.10566000000E+00  0.10566000000E+00 0.  1.
     999900   -1    0    0    0    0 -0.00000000000E+00 -0.00000000000E+00 -0.74505805969E-08  0.93827000000E+00  0.93827000000E+00 0. -1.
     999902    2    1    2    0    0 -0.16489719353E-01  0.64026805212E-02  0.17676764614E-01  0.10189225377E+01  0.10186156119E+01 0.  0.
     999903    2    3    3    0    0 -0.12965034834E+00 -0.64620646213E-02  0.88951413834E-02  0.13153989955E+00  0.19304158369E-01 0.  0.
         14    1    1    2    0    0  0.16489719353E-01 -0.64026805212E-02 -0.17676764614E-01  0.25007462274E-01  0.00000000000E+00 0. -1.
     999901    1    3    3    0    0  0.11316062899E+00  0.12864745143E-01  0.87816232307E-02  0.88738263817E+00  0.88000000000E+00 0.  1.
        -11    1    4    4    0    0 -0.91055865594E-01 -0.13193362671E-01  0.45714378706E-02  0.92121629615E-01  0.51100000000E-03 0.  1.
         11    1    4    4    0    0 -0.38594482748E-01  0.67312980500E-02  0.43237035128E-02  0.39418269940E-01  0.51100000000E-03 0. -1.
</event>
<event>
 8    1  0.1112929E+005  0.1043930E+01  0.7957747E-01            NaN
         13   -1    0    0    0    0  0.00000000000E+00  0.00000000000E+00  0.74505805969E-08  0.10566000000E+00  0.10566000000E+00 0. -1.
     999900   -1    0    0    0    0 -0.00000000000E+00 -0.00000000000E+00 -0.74505805969E-08  0.93827000000E+00  0.93827000000E+00 0.  1.
     999902    2    1    2    0    0  0.13961342452E-01  0.11214076457E-01 -0.67578944959E-02  0.10247898921E+01  0.10246111356E+01 0.  0.
     999903    2    3    3    0    0 -0.96749755000E-01 -0.87800228699E-01 -0.37033858302E-02  0.13233815121E+00  0.20743093973E-01 0.  0.
         14    1    1    2    0    0 -0.13961342452E-01 -0.11214076457E-01  0.67578944959E-02  0.19140107937E-01  0.00000000000E+00 0. -1.
     999901    1    3    3    0    0  0.11071109745E+00  0.99014305156E-01 -0.30545086657E-02  0.89245174085E+00  0.88000000000E+00 0. -1.
        -11    1    4    4    0    0 -0.19297091812E-01 -0.17894014348E-01  0.75854824271E-02  0.27392958339E-01  0.51100000000E-03 0. -1.
         11    1    4    4    0    0 -0.77452663188E-01 -0.69906214350E-01 -0.11288868257E-01  0.10494519287E+00  0.51100000000E-03 0.  1.
</event>
<event>
 8    1  0.1112929E+005  0.1043930E+01  0.7957747E-01            NaN
         13   -1    0    0    0    0  0.00000000000E+00  0.00000000000E+00  0.74505805969E-08  0.10566000000E+00  0.10566000000E+00 0.  1.
     999900   -1    0    0    0    0 -0.00000000000E+00 -0.00000000000E+00 -0.74505805969E-08  0.93827000000E+00  0.93827000000E+00 0.  1.
     999902    2    1    2    0    0 -0.24551380918E-02 -0.23575540156E-01  0.30557777843E-02  0.10200308039E+01  0.10197507878E+01 0.  0.
     999903    2    3    3    0    0 -0.10328691267E+00  0.73448520000E-01  0.13051599538E-01  0.12891878430E+00  0.19668179243E-01 0.  0.
         14    1    1    2    0    0  0.24551380918E-02  0.23575540156E-01 -0.30557777843E-02  0.23899196107E-01  0.00000000000E+00 0. -1.
     999901    1    3    3    0    0  0.10083177458E+00 -0.97024060157E-01 -0.99958217537E-02  0.89111201960E+00  0.88000000000E+00 0.  1.
        -11    1    4    4    0    0 -0.47335535389E-01  0.38699705627E-01  0.15247598209E-01  0.63016430384E-01  0.51100000000E-03 0. -1.
         11    1    4    4    0    0 -0.55951377283E-01  0.34748814374E-01 -0.21959986714E-02  0.65902353914E-01  0.51100000000E-03 0.  1.
</event>
<event>
 8    1  0.1158505E+005  0.1043930E+01  0.7957747E-01            NaN
         13   -1    0    0    0    0  0.00000000000E+00  0.00000000000E+00  0.74505805969E-08  0.10566000000E+00  0.10566000000E+00 0.  1.
     999900   -1    0    0    0    0 -0.00000000000E+00 -0.00000000000E+00 -0.74505805969E-08  0.93827000000E+00  0.93827000000E+00 0.  1.
     999902    2    1    2    0    0 -0.56730207305E-02  0.63780401691E-02 -0.21481529025E-01  0.10208146663E+01  0.10205529209E+01 0.  0.
     999903    2    3    3    0    0  0.29598334046E-01  0.31015872983E-01 -0.12502036393E+00  0.13370059161E+00  0.20191855890E-01 0.  0.
         14    1    1    2    0    0  0.56730207305E-02 -0.63780401691E-02  0.21481529025E-01  0.23115333652E-01  0.00000000000E+00 0.  1.
     999901    1    3    3    0    0 -0.35271354776E-01 -0.24637832814E-01  0.10353883490E+00  0.88711407474E+00  0.88000000000E+00 0. -1.
        -11    1    4    4    0    0  0.25851572877E-01  0.22856733278E-01 -0.71070928731E-01  0.79006785203E-01  0.51100000000E-03 0.  1.
         11    1    4    4    0    0  0.37467611691E-02  0.81591397044E-02 -0.53949435195E-01  0.54693806403E-01  0.51100000000E-03 0. -1.
</event>
<event>
 8    1  0.1112929E+005  0.1043930E+01  0.7957747E-01            NaN
         13   -1    0    0    0    0  0.00000000000E+00  0.00000000000E+00  0.74505805969E-08  0.10566000000E+00  0.10566000000E+00 0. -1.
     999900   -1    0    0    0    0 -0.00000000000E+00 -0.00000000000E+00 -0.74505805969E-08  0.93827000000E+00  0.93827000000E+00 0.  1.
     999902    2    1    2    0    0 -0.22926661447E-01 -0.11564663080E-02 -0.65523884430E-02  0.10200573585E+01  0.10197779717E+01 0.  0.
     999903    2    3    3    0    0  0.41967728544E-01  0.11856495564E+00  0.21772559456E-01  0.12913266838E+00  0.19551540959E-01 0.  0.
         14    1    1    2    0    0  0.22926661447E-01  0.11564663080E-02  0.65523884430E-02  0.23872641532E-01  0.00000000000E+00 0. -1.
     999901    1    3    3    0    0 -0.64894389991E-01 -0.11972142195E+00 -0.28324947899E-01  0.89092469008E+00  0.88000000000E+00 0. -1.
        -11    1    4    4    0    0  0.24203211674E-01  0.73790854023E-01  0.39217412723E-02  0.77759415946E-01  0.51100000000E-03 0. -1.
         11    1    4    4    0    0  0.17764516871E-01  0.44774101617E-01  0.17850818184E-01  0.51373252438E-01  0.51100000000E-03 0.  1.
</event>
<event>
 8    1  0.1112929E+005  0.1043930E+01  0.7957747E-01            NaN
         13   -1    0    0    0    0  0.00000000000E+00  0.00000000000E+00  0.74505805969E-08  0.10566000000E+00  0.10566000000E+00 0.  1.
     999900   -1    0    0    0    0 -0.00000000000E+00 -0.00000000000E+00 -0.74505805969E-08  0.93827000000E+00  0.93827000000E+00 0. -1.
     999902    2    1    2    0    0  0.22722043706E-03 -0.13528944023E-01  0.18914576208E-01  0.10206739223E+01  0.10204089428E+01 0.  0.
     999903    2    3    3    0    0  0.12041740745E+00  0.44053384347E-01  0.13877961582E-01  0.13062517474E+00  0.20719212562E-01 0.  0.
         14    1    1    2    0    0 -0.22722043706E-03  0.13528944023E-01 -0.18914576208E-01  0.23256077671E-01  0.00000000000E+00 0. -1.
     999901    1    3    3    0    0 -0.12019018701E+00 -0.57582328369E-01  0.50366146266E-02  0.89004874759E+00  0.88000000000E+00 0.  1.
        -11    1    4    4    0    0  0.24606366976E-01  0.17343213370E-01  0.70650138990E-02  0.30926297679E-01  0.51100000000E-03 0. -1.
         11    1    4    4    0    0  0.95811040474E-01  0.26710170976E-01  0.68129476827E-02  0.99698877062E-01  0.51100000000E-03 0.  1.
</event>
<event>
 8    1  0.1112929E+005  0.1043930E+01  0.7957747E-01            NaN
         13   -1    0    0    0    0  0.00000000000E+00  0.00000000000E+00  0.74505805969E-08  0.10566000000E+00  0.10566000000E+00 0.  1.
     999900   -1    0    0    0    0 -0.00000000000E+00 -0.00000000000E+00 -0.74505805969E-08  0.93827000000E+00  0.93827000000E+00 0.  1.
     999902    2    1    2    0    0  0.92773970085E-02  0.12684103791E-01 -0.19015772361E-01  0.10192610685E+01  0.10189624966E+01 0.  0.
     999903    2    3    3    0    0 -0.15253593363E-01  0.11561383317E+00 -0.58519029265E-01  0.13204249000E+00  0.20285754820E-01 0.  0.
         14    1    1    2    0    0 -0.92773970085E-02 -0.12684103791E-01  0.19015772361E-01  0.24668931528E-01  0.00000000000E+00 0. -1.
     999901    1    3    3    0    0  0.24530990372E-01 -0.10292972938E+00  0.39503256903E-01  0.88721857847E+00  0.88000000000E+00 0. -1.
        -11    1    4    4    0    0  0.47764738611E-02  0.14268615804E-01 -0.70601455513E-02  0.16628736444E-01  0.51100000000E-03 0.  1.
         11    1    4    4    0    0 -0.20030067224E-01  0.10134521737E+00 -0.51458883713E-01  0.11541375356E+00  0.51100000000E-03 0. -1.
</event>
<event>
 8    1  0.1112929E+005  0.1043930E+01  0.7957747E-01            NaN
         13   -1    0    0    0    0  0.00000000000E+00  0.00000000000E+00  0.74505805969E-08  0.10566000000E+00  0.10566000000E+00 0. -1.
     999900   -1    0    0    0    0 -0.00000000000E+00 -0.00000000000E+00 -0.74505805969E-08  0.93827000000E+00  0.93827000000E+00 0. -1.
     999902    2    1    2    0    0 -0.95575197231E-02  0.19235098607E-01  0.82489148870E-02  0.10209217450E+01  0.10206624465E+01 0.  0.
     999903    2    3    3    0    0 -0.11211015032E+00  0.62515390636E-01 -0.29405679785E-01  0.13311090128E+00  0.19415410486E-01 0.  0.
         14    1    1    2    0    0  0.95575197231E-02 -0.19235098607E-01 -0.82489148870E-02  0.23008255007E-01  0.00000000000E+00 0. -1.
     999901    1    3    3    0    0  0.10255263059E+00 -0.43280292030E-01  0.37654594672E-01  0.88781084372E+00  0.88000000000E+00 0.  1.
        -11    1    4    4    0    0 -0.79607235331E-01  0.54066980849E-01 -0.22144584698E-01  0.98748134603E-01  0.51100000000E-03 0.  1.
         11    1    4    4    0    0 -0.32502914987E-01  0.84484097872E-02 -0.72610950868E-02  0.34362766674E-01  0.51100000000E-03 0. -1.
</event>
<event>
 8    1  0.1112929E+005  0.1043930E+01  0.7957747E-01            NaN
         13   -1    0    0    0    0  0.00000000000E+00  0.00000000000E+00  0.74505805969E-08  0.10566000000E+00  0.10566000000E+00 0.  1.
     999900   -1    0    0    0    0 -0.00000000000E+00 -0.00000000000E+00 -0.74505805969E-08  0.93827000000E+00  0.93827000000E+00 0.  1.
     999902    2    1    2    0    0  0.21441363968E-01  0.77896157109E-02 -0.65272937177E-02  0.10202020468E+01  0.10199260760E+01 0.  0.
     999903    2    3    3    0    0  0.35348765591E-01  0.12073911665E+00  0.28816146919E-01  0.13217042324E+00  0.28481238349E-01 0.  0.
         14    1    1    2    0    0 -0.21441363968E-01 -0.77896157109E-02  0.65272937177E-02  0.23727953241E-01  0.00000000000E+00 0.  1.
     999901    1    3    3    0    0 -0.13907401623E-01 -0.11294950093E+00 -0.35343440637E-01  0.88803162352E+00  0.88000000000E+00 0.  1.
        -11    1    4    4    0    0  0.67866387984E-02  0.59901041901E-01  0.23655975467E-01  0.64761559457E-01  0.51100000000E-03 0.  1.
         11    1    4    4    0    0  0.28562126792E-01  0.60838074745E-01  0.51601714527E-02  0.67408863779E-01  0.51100000000E-03 0. -1.
</event>
<event>
 8    1  0.1112929E+005  0.1043930E+01  0.7957747E-01            NaN
         13   -1    0    0    0    0  0.00000000000E+00  0.00000000000E+00  0.74505805969E-08  0.10566000000E+00  0.10566000000E+00 0.  1.
     999900   -1    0    0    0    0 -0.00000000000E+00 -0.00000000000E+00 -0.74505805969E-08  0.93827000000E+00  0.93827000000E+00 0.  1.
     999902    2    1    2    0    0  0.20895642722E-01 -0.10750661388E-01 -0.23457130310E-02  0.10203141796E+01  0.10200408414E+01 0.  0.
     999903    2    3    3    0    0  0.29507401248E-01  0.55171359780E-01  0.11257169575E+00  0.13035581756E+00  0.20141668733E-01 0.  0.
         14    1    1    2    0    0 -0.20895642722E-01  0.10750661388E-01  0.23457130310E-02  0.23615820432E-01  0.00000000000E+00 0. -1.
     999901    1    3    3    0    0 -0.86117585261E-02 -0.65922021168E-01 -0.11491740879E+00  0.88995836200E+00  0.88000000000E+00 0.  1.
        -11    1    4    4    0    0  0.19142061105E-02  0.10304086032E-02  0.16688175215E-01  0.16836930835E-01  0.51100000000E-03 0.  1.
         11    1    4    4    0    0  0.27593195138E-01  0.54140951177E-01  0.95883520539E-01  0.11351888673E+00  0.51100000000E-03 0. -1.
</event>
<event>
 8    1  0.1112929E+005  0.1043930E+01  0.7957747E-01            NaN
         13   -1    0    0    0    0  0.00000000000E+00  0.00000000000E+00  0.74505805969E-08  0.10566000000E+00  0.10566000000E+00 0. -1.
     999900   -1    0    0    0    0 -0.00000000000E+00 -0.00000000000E+00 -0.74505805969E-08  0.93827000000E+00  0.93827000000E+00 0.  1.
     999902    2    1    2    0    0 -0.23464949041E-01  0.14448499762E-02 -0.72472619285E-02  0.10193288978E+01  0.10190319856E+01 0.  0.
     999903    2    3    3    0    0 -0.36362435035E-01 -0.85210569578E-01 -0.90672751098E-01  0.13105229721E+00  0.19237696386E-01 0.  0.
         14    1    1    2    0    0  0.23464949041E-01 -0.14448499762E-02  0.72472619285E-02  0.24601102219E-01  0.00000000000E+00 0. -1.
     999901    1    3    3    0    0  0.12897485994E-01  0.86655419554E-01  0.83425489169E-01  0.88827660057E+00  0.88000000000E+00 0. -1.
        -11    1    4    4    0    0 -0.12110639323E-01 -0.20206124722E-01 -0.34511249701E-01  0.41788066934E-01  0.51100000000E-03 0. -1.
         11    1    4    4    0    0 -0.24251795712E-01 -0.65004444856E-01 -0.56161501396E-01  0.89264230274E-01  0.51100000000E-03 0.  1.
</event>
<event>
 8    1  0.1112929E+005  0.1043930E+01  0.7957747E-01            NaN
         13   -1    0    0    0    0  0.00000000000E+00  0.00000000000E+00  0.74505805969E-08  0.10566000000E+00  0.10566000000E+00 0. -1.
     999900   -1    0    0    0    0 -0.00000000000E+00 -0.00000000000E+00 -0.74505805969E-08  0.93827000000E+00  0.93827000000E+00 0.  1.
     999902    2    1    2    0    0 -0.19326430593E-01  0.13181872975E-01  0.74402743977E-02  0.10193814689E+01  0.10190858398E+01 0.  0.
     999903    2    3    3    0    0 -0.34164259479E-01 -0.11267616501E+00 -0.47129363982E-01  0.12862995907E+00  0.21479632997E-01 0.  0.
         14    1    1    2    0    0  0.19326430593E-01 -0.13181872975E-01 -0.74402743977E-02  0.24548531071E-01  0.00000000000E+00 0.  1.
     999901    1    3    3    0    0  0.14837828886E-01  0.12585803798E+00  0.54569638380E-01  0.89075150986E+00  0.88000000000E+00 0. -1.
        -11    1    4    4    0    0 -0.71561050533E-02 -0.53469781428E-01 -0.14678046966E-01  0.55910048732E-01  0.51100000000E-03 0. -1.
         11    1    4    4    0    0 -0.27008154426E-01 -0.59206383579E-01 -0.32451317016E-01  0.72719910334E-01  0.51100000000E-03 0.  1.
</event>
<event>
 8    1  0.1112929E+005  0.1043930E+01  0.7957747E-01            NaN
         13   -1    0    0    0    0  0.00000000000E+00  0.00000000000E+00  0.74505805969E-08  0.10566000000E+00  0.10566000000E+00 0. -1.
     999900   -1    0    0    0    0 -0.00000000000E+00 -0.00000000000E+00 -0.74505805969E-08  0.93827000000E+00  0.93827000000E+00 0. -1.
     999902    2    1    2    0    0  0.16329149240E-01  0.14339434010E-01  0.37001575670E-02  0.10218856890E+01  0.10216478893E+01 0.  0.
     999903    2    3    3    0    0  0.92991907874E-01 -0.83122024719E-01 -0.38644477279E-01  0.13218406337E+00  0.20553954892E-01 0.  0.
         14    1    1    2    0    0 -0.16329149240E-01 -0.14339434010E-01 -0.37001575670E-02  0.22044311026E-01  0.00000000000E+00 0. -1.
     999901    1    3    3    0    0 -0.76662758635E-01  0.97461458729E-01  0.42344634846E-01  0.88970162560E+00  0.88000000000E+00 0.  1.
        -11    1    4    4    0    0  0.38868266950E-01 -0.23725909558E-01 -0.19722486371E-01  0.49627598670E-01  0.51100000000E-03 0.  1.
         11    1    4    4    0    0  0.54123640924E-01 -0.59396115161E-01 -0.18921990908E-01  0.82556464702E-01  0.51100000000E-03 0. -1.
</event>
<event>
 8    1  0.1112929E+005  0.1043930E+01  0.7957747E-01            NaN
         13   -1    0    0    0    0  0.00000000000E+00  0.00000000000E+00  0.74505805969E-08  0.10566000000E+00  0.10566000000E+00 0.  1.
     999900   -1    0    0    0    0 -0.00000000000E+00 -0.00000000000E+00 -0.74505805969E-08  0.93827000000E+00  0.93827000000E+00 0.  1.
     999902    2    1    2    0    0  0.17606676706E-01 -0.70562527971E-02  0.12453672963E-01  0.10212390384E+01  0.10209869215E+01 0.  0.
     999903    2    3    3    0    0 -0.43988812762E-01 -0.58010128828E-01  0.10988469445E+00  0.13226035150E+00  0.10861114553E-01 0.  0.
         14    1    1    2    0    0 -0.17606676706E-01  0.70562527971E-02 -0.12453672963E-01  0.22690961602E-01  0.00000000000E+00 0. -1.
     999901    1    3    3    0    0  0.61595489468E-01  0.50953876031E-01 -0.97431021492E-01  0.88897868690E+00  0.88000000000E+00 0.  1.
        -11    1    4    4    0    0 -0.11568261662E-01 -0.16880522731E-01  0.22811880279E-01  0.30649954786E-01  0.51100000000E-03 0. -1.
         11    1    4    4    0    0 -0.32420551100E-01 -0.41129606097E-01  0.87072814176E-01  0.10161039672E+00  0.51100000000E-03 0.  1.
</event>
<event>
 8    1  0.1112929E+005  0.1043930E+01  0.7957747E-01            NaN
         13   -1    0    0    0    0  0.00000000000E+00  0.00000000000E+00  0.74505805969E-08  0.10566000000E+00  0.10566000000E+00 0. -1.
     999900   -1    0    0    0    0 -0.00000000000E+00 -0.00000000000E+00 -0.74505805969E-08  0.93827000000E+00  0.93827000000E+00 0.  1.
     999902    2    1    2    0    0 -0.91792121424E-02 -0.17027260883E-02 -0.21206098876E-01  0.10207598502E+01  0.10204968476E+01 0.  0.
     999903    2    3    3    0    0  0.67285069518E-01 -0.66359104460E-01  0.85154247076E-01  0.12871738663E+00  0.19649643811E-01 0.  0.
         14    1    1    2    0    0  0.91792121424E-02  0.17027260883E-02  0.21206098876E-01  0.23170149789E-01  0.00000000000E+00 0. -1.
     999901    1    3    3    0    0 -0.76464281660E-01  0.64656378372E-01 -0.10636034595E+00  0.89204246358E+00  0.88000000000E+00 0.  1.
        -11    1    4    4    0    0  0.20929326649E-01 -0.10528812641E-01  0.26774574355E-01  0.35581337278E-01  0.51100000000E-03 0.  1.
         11    1    4    4    0    0  0.46355742869E-01 -0.55830291819E-01  0.58379672721E-01  0.93136049355E-01  0.51100000000E-03 0. -1.
</event>
<event>
 8    1  0.1112929E+005  0.1043930E+01  0.7957747E-01            NaN
         13   -1    0    0    0    0  0.00000000000E+00  0.00000000000E+00  0.74505805969E-08  0.10566000000E+00  0.10566000000E+00 0. -1.
     999900   -1    0    0    0    0 -0.00000000000E+00 -0.00000000000E+00 -0.74505805969E-08  0.93827000000E+00  0.93827000000E+00 0. -1.
     999902    2    1    2    0    0  0.49681132969E-02 -0.49506642985E-02 -0.22665576043E-01  0.10202040740E+01  0.10199281509E+01 0.  0.
     999903    2    3    3    0    0  0.64769570246E-01 -0.64080958185E-01 -0.95258230783E-01  0.13321912519E+00  0.19280517453E-01 0.  0.
         14    1    1    2    0    0 -0.49681132969E-02  0.49506642985E-02  0.22665576043E-01  0.23725925990E-01  0.00000000000E+00 0. -1.
     999901    1    3    3    0    0 -0.59801456949E-01  0.59130293886E-01  0.72592654740E-01  0.88698494882E+00  0.88000000000E+00 0. -1.
        -11    1    4    4    0    0  0.43031903041E-01 -0.43454742397E-01 -0.50294532727E-01  0.79182450451E-01  0.51100000000E-03 0. -1.
         11    1    4    4    0    0  0.21737667205E-01 -0.20626215787E-01 -0.44963698055E-01  0.54036674741E-01  0.51100000000E-03 0.  1.
</event>
<event>
 8    1  0.1112929E+005  0.1043930E+01  0.7957747E-01            NaN
         13   -1    0    0    0    0  0.00000000000E+00  0.00000000000E+00  0.74505805969E-08  0.10566000000E+00  0.10566000000E+00 0.  1.
     999900   -1    0    0    0    0 -0.00000000000E+00 -0.00000000000E+00 -0.74505805969E-08  0.93827000000E+00  0.93827000000E+00 0.  1.
     999902    2    1    2    0    0 -0.12335497849E-01 -0.14394099543E-01 -0.12304416676E-01  0.10213301487E+01  0.10210800749E+01 0.  0.
     999903    2    3    3    0    0  0.24613868557E-01 -0.68893997342E-01  0.10675995676E+00  0.13087418710E+00  0.19445798674E-01 0.  0.
         14    1    1    2    0    0  0.12335497849E-01  0.14394099543E-01  0.12304416676E-01  0.22599851296E-01  0.00000000000E+00 0.  1.
     999901    1    3    3    0    0 -0.36949366407E-01  0.54499897799E-01 -0.11906437344E+00  0.89045596161E+00  0.88000000000E+00 0.  1.
        -11    1    4    4    0    0  0.13826872136E-01 -0.17906060125E-01  0.42370088960E-01  0.48034310047E-01  0.51100000000E-03 0. -1.
         11    1    4    4    0    0  0.10786996421E-01 -0.50987937217E-01  0.64389867801E-01  0.82839877051E-01  0.51100000000E-03 0.  1.
</event>
<event>
 8    1  0.1112929E+005  0.1043930E+01  0.7957747E-01            NaN
         13   -1    0    0    0    0  0.00000000000E+00  0.00000000000E+00  0.74505805969E-08  0.10566000000E+00  0.10566000000E+00 0. -1.
     999900   -1    0    0    0    0 -0.00000000000E+00 -0.00000000000E+00 -0.74505805969E-08  0.93827000000E+00  0.93827000000E+00 0.  1.
     999902    2    1    2    0    0 -0.12585613677E-01  0.13223975919E-01  0.14758304138E-01  0.10204549334E+01  0.10201848815E+01 0.  0.
     999903    2    3    3    0    0 -0.26552941811E-01  0.11006833457E+00  0.67934657297E-01  0.13343653416E+00  0.19237827142E-01 0.  0.
         14    1    1    2    0    0  0.12585613677E-01 -0.13223975919E-01 -0.14758304138E-01  0.23475066598E-01  0.00000000000E+00 0.  1.
     999901    1    3    3    0    0  0.13967328134E-01 -0.96844358650E-01 -0.53176353159E-01  0.88701839924E+00  0.88000000000E+00 0.  1.
        -11    1    4    4    0    0 -0.14811926203E-01  0.48296437360E-01  0.40862384534E-01  0.64976415801E-01  0.51100000000E-03 0.  1.
         11    1    4    4    0    0 -0.11741015608E-01  0.61771897209E-01  0.27072272763E-01  0.68460118360E-01  0.51100000000E-03 0. -1.
</event>
<event>
 8    1  0.1112929E+005  0.1043930E+01  0.7957747E-01            NaN
         13   -1    0    0    0    0  0.00000000000E+00  0.00000000000E+00  0.74505805969E-08  0.10566000000E+00  0.10566000000E+00 0.  1.
     999900   -1    0    0    0    0 -0.00000000000E+00 -0.00000000000E+00 -0.74505805969E-08  0.93827000000E+00  0.93827000000E+00 0.  1.
     999902    2    1    2    0    0 -0.99978723496E-02 -0.42050488375E-02 -0.20390195985E-01  0.10208345463E+01  0.10205732561E+01 0.  0.
     999903    2    3    3    0    0 -0.65634217667E-01 -0.57713548303E-01 -0.99413191779E-01  0.13392801446E+00  0.20372191119E-01 0.  0.
         14    1    1    2    0    0  0.99978723496E-02  0.42050488375E-02  0.20390195985E-01  0.23095453655E-01  0.00000000000E+00 0.  1.
     999901    1    3    3    0    0  0.55636345317E-01  0.53508499466E-01  0.79022995794E-01  0.88690653188E+00  0.88000000000E+00 0. -1.
        -11    1    4    4    0    0 -0.37690351279E-01 -0.20238827578E-01 -0.42942069650E-01  0.60617284565E-01  0.51100000000E-03 0.  1.
         11    1    4    4    0    0 -0.27943866388E-01 -0.37474720725E-01 -0.56471122129E-01  0.73310729895E-01  0.51100000000E-03 0. -1.
</event>
<event>
 7    1  0.1112929E+005  0.1043930E+01  0.7957747E-01            NaN
         13   -1    0    0    0    0  0.00000000000E+00  0.00000000000E+00  0.74505805969E-08  0.10566000000E+00  0.10566000000E+00 0.  1.
     999900   -1    0    0    0    0 -0.00000000000E+00 -0.00000000000E+00 -0.74505805969E-08  0.93827000000E+00  0.93827000000E+00 0. -1.
     999903    2    1    2    0    0 -0.17919186796E-01 -0.45969675895E-02  0.67408223327E-01  0.72561066820E-01  0.19468191478E-01 0.  0.
         14    1    1    2    0    0  0.18247583285E-02 -0.49764979367E-01 -0.74386814251E-01  0.89516931631E-01  0.00000000000E+00 0.  1.
     999901    1    1    2    0    0  0.16094428467E-01  0.54361946956E-01  0.69785909231E-02  0.88185200155E+00  0.88000000000E+00 0. -1.
        -11    1    3    3    0    0 -0.64968892940E-03 -0.70046573050E-03  0.39451585069E-01  0.39466459601E-01  0.51100000000E-03 0. -1.
         11    1    3    3    0    0 -0.17269497866E-01 -0.38965018590E-02  0.27956638258E-01  0.33094607219E-01  0.51100000000E-03 0.  1.
</event>
<event>
 8    1  0.1112929E+005  0.1043930E+01  0.7957747E-01            NaN
         13   -1    0    0    0    0  0.00000000000E+00  0.00000000000E+00  0.74505805969E-08  0.10566000000E+00  0.10566000000E+00 0.  1.
     999900   -1    0    0    0    0 -0.00000000000E+00 -0.00000000000E+00 -0.74505805969E-08  0.93827000000E+00  0.93827000000E+00 0. -1.
     999902    2    1    2    0    0  0.16783231228E-04  0.16557252559E-01 -0.17152073836E-01  0.10200901902E+01  0.10198115805E+01 0.  0.
     999903    2    3    3    0    0  0.37202111619E-01 -0.80060735119E-01 -0.94338721289E-01  0.13066590297E+00  0.19495267303E-01 0.  0.
         14    1    1    2    0    0 -0.16783231228E-04 -0.16557252559E-01  0.17152073836E-01  0.23839809790E-01  0.00000000000E+00 0.  1.
     999901    1    3    3    0    0 -0.37185328387E-01  0.96617987678E-01  0.77186647454E-01  0.88942428724E+00  0.88000000000E+00 0. -1.
        -11    1    4    4    0    0  0.31846612871E-01 -0.46234223960E-01 -0.59705610325E-01  0.81956276403E-01  0.51100000000E-03 0. -1.
         11    1    4    4    0    0  0.53554987474E-02 -0.33826511159E-01 -0.34633110964E-01  0.48709626565E-01  0.51100000000E-03 0.  1.
</event>
<event>
 8    1  0.1112929E+005  0.1043930E+01  0.7957747E-01            NaN
         13   -1    0    0    0    0  0.00000000000E+00  0.00000000000E+00  0.74505805969E-08  0.10566000000E+00  0.10566000000E+00 0.  1.
     999900   -1    0    0    0    0 -0.00000000000E+00 -0.00000000000E+00 -0.74505805969E-08  0.93827000000E+00  0.93827000000E+00 0.  1.
     999902    2    1    2    0    0 -0.18360130725E-01  0.57818766082E-02 -0.17904109782E-01  0.10176415682E+01  0.10173019610E+01 0.  0.
     999903    2    3    3    0    0 -0.35935045145E-01 -0.33945993240E-01 -0.11936526309E+00  0.13074724145E+00  0.20077778438E-01 0.  0.
         14    1    1    2    0    0  0.18360130725E-01 -0.57818766082E-02  0.17904109782E-01  0.26288431761E-01  0.00000000000E+00 0.  1.
     999901    1    3    3    0    0  0.17574914420E-01  0.39727869848E-01  0.10146115331E+00  0.88689432679E+00  0.88000000000E+00 0. -1.
        -11    1    4    4    0    0 -0.40643512498E-02 -0.53269430109E-02 -0.39986740577E-01  0.40547451411E-01  0.51100000000E-03 0.  1.
         11    1    4    4    0    0 -0.31870693896E-01 -0.28619050229E-01 -0.79378522516E-01  0.90199790039E-01  0.51100000000E-03 0. -1.
</event>
<event>
 8    1  0.1112929E+005  0.1043930E+01  0.7957747E-01            NaN
         13   -1    0    0    0    0  0.00000000000E+00  0.00000000000E+00  0.74505805969E-08  0.10566000000E+00  0.10566000000E+00 0.  1.
     999900   -1    0    0    0    0 -0.00000000000E+00 -0.00000000000E+00 -0.74505805969E-08  0.93827000000E+00  0.93827000000E+00 0.  1.
     999902    2    1    2    0    0  0.17494936653E-02 -0.24148137158E-01 -0.24953218354E-02  0.10195903228E+01  0.10192997628E+01 0.  0.
     999903    2    3    3    0    0  0.60050708924E-01 -0.10187311693E+00  0.56060967391E-01  0.13230849428E+00  0.19454716605E-01 0.  0.
         14    1    1    2    0    0 -0.17494936653E-02  0.24148137158E-01  0.24953218354E-02  0.24339677224E-01  0.00000000000E+00 0.  1.
     999901    1    3    3    0    0 -0.58301215258E-01  0.77724979768E-01 -0.58556289226E-01  0.88728182850E+00  0.88000000000E+00 0. -1.
        -11    1    4    4    0    0  0.28051753043E-01 -0.64207713098E-01  0.37815425707E-01  0.79622853582E-01  0.51100000000E-03 0.  1.
         11    1    4    4    0    0  0.31998955881E-01 -0.37665403828E-01  0.18245541683E-01  0.52685640694E-01  0.51100000000E-03 0. -1.
</event>
<event>
 8    1  0.1112929E+005  0.1043930E+01  0.7957747E-01            NaN
         13   -1    0    0    0    0  0.00000000000E+00  0.00000000000E+00  0.74505805969E-08  0.10566000000E+00  0.10566000000E+00 0. -1.
     999900   -1    0    0    0    0 -0.00000000000E+00 -0.00000000000E+00 -0.74505805969E-08  0.93827000000E+00  0.93827000000E+00 0. -1.
     999902    2    1    2    0    0  0.78922452673E-02  0.15436975121E-01  0.16587555466E-01  0.10199355270E+01  0.10196532472E+01 0.  0.
     999903    2    3    3    0    0 -0.28904539580E-01  0.10251624007E+00 -0.72637513719E-01  0.13038625087E+00  0.19475988565E-01 0.  0.
         14    1    1    2    0    0 -0.78922452673E-02 -0.15436975121E-01 -0.16587555466E-01  0.23994472959E-01  0.00000000000E+00 0. -1.
     999901    1    3    3    0    0  0.36796784847E-01 -0.87079264952E-01  0.89225069185E-01  0.88954927617E+00  0.88000000000E+00 0.  1.
        -11    1    4    4    0    0 -0.23263775618E-01  0.46954916291E-01 -0.36574295614E-01  0.63905458614E-01  0.51100000000E-03 0.  1.
         11    1    4    4    0    0 -0.56407639614E-02  0.55561323781E-01 -0.36063218105E-01  0.66480792260E-01  0.51100000000E-03 0. -1.
</event>
<event>
 8    1  0.1112929E+005  0.1043930E+01  0.7957747E-01            NaN
         13   -1    0    0    0    0  0.00000000000E+00  0.00000000000E+00  0.74505805969E-08  0.10566000000E+00  0.10566000000E+00 0.  1.
     999900   -1    0    0    0    0 -0.00000000000E+00 -0.00000000000E+00 -0.74505805969E-08  0.93827000000E+00  0.93827000000E+00 0.  1.
     999902    2    1    2    0    0  0.17695979002E-01  0.98684360242E-02 -0.10608351795E-01  0.10210592582E+01  0.10208030848E+01 0.  0.
     999903    2    3    3    0    0  0.12008502544E+00 -0.20381525505E-01 -0.51090978692E-01  0.13368255123E+00  0.20613502442E-01 0.  0.
         14    1    1    2    0    0 -0.17695979002E-01 -0.98684360242E-02  0.10608351795E-01  0.22870741794E-01  0.00000000000E+00 0.  1.
     999901    1    3    3    0    0 -0.10238904644E+00  0.30249961530E-01  0.40482626897E-01  0.88737670698E+00  0.88000000000E+00 0. -1.
        -11    1    4    4    0    0  0.15255018423E-01 -0.95681342170E-02 -0.53110619219E-02  0.18781194829E-01  0.51100000000E-03 0.  1.
         11    1    4    4    0    0  0.10483000702E+00 -0.10813391288E-01 -0.45779916770E-01  0.11490135640E+00  0.51100000000E-03 0. -1.
</event>
<event>
 8    1  0.1112929E+005  0.1043930E+01  0.7957747E-01            NaN
         13   -1    0    0    0    0  0.00000000000E+00  0.00000000000E+00  0.74505805969E-08  0.10566000000E+00  0.10566000000E+00 0.  1.
     999900   -1    0    0    0    0 -0.00000000000E+00 -0.00000000000E+00 -0.74505805969E-08  0.93827000000E+00  0.93827000000E+00 0.  1.
     999902    2    1    2    0    0  0.12914405454E-01 -0.77951669504E-02  0.17862348485E-01  0.10205503082E+01  0.10202824714E+01 0.  0.
     999903    2    3    3    0    0  0.20931320688E-01  0.11207564167E+00  0.62086117396E-01  0.13128711687E+00  0.19558922322E-01 0.  0.
         14    1    1    2    0    0 -0.12914405454E-01  0.77951669504E-02 -0.17862348485E-01  0.23379691816E-01  0.00000000000E+00 0. -1.
     999901    1    3    3    0    0 -0.80169152333E-02 -0.11987080862E+00 -0.44223768911E-01  0.88926319131E+00  0.88000000000E+00 0. -1.
        -11    1    4    4    0    0  0.69572001390E-02  0.38330752336E-01  0.32021098016E-01  0.50430754977E-01  0.51100000000E-03 0. -1.
         11    1    4    4    0    0  0.13974120549E-01  0.73744889329E-01  0.30065019380E-01  0.80856361893E-01  0.51100000000E-03 0.  1.
</event>
<event>
 8    1  0.1112929E+005  0.1043930E+01  0.7957747E-01            NaN
         13   -1    0    0    0    0  0.00000000000E+00  0.00000000000E+00  0.74505805969E-08  0.10566000000E+00  0.10566000000E+00 0.  1.
     999900   -1    0    0    0    0 -0.00000000000E+00 -0.00000000000E+00 -0.74505805969E-08  0.93827000000E+00  0.93827000000E+00 0.  1.
     999902    2    1    2    0    0 -0.21000435894E-01  0.13038591361E-01 -0.14596647906E-01  0.10152231140E+01  0.10148171687E+01 0.  0.
     999903    2    3    3    0    0  0.75405531350E-01  0.93252925742E-01  0.29845902096E-01  0.12522109705E+00  0.20185216307E-01 0.  0.
         14    1    1    2    0    0  0.21000435894E-01 -0.13038591361E-01  0.14596647906E-01  0.28706885978E-01  0.00000000000E+00 0. -1.
     999901    1    3    3    0    0 -0.96405967245E-01 -0.80214334380E-01 -0.44442550002E-01  0.89000201697E+00  0.88000000000E+00 0. -1.
        -11    1    4    4    0    0  0.33523167106E-01  0.37898560266E-01  0.26534261240E-02  0.50669570693E-01  0.51100000000E-03 0.  1.
         11    1    4    4    0    0  0.41882364244E-01  0.55354365476E-01  0.27192475972E-01  0.74551526359E-01  0.51100000000E-03 0. -1.
</event>
<event>
 8    1  0.1112929E+005  0.1043930E+01  0.7957747E-01            NaN
         13   -1    0    0    0    0  0.00000000000E+00  0.00000000000E+00  0.74505805969E-08  0.10566000000E+00  0.10566000000E+00 0. -1.
     999900   -1    0    0    0    0 -0.00000000000E+00 -0.00000000000E+00 -0.74505805969E-08  0.93827000000E+00  0.93827000000E+00 0. -1.
     999902    2    1    2    0    0  0.10010569992E-01  0.31869052100E-02  0.21277830737E-01  0.10201999777E+01  0.10199239582E+01 0.  0.
     999903    2    3    3    0    0 -0.41913773578E-02  0.12927843818E+00  0.51430802040E-03  0.13085645924E+00  0.19815806576E-01 0.  0.
         14    1    1    2    0    0 -0.10010569992E-01 -0.31869052100E-02 -0.21277830737E-01  0.23730022276E-01  0.00000000000E+00 0.  1.
     999901    1    3    3    0    0  0.14201947350E-01 -0.12609153297E+00  0.20763522716E-01  0.88934351848E+00  0.88000000000E+00 0. -1.
        -11    1    4    4    0    0 -0.62835099169E-02  0.40257062132E-01 -0.75623724500E-02  0.41443505479E-01  0.51100000000E-03 0.  1.
         11    1    4    4    0    0  0.20921325591E-02  0.89021376045E-01  0.80766804704E-02  0.89412953760E-01  0.51100000000E-03 0. -1.
</event>
<event>
 7    1  0.1112929E+005  0.1043930E+01  0.7957747E-01            NaN
         13   -1    0    0    0    0  0.00000000000E+00  0.00000000000E+00  0.74505805969E-08  0.10566000000E+00  0.10566000000E+00 0.  1.
     999900   -1    0    0    0    0 -0.00000000000E+00 -0.00000000000E+00 -0.74505805969E-08  0.93827000000E+00  0.93827000000E+00 0.  1.
     999902    2    1    2    0    0  0.21778771225E-01 -0.18082338828E-03 -0.83864866603E-02  0.10205916039E+01  0.10203247234E+01 0.  0.
         14    1    1    2    0    0 -0.21778771225E-01  0.18082338828E-03  0.83864866603E-02  0.23338396082E-01  0.00000000000E+00 0.  1.
     999901    1    3    3    0    0  0.14149902118E+00  0.21148073690E-01 -0.90014673723E-02  0.89159982079E+00  0.88000000000E+00 0. -1.
        -11    1    3    3    0    0 -0.35235702599E-01 -0.23918394207E-01 -0.10151500713E-01  0.43783083569E-01  0.51100000000E-03 0. -1.
         11    1    3    3    0    0 -0.84484547357E-01  0.25894971284E-02  0.10766481425E-01  0.85208699560E-01  0.51100000000E-03 0.  1.
</event>
<event>
 8    1  0.1112929E+005  0.1043930E+01  0.7957747E-01            NaN
         13   -1    0    0    0    0  0.00000000000E+00  0.00000000000E+00  0.74505805969E-08  0.10566000000E+00  0.10566000000E+00 0. -1.
     999900   -1    0    0    0    0 -0.00000000000E+00 -0.00000000000E+00 -0.74505805969E-08  0.93827000000E+00  0.93827000000E+00 0.  1.
     999902    2    1    2    0    0 -0.86994896506E-03  0.16470715735E-01  0.10989799221E-01  0.10241103891E+01  0.10239185867E+01 0.  0.
     999903    2    3    3    0    0  0.84878863502E-01 -0.94269904976E-01  0.33791891163E-01  0.13274274371E+00  0.19685213865E-01 0.  0.
         14    1    1    2    0    0  0.86994896506E-03 -0.16470715735E-01 -0.10989799221E-01  0.19819610868E-01  0.00000000000E+00 0.  1.
     999901    1    3    3    0    0 -0.85748812467E-01  0.11074062071E+00 -0.22802091941E-01  0.89136764543E+00  0.88000000000E+00 0.  1.
        -11    1    4    4    0    0  0.46810537061E-01 -0.60541530207E-01  0.28256009128E-01  0.81579203432E-01  0.51100000000E-03 0. -1.
         11    1    4    4    0    0  0.38068326440E-01 -0.33728374769E-01  0.55358820345E-02  0.51163540275E-01  0.51100000000E-03 0.  1.
</event>
<event>
 8    1  0.1112929E+005  0.1043930E+01  0.7957747E-01            NaN
         13   -1    0    0    0    0  0.00000000000E+00  0.00000000000E+00  0.74505805969E-08  0.10566000000E+00  0.10566000000E+00 0.  1.
     999900   -1    0    0    0    0 -0.00000000000E+00 -0.00000000000E+00 -0.74505805969E-08  0.93827000000E+00  0.93827000000E+00 0.  1.
     999902    2    1    2    0    0  0.41251071990E-02  0.22727038822E-01  0.79588115409E-04  0.10208314906E+01  0.10205701304E+01 0.  0.
     999903    2    3    3    0    0  0.32832975866E-01  0.10378238296E+00  0.74458209069E-01  0.13351740313E+00  0.20834699990E-01 0.  0.
         14    1    1    2    0    0 -0.41251071990E-02 -0.22727038822E-01 -0.79588115409E-04  0.23098509417E-01  0.00000000000E+00 0. -1.
     999901    1    3    3    0    0 -0.28707868667E-01 -0.81055344139E-01 -0.74378620953E-01  0.88731408745E+00  0.88000000000E+00 0. -1.
        -11    1    4    4    0    0  0.24941952012E-01  0.48056034867E-01  0.30862015151E-01  0.62323419013E-01  0.51100000000E-03 0.  1.
         11    1    4    4    0    0  0.78910238539E-02  0.55726348094E-01  0.43596193918E-01  0.71193984117E-01  0.51100000000E-03 0. -1.
</event>
<event>
 8    1  0.1112929E+005  0.1043930E+01  0.7957747E-01            NaN
         13   -1    0    0    0    0  0.00000000000E+00  0.00000000000E+00  0.74505805969E-08  0.10566000000E+00  0.10566000000E+00 0. -1.
     999900   -1    0    0    0    0 -0.00000000000E+00 -0.00000000000E+00 -0.74505805969E-08  0.93827000000E+00  0.93827000000E+00 0. -1.
     999902    2    1    2    0    0 -0.22533563870E-01  0.59187923062E-02 -0.46578977993E-02  0.10201710098E+01  0.10198943081E+01 0.  0.
     999903    2    3    3    0    0 -0.78765807579E-01  0.14062223336E-01 -0.10413891023E+00  0.13274503964E+00  0.19352890072E-01 0.  0.
         14    1    1    2    0    0  0.22533563870E-01 -0.59187923062E-02  0.46578977993E-02  0.23758990192E-01  0.00000000000E+00 0.  1.
     999901    1    3    3    0    0  0.56232243709E-01 -0.81434310300E-02  0.99481012435E-01  0.88742597017E+00  0.88000000000E+00 0.  1.
        -11    1    4    4    0    0 -0.19718955430E-01 -0.37929648291E-02 -0.19366113403E-01  0.27902172940E-01  0.51100000000E-03 0. -1.
         11    1    4    4    0    0 -0.59046852149E-01  0.17855188165E-01 -0.84772796832E-01  0.10484286669E+00  0.51100000000E-03 0.  1.
</event>
<event>
 8    1  0.1112929E+005  0.1043930E+01  0.7957747E-01            NaN
         13   -1    0    0    0    0  0.00000000000E+00  0.00000000000E+00  0.74505805969E-08  0.10566000000E+00  0.10566000000E+00 0.  1.
     999900   -1    0    0    0    0 -0.00000000000E+00 -0.00000000000E+00 -0.74505805969E-08  0.93827000000E+00  0.93827000000E+00 0. -1.
     999902    2    1    2    0    0  0.53952843160E-02 -0.18390169054E-02 -0.20773901185E-01  0.10223882720E+01  0.10221613046E+01 0.  0.
     999903    2    3    3    0    0 -0.11788645605E+00  0.53233808201E-02 -0.58033440014E-01  0.13298512340E+00  0.19789087494E-01 0.  0.
         14    1    1    2    0    0 -0.53952843160E-02  0.18390169054E-02  0.20773901185E-01  0.21541728029E-01  0.00000000000E+00 0.  1.
     999901    1    3    3    0    0  0.12328174036E+00 -0.71623977255E-02  0.37259538828E-01  0.88940314857E+00  0.88000000000E+00 0. -1.
        -11    1    4    4    0    0 -0.74838158044E-01  0.11794657543E-01 -0.41743330000E-01  0.86502199778E-01  0.51100000000E-03 0. -1.
         11    1    4    4    0    0 -0.43048298004E-01 -0.64712767232E-02 -0.16290110014E-01  0.46482923625E-01  0.51100000000E-03 0.  1.
</event>
<event>
 8    1  0.1112929E+005  0.1043930E+01  0.7957747E-01            NaN
         13   -1    0    0    0    0  0.00000000000E+00  0.00000000000E+00  0.74505805969E-08  0.10566000000E+00  0.10566000000E+00 0.  1.
     999900   -1    0    0    0    0 -0.00000000000E+00 -0.00000000000E+00 -0.74505805969E-08  0.93827000000E+00  0.93827000000E+00 0. -1.
     999902    2    1    2    0    0 -0.91680922403E-02 -0.10943965319E-01  0.18977543331E-01  0.10201819171E+01  0.10199054723E+01 0.  0.
     999903    2    3    3    0    0 -0.34662160360E-01 -0.96010721042E-02  0.12675192208E+00  0.13323937801E+00  0.19825139496E-01 0.  0.
         14    1    1    2    0    0  0.91680922403E-02  0.10943965319E-01 -0.18977543331E-01  0.23748082935E-01  0.00000000000E+00 0. -1.
     999901    1    3    3    0    0  0.25494068120E-01 -0.13428932146E-02 -0.10777437875E+00  0.88694253906E+00  0.88000000000E+00 0. -1.
        -11    1    4    4    0    0 -0.34878339209E-01 -0.68674328315E-02  0.96177141481E-01  0.10253762160E+00  0.51100000000E-03 0.  1.
         11    1    4    4    0    0  0.21617884915E-03 -0.27336392727E-02  0.30574780595E-01  0.30701756406E-01  0.51100000000E-03 0. -1.
</event>
<event>
 8    1  0.1112929E+005  0.1043930E+01  0.7957747E-01            NaN
         13   -1    0    0    0    0  0.00000000000E+00  0.00000000000E+00  0.74505805969E-08  0.10566000000E+00  0.10566000000E+00 0. -1.
     999900   -1    0    0    0    0 -0.00000000000E+00 -0.00000000000E+00 -0.74505805969E-08  0.93827000000E+00  0.93827000000E+00 0.  1.
     999902    2    1    2    0    0 -0.22776065557E-01 -0.46051566923E-02  0.74720162998E-02  0.10195212381E+01  0.10192290063E+01 0.  0.
     999903    2    3    3    0    0  0.11061159236E+00 -0.38345478321E-01  0.47406465741E-01  0.12793532701E+00  0.20366021464E-01 0.  0.
         14    1    1    2    0    0  0.22776065557E-01  0.46051566923E-02 -0.74720162998E-02  0.24408761910E-01  0.00000000000E+00 0.  1.
     999901    1    3    3    0    0 -0.13338765792E+00  0.33740321628E-01 -0.39934449441E-01  0.89158591108E+00  0.88000000000E+00 0.  1.
        -11    1    4    4    0    0  0.53776740779E-01 -0.21801711206E-01  0.13006920336E-01  0.59470106423E-01  0.51100000000E-03 0.  1.
         11    1    4    4    0    0  0.56834851582E-01 -0.16543767115E-01  0.34399545405E-01  0.68465220585E-01  0.51100000000E-03 0. -1.
</event>
<event>
 8    1  0.1112929E+005  0.1043930E+01  0.7957747E-01            NaN
         13   -1    0    0    0    0  0.00000000000E+00  0.00000000000E+00  0.74505805969E-08  0.10566000000E+00  0.10566000000E+00 0. -1.
     999900   -1    0    0    0    0 -0.00000000000E+00 -0.00000000000E+00 -0.74505805969E-08  0.93827000000E+00  0.93827000000E+00 0.  1.
     999902    2    1    2    0    0 -0.57106603695E-02  0.20205853815E-01 -0.11248686507E-01  0.10201093972E+01  0.10198312415E+01 0.  0.
     999903    2    3    3    0    0 -0.49072593861E-01 -0.26232239897E-01 -0.11739364271E+00  0.13145676227E+00  0.20083901979E-01 0.  0.
         14    1    1    2    0    0  0.57106603695E-02 -0.20205853815E-01  0.11248686507E-01  0.23820602813E-01  0.00000000000E+00 0. -1.
     999901    1    3    3    0    0  0.43361933492E-01  0.46438093712E-01  0.10614495620E+00  0.88865263492E+00  0.88000000000E+00 0. -1.
        -11    1    4    4    0    0 -0.16101834320E-01 -0.18938054601E-01 -0.41318841206E-01  0.48222678691E-01  0.51100000000E-03 0. -1.
         11    1    4    4    0    0 -0.32970759541E-01 -0.72941852968E-02 -0.76074801503E-01  0.83234083575E-01  0.51100000000E-03 0.  1.
</event>
<event>
 8    1  0.1112929E+005  0.1043930E+01  0.7957747E-01            NaN
         13   -1    0    0    0    0  0.00000000000E+00  0.00000000000E+00  0.74505805969E-08  0.10566000000E+00  0.10566000000E+00 0.  1.
     999900   -1    0    0    0    0 -0.00000000000E+00 -0.00000000000E+00 -0.74505805969E-08  0.93827000000E+00  0.93827000000E+00 0. -1.
     999902    2    1    2    0    0  0.41549761560E-02 -0.17888884767E-01 -0.16799820530E-01  0.10190400423E+01  0.10187360295E+01 0.  0.
     999903    2    3    3    0    0  0.12591931462E+00 -0.11922656192E-01 -0.27644459038E-01  0.13056958347E+00  0.16922661916E-01 0.  0.
         14    1    1    2    0    0 -0.41549761560E-02  0.17888884767E-01  0.16799820530E-01  0.24889957712E-01  0.00000000000E+00 0.  1.
     999901    1    3    3    0    0 -0.12176433847E+00 -0.59662285746E-02  0.10844638508E-01  0.88847045882E+00  0.88000000000E+00 0. -1.
        -11    1    4    4    0    0  0.40679580949E-01 -0.10868219638E-01 -0.13020586470E-01  0.44076561768E-01  0.51100000000E-03 0.  1.
         11    1    4    4    0    0  0.85239733675E-01 -0.10544365539E-02 -0.14623872568E-01  0.86493021703E-01  0.51100000000E-03 0. -1.
</event>
<event>
 7    1  0.1112929E+005  0.1043930E+01  0.7957747E-01            NaN
         13   -1    0    0    0    0  0.00000000000E+00  0.00000000000E+00  0.74505805969E-08  0.10566000000E+00  0.10566000000E+00 0.  1.
     999900   -1    0    0    0    0 -0.00000000000E+00 -0.00000000000E+00 -0.74505805969E-08  0.93827000000E+00  0.93827000000E+00 0.  1.
     999903    2    1    2    0    0 -0.19135068558E-01  0.28382167702E-01  0.10047998648E+00  0.10901462473E+00  0.24824633549E-01 0.  0.
         14    1    1    2    0    0  0.27885030909E-01 -0.12578978096E-01 -0.43111834987E-01  0.52862424790E-01  0.00000000000E+00 0. -1.
     999901    1    1    2    0    0 -0.87499623508E-02 -0.15803189606E-01 -0.57368151489E-01  0.88205295048E+00  0.88000000000E+00 0.  1.
        -11    1    3    3    0    0  0.19193960028E-02  0.19159861316E-01  0.43754807224E-01  0.47807202835E-01  0.51100000000E-03 0. -1.
         11    1    3    3    0    0 -0.21054464561E-01  0.92223063853E-02  0.56725179252E-01  0.61207421897E-01  0.51100000000E-03 0.  1.
</event>
<event>
 8    1  0.1112929E+005  0.1043930E+01  0.7957747E-01            NaN
         13   -1    0    0    0    0  0.00000000000E+00  0.00000000000E+00  0.74505805969E-08  0.10566000000E+00  0.10566000000E+00 0.  1.
     999900   -1    0    0    0    0 -0.00000000000E+00 -0.00000000000E+00 -0.74505805969E-08  0.93827000000E+00  0.93827000000E+00 0. -1.
     999902    2    1    2    0    0  0.12516164613E-01 -0.10288809910E-01  0.57944796178E-02  0.10267227347E+01  0.10265785328E+01 0.  0.
     999903    2    3    3    0    0 -0.63092990327E-02  0.18203137135E-01  0.13391290482E+00  0.13678986080E+00  0.20190059015E-01 0.  0.
         14    1    1    2    0    0 -0.12516164613E-01  0.10288809910E-01 -0.57944796178E-02  0.17207265326E-01  0.00000000000E+00 0. -1.
     999901    1    3    3    0    0  0.18825463645E-01 -0.28491947045E-01 -0.12811842521E+00  0.88993287388E+00  0.88000000000E+00 0. -1.
        -11    1    4    4    0    0 -0.39718173692E-02  0.18629460214E-01  0.62607417911E-01  0.65442967687E-01  0.51100000000E-03 0. -1.
         11    1    4    4    0    0 -0.23374816636E-02 -0.42632307908E-03  0.71305486912E-01  0.71346893111E-01  0.51100000000E-03 0.  1.
</event>
<event>
 8    1  0.1112929E+005  0.1043930E+01  0.7957747E-01            NaN
         13   -1    0    0    0    0  0.00000000000E+00  0.00000000000E+00  0.74505805969E-08  0.10566000000E+00  0.10566000000E+00 0. -1.
     999900   -1    0    0    0    0 -0.00000000000E+00 -0.00000000000E+00 -0.74505805969E-08  0.93827000000E+00  0.93827000000E+00 0. -1.
     999902    2    1    2    0    0 -0.43956243555E-02 -0.58145970655E-02 -0.25499525003E-01  0.10174091247E+01  0.10170634052E+01 0.  0.
     999903    2    3    3    0    0  0.12166246226E-01  0.11875484865E+00 -0.45189086600E-01  0.12826373657E+00  0.12601624693E-01 0.  0.
         14    1    1    2    0    0  0.43956243555E-02  0.58145970655E-02  0.25499525003E-01  0.26520875323E-01  0.00000000000E+00 0. -1.
     999901    1    3    3    0    0 -0.16561870582E-01 -0.12456944572E+00  0.19689561597E-01  0.88914538811E+00  0.88000000000E+00 0. -1.
        -11    1    4    4    0    0  0.49133767725E-02  0.67036851780E-01 -0.31727365089E-01  0.74330125686E-01  0.51100000000E-03 0. -1.
         11    1    4    4    0    0  0.72528694539E-02  0.51717996870E-01 -0.13461721511E-01  0.53933610880E-01  0.51100000000E-03 0.  1.
</event>
<event>
 8    1  0.1112929E+005  0.1043930E+01  0.7957747E-01            NaN
         13   -1    0    0    0    0  0.00000000000E+00  0.00000000000E+00  0.74505805969E-08  0.10566000000E+00  0.10566000000E+00 0. -1.
     999900   -1    0    0    0    0 -0.00000000000E+00 -0.00000000000E+00 -0.74505805969E-08  0.93827000000E+00  0.93827000000E+00 0.  1.
     999902    2    1    2    0    0  0.17794696196E-01  0.13693020347E-02 -0.15972139354E-01  0.10199793124E+01  0.10196980741E+01 0.  0.
     999903    2    3    3    0    0  0.66637757932E-01 -0.69843517275E-02 -0.11342089270E+00  0.13321458163E+00  0.19810449431E-01 0.  0.
         14    1    1    2    0    0 -0.17794696196E-01 -0.13693020347E-02  0.15972139354E-01  0.23950687596E-01  0.00000000000E+00 0. -1.
     999901    1    3    3    0    0 -0.48843061736E-01  0.83536537623E-02  0.97448753350E-01  0.88676473077E+00  0.88000000000E+00 0. -1.
        -11    1    4    4    0    0  0.49404660576E-01  0.37619947055E-02 -0.79780876527E-01  0.93916039478E-01  0.51100000000E-03 0. -1.
         11    1    4    4    0    0  0.17233097356E-01 -0.10746346433E-01 -0.33640016176E-01  0.39298542155E-01  0.51100000000E-03 0.  1.
</event>
<event>
 7    1  0.1518552E+005  0.1043930E+01  0.7957747E-01            NaN
         13   -1    0    0    0    0  0.00000000000E+00  0.00000000000E+00  0.74505805969E-08  0.10566000000E+00  0.10566000000E+00 0.  1.
     999900   -1    0    0    0    0 -0.00000000000E+00 -0.00000000000E+00 -0.74505805969E-08  0.93827000000E+00  0.93827000000E+00 0.  1.
     999903    2    1    2    0    0  0.84912686487E-02  0.77860354823E-02 -0.10602496509E+00  0.10836598257E+00  0.19213770188E-01 0.  0.
         14    1    1    2    0    0  0.22776164457E-01 -0.31567594315E-01 -0.23114329919E-01  0.45271833691E-01  0.00000000000E+00 0. -1.
     999901    1    1    2    0    0 -0.31267433106E-01  0.23781558833E-01  0.12913929500E+00  0.89029218374E+00  0.88000000000E+00 0. -1.
        -11    1    3    3    0    0 -0.15305933770E-02 -0.48273411927E-02 -0.43504930790E-01  0.43801667355E-01  0.51100000000E-03 0.  1.
         11    1    3    3    0    0  0.10021862026E-01  0.12613376675E-01 -0.62520034296E-01  0.64564315214E-01  0.51100000000E-03 0. -1.
</event>
<event>
 8    1  0.1112929E+005  0.1043930E+01  0.7957747E-01            NaN
         13   -1    0    0    0    0  0.00000000000E+00  0.00000000000E+00  0.74505805969E-08  0.10566000000E+00  0.10566000000E+00 0. -1.
     999900   -1    0    0    0    0 -0.00000000000E+00 -0.00000000000E+00 -0.74505805969E-08  0.93827000000E+00  0.93827000000E+00 0. -1.
     999902    2    1    2    0    0 -0.19864063715E-01  0.78686550777E-02  0.96832074490E-02  0.10204723516E+01  0.10202027050E+01 0.  0.
     999903    2    3    3    0    0  0.89595260675E-01  0.56496689058E-01  0.72904784218E-01  0.13011119056E+00  0.19865239447E-01 0.  0.
         14    1    1    2    0    0  0.19864063715E-01 -0.78686550777E-02 -0.96832074490E-02  0.23457648358E-01  0.00000000000E+00 0.  1.
     999901    1    3    3    0    0 -0.10945932439E+00 -0.48628033981E-01 -0.63221576769E-01  0.89036116108E+00  0.88000000000E+00 0. -1.
        -11    1    4    4    0    0  0.78355568959E-01  0.53487931647E-01  0.70549461642E-01  0.11822876840E+00  0.51100000000E-03 0.  1.
         11    1    4    4    0    0  0.11239691716E-01  0.30087574116E-02  0.23553225764E-02  0.11882422163E-01  0.51100000000E-03 0. -1.
</event>
<event>
 8    1  0.1112929E+005  0.1043930E+01  0.7957747E-01            NaN
         13   -1    0    0    0    0  0.00000000000E+00  0.00000000000E+00  0.74505805969E-08  0.10566000000E+00  0.10566000000E+00 0.  1.
     999900   -1    0    0    0    0 -0.00000000000E+00 -0.00000000000E+00 -0.74505805969E-08  0.93827000000E+00  0.93827000000E+00 0. -1.
     999902    2    1    2    0    0 -0.20251446259E-01 -0.10468764426E-01 -0.53142772445E-02  0.10205215048E+01  0.10202530001E+01 0.  0.
     999903    2    3    3    0    0 -0.10916360622E+00 -0.73854663583E-01 -0.10904710453E-01  0.13375524624E+00  0.20008721360E-01 0.  0.
         14    1    1    2    0    0  0.20251446259E-01  0.10468764426E-01  0.53142772445E-02  0.23408495185E-01  0.00000000000E+00 0.  1.
     999901    1    3    3    0    0  0.88912159964E-01  0.63385899157E-01  0.55904332084E-02  0.88676625857E+00  0.88000000000E+00 0. -1.
        -11    1    4    4    0    0 -0.37684596934E-01 -0.36209901837E-01 -0.22418030121E-03  0.52264684204E-01  0.51100000000E-03 0. -1.
         11    1    4    4    0    0 -0.71479009289E-01 -0.37644761746E-01 -0.10680530152E-01  0.81490562038E-01  0.51100000000E-03 0.  1.
</event>
<event>
 8    1  0.1112929E+005  0.1043930E+01  0.7957747E-01            NaN
         13   -1    0    0    0    0  0.00000000000E+00  0.00000000000E+00  0.74505805969E-08  0.10566000000E+00  0.10566000000E+00 0.  1.
     999900   -1    0    0    0    0 -0.00000000000E+00 -0.00000000000E+00 -0.74505805969E-08  0.93827000000E+00  0.93827000000E+00 0.  1.
     999902    2    1    2    0    0 -0.12760645142E-01 -0.85574088571E-02  0.19879576124E-01  0.10188050949E+01  0.10184952432E+01 0.  0.
     999903    2    3    3    0    0 -0.36029522165E-02 -0.53395088465E-01  0.11905854381E+00  0.13205217073E+00  0.19970533351E-01 0.  0.
         14    1    1    2    0    0  0.12760645142E-01  0.85574088571E-02 -0.19879576124E-01  0.25124905127E-01  0.00000000000E+00 0. -1.
     999901    1    3    3    0    0 -0.91576929255E-02  0.44837679608E-01 -0.99178967686E-01  0.88675292415E+00  0.88000000000E+00 0.  1.
        -11    1    4    4    0    0 -0.22710118545E-02 -0.17981005973E-02  0.21312478198E-01  0.21514495312E-01  0.51100000000E-03 0.  1.
         11    1    4    4    0    0 -0.13319403620E-02 -0.51596987868E-01  0.97746065612E-01  0.11053767541E+00  0.51100000000E-03 0. -1.
</event>
<event>
 8    1  0.1112929E+005  0.1043930E+01  0.7957747E-01            NaN
         13   -1    0    0    0    0  0.00000000000E+00  0.00000000000E+00  0.74505805969E-08  0.10566000000E+00  0.10566000000E+00 0.  1.
     999900   -1    0    0    0    0 -0.00000000000E+00 -0.00000000000E+00 -0.74505805969E-08  0.93827000000E+00  0.93827000000E+00 0. -1.
     999902    2    1    2    0    0 -0.15916059513E-01 -0.72725881505E-02  0.14947550380E-01  0.10209160748E+01  0.10206566470E+01 0.  0.
     999903    2    3    3    0    0  0.97749520323E-01 -0.56301408240E-01  0.64069736287E-01  0.13089546924E+00  0.17432024200E-01 0.  0.
         14    1    1    2    0    0  0.15916059513E-01  0.72725881505E-02 -0.14947550380E-01  0.23013925158E-01  0.00000000000E+00 0. -1.
     999901    1    3    3    0    0 -0.11366557984E+00  0.49028820089E-01 -0.49122185907E-01  0.89002060560E+00  0.88000000000E+00 0. -1.
        -11    1    4    4    0    0  0.30470529708E-01 -0.25005455220E-01  0.16378834328E-01  0.42687859005E-01  0.51100000000E-03 0. -1.
         11    1    4    4    0    0  0.67278990615E-01 -0.31295953020E-01  0.47690901959E-01  0.88207610240E-01  0.51100000000E-03 0.  1.
</event>
<event>
 8    1  0.1112929E+005  0.1043930E+01  0.7957747E-01            NaN
         13   -1    0    0    0    0  0.00000000000E+00  0.00000000000E+00  0.74505805969E-08  0.10566000000E+00  0.10566000000E+00 0.  1.
     999900   -1    0    0    0    0 -0.00000000000E+00 -0.00000000000E+00 -0.74505805969E-08  0.93827000000E+00  0.93827000000E+00 0.  1.
     999902    2    1    2    0    0  0.82989286295E-02  0.13274741370E-03 -0.19681521096E-01  0.10225699412E+01  0.10223468260E+01 0.  0.
     999903    2    3    3    0    0  0.87699065146E-01 -0.94514932136E-01 -0.30051172145E-01  0.13387984080E+00  0.19913322224E-01 0.  0.
         14    1    1    2    0    0 -0.82989286295E-02 -0.13274741370E-03  0.19681521096E-01  0.21360058776E-01  0.00000000000E+00 0.  1.
     999901    1    3    3    0    0 -0.79400136516E-01  0.94647679550E-01  0.10369651048E-01  0.88869010042E+00  0.88000000000E+00 0.  1.
        -11    1    4    4    0    0  0.60459722982E-01 -0.59688087988E-01 -0.28577979228E-01  0.89638205964E-01  0.51100000000E-03 0.  1.
         11    1    4    4    0    0  0.27239342164E-01 -0.34826844148E-01 -0.14731929171E-02  0.44241634839E-01  0.51100000000E-03 0. -1.
</event>
<event>
 8    1  0.1112929E+005  0.1043930E+01  0.7957747E-01            NaN
         13   -1    0    0    0    0  0.00000000000E+00  0.00000000000E+00  0.74505805969E-08  0.10566000000E+00  0.10566000000E+00 0. -1.
     999900   -1    0    0    0    0 -0.00000000000E+00 -0.00000000000E+00 -0.74505805969E-08  0.93827000000E+00  0.93827000000E+00 0. -1.
     999902    2    1    2    0    0 -0.63394283116E-02 -0.21245374046E-01  0.11063733739E-01  0.10191517742E+01  0.10188505182E+01 0.  0.
     999903    2    3    3    0    0 -0.89512456928E-01 -0.40501433880E-01 -0.82815087348E-01  0.13005010308E+00  0.20046060160E-01 0.  0.
         14    1    1    2    0    0  0.63394283116E-02  0.21245374046E-01 -0.11063733739E-01  0.24778225803E-01  0.00000000000E+00 0.  1.
     999901    1    3    3    0    0  0.83173028616E-01  0.19256059834E-01  0.93878821087E-01  0.88910167111E+00  0.88000000000E+00 0.  1.
        -11    1    4    4    0    0 -0.43749212311E-02  0.13004595530E-02 -0.80905887148E-02  0.93032186677E-02  0.51100000000E-03 0.  1.
         11    1    4    4    0    0 -0.85137535696E-01 -0.41801893433E-01 -0.74724498633E-01  0.12074688442E+00  0.51100000000E-03 0. -1.
</event>
<event>
 8    1  0.1112929E+005  0.1043930E+01  0.7957747E-01            NaN
         13   -1    0    0    0    0  0.00000000000E+00  0.00000000000E+00  0.74505805969E-08  0.10566000000E+00  0.10566000000E+00 0.  1.
     999900   -1    0    0    0    0 -0.00000000000E+00 -0.00000000000E+00 -0.74505805969E-08  0.93827000000E+00  0.93827000000E+00 0. -1.
     999902    2    1    2    0    0  0.55532715395E-02  0.13930874499E-01  0.18293066020E-01  0.10202753101E+01  0.10200010608E+01 0.  0.
     999903    2    3    3    0    0  0.40202627828E-02 -0.61490364792E-01  0.11602981151E+00  0.13165661525E+00  0.85626925908E-02 0.  0.
         14    1    1    2    0    0 -0.55532715395E-02 -0.13930874499E-01 -0.18293066020E-01  0.23654689884E-01  0.00000000000E+00 0. -1.
     999901    1    3    3    0    0  0.15330087567E-02  0.75421239290E-01 -0.97736745490E-01  0.88861869487E+00  0.88000000000E+00 0. -1.
        -11    1    4    4    0    0 -0.38676195082E-03 -0.48159014831E-01  0.89982140218E-01  0.10206119230E+00  0.51100000000E-03 0. -1.
         11    1    4    4    0    0  0.44070247336E-02 -0.13331349961E-01  0.26047671291E-01  0.29595422948E-01  0.51100000000E-03 0.  1.
</event>
<event>
 8    1  0.1112929E+005  0.1043930E+01  0.7957747E-01            NaN
         13   -1    0    0    0    0  0.00000000000E+00  0.00000000000E+00  0.74505805969E-08  0.10566000000E+00  0.10566000000E+00 0.  1.
     999900   -1    0    0    0    0 -0.00000000000E+00 -0.00000000000E+00 -0.74505805969E-08  0.93827000000E+00  0.93827000000E+00 0. -1.
     999902    2    1    2    0    0  0.61593068384E-02 -0.15096233821E-01 -0.19153421728E-01  0.10187767318E+01  0.10184661715E+01 0.  0.
     999903    2    3    3    0    0  0.23551646382E-01  0.11538150434E+00 -0.47458087737E-01  0.12853626557E+00  0.20043200417E-01 0.  0.
         14    1    1    2    0    0 -0.61593068384E-02  0.15096233821E-01  0.19153421728E-01  0.25153268181E-01  0.00000000000E+00 0.  1.
     999901    1    3    3    0    0 -0.17392339543E-01 -0.13047773816E+00  0.28304666009E-01  0.89024046625E+00  0.88000000000E+00 0.  1.
        -11    1    4    4    0    0  0.97160531426E-05  0.25237370087E-03 -0.27466162743E-02  0.28051397193E-02  0.51100000000E-03 0.  1.
         11    1    4    4    0    0  0.23541930328E-01  0.11512913064E+00 -0.44711471463E-01  0.12573112585E+00  0.51100000000E-03 0. -1.
</event>
<event>
 8    1  0.1112929E+005  0.1043930E+01  0.7957747E-01            NaN
         13   -1    0    0    0    0  0.00000000000E+00  0.00000000000E+00  0.74505805969E-08  0.10566000000E+00  0.10566000000E+00 0.  1.
     999900   -1    0    0    0    0 -0.00000000000E+00 -0.00000000000E+00 -0.74505805969E-08  0.93827000000E+00  0.93827000000E+00 0. -1.
     999902    2    1    2    0    0 -0.77144493346E-02 -0.12884073006E-01 -0.17780814270E-01  0.10206562074E+01  0.10203908194E+01 0.  0.
     999903    2    3    3    0    0  0.10713305653E+00  0.14599039910E-01  0.66643943983E-01  0.12876338262E+00  0.21165293912E-01 0.  0.
         14    1    1    2    0    0  0.77144493346E-02  0.12884073006E-01  0.17780814270E-01  0.23273792598E-01  0.00000000000E+00 0.  1.
     999901    1    3    3    0    0 -0.11484750586E+00 -0.27483112916E-01 -0.84424758253E-01  0.89189282479E+00  0.88000000000E+00 0.  1.
        -11    1    4    4    0    0  0.53668081368E-01  0.10933665234E-01  0.22053204312E-01  0.59045854508E-01  0.51100000000E-03 0.  1.
         11    1    4    4    0    0  0.53464975158E-01  0.36653746765E-02  0.44590739671E-01  0.69717528108E-01  0.51100000000E-03 0. -1.
</event>
<event>
 8    1  0.1112929E+005  0.1043930E+01  0.7957747E-01            NaN
         13   -1    0    0    0    0  0.00000000000E+00  0.00000000000E+00  0.74505805969E-08  0.10566000000E+00  0.10566000000E+00 0.  1.
     999900   -1    0    0    0    0 -0.00000000000E+00 -0.00000000000E+00 -0.74505805969E-08  0.93827000000E+00  0.93827000000E+00 0.  1.
     999902    2    1    2    0    0  0.74737786287E-02 -0.23132690533E-01  0.50350304031E-02  0.10191040001E+01  0.10188015669E+01 0.  0.
     999903    2    3    3    0    0 -0.11660944976E+00  0.24442567535E-01  0.43077373748E-01  0.12831374837E+00  0.20336052020E-01 0.  0.
         14    1    1    2    0    0 -0.74737786287E-02  0.23132690533E-01 -0.50350304031E-02  0.24825999868E-01  0.00000000000E+00 0. -1.
     999901    1    3    3    0    0  0.12408322838E+00 -0.47575258068E-01 -0.38042343344E-01  0.89079025176E+00  0.88000000000E+00 0.  1.
        -11    1    4    4    0    0 -0.77387401873E-01  0.12786276916E-01  0.37744216908E-01  0.87047032557E-01  0.51100000000E-03 0. -1.
         11    1    4    4    0    0 -0.39222047883E-01  0.11656290619E-01  0.53331568398E-02  0.41266715813E-01  0.51100000000E-03 0.  1.
</event>
<event>
 8    1  0.1112929E+005  0.1043930E+01  0.7957747E-01            NaN
         13   -1    0    0    0    0  0.00000000000E+00  0.00000000000E+00  0.74505805969E-08  0.10566000000E+00  0.10566000000E+00 0. -1.
     999900   -1    0    0    0    0 -0.00000000000E+00 -0.00000000000E+00 -0.74505805969E-08  0.93827000000E+00  0.93827000000E+00 0. -1.
     999902    2    1    2    0    0  0.16427231600E-02 -0.22179065821E-01 -0.54534729030E-02  0.10210313130E+01  0.10207745061E+01 0.  0.
     999903    2    3    3    0    0  0.38527302603E-01 -0.41284165786E-01  0.11703493134E+00  0.13157704985E+00  0.20654527388E-01 0.  0.
         14    1    1    2    0    0 -0.16427231600E-02  0.22179065821E-01  0.54534729030E-02  0.22898687010E-01  0.00000000000E+00 0. -1.
     999901    1    3    3    0    0 -0.36884579443E-01  0.19105099965E-01 -0.12248840425E+00  0.88945426314E+00  0.88000000000E+00 0. -1.
        -11    1    4    4    0    0  0.31429629418E-01 -0.37419787952E-01  0.80645271471E-01  0.94297312090E-01  0.51100000000E-03 0. -1.
         11    1    4    4    0    0  0.70976731853E-02 -0.38643778339E-02  0.36389659872E-01  0.37279737758E-01  0.51100000000E-03 0.  1.
</event>
<event>
 8    1  0.1112929E+005  0.1043930E+01  0.7957747E-01            NaN
         13   -1    0    0    0    0  0.00000000000E+00  0.00000000000E+00  0.74505805969E-08  0.10566000000E+00  0.10566000000E+00 0. -1.
     999900   -1    0    0    0    0 -0.00000000000E+00 -0.00000000000E+00 -0.74505805969E-08  0.93827000000E+00  0.93827000000E+00 0.  1.
     999902    2    1    2    0    0 -0.14547913036E-01 -0.37435167638E-02  0.18679001863E-01  0.10199600020E+01  0.10196783046E+01 0.  0.
     999903    2    3    3    0    0 -0.10238339311E-03  0.34467578739E-01  0.12638761290E+00  0.13245230853E+00  0.19538701949E-01 0.  0.
         14    1    1    2    0    0  0.14547913036E-01  0.37435167638E-02 -0.18679001863E-01  0.23969997956E-01  0.00000000000E+00 0.  1.
     999901    1    3    3    0    0 -0.14445529642E-01 -0.38211095503E-01 -0.10770861104E+00  0.88750769351E+00  0.88000000000E+00 0.  1.
        -11    1    4    4    0    0  0.90319595556E-02  0.14615085142E-01  0.66997280851E-01  0.69166999137E-01  0.51100000000E-03 0. -1.
         11    1    4    4    0    0 -0.91343429487E-02  0.19852493597E-01  0.59390332053E-01  0.63285309397E-01  0.51100000000E-03 0.  1.
</event>
<event>
 8    1  0.1112929E+005  0.1043930E+01  0.7957747E-01            NaN
         13   -1    0    0    0    0  0.00000000000E+00  0.00000000000E+00  0.74505805969E-08  0.10566000000E+00  0.10566000000E+00 0.  1.
     999900   -1    0    0    0    0 -0.00000000000E+00 -0.00000000000E+00 -0.74505805969E-08  0.93827000000E+00  0.93827000000E+00 0.  1.
     999902    2    1    2    0    0  0.12109099476E-01  0.10372217367E-01 -0.17479403567E-01  0.10202711173E+01  0.10199967696E+01 0.  0.
     999903    2    3    3    0    0 -0.97895557325E-01  0.78632380863E-01 -0.30434115768E-01  0.13070476279E+00  0.19771397276E-01 0.  0.
         14    1    1    2    0    0 -0.12109099476E-01 -0.10372217367E-01  0.17479403567E-01  0.23658882735E-01  0.00000000000E+00 0.  1.
     999901    1    3    3    0    0  0.11000465680E+00 -0.68260163496E-01  0.12954712201E-01  0.88956635447E+00  0.88000000000E+00 0. -1.
        -11    1    4    4    0    0 -0.12463401963E-01  0.19725165579E-01 -0.56549746520E-02  0.24013712852E-01  0.51100000000E-03 0.  1.
         11    1    4    4    0    0 -0.85432155362E-01  0.58907215284E-01 -0.24779141116E-01  0.10669104994E+00  0.51100000000E-03 0. -1.
</event>
<event>
 8    1  0.1112929E+005  0.1043930E+01  0.7957747E-01            NaN
         13   -1    0    0    0    0  0.00000000000E+00  0.00000000000E+00  0.74505805969E-08  0.10566000000E+00  0.10566000000E+00 0.  1.
     999900   -1    0    0    0    0 -0.00000000000E+00 -0.00000000000E+00 -0.74505805969E-08  0.93827000000E+00  0.93827000000E+00 0. -1.
     999902    2    1    2    0    0 -0.21285586213E-01 -0.41168559211E-02  0.96946275057E-02  0.10201810951E+01  0.10199046310E+01 0.  0.
     999903    2    3    3    0    0 -0.10478410638E+00  0.55591610739E-01 -0.54015108882E-01  0.13192660767E+00  0.20417191031E-01 0.  0.
         14    1    1    2    0    0  0.21285586213E-01  0.41168559211E-02 -0.96946275057E-02  0.23748904934E-01  0.00000000000E+00 0.  1.
     999901    1    3    3    0    0  0.83498520171E-01 -0.59708466660E-01  0.63709736387E-01  0.88825448739E+00  0.88000000000E+00 0.  1.
        -11    1    4    4    0    0 -0.85937559804E-01  0.52292920079E-01 -0.50127475992E-01  0.11239590137E+00  0.51100000000E-03 0.  1.
         11    1    4    4    0    0 -0.18846546580E-01  0.32986906600E-02 -0.38876328894E-02  0.19530706300E-01  0.51100000000E-03 0. -1.
</event>
<event>
 8    1  0.1112929E+005  0.1043930E+01  0.7957747E-01            NaN
         13   -1    0    0    0    0  0.00000000000E+00  0.00000000000E+00  0.74505805969E-08  0.10566000000E+00  0.10566000000E+00 0.  1.
     999900   -1    0    0    0    0 -0.00000000000E+00 -0.00000000000E+00 -0.74505805969E-08  0.93827000000E+00  0.93827000000E+00 0.  1.
     999902    2    1    2    0    0 -0.21727376937E-01 -0.52872436513E-02 -0.92633067101E-02  0.10197258122E+01  0.10194385168E+01 0.  0.
     999903    2    3    3    0    0 -0.55029422734E-02  0.11546104218E+00 -0.55449290329E-01  0.13013235122E+00  0.22321971268E-01 0.  0.
         14    1    1    2    0    0  0.21727376937E-01  0.52872436513E-02  0.92633067101E-02  0.24204187761E-01  0.00000000000E+00 0.  1.
     999901    1    3    3    0    0 -0.16224434663E-01 -0.12074828583E+00  0.46185983619E-01  0.88959346102E+00  0.88000000000E+00 0.  1.
        -11    1    4    4    0    0  0.78536208958E-02  0.45956574124E-01 -0.17330845520E-01  0.49742390310E-01  0.51100000000E-03 0. -1.
         11    1    4    4    0    0 -0.13356563169E-01  0.69504468052E-01 -0.38118444809E-01  0.80389960906E-01  0.51100000000E-03 0.  1.
</event>
<event>
 8    1  0.1112929E+005  0.1043930E+01  0.7957747E-01            NaN
         13   -1    0    0    0    0  0.00000000000E+00  0.00000000000E+00  0.74505805969E-08  0.10566000000E+00  0.10566000000E+00 0. -1.
     999900   -1    0    0    0    0 -0.00000000000E+00 -0.00000000000E+00 -0.74505805969E-08  0.93827000000E+00  0.93827000000E+00 0.  1.
     999902    2    1    2    0    0 -0.67733183939E-03 -0.46119540895E-02  0.21986104015E-01  0.10214551770E+01  0.10212078931E+01 0.  0.
     999903    2    3    3    0    0  0.10952903758E-01  0.10980442712E+00  0.70140910086E-01  0.13266653170E+00  0.22442884206E-01 0.  0.
         14    1    1    2    0    0  0.67733183939E-03  0.46119540895E-02 -0.21986104015E-01  0.22474822996E-01  0.00000000000E+00 0.  1.
     999901    1    3    3    0    0 -0.11630235598E-01 -0.11441638121E+00 -0.48154806072E-01  0.88878864530E+00  0.88000000000E+00 0.  1.
        -11    1    4    4    0    0  0.17423132278E-01  0.90630545428E-01  0.59346407549E-01  0.10972565112E+00  0.51100000000E-03 0. -1.
         11    1    4    4    0    0 -0.64702285194E-02  0.19173881688E-01  0.10794502537E-01  0.22940880586E-01  0.51100000000E-03 0.  1.
</event>
<event>
 8    1  0.1112929E+005  0.1043930E+01  0.7957747E-01            NaN
         13   -1    0    0    0    0  0.00000000000E+00  0.00000000000E+00  0.74505805969E-08  0.10566000000E+00  0.10566000000E+00 0.  1.
     999900   -1    0    0    0    0 -0.00000000000E+00 -0.00000000000E+00 -0.74505805969E-08  0.93827000000E+00  0.93827000000E+00 0.  1.
     999902    2    1    2    0    0  0.13965340218E-01  0.20369321341E-01  0.26417367109E-02  0.10190921508E+01  0.10187894253E+01 0.  0.
     999903    2    3    3    0    0  0.10482138187E+00  0.52958730667E-01  0.56957747571E-01  0.13214958281E+00  0.20668284342E-01 0.  0.
         14    1    1    2    0    0 -0.13965340218E-01 -0.20369321341E-01 -0.26417367109E-02  0.24837849185E-01  0.00000000000E+00 0.  1.
     999901    1    3    3    0    0 -0.90856041651E-01 -0.32589409326E-01 -0.54316010860E-01  0.88694256801E+00  0.88000000000E+00 0.  1.
        -11    1    4    4    0    0  0.49147684332E-01  0.35058885863E-01  0.34262728680E-01  0.69417692635E-01  0.51100000000E-03 0.  1.
         11    1    4    4    0    0  0.55673697537E-01  0.17899844804E-01  0.22695018891E-01  0.62731890175E-01  0.51100000000E-03 0. -1.
</event>
<event>
 8    1  0.1112929E+005  0.1043930E+01  0.7957747E-01            NaN
         13   -1    0    0    0    0  0.00000000000E+00  0.00000000000E+00  0.74505805969E-08  0.10566000000E+00  0.10566000000E+00 0.  1.
     999900   -1    0    0    0    0 -0.00000000000E+00 -0.00000000000E+00 -0.74505805969E-08  0.93827000000E+00  0.93827000000E+00 0.  1.
     999902    2    1    2    0    0 -0.91190486123E-02 -0.22274104078E-01  0.13865924551E-01  0.10161530919E+01  0.10157733751E+01 0.  0.
     999903    2    3    3    0    0  0.35002338581E-01  0.83688751149E-01  0.84903634367E-01  0.12586034245E+00  0.20080535325E-01 0.  0.
         14    1    1    2    0    0  0.91190486123E-02  0.22274104078E-01 -0.13865924551E-01  0.27776908103E-01  0.00000000000E+00 0. -1.
     999901    1    3    3    0    0 -0.44121387193E-01 -0.10596285523E+00 -0.71037709815E-01  0.89029274944E+00  0.88000000000E+00 0.  1.
        -11    1    4    4    0    0  0.30524680094E-01  0.47819766348E-01  0.53266777194E-01  0.77820927918E-01  0.51100000000E-03 0. -1.
         11    1    4    4    0    0  0.44776584870E-02  0.35868984801E-01  0.31636857173E-01  0.48039414536E-01  0.51100000000E-03 0.  1.
</event>
<event>
 8    1  0.1112929E+005  0.1043930E+01  0.7957747E-01            NaN
         13   -1    0    0    0    0  0.00000000000E+00  0.00000000000E+00  0.74505805969E-08  0.10566000000E+00  0.10566000000E+00 0. -1.
     999900   -1    0    0    0    0 -0.00000000000E+00 -0.00000000000E+00 -0.74505805969E-08  0.93827000000E+00  0.93827000000E+00 0.  1.
     999902    2    1    2    0    0  0.23096356469E-01 -0.15130250959E-01  0.67257244164E-02  0.10155116689E+01  0.10151139582E+01 0.  0.
     999903    2    3    3    0    0 -0.28947204923E-01 -0.88572914876E-01  0.84067993392E-01  0.12754534982E+00  0.22743940414E-01 0.  0.
         14    1    1    2    0    0 -0.23096356469E-01  0.15130250959E-01 -0.67257244164E-02  0.28418331146E-01  0.00000000000E+00 0.  1.
     999901    1    3    3    0    0  0.52043561391E-01  0.73442663918E-01 -0.77342268976E-01  0.88796631903E+00  0.88000000000E+00 0.  1.
        -11    1    4    4    0    0 -0.13614404741E-01 -0.64778174581E-01  0.48376490178E-01  0.81988473833E-01  0.51100000000E-03 0.  1.
         11    1    4    4    0    0 -0.15332800181E-01 -0.23794740295E-01  0.35691503215E-01  0.45556875988E-01  0.51100000000E-03 0. -1.
</event>
<event>
 8    1  0.1112929E+005  0.1043930E+01  0.7957747E-01            NaN
         13   -1    0    0    0    0  0.00000000000E+00  0.00000000000E+00  0.74505805969E-08  0.10566000000E+00  0.10566000000E+00 0. -1.
     999900   -1    0    0    0    0 -0.00000000000E+00 -0.00000000000E+00 -0.74505805969E-08  0.93827000000E+00  0.93827000000E+00 0.  1.
     999902    2    1    2    0    0 -0.45746765558E-03 -0.15155626416E-01  0.17784100432E-01  0.10205595803E+01  0.10202919584E+01 0.  0.
     999903    2    3    3    0    0  0.30832325323E-01  0.11034104318E+00  0.58565033464E-01  0.13017115398E+00  0.19720245671E-01 0.  0.
         14    1    1    2    0    0  0.45746765558E-03  0.15155626416E-01 -0.17784100432E-01  0.23370419699E-01  0.00000000000E+00 0.  1.
     999901    1    3    3    0    0 -0.31289792978E-01 -0.12549666960E+00 -0.40780933031E-01  0.89038842632E+00  0.88000000000E+00 0.  1.
        -11    1    4    4    0    0  0.27880110522E-01  0.68106536063E-01  0.41767308607E-01  0.84620151303E-01  0.51100000000E-03 0. -1.
         11    1    4    4    0    0  0.29522148008E-02  0.42234507117E-01  0.16797724857E-01  0.45551002679E-01  0.51100000000E-03 0.  1.
</event>
<event>
 8    1  0.1112929E+005  0.1043930E+01  0.7957747E-01            NaN
         13   -1    0    0    0    0  0.00000000000E+00  0.00000000000E+00  0.74505805969E-08  0.10566000000E+00  0.10566000000E+00 0.  1.
     999900   -1    0    0    0    0 -0.00000000000E+00 -0.00000000000E+00 -0.74505805969E-08  0.93827000000E+00  0.93827000000E+00 0.  1.
     999902    2    1    2    0    0  0.20732363611E-02 -0.18620209364E-01 -0.11258791115E-01  0.10220720293E+01  0.10218382759E+01 0.  0.
     999903    2    3    3    0    0 -0.32727089997E-01  0.81244419528E-01 -0.96473120282E-01  0.13165331391E+00  0.18809944251E-01 0.  0.
         14    1    1    2    0    0 -0.20732363611E-02  0.18620209364E-01  0.11258791115E-01  0.21857970701E-01  0.00000000000E+00 0.  1.
     999901    1    3    3    0    0  0.34800326358E-01 -0.99864628892E-01  0.85214329166E-01  0.89041871539E+00  0.88000000000E+00 0. -1.
        -11    1    4    4    0    0 -0.31165894171E-01  0.61789092289E-01 -0.82280905698E-01  0.10751564281E+00  0.51100000000E-03 0.  1.
         11    1    4    4    0    0 -0.15611958262E-02  0.19455327239E-01 -0.14192214583E-01  0.24137671101E-01  0.51100000000E-03 0. -1.
</event>
<event>
 8    1  0.1112929E+005  0.1043930E+01  0.7957747E-01            NaN
         13   -1    0    0    0    0  0.00000000000E+00  0.00000000000E+00  0.74505805969E-08  0.10566000000E+00  0.10566000000E+00 0. -1.
     999900   -1    0    0    0    0 -0.00000000000E+00 -0.00000000000E+00 -0.74505805969E-08  0.93827000000E+00  0.93827000000E+00 0.  1.
     999902    2    1    2    0    0  0.18263523746E-01 -0.57351168196E-02  0.72364341924E-02  0.10234650582E+01  0.10232604319E+01 0.  0.
     999903    2    3    3    0    0  0.97392801286E-01 -0.51954915759E-01  0.76838762608E-01  0.13597297566E+00  0.19994590721E-01 0.  0.
         14    1    1    2    0    0 -0.18263523746E-01  0.57351168196E-02 -0.72364341924E-02  0.20464941837E-01  0.00000000000E+00 0.  1.
     999901    1    3    3    0    0 -0.79129277540E-01  0.46219798939E-01 -0.69602328416E-01  0.88749208250E+00  0.88000000000E+00 0. -1.
        -11    1    4    4    0    0  0.41556382741E-01 -0.14711859804E-01  0.39350610435E-01  0.59094021931E-01  0.51100000000E-03 0. -1.
         11    1    4    4    0    0  0.55836418545E-01 -0.37243055954E-01  0.37488152173E-01  0.76878953733E-01  0.51100000000E-03 0.  1.
</event>
<event>
 8    1  0.1112929E+005  0.1043930E+01  0.7957747E-01            NaN
         13   -1    0    0    0    0  0.00000000000E+00  0.00000000000E+00  0.74505805969E-08  0.10566000000E+00  0.10566000000E+00 0. -1.
     999900   -1    0    0    0    0 -0.00000000000E+00 -0.00000000000E+00 -0.74505805969E-08  0.93827000000E+00  0.93827000000E+00 0. -1.
     999902    2    1    2    0    0  0.27778469424E-02  0.25443896918E-01 -0.94354930624E-02  0.10166511281E+01  0.10162850876E+01 0.  0.
     999903    2    3    3    0    0 -0.46223684853E-01 -0.98557867305E-01 -0.55608721742E-01  0.12541066967E+00  0.28021846572E-01 0.  0.
         14    1    1    2    0    0 -0.27778469424E-02 -0.25443896918E-01  0.94354930624E-02  0.27278871922E-01  0.00000000000E+00 0. -1.
     999901    1    3    3    0    0  0.49001531795E-01  0.12400176422E+00  0.46173228680E-01  0.89124045840E+00  0.88000000000E+00 0.  1.
        -11    1    4    4    0    0 -0.36676272670E-01 -0.59038240928E-01 -0.22749765949E-01  0.73133274510E-01  0.51100000000E-03 0. -1.
         11    1    4    4    0    0 -0.95474121831E-02 -0.39519626377E-01 -0.32858955793E-01  0.52277395165E-01  0.51100000000E-03 0.  1.
</event>
<event>
 7    1  0.1225450E+005  0.1043930E+01  0.7957747E-01            NaN
         13   -1    0    0    0    0  0.00000000000E+00  0.00000000000E+00  0.74505805969E-08  0.10566000000E+00  0.10566000000E+00 0. -1.
     999900   -1    0    0    0    0 -0.00000000000E+00 -0.00000000000E+00 -0.74505805969E-08  0.93827000000E+00  0.93827000000E+00 0.  1.
     999903    2    1    2    0    0 -0.25859330047E-01  0.72940813826E-01 -0.69318071957E-01  0.10585313823E+00  0.20268806119E-01 0.  0.
         14    1    1    2    0    0 -0.49115098093E-01 -0.93935165679E-02  0.55503029056E-02  0.50312392873E-01  0.00000000000E+00 0. -1.
     999901    1    1    2    0    0  0.74974428140E-01 -0.63547297258E-01  0.63767769052E-01  0.88776446890E+00  0.88000000000E+00 0. -1.
        -11    1    3    3    0    0 -0.22666266800E-01  0.55799571643E-01 -0.41951147185E-01  0.73399671098E-01  0.51100000000E-03 0. -1.
         11    1    3    3    0    0 -0.31930632468E-02  0.17141242183E-01 -0.27366924772E-01  0.32453467134E-01  0.51100000000E-03 0.  1.
</event>
<event>
 8    1  0.1112929E+005  0.1043930E+01  0.7957747E-01            NaN
         13   -1    0    0    0    0  0.00000000000E+00  0.00000000000E+00  0.74505805969E-08  0.10566000000E+00  0.10566000000E+00 0.  1.
     999900   -1    0    0    0    0 -0.00000000000E+00 -0.00000000000E+00 -0.74505805969E-08  0.93827000000E+00  0.93827000000E+00 0.  1.
     999902    2    1    2    0    0  0.20852001104E-01 -0.65009014552E-03  0.12769870678E-01  0.10194698658E+01  0.10191763876E+01 0.  0.
     999903    2    3    3    0    0  0.77738552587E-01  0.23627717153E-01 -0.99789764111E-01  0.13014699809E+00  0.19460023515E-01 0.  0.
         14    1    1    2    0    0 -0.20852001104E-01  0.65009014552E-03 -0.12769870678E-01  0.24460134186E-01  0.00000000000E+00 0. -1.
     999901    1    3    3    0    0 -0.56886551483E-01 -0.24277807298E-01  0.11255963479E+00  0.88932286772E+00  0.88000000000E+00 0. -1.
        -11    1    4    4    0    0  0.73220798356E-01  0.18789954414E-01 -0.83937425377E-01  0.11296061348E+00  0.51100000000E-03 0. -1.
         11    1    4    4    0    0  0.45177542315E-02  0.48377627386E-02 -0.15852338734E-01  0.17186384609E-01  0.51100000000E-03 0.  1.
</event>
<event>
 8    1  0.1112929E+005  0.1043930E+01  0.7957747E-01            NaN
         13   -1    0    0    0    0  0.00000000000E+00  0.00000000000E+00  0.74505805969E-08  0.10566000000E+00  0.10566000000E+00 0.  1.
     999900   -1    0    0    0    0 -0.00000000000E+00 -0.00000000000E+00 -0.74505805969E-08  0.93827000000E+00  0.93827000000E+00 0.  1.
     999902    2    1    2    0    0 -0.21632865347E-01 -0.84865618586E-02  0.28980308848E-02  0.10205120330E+01  0.10202433084E+01 0.  0.
     999903    2    3    3    0    0 -0.79662129920E-01 -0.66479899648E-01 -0.80625462838E-01  0.13275824012E+00  0.18938137740E-01 0.  0.
         14    1    1    2    0    0  0.21632865347E-01  0.84865618586E-02 -0.28980308848E-02  0.23417966998E-01  0.00000000000E+00 0. -1.
     999901    1    3    3    0    0  0.58029264573E-01  0.57993337790E-01  0.83523493723E-01  0.88775379288E+00  0.88000000000E+00 0. -1.
        -11    1    4    4    0    0 -0.64309983681E-01 -0.54116235431E-01 -0.55092422253E-01  0.10049764698E+00  0.51100000000E-03 0.  1.
         11    1    4    4    0    0 -0.15352146239E-01 -0.12363664217E-01 -0.25533040585E-01  0.32260593137E-01  0.51100000000E-03 0. -1.
</event>
<event>
 8    1  0.1112929E+005  0.1043930E+01  0.7957747E-01            NaN
         13   -1    0    0    0    0  0.00000000000E+00  0.00000000000E+00  0.74505805969E-08  0.10566000000E+00  0.10566000000E+00 0.  1.
     999900   -1    0    0    0    0 -0.00000000000E+00 -0.00000000000E+00 -0.74505805969E-08  0.93827000000E+00  0.93827000000E+00 0. -1.
     999902    2    1    2    0    0  0.22062832109E-01 -0.92236661183E-02  0.98969001064E-04  0.10200165232E+01  0.10197361685E+01 0.  0.
     999903    2    3    3    0    0  0.41438179169E-01 -0.90284701772E-01  0.84189484161E-01  0.13208774774E+00  0.22155220420E-01 0.  0.
         14    1    1    2    0    0 -0.22062832109E-01  0.92236661183E-02 -0.98969001064E-04  0.23913476790E-01  0.00000000000E+00 0.  1.
     999901    1    3    3    0    0 -0.19375347060E-01  0.81061035653E-01 -0.84090515160E-01  0.88792877547E+00  0.88000000000E+00 0. -1.
        -11    1    4    4    0    0  0.38903984386E-01 -0.71312567784E-01  0.58778998310E-01  0.10027080377E+00  0.51100000000E-03 0. -1.
         11    1    4    4    0    0  0.25341947825E-02 -0.18972133988E-01  0.25410485852E-01  0.31816943968E-01  0.51100000000E-03 0.  1.
</event>
<event>
 8    1  0.1112929E+005  0.1043930E+01  0.7957747E-01            NaN
         13   -1    0    0    0    0  0.00000000000E+00  0.00000000000E+00  0.74505805969E-08  0.10566000000E+00  0.10566000000E+00 0. -1.
     999900   -1    0    0    0    0 -0.00000000000E+00 -0.00000000000E+00 -0.74505805969E-08  0.93827000000E+00  0.93827000000E+00 0. -1.
     999902    2    1    2    0    0  0.10049675344E-01 -0.98594294037E-02  0.19134729018E-01  0.10201741128E+01  0.10198974842E+01 0.  0.
     999903    2    3    3    0    0 -0.10882290713E+00  0.65245473353E-01  0.12566268145E-01  0.12898693718E+00  0.19501845061E-01 0.  0.
         14    1    1    2    0    0 -0.10049675344E-01  0.98594294037E-02 -0.19134729018E-01  0.23755887213E-01  0.00000000000E+00 0.  1.
     999901    1    3    3    0    0  0.11887258247E+00 -0.75104902757E-01  0.65684608729E-02  0.89118717560E+00  0.88000000000E+00 0.  1.
        -11    1    4    4    0    0 -0.40370333983E-01  0.13693038224E-01  0.57974589264E-02  0.43024816242E-01  0.51100000000E-03 0.  1.
         11    1    4    4    0    0 -0.68452573143E-01  0.51552435129E-01  0.67688092186E-02  0.85962120942E-01  0.51100000000E-03 0. -1.
</event>
<event>
 8    1  0.1112929E+005  0.1043930E+01  0.7957747E-01            NaN
         13   -1    0    0    0    0  0.00000000000E+00  0.00000000000E+00  0.74505805969E-08  0.10566000000E+00  0.10566000000E+00 0.  1.
     999900   -1    0    0    0    0 -0.00000000000E+00 -0.00000000000E+00 -0.74505805969E-08  0.93827000000E+00  0.93827000000E+00 0.  1.
     999902    2    1    2    0    0 -0.19952506181E-01  0.77129565815E-02 -0.10330699069E-01  0.10201746733E+01  0.10198980579E+01 0.  0.
     999903    2    3    3    0    0  0.74617836875E-01 -0.88786545102E-01  0.49751505370E-01  0.12783753138E+00  0.20404655618E-01 0.  0.
         14    1    1    2    0    0  0.19952506181E-01 -0.77129565815E-02  0.10330699069E-01  0.23755326674E-01  0.00000000000E+00 0.  1.
     999901    1    3    3    0    0 -0.94570343056E-01  0.96499501683E-01 -0.60082204439E-01  0.89233714195E+00  0.88000000000E+00 0.  1.
        -11    1    4    4    0    0  0.20380120478E-01 -0.24130127789E-01  0.40056785887E-02  0.31842094149E-01  0.51100000000E-03 0. -1.
         11    1    4    4    0    0  0.54237716397E-01 -0.64656417313E-01  0.45745826782E-01  0.95995437228E-01  0.51100000000E-03 0.  1.
</event>
<event>
 8    1  0.1112929E+005  0.1043930E+01  0.7957747E-01            NaN
         13   -1    0    0    0    0  0.00000000000E+00  0.00000000000E+00  0.74505805969E-08  0.10566000000E+00  0.10566000000E+00 0.  1.
     999900   -1    0    0    0    0 -0.00000000000E+00 -0.00000000000E+00 -0.74505805969E-08  0.93827000000E+00  0.93827000000E+00 0. -1.
     999902    2    1    2    0    0  0.11483401155E-01  0.20884744317E-01  0.28873559296E-02  0.10199221290E+01  0.10196395301E+01 0.  0.
     999903    2    3    3    0    0 -0.36719362977E-01 -0.72611415570E-01  0.97384804025E-01  0.12863384447E+00  0.21027044486E-01 0.  0.
         14    1    1    2    0    0 -0.11483401155E-01 -0.20884744317E-01 -0.28873559296E-02  0.24007871034E-01  0.00000000000E+00 0.  1.
     999901    1    3    3    0    0  0.48202764133E-01  0.93496159887E-01 -0.94497448095E-01  0.89128828450E+00  0.88000000000E+00 0.  1.
        -11    1    4    4    0    0 -0.26566898969E-01 -0.29802895500E-01  0.49676270491E-01  0.63733865973E-01  0.51100000000E-03 0. -1.
         11    1    4    4    0    0 -0.10152464008E-01 -0.42808520069E-01  0.47708533534E-01  0.64899978497E-01  0.51100000000E-03 0.  1.
</event>
<event>
 8    1  0.1112929E+005  0.1043930E+01  0.7957747E-01            NaN
         13   -1    0    0    0    0  0.00000000000E+00  0.00000000000E+00  0.74505805969E-08  0.10566000000E+00  0.10566000000E+00 0. -1.
     999900   -1    0    0    0    0 -0.00000000000E+00 -0.00000000000E+00 -0.74505805969E-08  0.93827000000E+00  0.93827000000E+00 0.  1.
     999902    2    1    2    0    0 -0.39433998687E-02 -0.23946368537E-01 -0.42396353350E-02  0.10192935742E+01  0.10189957983E+01 0.  0.
     999903    2    3    3    0    0 -0.24404338026E-01 -0.11907229292E+00 -0.49429740874E-01  0.13277807116E+00  0.20320783526E-01 0.  0.
         14    1    1    2    0    0  0.39433998687E-02  0.23946368537E-01  0.42396353350E-02  0.24636425804E-01  0.00000000000E+00 0.  1.
     999901    1    3    3    0    0  0.20460938157E-01  0.95125924382E-01  0.45190105539E-01  0.88651550303E+00  0.88000000000E+00 0. -1.
        -11    1    4    4    0    0 -0.18058207242E-01 -0.62072888394E-01 -0.35511593493E-01  0.73759587280E-01  0.51100000000E-03 0.  1.
         11    1    4    4    0    0 -0.63461307833E-02 -0.56999404526E-01 -0.13918147381E-01  0.59018483882E-01  0.51100000000E-03 0. -1.
</event>
<event>
 8    1  0.1112929E+005  0.1043930E+01  0.7957747E-01            NaN
         13   -1    0    0    0    0  0.00000000000E+00  0.00000000000E+00  0.74505805969E-08  0.10566000000E+00  0.10566000000E+00 0. -1.
     999900   -1    0    0    0    0 -0.00000000000E+00 -0.00000000000E+00 -0.74505805969E-08  0.93827000000E+00  0.93827000000E+00 0.  1.
     999902    2    1    2    0    0 -0.35561645842E-02 -0.61270671701E-02 -0.22742794607E-01  0.10201093794E+01  0.10198312233E+01 0.  0.
     999903    2    3    3    0    0  0.12247034157E+00 -0.33966791949E-01 -0.22541055396E-01  0.13069509392E+00  0.20503191872E-01 0.  0.
         14    1    1    2    0    0  0.35561645842E-02  0.61270671701E-02  0.22742794607E-01  0.23820620588E-01  0.00000000000E+00 0. -1.
     999901    1    3    3    0    0 -0.12602650616E+00  0.27839724779E-01 -0.20173921135E-03  0.88941428549E+00  0.88000000000E+00 0.  1.
        -11    1    4    4    0    0  0.91144556428E-01 -0.20176373822E-01 -0.86469176973E-02  0.93752048158E-01  0.51100000000E-03 0. -1.
         11    1    4    4    0    0  0.31325785146E-01 -0.13790418127E-01 -0.13894137699E-01  0.36943045767E-01  0.51100000000E-03 0.  1.
</event>
<event>
 8    1  0.1112929E+005  0.1043930E+01  0.7957747E-01            NaN
         13   -1    0    0    0    0  0.00000000000E+00  0.00000000000E+00  0.74505805969E-08  0.10566000000E+00  0.10566000000E+00 0. -1.
     999900   -1    0    0    0    0 -0.00000000000E+00 -0.00000000000E+00 -0.74505805969E-08  0.93827000000E+00  0.93827000000E+00 0.  1.
     999902    2    1    2    0    0 -0.14459103032E-01  0.27524062639E-03  0.19896009213E-01  0.10193334027E+01  0.10190366005E+01 0.  0.
     999903    2    3    3    0    0 -0.97891140337E-01 -0.82272965258E-01 -0.19924575251E-01  0.13064853721E+00  0.17903502642E-01 0.  0.
         14    1    1    2    0    0  0.14459103032E-01 -0.27524062639E-03 -0.19896009213E-01  0.24596597336E-01  0.00000000000E+00 0.  1.
     999901    1    3    3    0    0  0.83432037305E-01  0.82548205884E-01  0.39820584464E-01  0.88868486546E+00  0.88000000000E+00 0. -1.
        -11    1    4    4    0    0 -0.45762300851E-01 -0.50108620795E-01 -0.10075676827E-01  0.68606431489E-01  0.51100000000E-03 0. -1.
         11    1    4    4    0    0 -0.52128839486E-01 -0.32164344463E-01 -0.98488984239E-02  0.62042105719E-01  0.51100000000E-03 0.  1.
</event>
<event>
 8    1  0.1112929E+005  0.1043930E+01  0.7957747E-01            NaN
         13   -1    0    0    0    0  0.00000000000E+00  0.00000000000E+00  0.74505805969E-08  0.10566000000E+00  0.10566000000E+00 0. -1.
     999900   -1    0    0    0    0 -0.00000000000E+00 -0.00000000000E+00 -0.74505805969E-08  0.93827000000E+00  0.93827000000E+00 0.  1.
     999902    2    1    2    0    0 -0.96087948568E-02  0.14419586436E-01 -0.16373653728E-01  0.10200899088E+01  0.10198112924E+01 0.  0.
     999903    2    3    3    0    0  0.11110575509E+00  0.17820819966E-01  0.58548952502E-01  0.12868822164E+00  0.21693503923E-01 0.  0.
         14    1    1    2    0    0  0.96087948568E-02 -0.14419586436E-01  0.16373653728E-01  0.23840091191E-01  0.00000000000E+00 0. -1.
     999901    1    3    3    0    0 -0.12071454995E+00 -0.34012335298E-02 -0.74922606230E-01  0.89140168717E+00  0.88000000000E+00 0. -1.
        -11    1    4    4    0    0  0.70513310366E-01  0.73653829800E-02  0.47487748181E-01  0.85333013269E-01  0.51100000000E-03 0. -1.
         11    1    4    4    0    0  0.40592444722E-01  0.10455436986E-01  0.11061204321E-01  0.43355208374E-01  0.51100000000E-03 0.  1.
</event>
<event>
 8    1  0.1112929E+005  0.1043930E+01  0.7957747E-01            NaN
         13   -1    0    0    0    0  0.00000000000E+00  0.00000000000E+00  0.74505805969E-08  0.10566000000E+00  0.10566000000E+00 0. -1.
     999900   -1    0    0    0    0 -0.00000000000E+00 -0.00000000000E+00 -0.74505805969E-08  0.93827000000E+00  0.93827000000E+00 0.  1.
     999902    2    1    2    0    0 -0.18162735041E-02 -0.23486416734E-01 -0.11584787229E-01  0.10176789445E+01  0.10173403148E+01 0.  0.
     999903    2    3    3    0    0  0.31337256066E-01 -0.32497174098E-01  0.11747732862E+00  0.12760176805E+00  0.21052280773E-01 0.  0.
         14    1    1    2    0    0  0.18162735041E-02  0.23486416734E-01  0.11584787229E-01  0.26251055514E-01  0.00000000000E+00 0. -1.
     999901    1    3    3    0    0 -0.33153529570E-01  0.90107573636E-02 -0.12906211585E+00  0.89007717644E+00  0.88000000000E+00 0.  1.
        -11    1    4    4    0    0  0.18445241839E-01 -0.31405420181E-01  0.78722678871E-01  0.86741274217E-01  0.51100000000E-03 0. -1.
         11    1    4    4    0    0  0.12892014226E-01 -0.10917539170E-02  0.38754649754E-01  0.40860493829E-01  0.51100000000E-03 0.  1.
</event>
<event>
 8    1  0.1112929E+005  0.1043930E+01  0.7957747E-01            NaN
         13   -1    0    0    0    0  0.00000000000E+00  0.00000000000E+00  0.74505805969E-08  0.10566000000E+00  0.10566000000E+00 0. -1.
     999900   -1    0    0    0    0 -0.00000000000E+00 -0.00000000000E+00 -0.74505805969E-08  0.93827000000E+00  0.93827000000E+00 0. -1.
     999902    2    1    2    0    0 -0.30988127277E-01 -0.16858042791E-02 -0.63177081710E-02  0.10122595184E+01  0.10117639612E+01 0.  0.
     999903    2    3    3    0    0  0.54007754270E-01  0.10068442933E+00 -0.35766937303E-01  0.12177020252E+00  0.22237728903E-01 0.  0.
         14    1    1    2    0    0  0.30988127277E-01  0.16858042791E-02  0.63177081710E-02  0.31670481599E-01  0.00000000000E+00 0. -1.
     999901    1    3    3    0    0 -0.84995881547E-01 -0.10237023360E+00  0.29449229132E-01  0.89048931588E+00  0.88000000000E+00 0.  1.
        -11    1    4    4    0    0  0.36668377152E-01  0.81232349425E-01 -0.34828785086E-01  0.95689967435E-01  0.51100000000E-03 0. -1.
         11    1    4    4    0    0  0.17339377118E-01  0.19452079901E-01 -0.93815221711E-03  0.26080235081E-01  0.51100000000E-03 0.  1.
</event>
<event>
 8    1  0.1112929E+005  0.1043930E+01  0.7957747E-01            NaN
         13   -1    0    0    0    0  0.00000000000E+00  0.00000000000E+00  0.74505805969E-08  0.10566000000E+00  0.10566000000E+00 0.  1.
     999900   -1    0    0    0    0 -0.00000000000E+00 -0.00000000000E+00 -0.74505805969E-08  0.93827000000E+00  0.93827000000E+00 0.  1.
     999902    2    1    2    0    0 -0.19665461899E-01 -0.12839152962E-02 -0.12646191869E-01  0.10205140866E+01  0.10202454097E+01 0.  0.
     999903    2    3    3    0    0 -0.51184010362E-01 -0.11651089335E+00  0.29073386281E-01  0.13146335772E+00  0.15580803871E-01 0.  0.
         14    1    1    2    0    0  0.19665461899E-01  0.12839152962E-02  0.12646191869E-01  0.23415913370E-01  0.00000000000E+00 0.  1.
     999901    1    3    3    0    0  0.31518548463E-01  0.11522697805E+00 -0.41719578150E-01  0.88905072891E+00  0.88000000000E+00 0.  1.
        -11    1    4    4    0    0 -0.80593768783E-02 -0.15951762218E-01  0.97100683809E-02  0.20345978042E-01  0.51100000000E-03 0. -1.
         11    1    4    4    0    0 -0.43124633483E-01 -0.10055913113E+00  0.19363317900E-01  0.11111737968E+00  0.51100000000E-03 0.  1.
</event>
<event>
 8    1  0.1112929E+005  0.1043930E+01  0.7957747E-01            NaN
         13   -1    0    0    0    0  0.00000000000E+00  0.00000000000E+00  0.74505805969E-08  0.10566000000E+00  0.10566000000E+00 0.  1.
     999900   -1    0    0    0    0 -0.00000000000E+00 -0.00000000000E+00 -0.74505805969E-08  0.93827000000E+00  0.93827000000E+00 0. -1.
     999902    2    1    2    0    0 -0.15659586789E-01  0.53514109120E-02  0.16608764349E-01  0.10204840769E+01  0.10202147028E+01 0.  0.
     999903    2    3    3    0    0 -0.17916415989E-01  0.12886350084E+00  0.14241447509E-02  0.13172600953E+00  0.20564862923E-01 0.  0.
         14    1    1    2    0    0  0.15659586789E-01 -0.53514109120E-02 -0.16608764349E-01  0.23445923108E-01  0.00000000000E+00 0. -1.
     999901    1    3    3    0    0  0.22568291994E-02 -0.12351208993E+00  0.15184619598E-01  0.88875806737E+00  0.88000000000E+00 0. -1.
        -11    1    4    4    0    0 -0.11867752934E-01  0.10740646191E+00 -0.59883493910E-02  0.10822713647E+00  0.51100000000E-03 0. -1.
         11    1    4    4    0    0 -0.60486630552E-02  0.21457038928E-01  0.74124941419E-02  0.23498873052E-01  0.51100000000E-03 0.  1.
</event>
<event>
 8    1  0.1112929E+005  0.1043930E+01  0.7957747E-01            NaN
         13   -1    0    0    0    0  0.00000000000E+00  0.00000000000E+00  0.74505805969E-08  0.10566000000E+00  0.10566000000E+00 0.  1.
     999900   -1    0    0    0    0 -0.00000000000E+00 -0.00000000000E+00 -0.74505805969E-08  0.93827000000E+00  0.93827000000E+00 0.  1.
     999902    2    1    2    0    0  0.24397864120E-02  0.14554475404E-01 -0.19660635870E-01  0.10193469588E+01  0.10190504877E+01 0.  0.
     999903    2    3    3    0    0  0.10520896253E+00 -0.57675117952E-01 -0.45882945314E-01  0.13004035968E+00  0.20246121787E-01 0.  0.
         14    1    1    2    0    0 -0.24397864120E-02 -0.14554475404E-01  0.19660635870E-01  0.24583041204E-01  0.00000000000E+00 0.  1.
     999901    1    3    3    0    0 -0.10276917612E+00  0.72229593356E-01  0.26222309444E-01  0.88930659911E+00  0.88000000000E+00 0. -1.
        -11    1    4    4    0    0  0.12778914314E-01 -0.11175875802E-02 -0.85639403791E-02  0.15432169285E-01  0.51100000000E-03 0.  1.
         11    1    4    4    0    0  0.92430048219E-01 -0.56557530372E-01 -0.37319004935E-01  0.11460819040E+00  0.51100000000E-03 0. -1.
</event>
<event>
 8    1  0.1112929E+005  0.1043930E+01  0.7957747E-01            NaN
         13   -1    0    0    0    0  0.00000000000E+00  0.00000000000E+00  0.74505805969E-08  0.10566000000E+00  0.10566000000E+00 0.  1.
     999900   -1    0    0    0    0 -0.00000000000E+00 -0.00000000000E+00 -0.74505805969E-08  0.93827000000E+00  0.93827000000E+00 0.  1.
     999902    2    1    2    0    0 -0.12326201390E-01  0.20523914403E-01 -0.46866755156E-02  0.10195346884E+01  0.10192427824E+01 0.  0.
     999903    2    3    3    0    0 -0.21748069119E-01  0.10164471860E+00 -0.79133661345E-01  0.13262335673E+00  0.22851500198E-01 0.  0.
         14    1    1    2    0    0  0.12326201390E-01 -0.20523914403E-01  0.46866755156E-02  0.24395311650E-01  0.00000000000E+00 0. -1.
     999901    1    3    3    0    0  0.94218677295E-02 -0.81120804199E-01  0.74446985829E-01  0.88691133162E+00  0.88000000000E+00 0. -1.
        -11    1    4    4    0    0 -0.26374075131E-01  0.83976218623E-01 -0.67981778140E-01  0.11121771627E+00  0.51100000000E-03 0. -1.
         11    1    4    4    0    0  0.46260060114E-02  0.17668499978E-01 -0.11151883204E-01  0.21405640450E-01  0.51100000000E-03 0.  1.
</event>
<event>
 8    1  0.1112929E+005  0.1043930E+01  0.7957747E-01            NaN
         13   -1    0    0    0    0  0.00000000000E+00  0.00000000000E+00  0.74505805969E-08  0.10566000000E+00  0.10566000000E+00 0.  1.
     999900   -1    0    0    0    0 -0.00000000000E+00 -0.00000000000E+00 -0.74505805969E-08  0.93827000000E+00  0.93827000000E+00 0. -1.
     999902    2    1    2    0    0 -0.16410211610E-01 -0.96133310626E-02  0.14698311790E-01  0.10198935371E+01  0.10196102567E+01 0.  0.
     999903    2    3    3    0    0  0.42822169429E-01  0.82435867553E-02  0.12203164743E+00  0.13121598623E+00  0.20596532479E-01 0.  0.
         14    1    1    2    0    0  0.16410211610E-01  0.96133310626E-02 -0.14698311790E-01  0.24036462899E-01  0.00000000000E+00 0.  1.
     999901    1    3    3    0    0 -0.59232381039E-01 -0.17856917818E-01 -0.10733333564E+00  0.88867755087E+00  0.88000000000E+00 0. -1.
        -11    1    4    4    0    0  0.26043528338E-01  0.14131443791E-01  0.87315794647E-01  0.92207766418E-01  0.51100000000E-03 0.  1.
         11    1    4    4    0    0  0.16778641092E-01 -0.58878570359E-02  0.34715852788E-01  0.39008219815E-01  0.51100000000E-03 0. -1.
</event>
<event>
 8    1  0.1112929E+005  0.1043930E+01  0.7957747E-01            NaN
         13   -1    0    0    0    0  0.00000000000E+00  0.00000000000E+00  0.74505805969E-08  0.10566000000E+00  0.10566000000E+00 0. -1.
     999900   -1    0    0    0    0 -0.00000000000E+00 -0.00000000000E+00 -0.74505805969E-08  0.93827000000E+00  0.93827000000E+00 0. -1.
     999902    2    1    2    0    0 -0.10096769820E-01 -0.61084367465E-02  0.21061685584E-01  0.10197876646E+01  0.10195018531E+01 0.  0.
     999903    2    3    3    0    0 -0.65352384499E-01  0.27890679567E-01  0.11036203096E+00  0.13289213828E+00  0.20777833704E-01 0.  0.
         14    1    1    2    0    0  0.10096769820E-01  0.61084367465E-02 -0.21061685584E-01  0.24142335428E-01  0.00000000000E+00 0.  1.
     999901    1    3    3    0    0  0.55255614680E-01 -0.33999116313E-01 -0.89300345378E-01  0.88689552629E+00  0.88000000000E+00 0. -1.
        -11    1    4    4    0    0 -0.40032254188E-01  0.24546470206E-01  0.57975478183E-01  0.74609166773E-01  0.51100000000E-03 0. -1.
         11    1    4    4    0    0 -0.25320130311E-01  0.33442093605E-02  0.52386552779E-01  0.58282971512E-01  0.51100000000E-03 0.  1.
</event>
<event>
 8    1  0.1112929E+005  0.1043930E+01  0.7957747E-01            NaN
         13   -1    0    0    0    0  0.00000000000E+00  0.00000000000E+00  0.74505805969E-08  0.10566000000E+00  0.10566000000E+00 0. -1.
     999900   -1    0    0    0    0 -0.00000000000E+00 -0.00000000000E+00 -0.74505805969E-08  0.93827000000E+00  0.93827000000E+00 0.  1.
     999902    2    1    2    0    0 -0.19178557087E-01  0.36044379487E-02  0.15047138376E-01  0.10192880561E+01  0.10189901452E+01 0.  0.
     999903    2    3    3    0    0 -0.44391776633E-01  0.10744530755E+00 -0.54736967100E-01  0.13008141309E+00  0.20246345751E-01 0.  0.
         14    1    1    2    0    0  0.19178557087E-01 -0.36044379487E-02 -0.15047138376E-01  0.24641943880E-01  0.00000000000E+00 0. -1.
     999901    1    3    3    0    0  0.25213219547E-01 -0.10384086960E+00  0.69784105477E-01  0.88920664303E+00  0.88000000000E+00 0. -1.
        -11    1    4    4    0    0 -0.21744181266E-01  0.28608774880E-01 -0.18238518452E-01  0.40301068167E-01  0.51100000000E-03 0.  1.
         11    1    4    4    0    0 -0.22647595368E-01  0.78836532668E-01 -0.36498448648E-01  0.89780344919E-01  0.51100000000E-03 0. -1.
</event>
<event>
 8    1  0.1112929E+005  0.1043930E+01  0.7957747E-01            NaN
         13   -1    0    0    0    0  0.00000000000E+00  0.00000000000E+00  0.74505805969E-08  0.10566000000E+00  0.10566000000E+00 0. -1.
     999900   -1    0    0    0    0 -0.00000000000E+00 -0.00000000000E+00 -0.74505805969E-08  0.93827000000E+00  0.93827000000E+00 0. -1.
     999902    2    1    2    0    0 -0.13258518731E-01 -0.18041535643E-01 -0.81173951243E-02  0.10201145128E+01  0.10198364780E+01 0.  0.
     999903    2    3    3    0    0  0.26546602420E-01 -0.27724247868E-01 -0.12416984605E+00  0.13155029229E+00  0.20346319434E-01 0.  0.
         14    1    1    2    0    0  0.13258518731E-01  0.18041535643E-01  0.81173951243E-02  0.23815487207E-01  0.00000000000E+00 0. -1.
     999901    1    3    3    0    0 -0.39805121151E-01  0.96827122249E-02  0.11605245093E+00  0.88856422050E+00  0.88000000000E+00 0.  1.
        -11    1    4    4    0    0  0.81394953197E-02  0.17865408277E-03 -0.12043548704E-01  0.14546184645E-01  0.51100000000E-03 0.  1.
         11    1    4    4    0    0  0.18407107101E-01 -0.27902901951E-01 -0.11212629735E+00  0.11700410765E+00  0.51100000000E-03 0. -1.
</event>
<event>
 8    1  0.1112929E+005  0.1043930E+01  0.7957747E-01            NaN
         13   -1    0    0    0    0  0.00000000000E+00  0.00000000000E+00  0.74505805969E-08  0.10566000000E+00  0.10566000000E+00 0. -1.
     999900   -1    0    0    0    0 -0.00000000000E+00 -0.00000000000E+00 -0.74505805969E-08  0.93827000000E+00  0.93827000000E+00 0. -1.
     999902    2    1    2    0    0  0.15029571197E-01  0.64889132254E-02 -0.13987172812E-01  0.10223978146E+01  0.10221710504E+01 0.  0.
     999903    2    3    3    0    0  0.10589614031E+00  0.69064187473E-01 -0.43062209069E-01  0.13503218754E+00  0.19886761896E-01 0.  0.
         14    1    1    2    0    0 -0.15029571197E-01 -0.64889132254E-02  0.13987172812E-01  0.21532185409E-01  0.00000000000E+00 0. -1.
     999901    1    3    3    0    0 -0.90866569116E-01 -0.62575274247E-01  0.29075036256E-01  0.88736562705E+00  0.88000000000E+00 0.  1.
        -11    1    4    4    0    0  0.57112608952E-01  0.32649995120E-01 -0.12700073323E-01  0.67003173552E-01  0.51100000000E-03 0. -1.
         11    1    4    4    0    0  0.48783531361E-01  0.36414192352E-01 -0.30362135745E-01  0.68029013992E-01  0.51100000000E-03 0.  1.
</event>
<event>
 8    1  0.1112929E+005  0.1043930E+01  0.7957747E-01            NaN
         13   -1    0    0    0    0  0.00000000000E+00  0.00000000000E+00  0.74505805969E-08  0.10566000000E+00  0.10566000000E+00 0. -1.
     999900   -1    0    0    0    0 -0.00000000000E+00 -0.00000000000E+00 -0.74505805969E-08  0.93827000000E+00  0.93827000000E+00 0. -1.
     999902    2    1    2    0    0 -0.13011787521E-01  0.12785339131E-01  0.14947708135E-01  0.10203459908E+01  0.10200733971E+01 0.  0.
     999903    2    3    3    0    0 -0.69010782306E-01  0.30837136738E-02  0.11203194816E+00  0.13318458575E+00  0.20371036056E-01 0.  0.
         14    1    1    2    0    0  0.13011787521E-01 -0.12785339131E-01 -0.14947708135E-01  0.23584009194E-01  0.00000000000E+00 0.  1.
     999901    1    3    3    0    0  0.55998994785E-01  0.97016254568E-02 -0.97084240022E-01  0.88716140505E+00  0.88000000000E+00 0. -1.
        -11    1    4    4    0    0 -0.45681771064E-01 -0.30178568743E-02  0.57085214827E-01  0.73177281587E-01  0.51100000000E-03 0.  1.
         11    1    4    4    0    0 -0.23329011242E-01  0.61015705481E-02  0.54946733330E-01  0.60007304166E-01  0.51100000000E-03 0. -1.
</event>
<event>
 8    1  0.1112929E+005  0.1043930E+01  0.7957747E-01            NaN
         13   -1    0    0    0    0  0.00000000000E+00  0.00000000000E+00  0.74505805969E-08  0.10566000000E+00  0.10566000000E+00 0. -1.
     999900   -1    0    0    0    0 -0.00000000000E+00 -0.00000000000E+00 -0.74505805969E-08  0.93827000000E+00  0.93827000000E+00 0. -1.
     999902    2    1    2    0    0 -0.14578360942E-01  0.19644053277E-01  0.25697689148E-02  0.10193328223E+01  0.10190360060E+01 0.  0.
     999903    2    3    3    0    0  0.11611355187E+00  0.46711613480E-01  0.23898641562E-01  0.12901380664E+00  0.20225861502E-01 0.  0.
         14    1    1    2    0    0  0.14578360942E-01 -0.19644053277E-01 -0.25697689148E-02  0.24597177667E-01  0.00000000000E+00 0.  1.
     999901    1    3    3    0    0 -0.13069191282E+00 -0.27067560204E-01 -0.21328872647E-01  0.89031901569E+00  0.88000000000E+00 0. -1.
        -11    1    4    4    0    0  0.85456928666E-01  0.25847038416E-01  0.21591961121E-01  0.91855484093E-01  0.51100000000E-03 0. -1.
         11    1    4    4    0    0  0.30656623208E-01  0.20864575064E-01  0.23066804401E-02  0.37158322550E-01  0.51100000000E-03 0.  1.
</event>
<event>
 8    1  0.1112929E+005  0.1043930E+01  0.7957747E-01            NaN
         13   -1    0    0    0    0  0.00000000000E+00  0.00000000000E+00  0.74505805969E-08  0.10566000000E+00  0.10566000000E+00 0. -1.
     999900   -1    0    0    0    0 -0.00000000000E+00 -0.00000000000E+00 -0.74505805969E-08  0.93827000000E+00  0.93827000000E+00 0. -1.
     999902    2    1    2    0    0  0.21260887615E-01 -0.15001338485E-01 -0.65615957508E-02  0.10170949476E+01  0.10167408777E+01 0.  0.
     999903    2    3    3    0    0  0.10585944134E+00 -0.46990765636E-01 -0.57874098482E-01  0.13097237612E+00  0.19748383645E-01 0.  0.
         14    1    1    2    0    0 -0.21260887615E-01  0.15001338485E-01  0.65615957508E-02  0.26835052400E-01  0.00000000000E+00 0. -1.
     999901    1    3    3    0    0 -0.84598553726E-01  0.31989427151E-01  0.51312502731E-01  0.88612257148E+00  0.88000000000E+00 0.  1.
        -11    1    4    4    0    0  0.87821812183E-02 -0.29874263383E-02  0.76314680455E-03  0.93217453904E-02  0.51100000000E-03 0.  1.
         11    1    4    4    0    0  0.97077260123E-01 -0.44003339297E-01 -0.58637245286E-01  0.12165063073E+00  0.51100000000E-03 0. -1.
</event>
<event>
 8    1  0.1112929E+005  0.1043930E+01  0.7957747E-01            NaN
         13   -1    0    0    0    0  0.00000000000E+00  0.00000000000E+00  0.74505805969E-08  0.10566000000E+00  0.10566000000E+00 0.  1.
     999900   -1    0    0    0    0 -0.00000000000E+00 -0.00000000000E+00 -0.74505805969E-08  0.93827000000E+00  0.93827000000E+00 0.  1.
     999902    2    1    2    0    0  0.14662504679E-01  0.12438884728E-01  0.11827552683E-01  0.10213555476E+01  0.10211060419E+01 0.  0.
     999903    2    3    3    0    0  0.79291871829E-01 -0.42485575598E-01 -0.93278103033E-01  0.13105175101E+00  0.19532840673E-01 0.  0.
         14    1    1    2    0    0 -0.14662504679E-01 -0.12438884728E-01 -0.11827552683E-01  0.22574452357E-01  0.00000000000E+00 0.  1.
     999901    1    3    3    0    0 -0.64629367150E-01  0.54924460326E-01  0.10510565572E+00  0.89030379664E+00  0.88000000000E+00 0.  1.
        -11    1    4    4    0    0  0.36631072225E-01 -0.22996762384E-01 -0.31613857047E-01  0.53575961129E-01  0.51100000000E-03 0.  1.
         11    1    4    4    0    0  0.42660799604E-01 -0.19488813214E-01 -0.61664245986E-01  0.77475789879E-01  0.51100000000E-03 0. -1.
</event>
<event>
 8    1  0.1112929E+005  0.1043930E+01  0.7957747E-01            NaN
         13   -1    0    0    0    0  0.00000000000E+00  0.00000000000E+00  0.74505805969E-08  0.10566000000E+00  0.10566000000E+00 0. -1.
     999900   -1    0    0    0    0 -0.00000000000E+00 -0.00000000000E+00 -0.74505805969E-08  0.93827000000E+00  0.93827000000E+00 0.  1.
     999902    2    1    2    0    0 -0.15774627927E-01  0.84564851907E-02  0.11138141940E-01  0.10228489840E+01  0.10226317201E+01 0.  0.
     999903    2    3    3    0    0  0.12753636541E+00 -0.38510691364E-02  0.22025193853E-01  0.13110460104E+00  0.20565797195E-01 0.  0.
         14    1    1    2    0    0  0.15774627927E-01 -0.84564851907E-02 -0.11138141940E-01  0.21081015959E-01  0.00000000000E+00 0.  1.
     999901    1    3    3    0    0 -0.14331099334E+00  0.12307554327E-01 -0.10887051914E-01  0.89174438300E+00  0.88000000000E+00 0. -1.
        -11    1    4    4    0    0  0.29064018381E-01 -0.94791621944E-02  0.39773070590E-02  0.30832641353E-01  0.51100000000E-03 0.  1.
         11    1    4    4    0    0  0.98472347033E-01  0.56280930580E-02  0.18047886794E-01  0.10027195969E+00  0.51100000000E-03 0. -1.
</event>
<event>
 8    1  0.1112929E+005  0.1043930E+01  0.7957747E-01            NaN
         13   -1    0    0    0    0  0.00000000000E+00  0.00000000000E+00  0.74505805969E-08  0.10566000000E+00  0.10566000000E+00 0. -1.
     999900   -1    0    0    0    0 -0.00000000000E+00 -0.00000000000E+00 -0.74505805969E-08  0.93827000000E+00  0.93827000000E+00 0.  1.
     999902    2    1    2    0    0  0.20713825038E-01  0.28259933114E-02  0.10253141838E-01  0.10206453333E+01  0.10203796944E+01 0.  0.
     999903    2    3    3    0    0  0.10294673358E+00 -0.62094610168E-01  0.54108490619E-01  0.13334593196E+00  0.19990954113E-01 0.  0.
         14    1    1    2    0    0 -0.20713825038E-01 -0.28259933114E-02 -0.10253141838E-01  0.23284666703E-01  0.00000000000E+00 0. -1.
     999901    1    3    3    0    0 -0.82232908538E-01  0.64920603479E-01 -0.43855348781E-01  0.88729940134E+00  0.88000000000E+00 0.  1.
        -11    1    4    4    0    0  0.93984116218E-01 -0.60546852430E-01  0.45159381106E-01  0.12057597714E+00  0.51100000000E-03 0. -1.
         11    1    4    4    0    0  0.89626173588E-02 -0.15477577373E-02  0.89491095133E-02  0.12769954816E-01  0.51100000000E-03 0.  1.
</event>
<event>
 8    1  0.1112929E+005  0.1043930E+01  0.7957747E-01            NaN
         13   -1    0    0    0    0  0.00000000000E+00  0.00000000000E+00  0.74505805969E-08  0.10566000000E+00  0.10566000000E+00 0. -1.
     999900   -1    0    0    0    0 -0.00000000000E+00 -0.00000000000E+00 -0.74505805969E-08  0.93827000000E+00  0.93827000000E+00 0. -1.
     999902    2    1    2    0    0 -0.83066764954E-03 -0.45032530099E-02 -0.24285504690E-01  0.10192165414E+01  0.10189168775E+01 0.  0.
     999903    2    3    3    0    0  0.13341073195E-01 -0.35266903094E-01 -0.12537234339E+00  0.13278222950E+00  0.22162068906E-01 0.  0.
         14    1    1    2    0    0  0.83066764954E-03  0.45032530099E-02  0.24285504690E-01  0.24713458569E-01  0.00000000000E+00 0. -1.
     999901    1    3    3    0    0 -0.14171740845E-01  0.30763650084E-01  0.10108683870E+00  0.88643431193E+00  0.88000000000E+00 0.  1.
        -11    1    4    4    0    0  0.53612648841E-02 -0.25372284465E-01 -0.49832098538E-01  0.56178244417E-01  0.51100000000E-03 0. -1.
         11    1    4    4    0    0  0.79798083114E-02 -0.98946186293E-02 -0.75540244847E-01  0.76603985086E-01  0.51100000000E-03 0.  1.
</event>
<event>
 8    1  0.1112929E+005  0.1043930E+01  0.7957747E-01            NaN
         13   -1    0    0    0    0  0.00000000000E+00  0.00000000000E+00  0.74505805969E-08  0.10566000000E+00  0.10566000000E+00 0. -1.
     999900   -1    0    0    0    0 -0.00000000000E+00 -0.00000000000E+00 -0.74505805969E-08  0.93827000000E+00  0.93827000000E+00 0.  1.
     999902    2    1    2    0    0  0.19472307426E-01 -0.12983898204E-01  0.25444492870E-02  0.10203879824E+01  0.10201163699E+01 0.  0.
     999903    2    3    3    0    0 -0.89775107535E-01  0.84254343240E-01  0.28796779468E-01  0.12793100413E+00  0.19460807353E-01 0.  0.
         14    1    1    2    0    0 -0.19472307426E-01  0.12983898204E-01 -0.25444492870E-02  0.23542017569E-01  0.00000000000E+00 0. -1.
     999901    1    3    3    0    0  0.10924741496E+00 -0.97238241444E-01 -0.26252330181E-01  0.89245697830E+00  0.88000000000E+00 0.  1.
        -11    1    4    4    0    0 -0.50163196800E-01  0.34741318084E-01  0.10357569382E-01  0.61893827316E-01  0.51100000000E-03 0.  1.
         11    1    4    4    0    0 -0.39611910735E-01  0.49513025156E-01  0.18439210086E-01  0.66037176816E-01  0.51100000000E-03 0. -1.
</event>
<event>
 8    1  0.1588197E+005  0.1043930E+01  0.7957747E-01            NaN
         13   -1    0    0    0    0  0.00000000000E+00  0.00000000000E+00  0.74505805969E-08  0.10566000000E+00  0.10566000000E+00 0. -1.
     999900   -1    0    0    0    0 -0.00000000000E+00 -0.00000000000E+00 -0.74505805969E-08  0.93827000000E+00  0.93827000000E+00 0. -1.
     999902    2    1    2    0    0  0.17592207665E-01  0.61791924888E-02  0.13654489219E-01  0.10208191094E+01  0.10205574657E+01 0.  0.
     999903    2    3    3    0    0  0.43194348922E-01  0.97127920494E-01  0.78044647218E-01  0.13342222340E+00  0.20271606238E-01 0.  0.
         14    1    1    2    0    0 -0.17592207665E-01 -0.61791924888E-02 -0.13654489219E-01  0.23110890640E-01  0.00000000000E+00 0.  1.
     999901    1    3    3    0    0 -0.25602141256E-01 -0.90948728006E-01 -0.64390157999E-01  0.88739688596E+00  0.88000000000E+00 0. -1.
        -11    1    4    4    0    0  0.21570434415E-01  0.69216124751E-01  0.46986511803E-01  0.86395306463E-01  0.51100000000E-03 0. -1.
         11    1    4    4    0    0  0.21623914507E-01  0.27911795743E-01  0.31058135415E-01  0.47026916938E-01  0.51100000000E-03 0.  1.
</event>
<event>
 8    1  0.1112929E+005  0.1043930E+01  0.7957747E-01            NaN
         13   -1    0    0    0    0  0.00000000000E+00  0.00000000000E+00  0.74505805969E-08  0.10566000000E+00  0.10566000000E+00 0. -1.
     999900   -1    0    0    0    0 -0.00000000000E+00 -0.00000000000E+00 -0.74505805969E-08  0.93827000000E+00  0.93827000000E+00 0.  1.
     999902    2    1    2    0    0  0.92140976308E-02 -0.18423325721E-01 -0.93759173110E-02  0.10212975819E+01  0.10210467787E+01 0.  0.
     999903    2    3    3    0    0 -0.19579574327E-01  0.11586360401E+00 -0.51007454494E-01  0.12967252617E+00  0.20136264906E-01 0.  0.
         14    1    1    2    0    0 -0.92140976308E-02  0.18423325721E-01  0.93759173110E-02  0.22632418148E-01  0.00000000000E+00 0. -1.
     999901    1    3    3    0    0  0.28793671957E-01 -0.13428692973E+00  0.41631537183E-01  0.89162505569E+00  0.88000000000E+00 0.  1.
        -11    1    4    4    0    0 -0.22159218102E-03  0.40696490173E-01 -0.10115003034E-01  0.41938381262E-01  0.51100000000E-03 0. -1.
         11    1    4    4    0    0 -0.19357982146E-01  0.75167113833E-01 -0.40892451460E-01  0.87734144904E-01  0.51100000000E-03 0.  1.
</event>
<event>
 8    1  0.1112929E+005  0.1043930E+01  0.7957747E-01            NaN
         13   -1    0    0    0    0  0.00000000000E+00  0.00000000000E+00  0.74505805969E-08  0.10566000000E+00  0.10566000000E+00 0. -1.
     999900   -1    0    0    0    0 -0.00000000000E+00 -0.00000000000E+00 -0.74505805969E-08  0.93827000000E+00  0.93827000000E+00 0. -1.
     999902    2    1    2    0    0 -0.16071782350E-01  0.16983660115E-01  0.17795315953E-03  0.10205467033E+01  0.10202787830E+01 0.  0.
     999903    2    3    3    0    0  0.12187022566E+00 -0.17404637266E-01  0.31252057651E-01  0.12859594648E+00  0.20123445062E-01 0.  0.
         14    1    1    2    0    0  0.16071782350E-01 -0.16983660115E-01 -0.17795315953E-03  0.23383296733E-01  0.00000000000E+00 0. -1.
     999901    1    3    3    0    0 -0.13794200801E+00  0.34388297381E-01 -0.31074104492E-01  0.89195075679E+00  0.88000000000E+00 0.  1.
        -11    1    4    4    0    0  0.33295029960E-01 -0.10178749406E-02  0.16981461958E-01  0.37392863766E-01  0.51100000000E-03 0. -1.
         11    1    4    4    0    0  0.88575195702E-01 -0.16386762326E-01  0.14270595694E-01  0.91203082709E-01  0.51100000000E-03 0.  1.
</event>
<event>
 8    1  0.1112929E+005  0.1043930E+01  0.7957747E-01            NaN
         13   -1    0    0    0    0  0.00000000000E+00  0.00000000000E+00  0.74505805969E-08  0.10566000000E+00  0.10566000000E+00 0. -1.
     999900   -1    0    0    0    0 -0.00000000000E+00 -0.00000000000E+00 -0.74505805969E-08  0.93827000000E+00  0.93827000000E+00 0.  1.
     999902    2    1    2    0    0 -0.22994516026E-01  0.37735548670E-02 -0.92054171965E-02  0.10188755156E+01  0.10185674200E+01 0.  0.
     999903    2    3    3    0    0  0.88745304242E-01  0.64576175318E-01  0.60656584172E-01  0.12698794121E+00  0.20022601367E-01 0.  0.
         14    1    1    2    0    0  0.22994516026E-01 -0.37735548670E-02  0.92054171965E-02  0.25054484416E-01  0.00000000000E+00 0. -1.
     999901    1    3    3    0    0 -0.11173982027E+00 -0.60802620451E-01 -0.69862001369E-01  0.89188757437E+00  0.88000000000E+00 0.  1.
        -11    1    4    4    0    0  0.32582333289E-01  0.22078307547E-01  0.32841333943E-01  0.51262797844E-01  0.51100000000E-03 0. -1.
         11    1    4    4    0    0  0.56162970953E-01  0.42497867771E-01  0.27815250229E-01  0.75725143365E-01  0.51100000000E-03 0.  1.
</event>
<event>
 8    1  0.1112929E+005  0.1043930E+01  0.7957747E-01            NaN
         13   -1    0    0    0    0  0.00000000000E+00  0.00000000000E+00  0.74505805969E-08  0.10566000000E+00  0.10566000000E+00 0.  1.
     999900   -1    0    0    0    0 -0.00000000000E+00 -0.00000000000E+00 -0.74505805969E-08  0.93827000000E+00  0.93827000000E+00 0.  1.
     999902    2    1    2    0    0 -0.10923421480E-01 -0.15621945113E-01 -0.12321318919E-01  0.10212323965E+01  0.10209801303E+01 0.  0.
     999903    2    3    3    0    0  0.75841875130E-01 -0.36328995965E-01  0.96930634460E-01  0.13000123231E+00  0.20808328504E-01 0.  0.
         14    1    1    2    0    0  0.10923421480E-01  0.15621945113E-01  0.12321318919E-01  0.22697603527E-01  0.00000000000E+00 0. -1.
     999901    1    3    3    0    0 -0.86765296611E-01  0.20707050851E-01 -0.10925195338E+00  0.89123116416E+00  0.88000000000E+00 0.  1.
        -11    1    4    4    0    0  0.28471141191E-01 -0.24098412691E-01  0.35817162487E-01  0.51715274577E-01  0.51100000000E-03 0. -1.
         11    1    4    4    0    0  0.47370733939E-01 -0.12230583274E-01  0.61113471973E-01  0.78285957737E-01  0.51100000000E-03 0.  1.
</event>
<event>
 8    1  0.1112929E+005  0.1043930E+01  0.7957747E-01            NaN
         13   -1    0    0    0    0  0.00000000000E+00  0.00000000000E+00  0.74505805969E-08  0.10566000000E+00  0.10566000000E+00 0. -1.
     999900   -1    0    0    0    0 -0.00000000000E+00 -0.00000000000E+00 -0.74505805969E-08  0.93827000000E+00  0.93827000000E+00 0. -1.
     999902    2    1    2    0    0  0.84272255952E-02 -0.17378233588E-01 -0.13961246805E-01  0.10200985597E+01  0.10198201479E+01 0.  0.
     999903    2    3    3    0    0  0.45584193357E-01 -0.29454486009E-01  0.11606130713E+00  0.12968722743E+00  0.20076466692E-01 0.  0.
         14    1    1    2    0    0 -0.84272255952E-02  0.17378233588E-01  0.13961246805E-01  0.23831440289E-01  0.00000000000E+00 0. -1.
     999901    1    3    3    0    0 -0.37156967762E-01  0.12076252421E-01 -0.13002255394E+00  0.89041133228E+00  0.88000000000E+00 0. -1.
        -11    1    4    4    0    0  0.13356908679E-01 -0.19872753632E-01  0.54784389750E-01  0.59790666727E-01  0.51100000000E-03 0.  1.
         11    1    4    4    0    0  0.32227284678E-01 -0.95817323768E-02  0.61276917382E-01  0.69896560701E-01  0.51100000000E-03 0. -1.
</event>
<event>
 8    1  0.1112929E+005  0.1043930E+01  0.7957747E-01            NaN
         13   -1    0    0    0    0  0.00000000000E+00  0.00000000000E+00  0.74505805969E-08  0.10566000000E+00  0.10566000000E+00 0.  1.
     999900   -1    0    0    0    0 -0.00000000000E+00 -0.00000000000E+00 -0.74505805969E-08  0.93827000000E+00  0.93827000000E+00 0. -1.
     999902    2    1    2    0    0 -0.21531460924E-01 -0.20944606065E-02 -0.12563554915E-01  0.10189133358E+01  0.10186061812E+01 0.  0.
     999903    2    3    3    0    0  0.78017645636E-01 -0.44315452928E-01 -0.90284580171E-01  0.12889468737E+00  0.20295876866E-01 0.  0.
         14    1    1    2    0    0  0.21531460924E-01  0.20944606065E-02  0.12563554915E-01  0.25016664183E-01  0.00000000000E+00 0.  1.
     999901    1    3    3    0    0 -0.99549106560E-01  0.42220992322E-01  0.77721025256E-01  0.89001864844E+00  0.88000000000E+00 0.  1.
        -11    1    4    4    0    0  0.69975121777E-01 -0.33244316276E-01 -0.82369056808E-01  0.11307795927E+00  0.51100000000E-03 0.  1.
         11    1    4    4    0    0  0.80425238585E-02 -0.11071136652E-01 -0.79155233636E-02  0.15816728103E-01  0.51100000000E-03 0. -1.
</event>
<event>
 7    1  0.1112929E+005  0.1043930E+01  0.7957747E-01            NaN
         13   -1    0    0    0    0  0.00000000000E+00  0.00000000000E+00  0.74505805969E-08  0.10566000000E+00  0.10566000000E+00 0.  1.
     999900   -1    0    0    0    0 -0.00000000000E+00 -0.00000000000E+00 -0.74505805969E-08  0.93827000000E+00  0.93827000000E+00 0. -1.
     999902    2    1    2    0    0 -0.76128673114E-02 -0.25803100731E-01 -0.10658862685E-01  0.10149927038E+01  0.10145801209E+01 0.  0.
         14    1    1    2    0    0  0.76128673114E-02  0.25803100731E-01  0.10658862685E-01  0.28937296173E-01  0.00000000000E+00 0. -1.
     999901    1    3    3    0    0 -0.53159819240E-01 -0.10275899772E+00  0.65041837581E-01  0.88995270584E+00  0.88000000000E+00 0.  1.
        -11    1    3    3    0    0  0.43810990579E-01  0.81340130829E-01 -0.76833590816E-01  0.12016356177E+00  0.51100000000E-03 0. -1.
         11    1    3    3    0    0  0.17359613488E-02 -0.43842338421E-02  0.11328905494E-02  0.48764362175E-02  0.51100000000E-03 0.  1.
</event>
<event>
 8    1  0.1112929E+005  0.1043930E+01  0.7957747E-01            NaN
         13   -1    0    0    0    0  0.00000000000E+00  0.00000000000E+00  0.74505805969E-08  0.10566000000E+00  0.10566000000E+00 0. -1.
     999900   -1    0    0    0    0 -0.00000000000E+00 -0.00000000000E+00 -0.74505805969E-08  0.93827000000E+00  0.93827000000E+00 0.  1.
     999902    2    1    2    0    0  0.55389482644E-02  0.21610427248E-01 -0.95165320414E-02  0.10196760334E+01  0.10193875407E+01 0.  0.
     999903    2    3    3    0    0 -0.38239459094E-01 -0.93767309385E-01 -0.75385754026E-01  0.12862759169E+00  0.24647127502E-01 0.  0.
         14    1    1    2    0    0 -0.55389482644E-02 -0.21610427248E-01  0.95165320414E-02  0.24253966600E-01  0.00000000000E+00 0. -1.
     999901    1    3    3    0    0  0.43778407358E-01  0.11537773663E+00  0.65869221985E-01  0.89104844171E+00  0.88000000000E+00 0.  1.
        -11    1    4    4    0    0 -0.77470459586E-02 -0.24444415626E-01 -0.69976617292E-02  0.26585232124E-01  0.51100000000E-03 0. -1.
         11    1    4    4    0    0 -0.30492413135E-01 -0.69322893758E-01 -0.68388092297E-01  0.10204235957E+00  0.51100000000E-03 0.  1.
</event>
<event>
 8    1  0.1112929E+005  0.1043930E+01  0.7957747E-01            NaN
         13   -1    0    0    0    0  0.00000000000E+00  0.00000000000E+00  0.74505805969E-08  0.10566000000E+00  0.10566000000E+00 0.  1.
     999900   -1    0    0    0    0 -0.00000000000E+00 -0.00000000000E+00 -0.74505805969E-08  0.93827000000E+00  0.93827000000E+00 0. -1.
     999902    2    1    2    0    0  0.15628551806E-01  0.30806627749E-02  0.13846354903E-01  0.10228239900E+01  0.10226062052E+01 0.  0.
     999903    2    3    3    0    0  0.85015430319E-01 -0.10008801013E+00  0.18602627434E-01  0.13407152945E+00  0.19592960392E-01 0.  0.
         14    1    1    2    0    0 -0.15628551806E-01 -0.30806627749E-02 -0.13846354903E-01  0.21106010016E-01  0.00000000000E+00 0. -1.
     999901    1    3    3    0    0 -0.69386878513E-01  0.10316867291E+00 -0.47562725308E-02  0.88875246054E+00  0.88000000000E+00 0.  1.
        -11    1    4    4    0    0  0.33940239348E-01 -0.26061592257E-01  0.44289144558E-02  0.43023514992E-01  0.51100000000E-03 0. -1.
         11    1    4    4    0    0  0.51075190971E-01 -0.74026417874E-01  0.14173712978E-01  0.91048014457E-01  0.51100000000E-03 0.  1.
</event>
<event>
 8    1  0.1112929E+005  0.1043930E+01  0.7957747E-01            NaN
         13   -1    0    0    0    0  0.00000000000E+00  0.00000000000E+00  0.74505805969E-08  0.10566000000E+00  0.10566000000E+00 0. -1.
     999900   -1    0    0    0    0 -0.00000000000E+00 -0.00000000000E+00 -0.74505805969E-08  0.93827000000E+00  0.93827000000E+00 0.  1.
     999902    2    1    2    0    0 -0.17006804684E-02  0.11723591585E-01  0.14793623184E-01  0.10249777917E+01  0.10248025601E+01 0.  0.
     999903    2    3    3    0    0  0.12936820531E+00  0.62900005732E-02  0.33497338481E-01  0.13505734259E+00  0.18512629444E-01 0.  0.
         14    1    1    2    0    0  0.17006804684E-02 -0.11723591585E-01 -0.14793623184E-01  0.18952208331E-01  0.00000000000E+00 0.  1.
     999901    1    3    3    0    0 -0.13106888578E+00  0.54335910119E-02 -0.18703715297E-01  0.88992044908E+00  0.88000000000E+00 0. -1.
        -11    1    4    4    0    0  0.29237150511E-01  0.22881151377E-02 -0.19855248827E-03  0.29331672046E-01  0.51100000000E-03 0.  1.
         11    1    4    4    0    0  0.10013105480E+00  0.40018854355E-02  0.33695890970E-01  0.10572567054E+00  0.51100000000E-03 0. -1.
</event>
<event>
 8    1  0.1112929E+005  0.1043930E+01  0.7957747E-01            NaN
         13   -1    0    0    0    0  0.00000000000E+00  0.00000000000E+00  0.74505805969E-08  0.10566000000E+00  0.10566000000E+00 0. -1.
     999900   -1    0    0    0    0 -0.00000000000E+00 -0.00000000000E+00 -0.74505805969E-08  0.93827000000E+00  0.93827000000E+00 0.  1.
     999902    2    1    2    0    0 -0.46944665933E-02  0.29857540080E-01 -0.74215361635E-02  0.10128078228E+01  0.10123295392E+01 0.  0.
     999903    2    3    3    0    0 -0.65554464026E-01 -0.74533522263E-01  0.67234298808E-01  0.12141849881E+00  0.19218928747E-01 0.  0.
         14    1    1    2    0    0  0.46944665933E-02 -0.29857540080E-01  0.74215361635E-02  0.31122177226E-01  0.00000000000E+00 0.  1.
     999901    1    3    3    0    0  0.60859997433E-01  0.10439106234E+00 -0.74655834971E-01  0.89138932397E+00  0.88000000000E+00 0.  1.
        -11    1    4    4    0    0 -0.19814335095E-01 -0.36791166288E-01  0.26964377150E-01  0.49734661436E-01  0.51100000000E-03 0.  1.
         11    1    4    4    0    0 -0.45740128931E-01 -0.37742355975E-01  0.40269921658E-01  0.71683837373E-01  0.51100000000E-03 0. -1.
</event>
<event>
 8    1  0.1112929E+005  0.1043930E+01  0.7957747E-01            NaN
         13   -1    0    0    0    0  0.00000000000E+00  0.00000000000E+00  0.74505805969E-08  0.10566000000E+00  0.10566000000E+00 0. -1.
     999900   -1    0    0    0    0 -0.00000000000E+00 -0.00000000000E+00 -0.74505805969E-08  0.93827000000E+00  0.93827000000E+00 0. -1.
     999902    2    1    2    0    0  0.88071048234E-02 -0.14623834483E-02 -0.21430398636E-01  0.10207143663E+01  0.10204503182E+01 0.  0.
     999903    2    3    3    0    0  0.32051366384E-01 -0.12581910238E+00  0.59687565370E-02  0.13124508472E+00  0.18218386259E-01 0.  0.
         14    1    1    2    0    0 -0.88071048234E-02  0.14623834483E-02  0.21430398636E-01  0.23215633664E-01  0.00000000000E+00 0. -1.
     999901    1    3    3    0    0 -0.23244261560E-01  0.12435671893E+00 -0.27399155173E-01  0.88946928162E+00  0.88000000000E+00 0.  1.
        -11    1    4    4    0    0  0.17046697344E-01 -0.33768646804E-01  0.92834383788E-03  0.37842229593E-01  0.51100000000E-03 0.  1.
         11    1    4    4    0    0  0.15004669040E-01 -0.92050455573E-01  0.50404126991E-02  0.93402855125E-01  0.51100000000E-03 0. -1.
</event>
<event>
 7    1  0.1112929E+005  0.1043930E+01  0.7957747E-01            NaN
         13   -1    0    0    0    0  0.00000000000E+00  0.00000000000E+00  0.74505805969E-08  0.10566000000E+00  0.10566000000E+00 0.  1.
     999900   -1    0    0    0    0 -0.00000000000E+00 -0.00000000000E+00 -0.74505805969E-08  0.93827000000E+00  0.93827000000E+00 0. -1.
     999902    2    1    2    0    0 -0.16628026514E-01 -0.13959091749E-01  0.70409261245E-02  0.10211062810E+01  0.10208511718E+01 0.  0.
         14    1    1    2    0    0  0.16628026514E-01  0.13959091749E-01 -0.70409261245E-02  0.22823718998E-01  0.00000000000E+00 0. -1.
     999901    1    3    3    0    0 -0.31654478769E-01  0.90579953252E-01  0.73080701656E-01  0.88822717979E+00  0.88000000000E+00 0.  1.
        -11    1    3    3    0    0 -0.13872348682E-01 -0.24413930651E-01 -0.27777929875E-01  0.39501349052E-01  0.51100000000E-03 0.  1.
         11    1    3    3    0    0  0.28898800937E-01 -0.80125114350E-01 -0.38261845656E-01  0.93377752164E-01  0.51100000000E-03 0. -1.
</event>
<event>
 8    1  0.1112929E+005  0.1043930E+01  0.7957747E-01            NaN
         13   -1    0    0    0    0  0.00000000000E+00  0.00000000000E+00  0.74505805969E-08  0.10566000000E+00  0.10566000000E+00 0.  1.
     999900   -1    0    0    0    0 -0.00000000000E+00 -0.00000000000E+00 -0.74505805969E-08  0.93827000000E+00  0.93827000000E+00 0.  1.
     999902    2    1    2    0    0  0.11848229822E-01 -0.16602281521E-01 -0.12325871683E-01  0.10200984366E+01  0.10198200218E+01 0.  0.
     999903    2    3    3    0    0  0.86883031703E-01  0.18966922495E-01 -0.95736870361E-01  0.13226242445E+00  0.20479141265E-01 0.  0.
         14    1    1    2    0    0 -0.11848229822E-01  0.16602281521E-01  0.12325871683E-01  0.23831563406E-01  0.00000000000E+00 0.  1.
     999901    1    3    3    0    0 -0.75034801880E-01 -0.35569204015E-01  0.83410998678E-01  0.88783601215E+00  0.88000000000E+00 0. -1.
        -11    1    4    4    0    0  0.47331541427E-01  0.12889892020E-01 -0.66794033646E-01  0.82874170776E-01  0.51100000000E-03 0.  1.
         11    1    4    4    0    0  0.39551490275E-01  0.60770304742E-02 -0.28942836715E-01  0.49388253669E-01  0.51100000000E-03 0. -1.
</event>
<event>
 8    1  0.1112929E+005  0.1043930E+01  0.7957747E-01            NaN
         13   -1    0    0    0    0  0.00000000000E+00  0.00000000000E+00  0.74505805969E-08  0.10566000000E+00  0.10566000000E+00 0. -1.
     999900   -1    0    0    0    0 -0.00000000000E+00 -0.00000000000E+00 -0.74505805969E-08  0.93827000000E+00  0.93827000000E+00 0.  1.
     999902    2    1    2    0    0  0.43647840106E-02 -0.16890638851E-02  0.23282436676E-01  0.10201818183E+01  0.10199053712E+01 0.  0.
     999903    2    3    3    0    0 -0.73652375060E-01 -0.10446550568E+00 -0.13931101617E-01  0.12999390470E+00  0.19147465543E-01 0.  0.
         14    1    1    2    0    0 -0.43647840106E-02  0.16890638851E-02 -0.23282436676E-01  0.23748181695E-01  0.00000000000E+00 0.  1.
     999901    1    3    3    0    0  0.78017159071E-01  0.10277644180E+00  0.37213538293E-01  0.89018791361E+00  0.88000000000E+00 0.  1.
        -11    1    4    4    0    0 -0.23176187303E-01 -0.45705943363E-01  0.20912617522E-03  0.51249134348E-01  0.51100000000E-03 0.  1.
         11    1    4    4    0    0 -0.50476187757E-01 -0.58759562321E-01 -0.14140227792E-01  0.78744770351E-01  0.51100000000E-03 0. -1.
</event>
<event>
 8    1  0.1112929E+005  0.1043930E+01  0.7957747E-01            NaN
         13   -1    0    0    0    0  0.00000000000E+00  0.00000000000E+00  0.74505805969E-08  0.10566000000E+00  0.10566000000E+00 0.  1.
     999900   -1    0    0    0    0 -0.00000000000E+00 -0.00000000000E+00 -0.74505805969E-08  0.93827000000E+00  0.93827000000E+00 0.  1.
     999902    2    1    2    0    0  0.12289308212E-01 -0.13596064906E-01 -0.14243137430E-01  0.10207190750E+01  0.10204551352E+01 0.  0.
     999903    2    3    3    0    0 -0.64323299467E-01  0.76840179826E-01 -0.81133051917E-01  0.13025713491E+00  0.18505377396E-01 0.  0.
         14    1    1    2    0    0 -0.12289308212E-01  0.13596064906E-01  0.14243137430E-01  0.23210925037E-01  0.00000000000E+00 0.  1.
     999901    1    3    3    0    0  0.76612607679E-01 -0.90436244731E-01  0.66889914487E-01  0.89046194005E+00  0.88000000000E+00 0.  1.
        -11    1    4    4    0    0 -0.17835448659E-01  0.10192915634E-01 -0.18670846131E-01  0.27764372391E-01  0.51100000000E-03 0. -1.
         11    1    4    4    0    0 -0.46487850808E-01  0.66647264191E-01 -0.62462205786E-01  0.10249276252E+00  0.51100000000E-03 0.  1.
</event>
<event>
 8    1  0.1112929E+005  0.1043930E+01  0.7957747E-01            NaN
         13   -1    0    0    0    0  0.00000000000E+00  0.00000000000E+00  0.74505805969E-08  0.10566000000E+00  0.10566000000E+00 0.  1.
     999900   -1    0    0    0    0 -0.00000000000E+00 -0.00000000000E+00 -0.74505805969E-08  0.93827000000E+00  0.93827000000E+00 0.  1.
     999902    2    1    2    0    0  0.20248938142E-01 -0.99934298968E-02  0.85173033451E-02  0.10197963597E+01  0.10195107565E+01 0.  0.
     999903    2    3    3    0    0  0.12345016387E-02  0.12415531829E+00  0.29624284831E-01  0.12917694599E+00  0.19824683341E-01 0.  0.
         14    1    1    2    0    0 -0.20248938142E-01  0.99934298968E-02 -0.85173033451E-02  0.24133640282E-01  0.00000000000E+00 0.  1.
     999901    1    3    3    0    0  0.19014436503E-01 -0.13414874819E+00 -0.21106981486E-01  0.89061941373E+00  0.88000000000E+00 0.  1.
        -11    1    4    4    0    0  0.25128085982E-02  0.18750403920E-01 -0.22285081617E-02  0.19055687441E-01  0.51100000000E-03 0. -1.
         11    1    4    4    0    0 -0.12783069594E-02  0.10540491437E+00  0.31852792993E-01  0.11012125855E+00  0.51100000000E-03 0.  1.
</event>
<event>
 8    1  0.1112929E+005  0.1043930E+01  0.7957747E-01            NaN
         13   -1    0    0    0    0  0.00000000000E+00  0.00000000000E+00  0.74505805969E-08  0.10566000000E+00  0.10566000000E+00 0. -1.
     999900   -1    0    0    0    0 -0.00000000000E+00 -0.00000000000E+00 -0.74505805969E-08  0.93827000000E+00  0.93827000000E+00 0. -1.
     999902    2    1    2    0    0 -0.16090464374E-01 -0.16729110027E-01  0.59956573700E-02  0.10199568051E+01  0.10196750317E+01 0.  0.
     999903    2    3    3    0    0 -0.89691833590E-01  0.38287220555E-01  0.86090280659E-01  0.13155424609E+00  0.19607319318E-01 0.  0.
         14    1    1    2    0    0  0.16090464374E-01  0.16729110027E-01 -0.59956573700E-02  0.23973194893E-01  0.00000000000E+00 0.  1.
     999901    1    3    3    0    0  0.73601369216E-01 -0.55016330583E-01 -0.80094623289E-01  0.88840255901E+00  0.88000000000E+00 0. -1.
        -11    1    4    4    0    0 -0.31845463403E-01  0.18902148170E-01  0.43594277974E-01  0.57202682961E-01  0.51100000000E-03 0.  1.
         11    1    4    4    0    0 -0.57846370187E-01  0.19385072385E-01  0.42496002684E-01  0.74351563133E-01  0.51100000000E-03 0. -1.
</event>
<event>
 8    1  0.1112929E+005  0.1043930E+01  0.7957747E-01            NaN
         13   -1    0    0    0    0  0.00000000000E+00  0.00000000000E+00  0.74505805969E-08  0.10566000000E+00  0.10566000000E+00 0.  1.
     999900   -1    0    0    0    0 -0.00000000000E+00 -0.00000000000E+00 -0.74505805969E-08  0.93827000000E+00  0.93827000000E+00 0. -1.
     999902    2    1    2    0    0 -0.95427536710E-02 -0.21051643156E-01  0.73682471420E-02  0.10196704268E+01  0.10193817991E+01 0.  0.
     999903    2    3    3    0    0 -0.11805546137E+00 -0.43085882038E-01 -0.34519166335E-01  0.13174302500E+00  0.19265684533E-01 0.  0.
         14    1    1    2    0    0  0.95427536710E-02  0.21051643156E-01 -0.73682471420E-02  0.24259573227E-01  0.00000000000E+00 0. -1.
     999901    1    3    3    0    0  0.10851270770E+00  0.22034238882E-01  0.41887413477E-01  0.88792740178E+00  0.88000000000E+00 0.  1.
        -11    1    4    4    0    0 -0.49955138927E-01 -0.22207739947E-01 -0.24126181374E-01  0.59758123862E-01  0.51100000000E-03 0.  1.
         11    1    4    4    0    0 -0.68100322445E-01 -0.20878142091E-01 -0.10392984961E-01  0.71984901137E-01  0.51100000000E-03 0. -1.
</event>
<event>
 8    1  0.1112929E+005  0.1043930E+01  0.7957747E-01            NaN
         13   -1    0    0    0    0  0.00000000000E+00  0.00000000000E+00  0.74505805969E-08  0.10566000000E+00  0.10566000000E+00 0. -1.
     999900   -1    0    0    0    0 -0.00000000000E+00 -0.00000000000E+00 -0.74505805969E-08  0.93827000000E+00  0.93827000000E+00 0.  1.
     999902    2    1    2    0    0 -0.15919237080E-02  0.37237280338E-02  0.24275669059E-01  0.10193188546E+01  0.10190216969E+01 0.  0.
     999903    2    3    3    0    0 -0.40300122750E-01  0.55101761204E-01  0.11189614328E+00  0.13263098701E+00  0.20246675071E-01 0.  0.
         14    1    1    2    0    0  0.15919237080E-02 -0.37237280338E-02 -0.24275669059E-01  0.24611145439E-01  0.00000000000E+00 0.  1.
     999901    1    3    3    0    0  0.38708199042E-01 -0.51378033170E-01 -0.87620474224E-01  0.88668786755E+00  0.88000000000E+00 0.  1.
        -11    1    4    4    0    0 -0.28651253763E-01  0.33059327424E-01  0.87069024990E-01  0.97442750914E-01  0.51100000000E-03 0. -1.
         11    1    4    4    0    0 -0.11648868986E-01  0.22042433780E-01  0.24827118292E-01  0.35188236093E-01  0.51100000000E-03 0.  1.
</event>
<event>
 8    1  0.1112929E+005  0.1043930E+01  0.7957747E-01            NaN
         13   -1    0    0    0    0  0.00000000000E+00  0.00000000000E+00  0.74505805969E-08  0.10566000000E+00  0.10566000000E+00 0. -1.
     999900   -1    0    0    0    0 -0.00000000000E+00 -0.00000000000E+00 -0.74505805969E-08  0.93827000000E+00  0.93827000000E+00 0. -1.
     999902    2    1    2    0    0  0.12651706370E-01  0.15084270722E-02 -0.22637397462E-01  0.10179532259E+01  0.10176217261E+01 0.  0.
     999903    2    3    3    0    0  0.11917506389E+00 -0.16328564602E-01 -0.46819154298E-01  0.13102022885E+00  0.22471076621E-01 0.  0.
         14    1    1    2    0    0 -0.12651706370E-01 -0.15084270722E-02  0.22637397462E-01  0.25976774052E-01  0.00000000000E+00 0. -1.
     999901    1    3    3    0    0 -0.10652335752E+00  0.17836991674E-01  0.24181756836E-01  0.88693299709E+00  0.88000000000E+00 0.  1.
        -11    1    4    4    0    0  0.11144660092E+00 -0.92207234619E-02 -0.43578170671E-01  0.12001951790E+00  0.51100000000E-03 0. -1.
         11    1    4    4    0    0  0.77284629729E-02 -0.71078411397E-02 -0.32409836262E-02  0.11000710952E-01  0.51100000000E-03 0.  1.
</event>
<event>
 8    1  0.1112929E+005  0.1043930E+01  0.7957747E-01            NaN
         13   -1    0    0    0    0  0.00000000000E+00  0.00000000000E+00  0.74505805969E-08  0.10566000000E+00  0.10566000000E+00 0.  1.
     999900   -1    0    0    0    0 -0.00000000000E+00 -0.00000000000E+00 -0.74505805969E-08  0.93827000000E+00  0.93827000000E+00 0. -1.
     999902    2    1    2    0    0 -0.11030165533E-01 -0.87685701064E-02 -0.18632798552E-01  0.10205690592E+01  0.10203016569E+01 0.  0.
     999903    2    3    3    0    0 -0.56173139051E-01  0.10650501802E+00  0.43800664067E-01  0.12971338882E+00  0.20207044648E-01 0.  0.
         14    1    1    2    0    0  0.11030165533E-01  0.87685701064E-02  0.18632798552E-01  0.23360940805E-01  0.00000000000E+00 0.  1.
     999901    1    3    3    0    0  0.45142973517E-01 -0.11527358813E+00 -0.62433462619E-01  0.89085567037E+00  0.88000000000E+00 0.  1.
        -11    1    4    4    0    0 -0.31865708150E-02  0.20047834900E-01  0.11246716453E-01  0.23212489520E-01  0.51100000000E-03 0.  1.
         11    1    4    4    0    0 -0.52986568236E-01  0.86457183119E-01  0.32553947614E-01  0.10650089930E+00  0.51100000000E-03 0. -1.
</event>
<event>
 8    1  0.1112929E+005  0.1043930E+01  0.7957747E-01            NaN
         13   -1    0    0    0    0  0.00000000000E+00  0.00000000000E+00  0.74505805969E-08  0.10566000000E+00  0.10566000000E+00 0.  1.
     999900   -1    0    0    0    0 -0.00000000000E+00 -0.00000000000E+00 -0.74505805969E-08  0.93827000000E+00  0.93827000000E+00 0.  1.
     999902    2    1    2    0    0  0.14494962005E-01 -0.34110763030E-03  0.18020190276E-01  0.10208010671E+01  0.10205390101E+01 0.  0.
     999903    2    3    3    0    0  0.13955480665E-01 -0.20049289856E-01  0.12975763057E+00  0.13351646846E+00  0.19821079511E-01 0.  0.
         14    1    1    2    0    0 -0.14494962005E-01  0.34110763030E-03 -0.18020190276E-01  0.23128932866E-01  0.00000000000E+00 0. -1.
     999901    1    3    3    0    0  0.53948133961E-03  0.19708182226E-01 -0.11173744030E+00  0.88728459868E+00  0.88000000000E+00 0.  1.
        -11    1    4    4    0    0 -0.19172332563E-02 -0.90323934599E-03  0.48209853683E-01  0.48259120773E-01  0.51100000000E-03 0.  1.
         11    1    4    4    0    0  0.15872713921E-01 -0.19146050510E-01  0.81547776890E-01  0.85257347684E-01  0.51100000000E-03 0. -1.
</event>
<event>
 8    1  0.1112929E+005  0.1043930E+01  0.7957747E-01            NaN
         13   -1    0    0    0    0  0.00000000000E+00  0.00000000000E+00  0.74505805969E-08  0.10566000000E+00  0.10566000000E+00 0. -1.
     999900   -1    0    0    0    0 -0.00000000000E+00 -0.00000000000E+00 -0.74505805969E-08  0.93827000000E+00  0.93827000000E+00 0.  1.
     999902    2    1    2    0    0  0.14929915553E-01 -0.12925890162E-01  0.10406985811E-01  0.10216076711E+01  0.10213637683E+01 0.  0.
     999903    2    3    3    0    0  0.97297074233E-01  0.86928903349E-01  0.43213916471E-02  0.13211772562E+00  0.20323978567E-01 0.  0.
         14    1    1    2    0    0 -0.14929915553E-01  0.12925890162E-01 -0.10406985811E-01  0.22322328924E-01  0.00000000000E+00 0.  1.
     999901    1    3    3    0    0 -0.82367158680E-01 -0.99854793511E-01  0.60855941642E-02  0.88948994546E+00  0.88000000000E+00 0. -1.
        -11    1    4    4    0    0  0.81805683337E-01  0.81881861233E-01  0.36691062539E-02  0.11580385351E+00  0.51100000000E-03 0. -1.
         11    1    4    4    0    0  0.15491390896E-01  0.50470421153E-02  0.65228539320E-03  0.16313872111E-01  0.51100000000E-03 0.  1.
</event>
<event>
 8    1  0.1112929E+005  0.1043930E+01  0.7957747E-01            NaN
         13   -1    0    0    0    0  0.00000000000E+00  0.00000000000E+00  0.74505805969E-08  0.10566000000E+00  0.10566000000E+00 0.  1.
     999900   -1    0    0    0    0 -0.00000000000E+00 -0.00000000000E+00 -0.74505805969E-08  0.93827000000E+00  0.93827000000E+00 0. -1.
     999902    2    1    2    0    0 -0.90424208138E-02 -0.20739784923E-01 -0.55917227795E-02  0.10206239618E+01  0.10203578294E+01 0.  0.
     999903    2    3    3    0    0  0.79233637590E-02 -0.16819800289E-01 -0.12910641959E+00  0.13182753716E+00  0.19087865276E-01 0.  0.
         14    1    1    2    0    0  0.90424208138E-02  0.20739784923E-01  0.55917227795E-02  0.23306038197E-01  0.00000000000E+00 0.  1.
     999901    1    3    3    0    0 -0.16965784573E-01 -0.39199846339E-02  0.12351469681E+00  0.88879642464E+00  0.88000000000E+00 0.  1.
        -11    1    4    4    0    0  0.12338928010E-01 -0.66038517988E-02 -0.92782809603E-01  0.93833740637E-01  0.51100000000E-03 0. -1.
         11    1    4    4    0    0 -0.44155642510E-02 -0.10215948490E-01 -0.36323609984E-01  0.37993796526E-01  0.51100000000E-03 0.  1.
</event>
<event>
 8    1  0.1112929E+005  0.1043930E+01  0.7957747E-01            NaN
         13   -1    0    0    0    0  0.00000000000E+00  0.00000000000E+00  0.74505805969E-08  0.10566000000E+00  0.10566000000E+00 0.  1.
     999900   -1    0    0    0    0 -0.00000000000E+00 -0.00000000000E+00 -0.74505805969E-08  0.93827000000E+00  0.93827000000E+00 0. -1.
     999902    2    1    2    0    0 -0.22270512934E-01 -0.30547743959E-02  0.82033053880E-02  0.10200009045E+01  0.10197201790E+01 0.  0.
     999903    2    3    3    0    0 -0.67470283113E-01  0.10844695027E+00  0.25182062692E-01  0.13165191223E+00  0.19624209194E-01 0.  0.
         14    1    1    2    0    0  0.22270512934E-01  0.30547743959E-02 -0.82033053880E-02  0.23929095517E-01  0.00000000000E+00 0. -1.
     999901    1    3    3    0    0  0.45199770179E-01 -0.11150172467E+00 -0.16978757304E-01  0.88834899225E+00  0.88000000000E+00 0. -1.
        -11    1    4    4    0    0 -0.45465977982E-01  0.73028620553E-01  0.26235778796E-01  0.89938377702E-01  0.51100000000E-03 0. -1.
         11    1    4    4    0    0 -0.22004305131E-01  0.35418329722E-01 -0.10537161039E-02  0.41713534533E-01  0.51100000000E-03 0.  1.
</event>
<event>
 8    1  0.1112929E+005  0.1043930E+01  0.7957747E-01            NaN
         13   -1    0    0    0    0  0.00000000000E+00  0.00000000000E+00  0.74505805969E-08  0.10566000000E+00  0.10566000000E+00 0. -1.
     999900   -1    0    0    0    0 -0.00000000000E+00 -0.00000000000E+00 -0.74505805969E-08  0.93827000000E+00  0.93827000000E+00 0.  1.
     999902    2    1    2    0    0  0.18402526151E-01  0.79211376109E-02 -0.12499394664E-01  0.10203157616E+01  0.10200424604E+01 0.  0.
     999903    2    3    3    0    0  0.95474116351E-01 -0.88487326556E-01 -0.17754947865E-02  0.13163717850E+00  0.19490524033E-01 0.  0.
         14    1    1    2    0    0 -0.18402526151E-01 -0.79211376109E-02  0.12499394664E-01  0.23614238432E-01  0.00000000000E+00 0. -1.
     999901    1    3    3    0    0 -0.77071590200E-01  0.96408464167E-01 -0.10723899878E-01  0.88867858307E+00  0.88000000000E+00 0. -1.
        -11    1    4    4    0    0  0.35692338514E-01 -0.24948434191E-01  0.63751047282E-02  0.44014434888E-01  0.51100000000E-03 0. -1.
         11    1    4    4    0    0  0.59781777837E-01 -0.63538892365E-01 -0.81505995147E-02  0.87622743610E-01  0.51100000000E-03 0.  1.
</event>
<event>
 8    1  0.1112929E+005  0.1043930E+01  0.7957747E-01            NaN
         13   -1    0    0    0    0  0.00000000000E+00  0.00000000000E+00  0.74505805969E-08  0.10566000000E+00  0.10566000000E+00 0. -1.
     999900   -1    0    0    0    0 -0.00000000000E+00 -0.00000000000E+00 -0.74505805969E-08  0.93827000000E+00  0.93827000000E+00 0.  1.
     999902    2    1    2    0    0 -0.33174396061E-02  0.16324526347E-01 -0.17368766753E-01  0.10198640567E+01  0.10195800727E+01 0.  0.
     999903    2    3    3    0    0 -0.96097022883E-01  0.62167433090E-01 -0.63908297235E-01  0.13257856094E+00  0.19833729410E-01 0.  0.
         14    1    1    2    0    0  0.33174396061E-02 -0.16324526347E-01  0.17368766753E-01  0.24065943250E-01  0.00000000000E+00 0. -1.
     999901    1    3    3    0    0  0.92779583277E-01 -0.45842906743E-01  0.46539530482E-01  0.88728549581E+00  0.88000000000E+00 0. -1.
        -11    1    4    4    0    0 -0.87327980421E-01  0.52918398645E-01 -0.49963867993E-01  0.11368017552E+00  0.51100000000E-03 0. -1.
         11    1    4    4    0    0 -0.87690424621E-02  0.92490344449E-02 -0.13944429242E-01  0.18898385427E-01  0.51100000000E-03 0.  1.
</event>
<event>
 8    1  0.1112929E+005  0.1043930E+01  0.7957747E-01            NaN
         13   -1    0    0    0    0  0.00000000000E+00  0.00000000000E+00  0.74505805969E-08  0.10566000000E+00  0.10566000000E+00 0. -1.
     999900   -1    0    0    0    0 -0.00000000000E+00 -0.00000000000E+00 -0.74505805969E-08  0.93827000000E+00  0.93827000000E+00 0. -1.
     999902    2    1    2    0    0  0.15469177465E-01  0.40913594453E-03  0.12519111430E-01  0.10240254529E+01  0.10238319868E+01 0.  0.
     999903    2    3    3    0    0  0.66080109039E-01  0.90718544505E-01 -0.71026584258E-01  0.13402706025E+00  0.17945530961E-01 0.  0.
         14    1    1    2    0    0 -0.15469177465E-01 -0.40913594453E-03 -0.12519111430E-01  0.19904547085E-01  0.00000000000E+00 0.  1.
     999901    1    3    3    0    0 -0.50610931575E-01 -0.90309408560E-01  0.83545695689E-01  0.88999839266E+00  0.88000000000E+00 0.  1.
        -11    1    4    4    0    0  0.11614362992E-01  0.29221040311E-01 -0.21630328932E-01  0.38169292308E-01  0.51100000000E-03 0.  1.
         11    1    4    4    0    0  0.54465746047E-01  0.61497504194E-01 -0.49396255326E-01  0.95857767947E-01  0.51100000000E-03 0. -1.
</event>
<event>
 8    1  0.1112929E+005  0.1043930E+01  0.7957747E-01            NaN
         13   -1    0    0    0    0  0.00000000000E+00  0.00000000000E+00  0.74505805969E-08  0.10566000000E+00  0.10566000000E+00 0.  1.
     999900   -1    0    0    0    0 -0.00000000000E+00 -0.00000000000E+00 -0.74505805969E-08  0.93827000000E+00  0.93827000000E+00 0. -1.
     999902    2    1    2    0    0  0.19727331065E-01 -0.83220989319E-02  0.10369810512E-01  0.10201401305E+01  0.10198627005E+01 0.  0.
     999903    2    3    3    0    0  0.41564080727E-01 -0.11819778080E+00  0.39249206990E-01  0.13256842710E+00  0.18319372851E-01 0.  0.
         14    1    1    2    0    0 -0.19727331065E-01  0.83220989319E-02 -0.10369810512E-01  0.23789869517E-01  0.00000000000E+00 0. -1.
     999901    1    3    3    0    0 -0.21836749662E-01  0.10987568187E+00 -0.28879396478E-01  0.88757170338E+00  0.88000000000E+00 0. -1.
        -11    1    4    4    0    0  0.22782907904E-01 -0.79352840673E-01  0.18130450912E-01  0.84527561108E-01  0.51100000000E-03 0. -1.
         11    1    4    4    0    0  0.18781172822E-01 -0.38844940129E-01  0.21118756078E-01  0.48040865994E-01  0.51100000000E-03 0.  1.
</event>
<event>
 8    1  0.1112929E+005  0.1043930E+01  0.7957747E-01            NaN
         13   -1    0    0    0    0  0.00000000000E+00  0.00000000000E+00  0.74505805969E-08  0.10566000000E+00  0.10566000000E+00 0.  1.
     999900   -1    0    0    0    0 -0.00000000000E+00 -0.00000000000E+00 -0.74505805969E-08  0.93827000000E+00  0.93827000000E+00 0. -1.
     999902    2    1    2    0    0  0.18867736890E-01 -0.11053830216E-01  0.10172275467E-01  0.10198124992E+01  0.10195272824E+01 0.  0.
     999903    2    3    3    0    0 -0.11388675119E-01 -0.19736963170E-01 -0.12530793314E+00  0.12888840915E+00  0.19771046212E-01 0.  0.
         14    1    1    2    0    0 -0.18867736890E-01  0.11053830216E-01 -0.10172275467E-01  0.24117500823E-01  0.00000000000E+00 0. -1.
     999901    1    3    3    0    0  0.30256412009E-01  0.86831329540E-02  0.13548020861E+00  0.89092409003E+00  0.88000000000E+00 0.  1.
        -11    1    4    4    0    0 -0.16102294660E-01 -0.12422515542E-01 -0.69943841316E-01  0.72842328661E-01  0.51100000000E-03 0.  1.
         11    1    4    4    0    0  0.47136195406E-02 -0.73144476274E-02 -0.55364091827E-01  0.56046080489E-01  0.51100000000E-03 0. -1.
</event>
<event>
 8    1  0.1112929E+005  0.1043930E+01  0.7957747E-01            NaN
         13   -1    0    0    0    0  0.00000000000E+00  0.00000000000E+00  0.74505805969E-08  0.10566000000E+00  0.10566000000E+00 0.  1.
     999900   -1    0    0    0    0 -0.00000000000E+00 -0.00000000000E+00 -0.74505805969E-08  0.93827000000E+00  0.93827000000E+00 0.  1.
     999902    2    1    2    0    0  0.19879008798E-01  0.11851102593E-01  0.26065633725E-02  0.10206401353E+01  0.10203743764E+01 0.  0.
     999903    2    3    3    0    0  0.26131503399E-01 -0.72976304451E-01 -0.10297767036E+00  0.13025661511E+00  0.18814587571E-01 0.  0.
         14    1    1    2    0    0 -0.19879008798E-01 -0.11851102593E-01 -0.26065633725E-02  0.23289864664E-01  0.00000000000E+00 0.  1.
     999901    1    3    3    0    0 -0.62524946014E-02  0.84827407044E-01  0.10558423374E+00  0.89038352022E+00  0.88000000000E+00 0. -1.
        -11    1    4    4    0    0  0.83549556796E-02 -0.22634853663E-01 -0.47395276583E-01  0.53185667695E-01  0.51100000000E-03 0. -1.
         11    1    4    4    0    0  0.17776547720E-01 -0.50341450788E-01 -0.55582393780E-01  0.77070947416E-01  0.51100000000E-03 0.  1.
</event>
<event>
 8    1  0.1112929E+005  0.1043930E+01  0.7957747E-01            NaN
         13   -1    0    0    0    0  0.00000000000E+00  0.00000000000E+00  0.74505805969E-08  0.10566000000E+00  0.10566000000E+00 0.  1.
     999900   -1    0    0    0    0 -0.00000000000E+00 -0.00000000000E+00 -0.74505805969E-08  0.93827000000E+00  0.93827000000E+00 0. -1.
     999902    2    1    2    0    0  0.98072357336E-02 -0.58360194988E-03 -0.21396210127E-01  0.10203859929E+01  0.10201143339E+01 0.  0.
     999903    2    3    3    0    0  0.68304722405E-01  0.10418160216E+00 -0.38643236734E-01  0.13207570707E+00  0.20768999011E-01 0.  0.
         14    1    1    2    0    0 -0.98072357336E-02  0.58360194988E-03  0.21396210127E-01  0.23544007130E-01  0.00000000000E+00 0.  1.
     999901    1    3    3    0    0 -0.58497486672E-01 -0.10476520411E+00  0.17247026607E-01  0.88831028580E+00  0.88000000000E+00 0.  1.
        -11    1    4    4    0    0  0.32092059689E-01  0.31273360744E-01 -0.15911275388E-01  0.47553687478E-01  0.51100000000E-03 0. -1.
         11    1    4    4    0    0  0.36212662716E-01  0.72908241416E-01 -0.22731961346E-01  0.84522019587E-01  0.51100000000E-03 0.  1.
</event>
<event>
 8    1  0.1112929E+005  0.1043930E+01  0.7957747E-01            NaN
         13   -1    0    0    0    0  0.00000000000E+00  0.00000000000E+00  0.74505805969E-08  0.10566000000E+00  0.10566000000E+00 0.  1.
     999900   -1    0    0    0    0 -0.00000000000E+00 -0.00000000000E+00 -0.74505805969E-08  0.93827000000E+00  0.93827000000E+00 0.  1.
     999902    2    1    2    0    0 -0.19773073918E-02  0.23437679195E-01  0.39049337658E-03  0.10204058202E+01  0.10201346239E+01 0.  0.
     999903    2    3    3    0    0  0.13162444946E-01  0.13051740404E+00 -0.16518681239E-01  0.13362444930E+00  0.19354170271E-01 0.  0.
         14    1    1    2    0    0  0.19773073918E-02 -0.23437679195E-01 -0.39049337658E-03  0.23524179808E-01  0.00000000000E+00 0.  1.
     999901    1    3    3    0    0 -0.15139752337E-01 -0.10707972484E+00  0.16909174616E-01  0.88678137089E+00  0.88000000000E+00 0.  1.
        -11    1    4    4    0    0  0.15967574148E-01  0.12441797184E+00 -0.18017077852E-01  0.12672675864E+00  0.51100000000E-03 0. -1.
         11    1    4    4    0    0 -0.28051292021E-02  0.60994322012E-02  0.14983966127E-02  0.68976906589E-02  0.51100000000E-03 0.  1.
</event>
<event>
 8    1  0.1112929E+005  0.1043930E+01  0.7957747E-01            NaN
         13   -1    0    0    0    0  0.00000000000E+00  0.00000000000E+00  0.74505805969E-08  0.10566000000E+00  0.10566000000E+00 0.  1.
     999900   -1    0    0    0    0 -0.00000000000E+00 -0.00000000000E+00 -0.74505805969E-08  0.93827000000E+00  0.93827000000E+00 0.  1.
     999902    2    1    2    0    0 -0.95306503999E-02 -0.67567771749E-02 -0.19830913184E-01  0.10209136481E+01  0.10206541650E+01 0.  0.
     999903    2    3    3    0    0 -0.95906424983E-01  0.45358583154E-01 -0.78348884968E-01  0.13321936618E+00  0.18799157722E-01 0.  0.
         14    1    1    2    0    0  0.95306503999E-02  0.67567771749E-02  0.19830913184E-01  0.23016351851E-01  0.00000000000E+00 0.  1.
     999901    1    3    3    0    0  0.86375774583E-01 -0.52115360329E-01  0.58517971784E-01  0.88769428197E+00  0.88000000000E+00 0. -1.
        -11    1    4    4    0    0 -0.59816319565E-01  0.37015545993E-01 -0.56373384457E-01  0.90146338404E-01  0.51100000000E-03 0.  1.
         11    1    4    4    0    0 -0.36090105418E-01  0.83430371609E-02 -0.21975500511E-01  0.43073027777E-01  0.51100000000E-03 0. -1.
</event>
<event>
 8    1  0.1112929E+005  0.1043930E+01  0.7957747E-01            NaN
         13   -1    0    0    0    0  0.00000000000E+00  0.00000000000E+00  0.74505805969E-08  0.10566000000E+00  0.10566000000E+00 0. -1.
     999900   -1    0    0    0    0 -0.00000000000E+00 -0.00000000000E+00 -0.74505805969E-08  0.93827000000E+00  0.93827000000E+00 0.  1.
     999902    2    1    2    0    0 -0.21050159480E-01 -0.19097494171E-01  0.71640635801E-02  0.10146187853E+01  0.10141953127E+01 0.  0.
     999903    2    3    3    0    0 -0.21181870363E-01 -0.12359392340E+00  0.18435315805E-01  0.12836455421E+00  0.20333921831E-01 0.  0.
         14    1    1    2    0    0  0.21050159480E-01  0.19097494171E-01 -0.71640635801E-02  0.29311214658E-01  0.00000000000E+00 0.  1.
     999901    1    3    3    0    0  0.13171088279E-03  0.10449642922E+00 -0.11271252225E-01  0.88625423113E+00  0.88000000000E+00 0.  1.
        -11    1    4    4    0    0  0.16932651575E-02 -0.47483272413E-01  0.84982927020E-02  0.48270181332E-01  0.51100000000E-03 0. -1.
         11    1    4    4    0    0 -0.22875135520E-01 -0.76110650982E-01  0.99370231028E-02  0.80094372881E-01  0.51100000000E-03 0.  1.
</event>
<event>
 8    1  0.1112929E+005  0.1043930E+01  0.7957747E-01            NaN
         13   -1    0    0    0    0  0.00000000000E+00  0.00000000000E+00  0.74505805969E-08  0.10566000000E+00  0.10566000000E+00 0.  1.
     999900   -1    0    0    0    0 -0.00000000000E+00 -0.00000000000E+00 -0.74505805969E-08  0.93827000000E+00  0.93827000000E+00 0. -1.
     999902    2    1    2    0    0  0.85290613357E-02  0.20608845546E-01 -0.45821899752E-02  0.10211601544E+01  0.10209062617E+01 0.  0.
     999903    2    3    3    0    0  0.12231768104E+00 -0.27558270242E-01  0.34763944317E-01  0.13165690020E+00  0.20098114094E-01 0.  0.
         14    1    1    2    0    0 -0.85290613357E-02 -0.20608845546E-01  0.45821899752E-02  0.22769845564E-01  0.00000000000E+00 0. -1.
     999901    1    3    3    0    0 -0.11378861971E+00  0.48167115788E-01 -0.39346134292E-01  0.88950325424E+00  0.88000000000E+00 0.  1.
        -11    1    4    4    0    0  0.74568288125E-01 -0.12679049537E-01  0.30150946928E-01  0.81428057896E-01  0.51100000000E-03 0.  1.
         11    1    4    4    0    0  0.47749392920E-01 -0.14879220704E-01  0.46129973888E-02  0.50228842301E-01  0.51100000000E-03 0. -1.
</event>
<event>
 8    1  0.1266695E+005  0.1043930E+01  0.7957747E-01            NaN
         13   -1    0    0    0    0  0.00000000000E+00  0.00000000000E+00  0.74505805969E-08  0.10566000000E+00  0.10566000000E+00 0.  1.
     999900   -1    0    0    0    0 -0.00000000000E+00 -0.00000000000E+00 -0.74505805969E-08  0.93827000000E+00  0.93827000000E+00 0.  1.
     999902    2    1    2    0    0 -0.44074625146E-02  0.19369527222E-01  0.11704421494E-01  0.10208735954E+01  0.10206131980E+01 0.  0.
     999903    2    3    3    0    0 -0.11463376327E+00  0.23311757442E-01  0.59627122446E-01  0.13269457976E+00  0.19186454870E-01 0.  0.
         14    1    1    2    0    0  0.44074625146E-02 -0.19369527222E-01 -0.11704421494E-01  0.23056404601E-01  0.00000000000E+00 0. -1.
     999901    1    3    3    0    0  0.11022630075E+00 -0.39422302197E-02 -0.47922700952E-01  0.88817901564E+00  0.88000000000E+00 0.  1.
        -11    1    4    4    0    0 -0.48451259188E-01  0.11796433606E-01  0.35906511053E-01  0.61450948079E-01  0.51100000000E-03 0. -1.
         11    1    4    4    0    0 -0.66182504078E-01  0.11515323835E-01  0.23720611393E-01  0.71243631680E-01  0.51100000000E-03 0.  1.
</event>
<event>
 8    1  0.1112929E+005  0.1043930E+01  0.7957747E-01            NaN
         13   -1    0    0    0    0  0.00000000000E+00  0.00000000000E+00  0.74505805969E-08  0.10566000000E+00  0.10566000000E+00 0.  1.
     999900   -1    0    0    0    0 -0.00000000000E+00 -0.00000000000E+00 -0.74505805969E-08  0.93827000000E+00  0.93827000000E+00 0.  1.
     999902    2    1    2    0    0  0.10967405739E-01 -0.86893544392E-02 -0.23030506048E-01  0.10169820302E+01  0.10166249341E+01 0.  0.
     999903    2    3    3    0    0 -0.73193672048E-01  0.96040877167E-01  0.28185766202E-01  0.12531246415E+00  0.18100070138E-01 0.  0.
         14    1    1    2    0    0 -0.10967405739E-01  0.86893544392E-02  0.23030506048E-01  0.26947969832E-01  0.00000000000E+00 0.  1.
     999901    1    3    3    0    0  0.84161077787E-01 -0.10473023161E+00 -0.51216272250E-01  0.89166956602E+00  0.88000000000E+00 0. -1.
        -11    1    4    4    0    0 -0.36764522286E-01  0.51405429462E-01  0.23782510230E-01  0.67527899353E-01  0.51100000000E-03 0.  1.
         11    1    4    4    0    0 -0.36429149762E-01  0.44635447705E-01  0.44032559719E-02  0.57784564793E-01  0.51100000000E-03 0. -1.
</event>
<event>
 8    1  0.1112929E+005  0.1043930E+01  0.7957747E-01            NaN
         13   -1    0    0    0    0  0.00000000000E+00  0.00000000000E+00  0.74505805969E-08  0.10566000000E+00  0.10566000000E+00 0.  1.
     999900   -1    0    0    0    0 -0.00000000000E+00 -0.00000000000E+00 -0.74505805969E-08  0.93827000000E+00  0.93827000000E+00 0. -1.
     999902    2    1    2    0    0  0.17807890901E-01  0.74629253958E-03 -0.17685894850E-01  0.10188208621E+01  0.10185114041E+01 0.  0.
     999903    2    3    3    0    0  0.32509937218E-01 -0.10800053103E+00  0.59465709821E-01  0.12865548872E+00  0.17177118884E-01 0.  0.
         14    1    1    2    0    0 -0.17807890901E-01 -0.74629253958E-03  0.17685894850E-01  0.25109137929E-01  0.00000000000E+00 0. -1.
     999901    1    3    3    0    0 -0.14702046317E-01  0.10874682357E+00 -0.77151604671E-01  0.89016537335E+00  0.88000000000E+00 0. -1.
        -11    1    4    4    0    0  0.27298596778E-02 -0.31515429239E-01  0.11982442910E-01  0.33830673554E-01  0.51100000000E-03 0.  1.
         11    1    4    4    0    0  0.29780077540E-01 -0.76485101793E-01  0.47483266911E-01  0.94824815170E-01  0.51100000000E-03 0. -1.
</event>
<event>
 8    1  0.1112929E+005  0.1043930E+01  0.7957747E-01            NaN
         13   -1    0    0    0    0  0.00000000000E+00  0.00000000000E+00  0.74505805969E-08  0.10566000000E+00  0.10566000000E+00 0. -1.
     999900   -1    0    0    0    0 -0.00000000000E+00 -0.00000000000E+00 -0.74505805969E-08  0.93827000000E+00  0.93827000000E+00 0. -1.
     999902    2    1    2    0    0  0.10600102530E-01 -0.17939174744E-01  0.10591797475E-01  0.10205556051E+01  0.10202878911E+01 0.  0.
     999903    2    3    3    0    0 -0.70397281877E-01  0.37611118079E-01 -0.98671297147E-01  0.12837578287E+00  0.19337612254E-01 0.  0.
         14    1    1    2    0    0 -0.10600102530E-01  0.17939174744E-01 -0.10591797475E-01  0.23374394921E-01  0.00000000000E+00 0. -1.
     999901    1    3    3    0    0  0.80997384407E-01 -0.55550292823E-01  0.10926309462E+00  0.89217982221E+00  0.88000000000E+00 0.  1.
        -11    1    4    4    0    0 -0.37349701842E-01  0.19156278023E-01 -0.36710308988E-01  0.55766218469E-01  0.51100000000E-03 0.  1.
         11    1    4    4    0    0 -0.33047580035E-01  0.18454840056E-01 -0.61960988158E-01  0.72609564399E-01  0.51100000000E-03 0. -1.
</event>
<event>
 8    1  0.1112929E+005  0.1043930E+01  0.7957747E-01            NaN
         13   -1    0    0    0    0  0.00000000000E+00  0.00000000000E+00  0.74505805969E-08  0.10566000000E+00  0.10566000000E+00 0. -1.
     999900   -1    0    0    0    0 -0.00000000000E+00 -0.00000000000E+00 -0.74505805969E-08  0.93827000000E+00  0.93827000000E+00 0. -1.
     999902    2    1    2    0    0  0.12482437382E-01  0.19082739362E-01 -0.53815696347E-02  0.10205008840E+01  0.10202319005E+01 0.  0.
     999903    2    3    3    0    0 -0.98880868620E-01 -0.65660702841E-01 -0.45355967024E-01  0.12854730373E+00  0.19454857361E-01 0.  0.
         14    1    1    2    0    0 -0.12482437382E-01 -0.19082739362E-01  0.53815696347E-02  0.23429115994E-01  0.00000000000E+00 0. -1.
     999901    1    3    3    0    0  0.11136330600E+00  0.84743442203E-01  0.39974397389E-01  0.89195358028E+00  0.88000000000E+00 0.  1.
        -11    1    4    4    0    0 -0.76297839094E-01 -0.50965407587E-01 -0.26000328791E-01  0.95368292630E-01  0.51100000000E-03 0. -1.
         11    1    4    4    0    0 -0.22583029526E-01 -0.14695295254E-01 -0.19355638232E-01  0.33179011100E-01  0.51100000000E-03 0.  1.
</event>
<event>
 8    1  0.1112929E+005  0.1043930E+01  0.7957747E-01            NaN
         13   -1    0    0    0    0  0.00000000000E+00  0.00000000000E+00  0.74505805969E-08  0.10566000000E+00  0.10566000000E+00 0.  1.
     999900   -1    0    0    0    0 -0.00000000000E+00 -0.00000000000E+00 -0.74505805969E-08  0.93827000000E+00  0.93827000000E+00 0. -1.
     999902    2    1    2    0    0  0.20438588434E-02  0.15967907202E-01  0.18870091104E-01  0.10191261342E+01  0.10188242467E+01 0.  0.
     999903    2    3    3    0    0  0.60208031781E-02  0.71587027743E-01 -0.10466338388E+00  0.12874990919E+00  0.21474696249E-01 0.  0.
         14    1    1    2    0    0 -0.20438588434E-02 -0.15967907202E-01 -0.18870091104E-01  0.24803865780E-01  0.00000000000E+00 0.  1.
     999901    1    3    3    0    0 -0.39769443346E-02 -0.55619120541E-01  0.12353347498E+00  0.89037622503E+00  0.88000000000E+00 0.  1.
        -11    1    4    4    0    0 -0.62617776517E-02  0.93296178157E-02 -0.12081696148E-01  0.16506972187E-01  0.51100000000E-03 0.  1.
         11    1    4    4    0    0  0.12282580830E-01  0.62257409928E-01 -0.92581687733E-01  0.11224293700E+00  0.51100000000E-03 0. -1.
</event>
<event>
 8    1  0.1112929E+005  0.1043930E+01  0.7957747E-01            NaN
         13   -1    0    0    0    0  0.00000000000E+00  0.00000000000E+00  0.74505805969E-08  0.10566000000E+00  0.10566000000E+00 0.  1.
     999900   -1    0    0    0    0 -0.00000000000E+00 -0.00000000000E+00 -0.74505805969E-08  0.93827000000E+00  0.93827000000E+00 0. -1.
     999902    2    1    2    0    0 -0.66116648790E-02 -0.14453041263E-01  0.16721851331E-01  0.10208600016E+01  0.10205992936E+01 0.  0.
     999903    2    3    3    0    0 -0.39770900511E-01 -0.12262704876E+00 -0.28132464671E-01  0.13248335824E+00  0.11886422001E-01 0.  0.
         14    1    1    2    0    0  0.66116648790E-02  0.14453041263E-01 -0.16721851331E-01  0.23069998400E-01  0.00000000000E+00 0. -1.
     999901    1    3    3    0    0  0.33159235632E-01  0.10817400749E+00  0.44854316002E-01  0.88837664336E+00  0.88000000000E+00 0.  1.
        -11    1    4    4    0    0 -0.23771515218E-01 -0.90426383186E-01 -0.20005030222E-01  0.95616306491E-01  0.51100000000E-03 0. -1.
         11    1    4    4    0    0 -0.15999385293E-01 -0.32200665570E-01 -0.81274344495E-02  0.36867051749E-01  0.51100000000E-03 0.  1.
</event>
<event>
 8    1  0.1112929E+005  0.1043930E+01  0.7957747E-01            NaN
         13   -1    0    0    0    0  0.00000000000E+00  0.00000000000E+00  0.74505805969E-08  0.10566000000E+00  0.10566000000E+00 0.  1.
     999900   -1    0    0    0    0 -0.00000000000E+00 -0.00000000000E+00 -0.74505805969E-08  0.93827000000E+00  0.93827000000E+00 0. -1.
     999902    2    1    2    0    0 -0.11246855617E-02 -0.98543766683E-02  0.20814694405E-01  0.10208730019E+01  0.10206125910E+01 0.  0.
     999903    2    3    3    0    0  0.91649874027E-01  0.87751898967E-01 -0.17707132518E-01  0.12979610563E+00  0.20818052609E-01 0.  0.
         14    1    1    2    0    0  0.11246855617E-02  0.98543766683E-02 -0.20814694405E-01  0.23056998077E-01  0.00000000000E+00 0.  1.
     999901    1    3    3    0    0 -0.92774559588E-01 -0.97606275635E-01  0.38521826923E-01  0.89107689629E+00  0.88000000000E+00 0.  1.
        -11    1    4    4    0    0  0.52903059307E-01  0.63504980871E-01 -0.14998775360E-01  0.84005003796E-01  0.51100000000E-03 0.  1.
         11    1    4    4    0    0  0.38746814720E-01  0.24246918096E-01 -0.27083571581E-02  0.45791101838E-01  0.51100000000E-03 0. -1.
</event>
<event>
 8    1  0.1112929E+005  0.1043930E+01  0.7957747E-01            NaN
         13   -1    0    0    0    0  0.00000000000E+00  0.00000000000E+00  0.74505805969E-08  0.10566000000E+00  0.10566000000E+00 0. -1.
     999900   -1    0    0    0    0 -0.00000000000E+00 -0.00000000000E+00 -0.74505805969E-08  0.93827000000E+00  0.93827000000E+00 0. -1.
     999902    2    1    2    0    0  0.58121175087E-02 -0.80206029070E-02 -0.21971909680E-01  0.10198286391E+01  0.10195438086E+01 0.  0.
     999903    2    3    3    0    0 -0.29006916455E-01  0.39563375083E-01  0.11599593791E+00  0.12712951453E+00  0.17326107577E-01 0.  0.
         14    1    1    2    0    0 -0.58121175087E-02  0.80206029070E-02  0.21971909680E-01  0.24101360873E-01  0.00000000000E+00 0. -1.
     999901    1    3    3    0    0  0.34819033964E-01 -0.47583977990E-01 -0.13796784759E+00  0.89269912460E+00  0.88000000000E+00 0. -1.
        -11    1    4    4    0    0 -0.84422650324E-02  0.21008888726E-01  0.68479084133E-01  0.72126911268E-01  0.51100000000E-03 0. -1.
         11    1    4    4    0    0 -0.20564651423E-01  0.18554486358E-01  0.47516853774E-01  0.55002603263E-01  0.51100000000E-03 0.  1.
</event>
<event>
 8    1  0.1112929E+005  0.1043930E+01  0.7957747E-01            NaN
         13   -1    0    0    0    0  0.00000000000E+00  0.00000000000E+00  0.74505805969E-08  0.10566000000E+00  0.10566000000E+00 0.  1.
     999900   -1    0    0    0    0 -0.00000000000E+00 -0.00000000000E+00 -0.74505805969E-08  0.93827000000E+00  0.93827000000E+00 0.  1.
     999902    2    1    2    0    0  0.80190533993E-02 -0.17944991543E-01  0.13648848040E-01  0.10200005413E+01  0.10197198073E+01 0.  0.
     999903    2    3    3    0    0  0.12212188568E+00  0.38968505397E-01  0.16219696401E-01  0.13080696752E+00  0.20373630602E-01 0.  0.
         14    1    1    2    0    0 -0.80190533993E-02  0.17944991543E-01 -0.13648848040E-01  0.23929458659E-01  0.00000000000E+00 0.  1.
     999901    1    3    3    0    0 -0.11410283228E+00 -0.56913496939E-01 -0.25708483608E-02  0.88919357382E+00  0.88000000000E+00 0.  1.
        -11    1    4    4    0    0  0.10876307103E+00  0.28892067848E-01  0.18019105144E-01  0.11396976123E+00  0.51100000000E-03 0. -1.
         11    1    4    4    0    0  0.13358814655E-01  0.10076437549E-01 -0.17994087435E-02  0.16837206285E-01  0.51100000000E-03 0.  1.
</event>
<event>
 8    1  0.1112929E+005  0.1043930E+01  0.7957747E-01            NaN
         13   -1    0    0    0    0  0.00000000000E+00  0.00000000000E+00  0.74505805969E-08  0.10566000000E+00  0.10566000000E+00 0.  1.
     999900   -1    0    0    0    0 -0.00000000000E+00 -0.00000000000E+00 -0.74505805969E-08  0.93827000000E+00  0.93827000000E+00 0.  1.
     999902    2    1    2    0    0  0.24292946564E-01  0.67178453012E-02  0.73949706607E-02  0.10176628667E+01  0.10173238167E+01 0.  0.
     999903    2    3    3    0    0 -0.79430252389E-01  0.17353100991E-01 -0.93815345826E-01  0.12574631301E+00  0.20013021138E-01 0.  0.
         14    1    1    2    0    0 -0.24292946564E-01 -0.67178453012E-02 -0.73949706607E-02  0.26267133253E-01  0.00000000000E+00 0.  1.
     999901    1    3    3    0    0  0.10372319895E+00 -0.10635255689E-01  0.10121031649E+00  0.89191655374E+00  0.88000000000E+00 0. -1.
        -11    1    4    4    0    0 -0.38065920823E-01 -0.12021599693E-02 -0.48192878478E-01  0.61426982457E-01  0.51100000000E-03 0. -1.
         11    1    4    4    0    0 -0.41364331566E-01  0.18555260960E-01 -0.45622467347E-01  0.64319330555E-01  0.51100000000E-03 0.  1.
</event>
<event>
 8    1  0.1112929E+005  0.1043930E+01  0.7957747E-01            NaN
         13   -1    0    0    0    0  0.00000000000E+00  0.00000000000E+00  0.74505805969E-08  0.10566000000E+00  0.10566000000E+00 0.  1.
     999900   -1    0    0    0    0 -0.00000000000E+00 -0.00000000000E+00 -0.74505805969E-08  0.93827000000E+00  0.93827000000E+00 0.  1.
     999902    2    1    2    0    0 -0.85556795404E-02  0.13099908321E-01 -0.26247921453E-01  0.10133725029E+01  0.10129116787E+01 0.  0.
     999903    2    3    3    0    0 -0.59784825408E-01  0.10937197228E+00  0.30104869678E-02  0.12615844180E+00  0.19246707146E-01 0.  0.
         14    1    1    2    0    0  0.85556795404E-02 -0.13099908321E-01  0.26247921453E-01  0.30557497133E-01  0.00000000000E+00 0.  1.
     999901    1    3    3    0    0  0.51229145868E-01 -0.96272063964E-01 -0.29258408421E-01  0.88721406106E+00  0.88000000000E+00 0.  1.
        -11    1    4    4    0    0 -0.29518056219E-01  0.45126916262E-01  0.98215150375E-02  0.54813114242E-01  0.51100000000E-03 0. -1.
         11    1    4    4    0    0 -0.30266769189E-01  0.64245056022E-01 -0.68110280696E-02  0.71345327561E-01  0.51100000000E-03 0.  1.
</event>
<event>
 8    1  0.1112929E+005  0.1043930E+01  0.7957747E-01            NaN
         13   -1    0    0    0    0  0.00000000000E+00  0.00000000000E+00  0.74505805969E-08  0.10566000000E+00  0.10566000000E+00 0.  1.
     999900   -1    0    0    0    0 -0.00000000000E+00 -0.00000000000E+00 -0.74505805969E-08  0.93827000000E+00  0.93827000000E+00 0.  1.
     999902    2    1    2    0    0 -0.37328332464E-02  0.95614128237E-03 -0.23099061746E-01  0.10205117400E+01  0.10202430085E+01 0.  0.
     999903    2    3    3    0    0 -0.29411478562E-01  0.57477914247E-01  0.10921237418E+00  0.12845769466E+00  0.20131839098E-01 0.  0.
         14    1    1    2    0    0  0.37328332464E-02 -0.95614128237E-03  0.23099061746E-01  0.23418260050E-01  0.00000000000E+00 0.  1.
     999901    1    3    3    0    0  0.25678645316E-01 -0.56521772964E-01 -0.13231143593E+00  0.89205404529E+00  0.88000000000E+00 0.  1.
        -11    1    4    4    0    0 -0.32500124050E-01  0.52100402226E-01  0.98963712099E-01  0.11646796731E+00  0.51100000000E-03 0. -1.
         11    1    4    4    0    0  0.30886454882E-02  0.53775120209E-02  0.10248662081E-01  0.11989727351E-01  0.51100000000E-03 0.  1.
</event>
<event>
 8    1  0.1112929E+005  0.1043930E+01  0.7957747E-01            NaN
         13   -1    0    0    0    0  0.00000000000E+00  0.00000000000E+00  0.74505805969E-08  0.10566000000E+00  0.10566000000E+00 0. -1.
     999900   -1    0    0    0    0 -0.00000000000E+00 -0.00000000000E+00 -0.74505805969E-08  0.93827000000E+00  0.93827000000E+00 0. -1.
     999902    2    1    2    0    0 -0.29684779036E-02 -0.13570680366E-01 -0.18952644257E-01  0.10204315330E+01  0.10201609361E+01 0.  0.
     999903    2    3    3    0    0  0.83098848418E-01  0.82415589802E-01  0.48827828359E-01  0.12845892065E+00  0.20488763323E-01 0.  0.
         14    1    1    2    0    0  0.29684779036E-02  0.13570680366E-01  0.18952644257E-01  0.23498466993E-01  0.00000000000E+00 0. -1.
     999901    1    3    3    0    0 -0.86067326322E-01 -0.95986270168E-01 -0.67780472616E-01  0.89197261235E+00  0.88000000000E+00 0. -1.
        -11    1    4    4    0    0  0.35723264377E-01  0.21751587768E-01  0.18224694278E-01  0.45625473046E-01  0.51100000000E-03 0.  1.
         11    1    4    4    0    0  0.47375584042E-01  0.60664002034E-01  0.30603134081E-01  0.82833447608E-01  0.51100000000E-03 0. -1.
</event>
<event>
 8    1  0.1112929E+005  0.1043930E+01  0.7957747E-01            NaN
         13   -1    0    0    0    0  0.00000000000E+00  0.00000000000E+00  0.74505805969E-08  0.10566000000E+00  0.10566000000E+00 0. -1.
     999900   -1    0    0    0    0 -0.00000000000E+00 -0.00000000000E+00 -0.74505805969E-08  0.93827000000E+00  0.93827000000E+00 0.  1.
     999902    2    1    2    0    0  0.15737041231E-01  0.17066113323E-01  0.16948916221E-04  0.10207156299E+01  0.10204516109E+01 0.  0.
     999903    2    3    3    0    0 -0.62541007678E-01  0.11374122080E+00  0.12276336963E-01  0.13188278741E+00  0.19847372976E-01 0.  0.
         14    1    1    2    0    0 -0.15737041231E-01 -0.17066113323E-01 -0.16948916221E-04  0.23214370073E-01  0.00000000000E+00 0. -1.
     999901    1    3    3    0    0  0.78278048909E-01 -0.96675107479E-01 -0.12259388046E-01  0.88883284252E+00  0.88000000000E+00 0. -1.
        -11    1    4    4    0    0 -0.16561306170E-01  0.25785770082E-01  0.11183219670E-01  0.32626803766E-01  0.51100000000E-03 0.  1.
         11    1    4    4    0    0 -0.45979701508E-01  0.87955450720E-01  0.10931172923E-02  0.99255983641E-01  0.51100000000E-03 0. -1.
</event>
<event>
 7    1  0.1112929E+005  0.1043930E+01  0.7957747E-01            NaN
         13   -1    0    0    0    0  0.00000000000E+00  0.00000000000E+00  0.74505805969E-08  0.10566000000E+00  0.10566000000E+00 0.  1.
     999900   -1    0    0    0    0 -0.00000000000E+00 -0.00000000000E+00 -0.74505805969E-08  0.93827000000E+00  0.93827000000E+00 0. -1.
     999903    2    1    2    0    0 -0.63259135441E-01  0.30652179997E-01 -0.71689819047E-01  0.10229449995E+00  0.19582140091E-01 0.  0.
         14    1    1    2    0    0 -0.34833023532E-01  0.12203956528E-01  0.40222397717E-01  0.54590451193E-01  0.00000000000E+00 0.  1.
     999901    1    1    2    0    0  0.98092158973E-01 -0.42856136525E-01  0.31467421329E-01  0.88704504885E+00  0.88000000000E+00 0. -1.
        -11    1    3    3    0    0 -0.43362350838E-01  0.27357682877E-01 -0.60206382751E-01  0.79081008640E-01  0.51100000000E-03 0.  1.
         11    1    3    3    0    0 -0.19896784603E-01  0.32944971191E-02 -0.11483436296E-01  0.23213491314E-01  0.51100000000E-03 0. -1.
</event>
<event>
 8    1  0.1112929E+005  0.1043930E+01  0.7957747E-01            NaN
         13   -1    0    0    0    0  0.00000000000E+00  0.00000000000E+00  0.74505805969E-08  0.10566000000E+00  0.10566000000E+00 0. -1.
     999900   -1    0    0    0    0 -0.00000000000E+00 -0.00000000000E+00 -0.74505805969E-08  0.93827000000E+00  0.93827000000E+00 0. -1.
     999902    2    1    2    0    0 -0.43973810897E-02  0.50970322517E-02 -0.21984928831E-01  0.10209375275E+01  0.10206785886E+01 0.  0.
     999903    2    3    3    0    0  0.83511484969E-01 -0.40420454196E-01  0.86963876955E-01  0.12871017269E+00  0.19889982887E-01 0.  0.
         14    1    1    2    0    0  0.43973810897E-02 -0.50970322517E-02  0.21984928831E-01  0.22992472549E-01  0.00000000000E+00 0. -1.
     999901    1    3    3    0    0 -0.87908866059E-01  0.45517486447E-01 -0.10894880579E+00  0.89222735476E+00  0.88000000000E+00 0. -1.
        -11    1    4    4    0    0  0.21787404431E-01 -0.63380950386E-02  0.32374354809E-01  0.39537607551E-01  0.51100000000E-03 0.  1.
         11    1    4    4    0    0  0.61724080538E-01 -0.34082359157E-01  0.54589522146E-01  0.89172565137E-01  0.51100000000E-03 0. -1.
</event>
<event>
 8    1  0.1112929E+005  0.1043930E+01  0.7957747E-01            NaN
         13   -1    0    0    0    0  0.00000000000E+00  0.00000000000E+00  0.74505805969E-08  0.10566000000E+00  0.10566000000E+00 0. -1.
     999900   -1    0    0    0    0 -0.00000000000E+00 -0.00000000000E+00 -0.74505805969E-08  0.93827000000E+00  0.93827000000E+00 0.  1.
     999902    2    1    2    0    0  0.51800110593E-02  0.45864879672E-02 -0.23068987910E-01  0.10198458436E+01  0.10195614244E+01 0.  0.
     999903    2    3    3    0    0 -0.90115324457E-01  0.38931747778E-01 -0.85686457174E-01  0.13182459087E+00  0.19977515543E-01 0.  0.
         14    1    1    2    0    0 -0.51800110593E-02 -0.45864879672E-02  0.23068987910E-01  0.24084156403E-01  0.00000000000E+00 0. -1.
     999901    1    3    3    0    0  0.95295335516E-01 -0.34345259811E-01  0.62617469264E-01  0.88802125273E+00  0.88000000000E+00 0. -1.
        -11    1    4    4    0    0 -0.25477268335E-01  0.81327481178E-02 -0.12807558158E-01  0.29656828231E-01  0.51100000000E-03 0. -1.
         11    1    4    4    0    0 -0.64638056122E-01  0.30798999660E-01 -0.72878899016E-01  0.10216776264E+00  0.51100000000E-03 0.  1.
</event>
<event>
 8    1  0.1112929E+005  0.1043930E+01  0.7957747E-01            NaN
         13   -1    0    0    0    0  0.00000000000E+00  0.00000000000E+00  0.74505805969E-08  0.10566000000E+00  0.10566000000E+00 0. -1.
     999900   -1    0    0    0    0 -0.00000000000E+00 -0.00000000000E+00 -0.74505805969E-08  0.93827000000E+00  0.93827000000E+00 0.  1.
     999902    2    1    2    0    0 -0.17085607337E-01 -0.82082646094E-02 -0.14939157716E-01  0.10197955429E+01  0.10195099202E+01 0.  0.
     999903    2    3    3    0    0 -0.93504726731E-01  0.77932692958E-01 -0.46194939461E-01  0.13174314002E+00  0.20140604696E-01 0.  0.
         14    1    1    2    0    0  0.17085607337E-01  0.82082646094E-02  0.14939157716E-01  0.24134457095E-01  0.00000000000E+00 0. -1.
     999901    1    3    3    0    0  0.76419119394E-01 -0.86140957568E-01  0.31255781745E-01  0.88805240289E+00  0.88000000000E+00 0. -1.
        -11    1    4    4    0    0 -0.59208461487E-01  0.58795483442E-01 -0.24979858441E-01  0.87102268820E-01  0.51100000000E-03 0. -1.
         11    1    4    4    0    0 -0.34296265244E-01  0.19137209517E-01 -0.21215081020E-01  0.44640871199E-01  0.51100000000E-03 0.  1.
</event>
<event>
 8    1  0.1112929E+005  0.1043930E+01  0.7957747E-01            NaN
         13   -1    0    0    0    0  0.00000000000E+00  0.00000000000E+00  0.74505805969E-08  0.10566000000E+00  0.10566000000E+00 0.  1.
     999900   -1    0    0    0    0 -0.00000000000E+00 -0.00000000000E+00 -0.74505805969E-08  0.93827000000E+00  0.93827000000E+00 0. -1.
     999902    2    1    2    0    0  0.15314360775E-01  0.18856108745E-01 -0.71377966019E-03  0.10196279021E+01  0.10193382494E+01 0.  0.
     999903    2    3    3    0    0 -0.87551226427E-01  0.92307537066E-01 -0.21205492268E-01  0.13036059037E+00  0.18929130225E-01 0.  0.
         14    1    1    2    0    0 -0.15314360775E-01 -0.18856108745E-01  0.71377966019E-03  0.24302097942E-01  0.00000000000E+00 0. -1.
     999901    1    3    3    0    0  0.10286558720E+00 -0.73451428321E-01  0.20491712608E-01  0.88926731169E+00  0.88000000000E+00 0. -1.
        -11    1    4    4    0    0 -0.57414135843E-01  0.51341851926E-01 -0.59058557296E-02  0.77249653764E-01  0.51100000000E-03 0. -1.
         11    1    4    4    0    0 -0.30137090583E-01  0.40965685140E-01 -0.15299636538E-01  0.53110936605E-01  0.51100000000E-03 0.  1.
</event>
<event>
 8    1  0.1112929E+005  0.1043930E+01  0.7957747E-01            NaN
         13   -1    0    0    0    0  0.00000000000E+00  0.00000000000E+00  0.74505805969E-08  0.10566000000E+00  0.10566000000E+00 0.  1.
     999900   -1    0    0    0    0 -0.00000000000E+00 -0.00000000000E+00 -0.74505805969E-08  0.93827000000E+00  0.93827000000E+00 0.  1.
     999902    2    1    2    0    0  0.17346109270E-01  0.39136420304E-02 -0.15282949223E-01  0.10204827691E+01  0.10202133646E+01 0.  0.
     999903    2    3    3    0    0  0.42481305800E-01 -0.15902313534E-01  0.11975530130E+00  0.12960691954E+00  0.19976898746E-01 0.  0.
         14    1    1    2    0    0 -0.17346109270E-01 -0.39136420304E-02  0.15282949223E-01  0.23447230917E-01  0.00000000000E+00 0.  1.
     999901    1    3    3    0    0 -0.25135196530E-01  0.19815955564E-01 -0.13503825053E+00  0.89087584955E+00  0.88000000000E+00 0.  1.
        -11    1    4    4    0    0  0.40201907742E-01 -0.12288311101E-01  0.87610854751E-01  0.97175711817E-01  0.51100000000E-03 0.  1.
         11    1    4    4    0    0  0.22793980577E-02 -0.36140024329E-02  0.32144446551E-01  0.32431207720E-01  0.51100000000E-03 0. -1.
</event>
<event>
 8    1  0.1112929E+005  0.1043930E+01  0.7957747E-01            NaN
         13   -1    0    0    0    0  0.00000000000E+00  0.00000000000E+00  0.74505805969E-08  0.10566000000E+00  0.10566000000E+00 0. -1.
     999900   -1    0    0    0    0 -0.00000000000E+00 -0.00000000000E+00 -0.74505805969E-08  0.93827000000E+00  0.93827000000E+00 0.  1.
     999902    2    1    2    0    0  0.87916364831E-02  0.19963711046E-02 -0.21849631809E-01  0.10202934863E+01  0.10200196632E+01 0.  0.
     999903    2    3    3    0    0  0.42816981938E-01 -0.11491673806E+00 -0.44074037831E-01  0.13163138885E+00  0.18578242371E-01 0.  0.
         14    1    1    2    0    0 -0.87916364831E-02 -0.19963711046E-02  0.21849631809E-01  0.23636513699E-01  0.00000000000E+00 0. -1.
     999901    1    3    3    0    0 -0.34025345454E-01  0.11691310917E+00  0.22224406022E-01  0.88866209745E+00  0.88000000000E+00 0.  1.
        -11    1    4    4    0    0  0.30826267542E-01 -0.57457687480E-01 -0.20209640525E-01  0.68266648609E-01  0.51100000000E-03 0.  1.
         11    1    4    4    0    0  0.11990714396E-01 -0.57459050584E-01 -0.23864397306E-01  0.63364740238E-01  0.51100000000E-03 0. -1.
</event>
<event>
 8    1  0.1112929E+005  0.1043930E+01  0.7957747E-01            NaN
         13   -1    0    0    0    0  0.00000000000E+00  0.00000000000E+00  0.74505805969E-08  0.10566000000E+00  0.10566000000E+00 0.  1.
     999900   -1    0    0    0    0 -0.00000000000E+00 -0.00000000000E+00 -0.74505805969E-08  0.93827000000E+00  0.93827000000E+00 0.  1.
     999902    2    1    2    0    0 -0.13133456721E-02  0.22845954951E-01  0.79694653935E-02  0.10196983077E+01  0.10194103510E+01 0.  0.
     999903    2    3    3    0    0  0.12243695226E+00 -0.35277136715E-01  0.71547435568E-02  0.12914056457E+00  0.19768950625E-01 0.  0.
         14    1    1    2    0    0  0.13133456721E-02 -0.22845954951E-01 -0.79694653935E-02  0.24231692329E-01  0.00000000000E+00 0. -1.
     999901    1    3    3    0    0 -0.12375029793E+00  0.58123091666E-01  0.81472183667E-03  0.89055774310E+00  0.88000000000E+00 0.  1.
        -11    1    4    4    0    0  0.10000973462E+00 -0.20760368788E-01  0.38378108471E-02  0.10221511554E+00  0.51100000000E-03 0. -1.
         11    1    4    4    0    0  0.22427217640E-01 -0.14516767927E-01  0.33169327098E-02  0.26925449035E-01  0.51100000000E-03 0.  1.
</event>
<event>
 8    1  0.1112929E+005  0.1043930E+01  0.7957747E-01            NaN
         13   -1    0    0    0    0  0.00000000000E+00  0.00000000000E+00  0.74505805969E-08  0.10566000000E+00  0.10566000000E+00 0.  1.
     999900   -1    0    0    0    0 -0.00000000000E+00 -0.00000000000E+00 -0.74505805969E-08  0.93827000000E+00  0.93827000000E+00 0. -1.
     999902    2    1    2    0    0  0.38913671707E-03  0.72947383231E-02 -0.20874147820E-01  0.10218145149E+01  0.10215751603E+01 0.  0.
     999903    2    3    3    0    0 -0.68610190299E-01  0.29163522646E-01  0.10444095417E+00  0.12999445140E+00  0.20803250246E-01 0.  0.
         14    1    1    2    0    0 -0.38913671707E-03 -0.72947383231E-02  0.20874147820E-01  0.22115485113E-01  0.00000000000E+00 0.  1.
     999901    1    3    3    0    0  0.68999327016E-01 -0.21868784323E-01 -0.12531510199E+00  0.89182006349E+00  0.88000000000E+00 0. -1.
        -11    1    4    4    0    0 -0.51488465424E-01  0.20525896285E-01  0.91060605361E-01  0.10660520372E+00  0.51100000000E-03 0.  1.
         11    1    4    4    0    0 -0.17121724875E-01  0.86376263608E-02  0.13380348806E-01  0.23389247679E-01  0.51100000000E-03 0. -1.
</event>
<event>
 8    1  0.1112929E+005  0.1043930E+01  0.7957747E-01            NaN
         13   -1    0    0    0    0  0.00000000000E+00  0.00000000000E+00  0.74505805969E-08  0.10566000000E+00  0.10566000000E+00 0.  1.
     999900   -1    0    0    0    0 -0.00000000000E+00 -0.00000000000E+00 -0.74505805969E-08  0.93827000000E+00  0.93827000000E+00 0. -1.
     999902    2    1    2    0    0 -0.48733244726E-04 -0.16352459134E-01  0.19378366024E-01  0.10185740073E+01  0.10182583572E+01 0.  0.
     999903    2    3    3    0    0 -0.93572673669E-01  0.71556094169E-02 -0.84099364906E-01  0.12727888363E+00  0.17893100291E-01 0.  0.
         14    1    1    2    0    0  0.48733244726E-04  0.16352459134E-01 -0.19378366024E-01  0.25355992673E-01  0.00000000000E+00 0. -1.
     999901    1    3    3    0    0  0.93523940424E-01 -0.23508068550E-01  0.10347773093E+00  0.89129512369E+00  0.88000000000E+00 0.  1.
        -11    1    4    4    0    0 -0.54762948807E-01 -0.26722053017E-02 -0.41093363404E-01  0.68520412142E-01  0.51100000000E-03 0.  1.
         11    1    4    4    0    0 -0.38809724862E-01  0.98278147185E-02 -0.43006001502E-01  0.58758471493E-01  0.51100000000E-03 0. -1.
</event>
<event>
 8    1  0.1112929E+005  0.1043930E+01  0.7957747E-01            NaN
         13   -1    0    0    0    0  0.00000000000E+00  0.00000000000E+00  0.74505805969E-08  0.10566000000E+00  0.10566000000E+00 0.  1.
     999900   -1    0    0    0    0 -0.00000000000E+00 -0.00000000000E+00 -0.74505805969E-08  0.93827000000E+00  0.93827000000E+00 0.  1.
     999902    2    1    2    0    0  0.19972682120E-01 -0.12316887580E-01 -0.33564031242E-02  0.10202260089E+01  0.10199506018E+01 0.  0.
     999903    2    3    3    0    0  0.67445207649E-01  0.46925608583E-01  0.10013324958E+00  0.13091536453E+00  0.19007793694E-01 0.  0.
         14    1    1    2    0    0 -0.19972682120E-01  0.12316887580E-01  0.33564031242E-02  0.23703991070E-01  0.00000000000E+00 0. -1.
     999901    1    3    3    0    0 -0.47472525530E-01 -0.59242496163E-01 -0.10348965271E+00  0.88931064440E+00  0.88000000000E+00 0.  1.
        -11    1    4    4    0    0  0.36274417089E-01  0.33250473272E-01  0.69230693795E-01  0.84938668416E-01  0.51100000000E-03 0.  1.
         11    1    4    4    0    0  0.31170790560E-01  0.13675135310E-01  0.30902555789E-01  0.45976696110E-01  0.51100000000E-03 0. -1.
</event>
<event>
 8    1  0.1112929E+005  0.1043930E+01  0.7957747E-01            NaN
         13   -1    0    0    0    0  0.00000000000E+00  0.00000000000E+00  0.74505805969E-08  0.10566000000E+00  0.10566000000E+00 0.  1.
     999900   -1    0    0    0    0 -0.00000000000E+00 -0.00000000000E+00 -0.74505805969E-08  0.93827000000E+00  0.93827000000E+00 0.  1.
     999902    2    1    2    0    0 -0.18226764323E-01 -0.11336660223E-01  0.10414148160E-01  0.10200723118E+01  0.10197932791E+01 0.  0.
     999903    2    3    3    0    0  0.91046953617E-01 -0.60465465245E-01 -0.65087423136E-01  0.12875033175E+00  0.19865926227E-01 0.  0.
         14    1    1    2    0    0  0.18226764323E-01  0.11336660223E-01 -0.10414148160E-01  0.23857688165E-01  0.00000000000E+00 0.  1.
     999901    1    3    3    0    0 -0.10927371794E+00  0.49128805022E-01  0.75501571296E-01  0.89132198009E+00  0.88000000000E+00 0. -1.
        -11    1    4    4    0    0  0.60785798064E-01 -0.51078633913E-01 -0.46452659111E-01  0.91989405630E-01  0.51100000000E-03 0. -1.
         11    1    4    4    0    0  0.30261155554E-01 -0.93868313312E-02 -0.18634764025E-01  0.36760926119E-01  0.51100000000E-03 0.  1.
</event>
<event>
 8    1  0.1112929E+005  0.1043930E+01  0.7957747E-01            NaN
         13   -1    0    0    0    0  0.00000000000E+00  0.00000000000E+00  0.74505805969E-08  0.10566000000E+00  0.10566000000E+00 0.  1.
     999900   -1    0    0    0    0 -0.00000000000E+00 -0.00000000000E+00 -0.74505805969E-08  0.93827000000E+00  0.93827000000E+00 0.  1.
     999902    2    1    2    0    0 -0.14944990183E-01 -0.15801412865E-03 -0.18508068915E-01  0.10201407941E+01  0.10198633799E+01 0.  0.
     999903    2    3    3    0    0 -0.56983503000E-01 -0.96521405209E-02  0.11360036720E+00  0.12923675112E+00  0.21373136882E-01 0.  0.
         14    1    1    2    0    0  0.14944990183E-01  0.15801412865E-03  0.18508068915E-01  0.23789205850E-01  0.00000000000E+00 0. -1.
     999901    1    3    3    0    0  0.42038512817E-01  0.94941263923E-02 -0.13210843612E+00  0.89090404303E+00  0.88000000000E+00 0.  1.
        -11    1    4    4    0    0 -0.15107995236E-01 -0.12542194721E-01  0.36130205780E-01  0.41124336580E-01  0.51100000000E-03 0.  1.
         11    1    4    4    0    0 -0.41875507764E-01  0.28900542004E-02  0.77470161423E-01  0.88112414538E-01  0.51100000000E-03 0. -1.
</event>
<event>
 8    1  0.1112929E+005  0.1043930E+01  0.7957747E-01            NaN
         13   -1    0    0    0    0  0.00000000000E+00  0.00000000000E+00  0.74505805969E-08  0.10566000000E+00  0.10566000000E+00 0. -1.
     999900   -1    0    0    0    0 -0.00000000000E+00 -0.00000000000E+00 -0.74505805969E-08  0.93827000000E+00  0.93827000000E+00 0. -1.
     999902    2    1    2    0    0 -0.23125026840E-01  0.17721542527E-02 -0.70809377417E-02  0.10196803180E+01  0.10193919285E+01 0.  0.
     999903    2    3    3    0    0  0.11750482342E-01  0.68757064032E-01  0.10685444401E+00  0.12912737153E+00  0.19758496500E-01 0.  0.
         14    1    1    2    0    0  0.23125026840E-01 -0.17721542527E-02  0.70809377417E-02  0.24249681985E-01  0.00000000000E+00 0. -1.
     999901    1    3    3    0    0 -0.34875509183E-01 -0.66984909780E-01 -0.11393538175E+00  0.89055294649E+00  0.88000000000E+00 0. -1.
        -11    1    4    4    0    0  0.50736032281E-02  0.61208374529E-01  0.83240975213E-01  0.10344818818E+00  0.51100000000E-03 0. -1.
         11    1    4    4    0    0  0.66768791144E-02  0.75486895033E-02  0.23613468796E-01  0.25679183350E-01  0.51100000000E-03 0.  1.
</event>
<event>
 8    1  0.1112929E+005  0.1043930E+01  0.7957747E-01            NaN
         13   -1    0    0    0    0  0.00000000000E+00  0.00000000000E+00  0.74505805969E-08  0.10566000000E+00  0.10566000000E+00 0.  1.
     999900   -1    0    0    0    0 -0.00000000000E+00 -0.00000000000E+00 -0.74505805969E-08  0.93827000000E+00  0.93827000000E+00 0. -1.
     999902    2    1    2    0    0 -0.59983312507E-02 -0.17541166307E-01 -0.15525612523E-01  0.10197490749E+01  0.10194623380E+01 0.  0.
     999903    2    3    3    0    0 -0.70961139384E-01 -0.12323133621E-01  0.10531926077E+00  0.12910274910E+00  0.19698482471E-01 0.  0.
         14    1    1    2    0    0  0.59983312507E-02  0.17541166307E-01  0.15525612523E-01  0.24180925074E-01  0.00000000000E+00 0. -1.
     999901    1    3    3    0    0  0.64962808133E-01 -0.52180326865E-02 -0.12084487329E+00  0.89064632583E+00  0.88000000000E+00 0. -1.
        -11    1    4    4    0    0 -0.38410452858E-01 -0.18260114404E-02  0.40739907028E-01  0.56024087250E-01  0.51100000000E-03 0.  1.
         11    1    4    4    0    0 -0.32550686526E-01 -0.10497122180E-01  0.64579353740E-01  0.73078661851E-01  0.51100000000E-03 0. -1.
</event>
<event>
 8    1  0.1112929E+005  0.1043930E+01  0.7957747E-01            NaN
         13   -1    0    0    0    0  0.00000000000E+00  0.00000000000E+00  0.74505805969E-08  0.10566000000E+00  0.10566000000E+00 0.  1.
     999900   -1    0    0    0    0 -0.00000000000E+00 -0.00000000000E+00 -0.74505805969E-08  0.93827000000E+00  0.93827000000E+00 0.  1.
     999902    2    1    2    0    0  0.19712538273E-01  0.12182563637E-01  0.77257451731E-02  0.10195028397E+01  0.10192101618E+01 0.  0.
     999903    2    3    3    0    0  0.13003997325E+00  0.22490504859E-02  0.13850233128E-01  0.13253704163E+00  0.21419280425E-01 0.  0.
         14    1    1    2    0    0 -0.19712538273E-01 -0.12182563637E-01 -0.77257451731E-02  0.24427160302E-01  0.00000000000E+00 0.  1.
     999901    1    3    3    0    0 -0.11032743498E+00  0.99335131507E-02 -0.61244879546E-02  0.88696579807E+00  0.88000000000E+00 0.  1.
        -11    1    4    4    0    0  0.76585015658E-01  0.82642508480E-02  0.16097678527E-01  0.78695354631E-01  0.51100000000E-03 0. -1.
         11    1    4    4    0    0  0.53454957596E-01 -0.60152003620E-02 -0.22474453994E-02  0.53841686998E-01  0.51100000000E-03 0.  1.
</event>
<event>
 8    1  0.1112929E+005  0.1043930E+01  0.7957747E-01            NaN
         13   -1    0    0    0    0  0.00000000000E+00  0.00000000000E+00  0.74505805969E-08  0.10566000000E+00  0.10566000000E+00 0. -1.
     999900   -1    0    0    0    0 -0.00000000000E+00 -0.00000000000E+00 -0.74505805969E-08  0.93827000000E+00  0.93827000000E+00 0. -1.
     999902    2    1    2    0    0 -0.22558054322E-01 -0.60414713758E-02  0.47948549148E-02  0.10200897856E+01  0.10198111662E+01 0.  0.
     999903    2    3    3    0    0 -0.22111396585E-01 -0.87412354515E-01  0.94059920198E-01  0.13183887956E+00  0.20109400641E-01 0.  0.
         14    1    1    2    0    0  0.22558054322E-01  0.60414713758E-02 -0.47948549148E-02  0.23840214446E-01  0.00000000000E+00 0.  1.
     999901    1    3    3    0    0 -0.44665773738E-03  0.81370883139E-01 -0.89265065283E-01  0.88825090600E+00  0.88000000000E+00 0. -1.
        -11    1    4    4    0    0 -0.21026723388E-02 -0.12302763626E-01  0.45633879945E-02  0.13299054657E-01  0.51100000000E-03 0.  1.
         11    1    4    4    0    0 -0.20008724246E-01 -0.75109590889E-01  0.89496532204E-01  0.11853982490E+00  0.51100000000E-03 0. -1.
</event>
<event>
 8    1  0.1112929E+005  0.1043930E+01  0.7957747E-01            NaN
         13   -1    0    0    0    0  0.00000000000E+00  0.00000000000E+00  0.74505805969E-08  0.10566000000E+00  0.10566000000E+00 0.  1.
     999900   -1    0    0    0    0 -0.00000000000E+00 -0.00000000000E+00 -0.74505805969E-08  0.93827000000E+00  0.93827000000E+00 0. -1.
     999902    2    1    2    0    0  0.17800758256E-01 -0.96227138939E-02 -0.14553934704E-01  0.10190044983E+01  0.10186996059E+01 0.  0.
     999903    2    3    3    0    0 -0.70944058600E-02  0.49383607743E-01  0.11539400373E+00  0.12715923044E+00  0.19095090516E-01 0.  0.
         14    1    1    2    0    0 -0.17800758256E-01  0.96227138939E-02  0.14553934704E-01  0.24925501651E-01  0.00000000000E+00 0.  1.
     999901    1    3    3    0    0  0.24895164116E-01 -0.59006321637E-01 -0.12994793843E+00  0.89184526791E+00  0.88000000000E+00 0. -1.
        -11    1    4    4    0    0 -0.10522503059E-01  0.29732281564E-01  0.53265497370E-01  0.61904813777E-01  0.51100000000E-03 0.  1.
         11    1    4    4    0    0  0.34280971987E-02  0.19651326179E-01  0.62128506356E-01  0.65254416663E-01  0.51100000000E-03 0. -1.
</event>
<event>
 8    1  0.1112929E+005  0.1043930E+01  0.7957747E-01            NaN
         13   -1    0    0    0    0  0.00000000000E+00  0.00000000000E+00  0.74505805969E-08  0.10566000000E+00  0.10566000000E+00 0.  1.
     999900   -1    0    0    0    0 -0.00000000000E+00 -0.00000000000E+00 -0.74505805969E-08  0.93827000000E+00  0.93827000000E+00 0. -1.
     999902    2    1    2    0    0 -0.21360822159E-01  0.88949983173E-02 -0.14435239231E-02  0.10207461806E+01  0.10204828641E+01 0.  0.
     999903    2    3    3    0    0 -0.28936629040E-01 -0.37089589067E-01 -0.12103825261E+00  0.13143471988E+00  0.20294355775E-01 0.  0.
         14    1    1    2    0    0  0.21360822159E-01 -0.88949983173E-02  0.14435239231E-02  0.23183819351E-01  0.00000000000E+00 0.  1.
     999901    1    3    3    0    0  0.75758068805E-02  0.45984587384E-01  0.11959472869E+00  0.88931146077E+00  0.88000000000E+00 0.  1.
        -11    1    4    4    0    0 -0.14790350891E-01 -0.19709012423E-01 -0.36993014255E-01  0.44451590240E-01  0.51100000000E-03 0.  1.
         11    1    4    4    0    0 -0.14146278149E-01 -0.17380576644E-01 -0.84045238359E-01  0.86983129639E-01  0.51100000000E-03 0. -1.
</event>
<event>
 8    1  0.1112929E+005  0.1043930E+01  0.7957747E-01            NaN
         13   -1    0    0    0    0  0.00000000000E+00  0.00000000000E+00  0.74505805969E-08  0.10566000000E+00  0.10566000000E+00 0.  1.
     999900   -1    0    0    0    0 -0.00000000000E+00 -0.00000000000E+00 -0.74505805969E-08  0.93827000000E+00  0.93827000000E+00 0.  1.
     999902    2    1    2    0    0  0.57621340691E-02  0.23315582757E-02 -0.22838943031E-01  0.10202602794E+01  0.10199856774E+01 0.  0.
     999903    2    3    3    0    0  0.49935261038E-01  0.86621677049E-01  0.79422985738E-01  0.12924199043E+00  0.19965875784E-01 0.  0.
         14    1    1    2    0    0 -0.57621340691E-02 -0.23315582757E-02  0.22838943031E-01  0.23669720568E-01  0.00000000000E+00 0.  1.
     999901    1    3    3    0    0 -0.44173126969E-01 -0.84290118773E-01 -0.10226192877E+00  0.89101828901E+00  0.88000000000E+00 0.  1.
        -11    1    4    4    0    0  0.13731015719E-01  0.24080102173E-01  0.34060732244E-01  0.43917954362E-01  0.51100000000E-03 0. -1.
         11    1    4    4    0    0  0.36204245319E-01  0.62541574875E-01  0.45362253494E-01  0.85324036063E-01  0.51100000000E-03 0.  1.
</event>
<event>
 8    1  0.1112929E+005  0.1043930E+01  0.7957747E-01            NaN
         13   -1    0    0    0    0  0.00000000000E+00  0.00000000000E+00  0.74505805969E-08  0.10566000000E+00  0.10566000000E+00 0.  1.
     999900   -1    0    0    0    0 -0.00000000000E+00 -0.00000000000E+00 -0.74505805969E-08  0.93827000000E+00  0.93827000000E+00 0.  1.
     999902    2    1    2    0    0  0.17521386115E-01 -0.10133838360E-01 -0.10483763732E-01  0.10211351990E+01  0.10208807431E+01 0.  0.
     999903    2    3    3    0    0  0.10418219676E+00  0.59723122689E-02 -0.81562041723E-01  0.13388009148E+00  0.19542610111E-01 0.  0.
         14    1    1    2    0    0 -0.17521386115E-01  0.10133838360E-01  0.10483763732E-01  0.22794801014E-01  0.00000000000E+00 0.  1.
     999901    1    3    3    0    0 -0.86660810643E-01 -0.16106150629E-01  0.71078277991E-01  0.88725510750E+00  0.88000000000E+00 0. -1.
        -11    1    4    4    0    0  0.88061602931E-01  0.11069568421E-01 -0.73007732697E-01  0.11492506868E+00  0.51100000000E-03 0.  1.
         11    1    4    4    0    0  0.16120593827E-01 -0.50972561525E-02 -0.85543090262E-02  0.18955022805E-01  0.51100000000E-03 0. -1.
</event>
<event>
 7    1  0.1112929E+005  0.1043930E+01  0.7957747E-01            NaN
         13   -1    0    0    0    0  0.00000000000E+00  0.00000000000E+00  0.74505805969E-08  0.10566000000E+00  0.10566000000E+00 0. -1.
     999900   -1    0    0    0    0 -0.00000000000E+00 -0.00000000000E+00 -0.74505805969E-08  0.93827000000E+00  0.93827000000E+00 0.  1.
     999903    2    1    2    0    0 -0.41735936435E-01 -0.31961927826E-01  0.10153391039E+00  0.11610499520E+00  0.20193606194E-01 0.  0.
         14    1    1    2    0    0 -0.20176113003E-02  0.37129971185E-01 -0.21844650009E-01  0.43126491274E-01  0.00000000000E+00 0.  1.
     999901    1    1    2    0    0  0.43753547736E-01 -0.51680433591E-02 -0.79689260382E-01  0.88469851352E+00  0.88000000000E+00 0.  1.
        -11    1    3    3    0    0 -0.34883481011E-01 -0.28602729470E-01  0.67263555548E-01  0.80991483543E-01  0.51100000000E-03 0. -1.
         11    1    3    3    0    0 -0.68524554240E-02 -0.33591983558E-02  0.34270354843E-01  0.35113511659E-01  0.51100000000E-03 0.  1.
</event>
<event>
 8    1  0.1112929E+005  0.1043930E+01  0.7957747E-01            NaN
         13   -1    0    0    0    0  0.00000000000E+00  0.00000000000E+00  0.74505805969E-08  0.10566000000E+00  0.10566000000E+00 0. -1.
     999900   -1    0    0    0    0 -0.00000000000E+00 -0.00000000000E+00 -0.74505805969E-08  0.93827000000E+00  0.93827000000E+00 0.  1.
     999902    2    1    2    0    0  0.13138753995E-01  0.16913122608E-01 -0.10718305244E-01  0.10199808322E+01  0.10196996300E+01 0.  0.
     999903    2    3    3    0    0  0.65307540603E-01 -0.80599045798E-01 -0.76843666487E-01  0.13059746787E+00  0.19734956066E-01 0.  0.
         14    1    1    2    0    0 -0.13138753995E-01 -0.16913122608E-01  0.10718305244E-01  0.23949167840E-01  0.00000000000E+00 0. -1.
     999901    1    3    3    0    0 -0.52168786607E-01  0.97512168406E-01  0.66125361243E-01  0.88938336429E+00  0.88000000000E+00 0. -1.
        -11    1    4    4    0    0  0.21626074699E-01 -0.27750951558E-01 -0.38019685457E-01  0.51803088928E-01  0.51100000000E-03 0. -1.
         11    1    4    4    0    0  0.43681465904E-01 -0.52848094239E-01 -0.38823981030E-01  0.78794378938E-01  0.51100000000E-03 0.  1.
</event>
<event>
 8    1  0.1112929E+005  0.1043930E+01  0.7957747E-01            NaN
         13   -1    0    0    0    0  0.00000000000E+00  0.00000000000E+00  0.74505805969E-08  0.10566000000E+00  0.10566000000E+00 0.  1.
     999900   -1    0    0    0    0 -0.00000000000E+00 -0.00000000000E+00 -0.74505805969E-08  0.93827000000E+00  0.93827000000E+00 0. -1.
     999902    2    1    2    0    0 -0.18480639860E-01  0.44454717047E-02  0.11704769266E-01  0.10216074130E+01  0.10213635045E+01 0.  0.
     999903    2    3    3    0    0  0.10433166423E+00  0.53246373208E-01  0.54421423258E-01  0.13071510603E+00  0.20111569162E-01 0.  0.
         14    1    1    2    0    0  0.18480639860E-01 -0.44454717047E-02 -0.11704769266E-01  0.22322587034E-01  0.00000000000E+00 0.  1.
     999901    1    3    3    0    0 -0.12281230409E+00 -0.48800901504E-01 -0.42716653992E-01  0.89089230693E+00  0.88000000000E+00 0. -1.
        -11    1    4    4    0    0  0.28321964773E-01  0.19236318748E-01  0.25004506807E-01  0.42398775091E-01  0.51100000000E-03 0. -1.
         11    1    4    4    0    0  0.76009699461E-01  0.34010054460E-01  0.29416916451E-01  0.88316330942E-01  0.51100000000E-03 0.  1.
</event>
<event>
 8    1  0.1112929E+005  0.1043930E+01  0.7957747E-01            NaN
         13   -1    0    0    0    0  0.00000000000E+00  0.00000000000E+00  0.74505805969E-08  0.10566000000E+00  0.10566000000E+00 0. -1.
     999900   -1    0    0    0    0 -0.00000000000E+00 -0.00000000000E+00 -0.74505805969E-08  0.93827000000E+00  0.93827000000E+00 0. -1.
     999902    2    1    2    0    0 -0.16071371904E-01  0.16184199591E-01  0.76650263011E-02  0.10198682058E+01  0.10195843208E+01 0.  0.
     999903    2    3    3    0    0  0.71143354904E-01  0.65856531957E-01  0.85439105472E-01  0.13075485164E+00  0.19963234602E-01 0.  0.
         14    1    1    2    0    0  0.16071371904E-01 -0.16184199591E-01 -0.76650263011E-02  0.24061794186E-01  0.00000000000E+00 0.  1.
     999901    1    3    3    0    0 -0.87214726808E-01 -0.49672332366E-01 -0.77774079171E-01  0.88911335417E+00  0.88000000000E+00 0. -1.
        -11    1    4    4    0    0  0.12082565200E-01  0.20582748692E-01  0.14437627406E-01  0.27898819538E-01  0.51100000000E-03 0.  1.
         11    1    4    4    0    0  0.59060789704E-01  0.45273783265E-01  0.71001478066E-01  0.10285603210E+00  0.51100000000E-03 0. -1.
</event>
<event>
 8    1  0.1112929E+005  0.1043930E+01  0.7957747E-01            NaN
         13   -1    0    0    0    0  0.00000000000E+00  0.00000000000E+00  0.74505805969E-08  0.10566000000E+00  0.10566000000E+00 0. -1.
     999900   -1    0    0    0    0 -0.00000000000E+00 -0.00000000000E+00 -0.74505805969E-08  0.93827000000E+00  0.93827000000E+00 0. -1.
     999902    2    1    2    0    0  0.21214977172E-02  0.78806438960E-02 -0.26960394343E-01  0.10157614331E+01  0.10153707799E+01 0.  0.
     999903    2    3    3    0    0  0.61701749068E-01  0.87732810066E-01  0.62297862032E-01  0.12565289409E+00  0.20086671715E-01 0.  0.
         14    1    1    2    0    0 -0.21214977172E-02 -0.78806438960E-02  0.26960394343E-01  0.28168566948E-01  0.00000000000E+00 0. -1.
     999901    1    3    3    0    0 -0.59580251350E-01 -0.79852166170E-01 -0.89258256375E-01  0.89010853896E+00  0.88000000000E+00 0.  1.
        -11    1    4    4    0    0  0.42294451221E-01  0.43753898355E-01  0.31087584458E-01  0.68336836727E-01  0.51100000000E-03 0.  1.
         11    1    4    4    0    0  0.19407297846E-01  0.43978911712E-01  0.31210277574E-01  0.57316057368E-01  0.51100000000E-03 0. -1.
</event>
<event>
 8    1  0.1112929E+005  0.1043930E+01  0.7957747E-01            NaN
         13   -1    0    0    0    0  0.00000000000E+00  0.00000000000E+00  0.74505805969E-08  0.10566000000E+00  0.10566000000E+00 0. -1.
     999900   -1    0    0    0    0 -0.00000000000E+00 -0.00000000000E+00 -0.74505805969E-08  0.93827000000E+00  0.93827000000E+00 0. -1.
     999902    2    1    2    0    0 -0.22667556300E-01 -0.52568764300E-02  0.25145849025E-02  0.10205253852E+01  0.10202569705E+01 0.  0.
     999903    2    3    3    0    0 -0.69695305332E-01 -0.19308338137E-01  0.10946146678E+00  0.13269280618E+00  0.19882670762E-01 0.  0.
         14    1    1    2    0    0  0.22667556300E-01  0.52568764300E-02 -0.25145849025E-02  0.23404614837E-01  0.00000000000E+00 0. -1.
     999901    1    3    3    0    0  0.47027749032E-01  0.14051461707E-01 -0.10694688188E+00  0.88783257898E+00  0.88000000000E+00 0. -1.
        -11    1    4    4    0    0 -0.16275119458E-01 -0.87934795313E-02  0.42743590277E-01  0.46577681634E-01  0.51100000000E-03 0.  1.
         11    1    4    4    0    0 -0.53420185874E-01 -0.10514858606E-01  0.66717876501E-01  0.86115124549E-01  0.51100000000E-03 0. -1.
</event>
<event>
 8    1  0.1112929E+005  0.1043930E+01  0.7957747E-01            NaN
         13   -1    0    0    0    0  0.00000000000E+00  0.00000000000E+00  0.74505805969E-08  0.10566000000E+00  0.10566000000E+00 0.  1.
     999900   -1    0    0    0    0 -0.00000000000E+00 -0.00000000000E+00 -0.74505805969E-08  0.93827000000E+00  0.93827000000E+00 0. -1.
     999902    2    1    2    0    0 -0.11373776805E-01  0.20968659176E-01 -0.12091431179E-02  0.10200446594E+01  0.10197649718E+01 0.  0.
     999903    2    3    3    0    0 -0.68649975743E-01 -0.10396211058E+00 -0.25226012955E-01  0.12905359875E+00  0.22305605009E-01 0.  0.
         14    1    1    2    0    0  0.11373776805E-01 -0.20968659176E-01  0.12091431179E-02  0.23885340557E-01  0.00000000000E+00 0. -1.
     999901    1    3    3    0    0  0.57276198938E-01  0.12493076976E+00  0.24016869837E-01  0.89099106069E+00  0.88000000000E+00 0. -1.
        -11    1    4    4    0    0 -0.34579675383E-01 -0.32858421741E-01 -0.86009488214E-02  0.48473366610E-01  0.51100000000E-03 0.  1.
         11    1    4    4    0    0 -0.34070300360E-01 -0.71103688840E-01 -0.16625064133E-01  0.80580232140E-01  0.51100000000E-03 0. -1.
</event>
<event>
 8    1  0.1112929E+005  0.1043930E+01  0.7957747E-01            NaN
         13   -1    0    0    0    0  0.00000000000E+00  0.00000000000E+00  0.74505805969E-08  0.10566000000E+00  0.10566000000E+00 0. -1.
     999900   -1    0    0    0    0 -0.00000000000E+00 -0.00000000000E+00 -0.74505805969E-08  0.93827000000E+00  0.93827000000E+00 0.  1.
     999902    2    1    2    0    0  0.25559126276E-02 -0.78815794589E-02 -0.21668323863E-01  0.10207315465E+01  0.10204678936E+01 0.  0.
     999903    2    3    3    0    0 -0.12320118734E+00  0.12393605722E-01 -0.39414898654E-01  0.13138298031E+00  0.19386058242E-01 0.  0.
         14    1    1    2    0    0 -0.25559126276E-02  0.78815794589E-02  0.21668323863E-01  0.23198453465E-01  0.00000000000E+00 0. -1.
     999901    1    3    3    0    0  0.12575709997E+00 -0.20275185181E-01  0.17746574791E-01  0.88934856622E+00  0.88000000000E+00 0.  1.
        -11    1    4    4    0    0 -0.68311877345E-01  0.71787847474E-02 -0.31894906198E-01  0.75733702532E-01  0.51100000000E-03 0.  1.
         11    1    4    4    0    0 -0.54889309998E-01  0.52148209742E-02 -0.75199924565E-02  0.55649277780E-01  0.51100000000E-03 0. -1.
</event>
<event>
 8    1  0.1112929E+005  0.1043930E+01  0.7957747E-01            NaN
         13   -1    0    0    0    0  0.00000000000E+00  0.00000000000E+00  0.74505805969E-08  0.10566000000E+00  0.10566000000E+00 0. -1.
     999900   -1    0    0    0    0 -0.00000000000E+00 -0.00000000000E+00 -0.74505805969E-08  0.93827000000E+00  0.93827000000E+00 0. -1.
     999902    2    1    2    0    0 -0.69798699715E-02 -0.18098689815E-01 -0.12763391624E-01  0.10207096356E+01  0.10204454786E+01 0.  0.
     999903    2    3    3    0    0 -0.10391525363E+00  0.10202769072E-01 -0.78953461323E-01  0.13246498094E+00  0.20269328725E-01 0.  0.
         14    1    1    2    0    0  0.69798699715E-02  0.18098689815E-01  0.12763391624E-01  0.23220364416E-01  0.00000000000E+00 0. -1.
     999901    1    3    3    0    0  0.96935383656E-01 -0.28301458888E-01  0.66190069699E-01  0.88824465465E+00  0.88000000000E+00 0.  1.
        -11    1    4    4    0    0 -0.25210066839E-01  0.67565170372E-02 -0.10641281842E-01  0.28190352831E-01  0.51100000000E-03 0.  1.
         11    1    4    4    0    0 -0.78705186788E-01  0.34462520352E-02 -0.68312179481E-01  0.10427462811E+00  0.51100000000E-03 0. -1.
</event>
<event>
 8    1  0.1112929E+005  0.1043930E+01  0.7957747E-01            NaN
         13   -1    0    0    0    0  0.00000000000E+00  0.00000000000E+00  0.74505805969E-08  0.10566000000E+00  0.10566000000E+00 0.  1.
     999900   -1    0    0    0    0 -0.00000000000E+00 -0.00000000000E+00 -0.74505805969E-08  0.93827000000E+00  0.93827000000E+00 0.  1.
     999902    2    1    2    0    0  0.23462938887E-01  0.56907729485E-02 -0.15375767311E-02  0.10197378827E+01  0.10194508771E+01 0.  0.
     999903    2    3    3    0    0 -0.61595560258E-01  0.10417853100E+00 -0.42979139768E-01  0.12920310520E+00  0.14108740992E-01 0.  0.
         14    1    1    2    0    0 -0.23462938887E-01 -0.56907729485E-02  0.15375767311E-02  0.24192117315E-01  0.00000000000E+00 0.  1.
     999901    1    3    3    0    0  0.85058499146E-01 -0.98487758055E-01  0.41441563037E-01  0.89053477749E+00  0.88000000000E+00 0. -1.
        -11    1    4    4    0    0 -0.50303105797E-01  0.76231856326E-01 -0.27930743468E-01  0.95509611680E-01  0.51100000000E-03 0. -1.
         11    1    4    4    0    0 -0.11292454462E-01  0.27946674678E-01 -0.15048396300E-01  0.33693493519E-01  0.51100000000E-03 0.  1.
</event>
<event>
 8    1  0.1112929E+005  0.1043930E+01  0.7957747E-01            NaN
         13   -1    0    0    0    0  0.00000000000E+00  0.00000000000E+00  0.74505805969E-08  0.10566000000E+00  0.10566000000E+00 0. -1.
     999900   -1    0    0    0    0 -0.00000000000E+00 -0.00000000000E+00 -0.74505805969E-08  0.93827000000E+00  0.93827000000E+00 0. -1.
     999902    2    1    2    0    0  0.17597973648E-01  0.78096301328E-02 -0.13176674514E-01  0.10205996817E+01  0.10203329881E+01 0.  0.
     999903    2    3    3    0    0  0.12898382221E+00  0.74575855207E-02 -0.26662412101E-01  0.13347579167E+00  0.20309130206E-01 0.  0.
         14    1    1    2    0    0 -0.17597973648E-01 -0.78096301328E-02  0.13176674514E-01  0.23330318270E-01  0.00000000000E+00 0. -1.
     999901    1    3    3    0    0 -0.11138584856E+00  0.35204461202E-03  0.13485737587E-01  0.88712389006E+00  0.88000000000E+00 0.  1.
        -11    1    4    4    0    0  0.11515078127E+00  0.61088194600E-02 -0.17045917811E-01  0.11656691014E+00  0.51100000000E-03 0. -1.
         11    1    4    4    0    0  0.13833040935E-01  0.13487660608E-02 -0.96164942897E-02  0.16908881536E-01  0.51100000000E-03 0.  1.
</event>
<event>
 8    1  0.1112929E+005  0.1043930E+01  0.7957747E-01            NaN
         13   -1    0    0    0    0  0.00000000000E+00  0.00000000000E+00  0.74505805969E-08  0.10566000000E+00  0.10566000000E+00 0.  1.
     999900   -1    0    0    0    0 -0.00000000000E+00 -0.00000000000E+00 -0.74505805969E-08  0.93827000000E+00  0.93827000000E+00 0.  1.
     999902    2    1    2    0    0  0.17438499951E-01 -0.14052784900E-01 -0.54555929608E-02  0.10208790664E+01  0.10206187940E+01 0.  0.
     999903    2    3    3    0    0  0.99950832213E-01 -0.69712660110E-01  0.50607289163E-01  0.13349563553E+00  0.20247546742E-01 0.  0.
         14    1    1    2    0    0 -0.17438499951E-01  0.14052784900E-01  0.54555929608E-02  0.23050933571E-01  0.00000000000E+00 0.  1.
     999901    1    3    3    0    0 -0.82512332263E-01  0.55659875210E-01 -0.56062882123E-01  0.88738343090E+00  0.88000000000E+00 0. -1.
        -11    1    4    4    0    0  0.28997836129E-01 -0.12092777153E-01  0.68616600534E-02  0.32162917453E-01  0.51100000000E-03 0.  1.
         11    1    4    4    0    0  0.70952996084E-01 -0.57619882957E-01  0.43745629109E-01  0.10133271808E+00  0.51100000000E-03 0. -1.
</event>
<event>
 8    1  0.1112929E+005  0.1043930E+01  0.7957747E-01            NaN
         13   -1    0    0    0    0  0.00000000000E+00  0.00000000000E+00  0.74505805969E-08  0.10566000000E+00  0.10566000000E+00 0.  1.
     999900   -1    0    0    0    0 -0.00000000000E+00 -0.00000000000E+00 -0.74505805969E-08  0.93827000000E+00  0.93827000000E+00 0. -1.
     999902    2    1    2    0    0  0.31959675342E-02 -0.22095147835E-01 -0.10642780732E-01  0.10191978641E+01  0.10188977415E+01 0.  0.
     999903    2    3    3    0    0  0.94095566795E-01 -0.29484094868E-01  0.81784438227E-01  0.12966982938E+00  0.20056988166E-01 0.  0.
         14    1    1    2    0    0 -0.31959675342E-02  0.22095147835E-01  0.10642780732E-01  0.24732135938E-01  0.00000000000E+00 0.  1.
     999901    1    3    3    0    0 -0.90899599261E-01  0.73889470328E-02 -0.92427218959E-01  0.88952803468E+00  0.88000000000E+00 0. -1.
        -11    1    4    4    0    0  0.58623111923E-01 -0.80449000096E-02  0.48048717281E-01  0.76225520799E-01  0.51100000000E-03 0. -1.
         11    1    4    4    0    0  0.35472454872E-01 -0.21439194858E-01  0.33735720946E-01  0.53444308580E-01  0.51100000000E-03 0.  1.
</event>
<event>
 8    1  0.1112929E+005  0.1043930E+01  0.7957747E-01            NaN
         13   -1    0    0    0    0  0.00000000000E+00  0.00000000000E+00  0.74505805969E-08  0.10566000000E+00  0.10566000000E+00 0. -1.
     999900   -1    0    0    0    0 -0.00000000000E+00 -0.00000000000E+00 -0.74505805969E-08  0.93827000000E+00  0.93827000000E+00 0.  1.
     999902    2    1    2    0    0  0.14376921293E-01  0.11419310662E-01 -0.14972040959E-01  0.10202391044E+01  0.10199640051E+01 0.  0.
     999903    2    3    3    0    0  0.95429044862E-01  0.85782126758E-01  0.26357746006E-01  0.13242863681E+00  0.19425169178E-01 0.  0.
         14    1    1    2    0    0 -0.14376921293E-01 -0.11419310662E-01  0.14972040959E-01  0.23690895558E-01  0.00000000000E+00 0. -1.
     999901    1    3    3    0    0 -0.81052123569E-01 -0.74362816095E-01 -0.41329786965E-01  0.88781046764E+00  0.88000000000E+00 0. -1.
        -11    1    4    4    0    0  0.23183609628E-01  0.32111609008E-01  0.11179024633E-01  0.41156614307E-01  0.51100000000E-03 0.  1.
         11    1    4    4    0    0  0.72245435234E-01  0.53670517750E-01  0.15178721373E-01  0.91272022500E-01  0.51100000000E-03 0. -1.
</event>
<event>
 8    1  0.1112929E+005  0.1043930E+01  0.7957747E-01            NaN
         13   -1    0    0    0    0  0.00000000000E+00  0.00000000000E+00  0.74505805969E-08  0.10566000000E+00  0.10566000000E+00 0. -1.
     999900   -1    0    0    0    0 -0.00000000000E+00 -0.00000000000E+00 -0.74505805969E-08  0.93827000000E+00  0.93827000000E+00 0.  1.
     999902    2    1    2    0    0 -0.10968928796E-01 -0.12337821193E-01 -0.29275436777E-01  0.10103206199E+01  0.10097614395E+01 0.  0.
     999903    2    3    3    0    0  0.42413007578E-01  0.10582265226E+00  0.26156964202E-01  0.11909434131E+00  0.22404874705E-01 0.  0.
         14    1    1    2    0    0  0.10968928796E-01  0.12337821193E-01  0.29275436777E-01  0.33609380078E-01  0.00000000000E+00 0. -1.
     999901    1    3    3    0    0 -0.53381936375E-01 -0.11816047346E+00 -0.55432400978E-01  0.89122627862E+00  0.88000000000E+00 0.  1.
        -11    1    4    4    0    0  0.59418128979E-02  0.22431203801E-02  0.15269446205E-02  0.65520539091E-02  0.51100000000E-03 0. -1.
         11    1    4    4    0    0  0.36471194680E-01  0.10357953188E+00  0.24630019581E-01  0.11254228740E+00  0.51100000000E-03 0.  1.
</event>
<event>
 8    1  0.1112929E+005  0.1043930E+01  0.7957747E-01            NaN
         13   -1    0    0    0    0  0.00000000000E+00  0.00000000000E+00  0.74505805969E-08  0.10566000000E+00  0.10566000000E+00 0.  1.
     999900   -1    0    0    0    0 -0.00000000000E+00 -0.00000000000E+00 -0.74505805969E-08  0.93827000000E+00  0.93827000000E+00 0.  1.
     999902    2    1    2    0    0  0.67148536331E-02 -0.10361501563E-01  0.17364754498E-01  0.10226230839E+01  0.10224010892E+01 0.  0.
     999903    2    3    3    0    0  0.75535464377E-01 -0.90458030301E-01  0.62973557063E-01  0.13513680614E+00  0.20199650004E-01 0.  0.
         14    1    1    2    0    0 -0.67148536331E-02  0.10361501563E-01 -0.17364754498E-01  0.21306916077E-01  0.00000000000E+00 0. -1.
     999901    1    3    3    0    0 -0.68820610744E-01  0.80096528738E-01 -0.45608802565E-01  0.88748627778E+00  0.88000000000E+00 0.  1.
        -11    1    4    4    0    0  0.60813727805E-01 -0.64128139713E-01  0.39004213100E-01  0.96603921003E-01  0.51100000000E-03 0.  1.
         11    1    4    4    0    0  0.14721736572E-01 -0.26329890588E-01  0.23969343962E-01  0.38532885138E-01  0.51100000000E-03 0. -1.
</event>
<event>
 8    1  0.1112929E+005  0.1043930E+01  0.7957747E-01            NaN
         13   -1    0    0    0    0  0.00000000000E+00  0.00000000000E+00  0.74505805969E-08  0.10566000000E+00  0.10566000000E+00 0.  1.
     999900   -1    0    0    0    0 -0.00000000000E+00 -0.00000000000E+00 -0.74505805969E-08  0.93827000000E+00  0.93827000000E+00 0.  1.
     999902    2    1    2    0    0 -0.51089232615E-02  0.63038874672E-02  0.22290403972E-01  0.10202086551E+01  0.10199328398E+01 0.  0.
     999903    2    3    3    0    0 -0.62984633108E-01 -0.16173414513E-01  0.11503459768E+00  0.13315943869E+00  0.16426627845E-01 0.  0.
         14    1    1    2    0    0  0.51089232615E-02 -0.63038874672E-02 -0.22290403972E-01  0.23721344888E-01  0.00000000000E+00 0. -1.
     999901    1    3    3    0    0  0.57875709846E-01  0.22477301980E-01 -0.92744193711E-01  0.88704921643E+00  0.88000000000E+00 0.  1.
        -11    1    4    4    0    0 -0.41172277574E-02  0.29724896500E-02  0.73278746187E-02  0.89300686757E-02  0.51100000000E-03 0.  1.
         11    1    4    4    0    0 -0.58867405350E-01 -0.19145904163E-01  0.10770672306E+00  0.12422937001E+00  0.51100000000E-03 0. -1.
</event>
<event>
 8    1  0.1112929E+005  0.1043930E+01  0.7957747E-01            NaN
         13   -1    0    0    0    0  0.00000000000E+00  0.00000000000E+00  0.74505805969E-08  0.10566000000E+00  0.10566000000E+00 0. -1.
     999900   -1    0    0    0    0 -0.00000000000E+00 -0.00000000000E+00 -0.74505805969E-08  0.93827000000E+00  0.93827000000E+00 0. -1.
     999902    2    1    2    0    0  0.10081701186E-01  0.19155613168E-01 -0.99842487429E-02  0.10200917233E+01  0.10198131498E+01 0.  0.
     999903    2    3    3    0    0 -0.10006856880E+00 -0.76059227376E-01 -0.85507991565E-03  0.12808147133E+00  0.24605032098E-01 0.  0.
         14    1    1    2    0    0 -0.10081701186E-01 -0.19155613168E-01  0.99842487429E-02  0.23838276733E-01  0.00000000000E+00 0. -1.
     999901    1    3    3    0    0  0.11015026999E+00  0.95214840544E-01 -0.91291688272E-02  0.89201025194E+00  0.88000000000E+00 0.  1.
        -11    1    4    4    0    0 -0.21702661706E-01 -0.50617471295E-02 -0.13944727898E-02  0.22334558077E-01  0.51100000000E-03 0. -1.
         11    1    4    4    0    0 -0.78365907098E-01 -0.70997480246E-01  0.53939287416E-03  0.10574691325E+00  0.51100000000E-03 0.  1.
</event>
<event>
 8    1  0.1112929E+005  0.1043930E+01  0.7957747E-01            NaN
         13   -1    0    0    0    0  0.00000000000E+00  0.00000000000E+00  0.74505805969E-08  0.10566000000E+00  0.10566000000E+00 0.  1.
     999900   -1    0    0    0    0 -0.00000000000E+00 -0.00000000000E+00 -0.74505805969E-08  0.93827000000E+00  0.93827000000E+00 0. -1.
     999902    2    1    2    0    0 -0.13340783067E-01 -0.11235390126E-01  0.14864351949E-01  0.10210136425E+01  0.10207564345E+01 0.  0.
     999903    2    3    3    0    0  0.11433814369E+00 -0.11435938954E-01  0.59260122318E-01  0.13069182818E+00  0.19094503174E-01 0.  0.
         14    1    1    2    0    0  0.13340783067E-01  0.11235390126E-01 -0.14864351949E-01  0.22916357542E-01  0.00000000000E+00 0. -1.
     999901    1    3    3    0    0 -0.12767892676E+00  0.20054882770E-03 -0.44395770369E-01  0.89032181428E+00  0.88000000000E+00 0.  1.
        -11    1    4    4    0    0  0.36063527378E-01 -0.10814872599E-01  0.25299615522E-01  0.45363764646E-01  0.51100000000E-03 0.  1.
         11    1    4    4    0    0  0.78274616317E-01 -0.62106635515E-03  0.33960506796E-01  0.85328063530E-01  0.51100000000E-03 0. -1.
</event>
<event>
 8    1  0.1112929E+005  0.1043930E+01  0.7957747E-01            NaN
         13   -1    0    0    0    0  0.00000000000E+00  0.00000000000E+00  0.74505805969E-08  0.10566000000E+00  0.10566000000E+00 0. -1.
     999900   -1    0    0    0    0 -0.00000000000E+00 -0.00000000000E+00 -0.74505805969E-08  0.93827000000E+00  0.93827000000E+00 0.  1.
     999902    2    1    2    0    0 -0.65299939425E-02  0.22922370241E-01  0.90138280700E-03  0.10200786191E+01  0.10197997357E+01 0.  0.
     999903    2    3    3    0    0 -0.12074114500E+00 -0.19943561582E-01 -0.32071340003E-01  0.13105169289E+00  0.34202421200E-01 0.  0.
         14    1    1    2    0    0  0.65299939425E-02 -0.22922370241E-01 -0.90138280700E-03  0.23851380868E-01  0.00000000000E+00 0.  1.
     999901    1    3    3    0    0  0.11421115105E+00  0.42865931823E-01  0.32972722810E-01  0.88902692624E+00  0.88000000000E+00 0. -1.
        -11    1    4    4    0    0 -0.85278910504E-01 -0.24765716365E-01 -0.34282299842E-01  0.95191231147E-01  0.51100000000E-03 0. -1.
         11    1    4    4    0    0 -0.35462234492E-01  0.48221547832E-02  0.22109598394E-02  0.35860461742E-01  0.51100000000E-03 0.  1.
</event>
<event>
 8    1  0.1112929E+005  0.1043930E+01  0.7957747E-01            NaN
         13   -1    0    0    0    0  0.00000000000E+00  0.00000000000E+00  0.74505805969E-08  0.10566000000E+00  0.10566000000E+00 0. -1.
     999900   -1    0    0    0    0 -0.00000000000E+00 -0.00000000000E+00 -0.74505805969E-08  0.93827000000E+00  0.93827000000E+00 0. -1.
     999902    2    1    2    0    0 -0.17629404115E-01 -0.11155135735E-01 -0.11208046560E-01  0.10202476595E+01  0.10199727612E+01 0.  0.
     999903    2    3    3    0    0 -0.39697534241E-01  0.97338588157E-01 -0.75529273305E-01  0.13098104557E+00  0.20016698084E-01 0.  0.
         14    1    1    2    0    0  0.17629404115E-01  0.11155135735E-01  0.11208046560E-01  0.23682340476E-01  0.00000000000E+00 0. -1.
     999901    1    3    3    0    0  0.22068130126E-01 -0.10849372389E+00  0.64321226746E-01  0.88926661396E+00  0.88000000000E+00 0.  1.
        -11    1    4    4    0    0 -0.10453061317E-01  0.48750442698E-01 -0.41259758511E-01  0.64718629061E-01  0.51100000000E-03 0.  1.
         11    1    4    4    0    0 -0.29244472925E-01  0.48588145459E-01 -0.34269514794E-01  0.66262416504E-01  0.51100000000E-03 0. -1.
</event>
<event>
 8    1  0.1112929E+005  0.1043930E+01  0.7957747E-01            NaN
         13   -1    0    0    0    0  0.00000000000E+00  0.00000000000E+00  0.74505805969E-08  0.10566000000E+00  0.10566000000E+00 0. -1.
     999900   -1    0    0    0    0 -0.00000000000E+00 -0.00000000000E+00 -0.74505805969E-08  0.93827000000E+00  0.93827000000E+00 0. -1.
     999902    2    1    2    0    0 -0.20699950190E-01  0.95076264800E-02 -0.55761002463E-02  0.10204784373E+01  0.10202089321E+01 0.  0.
     999903    2    3    3    0    0 -0.12958627282E+00 -0.15363127581E-01  0.17805665916E-01  0.13311070482E+00  0.19307775753E-01 0.  0.
         14    1    1    2    0    0  0.20699950190E-01 -0.95076264800E-02  0.55761002463E-02  0.23451562701E-01  0.00000000000E+00 0.  1.
     999901    1    3    3    0    0  0.10888632263E+00  0.24870754061E-01 -0.23381766162E-01  0.88736773248E+00  0.88000000000E+00 0. -1.
        -11    1    4    4    0    0 -0.16684836295E-01 -0.86784195606E-02  0.26388788612E-02  0.18997987549E-01  0.51100000000E-03 0.  1.
         11    1    4    4    0    0 -0.11290143653E+00 -0.66847080201E-02  0.15166787055E-01  0.11411271727E+00  0.51100000000E-03 0. -1.
</event>
<event>
 8    1  0.1112929E+005  0.1043930E+01  0.7957747E-01            NaN
         13   -1    0    0    0    0  0.00000000000E+00  0.00000000000E+00  0.74505805969E-08  0.10566000000E+00  0.10566000000E+00 0.  1.
     999900   -1    0    0    0    0 -0.00000000000E+00 -0.00000000000E+00 -0.74505805969E-08  0.93827000000E+00  0.93827000000E+00 0.  1.
     999902    2    1    2    0    0  0.21699099734E-01  0.75416278232E-02  0.43830917371E-02  0.10205432821E+01  0.10202752825E+01 0.  0.
     999903    2    3    3    0    0  0.99179549347E-01 -0.75201156933E-01 -0.39370219035E-01  0.13219428500E+00  0.20821090916E-01 0.  0.
         14    1    1    2    0    0 -0.21699099734E-01 -0.75416278232E-02 -0.43830917371E-02  0.23386717869E-01  0.00000000000E+00 0. -1.
     999901    1    3    3    0    0 -0.77480449612E-01  0.82742784756E-01  0.43753310773E-01  0.88834899713E+00  0.88000000000E+00 0.  1.
        -11    1    4    4    0    0  0.65585776812E-01 -0.37513622023E-01 -0.20451374412E-01  0.78276981250E-01  0.51100000000E-03 0. -1.
         11    1    4    4    0    0  0.33593772535E-01 -0.37687534910E-01 -0.18918844623E-01  0.53917303749E-01  0.51100000000E-03 0.  1.
</event>
<event>
 8    1  0.1112929E+005  0.1043930E+01  0.7957747E-01            NaN
         13   -1    0    0    0    0  0.00000000000E+00  0.00000000000E+00  0.74505805969E-08  0.10566000000E+00  0.10566000000E+00 0. -1.
     999900   -1    0    0    0    0 -0.00000000000E+00 -0.00000000000E+00 -0.74505805969E-08  0.93827000000E+00  0.93827000000E+00 0. -1.
     999902    2    1    2    0    0  0.12872481601E-01  0.45822426689E-02 -0.19686715638E-01  0.10199661835E+01  0.10196846331E+01 0.  0.
     999903    2    3    3    0    0  0.68422619687E-01  0.62514652061E-01  0.88492566490E-01  0.12971636516E+00  0.20141113675E-01 0.  0.
         14    1    1    2    0    0 -0.12872481601E-01 -0.45822426689E-02  0.19686715638E-01  0.23963816538E-01  0.00000000000E+00 0. -1.
     999901    1    3    3    0    0 -0.55550138086E-01 -0.57932409392E-01 -0.10817928213E+00  0.89024981830E+00  0.88000000000E+00 0. -1.
        -11    1    4    4    0    0  0.67243559174E-01  0.62920425872E-01  0.82718942156E-01  0.12378756301E+00  0.51100000000E-03 0.  1.
         11    1    4    4    0    0  0.11790605124E-02 -0.40577381133E-03  0.57736243341E-02  0.59288021581E-02  0.51100000000E-03 0. -1.
</event>
<event>
 8    1  0.1112929E+005  0.1043930E+01  0.7957747E-01            NaN
         13   -1    0    0    0    0  0.00000000000E+00  0.00000000000E+00  0.74505805969E-08  0.10566000000E+00  0.10566000000E+00 0. -1.
     999900   -1    0    0    0    0 -0.00000000000E+00 -0.00000000000E+00 -0.74505805969E-08  0.93827000000E+00  0.93827000000E+00 0.  1.
     999902    2    1    2    0    0  0.89398848691E-02  0.21418890788E-01  0.72134005524E-03  0.10207090880E+01  0.10204449184E+01 0.  0.
     999903    2    3    3    0    0  0.10322148715E+00 -0.74126621320E-01  0.20453456379E-01  0.13031180483E+00  0.20332024035E-01 0.  0.
         14    1    1    2    0    0 -0.89398848691E-02 -0.21418890788E-01 -0.72134005524E-03  0.23220912030E-01  0.00000000000E+00 0.  1.
     999901    1    3    3    0    0 -0.94281602283E-01  0.95545512107E-01 -0.19732116324E-01  0.89039728314E+00  0.88000000000E+00 0. -1.
        -11    1    4    4    0    0  0.85184446917E-01 -0.68060842748E-01  0.12763988854E-01  0.10978091293E+00  0.51100000000E-03 0. -1.
         11    1    4    4    0    0  0.18037040235E-01 -0.60657785719E-02  0.76894675256E-02  0.20530891894E-01  0.51100000000E-03 0.  1.
</event>
<event>
 8    1  0.1112929E+005  0.1043930E+01  0.7957747E-01            NaN
         13   -1    0    0    0    0  0.00000000000E+00  0.00000000000E+00  0.74505805969E-08  0.10566000000E+00  0.10566000000E+00 0. -1.
     999900   -1    0    0    0    0 -0.00000000000E+00 -0.00000000000E+00 -0.74505805969E-08  0.93827000000E+00  0.93827000000E+00 0. -1.
     999902    2    1    2    0    0 -0.67953558105E-02  0.13556349076E-01 -0.95154964495E-02  0.10260275942E+01  0.10258713993E+01 0.  0.
     999903    2    3    3    0    0 -0.13001713577E+00 -0.11590656079E-01  0.33259170609E-01  0.13605812783E+00  0.19153141169E-01 0.  0.
         14    1    1    2    0    0  0.67953558105E-02 -0.13556349076E-01  0.95154964495E-02  0.17902405803E-01  0.00000000000E+00 0. -1.
     999901    1    3    3    0    0  0.12322177996E+00  0.25147005155E-01 -0.42774667058E-01  0.88996946637E+00  0.88000000000E+00 0. -1.
        -11    1    4    4    0    0 -0.27038049966E-01 -0.97203187326E-02  0.10349597335E-01  0.30543674111E-01  0.51100000000E-03 0. -1.
         11    1    4    4    0    0 -0.10297908580E+00 -0.18703373466E-02  0.22909573274E-01  0.10551445372E+00  0.51100000000E-03 0.  1.
</event>
<event>
 8    1  0.1112929E+005  0.1043930E+01  0.7957747E-01            NaN
         13   -1    0    0    0    0  0.00000000000E+00  0.00000000000E+00  0.74505805969E-08  0.10566000000E+00  0.10566000000E+00 0. -1.
     999900   -1    0    0    0    0 -0.00000000000E+00 -0.00000000000E+00 -0.74505805969E-08  0.93827000000E+00  0.93827000000E+00 0.  1.
     999902    2    1    2    0    0  0.55412000984E-02  0.74090075446E-02 -0.81000213327E-02  0.10316333079E+01  0.10315600192E+01 0.  0.
     999903    2    3    3    0    0  0.85625520544E-01  0.10282663066E+00  0.41399877116E-01  0.14148261215E+00  0.19958305894E-01 0.  0.
         14    1    1    2    0    0 -0.55412000984E-02 -0.74090075446E-02  0.81000213327E-02  0.12296692113E-01  0.00000000000E+00 0. -1.
     999901    1    3    3    0    0 -0.80084320445E-01 -0.95417623111E-01 -0.49499898449E-01  0.89015069574E+00  0.88000000000E+00 0. -1.
        -11    1    4    4    0    0  0.38921558673E-01  0.51076181364E-01  0.98666726137E-02  0.64971350469E-01  0.51100000000E-03 0. -1.
         11    1    4    4    0    0  0.46703961871E-01  0.51750449292E-01  0.31533204502E-01  0.76511261678E-01  0.51100000000E-03 0.  1.
</event>
<event>
 8    1  0.1480656E+005  0.1043930E+01  0.7957747E-01            NaN
         13   -1    0    0    0    0  0.00000000000E+00  0.00000000000E+00  0.74505805969E-08  0.10566000000E+00  0.10566000000E+00 0. -1.
     999900   -1    0    0    0    0 -0.00000000000E+00 -0.00000000000E+00 -0.74505805969E-08  0.93827000000E+00  0.93827000000E+00 0.  1.
     999902    2    1    2    0    0 -0.43218484644E-02  0.11026909126E-04 -0.23125730129E-01  0.10204038892E+01  0.10201326478E+01 0.  0.
     999903    2    3    3    0    0  0.66430852434E-02  0.20801616669E-02 -0.13191473185E+00  0.13363472081E+00  0.20206050424E-01 0.  0.
         14    1    1    2    0    0  0.43218484644E-02 -0.11026909126E-04  0.23125730129E-01  0.23526110808E-01  0.00000000000E+00 0. -1.
     999901    1    3    3    0    0 -0.10964933708E-01 -0.20691347578E-02  0.10878900172E+00  0.88676916838E+00  0.88000000000E+00 0. -1.
        -11    1    4    4    0    0  0.11255464171E-01  0.76698858113E-02 -0.71766581601E-01  0.73049407785E-01  0.51100000000E-03 0.  1.
         11    1    4    4    0    0 -0.46123789275E-02 -0.55897241443E-02 -0.60148150249E-01  0.60585313029E-01  0.51100000000E-03 0. -1.
</event>
<event>
 8    1  0.1112929E+005  0.1043930E+01  0.7957747E-01            NaN
         13   -1    0    0    0    0  0.00000000000E+00  0.00000000000E+00  0.74505805969E-08  0.10566000000E+00  0.10566000000E+00 0.  1.
     999900   -1    0    0    0    0 -0.00000000000E+00 -0.00000000000E+00 -0.74505805969E-08  0.93827000000E+00  0.93827000000E+00 0. -1.
     999902    2    1    2    0    0  0.15249063091E-01 -0.57292286009E-03  0.16571318369E-01  0.10214028884E+01  0.10211544397E+01 0.  0.
     999903    2    3    3    0    0  0.12393452463E+00  0.44084652651E-01 -0.66966247902E-02  0.13328790383E+00  0.20435203165E-01 0.  0.
         14    1    1    2    0    0 -0.15249063091E-01  0.57292286009E-03 -0.16571318369E-01  0.22527111626E-01  0.00000000000E+00 0.  1.
     999901    1    3    3    0    0 -0.10868546154E+00 -0.44657575511E-01  0.23267943159E-01  0.88811498455E+00  0.88000000000E+00 0.  1.
        -11    1    4    4    0    0  0.43784381312E-02 -0.20102416891E-02  0.89930923094E-03  0.49276434743E-02  0.51100000000E-03 0.  1.
         11    1    4    4    0    0  0.11955608650E+00  0.46094894340E-01 -0.75959340211E-02  0.12836026035E+00  0.51100000000E-03 0. -1.
</event>
<event>
 8    1  0.1112929E+005  0.1043930E+01  0.7957747E-01            NaN
         13   -1    0    0    0    0  0.00000000000E+00  0.00000000000E+00  0.74505805969E-08  0.10566000000E+00  0.10566000000E+00 0.  1.
     999900   -1    0    0    0    0 -0.00000000000E+00 -0.00000000000E+00 -0.74505805969E-08  0.93827000000E+00  0.93827000000E+00 0.  1.
     999902    2    1    2    0    0 -0.10331032309E-01 -0.18402663380E-01 -0.11713939154E-01  0.10197927960E+01  0.10195071074E+01 0.  0.
     999903    2    3    3    0    0  0.92019255964E-01 -0.54318351490E-01  0.70559226324E-01  0.12932415984E+00  0.18113727466E-01 0.  0.
         14    1    1    2    0    0  0.10331032309E-01  0.18402663380E-01  0.11713939154E-01  0.24137204034E-01  0.00000000000E+00 0.  1.
     999901    1    3    3    0    0 -0.10235028827E+00  0.35915688110E-01 -0.82273165479E-01  0.89046863612E+00  0.88000000000E+00 0.  1.
        -11    1    4    4    0    0  0.87505032751E-01 -0.46931626543E-01  0.67750938529E-01  0.12020881465E+00  0.51100000000E-03 0. -1.
         11    1    4    4    0    0  0.45142232127E-02 -0.73867249468E-02  0.28082877958E-02  0.91153451936E-02  0.51100000000E-03 0.  1.
</event>
<event>
 8    1  0.1112929E+005  0.1043930E+01  0.7957747E-01            NaN
         13   -1    0    0    0    0  0.00000000000E+00  0.00000000000E+00  0.74505805969E-08  0.10566000000E+00  0.10566000000E+00 0. -1.
     999900   -1    0    0    0    0 -0.00000000000E+00 -0.00000000000E+00 -0.74505805969E-08  0.93827000000E+00  0.93827000000E+00 0. -1.
     999902    2    1    2    0    0 -0.87922055743E-02  0.25784956944E-01 -0.58129464832E-02  0.10160739911E+01  0.10156920784E+01 0.  0.
     999903    2    3    3    0    0  0.11877742950E+00  0.35627642691E-01  0.15282824034E-01  0.12657080294E+00  0.20228612569E-01 0.  0.
         14    1    1    2    0    0  0.87922055743E-02 -0.25784956944E-01  0.58129464832E-02  0.27856008872E-01  0.00000000000E+00 0.  1.
     999901    1    3    3    0    0 -0.12756963507E+00 -0.98426857473E-02 -0.21095770517E-01  0.88950318818E+00  0.88000000000E+00 0.  1.
        -11    1    4    4    0    0  0.91030636633E-01  0.23541886843E-01  0.19446506619E-01  0.96016795315E-01  0.51100000000E-03 0. -1.
         11    1    4    4    0    0  0.27746792862E-01  0.12085755848E-01 -0.41636825856E-02  0.30554007630E-01  0.51100000000E-03 0.  1.
</event>
<event>
 8    1  0.1112929E+005  0.1043930E+01  0.7957747E-01            NaN
         13   -1    0    0    0    0  0.00000000000E+00  0.00000000000E+00  0.74505805969E-08  0.10566000000E+00  0.10566000000E+00 0. -1.
     999900   -1    0    0    0    0 -0.00000000000E+00 -0.00000000000E+00 -0.74505805969E-08  0.93827000000E+00  0.93827000000E+00 0. -1.
     999902    2    1    2    0    0 -0.76638752079E-02 -0.19584805363E-01 -0.11693202954E-01  0.10198669458E+01  0.10195830307E+01 0.  0.
     999903    2    3    3    0    0  0.11925838833E+00  0.30124681041E-01 -0.33716083080E-01  0.12910025280E+00  0.20001035477E-01 0.  0.
         14    1    1    2    0    0  0.76638752079E-02  0.19584805363E-01  0.11693202954E-01  0.24063054246E-01  0.00000000000E+00 0.  1.
     999901    1    3    3    0    0 -0.12692226354E+00 -0.49709486404E-01  0.22022880126E-01  0.89076669295E+00  0.88000000000E+00 0.  1.
        -11    1    4    4    0    0  0.10003196368E+00  0.17386906640E-01 -0.26617893320E-01  0.10496414458E+00  0.51100000000E-03 0. -1.
         11    1    4    4    0    0  0.19226424650E-01  0.12737774401E-01 -0.70981897598E-02  0.24136108228E-01  0.51100000000E-03 0.  1.
</event>
<event>
 8    1  0.1112929E+005  0.1043930E+01  0.7957747E-01            NaN
         13   -1    0    0    0    0  0.00000000000E+00  0.00000000000E+00  0.74505805969E-08  0.10566000000E+00  0.10566000000E+00 0. -1.
     999900   -1    0    0    0    0 -0.00000000000E+00 -0.00000000000E+00 -0.74505805969E-08  0.93827000000E+00  0.93827000000E+00 0.  1.
     999902    2    1    2    0    0  0.17609220935E-01  0.93109544186E-02 -0.12456190911E-01  0.10204366983E+01  0.10201662217E+01 0.  0.
     999903    2    3    3    0    0 -0.32422771531E-02  0.62446803246E-01  0.11191190113E+00  0.12986069044E+00  0.20722203326E-01 0.  0.
         14    1    1    2    0    0 -0.17609220935E-01 -0.93109544186E-02  0.12456190911E-01  0.23493301729E-01  0.00000000000E+00 0. -1.
     999901    1    3    3    0    0  0.20851498088E-01 -0.53135848828E-01 -0.12436809204E+00  0.89057600783E+00  0.88000000000E+00 0.  1.
        -11    1    4    4    0    0 -0.94991132230E-02  0.50463681636E-01  0.78396812712E-01  0.93718395637E-01  0.51100000000E-03 0. -1.
         11    1    4    4    0    0  0.62568360699E-02  0.11983121610E-01  0.33515088418E-01  0.36142294805E-01  0.51100000000E-03 0.  1.
</event>
<event>
 8    1  0.1112929E+005  0.1043930E+01  0.7957747E-01            NaN
         13   -1    0    0    0    0  0.00000000000E+00  0.00000000000E+00  0.74505805969E-08  0.10566000000E+00  0.10566000000E+00 0. -1.
     999900   -1    0    0    0    0 -0.00000000000E+00 -0.00000000000E+00 -0.74505805969E-08  0.93827000000E+00  0.93827000000E+00 0. -1.
     999902    2    1    2    0    0  0.15905998632E-01  0.16758431992E-01  0.14255447006E-02  0.10207809609E+01  0.10205184428E+01 0.  0.
     999903    2    3    3    0    0  0.85040996188E-01 -0.14088831510E-01 -0.97550723178E-01  0.13200230273E+00  0.21863168276E-01 0.  0.
         14    1    1    2    0    0 -0.15905998632E-01 -0.16758431992E-01 -0.14255447006E-02  0.23149039138E-01  0.00000000000E+00 0. -1.
     999901    1    3    3    0    0 -0.69134997556E-01  0.30847263502E-01  0.98976267878E-01  0.88877865813E+00  0.88000000000E+00 0. -1.
        -11    1    4    4    0    0  0.49022545598E-01 -0.18545926626E-01 -0.62125404317E-01  0.81283383012E-01  0.51100000000E-03 0.  1.
         11    1    4    4    0    0  0.36018450589E-01  0.44570951164E-02 -0.35425318861E-01  0.50718919716E-01  0.51100000000E-03 0. -1.
</event>
<event>
 8    1  0.1112929E+005  0.1043930E+01  0.7957747E-01            NaN
         13   -1    0    0    0    0  0.00000000000E+00  0.00000000000E+00  0.74505805969E-08  0.10566000000E+00  0.10566000000E+00 0.  1.
     999900   -1    0    0    0    0 -0.00000000000E+00 -0.00000000000E+00 -0.74505805969E-08  0.93827000000E+00  0.93827000000E+00 0.  1.
     999902    2    1    2    0    0 -0.21041594123E-01 -0.83553176709E-02  0.86987703149E-02  0.10196765751E+01  0.10193880954E+01 0.  0.
     999903    2    3    3    0    0  0.82056175911E-01 -0.37807137028E-01  0.90472497070E-01  0.12940498602E+00  0.19944474572E-01 0.  0.
         14    1    1    2    0    0  0.21041594123E-01  0.83553176709E-02 -0.86987703149E-02  0.24253424946E-01  0.00000000000E+00 0.  1.
     999901    1    3    3    0    0 -0.10309777003E+00  0.29451819357E-01 -0.81773726755E-01  0.89027158903E+00  0.88000000000E+00 0.  1.
        -11    1    4    4    0    0  0.21586102185E-01 -0.15149554047E-01  0.37679075417E-01  0.45993941348E-01  0.51100000000E-03 0.  1.
         11    1    4    4    0    0  0.60470073726E-01 -0.22657582981E-01  0.52793421652E-01  0.83411044675E-01  0.51100000000E-03 0. -1.
</event>
<event>
 8    1  0.1112929E+005  0.1043930E+01  0.7957747E-01            NaN
         13   -1    0    0    0    0  0.00000000000E+00  0.00000000000E+00  0.74505805969E-08  0.10566000000E+00  0.10566000000E+00 0.  1.
     999900   -1    0    0    0    0 -0.00000000000E+00 -0.00000000000E+00 -0.74505805969E-08  0.93827000000E+00  0.93827000000E+00 0. -1.
     999902    2    1    2    0    0  0.11993242308E-01 -0.40526751526E-02 -0.19592617192E-01  0.10206033482E+01  0.10203367393E+01 0.  0.
     999903    2    3    3    0    0  0.77608419295E-01  0.97083774377E-01  0.34881981702E-01  0.13071491989E+00  0.20525877353E-01 0.  0.
         14    1    1    2    0    0 -0.11993242308E-01  0.40526751526E-02  0.19592617192E-01  0.23326651825E-01  0.00000000000E+00 0.  1.
     999901    1    3    3    0    0 -0.65615176987E-01 -0.10113644953E+00 -0.54474598894E-01  0.88988842829E+00  0.88000000000E+00 0.  1.
        -11    1    4    4    0    0  0.47568430456E-01  0.63829214621E-01  0.32027159794E-01  0.85807483943E-01  0.51100000000E-03 0. -1.
         11    1    4    4    0    0  0.30039988839E-01  0.33254559755E-01  0.28548219079E-02  0.44907435944E-01  0.51100000000E-03 0.  1.
</event>
<event>
 8    1  0.1112929E+005  0.1043930E+01  0.7957747E-01            NaN
         13   -1    0    0    0    0  0.00000000000E+00  0.00000000000E+00  0.74505805969E-08  0.10566000000E+00  0.10566000000E+00 0.  1.
     999900   -1    0    0    0    0 -0.00000000000E+00 -0.00000000000E+00 -0.74505805969E-08  0.93827000000E+00  0.93827000000E+00 0.  1.
     999902    2    1    2    0    0 -0.12052676775E-03  0.22318811490E-01  0.61618975308E-02  0.10207758890E+01  0.10205132546E+01 0.  0.
     999903    2    3    3    0    0 -0.71179100621E-01  0.40416486467E-01 -0.10066750758E+00  0.13128762686E+00  0.20063328272E-01 0.  0.
         14    1    1    2    0    0  0.12052676775E-03 -0.22318811490E-01 -0.61618975308E-02  0.23154110957E-01  0.00000000000E+00 0.  1.
     999901    1    3    3    0    0  0.71058573853E-01 -0.18097674977E-01  0.10682940511E+00  0.88948826218E+00  0.88000000000E+00 0. -1.
        -11    1    4    4    0    0 -0.36306272672E-01  0.13947192028E-01 -0.60164871938E-01  0.71643161133E-01  0.51100000000E-03 0.  1.
         11    1    4    4    0    0 -0.34872827949E-01  0.26469294440E-01 -0.40502635643E-01  0.59644465731E-01  0.51100000000E-03 0. -1.
</event>
<event>
 8    1  0.1112929E+005  0.1043930E+01  0.7957747E-01            NaN
         13   -1    0    0    0    0  0.00000000000E+00  0.00000000000E+00  0.74505805969E-08  0.10566000000E+00  0.10566000000E+00 0. -1.
     999900   -1    0    0    0    0 -0.00000000000E+00 -0.00000000000E+00 -0.74505805969E-08  0.93827000000E+00  0.93827000000E+00 0. -1.
     999902    2    1    2    0    0 -0.11351848473E-02  0.21758495662E-01 -0.89085408058E-02  0.10203910349E+01  0.10201194936E+01 0.  0.
     999903    2    3    3    0    0  0.65122772918E-01  0.10895315493E+00 -0.35977708401E-01  0.13318994981E+00  0.18259290995E-01 0.  0.
         14    1    1    2    0    0  0.11351848473E-02 -0.21758495662E-01  0.89085408058E-02  0.23538965087E-01  0.00000000000E+00 0.  1.
     999901    1    3    3    0    0 -0.66257957766E-01 -0.87194659265E-01  0.27069167595E-01  0.88720108510E+00  0.88000000000E+00 0.  1.
        -11    1    4    4    0    0  0.50869699226E-01  0.70354399250E-01 -0.28411855692E-01  0.91350766050E-01  0.51100000000E-03 0. -1.
         11    1    4    4    0    0  0.14253073693E-01  0.38598755677E-01 -0.75658527092E-02  0.41839183760E-01  0.51100000000E-03 0.  1.
</event>
<event>
 8    1  0.1112929E+005  0.1043930E+01  0.7957747E-01            NaN
         13   -1    0    0    0    0  0.00000000000E+00  0.00000000000E+00  0.74505805969E-08  0.10566000000E+00  0.10566000000E+00 0. -1.
     999900   -1    0    0    0    0 -0.00000000000E+00 -0.00000000000E+00 -0.74505805969E-08  0.93827000000E+00  0.93827000000E+00 0.  1.
     999902    2    1    2    0    0  0.65811031356E-02  0.27916057134E-02  0.22455832929E-01  0.10203637442E+01  0.10200915655E+01 0.  0.
     999903    2    3    3    0    0 -0.10797690087E-01 -0.72768545642E-01 -0.10283708180E+00  0.12811396222E+00  0.20636631899E-01 0.  0.
         14    1    1    2    0    0 -0.65811031356E-02 -0.27916057134E-02 -0.22455832929E-01  0.23566255822E-01  0.00000000000E+00 0.  1.
     999901    1    3    3    0    0  0.17378793222E-01  0.75560151356E-01  0.12529291473E+00  0.89224978196E+00  0.88000000000E+00 0. -1.
        -11    1    4    4    0    0 -0.16266491261E-01 -0.61544981941E-01 -0.89577387095E-01  0.10989428074E+00  0.51100000000E-03 0. -1.
         11    1    4    4    0    0  0.54688011739E-02 -0.11223563702E-01 -0.13259694704E-01  0.18219681476E-01  0.51100000000E-03 0.  1.
</event>
<event>
 7    1  0.1746846E+005  0.1043930E+01  0.7957747E-01            NaN
         13   -1    0    0    0    0  0.00000000000E+00  0.00000000000E+00  0.74505805969E-08  0.10566000000E+00  0.10566000000E+00 0.  1.
     999900   -1    0    0    0    0 -0.00000000000E+00 -0.00000000000E+00 -0.74505805969E-08  0.93827000000E+00  0.93827000000E+00 0.  1.
     999903    2    1    2    0    0 -0.29948822119E-01  0.86314598366E-01 -0.35505589575E-01  0.10004906974E+00  0.20050626611E-01 0.  0.
         14    1    1    2    0    0 -0.41804016618E-01 -0.10742707335E-01  0.38334104834E-01  0.57727681052E-01  0.00000000000E+00 0.  1.
     999901    1    1    2    0    0  0.71752838737E-01 -0.75571891031E-01 -0.28285152588E-02  0.88615324921E+00  0.88000000000E+00 0.  1.
        -11    1    3    3    0    0 -0.62102390879E-02  0.47451916377E-01 -0.20882986251E-01  0.52216967292E-01  0.51100000000E-03 0. -1.
         11    1    3    3    0    0 -0.23738583032E-01  0.38862681989E-01 -0.14622603325E-01  0.47832102449E-01  0.51100000000E-03 0.  1.
</event>
<event>
 8    1  0.1112929E+005  0.1043930E+01  0.7957747E-01            NaN
         13   -1    0    0    0    0  0.00000000000E+00  0.00000000000E+00  0.74505805969E-08  0.10566000000E+00  0.10566000000E+00 0. -1.
     999900   -1    0    0    0    0 -0.00000000000E+00 -0.00000000000E+00 -0.74505805969E-08  0.93827000000E+00  0.93827000000E+00 0.  1.
     999902    2    1    2    0    0  0.30142839052E-02  0.22300155820E-01 -0.74114116646E-02  0.10202379786E+01  0.10199628528E+01 0.  0.
     999903    2    3    3    0    0  0.55218657097E-01 -0.49627896411E-01 -0.10525401599E+00  0.13036601221E+00  0.20121159616E-01 0.  0.
         14    1    1    2    0    0 -0.30142839052E-02 -0.22300155820E-01  0.74114116646E-02  0.23692021440E-01  0.00000000000E+00 0.  1.
     999901    1    3    3    0    0 -0.52204373191E-01  0.71928052231E-01  0.97842604321E-01  0.88987196635E+00  0.88000000000E+00 0. -1.
        -11    1    4    4    0    0  0.41974467194E-01 -0.46378569364E-01 -0.92643081672E-01  0.11178474536E+00  0.51100000000E-03 0.  1.
         11    1    4    4    0    0  0.13244189903E-01 -0.32493270465E-02 -0.12610934313E-01  0.18581266848E-01  0.51100000000E-03 0. -1.
</event>
<event>
 8    1  0.1112929E+005  0.1043930E+01  0.7957747E-01            NaN
         13   -1    0    0    0    0  0.00000000000E+00  0.00000000000E+00  0.74505805969E-08  0.10566000000E+00  0.10566000000E+00 0.  1.
     999900   -1    0    0    0    0 -0.00000000000E+00 -0.00000000000E+00 -0.74505805969E-08  0.93827000000E+00  0.93827000000E+00 0. -1.
     999902    2    1    2    0    0  0.43090948178E-02 -0.16875431054E-02  0.23736596276E-01  0.10197464911E+01  0.10194596922E+01 0.  0.
     999903    2    3    3    0    0  0.10008418338E+00 -0.80330700571E-01  0.17182099580E-01  0.13103924165E+00  0.20154232528E-01 0.  0.
         14    1    1    2    0    0 -0.43090948178E-02  0.16875431054E-02 -0.23736596276E-01  0.24183508899E-01  0.00000000000E+00 0. -1.
     999901    1    3    3    0    0 -0.95775088560E-01  0.78643157466E-01  0.65544966958E-02  0.88870724945E+00  0.88000000000E+00 0. -1.
        -11    1    4    4    0    0  0.10437799111E-01 -0.31587039412E-02  0.53571535280E-02  0.12160809011E-01  0.51100000000E-03 0. -1.
         11    1    4    4    0    0  0.89646384267E-01 -0.77171996630E-01  0.11824946052E-01  0.11887843264E+00  0.51100000000E-03 0.  1.
</event>
<event>
 8    1  0.1112929E+005  0.1043930E+01  0.7957747E-01            NaN
         13   -1    0    0    0    0  0.00000000000E+00  0.00000000000E+00  0.74505805969E-08  0.10566000000E+00  0.10566000000E+00 0. -1.
     999900   -1    0    0    0    0 -0.00000000000E+00 -0.00000000000E+00 -0.74505805969E-08  0.93827000000E+00  0.93827000000E+00 0. -1.
     999902    2    1    2    0    0  0.17937274453E-01  0.15095172857E-01  0.82773886463E-02  0.10190678758E+01  0.10187645509E+01 0.  0.
     999903    2    3    3    0    0 -0.25476501224E-01 -0.34857374699E-01  0.12018073658E+00  0.12951609414E+00  0.21608343568E-01 0.  0.
         14    1    1    2    0    0 -0.17937274453E-01 -0.15095172857E-01 -0.82773886463E-02  0.24862124229E-01  0.00000000000E+00 0.  1.
     999901    1    3    3    0    0  0.43413775677E-01  0.49952547556E-01 -0.11190334793E+00  0.88955178163E+00  0.88000000000E+00 0. -1.
        -11    1    4    4    0    0 -0.25979918312E-01 -0.36770533025E-01  0.10567681878E+00  0.11486896623E+00  0.51100000000E-03 0.  1.
         11    1    4    4    0    0  0.50341708866E-03  0.19131583262E-02  0.14503917796E-01  0.14647127908E-01  0.51100000000E-03 0. -1.
</event>
<event>
 8    1  0.1112929E+005  0.1043930E+01  0.7957747E-01            NaN
         13   -1    0    0    0    0  0.00000000000E+00  0.00000000000E+00  0.74505805969E-08  0.10566000000E+00  0.10566000000E+00 0. -1.
     999900   -1    0    0    0    0 -0.00000000000E+00 -0.00000000000E+00 -0.74505805969E-08  0.93827000000E+00  0.93827000000E+00 0.  1.
     999902    2    1    2    0    0 -0.47765780089E-02 -0.12867782209E-01 -0.11827743852E-01  0.10258111965E+01  0.10256511687E+01 0.  0.
     999903    2    3    3    0    0 -0.11412071057E+00 -0.68899437714E-01 -0.26136991818E-01  0.13716028621E+00  0.18950796123E-01 0.  0.
         14    1    1    2    0    0  0.47765780089E-02  0.12867782209E-01  0.11827743852E-01  0.18118803522E-01  0.00000000000E+00 0. -1.
     999901    1    3    3    0    0  0.10934413256E+00  0.56031655505E-01  0.14309247967E-01  0.88865091027E+00  0.88000000000E+00 0.  1.
        -11    1    4    4    0    0 -0.38577559036E-01 -0.31281907237E-01 -0.15882860506E-01  0.52147024464E-01  0.51100000000E-03 0. -1.
         11    1    4    4    0    0 -0.75543151532E-01 -0.37617530477E-01 -0.10254131313E-01  0.85013261745E-01  0.51100000000E-03 0.  1.
</event>
<event>
 8    1  0.1112929E+005  0.1043930E+01  0.7957747E-01            NaN
         13   -1    0    0    0    0  0.00000000000E+00  0.00000000000E+00  0.74505805969E-08  0.10566000000E+00  0.10566000000E+00 0.  1.
     999900   -1    0    0    0    0 -0.00000000000E+00 -0.00000000000E+00 -0.74505805969E-08  0.93827000000E+00  0.93827000000E+00 0.  1.
     999902    2    1    2    0    0 -0.19278306617E-01 -0.10283573448E-01 -0.39587464227E-02  0.10217246704E+01  0.10214833457E+01 0.  0.
     999903    2    3    3    0    0 -0.12758563280E+00  0.27735801910E-01  0.22287870936E-01  0.13388187198E+00  0.19499693581E-01 0.  0.
         14    1    1    2    0    0  0.19278306617E-01  0.10283573448E-01  0.39587464227E-02  0.22205329588E-01  0.00000000000E+00 0.  1.
     999901    1    3    3    0    0  0.10830732618E+00 -0.38019375357E-01 -0.26246617359E-01  0.88784279843E+00  0.88000000000E+00 0.  1.
        -11    1    4    4    0    0 -0.75735262588E-01  0.23542619013E-01  0.20073844192E-01  0.81812622809E-01  0.51100000000E-03 0.  1.
         11    1    4    4    0    0 -0.51850370210E-01  0.41931828967E-02  0.22140267441E-02  0.52069249170E-01  0.51100000000E-03 0. -1.
</event>
<event>
 8    1  0.1112929E+005  0.1043930E+01  0.7957747E-01            NaN
         13   -1    0    0    0    0  0.00000000000E+00  0.00000000000E+00  0.74505805969E-08  0.10566000000E+00  0.10566000000E+00 0.  1.
     999900   -1    0    0    0    0 -0.00000000000E+00 -0.00000000000E+00 -0.74505805969E-08  0.93827000000E+00  0.93827000000E+00 0. -1.
     999902    2    1    2    0    0 -0.15166873794E-01  0.14468335472E-01  0.94428731874E-02  0.10209401186E+01  0.10206812388E+01 0.  0.
     999903    2    3    3    0    0  0.80376418722E-01 -0.27183523284E-01 -0.94654859446E-01  0.12869590540E+00  0.20094303285E-01 0.  0.
         14    1    1    2    0    0  0.15166873794E-01 -0.14468335472E-01 -0.94428731874E-02  0.22989881384E-01  0.00000000000E+00 0. -1.
     999901    1    3    3    0    0 -0.95543292516E-01  0.41651858756E-01  0.10409773263E+00  0.89224421322E+00  0.88000000000E+00 0.  1.
        -11    1    4    4    0    0  0.45178117137E-01 -0.55070584585E-02 -0.43916882547E-01  0.63248269973E-01  0.51100000000E-03 0. -1.
         11    1    4    4    0    0  0.35198301585E-01 -0.21676464826E-01 -0.50737976899E-01  0.65447635424E-01  0.51100000000E-03 0.  1.
</event>
<event>
 8    1  0.1112929E+005  0.1043930E+01  0.7957747E-01            NaN
         13   -1    0    0    0    0  0.00000000000E+00  0.00000000000E+00  0.74505805969E-08  0.10566000000E+00  0.10566000000E+00 0.  1.
     999900   -1    0    0    0    0 -0.00000000000E+00 -0.00000000000E+00 -0.74505805969E-08  0.93827000000E+00  0.93827000000E+00 0.  1.
     999902    2    1    2    0    0 -0.11334454434E-01  0.20100613148E-01  0.72142369362E-03  0.10208426667E+01  0.10205815623E+01 0.  0.
     999903    2    3    3    0    0 -0.32474322548E-01  0.28966426129E-01 -0.12249368545E+00  0.13196277618E+00  0.22712020043E-01 0.  0.
         14    1    1    2    0    0  0.11334454434E-01 -0.20100613148E-01 -0.72142369362E-03  0.23087333289E-01  0.00000000000E+00 0.  1.
     999901    1    3    3    0    0  0.21139868114E-01 -0.88658129811E-02  0.12321510915E+00  0.88887989053E+00  0.88000000000E+00 0. -1.
        -11    1    4    4    0    0 -0.36018647828E-01  0.26689546946E-01 -0.11111166141E+00  0.11981543026E+00  0.51100000000E-03 0. -1.
         11    1    4    4    0    0  0.35443252804E-02  0.22768791834E-02 -0.11382024048E-01  0.12147345921E-01  0.51100000000E-03 0.  1.
</event>
<event>
 8    1  0.1112929E+005  0.1043930E+01  0.7957747E-01            NaN
         13   -1    0    0    0    0  0.00000000000E+00  0.00000000000E+00  0.74505805969E-08  0.10566000000E+00  0.10566000000E+00 0.  1.
     999900   -1    0    0    0    0 -0.00000000000E+00 -0.00000000000E+00 -0.74505805969E-08  0.93827000000E+00  0.93827000000E+00 0.  1.
     999902    2    1    2    0    0  0.87825680527E-02 -0.16204604886E-01 -0.35743881788E-02  0.10251550440E+01  0.10249831049E+01 0.  0.
     999903    2    3    3    0    0 -0.11956990793E+00 -0.16927737471E-01  0.54280312559E-01  0.13396367994E+00  0.20405980368E-01 0.  0.
         14    1    1    2    0    0 -0.87825680527E-02  0.16204604886E-01  0.35743881788E-02  0.18774955978E-01  0.00000000000E+00 0. -1.
     999901    1    3    3    0    0  0.12835247598E+00  0.72313258533E-03 -0.57854700738E-01  0.89119136408E+00  0.88000000000E+00 0. -1.
        -11    1    4    4    0    0 -0.24211359488E-01  0.46635398082E-02  0.95923459045E-02  0.26461533455E-01  0.51100000000E-03 0.  1.
         11    1    4    4    0    0 -0.95358548439E-01 -0.21591277280E-01  0.44687966654E-01  0.10750214649E+00  0.51100000000E-03 0. -1.
</event>
<event>
 8    1  0.1112929E+005  0.1043930E+01  0.7957747E-01            NaN
         13   -1    0    0    0    0  0.00000000000E+00  0.00000000000E+00  0.74505805969E-08  0.10566000000E+00  0.10566000000E+00 0.  1.
     999900   -1    0    0    0    0 -0.00000000000E+00 -0.00000000000E+00 -0.74505805969E-08  0.93827000000E+00  0.93827000000E+00 0.  1.
     999902    2    1    2    0    0  0.20349915698E-01  0.51402582560E-02 -0.11461634151E-01  0.10200153522E+01  0.10197349696E+01 0.  0.
     999903    2    3    3    0    0 -0.88165679597E-02  0.89587100444E-01  0.91294893533E-01  0.12954308594E+00  0.18522232415E-01 0.  0.
         14    1    1    2    0    0 -0.20349915698E-01 -0.51402582560E-02  0.11461634151E-01  0.23914647839E-01  0.00000000000E+00 0.  1.
     999901    1    3    3    0    0  0.29166483657E-01 -0.84446842188E-01 -0.10275652768E+00  0.89047226622E+00  0.88000000000E+00 0.  1.
        -11    1    4    4    0    0  0.36621463983E-02  0.48723769971E-01  0.43358855458E-01  0.65327395050E-01  0.51100000000E-03 0. -1.
         11    1    4    4    0    0 -0.12478714358E-01  0.40863330472E-01  0.47936038075E-01  0.64215690892E-01  0.51100000000E-03 0.  1.
</event>
<event>
 8    1  0.1112929E+005  0.1043930E+01  0.7957747E-01            NaN
         13   -1    0    0    0    0  0.00000000000E+00  0.00000000000E+00  0.74505805969E-08  0.10566000000E+00  0.10566000000E+00 0. -1.
     999900   -1    0    0    0    0 -0.00000000000E+00 -0.00000000000E+00 -0.74505805969E-08  0.93827000000E+00  0.93827000000E+00 0.  1.
     999902    2    1    2    0    0  0.21988434375E-01  0.14758233072E-01  0.93381020147E-02  0.10158498141E+01  0.10154616428E+01 0.  0.
     999903    2    3    3    0    0 -0.98061164907E-01  0.51038392150E-01  0.56372293803E-01  0.12571478424E+00  0.20136085309E-01 0.  0.
         14    1    1    2    0    0 -0.21988434375E-01 -0.14758233072E-01 -0.93381020147E-02  0.28080185877E-01  0.00000000000E+00 0. -1.
     999901    1    3    3    0    0  0.12004959928E+00 -0.36280159078E-01 -0.47034191788E-01  0.89013502988E+00  0.88000000000E+00 0.  1.
        -11    1    4    4    0    0 -0.83224125888E-01  0.34394367197E-01  0.45894907662E-01  0.10107339558E+00  0.51100000000E-03 0.  1.
         11    1    4    4    0    0 -0.14837039019E-01  0.16644024953E-01  0.10477386140E-01  0.24641388654E-01  0.51100000000E-03 0. -1.
</event>
<event>
 8    1  0.1112929E+005  0.1043930E+01  0.7957747E-01            NaN
         13   -1    0    0    0    0  0.00000000000E+00  0.00000000000E+00  0.74505805969E-08  0.10566000000E+00  0.10566000000E+00 0.  1.
     999900   -1    0    0    0    0 -0.00000000000E+00 -0.00000000000E+00 -0.74505805969E-08  0.93827000000E+00  0.93827000000E+00 0. -1.
     999902    2    1    2    0    0  0.16488187504E-01 -0.13370151400E-01 -0.88939469829E-02  0.10209142756E+01  0.10206548068E+01 0.  0.
     999903    2    3    3    0    0 -0.84493790643E-01  0.33592784285E-01 -0.90617208441E-01  0.13013845158E+00  0.21374337428E-01 0.  0.
         14    1    1    2    0    0 -0.16488187504E-01  0.13370151400E-01  0.88939469829E-02  0.23015724376E-01  0.00000000000E+00 0. -1.
     999901    1    3    3    0    0  0.10098197815E+00 -0.46962935685E-01  0.81723261458E-01  0.89077582404E+00  0.88000000000E+00 0.  1.
        -11    1    4    4    0    0 -0.48545290723E-01  0.90650108135E-02 -0.41453849221E-01  0.64478697324E-01  0.51100000000E-03 0.  1.
         11    1    4    4    0    0 -0.35948499920E-01  0.24527773471E-01 -0.49163359220E-01  0.65659754255E-01  0.51100000000E-03 0. -1.
</event>
<event>
 8    1  0.1112929E+005  0.1043930E+01  0.7957747E-01            NaN
         13   -1    0    0    0    0  0.00000000000E+00  0.00000000000E+00  0.74505805969E-08  0.10566000000E+00  0.10566000000E+00 0. -1.
     999900   -1    0    0    0    0 -0.00000000000E+00 -0.00000000000E+00 -0.74505805969E-08  0.93827000000E+00  0.93827000000E+00 0.  1.
     999902    2    1    2    0    0  0.80010666783E-02 -0.18861757676E-01 -0.10495409731E-01  0.10209096482E+01  0.10206500738E+01 0.  0.
     999903    2    3    3    0    0  0.85187001738E-01 -0.16100385722E-01 -0.99357835545E-01  0.13306854506E+00  0.17866463387E-01 0.  0.
         14    1    1    2    0    0 -0.80010666783E-02  0.18861757676E-01  0.10495409731E-01  0.23020351779E-01  0.00000000000E+00 0.  1.
     999901    1    3    3    0    0 -0.77185935060E-01 -0.27613719536E-02  0.88862425814E-01  0.88784110316E+00  0.88000000000E+00 0. -1.
        -11    1    4    4    0    0  0.45113093076E-01 -0.77765561400E-02 -0.65686153830E-01  0.80066209590E-01  0.51100000000E-03 0. -1.
         11    1    4    4    0    0  0.40073908662E-01 -0.83238295821E-02 -0.33671681715E-01  0.53002335467E-01  0.51100000000E-03 0.  1.
</event>
<event>
 8    1  0.1112929E+005  0.1043930E+01  0.7957747E-01            NaN
         13   -1    0    0    0    0  0.00000000000E+00  0.00000000000E+00  0.74505805969E-08  0.10566000000E+00  0.10566000000E+00 0.  1.
     999900   -1    0    0    0    0 -0.00000000000E+00 -0.00000000000E+00 -0.74505805969E-08  0.93827000000E+00  0.93827000000E+00 0. -1.
     999902    2    1    2    0    0 -0.18899635733E-01  0.13459304264E-01  0.62807227703E-02  0.10198926004E+01  0.10196092976E+01 0.  0.
     999903    2    3    3    0    0  0.26135153850E-02 -0.28180389709E-01 -0.12438083377E+00  0.12901150722E+00  0.19297988447E-01 0.  0.
         14    1    1    2    0    0  0.18899635733E-01 -0.13459304264E-01 -0.62807227703E-02  0.24037399623E-01  0.00000000000E+00 0.  1.
     999901    1    3    3    0    0 -0.21513151118E-01  0.41639693973E-01  0.13066155654E+00  0.89088109316E+00  0.88000000000E+00 0.  1.
        -11    1    4    4    0    0 -0.53969378168E-02 -0.50949064465E-02 -0.53946900829E-01  0.54457453480E-01  0.51100000000E-03 0. -1.
         11    1    4    4    0    0  0.80104532018E-02 -0.23085483263E-01 -0.70433932946E-01  0.74554053741E-01  0.51100000000E-03 0.  1.
</event>
<event>
 7    1  0.1112929E+005  0.1043930E+01  0.7957747E-01            NaN
         13   -1    0    0    0    0  0.00000000000E+00  0.00000000000E+00  0.74505805969E-08  0.10566000000E+00  0.10566000000E+00 0.  1.
     999900   -1    0    0    0    0 -0.00000000000E+00 -0.00000000000E+00 -0.74505805969E-08  0.93827000000E+00  0.93827000000E+00 0. -1.
     999903    2    1    2    0    0  0.74230107119E-01  0.61092643136E-01  0.33506066500E-01  0.10378618285E+00  0.20161731303E-01 0.  0.
         14    1    1    2    0    0 -0.21741332881E-01  0.46345480497E-01 -0.69387346191E-02  0.51659802129E-01  0.00000000000E+00 0. -1.
     999901    1    1    2    0    0 -0.52488774239E-01 -0.10743812363E+00 -0.26567331881E-01  0.88848401502E+00  0.88000000000E+00 0.  1.
        -11    1    3    3    0    0  0.10573174700E-01  0.15669844756E-01  0.53739995600E-03  0.18917874554E-01  0.51100000000E-03 0. -1.
         11    1    3    3    0    0  0.63656932419E-01  0.45422798380E-01  0.32968666544E-01  0.84868308292E-01  0.51100000000E-03 0.  1.
</event>
<event>
 8    1  0.1112929E+005  0.1043930E+01  0.7957747E-01            NaN
         13   -1    0    0    0    0  0.00000000000E+00  0.00000000000E+00  0.74505805969E-08  0.10566000000E+00  0.10566000000E+00 0. -1.
     999900   -1    0    0    0    0 -0.00000000000E+00 -0.00000000000E+00 -0.74505805969E-08  0.93827000000E+00  0.93827000000E+00 0.  1.
     999902    2    1    2    0    0  0.15506615120E-01 -0.21050775250E-02  0.18718637008E-01  0.10195317657E+01  0.10192397890E+01 0.  0.
     999903    2    3    3    0    0 -0.10101237170E+00  0.27541973500E-01  0.73930748356E-01  0.12964188538E+00  0.19473144353E-01 0.  0.
         14    1    1    2    0    0 -0.15506615120E-01  0.21050775250E-02 -0.18718637008E-01  0.24398234266E-01  0.00000000000E+00 0.  1.
     999901    1    3    3    0    0  0.11651898682E+00 -0.29647051025E-01 -0.55212111348E-01  0.88988988036E+00  0.88000000000E+00 0.  1.
        -11    1    4    4    0    0 -0.75082929905E-01  0.22171364019E-01  0.64797042609E-01  0.10162644143E+00  0.51100000000E-03 0. -1.
         11    1    4    4    0    0 -0.25929441793E-01  0.53706094815E-02  0.91337057472E-02  0.28015443947E-01  0.51100000000E-03 0.  1.
</event>
<event>
 8    1  0.1112929E+005  0.1043930E+01  0.7957747E-01            NaN
         13   -1    0    0    0    0  0.00000000000E+00  0.00000000000E+00  0.74505805969E-08  0.10566000000E+00  0.10566000000E+00 0.  1.
     999900   -1    0    0    0    0 -0.00000000000E+00 -0.00000000000E+00 -0.74505805969E-08  0.93827000000E+00  0.93827000000E+00 0. -1.
     999902    2    1    2    0    0 -0.31099136890E-02 -0.21333071695E-01  0.10753585190E-01  0.10198382772E+01  0.10195536772E+01 0.  0.
     999903    2    3    3    0    0  0.85619940805E-01  0.36046260181E-01 -0.84335477216E-01  0.12843079208E+00  0.27420585356E-01 0.  0.
         14    1    1    2    0    0  0.31099136890E-02  0.21333071695E-01 -0.10753585190E-01  0.24091722760E-01  0.00000000000E+00 0. -1.
     999901    1    3    3    0    0 -0.88729854494E-01 -0.57379331876E-01  0.95089062405E-01  0.89140748516E+00  0.88000000000E+00 0.  1.
        -11    1    4    4    0    0  0.18636664066E-01 -0.19527202153E-02 -0.24807698856E-01  0.31093751900E-01  0.51100000000E-03 0. -1.
         11    1    4    4    0    0  0.66983276740E-01  0.37998980396E-01 -0.59527778360E-01  0.97337040182E-01  0.51100000000E-03 0.  1.
</event>
<event>
 8    1  0.1112929E+005  0.1043930E+01  0.7957747E-01            NaN
         13   -1    0    0    0    0  0.00000000000E+00  0.00000000000E+00  0.74505805969E-08  0.10566000000E+00  0.10566000000E+00 0.  1.
     999900   -1    0    0    0    0 -0.00000000000E+00 -0.00000000000E+00 -0.74505805969E-08  0.93827000000E+00  0.93827000000E+00 0.  1.
     999902    2    1    2    0    0 -0.15487652991E-01 -0.80416546010E-02  0.16032178873E-01  0.10202326085E+01  0.10199573565E+01 0.  0.
     999903    2    3    3    0    0  0.89123337259E-01 -0.89968336604E-01 -0.19263104470E-01  0.12955803409E+00  0.19415101514E-01 0.  0.
         14    1    1    2    0    0  0.15487652991E-01  0.80416546010E-02 -0.16032178873E-01  0.23697391487E-01  0.00000000000E+00 0. -1.
     999901    1    3    3    0    0 -0.10461099025E+00  0.81926682003E-01  0.35295283343E-01  0.89067457443E+00  0.88000000000E+00 0. -1.
        -11    1    4    4    0    0  0.36751125372E-01 -0.38078894737E-01 -0.17732980147E-01  0.55815474077E-01  0.51100000000E-03 0. -1.
         11    1    4    4    0    0  0.52372211887E-01 -0.51889441867E-01 -0.15301243225E-02  0.73742560008E-01  0.51100000000E-03 0.  1.
</event>
<event>
 8    1  0.1112929E+005  0.1043930E+01  0.7957747E-01            NaN
         13   -1    0    0    0    0  0.00000000000E+00  0.00000000000E+00  0.74505805969E-08  0.10566000000E+00  0.10566000000E+00 0. -1.
     999900   -1    0    0    0    0 -0.00000000000E+00 -0.00000000000E+00 -0.74505805969E-08  0.93827000000E+00  0.93827000000E+00 0. -1.
     999902    2    1    2    0    0 -0.75504339936E-02 -0.22590436010E-01 -0.44545808612E-02  0.10196981998E+01  0.10194102405E+01 0.  0.
     999903    2    3    3    0    0 -0.60732280700E-01 -0.11654861868E+00 -0.74979439661E-02  0.13309473091E+00  0.19646826617E-01 0.  0.
         14    1    1    2    0    0  0.75504339936E-02  0.22590436010E-01  0.44545808612E-02  0.24231800248E-01  0.00000000000E+00 0. -1.
     999901    1    3    3    0    0  0.53181846706E-01  0.93958182671E-01  0.30433631049E-02  0.88660346885E+00  0.88000000000E+00 0.  1.
        -11    1    4    4    0    0 -0.19700737818E-02 -0.15152729110E-01 -0.41972178215E-02  0.15854467781E-01  0.51100000000E-03 0. -1.
         11    1    4    4    0    0 -0.58762206918E-01 -0.10139588957E+00 -0.33007261446E-02  0.11724026313E+00  0.51100000000E-03 0.  1.
</event>
<event>
 8    1  0.1112929E+005  0.1043930E+01  0.7957747E-01            NaN
         13   -1    0    0    0    0  0.00000000000E+00  0.00000000000E+00  0.74505805969E-08  0.10566000000E+00  0.10566000000E+00 0.  1.
     999900   -1    0    0    0    0 -0.00000000000E+00 -0.00000000000E+00 -0.74505805969E-08  0.93827000000E+00  0.93827000000E+00 0.  1.
     999902    2    1    2    0    0  0.69222701999E-02  0.53255574648E-02  0.21967039485E-01  0.10202904101E+01  0.10200165149E+01 0.  0.
     999903    2    3    3    0    0 -0.49531058674E-01 -0.11484261720E+00 -0.24932560966E-01  0.12909630045E+00  0.20051675636E-01 0.  0.
         14    1    1    2    0    0 -0.69222701999E-02 -0.53255574648E-02 -0.21967039485E-01  0.23639589903E-01  0.00000000000E+00 0. -1.
     999901    1    3    3    0    0  0.56453328874E-01  0.12016817466E+00  0.46899600451E-01  0.89119410964E+00  0.88000000000E+00 0.  1.
        -11    1    4    4    0    0 -0.17589501002E-01 -0.65497872282E-01 -0.11334948562E-01  0.68761209987E-01  0.51100000000E-03 0. -1.
         11    1    4    4    0    0 -0.31941557672E-01 -0.49344744917E-01 -0.13597612405E-01  0.60335090466E-01  0.51100000000E-03 0.  1.
</event>
<event>
 8    1  0.1112929E+005  0.1043930E+01  0.7957747E-01            NaN
         13   -1    0    0    0    0  0.00000000000E+00  0.00000000000E+00  0.74505805969E-08  0.10566000000E+00  0.10566000000E+00 0.  1.
     999900   -1    0    0    0    0 -0.00000000000E+00 -0.00000000000E+00 -0.74505805969E-08  0.93827000000E+00  0.93827000000E+00 0.  1.
     999902    2    1    2    0    0  0.13610301873E-01  0.70045999183E-02 -0.18357996648E-01  0.10200276826E+01  0.10197475925E+01 0.  0.
     999903    2    3    3    0    0  0.20957278494E-01 -0.89159366434E-01  0.87652794429E-01  0.12843373110E+00  0.20581806734E-01 0.  0.
         14    1    1    2    0    0 -0.13610301873E-01 -0.70045999183E-02  0.18357996648E-01  0.23902317420E-01  0.00000000000E+00 0.  1.
     999901    1    3    3    0    0 -0.73469766214E-02  0.96163966352E-01 -0.10601079108E+00  0.89159395148E+00  0.88000000000E+00 0.  1.
        -11    1    4    4    0    0  0.16750444867E-01 -0.47543928414E-01  0.35891104598E-01  0.61882429190E-01  0.51100000000E-03 0. -1.
         11    1    4    4    0    0  0.42068336276E-02 -0.41615438020E-01  0.51761689832E-01  0.66551301911E-01  0.51100000000E-03 0.  1.
</event>
<event>
 8    1  0.1112929E+005  0.1043930E+01  0.7957747E-01            NaN
         13   -1    0    0    0    0  0.00000000000E+00  0.00000000000E+00  0.74505805969E-08  0.10566000000E+00  0.10566000000E+00 0.  1.
     999900   -1    0    0    0    0 -0.00000000000E+00 -0.00000000000E+00 -0.74505805969E-08  0.93827000000E+00  0.93827000000E+00 0. -1.
     999902    2    1    2    0    0  0.10950361863E-01  0.17747467580E-01  0.11348324916E-01  0.10201883171E+01  0.10199120230E+01 0.  0.
     999903    2    3    3    0    0  0.74724277875E-01 -0.66313006268E-01 -0.79571296910E-01  0.12923396735E+00  0.19715337225E-01 0.  0.
         14    1    1    2    0    0 -0.10950361863E-01 -0.17747467580E-01 -0.11348324916E-01  0.23741682940E-01  0.00000000000E+00 0. -1.
     999901    1    3    3    0    0 -0.63773916013E-01  0.84060473848E-01  0.90919621826E-01  0.89095434971E+00  0.88000000000E+00 0.  1.
        -11    1    4    4    0    0  0.50317462013E-01 -0.35807549352E-01 -0.57375879070E-01  0.84298755590E-01  0.51100000000E-03 0. -1.
         11    1    4    4    0    0  0.24406815863E-01 -0.30505456916E-01 -0.22195417841E-01  0.44935211764E-01  0.51100000000E-03 0.  1.
</event>
<event>
 8    1  0.1112929E+005  0.1043930E+01  0.7957747E-01            NaN
         13   -1    0    0    0    0  0.00000000000E+00  0.00000000000E+00  0.74505805969E-08  0.10566000000E+00  0.10566000000E+00 0.  1.
     999900   -1    0    0    0    0 -0.00000000000E+00 -0.00000000000E+00 -0.74505805969E-08  0.93827000000E+00  0.93827000000E+00 0. -1.
     999902    2    1    2    0    0 -0.57683291688E-02  0.21724489143E-01 -0.68326920650E-02  0.10204371770E+01  0.10201667116E+01 0.  0.
     999903    2    3    3    0    0  0.74074981697E-02  0.64584142216E-01 -0.11422641864E+00  0.13277509899E+00  0.18856556993E-01 0.  0.
         14    1    1    2    0    0  0.57683291688E-02 -0.21724489143E-01  0.68326920650E-02  0.23492822963E-01  0.00000000000E+00 0. -1.
     999901    1    3    3    0    0 -0.13175827339E-01 -0.42859653073E-01  0.10739372658E+00  0.88766207804E+00  0.88000000000E+00 0.  1.
        -11    1    4    4    0    0 -0.60415233039E-02  0.15284797590E-01 -0.24258839147E-01  0.29306610840E-01  0.51100000000E-03 0. -1.
         11    1    4    4    0    0  0.13449021474E-01  0.49299344626E-01 -0.89967579498E-01  0.10346848815E+00  0.51100000000E-03 0.  1.
</event>
<event>
 8    1  0.1112929E+005  0.1043930E+01  0.7957747E-01            NaN
         13   -1    0    0    0    0  0.00000000000E+00  0.00000000000E+00  0.74505805969E-08  0.10566000000E+00  0.10566000000E+00 0. -1.
     999900   -1    0    0    0    0 -0.00000000000E+00 -0.00000000000E+00 -0.74505805969E-08  0.93827000000E+00  0.93827000000E+00 0. -1.
     999902    2    1    2    0    0  0.20104342680E-01  0.10053811804E-01  0.68991451817E-02  0.10204169838E+01  0.10201460478E+01 0.  0.
     999903    2    3    3    0    0  0.37444346315E-01 -0.12285693457E+00  0.92222355535E-02  0.13026455923E+00  0.19695185185E-01 0.  0.
         14    1    1    2    0    0 -0.20104342680E-01 -0.10053811804E-01 -0.68991451817E-02  0.23513016196E-01  0.00000000000E+00 0. -1.
     999901    1    3    3    0    0 -0.17340003635E-01  0.13291074638E+00 -0.23230903719E-02  0.89015242458E+00  0.88000000000E+00 0. -1.
        -11    1    4    4    0    0  0.22183669593E-02 -0.32676003922E-01 -0.18971449203E-02  0.32810100032E-01  0.51100000000E-03 0.  1.
         11    1    4    4    0    0  0.35225979356E-01 -0.90180930648E-01  0.11119380474E-01  0.97454459197E-01  0.51100000000E-03 0. -1.
</event>
<event>
 8    1  0.1112929E+005  0.1043930E+01  0.7957747E-01            NaN
         13   -1    0    0    0    0  0.00000000000E+00  0.00000000000E+00  0.74505805969E-08  0.10566000000E+00  0.10566000000E+00 0.  1.
     999900   -1    0    0    0    0 -0.00000000000E+00 -0.00000000000E+00 -0.74505805969E-08  0.93827000000E+00  0.93827000000E+00 0.  1.
     999902    2    1    2    0    0 -0.13972167930E-01 -0.14700972303E-01 -0.12174400820E-01  0.10202750619E+01  0.10200008067E+01 0.  0.
     999903    2    3    3    0    0  0.12649309679E+00 -0.16638167752E-01 -0.62420569329E-02  0.12911321571E+00  0.18812948619E-01 0.  0.
         14    1    1    2    0    0  0.13972167930E-01  0.14700972303E-01  0.12174400820E-01  0.23654938146E-01  0.00000000000E+00 0.  1.
     999901    1    3    3    0    0 -0.14046526472E+00  0.19371954481E-02 -0.59323438876E-02  0.89116184614E+00  0.88000000000E+00 0. -1.
        -11    1    4    4    0    0  0.10282411385E+00 -0.18161447266E-01  0.61464455254E-03  0.10441875054E+00  0.51100000000E-03 0. -1.
         11    1    4    4    0    0  0.23668982941E-01  0.15232795149E-02 -0.68567014854E-02  0.24694465173E-01  0.51100000000E-03 0.  1.
</event>
<event>
 8    1  0.1112929E+005  0.1043930E+01  0.7957747E-01            NaN
         13   -1    0    0    0    0  0.00000000000E+00  0.00000000000E+00  0.74505805969E-08  0.10566000000E+00  0.10566000000E+00 0.  1.
     999900   -1    0    0    0    0 -0.00000000000E+00 -0.00000000000E+00 -0.74505805969E-08  0.93827000000E+00  0.93827000000E+00 0.  1.
     999902    2    1    2    0    0  0.15045031451E-01 -0.14212899027E-01 -0.64703501265E-02  0.10222453303E+01  0.10220153083E+01 0.  0.
     999903    2    3    3    0    0  0.10852573470E+00 -0.74856108351E-02 -0.76909565324E-01  0.13446969346E+00  0.18252335766E-01 0.  0.
         14    1    1    2    0    0 -0.15045031451E-01  0.14212899027E-01  0.64703501265E-02  0.21684669720E-01  0.00000000000E+00 0.  1.
     999901    1    3    3    0    0 -0.93480703246E-01 -0.67272881915E-02  0.70439215197E-01  0.88777563682E+00  0.88000000000E+00 0. -1.
        -11    1    4    4    0    0  0.30808579687E-01 -0.88602868743E-02 -0.28495867277E-01  0.42894624823E-01  0.51100000000E-03 0. -1.
         11    1    4    4    0    0  0.77717155010E-01  0.13746760391E-02 -0.48413698046E-01  0.91575068641E-01  0.51100000000E-03 0.  1.
</event>
<event>
 8    1  0.1112929E+005  0.1043930E+01  0.7957747E-01            NaN
         13   -1    0    0    0    0  0.00000000000E+00  0.00000000000E+00  0.74505805969E-08  0.10566000000E+00  0.10566000000E+00 0.  1.
     999900   -1    0    0    0    0 -0.00000000000E+00 -0.00000000000E+00 -0.74505805969E-08  0.93827000000E+00  0.93827000000E+00 0. -1.
     999902    2    1    2    0    0 -0.61528376666E-02  0.39329294000E-02  0.21822243548E-01  0.10209183582E+01  0.10206589824E+01 0.  0.
     999903    2    3    3    0    0 -0.11707214581E+00  0.16523262955E-01  0.57906942638E-01  0.13313250850E+00  0.19802658129E-01 0.  0.
         14    1    1    2    0    0  0.61528376666E-02 -0.39329294000E-02 -0.21822243548E-01  0.23011641803E-01  0.00000000000E+00 0. -1.
     999901    1    3    3    0    0  0.11091930815E+00 -0.12590333555E-01 -0.36084699090E-01  0.88778584970E+00  0.88000000000E+00 0.  1.
        -11    1    4    4    0    0 -0.50629010267E-01  0.25531723129E-02  0.15221519429E-01  0.52931759315E-01  0.51100000000E-03 0.  1.
         11    1    4    4    0    0 -0.66443135547E-01  0.13970090642E-01  0.42685423209E-01  0.80200749182E-01  0.51100000000E-03 0. -1.
</event>
<event>
 8    1  0.1112929E+005  0.1043930E+01  0.7957747E-01            NaN
         13   -1    0    0    0    0  0.00000000000E+00  0.00000000000E+00  0.74505805969E-08  0.10566000000E+00  0.10566000000E+00 0.  1.
     999900   -1    0    0    0    0 -0.00000000000E+00 -0.00000000000E+00 -0.74505805969E-08  0.93827000000E+00  0.93827000000E+00 0. -1.
     999902    2    1    2    0    0  0.88831934731E-02 -0.73770506526E-02 -0.19448436659E-01  0.10213120051E+01  0.10210615252E+01 0.  0.
     999903    2    3    3    0    0 -0.59139078567E-02 -0.12653898451E+00  0.30112212568E-01  0.13177573347E+00  0.20273373636E-01 0.  0.
         14    1    1    2    0    0 -0.88831934731E-02  0.73770506526E-02  0.19448436659E-01  0.22617994851E-01  0.00000000000E+00 0.  1.
     999901    1    3    3    0    0  0.14797101330E-01  0.11916193385E+00 -0.49560649226E-01  0.88953627168E+00  0.88000000000E+00 0. -1.
        -11    1    4    4    0    0  0.57625964689E-02 -0.83225540132E-01  0.19498649229E-01  0.85674713253E-01  0.51100000000E-03 0.  1.
         11    1    4    4    0    0 -0.11676504326E-01 -0.43313444375E-01  0.10613563338E-01  0.46101020213E-01  0.51100000000E-03 0. -1.
</event>
<event>
 8    1  0.1112929E+005  0.1043930E+01  0.7957747E-01            NaN
         13   -1    0    0    0    0  0.00000000000E+00  0.00000000000E+00  0.74505805969E-08  0.10566000000E+00  0.10566000000E+00 0.  1.
     999900   -1    0    0    0    0 -0.00000000000E+00 -0.00000000000E+00 -0.74505805969E-08  0.93827000000E+00  0.93827000000E+00 0. -1.
     999902    2    1    2    0    0 -0.13139662790E-01  0.14060062207E-01  0.12302421494E-01  0.10210895608E+01  0.10208340735E+01 0.  0.
     999903    2    3    3    0    0 -0.35519732201E-01  0.85466704622E-01  0.94828354255E-01  0.13406627721E+00  0.20375007697E-01 0.  0.
         14    1    1    2    0    0  0.13139662790E-01 -0.14060062207E-01 -0.12302421494E-01  0.22840439184E-01  0.00000000000E+00 0.  1.
     999901    1    3    3    0    0  0.22380069410E-01 -0.71406642415E-01 -0.82525932761E-01  0.88702328361E+00  0.88000000000E+00 0. -1.
        -11    1    4    4    0    0 -0.27879084674E-01  0.78707439117E-01  0.77347282135E-01  0.11381989066E+00  0.51100000000E-03 0.  1.
         11    1    4    4    0    0 -0.76406475270E-02  0.67592655041E-02  0.17481072121E-01  0.20246386549E-01  0.51100000000E-03 0. -1.
</event>
<event>
 8    1  0.1112929E+005  0.1043930E+01  0.7957747E-01            NaN
         13   -1    0    0    0    0  0.00000000000E+00  0.00000000000E+00  0.74505805969E-08  0.10566000000E+00  0.10566000000E+00 0. -1.
     999900   -1    0    0    0    0 -0.00000000000E+00 -0.00000000000E+00 -0.74505805969E-08  0.93827000000E+00  0.93827000000E+00 0.  1.
     999902    2    1    2    0    0  0.17512404503E-01  0.26650613197E-02  0.50502101516E-02  0.10255101334E+01  0.10253446943E+01 0.  0.
     999903    2    3    3    0    0 -0.85993082253E-01  0.37282305543E-01 -0.92820860820E-01  0.13338318843E+00  0.19763153884E-01 0.  0.
         14    1    1    2    0    0 -0.17512404503E-01 -0.26650613197E-02 -0.50502101516E-02  0.18419866609E-01  0.00000000000E+00 0.  1.
     999901    1    3    3    0    0  0.10350548676E+00 -0.34617244223E-01  0.97871070972E-01  0.89212694496E+00  0.88000000000E+00 0. -1.
        -11    1    4    4    0    0 -0.63789047459E-01  0.20348814250E-01 -0.56807853295E-01  0.87809510500E-01  0.51100000000E-03 0. -1.
         11    1    4    4    0    0 -0.22204034793E-01  0.16933491293E-01 -0.36013007525E-01  0.45573677934E-01  0.51100000000E-03 0.  1.
</event>
<event>
 8    1  0.1112929E+005  0.1043930E+01  0.7957747E-01            NaN
         13   -1    0    0    0    0  0.00000000000E+00  0.00000000000E+00  0.74505805969E-08  0.10566000000E+00  0.10566000000E+00 0.  1.
     999900   -1    0    0    0    0 -0.00000000000E+00 -0.00000000000E+00 -0.74505805969E-08  0.93827000000E+00  0.93827000000E+00 0.  1.
     999902    2    1    2    0    0  0.26423553585E-02 -0.66213902324E-02 -0.22352578990E-01  0.10204680598E+01  0.10201983133E+01 0.  0.
     999903    2    3    3    0    0 -0.10385907874E+00 -0.68891626376E-01  0.32439102843E-01  0.13017470019E+00  0.18984013116E-01 0.  0.
         14    1    1    2    0    0 -0.26423553585E-02  0.66213902324E-02  0.22352578990E-01  0.23461940200E-01  0.00000000000E+00 0.  1.
     999901    1    3    3    0    0  0.10650143410E+00  0.62270236144E-01 -0.54791681834E-01  0.89029335961E+00  0.88000000000E+00 0. -1.
        -11    1    4    4    0    0 -0.43720992808E-01 -0.25868980532E-01  0.40387755537E-02  0.50963734115E-01  0.51100000000E-03 0.  1.
         11    1    4    4    0    0 -0.60138085930E-01 -0.43022645844E-01  0.28400327290E-01  0.79210966071E-01  0.51100000000E-03 0. -1.
</event>
<event>
 8    1  0.1112929E+005  0.1043930E+01  0.7957747E-01            NaN
         13   -1    0    0    0    0  0.00000000000E+00  0.00000000000E+00  0.74505805969E-08  0.10566000000E+00  0.10566000000E+00 0. -1.
     999900   -1    0    0    0    0 -0.00000000000E+00 -0.00000000000E+00 -0.74505805969E-08  0.93827000000E+00  0.93827000000E+00 0. -1.
     999902    2    1    2    0    0  0.22038755673E-01  0.12317662328E-01  0.49281808122E-02  0.10182061099E+01  0.10178811147E+01 0.  0.
     999903    2    3    3    0    0 -0.10982457834E+00 -0.40993908158E-02 -0.58057434592E-01  0.12600397682E+00  0.20690419271E-01 0.  0.
         14    1    1    2    0    0 -0.22038755673E-01 -0.12317662328E-01 -0.49281808122E-02  0.25723890121E-01  0.00000000000E+00 0. -1.
     999901    1    3    3    0    0  0.13186333401E+00  0.16417053144E-01  0.62985615404E-01  0.89220213306E+00  0.88000000000E+00 0. -1.
        -11    1    4    4    0    0 -0.46977208433E-01 -0.43289334821E-02 -0.13870657538E-01  0.49175746449E-01  0.51100000000E-03 0. -1.
         11    1    4    4    0    0 -0.62847369907E-01  0.22954266622E-03 -0.44186777054E-01  0.76828230369E-01  0.51100000000E-03 0.  1.
</event>
<event>
 8    1  0.1112929E+005  0.1043930E+01  0.7957747E-01            NaN
         13   -1    0    0    0    0  0.00000000000E+00  0.00000000000E+00  0.74505805969E-08  0.10566000000E+00  0.10566000000E+00 0. -1.
     999900   -1    0    0    0    0 -0.00000000000E+00 -0.00000000000E+00 -0.74505805969E-08  0.93827000000E+00  0.93827000000E+00 0. -1.
     999902    2    1    2    0    0 -0.24602107524E-01 -0.32417523250E-02  0.38597434119E-02  0.10188168506E+01  0.10185072925E+01 0.  0.
     999903    2    3    3    0    0  0.58415849566E-02  0.12443640006E+00  0.25864888612E-01  0.12880968468E+00  0.20109714766E-01 0.  0.
         14    1    1    2    0    0  0.24602107524E-01  0.32417523250E-02 -0.38597434119E-02  0.25113149384E-01  0.00000000000E+00 0.  1.
     999901    1    3    3    0    0 -0.30443692481E-01 -0.12767815239E+00 -0.22005145201E-01  0.89000716594E+00  0.88000000000E+00 0. -1.
        -11    1    4    4    0    0  0.13169417899E-01  0.91136430748E-01  0.19121636808E-01  0.94048820793E-01  0.51100000000E-03 0.  1.
         11    1    4    4    0    0 -0.73278329426E-02  0.33299969315E-01  0.67432518048E-02  0.34760863883E-01  0.51100000000E-03 0. -1.
</event>
<event>
 8    1  0.1112929E+005  0.1043930E+01  0.7957747E-01            NaN
         13   -1    0    0    0    0  0.00000000000E+00  0.00000000000E+00  0.74505805969E-08  0.10566000000E+00  0.10566000000E+00 0. -1.
     999900   -1    0    0    0    0 -0.00000000000E+00 -0.00000000000E+00 -0.74505805969E-08  0.93827000000E+00  0.93827000000E+00 0. -1.
     999902    2    1    2    0    0  0.25137628169E-01 -0.28879616086E-02 -0.12036835109E-01  0.10159098988E+01  0.10155234101E+01 0.  0.
     999903    2    3    3    0    0  0.17133665105E-01 -0.12430598038E+00 -0.10360813705E-01  0.12753542384E+00  0.20307600418E-01 0.  0.
         14    1    1    2    0    0 -0.25137628169E-01  0.28879616086E-02  0.12036835109E-01  0.28020101207E-01  0.00000000000E+00 0. -1.
     999901    1    3    3    0    0  0.80039630642E-02  0.12141801877E+00 -0.16760214043E-02  0.88837447496E+00  0.88000000000E+00 0.  1.
        -11    1    4    4    0    0 -0.14288556281E-02 -0.49146514460E-01  0.16081503281E-02  0.49196227299E-01  0.51100000000E-03 0. -1.
         11    1    4    4    0    0  0.18562520733E-01 -0.75159465919E-01 -0.11968964033E-01  0.78339196538E-01  0.51100000000E-03 0.  1.
</event>
<event>
 8    1  0.1112929E+005  0.1043930E+01  0.7957747E-01            NaN
         13   -1    0    0    0    0  0.00000000000E+00  0.00000000000E+00  0.74505805969E-08  0.10566000000E+00  0.10566000000E+00 0. -1.
     999900   -1    0    0    0    0 -0.00000000000E+00 -0.00000000000E+00 -0.74505805969E-08  0.93827000000E+00  0.93827000000E+00 0.  1.
     999902    2    1    2    0    0  0.82415119345E-02  0.22039626611E-01 -0.19549763265E-01  0.10133381563E+01  0.10128762797E+01 0.  0.
     999903    2    3    3    0    0  0.20095238831E-01  0.67467324220E-01 -0.10502631308E+00  0.12795099398E+00  0.19628345859E-01 0.  0.
         14    1    1    2    0    0 -0.82415119345E-02 -0.22039626611E-01  0.19549763265E-01  0.30591843747E-01  0.00000000000E+00 0. -1.
     999901    1    3    3    0    0 -0.11853726897E-01 -0.45427697609E-01  0.85476549810E-01  0.88538716227E+00  0.88000000000E+00 0. -1.
        -11    1    4    4    0    0  0.13698458861E-01  0.16249323919E-01 -0.26412790431E-01  0.33905529377E-01  0.51100000000E-03 0.  1.
         11    1    4    4    0    0  0.63967799703E-02  0.51218000301E-01 -0.78613522644E-01  0.94045464603E-01  0.51100000000E-03 0. -1.
</event>
<event>
 8    1  0.1112929E+005  0.1043930E+01  0.7957747E-01            NaN
         13   -1    0    0    0    0  0.00000000000E+00  0.00000000000E+00  0.74505805969E-08  0.10566000000E+00  0.10566000000E+00 0.  1.
     999900   -1    0    0    0    0 -0.00000000000E+00 -0.00000000000E+00 -0.74505805969E-08  0.93827000000E+00  0.93827000000E+00 0. -1.
     999902    2    1    2    0    0 -0.47645818640E-03  0.13641108258E-01  0.19386285979E-01  0.10202206151E+01  0.10199450812E+01 0.  0.
     999903    2    3    3    0    0  0.36317989437E-01  0.95411579246E-01 -0.78410389558E-01  0.13027430717E+00  0.20020991666E-01 0.  0.
         14    1    1    2    0    0  0.47645818640E-03 -0.13641108258E-01 -0.19386285979E-01  0.23709384871E-01  0.00000000000E+00 0. -1.
     999901    1    3    3    0    0 -0.36794447623E-01 -0.81770470988E-01  0.97796675537E-01  0.88994630796E+00  0.88000000000E+00 0. -1.
        -11    1    4    4    0    0  0.93418670368E-02  0.43429723063E-01 -0.24820376214E-01  0.50889326203E-01  0.51100000000E-03 0.  1.
         11    1    4    4    0    0  0.26976122400E-01  0.51981856183E-01 -0.53590013345E-01  0.79384980968E-01  0.51100000000E-03 0. -1.
</event>
<event>
 8    1  0.1112929E+005  0.1043930E+01  0.7957747E-01            NaN
         13   -1    0    0    0    0  0.00000000000E+00  0.00000000000E+00  0.74505805969E-08  0.10566000000E+00  0.10566000000E+00 0.  1.
     999900   -1    0    0    0    0 -0.00000000000E+00 -0.00000000000E+00 -0.74505805969E-08  0.93827000000E+00  0.93827000000E+00 0. -1.
     999902    2    1    2    0    0 -0.10765173140E-01  0.98272195932E-02 -0.18710113994E-01  0.10202122521E+01  0.10199365215E+01 0.  0.
     999903    2    3    3    0    0  0.70014007878E-01  0.81982278205E-01 -0.73276857164E-01  0.13189408953E+00  0.20087255125E-01 0.  0.
         14    1    1    2    0    0  0.10765173140E-01 -0.98272195932E-02  0.18710113994E-01  0.23717747856E-01  0.00000000000E+00 0.  1.
     999901    1    3    3    0    0 -0.80779181018E-01 -0.72155058611E-01  0.54566743170E-01  0.88831816261E+00  0.88000000000E+00 0.  1.
        -11    1    4    4    0    0  0.46788612729E-01  0.42717722955E-01 -0.49791480782E-01  0.80581826829E-01  0.51100000000E-03 0. -1.
         11    1    4    4    0    0  0.23225395148E-01  0.39264555249E-01 -0.23485376382E-01  0.51312262701E-01  0.51100000000E-03 0.  1.
</event>
<event>
 8    1  0.1112929E+005  0.1043930E+01  0.7957747E-01            NaN
         13   -1    0    0    0    0  0.00000000000E+00  0.00000000000E+00  0.74505805969E-08  0.10566000000E+00  0.10566000000E+00 0.  1.
     999900   -1    0    0    0    0 -0.00000000000E+00 -0.00000000000E+00 -0.74505805969E-08  0.93827000000E+00  0.93827000000E+00 0.  1.
     999902    2    1    2    0    0  0.18551313885E-01 -0.11227429823E-01 -0.92109231532E-02  0.10203705532E+01  0.10200985336E+01 0.  0.
     999903    2    3    3    0    0  0.10938480177E+00  0.27354527790E-03  0.71133238707E-01  0.13197977248E+00  0.19839682730E-01 0.  0.
         14    1    1    2    0    0 -0.18551313885E-01  0.11227429823E-01  0.92109231532E-02  0.23559446781E-01  0.00000000000E+00 0. -1.
     999901    1    3    3    0    0 -0.90833487885E-01 -0.11500975101E-01 -0.80344161860E-01  0.88839078073E+00  0.88000000000E+00 0.  1.
        -11    1    4    4    0    0  0.56464050275E-01  0.27783502347E-02  0.48016673622E-01  0.74173919070E-01  0.51100000000E-03 0. -1.
         11    1    4    4    0    0  0.52920751494E-01 -0.25048049568E-02  0.23116565085E-01  0.57805853414E-01  0.51100000000E-03 0.  1.
</event>
<event>
 8    1  0.1112929E+005  0.1043930E+01  0.7957747E-01            NaN
         13   -1    0    0    0    0  0.00000000000E+00  0.00000000000E+00  0.74505805969E-08  0.10566000000E+00  0.10566000000E+00 0.  1.
     999900   -1    0    0    0    0 -0.00000000000E+00 -0.00000000000E+00 -0.74505805969E-08  0.93827000000E+00  0.93827000000E+00 0.  1.
     999902    2    1    2    0    0  0.89864718074E-02  0.12548665842E-01 -0.17738400392E-01  0.10204166732E+01  0.10201457300E+01 0.  0.
     999903    2    3    3    0    0 -0.10017278032E+00 -0.37287408396E-01 -0.72208017643E-01  0.13060415594E+00  0.20457541292E-01 0.  0.
         14    1    1    2    0    0 -0.89864718074E-02 -0.12548665842E-01  0.17738400392E-01  0.23513326826E-01  0.00000000000E+00 0.  1.
     999901    1    3    3    0    0  0.10915925213E+00  0.49836074238E-01  0.54469617251E-01  0.88981251723E+00  0.88000000000E+00 0.  1.
        -11    1    4    4    0    0 -0.26821167205E-01 -0.11842386074E-01 -0.31128219424E-01  0.42764988994E-01  0.51100000000E-03 0. -1.
         11    1    4    4    0    0 -0.73351613114E-01 -0.25445022322E-01 -0.41079798219E-01  0.87839166948E-01  0.51100000000E-03 0.  1.
</event>
<event>
 8    1  0.1112929E+005  0.1043930E+01  0.7957747E-01            NaN
         13   -1    0    0    0    0  0.00000000000E+00  0.00000000000E+00  0.74505805969E-08  0.10566000000E+00  0.10566000000E+00 0.  1.
     999900   -1    0    0    0    0 -0.00000000000E+00 -0.00000000000E+00 -0.74505805969E-08  0.93827000000E+00  0.93827000000E+00 0. -1.
     999902    2    1    2    0    0 -0.70146395315E-02  0.24686693195E-01 -0.80204791922E-02  0.10170419715E+01  0.10166864835E+01 0.  0.
     999903    2    3    3    0    0 -0.19144590838E-01  0.91984173751E-01  0.86454327041E-01  0.12934744320E+00  0.20707651232E-01 0.  0.
         14    1    1    2    0    0  0.70146395315E-02 -0.24686693195E-01  0.80204791922E-02  0.26888028473E-01  0.00000000000E+00 0.  1.
     999901    1    3    3    0    0  0.12129951307E-01 -0.67297480556E-01 -0.94474806233E-01  0.88769452833E+00  0.88000000000E+00 0. -1.
        -11    1    4    4    0    0  0.23641533967E-02  0.23328394807E-01  0.14394001977E-01  0.27518205601E-01  0.51100000000E-03 0.  1.
         11    1    4    4    0    0 -0.21508744235E-01  0.68655778943E-01  0.72060325064E-01  0.10182923760E+00  0.51100000000E-03 0. -1.
</event>
<event>
 8    1  0.1112929E+005  0.1043930E+01  0.7957747E-01            NaN
         13   -1    0    0    0    0  0.00000000000E+00  0.00000000000E+00  0.74505805969E-08  0.10566000000E+00  0.10566000000E+00 0.  1.
     999900   -1    0    0    0    0 -0.00000000000E+00 -0.00000000000E+00 -0.74505805969E-08  0.93827000000E+00  0.93827000000E+00 0.  1.
     999902    2    1    2    0    0  0.19527516186E-01  0.94547487201E-02  0.11602451471E-01  0.10193264831E+01  0.10190295119E+01 0.  0.
     999903    2    3    3    0    0  0.61746260156E-03  0.71043059116E-01 -0.10610867495E+00  0.12915424172E+00  0.19346052472E-01 0.  0.
         14    1    1    2    0    0 -0.19527516186E-01 -0.94547487201E-02 -0.11602451471E-01  0.24603516861E-01  0.00000000000E+00 0. -1.
     999901    1    3    3    0    0  0.18910053585E-01 -0.61588310396E-01  0.11771112642E+00  0.89017224142E+00  0.88000000000E+00 0. -1.
        -11    1    4    4    0    0  0.92137668552E-02  0.44587097401E-01 -0.60320629730E-01  0.75576069270E-01  0.51100000000E-03 0. -1.
         11    1    4    4    0    0 -0.85963042536E-02  0.26455961715E-01 -0.45788045222E-01  0.53578172453E-01  0.51100000000E-03 0.  1.
</event>
<event>
 8    1  0.1112929E+005  0.1043930E+01  0.7957747E-01            NaN
         13   -1    0    0    0    0  0.00000000000E+00  0.00000000000E+00  0.74505805969E-08  0.10566000000E+00  0.10566000000E+00 0. -1.
     999900   -1    0    0    0    0 -0.00000000000E+00 -0.00000000000E+00 -0.74505805969E-08  0.93827000000E+00  0.93827000000E+00 0. -1.
     999902    2    1    2    0    0  0.97652742148E-02 -0.21636577303E-02 -0.21385059920E-01  0.10203214680E+01  0.10200483005E+01 0.  0.
     999903    2    3    3    0    0 -0.80624447427E-02  0.52729229485E-01 -0.12029657191E+00  0.13290130605E+00  0.18604227512E-01 0.  0.
         14    1    1    2    0    0 -0.97652742148E-02  0.21636577303E-02  0.21385059920E-01  0.23608531997E-01  0.00000000000E+00 0. -1.
     999901    1    3    3    0    0  0.17827718958E-01 -0.54892887216E-01  0.98911511986E-01  0.88742016195E+00  0.88000000000E+00 0.  1.
        -11    1    4    4    0    0 -0.29174143550E-02  0.41159810990E-01 -0.72175638694E-01  0.83139793656E-01  0.51100000000E-03 0. -1.
         11    1    4    4    0    0 -0.51450303877E-02  0.11569418495E-01 -0.48120933211E-01  0.49761512398E-01  0.51100000000E-03 0.  1.
</event>
<event>
 8    1  0.1112929E+005  0.1043930E+01  0.7957747E-01            NaN
         13   -1    0    0    0    0  0.00000000000E+00  0.00000000000E+00  0.74505805969E-08  0.10566000000E+00  0.10566000000E+00 0.  1.
     999900   -1    0    0    0    0 -0.00000000000E+00 -0.00000000000E+00 -0.74505805969E-08  0.93827000000E+00  0.93827000000E+00 0.  1.
     999902    2    1    2    0    0 -0.66555738842E-03  0.17347585595E-01 -0.16889319996E-01  0.10197095371E+01  0.10194218505E+01 0.  0.
     999903    2    3    3    0    0  0.24912813925E-01 -0.46525356595E-01 -0.11847535806E+00  0.13119744999E+00  0.19776332130E-01 0.  0.
         14    1    1    2    0    0  0.66555738842E-03 -0.17347585595E-01  0.16889319996E-01  0.24220462889E-01  0.00000000000E+00 0.  1.
     999901    1    3    3    0    0 -0.25578371314E-01  0.63872942190E-01  0.10158603807E+00  0.88851208712E+00  0.88000000000E+00 0. -1.
        -11    1    4    4    0    0  0.12870744232E-01 -0.38098654256E-01 -0.98485992606E-01  0.10638099160E+00  0.51100000000E-03 0. -1.
         11    1    4    4    0    0  0.12042069693E-01 -0.84267023385E-02 -0.19989365459E-01  0.24816458394E-01  0.51100000000E-03 0.  1.
</event>
<event>
 8    1  0.1112929E+005  0.1043930E+01  0.7957747E-01            NaN
         13   -1    0    0    0    0  0.00000000000E+00  0.00000000000E+00  0.74505805969E-08  0.10566000000E+00  0.10566000000E+00 0.  1.
     999900   -1    0    0    0    0 -0.00000000000E+00 -0.00000000000E+00 -0.74505805969E-08  0.93827000000E+00  0.93827000000E+00 0.  1.
     999902    2    1    2    0    0  0.27591853902E-02  0.20015515714E-02  0.23450512067E-01  0.10202330418E+01  0.10199578000E+01 0.  0.
     999903    2    3    3    0    0  0.20087710340E-01 -0.99849673775E-01 -0.76156342140E-01  0.12860785411E+00  0.19149888540E-01 0.  0.
         14    1    1    2    0    0 -0.27591853902E-02 -0.20015515714E-02 -0.23450512067E-01  0.23696958220E-01  0.00000000000E+00 0. -1.
     999901    1    3    3    0    0 -0.17328524950E-01  0.10185122535E+00  0.99606854206E-01  0.89162518767E+00  0.88000000000E+00 0.  1.
        -11    1    4    4    0    0  0.46575452351E-02 -0.25868262913E-01 -0.98669942562E-02  0.28079858447E-01  0.51100000000E-03 0.  1.
         11    1    4    4    0    0  0.15430165105E-01 -0.73981410863E-01 -0.66289347883E-01  0.10052799566E+00  0.51100000000E-03 0. -1.
</event>
<event>
 8    1  0.1112929E+005  0.1043930E+01  0.7957747E-01            NaN
         13   -1    0    0    0    0  0.00000000000E+00  0.00000000000E+00  0.74505805969E-08  0.10566000000E+00  0.10566000000E+00 0.  1.
     999900   -1    0    0    0    0 -0.00000000000E+00 -0.00000000000E+00 -0.74505805969E-08  0.93827000000E+00  0.93827000000E+00 0.  1.
     999902    2    1    2    0    0  0.60987119814E-02  0.13678153118E-01 -0.19130508837E-01  0.10196346809E+01  0.10193451918E+01 0.  0.
     999903    2    3    3    0    0  0.12143851441E+00  0.43845019452E-01  0.19873810881E-01  0.13073949768E+00  0.53055989956E-02 0.  0.
         14    1    1    2    0    0 -0.60987119814E-02 -0.13678153118E-01  0.19130508837E-01  0.24295319075E-01  0.00000000000E+00 0.  1.
     999901    1    3    3    0    0 -0.11533980243E+00 -0.30166866334E-01 -0.39004319718E-01  0.88889518325E+00  0.88000000000E+00 0.  1.
        -11    1    4    4    0    0  0.10522069188E+00  0.37850374804E-01  0.15449832979E-01  0.11288491189E+00  0.51100000000E-03 0.  1.
         11    1    4    4    0    0  0.16217822526E-01  0.59946446479E-02  0.44239779019E-02  0.17854585782E-01  0.51100000000E-03 0. -1.
</event>
<event>
 8    1  0.1112929E+005  0.1043930E+01  0.7957747E-01            NaN
         13   -1    0    0    0    0  0.00000000000E+00  0.00000000000E+00  0.74505805969E-08  0.10566000000E+00  0.10566000000E+00 0. -1.
     999900   -1    0    0    0    0 -0.00000000000E+00 -0.00000000000E+00 -0.74505805969E-08  0.93827000000E+00  0.93827000000E+00 0. -1.
     999902    2    1    2    0    0 -0.15498917503E-01 -0.24884169524E-02  0.18138722072E-01  0.10199420468E+01  0.10196599221E+01 0.  0.
     999903    2    3    3    0    0 -0.14430884393E-01 -0.78292151246E-01 -0.99251024037E-01  0.12891584101E+00  0.20751311270E-01 0.  0.
         14    1    1    2    0    0  0.15498917503E-01  0.24884169524E-02 -0.18138722072E-01  0.23987953250E-01  0.00000000000E+00 0.  1.
     999901    1    3    3    0    0 -0.10680331102E-02  0.75803734294E-01  0.11738974611E+00  0.89102620574E+00  0.88000000000E+00 0.  1.
        -11    1    4    4    0    0 -0.47196501529E-02 -0.46638586321E-01 -0.42848942067E-01  0.63511619321E-01  0.51100000000E-03 0.  1.
         11    1    4    4    0    0 -0.97112342397E-02 -0.31653564925E-01 -0.56402081970E-01  0.65404221687E-01  0.51100000000E-03 0. -1.
</event>
<event>
 8    1  0.1112929E+005  0.1043930E+01  0.7957747E-01            NaN
         13   -1    0    0    0    0  0.00000000000E+00  0.00000000000E+00  0.74505805969E-08  0.10566000000E+00  0.10566000000E+00 0. -1.
     999900   -1    0    0    0    0 -0.00000000000E+00 -0.00000000000E+00 -0.74505805969E-08  0.93827000000E+00  0.93827000000E+00 0. -1.
     999902    2    1    2    0    0 -0.23957819918E-01  0.28482304592E-02 -0.64976902687E-04  0.10198033804E+01  0.10195179453E+01 0.  0.
     999903    2    3    3    0    0 -0.43473078698E-01  0.12202925733E+00  0.11246319145E-01  0.13148310711E+00  0.19500757588E-01 0.  0.
         14    1    1    2    0    0  0.23957819918E-01 -0.28482304592E-02  0.64976902687E-04  0.24126619614E-01  0.00000000000E+00 0. -1.
     999901    1    3    3    0    0  0.19515258779E-01 -0.11918102687E+00 -0.11311296048E-01  0.88832027327E+00  0.88000000000E+00 0.  1.
        -11    1    4    4    0    0 -0.67208716989E-03  0.13926375911E-01  0.57324786661E-02  0.15083702457E-01  0.51100000000E-03 0.  1.
         11    1    4    4    0    0 -0.42800991528E-01  0.10810288142E+00  0.55138404789E-02  0.11639940466E+00  0.51100000000E-03 0. -1.
</event>
<event>
 8    1  0.1112929E+005  0.1043930E+01  0.7957747E-01            NaN
         13   -1    0    0    0    0  0.00000000000E+00  0.00000000000E+00  0.74505805969E-08  0.10566000000E+00  0.10566000000E+00 0.  1.
     999900   -1    0    0    0    0 -0.00000000000E+00 -0.00000000000E+00 -0.74505805969E-08  0.93827000000E+00  0.93827000000E+00 0.  1.
     999902    2    1    2    0    0  0.15662776945E-01  0.51862103489E-02  0.17175385215E-01  0.10201137615E+01  0.10198357089E+01 0.  0.
     999903    2    3    3    0    0 -0.58597750385E-01  0.10659181709E+00  0.43151799973E-01  0.13080363723E+00  0.21260335130E-01 0.  0.
         14    1    1    2    0    0 -0.15662776945E-01 -0.51862103489E-02 -0.17175385215E-01  0.23816238508E-01  0.00000000000E+00 0.  1.
     999901    1    3    3    0    0  0.74260527331E-01 -0.10140560674E+00 -0.25976414758E-01  0.88931012427E+00  0.88000000000E+00 0.  1.
        -11    1    4    4    0    0 -0.17667286101E-01  0.51407243759E-01  0.24373989141E-01  0.59575080165E-01  0.51100000000E-03 0. -1.
         11    1    4    4    0    0 -0.40930464285E-01  0.55184573331E-01  0.18777810832E-01  0.71228557061E-01  0.51100000000E-03 0.  1.
</event>
<event>
 8    1  0.1112929E+005  0.1043930E+01  0.7957747E-01            NaN
         13   -1    0    0    0    0  0.00000000000E+00  0.00000000000E+00  0.74505805969E-08  0.10566000000E+00  0.10566000000E+00 0. -1.
     999900   -1    0    0    0    0 -0.00000000000E+00 -0.00000000000E+00 -0.74505805969E-08  0.93827000000E+00  0.93827000000E+00 0.  1.
     999902    2    1    2    0    0 -0.75795556082E-02 -0.54694588435E-02 -0.20258142921E-01  0.10216195317E+01  0.10213758909E+01 0.  0.
     999903    2    3    3    0    0  0.12155066664E+00  0.72574539063E-02  0.39442490225E-01  0.13010354514E+00  0.23323533748E-01 0.  0.
         14    1    1    2    0    0  0.75795556082E-02  0.54694588435E-02  0.20258142921E-01  0.22310468347E-01  0.00000000000E+00 0. -1.
     999901    1    3    3    0    0 -0.12913022225E+00 -0.12726912750E-01 -0.59700633145E-01  0.89151598651E+00  0.88000000000E+00 0.  1.
        -11    1    4    4    0    0  0.51891330142E-01 -0.75321182819E-02  0.21425519725E-01  0.56645890991E-01  0.51100000000E-03 0. -1.
         11    1    4    4    0    0  0.69659336495E-01  0.14789572188E-01  0.18016970499E-01  0.73457654152E-01  0.51100000000E-03 0.  1.
</event>
<event>
 8    1  0.1112929E+005  0.1043930E+01  0.7957747E-01            NaN
         13   -1    0    0    0    0  0.00000000000E+00  0.00000000000E+00  0.74505805969E-08  0.10566000000E+00  0.10566000000E+00 0.  1.
     999900   -1    0    0    0    0 -0.00000000000E+00 -0.00000000000E+00 -0.74505805969E-08  0.93827000000E+00  0.93827000000E+00 0. -1.
     999902    2    1    2    0    0  0.10925679246E-01 -0.19578664457E-01 -0.37625680630E-02  0.10211956320E+01  0.10209425387E+01 0.  0.
     999903    2    3    3    0    0  0.19133783056E-01 -0.19221225305E-01 -0.12850267633E+00  0.13236066683E+00  0.16457555814E-01 0.  0.
         14    1    1    2    0    0 -0.10925679246E-01  0.19578664457E-01  0.37625680630E-02  0.22734367978E-01  0.00000000000E+00 0. -1.
     999901    1    3    3    0    0 -0.82081038098E-02 -0.35743915160E-03  0.12474010827E+00  0.88883496519E+00  0.88000000000E+00 0.  1.
        -11    1    4    4    0    0 -0.12292148970E-02 -0.38337526729E-02 -0.41278980107E-01  0.41477993545E-01  0.51100000000E-03 0.  1.
         11    1    4    4    0    0  0.20362997953E-01 -0.15387472633E-01 -0.87223696227E-01  0.90882673289E-01  0.51100000000E-03 0. -1.
</event>
<event>
 8    1  0.1112929E+005  0.1043930E+01  0.7957747E-01            NaN
         13   -1    0    0    0    0  0.00000000000E+00  0.00000000000E+00  0.74505805969E-08  0.10566000000E+00  0.10566000000E+00 0. -1.
     999900   -1    0    0    0    0 -0.00000000000E+00 -0.00000000000E+00 -0.74505805969E-08  0.93827000000E+00  0.93827000000E+00 0.  1.
     999902    2    1    2    0    0 -0.20788970217E-01 -0.18212917417E-02 -0.10746841176E-01  0.10204567603E+01  0.10201867509E+01 0.  0.
     999903    2    3    3    0    0  0.18050811434E-01 -0.52303580158E-01 -0.11786645691E+00  0.13167579620E+00  0.19609113935E-01 0.  0.
         14    1    1    2    0    0  0.20788970217E-01  0.18212917417E-02  0.10746841176E-01  0.23473239690E-01  0.00000000000E+00 0. -1.
     999901    1    3    3    0    0 -0.38839781650E-01  0.50482288417E-01  0.10711961574E+00  0.88878096411E+00  0.88000000000E+00 0. -1.
        -11    1    4    4    0    0  0.11360353309E-01 -0.42913813810E-01 -0.73808273792E-01  0.86131152577E-01  0.51100000000E-03 0.  1.
         11    1    4    4    0    0  0.66904581245E-02 -0.93897663481E-02 -0.44058183123E-01  0.45544643626E-01  0.51100000000E-03 0. -1.
</event>
<event>
 8    1  0.1112929E+005  0.1043930E+01  0.7957747E-01            NaN
         13   -1    0    0    0    0  0.00000000000E+00  0.00000000000E+00  0.74505805969E-08  0.10566000000E+00  0.10566000000E+00 0.  1.
     999900   -1    0    0    0    0 -0.00000000000E+00 -0.00000000000E+00 -0.74505805969E-08  0.93827000000E+00  0.93827000000E+00 0. -1.
     999902    2    1    2    0    0 -0.13021600116E-01 -0.15941064607E-01 -0.11393631587E-01  0.10204035372E+01  0.10201322877E+01 0.  0.
     999903    2    3    3    0    0 -0.11419860549E+00  0.24580307972E-01 -0.59081149632E-01  0.13239854431E+00  0.19831269684E-01 0.  0.
         14    1    1    2    0    0  0.13021600116E-01  0.15941064607E-01  0.11393631587E-01  0.23526462784E-01  0.00000000000E+00 0.  1.
     999901    1    3    3    0    0  0.10117700537E+00 -0.40521372578E-01  0.47687518045E-01  0.88800499291E+00  0.88000000000E+00 0.  1.
        -11    1    4    4    0    0 -0.26803335125E-01  0.96534919460E-02 -0.23227729690E-01  0.36761355091E-01  0.51100000000E-03 0. -1.
         11    1    4    4    0    0 -0.87395270365E-01  0.14926816026E-01 -0.35853419942E-01  0.95637189218E-01  0.51100000000E-03 0.  1.
</event>
<event>
 8    1  0.1112929E+005  0.1043930E+01  0.7957747E-01            NaN
         13   -1    0    0    0    0  0.00000000000E+00  0.00000000000E+00  0.74505805969E-08  0.10566000000E+00  0.10566000000E+00 0.  1.
     999900   -1    0    0    0    0 -0.00000000000E+00 -0.00000000000E+00 -0.74505805969E-08  0.93827000000E+00  0.93827000000E+00 0.  1.
     999902    2    1    2    0    0  0.22081606073E-01  0.34173581968E-02 -0.83667571397E-02  0.10200704466E+01  0.10197913697E+01 0.  0.
     999903    2    3    3    0    0 -0.43992193584E-01  0.60749258989E-01 -0.10489196639E+00  0.13048076035E+00  0.19927835925E-01 0.  0.
         14    1    1    2    0    0 -0.22081606073E-01 -0.34173581968E-02  0.83667571397E-02  0.23859553408E-01  0.00000000000E+00 0.  1.
     999901    1    3    3    0    0  0.66073799658E-01 -0.57331900792E-01  0.96525209247E-01  0.88958968624E+00  0.88000000000E+00 0. -1.
        -11    1    4    4    0    0 -0.16021382410E-01  0.30197347524E-01 -0.62311024758E-01  0.71073830762E-01  0.51100000000E-03 0.  1.
         11    1    4    4    0    0 -0.27970811174E-01  0.30551911465E-01 -0.42580941628E-01  0.59406929586E-01  0.51100000000E-03 0. -1.
</event>
<event>
 8    1  0.1112929E+005  0.1043930E+01  0.7957747E-01            NaN
         13   -1    0    0    0    0  0.00000000000E+00  0.00000000000E+00  0.74505805969E-08  0.10566000000E+00  0.10566000000E+00 0.  1.
     999900   -1    0    0    0    0 -0.00000000000E+00 -0.00000000000E+00 -0.74505805969E-08  0.93827000000E+00  0.93827000000E+00 0.  1.
     999902    2    1    2    0    0  0.21130076760E-01  0.10292148125E-01 -0.11637714880E-02  0.10203978343E+01  0.10201264517E+01 0.  0.
     999903    2    3    3    0    0 -0.12512303836E+00 -0.16757074847E-01 -0.89011861786E-02  0.12788368782E+00  0.18396527062E-01 0.  0.
         14    1    1    2    0    0 -0.21130076760E-01 -0.10292148125E-01  0.11637714880E-02  0.23532165667E-01  0.00000000000E+00 0. -1.
     999901    1    3    3    0    0  0.14625311512E+00  0.27049222972E-01  0.77374146907E-02  0.89251414652E+00  0.88000000000E+00 0. -1.
        -11    1    4    4    0    0 -0.28037606922E-01 -0.14993579585E-02  0.53197518000E-02  0.28581748659E-01  0.51100000000E-03 0. -1.
         11    1    4    4    0    0 -0.97085431440E-01 -0.15257716888E-01 -0.14220937979E-01  0.99301939158E-01  0.51100000000E-03 0.  1.
</event>
<event>
 8    1  0.1112929E+005  0.1043930E+01  0.7957747E-01            NaN
         13   -1    0    0    0    0  0.00000000000E+00  0.00000000000E+00  0.74505805969E-08  0.10566000000E+00  0.10566000000E+00 0.  1.
     999900   -1    0    0    0    0 -0.00000000000E+00 -0.00000000000E+00 -0.74505805969E-08  0.93827000000E+00  0.93827000000E+00 0. -1.
     999902    2    1    2    0    0 -0.19429188740E-01 -0.24290498408E-02 -0.12967076014E-01  0.10204451385E+01  0.10201748585E+01 0.  0.
     999903    2    3    3    0    0 -0.74451103417E-01 -0.77846102884E-02 -0.10853247806E+00  0.13354670060E+00  0.21256892764E-01 0.  0.
         14    1    1    2    0    0  0.19429188740E-01  0.24290498408E-02  0.12967076014E-01  0.23484861477E-01  0.00000000000E+00 0.  1.
     999901    1    3    3    0    0  0.55021914677E-01  0.53555604477E-02  0.95565402046E-01  0.88689843792E+00  0.88000000000E+00 0.  1.
        -11    1    4    4    0    0 -0.30160107145E-01 -0.95217683087E-02 -0.31317361296E-01  0.44512182313E-01  0.51100000000E-03 0. -1.
         11    1    4    4    0    0 -0.44290996272E-01  0.17371580203E-02 -0.77215116764E-01  0.89034518287E-01  0.51100000000E-03 0.  1.
</event>
<event>
 8    1  0.1112929E+005  0.1043930E+01  0.7957747E-01            NaN
         13   -1    0    0    0    0  0.00000000000E+00  0.00000000000E+00  0.74505805969E-08  0.10566000000E+00  0.10566000000E+00 0. -1.
     999900   -1    0    0    0    0 -0.00000000000E+00 -0.00000000000E+00 -0.74505805969E-08  0.93827000000E+00  0.93827000000E+00 0.  1.
     999902    2    1    2    0    0 -0.67825343996E-02  0.22117850556E-01 -0.95298868821E-02  0.10189095917E+01  0.10186023440E+01 0.  0.
     999903    2    3    3    0    0 -0.38536711965E-01  0.11189368492E+00 -0.55852714352E-01  0.13256099633E+00  0.21156964652E-01 0.  0.
         14    1    1    2    0    0  0.67825343996E-02 -0.22117850556E-01  0.95298868821E-02  0.25020408271E-01  0.00000000000E+00 0. -1.
     999901    1    3    3    0    0  0.31754177566E-01 -0.89775834360E-01  0.46322827469E-01  0.88634859540E+00  0.88000000000E+00 0. -1.
        -11    1    4    4    0    0 -0.22076300224E-01  0.36054824361E-01 -0.15022670132E-01  0.44869311675E-01  0.51100000000E-03 0.  1.
         11    1    4    4    0    0 -0.16460411742E-01  0.75838860555E-01 -0.40830044219E-01  0.87691684651E-01  0.51100000000E-03 0. -1.
</event>
<event>
 8    1  0.1112929E+005  0.1043930E+01  0.7957747E-01            NaN
         13   -1    0    0    0    0  0.00000000000E+00  0.00000000000E+00  0.74505805969E-08  0.10566000000E+00  0.10566000000E+00 0. -1.
     999900   -1    0    0    0    0 -0.00000000000E+00 -0.00000000000E+00 -0.74505805969E-08  0.93827000000E+00  0.93827000000E+00 0. -1.
     999902    2    1    2    0    0  0.19256824282E-01  0.10022873947E-01  0.95388288857E-03  0.10221999936E+01  0.10219689985E+01 0.  0.
     999903    2    3    3    0    0 -0.12232931892E+00  0.13780273891E-01 -0.36972859360E-01  0.13006816943E+00  0.19909247914E-01 0.  0.
         14    1    1    2    0    0 -0.19256824282E-01 -0.10022873947E-01 -0.95388288857E-03  0.21730006354E-01  0.00000000000E+00 0. -1.
     999901    1    3    3    0    0  0.14158614321E+00 -0.37573999433E-02  0.37926742249E-01  0.89213182422E+00  0.88000000000E+00 0.  1.
        -11    1    4    4    0    0 -0.91445615862E-01  0.49035953987E-02 -0.20053163453E-01  0.93748260750E-01  0.51100000000E-03 0.  1.
         11    1    4    4    0    0 -0.30883703062E-01  0.88766784920E-02 -0.16919695907E-01  0.36319908679E-01  0.51100000000E-03 0. -1.
</event>
<event>
 8    1  0.1112929E+005  0.1043930E+01  0.7957747E-01            NaN
         13   -1    0    0    0    0  0.00000000000E+00  0.00000000000E+00  0.74505805969E-08  0.10566000000E+00  0.10566000000E+00 0.  1.
     999900   -1    0    0    0    0 -0.00000000000E+00 -0.00000000000E+00 -0.74505805969E-08  0.93827000000E+00  0.93827000000E+00 0. -1.
     999902    2    1    2    0    0  0.23934134028E-01  0.14221645261E-02 -0.39035529691E-03  0.10199504733E+01  0.10196685492E+01 0.  0.
     999903    2    3    3    0    0  0.87701444328E-01  0.52901655974E-01  0.81468934593E-01  0.13235971667E+00  0.19793401736E-01 0.  0.
         14    1    1    2    0    0 -0.23934134028E-01 -0.14221645261E-02  0.39035529691E-03  0.23979526702E-01  0.00000000000E+00 0. -1.
     999901    1    3    3    0    0 -0.63767310300E-01 -0.51479491448E-01 -0.81859289890E-01  0.88759075662E+00  0.88000000000E+00 0. -1.
        -11    1    4    4    0    0  0.54219723361E-01  0.30356846782E-01  0.61084258114E-01  0.87137042974E-01  0.51100000000E-03 0. -1.
         11    1    4    4    0    0  0.33481720967E-01  0.22544809193E-01  0.20384676479E-01  0.45222673700E-01  0.51100000000E-03 0.  1.
</event>
<event>
 8    1  0.1112929E+005  0.1043930E+01  0.7957747E-01            NaN
         13   -1    0    0    0    0  0.00000000000E+00  0.00000000000E+00  0.74505805969E-08  0.10566000000E+00  0.10566000000E+00 0. -1.
     999900   -1    0    0    0    0 -0.00000000000E+00 -0.00000000000E+00 -0.74505805969E-08  0.93827000000E+00  0.93827000000E+00 0. -1.
     999902    2    1    2    0    0 -0.16558381684E-01  0.10869863881E-01 -0.13875682360E-01  0.10197459452E+01  0.10194591332E+01 0.  0.
     999903    2    3    3    0    0  0.97332019354E-02 -0.12566948473E+00 -0.25216744684E-01  0.12875612441E+00  0.73959953697E-02 0.  0.
         14    1    1    2    0    0  0.16558381684E-01 -0.10869863881E-01  0.13875682360E-01  0.24184054783E-01  0.00000000000E+00 0. -1.
     999901    1    3    3    0    0 -0.26291583620E-01  0.13653934861E+00  0.11341062324E-01  0.89098982081E+00  0.88000000000E+00 0.  1.
        -11    1    4    4    0    0  0.67544077121E-02 -0.10219210495E+00 -0.23110782234E-01  0.10499151258E+00  0.51100000000E-03 0. -1.
         11    1    4    4    0    0  0.29787942233E-02 -0.23477379782E-01 -0.21059624501E-02  0.23764611827E-01  0.51100000000E-03 0.  1.
</event>
<event>
 8    1  0.1112929E+005  0.1043930E+01  0.7957747E-01            NaN
         13   -1    0    0    0    0  0.00000000000E+00  0.00000000000E+00  0.74505805969E-08  0.10566000000E+00  0.10566000000E+00 0.  1.
     999900   -1    0    0    0    0 -0.00000000000E+00 -0.00000000000E+00 -0.74505805969E-08  0.93827000000E+00  0.93827000000E+00 0. -1.
     999902    2    1    2    0    0 -0.68592065856E-02 -0.10427202983E-01 -0.19695982121E-01  0.10206124746E+01  0.10203460768E+01 0.  0.
     999903    2    3    3    0    0  0.12803250261E+00 -0.11804570141E-01  0.22363805939E-02  0.13006281354E+00  0.19484980589E-01 0.  0.
         14    1    1    2    0    0  0.68592065856E-02  0.10427202983E-01  0.19695982121E-01  0.23317525356E-01  0.00000000000E+00 0. -1.
     999901    1    3    3    0    0 -0.13489170919E+00  0.13773671581E-02 -0.21932362714E-01  0.89054966110E+00  0.88000000000E+00 0. -1.
        -11    1    4    4    0    0  0.63894841272E-01 -0.39962154766E-02  0.10658822206E-01  0.64902943625E-01  0.51100000000E-03 0.  1.
         11    1    4    4    0    0  0.64137661336E-01 -0.78083546648E-02 -0.84224416122E-02  0.65159869920E-01  0.51100000000E-03 0. -1.
</event>
<event>
 8    1  0.1112929E+005  0.1043930E+01  0.7957747E-01            NaN
         13   -1    0    0    0    0  0.00000000000E+00  0.00000000000E+00  0.74505805969E-08  0.10566000000E+00  0.10566000000E+00 0. -1.
     999900   -1    0    0    0    0 -0.00000000000E+00 -0.00000000000E+00 -0.74505805969E-08  0.93827000000E+00  0.93827000000E+00 0.  1.
     999902    2    1    2    0    0 -0.11730547582E-01 -0.43537306688E-02 -0.18694106394E-01  0.10214348821E+01  0.10211871464E+01 0.  0.
     999903    2    3    3    0    0 -0.27104131336E-01 -0.97507278300E-01 -0.85306050770E-01  0.13388145739E+00  0.20120116225E-01 0.  0.
         14    1    1    2    0    0  0.11730547582E-01  0.43537306688E-02  0.18694106394E-01  0.22495117941E-01  0.00000000000E+00 0. -1.
     999901    1    3    3    0    0  0.15373583754E-01  0.93153547632E-01  0.66611944377E-01  0.88755342467E+00  0.88000000000E+00 0.  1.
        -11    1    4    4    0    0 -0.18264159385E-01 -0.37516059986E-01 -0.43151090676E-01  0.60027593842E-01  0.51100000000E-03 0.  1.
         11    1    4    4    0    0 -0.88399719509E-02 -0.59991218314E-01 -0.42154960094E-01  0.73853863544E-01  0.51100000000E-03 0. -1.
</event>
<event>
 8    1  0.1112929E+005  0.1043930E+01  0.7957747E-01            NaN
         13   -1    0    0    0    0  0.00000000000E+00  0.00000000000E+00  0.74505805969E-08  0.10566000000E+00  0.10566000000E+00 0.  1.
     999900   -1    0    0    0    0 -0.00000000000E+00 -0.00000000000E+00 -0.74505805969E-08  0.93827000000E+00  0.93827000000E+00 0. -1.
     999902    2    1    2    0    0  0.72035965403E-02 -0.11311744654E-01 -0.19502797360E-01  0.10202613187E+01  0.10199867411E+01 0.  0.
     999903    2    3    3    0    0 -0.11581056561E+00 -0.38843768037E-01  0.37590439778E-01  0.12944700912E+00  0.20556302846E-01 0.  0.
         14    1    1    2    0    0 -0.72035965403E-02  0.11311744654E-01  0.19502797360E-01  0.23668681313E-01  0.00000000000E+00 0.  1.
     999901    1    3    3    0    0  0.12301416215E+00  0.27532023384E-01 -0.57093237137E-01  0.89081430957E+00  0.88000000000E+00 0. -1.
        -11    1    4    4    0    0 -0.39279510780E-01 -0.15237133651E-01  0.23115458886E-01  0.48058670077E-01  0.51100000000E-03 0.  1.
         11    1    4    4    0    0 -0.76531054825E-01 -0.23606634386E-01  0.14474980892E-01  0.81388339045E-01  0.51100000000E-03 0. -1.
</event>
<event>
 8    1  0.1112929E+005  0.1043930E+01  0.7957747E-01            NaN
         13   -1    0    0    0    0  0.00000000000E+00  0.00000000000E+00  0.74505805969E-08  0.10566000000E+00  0.10566000000E+00 0. -1.
     999900   -1    0    0    0    0 -0.00000000000E+00 -0.00000000000E+00 -0.74505805969E-08  0.93827000000E+00  0.93827000000E+00 0. -1.
     999902    2    1    2    0    0 -0.21804607105E-01  0.68239540769E-02  0.95174828432E-02  0.10191794501E+01  0.10188788749E+01 0.  0.
     999903    2    3    3    0    0  0.89695457376E-01 -0.41360300440E-01 -0.76705410807E-01  0.12666145357E+00  0.20086170515E-01 0.  0.
         14    1    1    2    0    0  0.21804607105E-01 -0.68239540769E-02 -0.95174828432E-02  0.24750549892E-01  0.00000000000E+00 0.  1.
     999901    1    3    3    0    0 -0.11150006448E+00  0.48184254517E-01  0.86222893650E-01  0.89251799654E+00  0.88000000000E+00 0. -1.
        -11    1    4    4    0    0  0.29732471058E-02 -0.41200045956E-02 -0.10572339199E-03  0.51075370440E-02  0.51100000000E-03 0. -1.
         11    1    4    4    0    0  0.86722210270E-01 -0.37240295845E-01 -0.76599687415E-01  0.12155391652E+00  0.51100000000E-03 0.  1.
</event>
<event>
 8    1  0.1112929E+005  0.1043930E+01  0.7957747E-01            NaN
         13   -1    0    0    0    0  0.00000000000E+00  0.00000000000E+00  0.74505805969E-08  0.10566000000E+00  0.10566000000E+00 0. -1.
     999900   -1    0    0    0    0 -0.00000000000E+00 -0.00000000000E+00 -0.74505805969E-08  0.93827000000E+00  0.93827000000E+00 0.  1.
     999902    2    1    2    0    0  0.15397603791E-01 -0.42917843237E-02  0.18030735727E-01  0.10198340865E+01  0.10195493862E+01 0.  0.
     999903    2    3    3    0    0  0.56614779272E-01 -0.91908696212E-01  0.74480900502E-01  0.13272518684E+00  0.20399240444E-01 0.  0.
         14    1    1    2    0    0 -0.15397603791E-01  0.42917843237E-02 -0.18030735727E-01  0.24095913472E-01  0.00000000000E+00 0.  1.
     999901    1    3    3    0    0 -0.41217175480E-01  0.87616911888E-01 -0.56450164775E-01  0.88710889969E+00  0.88000000000E+00 0.  1.
        -11    1    4    4    0    0  0.41667685687E-01 -0.55654900597E-01  0.38353566509E-01  0.79403533775E-01  0.51100000000E-03 0. -1.
         11    1    4    4    0    0  0.14947093584E-01 -0.36253795615E-01  0.36127333993E-01  0.53321653065E-01  0.51100000000E-03 0.  1.
</event>
<event>
 8    1  0.1112929E+005  0.1043930E+01  0.7957747E-01            NaN
         13   -1    0    0    0    0  0.00000000000E+00  0.00000000000E+00  0.74505805969E-08  0.10566000000E+00  0.10566000000E+00 0.  1.
     999900   -1    0    0    0    0 -0.00000000000E+00 -0.00000000000E+00 -0.74505805969E-08  0.93827000000E+00  0.93827000000E+00 0.  1.
     999902    2    1    2    0    0  0.83937602691E-03  0.56824451343E-03  0.24450851152E-01  0.10194581473E+01  0.10191643844E+01 0.  0.
     999903    2    3    3    0    0  0.12193401970E+00 -0.39633386930E-01  0.64815116260E-02  0.13007466358E+00  0.20945109067E-01 0.  0.
         14    1    1    2    0    0 -0.83937602691E-03 -0.56824451343E-03 -0.24450851152E-01  0.24471852729E-01  0.00000000000E+00 0. -1.
     999901    1    3    3    0    0 -0.12109464367E+00  0.40201631443E-01  0.17969339526E-01  0.88938348369E+00  0.88000000000E+00 0.  1.
        -11    1    4    4    0    0  0.71874892154E-01 -0.30882557390E-01  0.11230792566E-01  0.79032425597E-01  0.51100000000E-03 0. -1.
         11    1    4    4    0    0  0.50059127544E-01 -0.87508295399E-02 -0.47492809396E-02  0.51042237985E-01  0.51100000000E-03 0.  1.
</event>
<event>
 8    1  0.1112929E+005  0.1043930E+01  0.7957747E-01            NaN
         13   -1    0    0    0    0  0.00000000000E+00  0.00000000000E+00  0.74505805969E-08  0.10566000000E+00  0.10566000000E+00 0. -1.
     999900   -1    0    0    0    0 -0.00000000000E+00 -0.00000000000E+00 -0.74505805969E-08  0.93827000000E+00  0.93827000000E+00 0. -1.
     999902    2    1    2    0    0 -0.18076266651E-01  0.53573086639E-02  0.13680814594E-01  0.10206358621E+01  0.10203700045E+01 0.  0.
     999903    2    3    3    0    0  0.12595164056E+00 -0.49555287082E-02  0.16320656161E-01  0.12886382765E+00  0.21240273906E-01 0.  0.
         14    1    1    2    0    0  0.18076266651E-01 -0.53573086639E-02 -0.13680814594E-01  0.23294137892E-01  0.00000000000E+00 0.  1.
     999901    1    3    3    0    0 -0.14402790721E+00  0.10312837372E-01 -0.26398415673E-02  0.89177203445E+00  0.88000000000E+00 0. -1.
        -11    1    4    4    0    0  0.45846524219E-01 -0.61393946511E-02  0.15361756526E-01  0.48742595686E-01  0.51100000000E-03 0.  1.
         11    1    4    4    0    0  0.80105116342E-01  0.11838659429E-02  0.95889963545E-03  0.80121231969E-01  0.51100000000E-03 0. -1.
</event>
<event>
 8    1  0.1112929E+005  0.1043930E+01  0.7957747E-01            NaN
         13   -1    0    0    0    0  0.00000000000E+00  0.00000000000E+00  0.74505805969E-08  0.10566000000E+00  0.10566000000E+00 0. -1.
     999900   -1    0    0    0    0 -0.00000000000E+00 -0.00000000000E+00 -0.74505805969E-08  0.93827000000E+00  0.93827000000E+00 0. -1.
     999902    2    1    2    0    0  0.60973357096E-02  0.18505273646E-01  0.12628876310E-01  0.10207112323E+01  0.10204471121E+01 0.  0.
     999903    2    3    3    0    0  0.79032584266E-01  0.39162838922E-01 -0.94904611229E-01  0.13093050854E+00  0.18868903116E-01 0.  0.
         14    1    1    2    0    0 -0.60973357096E-02 -0.18505273646E-01 -0.12628876310E-01  0.23218767674E-01  0.00000000000E+00 0. -1.
     999901    1    3    3    0    0 -0.72935248556E-01 -0.20657565276E-01  0.10753348754E+00  0.88978072379E+00  0.88000000000E+00 0.  1.
        -11    1    4    4    0    0  0.14008775275E-01  0.15364198129E-01 -0.25267754590E-01  0.32726516952E-01  0.51100000000E-03 0.  1.
         11    1    4    4    0    0  0.65023808991E-01  0.23798640793E-01 -0.69636856640E-01  0.98203991584E-01  0.51100000000E-03 0. -1.
</event>
<event>
 8    1  0.1112929E+005  0.1043930E+01  0.7957747E-01            NaN
         13   -1    0    0    0    0  0.00000000000E+00  0.00000000000E+00  0.74505805969E-08  0.10566000000E+00  0.10566000000E+00 0.  1.
     999900   -1    0    0    0    0 -0.00000000000E+00 -0.00000000000E+00 -0.74505805969E-08  0.93827000000E+00  0.93827000000E+00 0.  1.
     999902    2    1    2    0    0 -0.76032921181E-02  0.10463911345E-02  0.22380881011E-01  0.10202697206E+01  0.10199953402E+01 0.  0.
     999903    2    3    3    0    0 -0.11844914941E+00  0.76427889209E-02 -0.50921079854E-01  0.13026775770E+00  0.16974071549E-01 0.  0.
         14    1    1    2    0    0  0.76032921181E-02 -0.10463911345E-02 -0.22380881011E-01  0.23660279378E-01  0.00000000000E+00 0. -1.
     999901    1    3    3    0    0  0.11084585729E+00 -0.65963977865E-02  0.73301960864E-01  0.89000196292E+00  0.88000000000E+00 0. -1.
        -11    1    4    4    0    0 -0.73013932332E-01 -0.23343649041E-02 -0.26373850859E-01  0.77668041717E-01  0.51100000000E-03 0.  1.
         11    1    4    4    0    0 -0.45435217074E-01  0.99771538251E-02 -0.24547228995E-01  0.52599715981E-01  0.51100000000E-03 0. -1.
</event>
<event>
 8    1  0.1112929E+005  0.1043930E+01  0.7957747E-01            NaN
         13   -1    0    0    0    0  0.00000000000E+00  0.00000000000E+00  0.74505805969E-08  0.10566000000E+00  0.10566000000E+00 0. -1.
     999900   -1    0    0    0    0 -0.00000000000E+00 -0.00000000000E+00 -0.74505805969E-08  0.93827000000E+00  0.93827000000E+00 0. -1.
     999902    2    1    2    0    0 -0.21120307212E-01 -0.34135411615E-02  0.99917310475E-02  0.10203174116E+01  0.10200441491E+01 0.  0.
     999903    2    3    3    0    0  0.43928493543E-01  0.98713745466E-01  0.69576523361E-01  0.13002999926E+00  0.19818981208E-01 0.  0.
         14    1    1    2    0    0  0.21120307212E-01  0.34135411615E-02 -0.99917310475E-02  0.23612588366E-01  0.00000000000E+00 0.  1.
     999901    1    3    3    0    0 -0.65048800755E-01 -0.10212728663E+00 -0.59584792314E-01  0.89028741237E+00  0.88000000000E+00 0. -1.
        -11    1    4    4    0    0  0.12948776650E-01  0.53257101931E-01  0.36153220698E-01  0.65660537697E-01  0.51100000000E-03 0.  1.
         11    1    4    4    0    0  0.30979716892E-01  0.45456643535E-01  0.33423302664E-01  0.64369461565E-01  0.51100000000E-03 0. -1.
</event>
<event>
 8    1  0.1112929E+005  0.1043930E+01  0.7957747E-01            NaN
         13   -1    0    0    0    0  0.00000000000E+00  0.00000000000E+00  0.74505805969E-08  0.10566000000E+00  0.10566000000E+00 0. -1.
     999900   -1    0    0    0    0 -0.00000000000E+00 -0.00000000000E+00 -0.74505805969E-08  0.93827000000E+00  0.93827000000E+00 0. -1.
     999902    2    1    2    0    0 -0.21193353160E-01  0.17417838140E-02  0.11352656240E-01  0.10198245062E+01  0.10195395767E+01 0.  0.
     999903    2    3    3    0    0 -0.10629471162E+00  0.39200591202E-01 -0.63987674403E-01  0.13172452932E+00  0.20534777323E-01 0.  0.
         14    1    1    2    0    0  0.21193353160E-01 -0.17417838140E-02 -0.11352656240E-01  0.24105493828E-01  0.00000000000E+00 0.  1.
     999901    1    3    3    0    0  0.85101358462E-01 -0.37458807388E-01  0.75340330643E-01  0.88809997685E+00  0.88000000000E+00 0.  1.
        -11    1    4    4    0    0 -0.65127056157E-01  0.13720275071E-01 -0.40480609976E-01  0.77901991609E-01  0.51100000000E-03 0. -1.
         11    1    4    4    0    0 -0.41167655465E-01  0.25480316131E-01 -0.23507064427E-01  0.53822537711E-01  0.51100000000E-03 0.  1.
</event>
<event>
 8    1  0.1112929E+005  0.1043930E+01  0.7957747E-01            NaN
         13   -1    0    0    0    0  0.00000000000E+00  0.00000000000E+00  0.74505805969E-08  0.10566000000E+00  0.10566000000E+00 0. -1.
     999900   -1    0    0    0    0 -0.00000000000E+00 -0.00000000000E+00 -0.74505805969E-08  0.93827000000E+00  0.93827000000E+00 0. -1.
     999902    2    1    2    0    0 -0.15133253446E-01  0.77519747009E-02 -0.17250826150E-01  0.10197081199E+01  0.10194203992E+01 0.  0.
     999903    2    3    3    0    0 -0.12180000376E+00  0.46147153241E-01 -0.13015898067E-01  0.13242579734E+00  0.20059350148E-01 0.  0.
         14    1    1    2    0    0  0.15133253446E-01 -0.77519747009E-02  0.17250826150E-01  0.24221880078E-01  0.00000000000E+00 0.  1.
     999901    1    3    3    0    0  0.10666675032E+00 -0.38395178541E-01 -0.42349280832E-02  0.88728232259E+00  0.88000000000E+00 0. -1.
        -11    1    4    4    0    0 -0.76448381441E-01  0.20476758984E-01 -0.20616864122E-02  0.79171739625E-01  0.51100000000E-03 0.  1.
         11    1    4    4    0    0 -0.45351622323E-01  0.25670394257E-01 -0.10954211655E-01  0.53254057711E-01  0.51100000000E-03 0. -1.
</event>
<event>
 8    1  0.1112929E+005  0.1043930E+01  0.7957747E-01            NaN
         13   -1    0    0    0    0  0.00000000000E+00  0.00000000000E+00  0.74505805969E-08  0.10566000000E+00  0.10566000000E+00 0.  1.
     999900   -1    0    0    0    0 -0.00000000000E+00 -0.00000000000E+00 -0.74505805969E-08  0.93827000000E+00  0.93827000000E+00 0.  1.
     999902    2    1    2    0    0  0.15686346731E-01  0.20402242486E-03 -0.15896992193E-01  0.10215957783E+01  0.10213516127E+01 0.  0.
     999903    2    3    3    0    0  0.36291159067E-01  0.11666079917E+00 -0.48928535472E-01  0.13307013319E+00  0.19668972386E-01 0.  0.
         14    1    1    2    0    0 -0.15686346731E-01 -0.20402242486E-03  0.15896992193E-01  0.22334221717E-01  0.00000000000E+00 0.  1.
     999901    1    3    3    0    0 -0.20604812336E-01 -0.11645677674E+00  0.33031543279E-01  0.88852564510E+00  0.88000000000E+00 0.  1.
        -11    1    4    4    0    0  0.23075967531E-01  0.99040120888E-01 -0.41183233397E-01  0.10971675194E+00  0.51100000000E-03 0.  1.
         11    1    4    4    0    0  0.13215191536E-01  0.17620678278E-01 -0.77453020750E-02  0.23353381244E-01  0.51100000000E-03 0. -1.
</event>
<event>
 8    1  0.1112929E+005  0.1043930E+01  0.7957747E-01            NaN
         13   -1    0    0    0    0  0.00000000000E+00  0.00000000000E+00  0.74505805969E-08  0.10566000000E+00  0.10566000000E+00 0.  1.
     999900   -1    0    0    0    0 -0.00000000000E+00 -0.00000000000E+00 -0.74505805969E-08  0.93827000000E+00  0.93827000000E+00 0. -1.
     999902    2    1    2    0    0  0.18232430217E-01  0.14003511152E-01  0.41406779800E-02  0.10205705255E+01  0.10203031571E+01 0.  0.
     999903    2    3    3    0    0 -0.62820890318E-01 -0.64607698573E-01  0.90378966671E-01  0.12917476291E+00  0.19928441543E-01 0.  0.
         14    1    1    2    0    0 -0.18232430217E-01 -0.14003511152E-01 -0.41406779800E-02  0.23359474531E-01  0.00000000000E+00 0. -1.
     999901    1    3    3    0    0  0.81053320535E-01  0.78611209725E-01 -0.86238288691E-01  0.89139576255E+00  0.88000000000E+00 0. -1.
        -11    1    4    4    0    0 -0.24663583761E-01 -0.30283220037E-01  0.26364749547E-01  0.47124589329E-01  0.51100000000E-03 0. -1.
         11    1    4    4    0    0 -0.38157306557E-01 -0.34324478536E-01  0.64014217124E-01  0.82050173586E-01  0.51100000000E-03 0.  1.
</event>
<event>
 8    1  0.1112929E+005  0.1043930E+01  0.7957747E-01            NaN
         13   -1    0    0    0    0  0.00000000000E+00  0.00000000000E+00  0.74505805969E-08  0.10566000000E+00  0.10566000000E+00 0. -1.
     999900   -1    0    0    0    0 -0.00000000000E+00 -0.00000000000E+00 -0.74505805969E-08  0.93827000000E+00  0.93827000000E+00 0.  1.
     999902    2    1    2    0    0  0.12265421026E-01 -0.40784654145E-02 -0.19900711125E-01  0.10202000034E+01  0.10199239846E+01 0.  0.
     999903    2    3    3    0    0  0.12617301908E+00  0.70671974563E-04  0.30807127103E-01  0.13140112795E+00  0.19938445480E-01 0.  0.
         14    1    1    2    0    0 -0.12265421026E-01  0.40784654145E-02  0.19900711125E-01  0.23729996552E-01  0.00000000000E+00 0. -1.
     999901    1    3    3    0    0 -0.11390759805E+00 -0.41491373890E-02 -0.50707838228E-01  0.88879887550E+00  0.88000000000E+00 0.  1.
        -11    1    4    4    0    0  0.10033663107E-01  0.55692167581E-03 -0.28919439296E-02  0.10469432544E-01  0.51100000000E-03 0.  1.
         11    1    4    4    0    0  0.11613935597E+00 -0.48624970124E-03  0.33699071033E-01  0.12093169540E+00  0.51100000000E-03 0. -1.
</event>
<event>
 8    1  0.1112929E+005  0.1043930E+01  0.7957747E-01            NaN
         13   -1    0    0    0    0  0.00000000000E+00  0.00000000000E+00  0.74505805969E-08  0.10566000000E+00  0.10566000000E+00 0. -1.
     999900   -1    0    0    0    0 -0.00000000000E+00 -0.00000000000E+00 -0.74505805969E-08  0.93827000000E+00  0.93827000000E+00 0.  1.
     999902    2    1    2    0    0  0.16328599384E-01 -0.70403034863E-02  0.23227440911E-01  0.10146775977E+01  0.10142558475E+01 0.  0.
     999903    2    3    3    0    0  0.13058848224E-01 -0.11617823145E+00  0.39189401675E-01  0.12778608075E+00  0.33549340513E-01 0.  0.
         14    1    1    2    0    0 -0.16328599384E-01  0.70403034863E-02 -0.23227440911E-01  0.29252402334E-01  0.00000000000E+00 0.  1.
     999901    1    3    3    0    0  0.32697511601E-02  0.10913792796E+00 -0.15961960763E-01  0.88689151692E+00  0.88000000000E+00 0.  1.
        -11    1    4    4    0    0  0.19520746193E-01 -0.78279683044E-01  0.38346492253E-01  0.89327951384E-01  0.51100000000E-03 0.  1.
         11    1    4    4    0    0 -0.64618979695E-02 -0.37898548407E-01  0.84290942154E-03  0.38458129362E-01  0.51100000000E-03 0. -1.
</event>
<event>
 8    1  0.1112929E+005  0.1043930E+01  0.7957747E-01            NaN
         13   -1    0    0    0    0  0.00000000000E+00  0.00000000000E+00  0.74505805969E-08  0.10566000000E+00  0.10566000000E+00 0. -1.
     999900   -1    0    0    0    0 -0.00000000000E+00 -0.00000000000E+00 -0.74505805969E-08  0.93827000000E+00  0.93827000000E+00 0.  1.
     999902    2    1    2    0    0 -0.12789580747E-01  0.73123290438E-02  0.18813276765E-01  0.10200347512E+01  0.10197548288E+01 0.  0.
     999903    2    3    3    0    0  0.40618133187E-01 -0.58070959014E-01  0.10911610045E+00  0.13139423997E+00  0.18331772826E-01 0.  0.
         14    1    1    2    0    0  0.12789580747E-01 -0.73123290438E-02 -0.18813276765E-01  0.23895248783E-01  0.00000000000E+00 0.  1.
     999901    1    3    3    0    0 -0.53407713934E-01  0.65383288058E-01 -0.90302823687E-01  0.88864051125E+00  0.88000000000E+00 0.  1.
        -11    1    4    4    0    0  0.77828514456E-02 -0.26089715172E-01  0.44491495125E-01  0.52163208047E-01  0.51100000000E-03 0.  1.
         11    1    4    4    0    0  0.32835281741E-01 -0.31981243842E-01  0.64624605328E-01  0.79231031922E-01  0.51100000000E-03 0. -1.
</event>
<event>
 8    1  0.1112929E+005  0.1043930E+01  0.7957747E-01            NaN
         13   -1    0    0    0    0  0.00000000000E+00  0.00000000000E+00  0.74505805969E-08  0.10566000000E+00  0.10566000000E+00 0.  1.
     999900   -1    0    0    0    0 -0.00000000000E+00 -0.00000000000E+00 -0.74505805969E-08  0.93827000000E+00  0.93827000000E+00 0. -1.
     999902    2    1    2    0    0 -0.17131284787E-02 -0.32120331721E-02 -0.23694679522E-01  0.10199573113E+01  0.10196755499E+01 0.  0.
     999903    2    3    3    0    0  0.96821266398E-01  0.83925237459E-01  0.46021797669E-02  0.12973113601E+00  0.19778384235E-01 0.  0.
         14    1    1    2    0    0  0.17131284787E-02  0.32120331721E-02  0.23694679522E-01  0.23972688708E-01  0.00000000000E+00 0.  1.
     999901    1    3    3    0    0 -0.98534394877E-01 -0.87137270631E-01 -0.28296859288E-01  0.89022617528E+00  0.88000000000E+00 0. -1.
        -11    1    4    4    0    0  0.67798037096E-01  0.52227219898E-01 -0.48583986962E-02  0.85721184611E-01  0.51100000000E-03 0.  1.
         11    1    4    4    0    0  0.29023229302E-01  0.31698017561E-01  0.94605784631E-02  0.44009951401E-01  0.51100000000E-03 0. -1.
</event>
<event>
 8    1  0.1112929E+005  0.1043930E+01  0.7957747E-01            NaN
         13   -1    0    0    0    0  0.00000000000E+00  0.00000000000E+00  0.74505805969E-08  0.10566000000E+00  0.10566000000E+00 0.  1.
     999900   -1    0    0    0    0 -0.00000000000E+00 -0.00000000000E+00 -0.74505805969E-08  0.93827000000E+00  0.93827000000E+00 0.  1.
     999902    2    1    2    0    0 -0.63798369578E-02 -0.21479454503E-01 -0.82065481760E-02  0.10200675458E+01  0.10197884003E+01 0.  0.
     999903    2    3    3    0    0  0.10632475663E+00 -0.16124579207E-01  0.70478722233E-01  0.12938108480E+00  0.14396488817E-01 0.  0.
         14    1    1    2    0    0  0.63798369578E-02  0.21479454503E-01  0.82065481760E-02  0.23862454156E-01  0.00000000000E+00 0.  1.
     999901    1    3    3    0    0 -0.11270459359E+00 -0.53548752966E-02 -0.78685270409E-01  0.89068646104E+00  0.88000000000E+00 0.  1.
        -11    1    4    4    0    0  0.37555888579E-01 -0.55945345286E-02  0.33254741942E-01  0.50476554618E-01  0.51100000000E-03 0. -1.
         11    1    4    4    0    0  0.68768868050E-01 -0.10530044678E-01  0.37223980291E-01  0.78904530184E-01  0.51100000000E-03 0.  1.
</event>
<event>
 8    1  0.1112929E+005  0.1043930E+01  0.7957747E-01            NaN
         13   -1    0    0    0    0  0.00000000000E+00  0.00000000000E+00  0.74505805969E-08  0.10566000000E+00  0.10566000000E+00 0.  1.
     999900   -1    0    0    0    0 -0.00000000000E+00 -0.00000000000E+00 -0.74505805969E-08  0.93827000000E+00  0.93827000000E+00 0.  1.
     999902    2    1    2    0    0  0.23479629440E-02 -0.85511690442E-02  0.21612794690E-01  0.10205687433E+01  0.10203013336E+01 0.  0.
     999903    2    3    3    0    0 -0.81299521197E-01 -0.25124158233E-01  0.10020126260E+00  0.13296088342E+00  0.19936599952E-01 0.  0.
         14    1    1    2    0    0 -0.23479629440E-02  0.85511690442E-02 -0.21612794690E-01  0.23361256737E-01  0.00000000000E+00 0. -1.
     999901    1    3    3    0    0  0.83647484141E-01  0.16572989189E-01 -0.78588467913E-01  0.88760785985E+00  0.88000000000E+00 0.  1.
        -11    1    4    4    0    0 -0.36558090661E-01 -0.74420304593E-02  0.57993205710E-01  0.68959051905E-01  0.51100000000E-03 0. -1.
         11    1    4    4    0    0 -0.44741430536E-01 -0.17682127774E-01  0.42208056893E-01  0.64001831510E-01  0.51100000000E-03 0.  1.
</event>
<event>
 8    1  0.1112929E+005  0.1043930E+01  0.7957747E-01            NaN
         13   -1    0    0    0    0  0.00000000000E+00  0.00000000000E+00  0.74505805969E-08  0.10566000000E+00  0.10566000000E+00 0. -1.
     999900   -1    0    0    0    0 -0.00000000000E+00 -0.00000000000E+00 -0.74505805969E-08  0.93827000000E+00  0.93827000000E+00 0. -1.
     999902    2    1    2    0    0  0.20880255926E-01  0.24865218039E-02  0.83267786997E-02  0.10213135652E+01  0.10210631202E+01 0.  0.
     999903    2    3    3    0    0  0.10095261737E-01 -0.39731566446E-01  0.12444279294E+00  0.13261698493E+00  0.20512052467E-01 0.  0.
         14    1    1    2    0    0 -0.20880255926E-01 -0.24865218039E-02 -0.83267786997E-02  0.22616434770E-01  0.00000000000E+00 0.  1.
     999901    1    3    3    0    0  0.10784994189E-01  0.42218088249E-01 -0.11611601424E+00  0.88869658030E+00  0.88000000000E+00 0. -1.
        -11    1    4    4    0    0  0.72077683123E-03 -0.35536211561E-01  0.95403821133E-01  0.10181106059E+00  0.51100000000E-03 0.  1.
         11    1    4    4    0    0  0.93744849058E-02 -0.41953548844E-02  0.29038971803E-01  0.30805924337E-01  0.51100000000E-03 0. -1.
</event>
<event>
 8    1  0.1112929E+005  0.1043930E+01  0.7957747E-01            NaN
         13   -1    0    0    0    0  0.00000000000E+00  0.00000000000E+00  0.74505805969E-08  0.10566000000E+00  0.10566000000E+00 0.  1.
     999900   -1    0    0    0    0 -0.00000000000E+00 -0.00000000000E+00 -0.74505805969E-08  0.93827000000E+00  0.93827000000E+00 0. -1.
     999902    2    1    2    0    0 -0.13263488604E-01  0.56309608059E-02 -0.17965002988E-01  0.10209002544E+01  0.10206404657E+01 0.  0.
     999903    2    3    3    0    0  0.80961446362E-01 -0.15793279958E-01 -0.10090377280E+00  0.13173425416E+00  0.19187466363E-01 0.  0.
         14    1    1    2    0    0  0.13263488604E-01 -0.56309608059E-02  0.17965002988E-01  0.23029745590E-01  0.00000000000E+00 0.  1.
     999901    1    3    3    0    0 -0.94224934966E-01  0.21424240764E-01  0.82938769811E-01  0.88916600025E+00  0.88000000000E+00 0.  1.
        -11    1    4    4    0    0  0.43166149647E-01 -0.14535188991E-01 -0.66518949072E-01  0.80620220175E-01  0.51100000000E-03 0. -1.
         11    1    4    4    0    0  0.37795296714E-01 -0.12580909673E-02 -0.34384823727E-01  0.51114033986E-01  0.51100000000E-03 0.  1.
</event>
<event>
 8    1  0.1112929E+005  0.1043930E+01  0.7957747E-01            NaN
         13   -1    0    0    0    0  0.00000000000E+00  0.00000000000E+00  0.74505805969E-08  0.10566000000E+00  0.10566000000E+00 0.  1.
     999900   -1    0    0    0    0 -0.00000000000E+00 -0.00000000000E+00 -0.74505805969E-08  0.93827000000E+00  0.93827000000E+00 0.  1.
     999902    2    1    2    0    0  0.81966549117E-02 -0.20091851550E-01  0.96448044891E-02  0.10201836339E+01  0.10199072296E+01 0.  0.
     999903    2    3    3    0    0 -0.11423547137E+00  0.12128583311E-02  0.58062403130E-01  0.13013432060E+00  0.22638127018E-01 0.  0.
         14    1    1    2    0    0 -0.81966549117E-02  0.20091851550E-01 -0.96448044891E-02  0.23746366123E-01  0.00000000000E+00 0.  1.
     999901    1    3    3    0    0  0.12243212629E+00 -0.21304709881E-01 -0.48417598641E-01  0.89004931328E+00  0.88000000000E+00 0.  1.
        -11    1    4    4    0    0 -0.24735720082E-01 -0.41756980391E-02  0.39283599550E-02  0.25396563449E-01  0.51100000000E-03 0.  1.
         11    1    4    4    0    0 -0.89499751292E-01  0.53885563702E-02  0.54134043175E-01  0.10473775715E+00  0.51100000000E-03 0. -1.
</event>
<event>
 8    1  0.1112929E+005  0.1043930E+01  0.7957747E-01            NaN
         13   -1    0    0    0    0  0.00000000000E+00  0.00000000000E+00  0.74505805969E-08  0.10566000000E+00  0.10566000000E+00 0.  1.
     999900   -1    0    0    0    0 -0.00000000000E+00 -0.00000000000E+00 -0.74505805969E-08  0.93827000000E+00  0.93827000000E+00 0.  1.
     999902    2    1    2    0    0  0.12858107272E-02  0.13677423229E-01 -0.19541692934E-01  0.10200427026E+01  0.10197629686E+01 0.  0.
     999903    2    3    3    0    0 -0.19200080647E-02 -0.62194108435E-01 -0.11433266749E+00  0.13170037248E+00  0.20030868686E-01 0.  0.
         14    1    1    2    0    0 -0.12858107272E-02 -0.13677423229E-01  0.19541692934E-01  0.23887297422E-01  0.00000000000E+00 0.  1.
     999901    1    3    3    0    0  0.32058187920E-02  0.75871531664E-01  0.94790974556E-01  0.88834233010E+00  0.88000000000E+00 0. -1.
        -11    1    4    4    0    0 -0.59416120423E-02 -0.47981914442E-01 -0.10017950256E+00  0.11123740702E+00  0.51100000000E-03 0.  1.
         11    1    4    4    0    0  0.40216039775E-02 -0.14212193993E-01 -0.14153164932E-01  0.20462965456E-01  0.51100000000E-03 0. -1.
</event>
<event>
 8    1  0.1112929E+005  0.1043930E+01  0.7957747E-01            NaN
         13   -1    0    0    0    0  0.00000000000E+00  0.00000000000E+00  0.74505805969E-08  0.10566000000E+00  0.10566000000E+00 0. -1.
     999900   -1    0    0    0    0 -0.00000000000E+00 -0.00000000000E+00 -0.74505805969E-08  0.93827000000E+00  0.93827000000E+00 0. -1.
     999902    2    1    2    0    0  0.37238316384E-03  0.22917115044E-01 -0.36321698628E-02  0.10207238480E+01  0.10204600181E+01 0.  0.
     999903    2    3    3    0    0 -0.11030410906E+00 -0.55726114445E-01 -0.32679380638E-01  0.12983789353E+00  0.22749513659E-01 0.  0.
         14    1    1    2    0    0 -0.37238316384E-03 -0.22917115044E-01  0.36321698628E-02  0.23206151967E-01  0.00000000000E+00 0. -1.
     999901    1    3    3    0    0  0.11067649222E+00  0.78643229490E-01  0.29047210776E-01  0.89088595450E+00  0.88000000000E+00 0. -1.
        -11    1    4    4    0    0 -0.70980211653E-01 -0.46838435954E-01 -0.26304303533E-01  0.89018015223E-01  0.51100000000E-03 0. -1.
         11    1    4    4    0    0 -0.39323897404E-01 -0.88876784912E-02 -0.63750771058E-02  0.40819878308E-01  0.51100000000E-03 0.  1.
</event>
<event>
 8    1  0.1112929E+005  0.1043930E+01  0.7957747E-01            NaN
         13   -1    0    0    0    0  0.00000000000E+00  0.00000000000E+00  0.74505805969E-08  0.10566000000E+00  0.10566000000E+00 0.  1.
     999900   -1    0    0    0    0 -0.00000000000E+00 -0.00000000000E+00 -0.74505805969E-08  0.93827000000E+00  0.93827000000E+00 0.  1.
     999902    2    1    2    0    0 -0.21380064818E-01 -0.97192351574E-02  0.26795900735E-02  0.10202920875E+01  0.10200182317E+01 0.  0.
     999903    2    3    3    0    0  0.46839220930E-01  0.71248858943E-01 -0.93290371380E-01  0.12876534271E+00  0.24639552997E-01 0.  0.
         14    1    1    2    0    0  0.21380064818E-01  0.97192351574E-02 -0.26795900735E-02  0.23637912484E-01  0.00000000000E+00 0.  1.
     999901    1    3    3    0    0 -0.68219285747E-01 -0.80968094100E-01  0.95969961454E-01  0.89152674481E+00  0.88000000000E+00 0. -1.
        -11    1    4    4    0    0  0.34190082017E-01  0.39515825773E-01 -0.41544781089E-01  0.66758461273E-01  0.51100000000E-03 0.  1.
         11    1    4    4    0    0  0.12649138913E-01  0.31733033170E-01 -0.51745590291E-01  0.62006881432E-01  0.51100000000E-03 0. -1.
</event>
<event>
 8    1  0.1112929E+005  0.1043930E+01  0.7957747E-01            NaN
         13   -1    0    0    0    0  0.00000000000E+00  0.00000000000E+00  0.74505805969E-08  0.10566000000E+00  0.10566000000E+00 0.  1.
     999900   -1    0    0    0    0 -0.00000000000E+00 -0.00000000000E+00 -0.74505805969E-08  0.93827000000E+00  0.93827000000E+00 0.  1.
     999902    2    1    2    0    0 -0.13199634873E-01  0.73142234677E-02 -0.18057578119E-01  0.10203969519E+01  0.10201255487E+01 0.  0.
     999903    2    3    3    0    0 -0.45745063410E-01 -0.12007256813E+00  0.53327351169E-02  0.13032183914E+00  0.21102399119E-01 0.  0.
         14    1    1    2    0    0  0.13199634873E-01 -0.73142234677E-02  0.18057578119E-01  0.23533048108E-01  0.00000000000E+00 0.  1.
     999901    1    3    3    0    0  0.32545428537E-01  0.12738679160E+00 -0.23390313236E-01  0.89007511275E+00  0.88000000000E+00 0.  1.
        -11    1    4    4    0    0 -0.19593876521E-01 -0.37437166689E-01 -0.67973719126E-02  0.42801014389E-01  0.51100000000E-03 0.  1.
         11    1    4    4    0    0 -0.26151186888E-01 -0.82635401441E-01  0.12130107029E-01  0.87520824748E-01  0.51100000000E-03 0. -1.
</event>
<event>
 8    1  0.1112929E+005  0.1043930E+01  0.7957747E-01            NaN
         13   -1    0    0    0    0  0.00000000000E+00  0.00000000000E+00  0.74505805969E-08  0.10566000000E+00  0.10566000000E+00 0. -1.
     999900   -1    0    0    0    0 -0.00000000000E+00 -0.00000000000E+00 -0.74505805969E-08  0.93827000000E+00  0.93827000000E+00 0. -1.
     999902    2    1    2    0    0 -0.10910092956E-01  0.77097318201E-02  0.20232210611E-01  0.10196851564E+01  0.10193968834E+01 0.  0.
     999903    2    3    3    0    0  0.78736334719E-01 -0.93914015541E-01  0.31947792343E-01  0.12923520115E+00  0.25725921952E-01 0.  0.
         14    1    1    2    0    0  0.10910092956E-01 -0.77097318201E-02 -0.20232210611E-01  0.24244843560E-01  0.00000000000E+00 0.  1.
     999901    1    3    3    0    0 -0.89646427675E-01  0.10162374736E+00 -0.11715581733E-01  0.89044995529E+00  0.88000000000E+00 0. -1.
        -11    1    4    4    0    0  0.45540936940E-01 -0.35366376731E-01  0.10631411471E-01  0.58634849461E-01  0.51100000000E-03 0. -1.
         11    1    4    4    0    0  0.33195397779E-01 -0.58547638810E-01  0.21316380872E-01  0.70600351688E-01  0.51100000000E-03 0.  1.
</event>
<event>
 8    1  0.1112929E+005  0.1043930E+01  0.7957747E-01            NaN
         13   -1    0    0    0    0  0.00000000000E+00  0.00000000000E+00  0.74505805969E-08  0.10566000000E+00  0.10566000000E+00 0.  1.
     999900   -1    0    0    0    0 -0.00000000000E+00 -0.00000000000E+00 -0.74505805969E-08  0.93827000000E+00  0.93827000000E+00 0. -1.
     999902    2    1    2    0    0  0.16688857604E-01  0.11682850775E-01 -0.96486356569E-02  0.10213888567E+01  0.10211400949E+01 0.  0.
     999903    2    3    3    0    0 -0.10530357793E+00  0.45849199567E-02 -0.74079703737E-01  0.13061172551E+00  0.21488492743E-01 0.  0.
         14    1    1    2    0    0 -0.16688857604E-01 -0.11682850775E-01  0.96486356569E-02  0.22541143281E-01  0.00000000000E+00 0.  1.
     999901    1    3    3    0    0  0.12199243553E+00  0.70979308188E-02  0.64431068080E-01  0.89077713121E+00  0.88000000000E+00 0.  1.
        -11    1    4    4    0    0 -0.54810227270E-01 -0.54898423005E-02 -0.29416485370E-01  0.62449100189E-01  0.51100000000E-03 0.  1.
         11    1    4    4    0    0 -0.50493350656E-01  0.10074762257E-01 -0.44663218367E-01  0.68162625323E-01  0.51100000000E-03 0. -1.
</event>
<event>
 8    1  0.1112929E+005  0.1043930E+01  0.7957747E-01            NaN
         13   -1    0    0    0    0  0.00000000000E+00  0.00000000000E+00  0.74505805969E-08  0.10566000000E+00  0.10566000000E+00 0.  1.
     999900   -1    0    0    0    0 -0.00000000000E+00 -0.00000000000E+00 -0.74505805969E-08  0.93827000000E+00  0.93827000000E+00 0.  1.
     999902    2    1    2    0    0  0.79185762450E-02 -0.15181222689E-01 -0.15804893414E-01  0.10206283256E+01  0.10203622940E+01 0.  0.
     999903    2    3    3    0    0 -0.96648701117E-01 -0.22163671226E-01 -0.84248868275E-01  0.13177082988E+00  0.20820183743E-01 0.  0.
         14    1    1    2    0    0 -0.79185762450E-02  0.15181222689E-01  0.15804893414E-01  0.23301674358E-01  0.00000000000E+00 0.  1.
     999901    1    3    3    0    0  0.10456727736E+00  0.69824485366E-02  0.68443974861E-01  0.88885749576E+00  0.88000000000E+00 0. -1.
        -11    1    4    4    0    0 -0.25687781204E-01 -0.14058214250E-01 -0.18156473761E-01  0.34458876236E-01  0.51100000000E-03 0. -1.
         11    1    4    4    0    0 -0.70960919913E-01 -0.81054569761E-02 -0.66092394514E-01  0.97311953640E-01  0.51100000000E-03 0.  1.
</event>
<event>
 8    1  0.1112929E+005  0.1043930E+01  0.7957747E-01            NaN
         13   -1    0    0    0    0  0.00000000000E+00  0.00000000000E+00  0.74505805969E-08  0.10566000000E+00  0.10566000000E+00 0.  1.
     999900   -1    0    0    0    0 -0.00000000000E+00 -0.00000000000E+00 -0.74505805969E-08  0.93827000000E+00  0.93827000000E+00 0.  1.
     999902    2    1    2    0    0 -0.17551291822E-01  0.16607487389E-01  0.21319431022E-02  0.10196730079E+01  0.10193844424E+01 0.  0.
     999903    2    3    3    0    0  0.69418907789E-01  0.10191580951E+00  0.38081206496E-01  0.13055340127E+00  0.19702672631E-01 0.  0.
         14    1    1    2    0    0  0.17551291822E-01 -0.16607487389E-01 -0.21319431022E-02  0.24256992051E-01  0.00000000000E+00 0. -1.
     999901    1    3    3    0    0 -0.86970199611E-01 -0.85308322118E-01 -0.35949263394E-01  0.88911960668E+00  0.88000000000E+00 0.  1.
        -11    1    4    4    0    0  0.38711860366E-01  0.52807288293E-01  0.30168534457E-01  0.72094517282E-01  0.51100000000E-03 0. -1.
         11    1    4    4    0    0  0.30707047424E-01  0.49108521213E-01  0.79126720386E-02  0.58458883987E-01  0.51100000000E-03 0.  1.
</event>
<event>
 8    1  0.1112929E+005  0.1043930E+01  0.7957747E-01            NaN
         13   -1    0    0    0    0  0.00000000000E+00  0.00000000000E+00  0.74505805969E-08  0.10566000000E+00  0.10566000000E+00 0. -1.
     999900   -1    0    0    0    0 -0.00000000000E+00 -0.00000000000E+00 -0.74505805969E-08  0.93827000000E+00  0.93827000000E+00 0. -1.
     999902    2    1    2    0    0  0.69874960935E-02 -0.22461180344E-01  0.75361071000E-02  0.10192293394E+01  0.10189299896E+01 0.  0.
     999903    2    3    3    0    0  0.90361523404E-01  0.87575062083E-01 -0.13758395417E-01  0.12821157363E+00  0.20354796894E-01 0.  0.
         14    1    1    2    0    0 -0.69874960935E-02  0.22461180344E-01 -0.75361071000E-02  0.24700660605E-01  0.00000000000E+00 0. -1.
     999901    1    3    3    0    0 -0.83374027310E-01 -0.11003624243E+00  0.21294502517E-01  0.89101776577E+00  0.88000000000E+00 0. -1.
        -11    1    4    4    0    0  0.32004020902E-01  0.18781615287E-01 -0.68110552948E-02  0.37731393055E-01  0.51100000000E-03 0.  1.
         11    1    4    4    0    0  0.58357502502E-01  0.68793446797E-01 -0.69473401222E-02  0.90480180571E-01  0.51100000000E-03 0. -1.
</event>
<event>
 8    1  0.1112929E+005  0.1043930E+01  0.7957747E-01            NaN
         13   -1    0    0    0    0  0.00000000000E+00  0.00000000000E+00  0.74505805969E-08  0.10566000000E+00  0.10566000000E+00 0.  1.
     999900   -1    0    0    0    0 -0.00000000000E+00 -0.00000000000E+00 -0.74505805969E-08  0.93827000000E+00  0.93827000000E+00 0.  1.
     999902    2    1    2    0    0 -0.15518762027E-01 -0.97159705575E-02  0.11138482218E-01  0.10224987647E+01  0.10222741443E+01 0.  0.
     999903    2    3    3    0    0 -0.11128798611E+00 -0.38463668016E-01  0.63375263682E-01  0.13529706516E+00  0.20601023894E-01 0.  0.
         14    1    1    2    0    0  0.15518762027E-01  0.97159705575E-02 -0.11138482218E-01  0.21431235261E-01  0.00000000000E+00 0. -1.
     999901    1    3    3    0    0  0.95769224084E-01  0.28747697458E-01 -0.52236781464E-01  0.88720169957E+00  0.88000000000E+00 0.  1.
        -11    1    4    4    0    0 -0.51520758273E-01 -0.28675920617E-01  0.31870310703E-01  0.67027418133E-01  0.51100000000E-03 0. -1.
         11    1    4    4    0    0 -0.59767227838E-01 -0.97877473983E-02  0.31504952979E-01  0.68269647031E-01  0.51100000000E-03 0.  1.
</event>
<event>
 8    1  0.1112929E+005  0.1043930E+01  0.7957747E-01            NaN
         13   -1    0    0    0    0  0.00000000000E+00  0.00000000000E+00  0.74505805969E-08  0.10566000000E+00  0.10566000000E+00 0. -1.
     999900   -1    0    0    0    0 -0.00000000000E+00 -0.00000000000E+00 -0.74505805969E-08  0.93827000000E+00  0.93827000000E+00 0.  1.
     999902    2    1    2    0    0 -0.77143205010E-02  0.19979513678E-02 -0.22432566179E-01  0.10201240643E+01  0.10198462550E+01 0.  0.
     999903    2    3    3    0    0 -0.60880476957E-01 -0.30903978989E-01 -0.11284020053E+00  0.13328545575E+00  0.19251323795E-01 0.  0.
         14    1    1    2    0    0  0.77143205010E-02 -0.19979513678E-02  0.22432566179E-01  0.23805935727E-01  0.00000000000E+00 0. -1.
     999901    1    3    3    0    0  0.53166156456E-01  0.32901930357E-01  0.90407634350E-01  0.88683860852E+00  0.88000000000E+00 0. -1.
        -11    1    4    4    0    0 -0.21224872455E-01 -0.15036677843E-02 -0.39653861138E-01  0.45004955857E-01  0.51100000000E-03 0.  1.
         11    1    4    4    0    0 -0.39655604502E-01 -0.29400311205E-01 -0.73186339391E-01  0.88280499896E-01  0.51100000000E-03 0. -1.
</event>
<event>
 8    1  0.1112929E+005  0.1043930E+01  0.7957747E-01            NaN
         13   -1    0    0    0    0  0.00000000000E+00  0.00000000000E+00  0.74505805969E-08  0.10566000000E+00  0.10566000000E+00 0.  1.
     999900   -1    0    0    0    0 -0.00000000000E+00 -0.00000000000E+00 -0.74505805969E-08  0.93827000000E+00  0.93827000000E+00 0. -1.
     999902    2    1    2    0    0 -0.20062456614E-01 -0.87779778097E-02  0.89163274587E-02  0.10202856359E+01  0.10200116288E+01 0.  0.
     999903    2    3    3    0    0  0.10784770850E+00 -0.40557836638E-01 -0.52750651359E-01  0.12833620566E+00  0.20285071464E-01 0.  0.
         14    1    1    2    0    0  0.20062456614E-01  0.87779778097E-02 -0.89163274587E-02  0.23644364131E-01  0.00000000000E+00 0. -1.
     999901    1    3    3    0    0 -0.12791016511E+00  0.31779858828E-01  0.61666978817E-01  0.89194943020E+00  0.88000000000E+00 0.  1.
        -11    1    4    4    0    0  0.32813851191E-01 -0.19424313040E-01 -0.99837967231E-02  0.39420680931E-01  0.51100000000E-03 0. -1.
         11    1    4    4    0    0  0.75033857308E-01 -0.21133523598E-01 -0.42766854636E-01  0.88915524733E-01  0.51100000000E-03 0.  1.
</event>
<event>
 8    1  0.1112929E+005  0.1043930E+01  0.7957747E-01            NaN
         13   -1    0    0    0    0  0.00000000000E+00  0.00000000000E+00  0.74505805969E-08  0.10566000000E+00  0.10566000000E+00 0.  1.
     999900   -1    0    0    0    0 -0.00000000000E+00 -0.00000000000E+00 -0.74505805969E-08  0.93827000000E+00  0.93827000000E+00 0. -1.
     999902    2    1    2    0    0 -0.36092852400E-02  0.13969385453E-01  0.67219706698E-02  0.10280128533E+01  0.10278896200E+01 0.  0.
     999903    2    3    3    0    0  0.76443125664E-01 -0.10729339814E+00 -0.25200350413E-01  0.13552639078E+00  0.19414432546E-01 0.  0.
         14    1    1    2    0    0  0.36092852400E-02 -0.13969385453E-01 -0.67219706698E-02  0.15917146716E-01  0.00000000000E+00 0. -1.
     999901    1    3    3    0    0 -0.80052410904E-01  0.12126278359E+00  0.31922321083E-01  0.89248646251E+00  0.88000000000E+00 0.  1.
        -11    1    4    4    0    0  0.23143369648E-01 -0.18979584387E-01 -0.37726349502E-02  0.30171743033E-01  0.51100000000E-03 0. -1.
         11    1    4    4    0    0  0.53299756017E-01 -0.88313813749E-01 -0.21427715463E-01  0.10535464774E+00  0.51100000000E-03 0.  1.
</event>
<event>
 8    1  0.1112929E+005  0.1043930E+01  0.7957747E-01            NaN
         13   -1    0    0    0    0  0.00000000000E+00  0.00000000000E+00  0.74505805969E-08  0.10566000000E+00  0.10566000000E+00 0.  1.
     999900   -1    0    0    0    0 -0.00000000000E+00 -0.00000000000E+00 -0.74505805969E-08  0.93827000000E+00  0.93827000000E+00 0. -1.
     999902    2    1    2    0    0  0.20857590006E-01 -0.94337260924E-02  0.29004706277E-02  0.10208551874E+01  0.10205943693E+01 0.  0.
     999903    2    3    3    0    0 -0.71732981410E-01 -0.97189997727E-01 -0.44602129409E-01  0.13038863878E+00  0.20501972920E-01 0.  0.
         14    1    1    2    0    0 -0.20857590006E-01  0.94337260924E-02 -0.29004706277E-02  0.23074812647E-01  0.00000000000E+00 0. -1.
     999901    1    3    3    0    0  0.92590571416E-01  0.87756271634E-01  0.47502600037E-01  0.89046654858E+00  0.88000000000E+00 0.  1.
        -11    1    4    4    0    0 -0.44777915018E-01 -0.75842538511E-01 -0.30258859972E-01  0.93129007559E-01  0.51100000000E-03 0.  1.
         11    1    4    4    0    0 -0.26955066393E-01 -0.21347459215E-01 -0.14343269437E-01  0.37259631216E-01  0.51100000000E-03 0. -1.
</event>
<event>
 8    1  0.1112929E+005  0.1043930E+01  0.7957747E-01            NaN
         13   -1    0    0    0    0  0.00000000000E+00  0.00000000000E+00  0.74505805969E-08  0.10566000000E+00  0.10566000000E+00 0.  1.
     999900   -1    0    0    0    0 -0.00000000000E+00 -0.00000000000E+00 -0.74505805969E-08  0.93827000000E+00  0.93827000000E+00 0. -1.
     999902    2    1    2    0    0  0.19386020087E-02 -0.17025827872E-01 -0.59676838685E-02  0.10257847460E+01  0.10256242464E+01 0.  0.
     999903    2    3    3    0    0  0.56653995600E-01 -0.12186658285E+00 -0.23983716401E-01  0.13769131868E+00  0.17959436346E-01 0.  0.
         14    1    1    2    0    0 -0.19386020087E-02  0.17025827872E-01  0.59676838685E-02  0.18145254014E-01  0.00000000000E+00 0.  1.
     999901    1    3    3    0    0 -0.54715393591E-01  0.10484075498E+00  0.18016032533E-01  0.88809342731E+00  0.88000000000E+00 0. -1.
        -11    1    4    4    0    0  0.42610708365E-01 -0.70956489540E-01 -0.14180685974E-01  0.83975287144E-01  0.51100000000E-03 0.  1.
         11    1    4    4    0    0  0.14043287235E-01 -0.50910093310E-01 -0.98030304277E-02  0.53716031534E-01  0.51100000000E-03 0. -1.
</event>
<event>
 8    1  0.1112929E+005  0.1043930E+01  0.7957747E-01            NaN
         13   -1    0    0    0    0  0.00000000000E+00  0.00000000000E+00  0.74505805969E-08  0.10566000000E+00  0.10566000000E+00 0. -1.
     999900   -1    0    0    0    0 -0.00000000000E+00 -0.00000000000E+00 -0.74505805969E-08  0.93827000000E+00  0.93827000000E+00 0. -1.
     999902    2    1    2    0    0  0.10290435940E-01  0.95663213539E-02 -0.19960694517E-01  0.10195202294E+01  0.10192279731E+01 0.  0.
     999903    2    3    3    0    0 -0.89424424675E-01  0.62019984980E-01 -0.70421952175E-01  0.13090288835E+00  0.18251262012E-01 0.  0.
         14    1    1    2    0    0 -0.10290435940E-01 -0.95663213539E-02  0.19960694517E-01  0.24409770619E-01  0.00000000000E+00 0.  1.
     999901    1    3    3    0    0  0.99714860615E-01 -0.52453663626E-01  0.50461257658E-01  0.88861734103E+00  0.88000000000E+00 0.  1.
        -11    1    4    4    0    0 -0.78337265849E-01  0.49984333948E-01 -0.65886586880E-01  0.11391428494E+00  0.51100000000E-03 0. -1.
         11    1    4    4    0    0 -0.11087158826E-01  0.12035651032E-01 -0.45353652945E-02  0.16988603414E-01  0.51100000000E-03 0.  1.
</event>
<event>
 8    1  0.1112929E+005  0.1043930E+01  0.7957747E-01            NaN
         13   -1    0    0    0    0  0.00000000000E+00  0.00000000000E+00  0.74505805969E-08  0.10566000000E+00  0.10566000000E+00 0.  1.
     999900   -1    0    0    0    0 -0.00000000000E+00 -0.00000000000E+00 -0.74505805969E-08  0.93827000000E+00  0.93827000000E+00 0.  1.
     999902    2    1    2    0    0  0.11710596507E-01 -0.26872445749E-02 -0.20713153642E-01  0.10199843514E+01  0.10197032328E+01 0.  0.
     999903    2    3    3    0    0  0.12586399113E-01  0.11612062944E+00 -0.56448386461E-01  0.13128131615E+00  0.20148092057E-01 0.  0.
         14    1    1    2    0    0 -0.11710596507E-01  0.26872445749E-02  0.20713153642E-01  0.23945648618E-01  0.00000000000E+00 0.  1.
     999901    1    3    3    0    0 -0.87580260557E-03 -0.11880787401E+00  0.35735232820E-01  0.88870303523E+00  0.88000000000E+00 0.  1.
        -11    1    4    4    0    0  0.12708931704E-01  0.32549797645E-01 -0.16010513126E-01  0.38439613985E-01  0.51100000000E-03 0. -1.
         11    1    4    4    0    0 -0.12253259168E-03  0.83570831793E-01 -0.40437873336E-01  0.92841702170E-01  0.51100000000E-03 0.  1.
</event>
<event>
 8    1  0.1112929E+005  0.1043930E+01  0.7957747E-01            NaN
         13   -1    0    0    0    0  0.00000000000E+00  0.00000000000E+00  0.74505805969E-08  0.10566000000E+00  0.10566000000E+00 0. -1.
     999900   -1    0    0    0    0 -0.00000000000E+00 -0.00000000000E+00 -0.74505805969E-08  0.93827000000E+00  0.93827000000E+00 0.  1.
     999902    2    1    2    0    0 -0.10298742272E-02  0.23642051939E-02  0.23084980833E-01  0.10207014304E+01  0.10204370845E+01 0.  0.
     999903    2    3    3    0    0 -0.47512341081E-01  0.10616617778E+00  0.60428603574E-01  0.13259669814E+00  0.20039669876E-01 0.  0.
         14    1    1    2    0    0  0.10298742272E-02 -0.23642051939E-02 -0.23084980833E-01  0.23228569633E-01  0.00000000000E+00 0.  1.
     999901    1    3    3    0    0  0.46482466854E-01 -0.10380197259E+00 -0.37343622741E-01  0.88810473222E+00  0.88000000000E+00 0. -1.
        -11    1    4    4    0    0 -0.41158432845E-01  0.75153671976E-01  0.37655564190E-01  0.93596440323E-01  0.51100000000E-03 0. -1.
         11    1    4    4    0    0 -0.63539082368E-02  0.31012505807E-01  0.22773039384E-01  0.39000257821E-01  0.51100000000E-03 0.  1.
</event>
<event>
 8    1  0.1112929E+005  0.1043930E+01  0.7957747E-01            NaN
         13   -1    0    0    0    0  0.00000000000E+00  0.00000000000E+00  0.74505805969E-08  0.10566000000E+00  0.10566000000E+00 0.  1.
     999900   -1    0    0    0    0 -0.00000000000E+00 -0.00000000000E+00 -0.74505805969E-08  0.93827000000E+00  0.93827000000E+00 0.  1.
     999902    2    1    2    0    0  0.12165251902E-01 -0.19879230474E-01 -0.54396212054E-02  0.10199974565E+01  0.10197166492E+01 0.  0.
     999903    2    3    3    0    0  0.71713807991E-01 -0.46646461967E-01  0.97902338624E-01  0.13154820313E+00  0.20032452836E-01 0.  0.
         14    1    1    2    0    0 -0.12165251902E-01  0.19879230474E-01  0.54396212054E-02  0.23932543470E-01  0.00000000000E+00 0.  1.
     999901    1    3    3    0    0 -0.59548556089E-01  0.26767231493E-01 -0.10334195983E+00  0.88844925340E+00  0.88000000000E+00 0. -1.
        -11    1    4    4    0    0  0.23860401770E-01 -0.10573717205E-01  0.42830110257E-01  0.50157768429E-01  0.51100000000E-03 0. -1.
         11    1    4    4    0    0  0.47853406221E-01 -0.36072744762E-01  0.55072228368E-01  0.81390434696E-01  0.51100000000E-03 0.  1.
</event>
<event>
 8    1  0.1112929E+005  0.1043930E+01  0.7957747E-01            NaN
         13   -1    0    0    0    0  0.00000000000E+00  0.00000000000E+00  0.74505805969E-08  0.10566000000E+00  0.10566000000E+00 0. -1.
     999900   -1    0    0    0    0 -0.00000000000E+00 -0.00000000000E+00 -0.74505805969E-08  0.93827000000E+00  0.93827000000E+00 0. -1.
     999902    2    1    2    0    0 -0.97387644924E-02  0.20684774230E-01 -0.14647246080E-01  0.10167777398E+01  0.10164151351E+01 0.  0.
     999903    2    3    3    0    0  0.33644883544E-01 -0.99628339044E-01  0.62934190282E-01  0.12415449033E+00  0.19895754154E-01 0.  0.
         14    1    1    2    0    0  0.97387644924E-02 -0.20684774230E-01  0.14647246080E-01  0.27152260247E-01  0.00000000000E+00 0.  1.
     999901    1    3    3    0    0 -0.43383648036E-01  0.12031311327E+00 -0.77581436362E-01  0.89262324942E+00  0.88000000000E+00 0. -1.
        -11    1    4    4    0    0  0.25470573475E-01 -0.91247567535E-01  0.51723287677E-01  0.10793714978E+00  0.51100000000E-03 0.  1.
         11    1    4    4    0    0  0.81743100692E-02 -0.83807715082E-02  0.11210902605E-01  0.16217340547E-01  0.51100000000E-03 0. -1.
</event>
<event>
 8    1  0.1112929E+005  0.1043930E+01  0.7957747E-01            NaN
         13   -1    0    0    0    0  0.00000000000E+00  0.00000000000E+00  0.74505805969E-08  0.10566000000E+00  0.10566000000E+00 0.  1.
     999900   -1    0    0    0    0 -0.00000000000E+00 -0.00000000000E+00 -0.74505805969E-08  0.93827000000E+00  0.93827000000E+00 0.  1.
     999902    2    1    2    0    0  0.64118897205E-02  0.10137861332E-01  0.21187196678E-01  0.10195828058E+01  0.10192920641E+01 0.  0.
     999903    2    3    3    0    0  0.47202057664E-01 -0.10169382375E+00 -0.58259386835E-01  0.12802129743E+00  0.20630763508E-01 0.  0.
         14    1    1    2    0    0 -0.64118897205E-02 -0.10137861332E-01 -0.21187196678E-01  0.24347194196E-01  0.00000000000E+00 0. -1.
     999901    1    3    3    0    0 -0.40790167944E-01  0.11183168508E+00  0.79446583513E-01  0.89156150838E+00  0.88000000000E+00 0. -1.
        -11    1    4    4    0    0  0.29749248453E-01 -0.83075490286E-01 -0.48513205896E-01  0.10069929065E+00  0.51100000000E-03 0.  1.
         11    1    4    4    0    0  0.17452809211E-01 -0.18618333467E-01 -0.97461809395E-02  0.27322006777E-01  0.51100000000E-03 0. -1.
</event>
<event>
 8    1  0.1112929E+005  0.1043930E+01  0.7957747E-01            NaN
         13   -1    0    0    0    0  0.00000000000E+00  0.00000000000E+00  0.74505805969E-08  0.10566000000E+00  0.10566000000E+00 0.  1.
     999900   -1    0    0    0    0 -0.00000000000E+00 -0.00000000000E+00 -0.74505805969E-08  0.93827000000E+00  0.93827000000E+00 0. -1.
     999902    2    1    2    0    0  0.83594767883E-02 -0.14713567264E-01 -0.16130008797E-01  0.10205516532E+01  0.10202838477E+01 0.  0.
     999903    2    3    3    0    0 -0.82479796620E-01 -0.83755060152E-01 -0.57010762542E-01  0.13224442183E+00  0.20506903914E-01 0.  0.
         14    1    1    2    0    0 -0.83594767883E-02  0.14713567264E-01  0.16130008797E-01  0.23378346768E-01  0.00000000000E+00 0.  1.
     999901    1    3    3    0    0  0.90839273408E-01  0.69041492887E-01  0.40880753745E-01  0.88830723140E+00  0.88000000000E+00 0.  1.
        -11    1    4    4    0    0 -0.17437085084E-01 -0.14189123374E-01 -0.19913759765E-01  0.30036679366E-01  0.51100000000E-03 0.  1.
         11    1    4    4    0    0 -0.65042711536E-01 -0.69565936777E-01 -0.37097002778E-01  0.10220774246E+00  0.51100000000E-03 0. -1.
</event>
<event>
 8    1  0.1112929E+005  0.1043930E+01  0.7957747E-01            NaN
         13   -1    0    0    0    0  0.00000000000E+00  0.00000000000E+00  0.74505805969E-08  0.10566000000E+00  0.10566000000E+00 0.  1.
     999900   -1    0    0    0    0 -0.00000000000E+00 -0.00000000000E+00 -0.74505805969E-08  0.93827000000E+00  0.93827000000E+00 0. -1.
     999902    2    1    2    0    0 -0.22972384133E-01  0.87319002060E-02  0.47365013248E-02  0.10189017967E+01  0.10185943552E+01 0.  0.
     999903    2    3    3    0    0 -0.40975034555E-01  0.70728186382E-01 -0.99625369527E-01  0.13038672370E+00  0.19850784811E-01 0.  0.
         14    1    1    2    0    0  0.22972384133E-01 -0.87319002060E-02 -0.47365013248E-02  0.25028203267E-01  0.00000000000E+00 0. -1.
     999901    1    3    3    0    0  0.18002650422E-01 -0.61996286176E-01  0.10436187085E+00  0.88851507303E+00  0.88000000000E+00 0.  1.
        -11    1    4    4    0    0 -0.32449054497E-01  0.63512972397E-01 -0.75868966238E-01  0.10413068692E+00  0.51100000000E-03 0.  1.
         11    1    4    4    0    0 -0.85259800586E-02  0.72152139857E-02 -0.23756403289E-01  0.26256036774E-01  0.51100000000E-03 0. -1.
</event>
<event>
 8    1  0.1112929E+005  0.1043930E+01  0.7957747E-01            NaN
         13   -1    0    0    0    0  0.00000000000E+00  0.00000000000E+00  0.74505805969E-08  0.10566000000E+00  0.10566000000E+00 0.  1.
     999900   -1    0    0    0    0 -0.00000000000E+00 -0.00000000000E+00 -0.74505805969E-08  0.93827000000E+00  0.93827000000E+00 0.  1.
     999902    2    1    2    0    0 -0.14440430385E-01 -0.19001816620E-01 -0.99921962652E-02  0.10180564797E+01  0.10177276438E+01 0.  0.
     999903    2    3    3    0    0 -0.17532240057E-02  0.64021478637E-01 -0.10948484414E+00  0.12847645538E+00  0.20431470028E-01 0.  0.
         14    1    1    2    0    0  0.14440430385E-01  0.19001816620E-01  0.99921962652E-02  0.25873520263E-01  0.00000000000E+00 0.  1.
     999901    1    3    3    0    0 -0.12687206380E-01 -0.83023295257E-01  0.99492647879E-01  0.88958002436E+00  0.88000000000E+00 0. -1.
        -11    1    4    4    0    0 -0.36264397607E-02  0.15577861153E-01 -0.45266606537E-01  0.48011952802E-01  0.51100000000E-03 0.  1.
         11    1    4    4    0    0  0.18732157551E-02  0.48443617484E-01 -0.64218237606E-01  0.80464502574E-01  0.51100000000E-03 0. -1.
</event>
<event>
 8    1  0.1112929E+005  0.1043930E+01  0.7957747E-01            NaN
         13   -1    0    0    0    0  0.00000000000E+00  0.00000000000E+00  0.74505805969E-08  0.10566000000E+00  0.10566000000E+00 0.  1.
     999900   -1    0    0    0    0 -0.00000000000E+00 -0.00000000000E+00 -0.74505805969E-08  0.93827000000E+00  0.93827000000E+00 0. -1.
     999902    2    1    2    0    0  0.19225224791E-01 -0.47489763796E-02 -0.10522046402E-01  0.10215051141E+01  0.10212589401E+01 0.  0.
     999903    2    3    3    0    0  0.12104366521E+00 -0.39240584173E-01 -0.38591228610E-01  0.13451889960E+00  0.20363179751E-01 0.  0.
         14    1    1    2    0    0 -0.19225224791E-01  0.47489763796E-02  0.10522046402E-01  0.22424885850E-01  0.00000000000E+00 0.  1.
     999901    1    3    3    0    0 -0.10181844042E+00  0.34491607793E-01  0.28069182208E-01  0.88698621455E+00  0.88000000000E+00 0. -1.
        -11    1    4    4    0    0  0.58829021831E-01 -0.21958078507E-01 -0.29252190658E-01  0.69274546556E-01  0.51100000000E-03 0. -1.
         11    1    4    4    0    0  0.62214643378E-01 -0.17282505665E-01 -0.93390379520E-02  0.65244353040E-01  0.51100000000E-03 0.  1.
</event>
<event>
 8    1  0.1112929E+005  0.1043930E+01  0.7957747E-01            NaN
         13   -1    0    0    0    0  0.00000000000E+00  0.00000000000E+00  0.74505805969E-08  0.10566000000E+00  0.10566000000E+00 0.  1.
     999900   -1    0    0    0    0 -0.00000000000E+00 -0.00000000000E+00 -0.74505805969E-08  0.93827000000E+00  0.93827000000E+00 0.  1.
     999902    2    1    2    0    0 -0.73350049563E-02 -0.14829808317E-01 -0.15452385012E-01  0.10212914993E+01  0.10210405598E+01 0.  0.
     999903    2    3    3    0    0 -0.61194963654E-01  0.11294524010E+00 -0.10925800955E-01  0.13042234608E+00  0.19727250039E-01 0.  0.
         14    1    1    2    0    0  0.73350049563E-02  0.14829808317E-01  0.15452385012E-01  0.22638500723E-01  0.00000000000E+00 0.  1.
     999901    1    3    3    0    0  0.53859958698E-01 -0.12777504841E+00 -0.45265840575E-02  0.89086915319E+00  0.88000000000E+00 0. -1.
        -11    1    4    4    0    0 -0.23672544025E-01  0.58322517138E-01 -0.12304446822E-01  0.64137086608E-01  0.51100000000E-03 0.  1.
         11    1    4    4    0    0 -0.37522419630E-01  0.54622722960E-01  0.13786458675E-02  0.66285259476E-01  0.51100000000E-03 0. -1.
</event>
<event>
 8    1  0.1112929E+005  0.1043930E+01  0.7957747E-01            NaN
         13   -1    0    0    0    0  0.00000000000E+00  0.00000000000E+00  0.74505805969E-08  0.10566000000E+00  0.10566000000E+00 0. -1.
     999900   -1    0    0    0    0 -0.00000000000E+00 -0.00000000000E+00 -0.74505805969E-08  0.93827000000E+00  0.93827000000E+00 0.  1.
     999902    2    1    2    0    0  0.20809358167E-01 -0.53224790073E-02 -0.63673575573E-02  0.10215268437E+01  0.10212811518E+01 0.  0.
     999903    2    3    3    0    0  0.26283661635E-01  0.92617520018E-01  0.86839400388E-01  0.13118437524E+00  0.19985568909E-01 0.  0.
         14    1    1    2    0    0 -0.20809358167E-01  0.53224790073E-02  0.63673575573E-02  0.22403156304E-01  0.00000000000E+00 0. -1.
     999901    1    3    3    0    0 -0.54743034681E-02 -0.97939999025E-01 -0.93206757945E-01  0.89034246845E+00  0.88000000000E+00 0.  1.
        -11    1    4    4    0    0  0.94742643506E-02  0.45750820064E-01  0.54612374679E-01  0.71872608208E-01  0.51100000000E-03 0.  1.
         11    1    4    4    0    0  0.16809397285E-01  0.46866699954E-01  0.32227025709E-01  0.59311767034E-01  0.51100000000E-03 0. -1.
</event>
<event>
 8    1  0.1112929E+005  0.1043930E+01  0.7957747E-01            NaN
         13   -1    0    0    0    0  0.00000000000E+00  0.00000000000E+00  0.74505805969E-08  0.10566000000E+00  0.10566000000E+00 0.  1.
     999900   -1    0    0    0    0 -0.00000000000E+00 -0.00000000000E+00 -0.74505805969E-08  0.93827000000E+00  0.93827000000E+00 0.  1.
     999902    2    1    2    0    0 -0.32994809071E-02  0.13734535773E-01 -0.18921689156E-01  0.10203174108E+01  0.10200441483E+01 0.  0.
     999903    2    3    3    0    0  0.11992586057E+00 -0.26654801759E-01 -0.39214313403E-01  0.13058285829E+00  0.20528760644E-01 0.  0.
         14    1    1    2    0    0  0.32994809071E-02 -0.13734535773E-01  0.18921689156E-01  0.23612589178E-01  0.00000000000E+00 0. -1.
     999901    1    3    3    0    0 -0.12322534148E+00  0.40389337532E-01  0.20292624247E-01  0.88973455253E+00  0.88000000000E+00 0. -1.
        -11    1    4    4    0    0  0.45393212468E-01 -0.16791484301E-01 -0.23364130796E-01  0.53746082760E-01  0.51100000000E-03 0.  1.
         11    1    4    4    0    0  0.74532648101E-01 -0.98633174583E-02 -0.15850182607E-01  0.76836775531E-01  0.51100000000E-03 0. -1.
</event>
<event>
 8    1  0.1112929E+005  0.1043930E+01  0.7957747E-01            NaN
         13   -1    0    0    0    0  0.00000000000E+00  0.00000000000E+00  0.74505805969E-08  0.10566000000E+00  0.10566000000E+00 0.  1.
     999900   -1    0    0    0    0 -0.00000000000E+00 -0.00000000000E+00 -0.74505805969E-08  0.93827000000E+00  0.93827000000E+00 0.  1.
     999902    2    1    2    0    0  0.11177215962E-01 -0.37265646506E-02 -0.20895288697E-01  0.10199418669E+01  0.10196597380E+01 0.  0.
     999903    2    3    3    0    0  0.23534175252E-01  0.71078527442E-01  0.10212661781E+00  0.12815552155E+00  0.19697136047E-01 0.  0.
         14    1    1    2    0    0 -0.11177215962E-01  0.37265646506E-02  0.20895288697E-01  0.23988133118E-01  0.00000000000E+00 0.  1.
     999901    1    3    3    0    0 -0.12356959290E-01 -0.74805092092E-01 -0.12302190651E+00  0.89178634534E+00  0.88000000000E+00 0.  1.
        -11    1    4    4    0    0  0.24133064521E-01  0.55187004372E-01  0.89310549246E-01  0.10772486056E+00  0.51100000000E-03 0.  1.
         11    1    4    4    0    0 -0.59888926861E-03  0.15891523070E-01  0.12816068568E-01  0.20430660987E-01  0.51100000000E-03 0. -1.
</event>
<event>
 8    1  0.1112929E+005  0.1043930E+01  0.7957747E-01            NaN
         13   -1    0    0    0    0  0.00000000000E+00  0.00000000000E+00  0.74505805969E-08  0.10566000000E+00  0.10566000000E+00 0. -1.
     999900   -1    0    0    0    0 -0.00000000000E+00 -0.00000000000E+00 -0.74505805969E-08  0.93827000000E+00  0.93827000000E+00 0. -1.
     999902    2    1    2    0    0 -0.13086494112E-01  0.18573902405E-01 -0.32745966953E-02  0.10209741911E+01  0.10207160867E+01 0.  0.
     999903    2    3    3    0    0 -0.99757306627E-02 -0.12681330227E+00 -0.76991656912E-02  0.12902873708E+00  0.20199232803E-01 0.  0.
         14    1    1    2    0    0  0.13086494112E-01 -0.18573902405E-01  0.32745966953E-02  0.22955808899E-01  0.00000000000E+00 0.  1.
     999901    1    3    3    0    0 -0.31107634498E-02  0.14538720468E+00  0.44245689960E-02  0.89194545402E+00  0.88000000000E+00 0.  1.
        -11    1    4    4    0    0  0.25316339941E-02 -0.73574484994E-01 -0.99650756318E-02  0.74291169503E-01  0.51100000000E-03 0.  1.
         11    1    4    4    0    0 -0.12507364657E-01 -0.53238817277E-01  0.22659099406E-02  0.54737567580E-01  0.51100000000E-03 0. -1.
</event>
<event>
 8    1  0.1112929E+005  0.1043930E+01  0.7957747E-01            NaN
         13   -1    0    0    0    0  0.00000000000E+00  0.00000000000E+00  0.74505805969E-08  0.10566000000E+00  0.10566000000E+00 0. -1.
     999900   -1    0    0    0    0 -0.00000000000E+00 -0.00000000000E+00 -0.74505805969E-08  0.93827000000E+00  0.93827000000E+00 0.  1.
     999902    2    1    2    0    0  0.89727964837E-02  0.14235140871E-01 -0.17115526151E-01  0.10199280928E+01  0.10196456360E+01 0.  0.
     999903    2    3    3    0    0  0.22158212419E-01 -0.95776544363E-01 -0.83514641156E-01  0.13049834937E+00  0.19773494193E-01 0.  0.
         14    1    1    2    0    0 -0.89727964837E-02 -0.14235140871E-01  0.17115526151E-01  0.24001907170E-01  0.00000000000E+00 0. -1.
     999901    1    3    3    0    0 -0.13185415935E-01  0.11001168523E+00  0.66399115004E-01  0.88942974346E+00  0.88000000000E+00 0. -1.
        -11    1    4    4    0    0  0.41540355667E-02 -0.34717245614E-01 -0.41287696577E-01  0.54106174917E-01  0.51100000000E-03 0.  1.
         11    1    4    4    0    0  0.18004176852E-01 -0.61059298750E-01 -0.42226944579E-01  0.76392174451E-01  0.51100000000E-03 0. -1.
</event>
<event>
 8    1  0.1112929E+005  0.1043930E+01  0.7957747E-01            NaN
         13   -1    0    0    0    0  0.00000000000E+00  0.00000000000E+00  0.74505805969E-08  0.10566000000E+00  0.10566000000E+00 0. -1.
     999900   -1    0    0    0    0 -0.00000000000E+00 -0.00000000000E+00 -0.74505805969E-08  0.93827000000E+00  0.93827000000E+00 0. -1.
     999902    2    1    2    0    0 -0.21795081904E-02 -0.39816345627E-04  0.23595154067E-01  0.10202343646E+01  0.10199591539E+01 0.  0.
     999903    2    3    3    0    0  0.40269221806E-01 -0.24305724667E-01 -0.11714515594E+00  0.12771065969E+00  0.19355788829E-01 0.  0.
         14    1    1    2    0    0  0.21795081904E-02  0.39816345627E-04 -0.23595154067E-01  0.23695635394E-01  0.00000000000E+00 0.  1.
     999901    1    3    3    0    0 -0.42448729996E-01  0.24265908322E-01  0.14074031000E+00  0.89252370492E+00  0.88000000000E+00 0.  1.
        -11    1    4    4    0    0  0.36466580378E-01 -0.27555799226E-01 -0.10798673269E+00  0.11726265012E+00  0.51100000000E-03 0.  1.
         11    1    4    4    0    0  0.38026414284E-02  0.32500745586E-02 -0.91584232453E-02  0.10448009562E-01  0.51100000000E-03 0. -1.
</event>
<event>
 8    1  0.1112929E+005  0.1043930E+01  0.7957747E-01            NaN
         13   -1    0    0    0    0  0.00000000000E+00  0.00000000000E+00  0.74505805969E-08  0.10566000000E+00  0.10566000000E+00 0.  1.
     999900   -1    0    0    0    0 -0.00000000000E+00 -0.00000000000E+00 -0.74505805969E-08  0.93827000000E+00  0.93827000000E+00 0. -1.
     999902    2    1    2    0    0  0.58738055397E-02  0.22778754403E-01 -0.11216767932E-02  0.10203793864E+01  0.10201075731E+01 0.  0.
     999903    2    3    3    0    0  0.12296310348E+00  0.21579158067E-01  0.38305454440E-01  0.13174794342E+00  0.17453592050E-01 0.  0.
         14    1    1    2    0    0 -0.58738055397E-02 -0.22778754403E-01  0.11216767932E-02  0.23550613633E-01  0.00000000000E+00 0. -1.
     999901    1    3    3    0    0 -0.11708929794E+00  0.11995963360E-02 -0.39427131233E-01  0.88863144295E+00  0.88000000000E+00 0.  1.
        -11    1    4    4    0    0  0.98495956103E-01  0.21307834948E-01  0.24748893645E-01  0.10377015976E+00  0.51100000000E-03 0. -1.
         11    1    4    4    0    0  0.24467147372E-01  0.27132311900E-03  0.13556560795E-01  0.27977783657E-01  0.51100000000E-03 0.  1.
</event>
<event>
 8    1  0.1112929E+005  0.1043930E+01  0.7957747E-01            NaN
         13   -1    0    0    0    0  0.00000000000E+00  0.00000000000E+00  0.74505805969E-08  0.10566000000E+00  0.10566000000E+00 0. -1.
     999900   -1    0    0    0    0 -0.00000000000E+00 -0.00000000000E+00 -0.74505805969E-08  0.93827000000E+00  0.93827000000E+00 0. -1.
     999902    2    1    2    0    0  0.57706706640E-02 -0.48674730894E-02  0.22360969075E-01  0.10203290282E+01  0.10200560376E+01 0.  0.
     999903    2    3    3    0    0 -0.11190487709E-01 -0.81035435099E-01  0.10315771853E+00  0.13318904255E+00  0.20145406585E-01 0.  0.
         14    1    1    2    0    0 -0.57706706640E-02  0.48674730894E-02 -0.22360969075E-01  0.23600971848E-01  0.00000000000E+00 0.  1.
     999901    1    3    3    0    0  0.16961158373E-01  0.76167962009E-01 -0.80796749454E-01  0.88713998560E+00  0.88000000000E+00 0. -1.
        -11    1    4    4    0    0 -0.14396481398E-01 -0.33514222843E-01  0.48530646796E-01  0.60711997239E-01  0.51100000000E-03 0. -1.
         11    1    4    4    0    0  0.32059936881E-02 -0.47521212256E-01  0.54627071734E-01  0.72477045311E-01  0.51100000000E-03 0.  1.
</event>
<event>
 8    1  0.1112929E+005  0.1043930E+01  0.7957747E-01            NaN
         13   -1    0    0    0    0  0.00000000000E+00  0.00000000000E+00  0.74505805969E-08  0.10566000000E+00  0.10566000000E+00 0. -1.
     999900   -1    0    0    0    0 -0.00000000000E+00 -0.00000000000E+00 -0.74505805969E-08  0.93827000000E+00  0.93827000000E+00 0. -1.
     999902    2    1    2    0    0 -0.22340546911E-01 -0.69783764121E-02  0.42224593826E-02  0.10201470873E+01  0.10198698215E+01 0.  0.
     999903    2    3    3    0    0  0.73543009240E-01 -0.10414911581E+00  0.91223411592E-02  0.12960802707E+00  0.21433876040E-01 0.  0.
         14    1    1    2    0    0  0.22340546911E-01  0.69783764121E-02 -0.42224593826E-02  0.23782912708E-01  0.00000000000E+00 0.  1.
     999901    1    3    3    0    0 -0.95883556151E-01  0.97170739394E-01 -0.48998817766E-02  0.89053906022E+00  0.88000000000E+00 0.  1.
        -11    1    4    4    0    0  0.48731616908E-01 -0.67588193737E-01  0.16116332817E-01  0.84870087331E-01  0.51100000000E-03 0. -1.
         11    1    4    4    0    0  0.24811392332E-01 -0.36560922070E-01 -0.69939916578E-02  0.44737939742E-01  0.51100000000E-03 0.  1.
</event>
<event>
 8    1  0.1112929E+005  0.1043930E+01  0.7957747E-01            NaN
         13   -1    0    0    0    0  0.00000000000E+00  0.00000000000E+00  0.74505805969E-08  0.10566000000E+00  0.10566000000E+00 0.  1.
     999900   -1    0    0    0    0 -0.00000000000E+00 -0.00000000000E+00 -0.74505805969E-08  0.93827000000E+00  0.93827000000E+00 0.  1.
     999902    2    1    2    0    0  0.14939096463E-01 -0.16725661959E-01 -0.62049872506E-02  0.10206614324E+01  0.10203961649E+01 0.  0.
     999903    2    3    3    0    0  0.11943618653E-01 -0.12170492997E+00  0.47835553870E-01  0.13277067354E+00  0.19623239579E-01 0.  0.
         14    1    1    2    0    0 -0.14939096463E-01  0.16725661959E-01  0.62049872506E-02  0.23268567594E-01  0.00000000000E+00 0. -1.
     999901    1    3    3    0    0  0.29954778102E-02  0.10497926801E+00 -0.54040541121E-01  0.88789075887E+00  0.88000000000E+00 0. -1.
        -11    1    4    4    0    0 -0.24966156392E-02 -0.29272579747E-01  0.18509079698E-01  0.34726994787E-01  0.51100000000E-03 0.  1.
         11    1    4    4    0    0  0.14440234292E-01 -0.92432350225E-01  0.29326474172E-01  0.98043678750E-01  0.51100000000E-03 0. -1.
</event>
<event>
 8    1  0.1112929E+005  0.1043930E+01  0.7957747E-01            NaN
         13   -1    0    0    0    0  0.00000000000E+00  0.00000000000E+00  0.74505805969E-08  0.10566000000E+00  0.10566000000E+00 0.  1.
     999900   -1    0    0    0    0 -0.00000000000E+00 -0.00000000000E+00 -0.74505805969E-08  0.93827000000E+00  0.93827000000E+00 0. -1.
     999902    2    1    2    0    0  0.18011105235E-01  0.13323826480E-01  0.82558282714E-02  0.10200535898E+01  0.10197741138E+01 0.  0.
     999903    2    3    3    0    0  0.43835973469E-01 -0.11472099881E+00  0.37102560212E-01  0.12994430715E+00  0.20650008452E-01 0.  0.
         14    1    1    2    0    0 -0.18011105235E-01 -0.13323826480E-01 -0.82558282714E-02  0.23876410205E-01  0.00000000000E+00 0.  1.
     999901    1    3    3    0    0 -0.25824868234E-01  0.12804482529E+00 -0.28846731940E-01  0.89010928264E+00  0.88000000000E+00 0. -1.
        -11    1    4    4    0    0  0.47857029757E-02 -0.36333732688E-01  0.15141830872E-01  0.39655759319E-01  0.51100000000E-03 0.  1.
         11    1    4    4    0    0  0.39050270493E-01 -0.78387266122E-01  0.21960729339E-01  0.90288547833E-01  0.51100000000E-03 0. -1.
</event>
<event>
 8    1  0.1112929E+005  0.1043930E+01  0.7957747E-01            NaN
         13   -1    0    0    0    0  0.00000000000E+00  0.00000000000E+00  0.74505805969E-08  0.10566000000E+00  0.10566000000E+00 0. -1.
     999900   -1    0    0    0    0 -0.00000000000E+00 -0.00000000000E+00 -0.74505805969E-08  0.93827000000E+00  0.93827000000E+00 0.  1.
     999902    2    1    2    0    0  0.19426350280E-02  0.25073349702E-01  0.53051552080E-02  0.10182280279E+01  0.10179035934E+01 0.  0.
     999903    2    3    3    0    0  0.37656106355E-01  0.12280426561E+00 -0.20905856596E-01  0.13171023280E+00  0.20289420511E-01 0.  0.
         14    1    1    2    0    0 -0.19426350280E-02 -0.25073349702E-01 -0.53051552080E-02  0.25701972063E-01  0.00000000000E+00 0.  1.
     999901    1    3    3    0    0 -0.35713471327E-01 -0.97730915912E-01  0.26211011804E-01  0.88651779514E+00  0.88000000000E+00 0. -1.
        -11    1    4    4    0    0  0.27028045784E-01  0.97694362276E-01 -0.84141570050E-02  0.10171412310E+00  0.51100000000E-03 0. -1.
         11    1    4    4    0    0  0.10628060571E-01  0.25109903338E-01 -0.12491699591E-01  0.29996109695E-01  0.51100000000E-03 0.  1.
</event>
<event>
 8    1  0.1112929E+005  0.1043930E+01  0.7957747E-01            NaN
         13   -1    0    0    0    0  0.00000000000E+00  0.00000000000E+00  0.74505805969E-08  0.10566000000E+00  0.10566000000E+00 0.  1.
     999900   -1    0    0    0    0 -0.00000000000E+00 -0.00000000000E+00 -0.74505805969E-08  0.93827000000E+00  0.93827000000E+00 0. -1.
     999902    2    1    2    0    0 -0.14045449985E-01 -0.27963193742E-02  0.19089763048E-01  0.10200655260E+01  0.10197863326E+01 0.  0.
     999903    2    3    3    0    0  0.31441797765E-01  0.12279958367E+00  0.19830062924E-01  0.12998464840E+00  0.20843536871E-01 0.  0.
         14    1    1    2    0    0  0.14045449985E-01  0.27963193742E-02 -0.19089763048E-01  0.23864474026E-01  0.00000000000E+00 0.  1.
     999901    1    3    3    0    0 -0.45487247751E-01 -0.12559590304E+00 -0.74029987587E-03  0.89008087757E+00  0.88000000000E+00 0. -1.
        -11    1    4    4    0    0  0.20624687275E-01  0.63678359580E-01  0.80930567390E-03  0.66941969650E-01  0.51100000000E-03 0. -1.
         11    1    4    4    0    0  0.10817110490E-01  0.59121224090E-01  0.19020757250E-01  0.63042678755E-01  0.51100000000E-03 0.  1.
</event>
<event>
 8    1  0.1112929E+005  0.1043930E+01  0.7957747E-01            NaN
         13   -1    0    0    0    0  0.00000000000E+00  0.00000000000E+00  0.74505805969E-08  0.10566000000E+00  0.10566000000E+00 0. -1.
     999900   -1    0    0    0    0 -0.00000000000E+00 -0.00000000000E+00 -0.74505805969E-08  0.93827000000E+00  0.93827000000E+00 0.  1.
     999902    2    1    2    0    0  0.17495820263E-01  0.12614811499E-01  0.10516704337E-01  0.10199333697E+01  0.10196510385E+01 0.  0.
     999903    2    3    3    0    0  0.94529399704E-01 -0.87750529478E-01  0.69034924430E-02  0.13087744945E+00  0.21101794561E-01 0.  0.
         14    1    1    2    0    0 -0.17495820263E-01 -0.12614811499E-01 -0.10516704337E-01  0.23996630304E-01  0.00000000000E+00 0.  1.
     999901    1    3    3    0    0 -0.77033579440E-01  0.10036534098E+00  0.36132118936E-02  0.88905592025E+00  0.88000000000E+00 0.  1.
        -11    1    4    4    0    0  0.58647854011E-01 -0.43759338217E-01  0.10819011392E-01  0.73971363309E-01  0.51100000000E-03 0. -1.
         11    1    4    4    0    0  0.35881545693E-01 -0.43991191261E-01 -0.39155189491E-02  0.56906086137E-01  0.51100000000E-03 0.  1.
</event>
<event>
 8    1  0.1112929E+005  0.1043930E+01  0.7957747E-01            NaN
         13   -1    0    0    0    0  0.00000000000E+00  0.00000000000E+00  0.74505805969E-08  0.10566000000E+00  0.10566000000E+00 0.  1.
     999900   -1    0    0    0    0 -0.00000000000E+00 -0.00000000000E+00 -0.74505805969E-08  0.93827000000E+00  0.93827000000E+00 0. -1.
     999902    2    1    2    0    0 -0.19085726307E-01  0.75603967261E-02  0.10064703790E-01  0.10210668679E+01  0.10208108669E+01 0.  0.
     999903    2    3    3    0    0 -0.78809984759E-01  0.10077386682E+00 -0.30983910538E-01  0.13318133091E+00  0.20270132142E-01 0.  0.
         14    1    1    2    0    0  0.19085726307E-01 -0.75603967261E-02 -0.10064703790E-01  0.22863132106E-01  0.00000000000E+00 0.  1.
     999901    1    3    3    0    0  0.59724258452E-01 -0.93213470098E-01  0.41048614327E-01  0.88788553699E+00  0.88000000000E+00 0. -1.
        -11    1    4    4    0    0 -0.60964970607E-01  0.64930712388E-01 -0.16395762668E-01  0.90563829462E-01  0.51100000000E-03 0. -1.
         11    1    4    4    0    0 -0.17845014152E-01  0.35843154436E-01 -0.14588147869E-01  0.42617501444E-01  0.51100000000E-03 0.  1.
</event>
<event>
 8    1  0.1112929E+005  0.1043930E+01  0.7957747E-01            NaN
         13   -1    0    0    0    0  0.00000000000E+00  0.00000000000E+00  0.74505805969E-08  0.10566000000E+00  0.10566000000E+00 0.  1.
     999900   -1    0    0    0    0 -0.00000000000E+00 -0.00000000000E+00 -0.74505805969E-08  0.93827000000E+00  0.93827000000E+00 0.  1.
     999902    2    1    2    0    0  0.14866310041E-01  0.18223727621E-01  0.51342574890E-02  0.10198577749E+01  0.10195736408E+01 0.  0.
     999903    2    3    3    0    0  0.99461696381E-02  0.12734625932E+00  0.30239592368E-01  0.13274886806E+00  0.19794771303E-01 0.  0.
         14    1    1    2    0    0 -0.14866310041E-01 -0.18223727621E-01 -0.51342574890E-02  0.24072225128E-01  0.00000000000E+00 0.  1.
     999901    1    3    3    0    0  0.49201404032E-02 -0.10912253170E+00 -0.25105334879E-01  0.88710890681E+00  0.88000000000E+00 0.  1.
        -11    1    4    4    0    0  0.10732274019E-01  0.29478336327E-01  0.80833799676E-02  0.32399940910E-01  0.51100000000E-03 0.  1.
         11    1    4    4    0    0 -0.78610438069E-03  0.97867922994E-01  0.22156212400E-01  0.10034892715E+00  0.51100000000E-03 0. -1.
</event>
<event>
 8    1  0.1112929E+005  0.1043930E+01  0.7957747E-01            NaN
         13   -1    0    0    0    0  0.00000000000E+00  0.00000000000E+00  0.74505805969E-08  0.10566000000E+00  0.10566000000E+00 0. -1.
     999900   -1    0    0    0    0 -0.00000000000E+00 -0.00000000000E+00 -0.74505805969E-08  0.93827000000E+00  0.93827000000E+00 0. -1.
     999902    2    1    2    0    0  0.86798249369E-03 -0.10027751505E-01 -0.21569292510E-01  0.10201278242E+01  0.10198501037E+01 0.  0.
     999903    2    3    3    0    0 -0.12226176169E+00  0.23592492649E-01  0.31532256641E-01  0.12933546385E+00  0.15127290573E-01 0.  0.
         14    1    1    2    0    0 -0.86798249369E-03  0.10027751505E-01  0.21569292510E-01  0.23802175809E-01  0.00000000000E+00 0. -1.
     999901    1    3    3    0    0  0.12312974418E+00 -0.33620244154E-01 -0.53101549151E-01  0.89079236034E+00  0.88000000000E+00 0.  1.
        -11    1    4    4    0    0 -0.52600551214E-01  0.28917712518E-02  0.11023837751E-01  0.53823474885E-01  0.51100000000E-03 0. -1.
         11    1    4    4    0    0 -0.69661210474E-01  0.20700721397E-01  0.20508418890E-01  0.75511988965E-01  0.51100000000E-03 0.  1.
</event>
<event>
 8    1  0.1112929E+005  0.1043930E+01  0.7957747E-01            NaN
         13   -1    0    0    0    0  0.00000000000E+00  0.00000000000E+00  0.74505805969E-08  0.10566000000E+00  0.10566000000E+00 0. -1.
     999900   -1    0    0    0    0 -0.00000000000E+00 -0.00000000000E+00 -0.74505805969E-08  0.93827000000E+00  0.93827000000E+00 0. -1.
     999902    2    1    2    0    0  0.31459463676E-02  0.20848563157E-01 -0.24440422494E-02  0.10227042395E+01  0.10224839503E+01 0.  0.
     999903    2    3    3    0    0  0.75205811389E-01  0.88027421940E-01  0.65811393709E-01  0.13458013349E+00  0.19388958442E-01 0.  0.
         14    1    1    2    0    0 -0.31459463676E-02 -0.20848563157E-01  0.24440422494E-02  0.21225760452E-01  0.00000000000E+00 0.  1.
     999901    1    3    3    0    0 -0.72059865021E-01 -0.67178858783E-01 -0.68255435959E-01  0.88812410605E+00  0.88000000000E+00 0. -1.
        -11    1    4    4    0    0  0.29002724216E-01  0.37801824644E-01  0.37747238309E-01  0.60788576882E-01  0.51100000000E-03 0.  1.
         11    1    4    4    0    0  0.46203087172E-01  0.50225597296E-01  0.28064155400E-01  0.73791556613E-01  0.51100000000E-03 0. -1.
</event>
<event>
 8    1  0.1112929E+005  0.1043930E+01  0.7957747E-01            NaN
         13   -1    0    0    0    0  0.00000000000E+00  0.00000000000E+00  0.74505805969E-08  0.10566000000E+00  0.10566000000E+00 0.  1.
     999900   -1    0    0    0    0 -0.00000000000E+00 -0.00000000000E+00 -0.74505805969E-08  0.93827000000E+00  0.93827000000E+00 0. -1.
     999902    2    1    2    0    0 -0.64852693982E-02 -0.22165657788E-01  0.57408955657E-02  0.10201322483E+01  0.10198546323E+01 0.  0.
     999903    2    3    3    0    0  0.10428612743E+00 -0.19751873636E-01  0.73474137802E-01  0.13060207972E+00  0.19817199975E-01 0.  0.
         14    1    1    2    0    0  0.64852693982E-02  0.22165657788E-01 -0.57408955657E-02  0.23797751705E-01  0.00000000000E+00 0. -1.
     999901    1    3    3    0    0 -0.11077139682E+00 -0.24137841519E-02 -0.67733242237E-01  0.88953016858E+00  0.88000000000E+00 0. -1.
        -11    1    4    4    0    0  0.79399406805E-01 -0.15554555935E-01  0.45125708695E-01  0.92643406228E-01  0.51100000000E-03 0. -1.
         11    1    4    4    0    0  0.24886720621E-01 -0.41973177003E-02  0.28348429107E-01  0.37958673488E-01  0.51100000000E-03 0.  1.
</event>
<event>
 8    1  0.1112929E+005  0.1043930E+01  0.7957747E-01            NaN
         13   -1    0    0    0    0  0.00000000000E+00  0.00000000000E+00  0.74505805969E-08  0.10566000000E+00  0.10566000000E+00 0.  1.
     999900   -1    0    0    0    0 -0.00000000000E+00 -0.00000000000E+00 -0.74505805969E-08  0.93827000000E+00  0.93827000000E+00 0. -1.
     999902    2    1    2    0    0  0.11061075519E-01  0.18998251247E-01 -0.86587673791E-02  0.10203025754E+01  0.10200289653E+01 0.  0.
     999903    2    3    3    0    0 -0.89839703410E-01  0.43017355320E-01 -0.82465981097E-01  0.13114264074E+00  0.21819464144E-01 0.  0.
         14    1    1    2    0    0 -0.11061075519E-01 -0.18998251247E-01  0.86587673791E-02  0.23627424629E-01  0.00000000000E+00 0.  1.
     999901    1    3    3    0    0  0.10090077893E+00 -0.24019104074E-01  0.73807213718E-01  0.88915993463E+00  0.88000000000E+00 0.  1.
        -11    1    4    4    0    0 -0.55578870129E-01  0.28940455718E-01 -0.64655923981E-01  0.90040048916E-01  0.51100000000E-03 0. -1.
         11    1    4    4    0    0 -0.34260833280E-01  0.14076899603E-01 -0.17810057116E-01  0.41102591828E-01  0.51100000000E-03 0.  1.
</event>
<event>
 8    1  0.1112929E+005  0.1043930E+01  0.7957747E-01            NaN
         13   -1    0    0    0    0  0.00000000000E+00  0.00000000000E+00  0.74505805969E-08  0.10566000000E+00  0.10566000000E+00 0. -1.
     999900   -1    0    0    0    0 -0.00000000000E+00 -0.00000000000E+00 -0.74505805969E-08  0.93827000000E+00  0.93827000000E+00 0.  1.
     999902    2    1    2    0    0  0.69535571124E-02 -0.11532065890E-01 -0.20089444721E-01  0.10197447506E+01  0.10194579099E+01 0.  0.
     999903    2    3    3    0    0 -0.71198545384E-01  0.32513059571E-01 -0.10376719354E+00  0.13123493643E+00  0.18128601078E-01 0.  0.
         14    1    1    2    0    0 -0.69535571124E-02  0.11532065890E-01  0.20089444721E-01  0.24185249418E-01  0.00000000000E+00 0. -1.
     999901    1    3    3    0    0  0.78152102496E-01 -0.44045125461E-01  0.83677748816E-01  0.88850981415E+00  0.88000000000E+00 0. -1.
        -11    1    4    4    0    0 -0.29314386752E-01  0.22024037190E-01 -0.54937207241E-01  0.66051111612E-01  0.51100000000E-03 0. -1.
         11    1    4    4    0    0 -0.41884158632E-01  0.10489022381E-01 -0.48829986297E-01  0.65183824816E-01  0.51100000000E-03 0.  1.
</event>
<event>
 8    1  0.1112929E+005  0.1043930E+01  0.7957747E-01            NaN
         13   -1    0    0    0    0  0.00000000000E+00  0.00000000000E+00  0.74505805969E-08  0.10566000000E+00  0.10566000000E+00 0. -1.
     999900   -1    0    0    0    0 -0.00000000000E+00 -0.00000000000E+00 -0.74505805969E-08  0.93827000000E+00  0.93827000000E+00 0. -1.
     999902    2    1    2    0    0  0.40922384241E-02 -0.12235007046E-01 -0.19864554974E-01  0.10202436673E+01  0.10199686752E+01 0.  0.
     999903    2    3    3    0    0 -0.47513179565E-02 -0.45255298141E-01 -0.12387953735E+00  0.13345865125E+00  0.19860885858E-01 0.  0.
         14    1    1    2    0    0 -0.40922384241E-02  0.12235007046E-01  0.19864554974E-01  0.23686332706E-01  0.00000000000E+00 0. -1.
     999901    1    3    3    0    0  0.88435563806E-02  0.33020291095E-01  0.10401498238E+00  0.88678501604E+00  0.88000000000E+00 0.  1.
        -11    1    4    4    0    0  0.77356260084E-02 -0.18886150717E-01 -0.54060345597E-01  0.57786751818E-01  0.51100000000E-03 0.  1.
         11    1    4    4    0    0 -0.12486943965E-01 -0.26369147424E-01 -0.69819191758E-01  0.75671899436E-01  0.51100000000E-03 0. -1.
</event>
<event>
 8    1  0.1112929E+005  0.1043930E+01  0.7957747E-01            NaN
         13   -1    0    0    0    0  0.00000000000E+00  0.00000000000E+00  0.74505805969E-08  0.10566000000E+00  0.10566000000E+00 0.  1.
     999900   -1    0    0    0    0 -0.00000000000E+00 -0.00000000000E+00 -0.74505805969E-08  0.93827000000E+00  0.93827000000E+00 0.  1.
     999902    2    1    2    0    0  0.14538459440E-01  0.11004466507E-01  0.15244110554E-01  0.10201634691E+01  0.10198865896E+01 0.  0.
     999903    2    3    3    0    0  0.55941849479E-01 -0.11527389015E+00  0.11705808726E-01  0.13017864692E+00  0.19796309856E-01 0.  0.
         14    1    1    2    0    0 -0.14538459440E-01 -0.11004466507E-01 -0.15244110554E-01  0.23766530933E-01  0.00000000000E+00 0. -1.
     999901    1    3    3    0    0 -0.41403390039E-01  0.12627835666E+00  0.35383018281E-02  0.88998482214E+00  0.88000000000E+00 0.  1.
        -11    1    4    4    0    0  0.34249490611E-01 -0.88112391106E-01  0.12789323034E-01  0.95397321651E-01  0.51100000000E-03 0. -1.
         11    1    4    4    0    0  0.21692358867E-01 -0.27161499042E-01 -0.10835143080E-02  0.34781325272E-01  0.51100000000E-03 0.  1.
</event>
<event>
 8    1  0.1112929E+005  0.1043930E+01  0.7957747E-01            NaN
         13   -1    0    0    0    0  0.00000000000E+00  0.00000000000E+00  0.74505805969E-08  0.10566000000E+00  0.10566000000E+00 0.  1.
     999900   -1    0    0    0    0 -0.00000000000E+00 -0.00000000000E+00 -0.74505805969E-08  0.93827000000E+00  0.93827000000E+00 0. -1.
     999902    2    1    2    0    0 -0.16778902908E-01 -0.60974746300E-02  0.16147214779E-01  0.10198583710E+01  0.10195742511E+01 0.  0.
     999903    2    3    3    0    0  0.18786859058E-01  0.50404889179E-01 -0.11381469353E+00  0.12781154587E+00  0.22099951751E-01 0.  0.
         14    1    1    2    0    0  0.16778902908E-01  0.60974746300E-02 -0.16147214779E-01  0.24071629043E-01  0.00000000000E+00 0. -1.
     999901    1    3    3    0    0 -0.35565761966E-01 -0.56502363809E-01  0.12996190831E+00  0.89204682509E+00  0.88000000000E+00 0.  1.
        -11    1    4    4    0    0  0.13967987579E-01  0.19274797768E-01 -0.69300106811E-01  0.73276110916E-01  0.51100000000E-03 0.  1.
         11    1    4    4    0    0  0.48188714796E-02  0.31130091411E-01 -0.44514586719E-01  0.54535434952E-01  0.51100000000E-03 0. -1.
</event>
<event>
 8    1  0.1112929E+005  0.1043930E+01  0.7957747E-01            NaN
         13   -1    0    0    0    0  0.00000000000E+00  0.00000000000E+00  0.74505805969E-08  0.10566000000E+00  0.10566000000E+00 0. -1.
     999900   -1    0    0    0    0 -0.00000000000E+00 -0.00000000000E+00 -0.74505805969E-08  0.93827000000E+00  0.93827000000E+00 0. -1.
     999902    2    1    2    0    0 -0.62230989326E-02 -0.10422298424E-01 -0.21939685224E-01  0.10188560882E+01  0.10185475087E+01 0.  0.
     999903    2    3    3    0    0 -0.17288467938E-01  0.11930555952E+00 -0.41092631661E-01  0.12907038655E+00  0.20924928927E-01 0.  0.
         14    1    1    2    0    0  0.62230989326E-02  0.10422298424E-01  0.21939685224E-01  0.25073911791E-01  0.00000000000E+00 0. -1.
     999901    1    3    3    0    0  0.11065369005E-01 -0.12972785795E+00  0.19152946437E-01  0.88978570166E+00  0.88000000000E+00 0. -1.
        -11    1    4    4    0    0  0.28062127191E-02  0.41224618777E-01 -0.90045008012E-02  0.42292862032E-01  0.51100000000E-03 0. -1.
         11    1    4    4    0    0 -0.20094680657E-01  0.78080940746E-01 -0.32088130860E-01  0.86777524519E-01  0.51100000000E-03 0.  1.
</event>
<event>
 8    1  0.1112929E+005  0.1043930E+01  0.7957747E-01            NaN
         13   -1    0    0    0    0  0.00000000000E+00  0.00000000000E+00  0.74505805969E-08  0.10566000000E+00  0.10566000000E+00 0.  1.
     999900   -1    0    0    0    0 -0.00000000000E+00 -0.00000000000E+00 -0.74505805969E-08  0.93827000000E+00  0.93827000000E+00 0.  1.
     999902    2    1    2    0    0  0.18647859445E-01 -0.79386625882E-02  0.11483780144E-01  0.10206353175E+01  0.10203694474E+01 0.  0.
     999903    2    3    3    0    0  0.33134637654E-01  0.72887858657E-01  0.10310523721E+00  0.13207621162E+00  0.20072159428E-01 0.  0.
         14    1    1    2    0    0 -0.18647859445E-01  0.79386625882E-02 -0.11483780144E-01  0.23294682482E-01  0.00000000000E+00 0. -1.
     999901    1    3    3    0    0 -0.14486778209E-01 -0.80826521245E-01 -0.91621457064E-01  0.88855910590E+00  0.88000000000E+00 0.  1.
        -11    1    4    4    0    0  0.34762190248E-01  0.59813390499E-01  0.89610219538E-01  0.11320911677E+00  0.51100000000E-03 0.  1.
         11    1    4    4    0    0 -0.16275525943E-02  0.13074468158E-01  0.13495017670E-01  0.18867094847E-01  0.51100000000E-03 0. -1.
</event>
<event>
 8    1  0.1112929E+005  0.1043930E+01  0.7957747E-01            NaN
         13   -1    0    0    0    0  0.00000000000E+00  0.00000000000E+00  0.74505805969E-08  0.10566000000E+00  0.10566000000E+00 0. -1.
     999900   -1    0    0    0    0 -0.00000000000E+00 -0.00000000000E+00 -0.74505805969E-08  0.93827000000E+00  0.93827000000E+00 0. -1.
     999902    2    1    2    0    0  0.70180179441E-02  0.21648706609E-01  0.74949525740E-02  0.10199697540E+01  0.10196882885E+01 0.  0.
     999903    2    3    3    0    0  0.10352414365E+00  0.39581872281E-01  0.69458887816E-01  0.13234677098E+00  0.20178150574E-01 0.  0.
         14    1    1    2    0    0 -0.70180179441E-02 -0.21648706609E-01 -0.74949525740E-02  0.23960245988E-01  0.00000000000E+00 0.  1.
     999901    1    3    3    0    0 -0.96506125710E-01 -0.17933165671E-01 -0.61963935242E-01  0.88762298303E+00  0.88000000000E+00 0. -1.
        -11    1    4    4    0    0  0.37183923161E-01  0.21389613923E-01  0.18411065048E-01  0.46683917602E-01  0.51100000000E-03 0. -1.
         11    1    4    4    0    0  0.66340220493E-01  0.18192258357E-01  0.51047822767E-01  0.85662853382E-01  0.51100000000E-03 0.  1.
</event>
<event>
 7    1  0.1112929E+005  0.1043930E+01  0.7957747E-01            NaN
         13   -1    0    0    0    0  0.00000000000E+00  0.00000000000E+00  0.74505805969E-08  0.10566000000E+00  0.10566000000E+00 0.  1.
     999900   -1    0    0    0    0 -0.00000000000E+00 -0.00000000000E+00 -0.74505805969E-08  0.93827000000E+00  0.93827000000E+00 0. -1.
     999902    2    1    2    0    0 -0.21601966294E-01 -0.38344024743E-02  0.64575487876E-02  0.10210597677E+01  0.10208036058E+01 0.  0.
         14    1    1    2    0    0  0.21601966294E-01  0.38344024743E-02 -0.64575487876E-02  0.22870232322E-01  0.00000000000E+00 0. -1.
     999901    1    3    3    0    0 -0.14904087416E-01  0.11398365089E+00 -0.98328914172E-02  0.88753089538E+00  0.88000000000E+00 0.  1.
        -11    1    3    3    0    0 -0.11336882535E-02 -0.10662686201E+00 -0.72407361738E-02  0.10687966286E+00  0.51100000000E-03 0.  1.
         11    1    3    3    0    0 -0.55641906241E-02 -0.11191191348E-01  0.23531176379E-01  0.26649209442E-01  0.51100000000E-03 0. -1.
</event>
<event>
 8    1  0.1112929E+005  0.1043930E+01  0.7957747E-01            NaN
         13   -1    0    0    0    0  0.00000000000E+00  0.00000000000E+00  0.74505805969E-08  0.10566000000E+00  0.10566000000E+00 0.  1.
     999900   -1    0    0    0    0 -0.00000000000E+00 -0.00000000000E+00 -0.74505805969E-08  0.93827000000E+00  0.93827000000E+00 0.  1.
     999902    2    1    2    0    0 -0.36429731392E-02 -0.64285437225E-02  0.22308366387E-01  0.10204297736E+01  0.10201591358E+01 0.  0.
     999903    2    3    3    0    0  0.55668920943E-02  0.10694356204E+00 -0.68210019465E-01  0.12850397283E+00  0.19817884075E-01 0.  0.
         14    1    1    2    0    0  0.36429731392E-02  0.64285437225E-02 -0.22308366387E-01  0.23500226351E-01  0.00000000000E+00 0. -1.
     999901    1    3    3    0    0 -0.92098652335E-02 -0.11337210576E+00  0.90518385852E-01  0.89192580082E+00  0.88000000000E+00 0. -1.
        -11    1    4    4    0    0  0.12701763886E-02  0.49353802186E-01 -0.19983221120E-01  0.53263508949E-01  0.51100000000E-03 0. -1.
         11    1    4    4    0    0  0.42967157057E-02  0.57589759855E-01 -0.48226798345E-01  0.75240463884E-01  0.51100000000E-03 0.  1.
</event>
<event>
 7    1  0.1112929E+005  0.1043930E+01  0.7957747E-01            NaN
         13   -1    0    0    0    0  0.00000000000E+00  0.00000000000E+00  0.74505805969E-08  0.10566000000E+00  0.10566000000E+00 0.  1.
     999900   -1    0    0    0    0 -0.00000000000E+00 -0.00000000000E+00 -0.74505805969E-08  0.93827000000E+00  0.93827000000E+00 0.  1.
     999903    2    1    2    0    0  0.68970097112E-01 -0.46896700440E-01  0.48654248636E-01  0.98681320925E-01  0.20361541725E-01 0.  0.
         14    1    1    2    0    0 -0.35958940233E-01  0.27706200444E-01 -0.45702344833E-01  0.64415706540E-01  0.00000000000E+00 0. -1.
     999901    1    1    2    0    0 -0.33011156878E-01  0.19190499996E-01 -0.29519038035E-02  0.88083297253E+00  0.88000000000E+00 0.  1.
        -11    1    3    3    0    0  0.44124617102E-01 -0.40194743107E-01  0.38402870841E-01  0.70976339845E-01  0.51100000000E-03 0.  1.
         11    1    3    3    0    0  0.24845480009E-01 -0.67019573332E-02  0.10251377795E-01  0.27704981081E-01  0.51100000000E-03 0. -1.
</event>
<event>
 8    1  0.1112929E+005  0.1043930E+01  0.7957747E-01            NaN
         13   -1    0    0    0    0  0.00000000000E+00  0.00000000000E+00  0.74505805969E-08  0.10566000000E+00  0.10566000000E+00 0. -1.
     999900   -1    0    0    0    0 -0.00000000000E+00 -0.00000000000E+00 -0.74505805969E-08  0.93827000000E+00  0.93827000000E+00 0.  1.
     999902    2    1    2    0    0 -0.10911662660E-02  0.13637189466E-01  0.19390670478E-01  0.10201989722E+01  0.10199229290E+01 0.  0.
     999903    2    3    3    0    0  0.97044538539E-01  0.84642589912E-01 -0.15199377564E-01  0.13122830062E+00  0.20194932974E-01 0.  0.
         14    1    1    2    0    0  0.10911662660E-02 -0.13637189466E-01 -0.19390670478E-01  0.23731027832E-01  0.00000000000E+00 0.  1.
     999901    1    3    3    0    0 -0.98135704805E-01 -0.71005400446E-01  0.34590048042E-01  0.88897067155E+00  0.88000000000E+00 0. -1.
        -11    1    4    4    0    0  0.83658483409E-01  0.76333738068E-01 -0.70185754221E-02  0.11346851077E+00  0.51100000000E-03 0. -1.
         11    1    4    4    0    0  0.13386055130E-01  0.83088518440E-02 -0.81808021421E-02  0.17759789852E-01  0.51100000000E-03 0.  1.
</event>
<event>
 8    1  0.1112929E+005  0.1043930E+01  0.7957747E-01            NaN
         13   -1    0    0    0    0  0.00000000000E+00  0.00000000000E+00  0.74505805969E-08  0.10566000000E+00  0.10566000000E+00 0.  1.
     999900   -1    0    0    0    0 -0.00000000000E+00 -0.00000000000E+00 -0.74505805969E-08  0.93827000000E+00  0.93827000000E+00 0.  1.
     999902    2    1    2    0    0  0.34413969931E-02 -0.23603392862E-01 -0.13657227428E-02  0.10200379811E+01  0.10197581352E+01 0.  0.
     999903    2    3    3    0    0 -0.56060943714E-01  0.10994843028E+00  0.25164000630E-01  0.12758045034E+00  0.20299203161E-01 0.  0.
         14    1    1    2    0    0 -0.34413969931E-02  0.23603392862E-01  0.13657227428E-02  0.23892018887E-01  0.00000000000E+00 0. -1.
     999901    1    3    3    0    0  0.59502340707E-01 -0.13355182315E+00 -0.26529723373E-01  0.89245753078E+00  0.88000000000E+00 0. -1.
        -11    1    4    4    0    0 -0.30498354642E-01  0.76192845837E-01  0.22748544941E-01  0.85166054332E-01  0.51100000000E-03 0.  1.
         11    1    4    4    0    0 -0.25562589072E-01  0.33755584447E-01  0.24154556890E-02  0.42414396006E-01  0.51100000000E-03 0. -1.
</event>
<event>
 8    1  0.1112929E+005  0.1043930E+01  0.7957747E-01            NaN
         13   -1    0    0    0    0  0.00000000000E+00  0.00000000000E+00  0.74505805969E-08  0.10566000000E+00  0.10566000000E+00 0.  1.
     999900   -1    0    0    0    0 -0.00000000000E+00 -0.00000000000E+00 -0.74505805969E-08  0.93827000000E+00  0.93827000000E+00 0.  1.
     999902    2    1    2    0    0  0.76385435782E-02  0.17847161499E-02 -0.22805012952E-01  0.10198135912E+01  0.10195284006E+01 0.  0.
     999903    2    3    3    0    0 -0.91453429347E-01  0.89203754530E-01 -0.11852562484E-01  0.12988029953E+00  0.20183394360E-01 0.  0.
         14    1    1    2    0    0 -0.76385435782E-02 -0.17847161499E-02  0.22805012952E-01  0.24116408842E-01  0.00000000000E+00 0.  1.
     999901    1    3    3    0    0  0.99091972925E-01 -0.87419038380E-01 -0.10952450467E-01  0.88993329162E+00  0.88000000000E+00 0. -1.
        -11    1    4    4    0    0 -0.19324652303E-01  0.22681041314E-01 -0.10961099682E-01  0.31753403738E-01  0.51100000000E-03 0. -1.
         11    1    4    4    0    0 -0.72128777044E-01  0.66522713216E-01 -0.89146280166E-03  0.98126895795E-01  0.51100000000E-03 0.  1.
</event>
<event>
 8    1  0.1112929E+005  0.1043930E+01  0.7957747E-01            NaN
         13   -1    0    0    0    0  0.00000000000E+00  0.00000000000E+00  0.74505805969E-08  0.10566000000E+00  0.10566000000E+00 0. -1.
     999900   -1    0    0    0    0 -0.00000000000E+00 -0.00000000000E+00 -0.74505805969E-08  0.93827000000E+00  0.93827000000E+00 0.  1.
     999902    2    1    2    0    0  0.21329777233E-02  0.14596739496E-01 -0.21110665677E-01  0.10181758818E+01  0.10178501126E+01 0.  0.
     999903    2    3    3    0    0  0.60192070951E-01 -0.10184134483E+00  0.39958795174E-01  0.12651554019E+00  0.20364961962E-01 0.  0.
         14    1    1    2    0    0 -0.21329777233E-02 -0.14596739496E-01  0.21110665677E-01  0.25754118180E-01  0.00000000000E+00 0. -1.
     999901    1    3    3    0    0 -0.58059093228E-01  0.11643808433E+00 -0.61069460851E-01  0.89166034163E+00  0.88000000000E+00 0.  1.
        -11    1    4    4    0    0  0.16549794450E-01 -0.13250726650E-01  0.53832757840E-02  0.21879630533E-01  0.51100000000E-03 0. -1.
         11    1    4    4    0    0  0.43642276501E-01 -0.88590618180E-01  0.34575519390E-01  0.10463590966E+00  0.51100000000E-03 0.  1.
</event>
<event>
 8    1  0.1112929E+005  0.1043930E+01  0.7957747E-01            NaN
         13   -1    0    0    0    0  0.00000000000E+00  0.00000000000E+00  0.74505805969E-08  0.10566000000E+00  0.10566000000E+00 0.  1.
     999900   -1    0    0    0    0 -0.00000000000E+00 -0.00000000000E+00 -0.74505805969E-08  0.93827000000E+00  0.93827000000E+00 0. -1.
     999902    2    1    2    0    0 -0.14308130098E-01  0.11358637606E-01 -0.15818857264E-01  0.10197643740E+01  0.10194780042E+01 0.  0.
     999903    2    3    3    0    0  0.10093978848E+00 -0.75775950723E-01  0.15476243492E-02  0.12781363886E+00  0.20077239127E-01 0.  0.
         14    1    1    2    0    0  0.14308130098E-01 -0.11358637606E-01  0.15818857264E-01  0.24165626007E-01  0.00000000000E+00 0.  1.
     999901    1    3    3    0    0 -0.11524791858E+00  0.87134588329E-01 -0.17366481613E-01  0.89195073513E+00  0.88000000000E+00 0. -1.
        -11    1    4    4    0    0  0.71804928296E-01 -0.42337310559E-01 -0.12994726402E-02  0.83368731207E-01  0.51100000000E-03 0. -1.
         11    1    4    4    0    0  0.29134860186E-01 -0.33438640164E-01  0.28470969894E-02  0.44444907654E-01  0.51100000000E-03 0.  1.
</event>
<event>
 8    1  0.1112929E+005  0.1043930E+01  0.7957747E-01            NaN
         13   -1    0    0    0    0  0.00000000000E+00  0.00000000000E+00  0.74505805969E-08  0.10566000000E+00  0.10566000000E+00 0. -1.
     999900   -1    0    0    0    0 -0.00000000000E+00 -0.00000000000E+00 -0.74505805969E-08  0.93827000000E+00  0.93827000000E+00 0.  1.
     999902    2    1    2    0    0 -0.75061128365E-02 -0.12669477576E-01  0.16637092644E-01  0.10217117588E+01  0.10214701502E+01 0.  0.
     999903    2    3    3    0    0 -0.10528105144E-01  0.80406978286E-01  0.10432304018E+00  0.13246422041E+00  0.93461126752E-02 0.  0.
         14    1    1    2    0    0  0.75061128365E-02  0.12669477576E-01 -0.16637092644E-01  0.22218241236E-01  0.00000000000E+00 0.  1.
     999901    1    3    3    0    0  0.30219923071E-02 -0.93076455862E-01 -0.87685947533E-01  0.88924753835E+00  0.88000000000E+00 0.  1.
        -11    1    4    4    0    0 -0.24266728488E-02  0.49241464128E-01  0.66594626771E-01  0.82859616016E-01  0.51100000000E-03 0.  1.
         11    1    4    4    0    0 -0.81014322949E-02  0.31165514158E-01  0.37728413406E-01  0.49604604395E-01  0.51100000000E-03 0. -1.
</event>
<event>
 8    1  0.1112929E+005  0.1043930E+01  0.7957747E-01            NaN
         13   -1    0    0    0    0  0.00000000000E+00  0.00000000000E+00  0.74505805969E-08  0.10566000000E+00  0.10566000000E+00 0. -1.
     999900   -1    0    0    0    0 -0.00000000000E+00 -0.00000000000E+00 -0.74505805969E-08  0.93827000000E+00  0.93827000000E+00 0.  1.
     999902    2    1    2    0    0 -0.65369280688E-02  0.22681211473E-01 -0.26298458349E-02  0.10201795290E+01  0.10199030280E+01 0.  0.
     999903    2    3    3    0    0  0.33726973613E-01  0.43354840408E-01 -0.11778701048E+00  0.13152337883E+00  0.20185846614E-01 0.  0.
         14    1    1    2    0    0  0.65369280688E-02 -0.22681211473E-01  0.26298458349E-02  0.23750470976E-01  0.00000000000E+00 0. -1.
     999901    1    3    3    0    0 -0.40263901682E-01 -0.20673628935E-01  0.11515716465E+00  0.88865615020E+00  0.88000000000E+00 0. -1.
        -11    1    4    4    0    0  0.10270130934E-03  0.96404449179E-02 -0.11224235176E-01  0.14805178218E-01  0.51100000000E-03 0.  1.
         11    1    4    4    0    0  0.33624272304E-01  0.33714395490E-01 -0.10656277531E+00  0.11671820061E+00  0.51100000000E-03 0. -1.
</event>
<event>
 8    1  0.1112929E+005  0.1043930E+01  0.7957747E-01            NaN
         13   -1    0    0    0    0  0.00000000000E+00  0.00000000000E+00  0.74505805969E-08  0.10566000000E+00  0.10566000000E+00 0.  1.
     999900   -1    0    0    0    0 -0.00000000000E+00 -0.00000000000E+00 -0.74505805969E-08  0.93827000000E+00  0.93827000000E+00 0.  1.
     999902    2    1    2    0    0 -0.23023259820E-02  0.23316028724E-01 -0.34460245238E-02  0.10202485096E+01  0.10199736313E+01 0.  0.
     999903    2    3    3    0    0 -0.92664392661E-01  0.93086783611E-01 -0.37444301031E-02  0.13287409578E+00  0.19739949928E-01 0.  0.
         14    1    1    2    0    0  0.23023259820E-02 -0.23316028724E-01  0.34460245238E-02  0.23681490354E-01  0.00000000000E+00 0. -1.
     999901    1    3    3    0    0  0.90362066679E-01 -0.69770754887E-01  0.29840557932E-03  0.88737441386E+00  0.88000000000E+00 0. -1.
        -11    1    4    4    0    0 -0.45470382585E-01  0.44403357562E-01  0.80014889821E-02  0.64058557602E-01  0.51100000000E-03 0.  1.
         11    1    4    4    0    0 -0.47194010077E-01  0.48683426049E-01 -0.11745919085E-01  0.68815538181E-01  0.51100000000E-03 0. -1.
</event>
<event>
 8    1  0.1112929E+005  0.1043930E+01  0.7957747E-01            NaN
         13   -1    0    0    0    0  0.00000000000E+00  0.00000000000E+00  0.74505805969E-08  0.10566000000E+00  0.10566000000E+00 0. -1.
     999900   -1    0    0    0    0 -0.00000000000E+00 -0.00000000000E+00 -0.74505805969E-08  0.93827000000E+00  0.93827000000E+00 0.  1.
     999902    2    1    2    0    0 -0.22318266349E-01  0.78670085282E-02 -0.17843960190E-02  0.10201986093E+01  0.10199225576E+01 0.  0.
     999903    2    3    3    0    0  0.71712776708E-01 -0.87823885226E-01 -0.56801481551E-01  0.12833232788E+00  0.19672847124E-01 0.  0.
         14    1    1    2    0    0  0.22318266349E-01 -0.78670085282E-02  0.17843960190E-02  0.23731390713E-01  0.00000000000E+00 0. -1.
     999901    1    3    3    0    0 -0.94031043057E-01  0.95690893754E-01  0.55017085532E-01  0.89186628140E+00  0.88000000000E+00 0. -1.
        -11    1    4    4    0    0  0.19598704319E-02 -0.11070821177E-01 -0.72570589667E-02  0.13391422609E-01  0.51100000000E-03 0. -1.
         11    1    4    4    0    0  0.69752906277E-01 -0.76753064049E-01 -0.49544422585E-01  0.11494090527E+00  0.51100000000E-03 0.  1.
</event>
<event>
 8    1  0.1112929E+005  0.1043930E+01  0.7957747E-01            NaN
         13   -1    0    0    0    0  0.00000000000E+00  0.00000000000E+00  0.74505805969E-08  0.10566000000E+00  0.10566000000E+00 0.  1.
     999900   -1    0    0    0    0 -0.00000000000E+00 -0.00000000000E+00 -0.74505805969E-08  0.93827000000E+00  0.93827000000E+00 0. -1.
     999902    2    1    2    0    0  0.34768722304E-02  0.24981665723E-02  0.22252697624E-01  0.10212691962E+01  0.10210177565E+01 0.  0.
     999903    2    3    3    0    0 -0.99548278303E-01  0.82639446296E-01  0.13610949691E-01  0.13159988340E+00  0.19852797324E-01 0.  0.
         14    1    1    2    0    0 -0.34768722304E-02 -0.24981665723E-02 -0.22252697624E-01  0.22660803787E-01  0.00000000000E+00 0. -1.
     999901    1    3    3    0    0  0.10302515053E+00 -0.80141279723E-01  0.86417479330E-02  0.88966931282E+00  0.88000000000E+00 0.  1.
        -11    1    4    4    0    0 -0.22306472764E-01  0.29072399446E-01  0.20004679947E-03  0.36648114227E-01  0.51100000000E-03 0.  1.
         11    1    4    4    0    0 -0.77241805539E-01  0.53567046850E-01  0.13410902891E-01  0.94951769170E-01  0.51100000000E-03 0. -1.
</event>
<event>
 7    1  0.1238067E+005  0.1043930E+01  0.7957747E-01            NaN
         13   -1    0    0    0    0  0.00000000000E+00  0.00000000000E+00  0.74505805969E-08  0.10566000000E+00  0.10566000000E+00 0. -1.
     999900   -1    0    0    0    0 -0.00000000000E+00 -0.00000000000E+00 -0.74505805969E-08  0.93827000000E+00  0.93827000000E+00 0. -1.
     999903    2    1    2    0    0  0.22469178599E-01 -0.37648736799E-01  0.70084414099E-01  0.85380215133E-01  0.21346303357E-01 0.  0.
         14    1    1    2    0    0 -0.74079337012E-02  0.69347826328E-01  0.21799811400E-01  0.73070036781E-01  0.00000000000E+00 0. -1.
     999901    1    1    2    0    0 -0.15061244898E-01 -0.31699089529E-01 -0.91884225499E-01  0.88547974809E+00  0.88000000000E+00 0. -1.
        -11    1    3    3    0    0  0.84705154075E-02 -0.51579781820E-02  0.31504312134E-01  0.33032365556E-01  0.51100000000E-03 0.  1.
         11    1    3    3    0    0  0.13998663192E-01 -0.32490758617E-01  0.38580101965E-01  0.52347849577E-01  0.51100000000E-03 0. -1.
</event>
<event>
 8    1  0.1112929E+005  0.1043930E+01  0.7957747E-01            NaN
         13   -1    0    0    0    0  0.00000000000E+00  0.00000000000E+00  0.74505805969E-08  0.10566000000E+00  0.10566000000E+00 0.  1.
     999900   -1    0    0    0    0 -0.00000000000E+00 -0.00000000000E+00 -0.74505805969E-08  0.93827000000E+00  0.93827000000E+00 0. -1.
     999902    2    1    2    0    0 -0.78345524551E-02  0.86301579503E-02  0.20077568575E-01  0.10207143028E+01  0.10204502532E+01 0.  0.
     999903    2    3    3    0    0  0.11113275348E+00 -0.44591711815E-01 -0.42870822391E-01  0.12889128936E+00  0.20884142354E-01 0.  0.
         14    1    1    2    0    0  0.78345524551E-02 -0.86301579503E-02 -0.20077568575E-01  0.23215697239E-01  0.00000000000E+00 0. -1.
     999901    1    3    3    0    0 -0.11896730594E+00  0.53221869765E-01  0.62948390966E-01  0.89182301340E+00  0.88000000000E+00 0. -1.
        -11    1    4    4    0    0  0.51450318501E-01 -0.30448802396E-01 -0.15760351353E-01  0.61829722925E-01  0.51100000000E-03 0. -1.
         11    1    4    4    0    0  0.59682434981E-01 -0.14142909419E-01 -0.27110471038E-01  0.67061566437E-01  0.51100000000E-03 0.  1.
</event>
<event>
 8    1  0.1112929E+005  0.1043930E+01  0.7957747E-01            NaN
         13   -1    0    0    0    0  0.00000000000E+00  0.00000000000E+00  0.74505805969E-08  0.10566000000E+00  0.10566000000E+00 0.  1.
     999900   -1    0    0    0    0 -0.00000000000E+00 -0.00000000000E+00 -0.74505805969E-08  0.93827000000E+00  0.93827000000E+00 0.  1.
     999902    2    1    2    0    0 -0.19511140059E-01 -0.11331264105E-01 -0.87215925640E-02  0.10197401610E+01  0.10194532102E+01 0.  0.
     999903    2    3    3    0    0  0.21847913615E-03 -0.38642581790E-01  0.12182680867E+00  0.12947163355E+00  0.20684190155E-01 0.  0.
         14    1    1    2    0    0  0.19511140059E-01  0.11331264105E-01  0.87215925640E-02  0.24189838972E-01  0.00000000000E+00 0.  1.
     999901    1    3    3    0    0 -0.19729619195E-01  0.27311317684E-01 -0.13054840124E+00  0.89026852748E+00  0.88000000000E+00 0.  1.
        -11    1    4    4    0    0  0.66360949844E-02 -0.73665606399E-02  0.48309375027E-01  0.49318970070E-01  0.51100000000E-03 0. -1.
         11    1    4    4    0    0 -0.64176158483E-02 -0.31276021150E-01  0.73517433648E-01  0.80152663483E-01  0.51100000000E-03 0.  1.
</event>
<event>
 8    1  0.1112929E+005  0.1043930E+01  0.7957747E-01            NaN
         13   -1    0    0    0    0  0.00000000000E+00  0.00000000000E+00  0.74505805969E-08  0.10566000000E+00  0.10566000000E+00 0. -1.
     999900   -1    0    0    0    0 -0.00000000000E+00 -0.00000000000E+00 -0.74505805969E-08  0.93827000000E+00  0.93827000000E+00 0.  1.
     999902    2    1    2    0    0 -0.15868161502E-01  0.15793662638E-01 -0.79673525326E-02  0.10201662243E+01  0.10198894098E+01 0.  0.
     999903    2    3    3    0    0 -0.44773956978E-01 -0.63000721501E-01 -0.10395101347E+00  0.13097728873E+00  0.19376243911E-01 0.  0.
         14    1    1    2    0    0  0.15868161502E-01 -0.15793662638E-01  0.79673525326E-02  0.23763775696E-01  0.00000000000E+00 0. -1.
     999901    1    3    3    0    0  0.28905795476E-01  0.78794384138E-01  0.95983660937E-01  0.88918893558E+00  0.88000000000E+00 0. -1.
        -11    1    4    4    0    0 -0.70723953978E-02 -0.19983528138E-02 -0.15052595707E-01  0.16758697716E-01  0.51100000000E-03 0.  1.
         11    1    4    4    0    0 -0.37701561581E-01 -0.61002368687E-01 -0.88898417762E-01  0.11421859101E+00  0.51100000000E-03 0. -1.
</event>
<event>
 8    1  0.1112929E+005  0.1043930E+01  0.7957747E-01            NaN
         13   -1    0    0    0    0  0.00000000000E+00  0.00000000000E+00  0.74505805969E-08  0.10566000000E+00  0.10566000000E+00 0. -1.
     999900   -1    0    0    0    0 -0.00000000000E+00 -0.00000000000E+00 -0.74505805969E-08  0.93827000000E+00  0.93827000000E+00 0. -1.
     999902    2    1    2    0    0  0.97042284058E-02 -0.18754975542E-02  0.20951120996E-01  0.10207645298E+01  0.10205016346E+01 0.  0.
     999903    2    3    3    0    0 -0.88439955833E-01 -0.50212680095E-01 -0.76099497592E-01  0.12869525741E+00  0.20697746652E-01 0.  0.
         14    1    1    2    0    0 -0.97042284058E-02  0.18754975542E-02 -0.20951120996E-01  0.23165470231E-01  0.00000000000E+00 0.  1.
     999901    1    3    3    0    0  0.98144184239E-01  0.48337182541E-01  0.97050618588E-01  0.89206927236E+00  0.88000000000E+00 0.  1.
        -11    1    4    4    0    0 -0.30892723198E-01 -0.67421640983E-02 -0.24825551571E-01  0.40204306425E-01  0.51100000000E-03 0. -1.
         11    1    4    4    0    0 -0.57547232634E-01 -0.43470515996E-01 -0.51273946021E-01  0.88490950986E-01  0.51100000000E-03 0.  1.
</event>
<event>
 8    1  0.1112929E+005  0.1043930E+01  0.7957747E-01            NaN
         13   -1    0    0    0    0  0.00000000000E+00  0.00000000000E+00  0.74505805969E-08  0.10566000000E+00  0.10566000000E+00 0. -1.
     999900   -1    0    0    0    0 -0.00000000000E+00 -0.00000000000E+00 -0.74505805969E-08  0.93827000000E+00  0.93827000000E+00 0. -1.
     999902    2    1    2    0    0  0.22275662995E-01  0.87956007402E-02  0.10567611185E-01  0.10177528695E+01  0.10174161691E+01 0.  0.
     999903    2    3    3    0    0 -0.32741556534E-01 -0.10963907365E+00 -0.49519663363E-01  0.12608917332E+00  0.18802834224E-01 0.  0.
         14    1    1    2    0    0 -0.22275662995E-01 -0.87956007402E-02 -0.10567611185E-01  0.26177130485E-01  0.00000000000E+00 0. -1.
     999901    1    3    3    0    0  0.55017219529E-01  0.11843467439E+00  0.60087274548E-01  0.89166369619E+00  0.88000000000E+00 0.  1.
        -11    1    4    4    0    0 -0.22240392080E-01 -0.74283674049E-01 -0.23769311453E-01  0.81104503932E-01  0.51100000000E-03 0. -1.
         11    1    4    4    0    0 -0.10501164454E-01 -0.35355399601E-01 -0.25750351910E-01  0.44984669392E-01  0.51100000000E-03 0.  1.
</event>
<event>
 8    1  0.1112929E+005  0.1043930E+01  0.7957747E-01            NaN
         13   -1    0    0    0    0  0.00000000000E+00  0.00000000000E+00  0.74505805969E-08  0.10566000000E+00  0.10566000000E+00 0. -1.
     999900   -1    0    0    0    0 -0.00000000000E+00 -0.00000000000E+00 -0.74505805969E-08  0.93827000000E+00  0.93827000000E+00 0.  1.
     999902    2    1    2    0    0 -0.10571523875E-01  0.20742951514E-01  0.19745204400E-02  0.10205649431E+01  0.10202974454E+01 0.  0.
     999903    2    3    3    0    0  0.88256067352E-01 -0.87296239822E-01  0.11594721831E-01  0.12841478310E+00  0.30759584405E-01 0.  0.
         14    1    1    2    0    0  0.10571523875E-01 -0.20742951514E-01 -0.19745204400E-02  0.23365056934E-01  0.00000000000E+00 0.  1.
     999901    1    3    3    0    0 -0.98827591227E-01  0.10803919134E+00 -0.96202013909E-02  0.89215015997E+00  0.88000000000E+00 0.  1.
        -11    1    4    4    0    0  0.71338604306E-01 -0.50844517077E-01  0.10254179332E-01  0.88203008429E-01  0.51100000000E-03 0.  1.
         11    1    4    4    0    0  0.16917463046E-01 -0.36451722746E-01  0.13405424986E-02  0.40211774671E-01  0.51100000000E-03 0. -1.
</event>
<event>
 8    1  0.1112929E+005  0.1043930E+01  0.7957747E-01            NaN
         13   -1    0    0    0    0  0.00000000000E+00  0.00000000000E+00  0.74505805969E-08  0.10566000000E+00  0.10566000000E+00 0.  1.
     999900   -1    0    0    0    0 -0.00000000000E+00 -0.00000000000E+00 -0.74505805969E-08  0.93827000000E+00  0.93827000000E+00 0. -1.
     999902    2    1    2    0    0  0.20516626978E-02 -0.20851443526E-01  0.91116309802E-02  0.10210823779E+01  0.10208267280E+01 0.  0.
     999903    2    3    3    0    0 -0.53037859132E-01 -0.11076229430E+00 -0.46829042548E-01  0.13302372248E+00  0.20519531552E-01 0.  0.
         14    1    1    2    0    0 -0.20516626978E-02  0.20851443526E-01 -0.91116309802E-02  0.22847622109E-01  0.00000000000E+00 0. -1.
     999901    1    3    3    0    0  0.55089521830E-01  0.89910850776E-01  0.55940673529E-01  0.88805865542E+00  0.88000000000E+00 0.  1.
        -11    1    4    4    0    0 -0.27099697145E-01 -0.77593891786E-01 -0.34573703455E-01  0.89167301851E-01  0.51100000000E-03 0.  1.
         11    1    4    4    0    0 -0.25938161987E-01 -0.33168402516E-01 -0.12255339093E-01  0.43856420625E-01  0.51100000000E-03 0. -1.
</event>
<event>
 8    1  0.1112929E+005  0.1043930E+01  0.7957747E-01            NaN
         13   -1    0    0    0    0  0.00000000000E+00  0.00000000000E+00  0.74505805969E-08  0.10566000000E+00  0.10566000000E+00 0. -1.
     999900   -1    0    0    0    0 -0.00000000000E+00 -0.00000000000E+00 -0.74505805969E-08  0.93827000000E+00  0.93827000000E+00 0.  1.
     999902    2    1    2    0    0 -0.22286732892E-02 -0.15348642203E-02 -0.20181782723E-01  0.10235676046E+01  0.10233650444E+01 0.  0.
     999903    2    3    3    0    0 -0.11486081331E+00 -0.51413671145E-01 -0.43552506475E-01  0.13468061230E+00  0.20141362778E-01 0.  0.
         14    1    1    2    0    0  0.22286732892E-02  0.15348642203E-02  0.20181782723E-01  0.20362395407E-01  0.00000000000E+00 0. -1.
     999901    1    3    3    0    0  0.11263214002E+00  0.49878806925E-01  0.23370723751E-01  0.88888699230E+00  0.88000000000E+00 0.  1.
        -11    1    4    4    0    0 -0.42699646932E-01 -0.87416542817E-02 -0.13754785546E-01  0.45707019309E-01  0.51100000000E-03 0. -1.
         11    1    4    4    0    0 -0.72161166373E-01 -0.42672016864E-01 -0.29797720929E-01  0.88973592988E-01  0.51100000000E-03 0.  1.
</event>
<event>
 8    1  0.1112929E+005  0.1043930E+01  0.7957747E-01            NaN
         13   -1    0    0    0    0  0.00000000000E+00  0.00000000000E+00  0.74505805969E-08  0.10566000000E+00  0.10566000000E+00 0. -1.
     999900   -1    0    0    0    0 -0.00000000000E+00 -0.00000000000E+00 -0.74505805969E-08  0.93827000000E+00  0.93827000000E+00 0. -1.
     999902    2    1    2    0    0 -0.11125291675E-01  0.14463650051E-01 -0.20699444072E-01  0.10163358653E+01  0.10159611974E+01 0.  0.
     999903    2    3    3    0    0  0.83929526422E-01 -0.23669249613E-01  0.87562609487E-01  0.12380563679E+00  0.74984223399E-02 0.  0.
         14    1    1    2    0    0  0.11125291675E-01 -0.14463650051E-01  0.20699444072E-01  0.27594134749E-01  0.00000000000E+00 0.  1.
     999901    1    3    3    0    0 -0.95054818097E-01  0.38132899665E-01 -0.10826205356E+00  0.89253022846E+00  0.88000000000E+00 0. -1.
        -11    1    4    4    0    0  0.63479381655E-01 -0.16562504511E-01  0.61555746238E-01  0.89962878271E-01  0.51100000000E-03 0. -1.
         11    1    4    4    0    0  0.20450144767E-01 -0.71067451027E-02  0.26006863249E-01  0.33842758516E-01  0.51100000000E-03 0.  1.
</event>
<event>
 8    1  0.1112929E+005  0.1043930E+01  0.7957747E-01            NaN
         13   -1    0    0    0    0  0.00000000000E+00  0.00000000000E+00  0.74505805969E-08  0.10566000000E+00  0.10566000000E+00 0. -1.
     999900   -1    0    0    0    0 -0.00000000000E+00 -0.00000000000E+00 -0.74505805969E-08  0.93827000000E+00  0.93827000000E+00 0.  1.
     999902    2    1    2    0    0  0.13473293761E-01  0.17051032270E-01 -0.91301028768E-02  0.10203582770E+01  0.10200859706E+01 0.  0.
     999903    2    3    3    0    0 -0.39459154309E-01 -0.82633904255E-01 -0.89512991067E-01  0.12951578849E+00  0.19400435782E-01 0.  0.
         14    1    1    2    0    0 -0.13473293761E-01 -0.17051032270E-01  0.91301028768E-02  0.23571722991E-01  0.00000000000E+00 0. -1.
     999901    1    3    3    0    0  0.52932448070E-01  0.99684936524E-01  0.80382888190E-01  0.89084248851E+00  0.88000000000E+00 0.  1.
        -11    1    4    4    0    0 -0.34603650808E-01 -0.51426136932E-01 -0.60849497083E-01  0.86861859439E-01  0.51100000000E-03 0.  1.
         11    1    4    4    0    0 -0.48555035010E-02 -0.31207767322E-01 -0.28663493984E-01  0.42653929056E-01  0.51100000000E-03 0. -1.
</event>
<event>
 8    1  0.1112929E+005  0.1043930E+01  0.7957747E-01            NaN
         13   -1    0    0    0    0  0.00000000000E+00  0.00000000000E+00  0.74505805969E-08  0.10566000000E+00  0.10566000000E+00 0. -1.
     999900   -1    0    0    0    0 -0.00000000000E+00 -0.00000000000E+00 -0.74505805969E-08  0.93827000000E+00  0.93827000000E+00 0.  1.
     999902    2    1    2    0    0 -0.12193379152E-01  0.20135046821E-01 -0.48343177852E-02  0.10198994105E+01  0.10196162701E+01 0.  0.
     999903    2    3    3    0    0  0.62677816905E-02 -0.12576359880E+00 -0.87741674329E-02  0.12768713096E+00  0.19267836679E-01 0.  0.
         14    1    1    2    0    0  0.12193379152E-01 -0.20135046821E-01  0.48343177852E-02  0.24030589549E-01  0.00000000000E+00 0.  1.
     999901    1    3    3    0    0 -0.18461160842E-01  0.14589864562E+00  0.39398496477E-02  0.89221227949E+00  0.88000000000E+00 0. -1.
        -11    1    4    4    0    0  0.39779108881E-02 -0.46775097811E-01  0.58898348852E-02  0.47314742166E-01  0.51100000000E-03 0. -1.
         11    1    4    4    0    0  0.22898708024E-02 -0.78988500984E-01 -0.14664002318E-01  0.80372388798E-01  0.51100000000E-03 0.  1.
</event>
<event>
 8    1  0.1112929E+005  0.1043930E+01  0.7957747E-01            NaN
         13   -1    0    0    0    0  0.00000000000E+00  0.00000000000E+00  0.74505805969E-08  0.10566000000E+00  0.10566000000E+00 0.  1.
     999900   -1    0    0    0    0 -0.00000000000E+00 -0.00000000000E+00 -0.74505805969E-08  0.93827000000E+00  0.93827000000E+00 0.  1.
     999902    2    1    2    0    0 -0.22791547700E-01 -0.56366195110E-02  0.16253013855E-02  0.10203956054E+01  0.10201241707E+01 0.  0.
     999903    2    3    3    0    0 -0.26798319412E-01  0.12609194321E+00 -0.80084999583E-02  0.13052972863E+00  0.18882423531E-01 0.  0.
         14    1    1    2    0    0  0.22791547700E-01  0.56366195110E-02 -0.16253013855E-02  0.23534394632E-01  0.00000000000E+00 0.  1.
     999901    1    3    3    0    0  0.40067717114E-02 -0.13172856272E+00  0.96338013438E-02  0.88986587674E+00  0.88000000000E+00 0.  1.
        -11    1    4    4    0    0 -0.14841353138E-01  0.54120349757E-01  0.52837141931E-02  0.56368934507E-01  0.51100000000E-03 0.  1.
         11    1    4    4    0    0 -0.11956966274E-01  0.71971593454E-01 -0.13292214151E-01  0.74160794123E-01  0.51100000000E-03 0. -1.
</event>
<event>
 8    1  0.1112929E+005  0.1043930E+01  0.7957747E-01            NaN
         13   -1    0    0    0    0  0.00000000000E+00  0.00000000000E+00  0.74505805969E-08  0.10566000000E+00  0.10566000000E+00 0. -1.
     999900   -1    0    0    0    0 -0.00000000000E+00 -0.00000000000E+00 -0.74505805969E-08  0.93827000000E+00  0.93827000000E+00 0.  1.
     999902    2    1    2    0    0  0.17580756919E-01 -0.16291405740E-01 -0.11119251803E-02  0.10199356404E+01  0.10196533633E+01 0.  0.
     999903    2    3    3    0    0 -0.91479111621E-01 -0.27176676371E-01 -0.84937243797E-01  0.12918358282E+00  0.19158890503E-01 0.  0.
         14    1    1    2    0    0 -0.17580756919E-01  0.16291405740E-01  0.11119251803E-02  0.23994359597E-01  0.00000000000E+00 0. -1.
     999901    1    3    3    0    0  0.10905986854E+00  0.10885270630E-01  0.83825318617E-01  0.89075205758E+00  0.88000000000E+00 0. -1.
        -11    1    4    4    0    0 -0.41122638668E-01 -0.20125569296E-01 -0.47987929331E-01  0.66326559032E-01  0.51100000000E-03 0. -1.
         11    1    4    4    0    0 -0.50356472954E-01 -0.70511070751E-02 -0.36949314466E-01  0.62857023791E-01  0.51100000000E-03 0.  1.
</event>
<event>
 8    1  0.1112929E+005  0.1043930E+01  0.7957747E-01            NaN
         13   -1    0    0    0    0  0.00000000000E+00  0.00000000000E+00  0.74505805969E-08  0.10566000000E+00  0.10566000000E+00 0. -1.
     999900   -1    0    0    0    0 -0.00000000000E+00 -0.00000000000E+00 -0.74505805969E-08  0.93827000000E+00  0.93827000000E+00 0. -1.
     999902    2    1    2    0    0 -0.14587351774E-02 -0.14681780736E-01 -0.15431121965E-01  0.10225804773E+01  0.10223575844E+01 0.  0.
     999903    2    3    3    0    0 -0.34984621833E-01 -0.12151754065E+00  0.38635651217E-01  0.13383918726E+00  0.20731089027E-01 0.  0.
         14    1    1    2    0    0  0.14587351774E-02  0.14681780736E-01  0.15431121965E-01  0.21349522688E-01  0.00000000000E+00 0. -1.
     999901    1    3    3    0    0  0.33525886656E-01  0.10683575991E+00 -0.54066773182E-01  0.88874129005E+00  0.88000000000E+00 0.  1.
        -11    1    4    4    0    0 -0.29332706010E-01 -0.76433420908E-01  0.17478218598E-01  0.83715140326E-01  0.51100000000E-03 0. -1.
         11    1    4    4    0    0 -0.56519158228E-02 -0.45084119743E-01  0.21157432619E-01  0.50124046938E-01  0.51100000000E-03 0.  1.
</event>
<event>
 7    1  0.1112929E+005  0.1043930E+01  0.7957747E-01            NaN
         13   -1    0    0    0    0  0.00000000000E+00  0.00000000000E+00  0.74505805969E-08  0.10566000000E+00  0.10566000000E+00 0. -1.
     999900   -1    0    0    0    0 -0.00000000000E+00 -0.00000000000E+00 -0.74505805969E-08  0.93827000000E+00  0.93827000000E+00 0.  1.
     999903    2    1    2    0    0 -0.87875775961E-01  0.13939875810E-01  0.73267936983E-01  0.11716482701E+00  0.21045996280E-01 0.  0.
         14    1    1    2    0    0 -0.52475104845E-02  0.16107024451E-01 -0.36891199698E-01  0.40594743725E-01  0.00000000000E+00 0.  1.
     999901    1    1    2    0    0  0.93123286445E-01 -0.30046900261E-01 -0.36376737285E-01  0.88617042927E+00  0.88000000000E+00 0.  1.
        -11    1    3    3    0    0 -0.59958328609E-01  0.51054591966E-03  0.53889606523E-01  0.80620175136E-01  0.51100000000E-03 0.  1.
         11    1    3    3    0    0 -0.27917447351E-01  0.13429329891E-01  0.19378330461E-01  0.36544651871E-01  0.51100000000E-03 0. -1.
</event>
<event>
 8    1  0.1112929E+005  0.1043930E+01  0.7957747E-01            NaN
         13   -1    0    0    0    0  0.00000000000E+00  0.00000000000E+00  0.74505805969E-08  0.10566000000E+00  0.10566000000E+00 0. -1.
     999900   -1    0    0    0    0 -0.00000000000E+00 -0.00000000000E+00 -0.74505805969E-08  0.93827000000E+00  0.93827000000E+00 0. -1.
     999902    2    1    2    0    0  0.15048392816E-01 -0.26197575604E-01 -0.68985357902E-02  0.10129403745E+01  0.10124662194E+01 0.  0.
     999903    2    3    3    0    0  0.96211046826E-01 -0.49115567114E-03  0.77099709356E-01  0.12485034435E+00  0.19657989104E-01 0.  0.
         14    1    1    2    0    0 -0.15048392816E-01  0.26197575604E-01  0.68985357902E-02  0.30989625521E-01  0.00000000000E+00 0. -1.
     999901    1    3    3    0    0 -0.81162654010E-01 -0.25706419933E-01 -0.83998245146E-01  0.88809003013E+00  0.88000000000E+00 0. -1.
        -11    1    4    4    0    0  0.67532795778E-01  0.80461131593E-02  0.57655897478E-01  0.89162111222E-01  0.51100000000E-03 0.  1.
         11    1    4    4    0    0  0.28678251048E-01 -0.85372688305E-02  0.19443811877E-01  0.35688233125E-01  0.51100000000E-03 0. -1.
</event>
<event>
 8    1  0.1112929E+005  0.1043930E+01  0.7957747E-01            NaN
         13   -1    0    0    0    0  0.00000000000E+00  0.00000000000E+00  0.74505805969E-08  0.10566000000E+00  0.10566000000E+00 0. -1.
     999900   -1    0    0    0    0 -0.00000000000E+00 -0.00000000000E+00 -0.74505805969E-08  0.93827000000E+00  0.93827000000E+00 0. -1.
     999902    2    1    2    0    0 -0.68434056027E-02  0.15884021979E-01 -0.15853634774E-01  0.10204678584E+01  0.10201981072E+01 0.  0.
     999903    2    3    3    0    0 -0.26460261408E-01  0.57720828979E-01  0.11129251138E+00  0.13013012361E+00  0.22715335115E-01 0.  0.
         14    1    1    2    0    0  0.68434056027E-02 -0.15884021979E-01  0.15853634774E-01  0.23462141634E-01  0.00000000000E+00 0. -1.
     999901    1    3    3    0    0  0.19616855805E-01 -0.41836807000E-01 -0.12714614615E+00  0.89033773476E+00  0.88000000000E+00 0.  1.
        -11    1    4    4    0    0 -0.17365979376E-01  0.16213849459E-01  0.28824517441E-01  0.37357463520E-01  0.51100000000E-03 0.  1.
         11    1    4    4    0    0 -0.90942820315E-02  0.41506979521E-01  0.82467993939E-01  0.92772660089E-01  0.51100000000E-03 0. -1.
</event>
<event>
 8    1  0.1112929E+005  0.1043930E+01  0.7957747E-01            NaN
         13   -1    0    0    0    0  0.00000000000E+00  0.00000000000E+00  0.74505805969E-08  0.10566000000E+00  0.10566000000E+00 0. -1.
     999900   -1    0    0    0    0 -0.00000000000E+00 -0.00000000000E+00 -0.74505805969E-08  0.93827000000E+00  0.93827000000E+00 0. -1.
     999902    2    1    2    0    0 -0.15955643211E-01  0.28523781280E-02 -0.17865770340E-01  0.10198073061E+01  0.10195219650E+01 0.  0.
     999903    2    3    3    0    0 -0.64152275504E-01  0.97507436749E-01  0.54117087002E-01  0.13050194390E+00  0.21883408825E-01 0.  0.
         14    1    1    2    0    0  0.15955643211E-01 -0.28523781280E-02  0.17865770340E-01  0.24122693902E-01  0.00000000000E+00 0. -1.
     999901    1    3    3    0    0  0.48196632293E-01 -0.94655058621E-01 -0.71982857342E-01  0.88930536220E+00  0.88000000000E+00 0. -1.
        -11    1    4    4    0    0 -0.24522179932E-01  0.53376197176E-01  0.19882302526E-01  0.62015504580E-01  0.51100000000E-03 0. -1.
         11    1    4    4    0    0 -0.39630095572E-01  0.44131239572E-01  0.34234784475E-01  0.68486439317E-01  0.51100000000E-03 0.  1.
</event>
<event>
 8    1  0.1112929E+005  0.1043930E+01  0.7957747E-01            NaN
         13   -1    0    0    0    0  0.00000000000E+00  0.00000000000E+00  0.74505805969E-08  0.10566000000E+00  0.10566000000E+00 0.  1.
     999900   -1    0    0    0    0 -0.00000000000E+00 -0.00000000000E+00 -0.74505805969E-08  0.93827000000E+00  0.93827000000E+00 0.  1.
     999902    2    1    2    0    0 -0.20098740422E-01  0.10333685256E-01  0.80588309482E-02  0.10199364764E+01  0.10196542192E+01 0.  0.
     999903    2    3    3    0    0 -0.42316248200E-01 -0.11475663726E+00  0.40032959613E-01  0.13023790311E+00  0.19988068805E-01 0.  0.
         14    1    1    2    0    0  0.20098740422E-01 -0.10333685256E-01 -0.80588309482E-02  0.23993523580E-01  0.00000000000E+00 0.  1.
     999901    1    3    3    0    0  0.22217507778E-01  0.12509032252E+00 -0.31974128665E-01  0.88969857331E+00  0.88000000000E+00 0.  1.
        -11    1    4    4    0    0 -0.31433729593E-02 -0.32843283821E-01  0.13384691261E-01  0.35608610853E-01  0.51100000000E-03 0.  1.
         11    1    4    4    0    0 -0.39172875241E-01 -0.81913353441E-01  0.26648268352E-01  0.94629292261E-01  0.51100000000E-03 0. -1.
</event>
<event>
 8    1  0.1112929E+005  0.1043930E+01  0.7957747E-01            NaN
         13   -1    0    0    0    0  0.00000000000E+00  0.00000000000E+00  0.74505805969E-08  0.10566000000E+00  0.10566000000E+00 0. -1.
     999900   -1    0    0    0    0 -0.00000000000E+00 -0.00000000000E+00 -0.74505805969E-08  0.93827000000E+00  0.93827000000E+00 0. -1.
     999902    2    1    2    0    0 -0.86296598266E-02  0.20947818486E-01  0.84123705990E-02  0.10197628714E+01  0.10194764655E+01 0.  0.
     999903    2    3    3    0    0 -0.10230404469E+00 -0.76581314294E-01  0.75103914537E-02  0.12943280015E+00  0.19121415136E-01 0.  0.
         14    1    1    2    0    0  0.86296598266E-02 -0.20947818486E-01 -0.84123705990E-02  0.24167128649E-01  0.00000000000E+00 0.  1.
     999901    1    3    3    0    0  0.93674384859E-01  0.97529132780E-01  0.90197914524E-03  0.89033007120E+00  0.88000000000E+00 0. -1.
        -11    1    4    4    0    0 -0.63017986093E-01 -0.48409732688E-01  0.13877419282E-01  0.80669775486E-01  0.51100000000E-03 0.  1.
         11    1    4    4    0    0 -0.39286058593E-01 -0.28171581606E-01 -0.63670278286E-02  0.48763024663E-01  0.51100000000E-03 0. -1.
</event>
<event>
 8    1  0.1112929E+005  0.1043930E+01  0.7957747E-01            NaN
         13   -1    0    0    0    0  0.00000000000E+00  0.00000000000E+00  0.74505805969E-08  0.10566000000E+00  0.10566000000E+00 0.  1.
     999900   -1    0    0    0    0 -0.00000000000E+00 -0.00000000000E+00 -0.74505805969E-08  0.93827000000E+00  0.93827000000E+00 0. -1.
     999902    2    1    2    0    0  0.22115652873E-01  0.79482531495E-03  0.69928221239E-02  0.10207215229E+01  0.10204576394E+01 0.  0.
     999903    2    3    3    0    0  0.12842387523E+00  0.32934123770E-01  0.24398604096E-02  0.13372935712E+00  0.17327429134E-01 0.  0.
         14    1    1    2    0    0 -0.22115652873E-01 -0.79482531495E-03 -0.69928221239E-02  0.23208477127E-01  0.00000000000E+00 0. -1.
     999901    1    3    3    0    0 -0.10630822235E+00 -0.32139298455E-01  0.45529617143E-02  0.88699216575E+00  0.88000000000E+00 0. -1.
        -11    1    4    4    0    0  0.48162011733E-01  0.20952328958E-01 -0.41414803694E-03  0.52526299151E-01  0.51100000000E-03 0. -1.
         11    1    4    4    0    0  0.80261863494E-01  0.11981794812E-01  0.28540084465E-02  0.81203057970E-01  0.51100000000E-03 0.  1.
</event>
<event>
 8    1  0.1112929E+005  0.1043930E+01  0.7957747E-01            NaN
         13   -1    0    0    0    0  0.00000000000E+00  0.00000000000E+00  0.74505805969E-08  0.10566000000E+00  0.10566000000E+00 0.  1.
     999900   -1    0    0    0    0 -0.00000000000E+00 -0.00000000000E+00 -0.74505805969E-08  0.93827000000E+00  0.93827000000E+00 0.  1.
     999902    2    1    2    0    0 -0.43900891506E-02  0.19871712588E-01  0.13421426068E-01  0.10195518844E+01  0.10192603948E+01 0.  0.
     999903    2    3    3    0    0  0.57140261062E-02  0.11753652231E+00  0.58598898273E-01  0.13293950447E+00  0.19788804899E-01 0.  0.
         14    1    1    2    0    0  0.43900891506E-02 -0.19871712588E-01 -0.13421426068E-01  0.24378115630E-01  0.00000000000E+00 0. -1.
     999901    1    3    3    0    0 -0.10104115257E-01 -0.97664809717E-01 -0.45177472205E-01  0.88661237990E+00  0.88000000000E+00 0.  1.
        -11    1    4    4    0    0 -0.10038228017E-02  0.10542140970E+00  0.52847442288E-01  0.11793131289E+00  0.51100000000E-03 0. -1.
         11    1    4    4    0    0  0.67178489079E-02  0.12115112606E-01  0.57514559847E-02  0.15008191575E-01  0.51100000000E-03 0.  1.
</event>
<event>
 8    1  0.1112929E+005  0.1043930E+01  0.7957747E-01            NaN
         13   -1    0    0    0    0  0.00000000000E+00  0.00000000000E+00  0.74505805969E-08  0.10566000000E+00  0.10566000000E+00 0.  1.
     999900   -1    0    0    0    0 -0.00000000000E+00 -0.00000000000E+00 -0.74505805969E-08  0.93827000000E+00  0.93827000000E+00 0. -1.
     999902    2    1    2    0    0  0.24370193805E-01 -0.26964793027E-02 -0.12363744217E-01  0.10164702200E+01  0.10160992415E+01 0.  0.
     999903    2    3    3    0    0  0.22027638106E-01  0.93281332467E-01 -0.83116547201E-01  0.12842563381E+00  0.19953926294E-01 0.  0.
         14    1    1    2    0    0 -0.24370193805E-01  0.26964793027E-02  0.12363744217E-01  0.27459780003E-01  0.00000000000E+00 0.  1.
     999901    1    3    3    0    0  0.23425556991E-02 -0.95977811770E-01  0.70752802984E-01  0.88804458618E+00  0.88000000000E+00 0.  1.
        -11    1    4    4    0    0  0.84187586650E-02  0.97262674579E-02 -0.14996816984E-01  0.19764650687E-01  0.51100000000E-03 0.  1.
         11    1    4    4    0    0  0.13608879441E-01  0.83555065009E-01 -0.68119730217E-01  0.10866098313E+00  0.51100000000E-03 0. -1.
</event>
<event>
 8    1  0.1112929E+005  0.1043930E+01  0.7957747E-01            NaN
         13   -1    0    0    0    0  0.00000000000E+00  0.00000000000E+00  0.74505805969E-08  0.10566000000E+00  0.10566000000E+00 0.  1.
     999900   -1    0    0    0    0 -0.00000000000E+00 -0.00000000000E+00 -0.74505805969E-08  0.93827000000E+00  0.93827000000E+00 0. -1.
     999902    2    1    2    0    0  0.50655955948E-02  0.22392495064E-01  0.62873386891E-02  0.10201263297E+01  0.10198485739E+01 0.  0.
     999903    2    3    3    0    0 -0.74034510648E-01 -0.59683042420E-03 -0.10419056457E+00  0.12940151076E+00  0.20189409801E-01 0.  0.
         14    1    1    2    0    0 -0.50655955948E-02 -0.22392495064E-01 -0.62873386891E-02  0.23803670341E-01  0.00000000000E+00 0.  1.
     999901    1    3    3    0    0  0.79100106243E-01  0.22989325488E-01  0.11047790326E+00  0.89072481890E+00  0.88000000000E+00 0.  1.
        -11    1    4    4    0    0 -0.51453962866E-02  0.55017917164E-02 -0.11359844411E-01  0.13640088016E-01  0.51100000000E-03 0. -1.
         11    1    4    4    0    0 -0.68889114361E-01 -0.60986221406E-02 -0.92830720159E-01  0.11576142274E+00  0.51100000000E-03 0.  1.
</event>
<event>
 8    1  0.1112929E+005  0.1043930E+01  0.7957747E-01            NaN
         13   -1    0    0    0    0  0.00000000000E+00  0.00000000000E+00  0.74505805969E-08  0.10566000000E+00  0.10566000000E+00 0.  1.
     999900   -1    0    0    0    0 -0.00000000000E+00 -0.00000000000E+00 -0.74505805969E-08  0.93827000000E+00  0.93827000000E+00 0. -1.
     999902    2    1    2    0    0 -0.38698956512E-02 -0.11824568929E-01  0.18835186271E-01  0.10213565473E+01  0.10211070639E+01 0.  0.
     999903    2    3    3    0    0 -0.25767151571E-01 -0.29573305843E-01  0.12692767727E+00  0.13429482791E+00  0.19645330978E-01 0.  0.
         14    1    1    2    0    0  0.38698956512E-02  0.11824568929E-01 -0.18835186271E-01  0.22573452651E-01  0.00000000000E+00 0. -1.
     999901    1    3    3    0    0  0.21897255920E-01  0.17748736913E-01 -0.10809249100E+00  0.88706171944E+00  0.88000000000E+00 0. -1.
        -11    1    4    4    0    0 -0.24672391915E-01 -0.18094138839E-01  0.10674647689E+00  0.11104591948E+00  0.51100000000E-03 0. -1.
         11    1    4    4    0    0 -0.10947596557E-02 -0.11479167003E-01  0.20181200377E-01  0.23248908436E-01  0.51100000000E-03 0.  1.
</event>
<event>
 8    1  0.1112929E+005  0.1043930E+01  0.7957747E-01            NaN
         13   -1    0    0    0    0  0.00000000000E+00  0.00000000000E+00  0.74505805969E-08  0.10566000000E+00  0.10566000000E+00 0.  1.
     999900   -1    0    0    0    0 -0.00000000000E+00 -0.00000000000E+00 -0.74505805969E-08  0.93827000000E+00  0.93827000000E+00 0. -1.
     999902    2    1    2    0    0  0.18254847604E-01 -0.14212342674E-01 -0.40728915278E-02  0.10204391807E+01  0.10201687620E+01 0.  0.
     999903    2    3    3    0    0  0.50238369611E-01 -0.12006762526E+00 -0.21384224819E-01  0.13334957487E+00  0.19613659279E-01 0.  0.
         14    1    1    2    0    0 -0.18254847604E-01  0.14212342674E-01  0.40728915278E-02  0.23490819287E-01  0.00000000000E+00 0. -1.
     999901    1    3    3    0    0 -0.31983522006E-01  0.10585528259E+00  0.17311333291E-01  0.88708960584E+00  0.88000000000E+00 0.  1.
        -11    1    4    4    0    0  0.28985978214E-01 -0.65457836597E-01 -0.21495555213E-01  0.74747811472E-01  0.51100000000E-03 0. -1.
         11    1    4    4    0    0  0.21252391397E-01 -0.54609788665E-01  0.11133039418E-03  0.58601763400E-01  0.51100000000E-03 0.  1.
</event>
<event>
 8    1  0.1112929E+005  0.1043930E+01  0.7957747E-01            NaN
         13   -1    0    0    0    0  0.00000000000E+00  0.00000000000E+00  0.74505805969E-08  0.10566000000E+00  0.10566000000E+00 0. -1.
     999900   -1    0    0    0    0 -0.00000000000E+00 -0.00000000000E+00 -0.74505805969E-08  0.93827000000E+00  0.93827000000E+00 0. -1.
     999902    2    1    2    0    0 -0.44504637051E-02  0.17003568608E-01 -0.98761023122E-02  0.10237690137E+01  0.10235704802E+01 0.  0.
     999903    2    3    3    0    0  0.12934982815E+00 -0.22561735375E-01 -0.12125899842E-01  0.13277350697E+00  0.15535660963E-01 0.  0.
         14    1    1    2    0    0  0.44504637051E-02 -0.17003568608E-01  0.98761023122E-02  0.20160986322E-01  0.00000000000E+00 0. -1.
     999901    1    3    3    0    0 -0.13380029185E+00  0.39565303983E-01  0.22497975294E-02  0.89099550670E+00  0.88000000000E+00 0.  1.
        -11    1    4    4    0    0  0.55447848819E-01 -0.22424456313E-02 -0.28586066072E-02  0.55569103411E-01  0.51100000000E-03 0. -1.
         11    1    4    4    0    0  0.73901979329E-01 -0.20319289743E-01 -0.92672932344E-02  0.77204403562E-01  0.51100000000E-03 0.  1.
</event>
<event>
 8    1  0.1112929E+005  0.1043930E+01  0.7957747E-01            NaN
         13   -1    0    0    0    0  0.00000000000E+00  0.00000000000E+00  0.74505805969E-08  0.10566000000E+00  0.10566000000E+00 0. -1.
     999900   -1    0    0    0    0 -0.00000000000E+00 -0.00000000000E+00 -0.74505805969E-08  0.93827000000E+00  0.93827000000E+00 0. -1.
     999902    2    1    2    0    0  0.20480199036E-01  0.33831777453E-02  0.89210470062E-02  0.10213364274E+01  0.10210864941E+01 0.  0.
     999903    2    3    3    0    0  0.80434522219E-01  0.61806008683E-01 -0.83032282809E-01  0.13259396586E+00  0.19927486529E-01 0.  0.
         14    1    1    2    0    0 -0.20480199036E-01 -0.33831777453E-02 -0.89210470062E-02  0.22593572623E-01  0.00000000000E+00 0.  1.
     999901    1    3    3    0    0 -0.59954323183E-01 -0.58422830938E-01  0.91953329816E-01  0.88874246152E+00  0.88000000000E+00 0.  1.
        -11    1    4    4    0    0  0.73868502770E-01  0.59858155133E-01 -0.70718401634E-01  0.11849433695E+00  0.51100000000E-03 0.  1.
         11    1    4    4    0    0  0.65660194487E-02  0.19478535498E-02 -0.12313881176E-01  0.14099628912E-01  0.51100000000E-03 0. -1.
</event>
<event>
 7    1  0.1112929E+005  0.1043930E+01  0.7957747E-01            NaN
         13   -1    0    0    0    0  0.00000000000E+00  0.00000000000E+00  0.74505805969E-08  0.10566000000E+00  0.10566000000E+00 0. -1.
     999900   -1    0    0    0    0 -0.00000000000E+00 -0.00000000000E+00 -0.74505805969E-08  0.93827000000E+00  0.93827000000E+00 0. -1.
     999903    2    1    2    0    0  0.88125013890E-01 -0.53542917296E-01  0.31654737203E-01  0.10902226046E+00  0.15841995536E-01 0.  0.
         14    1    1    2    0    0  0.11171662183E-01  0.16876561668E-02 -0.46327215706E-01  0.47685061962E-01  0.00000000000E+00 0.  1.
     999901    1    1    2    0    0 -0.99296676073E-01  0.51855261129E-01  0.14672478502E-01  0.88722267758E+00  0.88000000000E+00 0. -1.
        -11    1    3    3    0    0  0.58369891737E-01 -0.26621200146E-01  0.18007562241E-01  0.66635320795E-01  0.51100000000E-03 0.  1.
         11    1    3    3    0    0  0.29755122152E-01 -0.26921717149E-01  0.13647174963E-01  0.42386939663E-01  0.51100000000E-03 0. -1.
</event>
<event>
 8    1  0.1112929E+005  0.1043930E+01  0.7957747E-01            NaN
         13   -1    0    0    0    0  0.00000000000E+00  0.00000000000E+00  0.74505805969E-08  0.10566000000E+00  0.10566000000E+00 0. -1.
     999900   -1    0    0    0    0 -0.00000000000E+00 -0.00000000000E+00 -0.74505805969E-08  0.93827000000E+00  0.93827000000E+00 0. -1.
     999902    2    1    2    0    0 -0.20983403794E-01 -0.77525702221E-02 -0.25646098839E-02  0.10214137214E+01  0.10211655142E+01 0.  0.
     999903    2    3    3    0    0  0.81629749980E-02 -0.19754911309E-01 -0.12888798783E+00  0.13183451556E+00  0.17644698994E-01 0.  0.
         14    1    1    2    0    0  0.20983403794E-01  0.77525702221E-02  0.25646098839E-02  0.22516278637E-01  0.00000000000E+00 0. -1.
     999901    1    3    3    0    0 -0.29146378791E-01  0.12002341087E-01  0.12632337795E+00  0.88957920581E+00  0.88000000000E+00 0.  1.
        -11    1    4    4    0    0  0.10129416790E-01 -0.22195353138E-01 -0.10932029578E+00  0.11201083419E+00  0.51100000000E-03 0.  1.
         11    1    4    4    0    0 -0.19664417917E-02  0.24404418285E-02 -0.19567692052E-01  0.19823681366E-01  0.51100000000E-03 0. -1.
</event>
<event>
 8    1  0.1112929E+005  0.1043930E+01  0.7957747E-01            NaN
         13   -1    0    0    0    0  0.00000000000E+00  0.00000000000E+00  0.74505805969E-08  0.10566000000E+00  0.10566000000E+00 0.  1.
     999900   -1    0    0    0    0 -0.00000000000E+00 -0.00000000000E+00 -0.74505805969E-08  0.93827000000E+00  0.93827000000E+00 0.  1.
     999902    2    1    2    0    0  0.17959083646E-01 -0.15224737089E-01  0.12897060552E-02  0.10203506733E+01  0.10200781891E+01 0.  0.
     999903    2    3    3    0    0  0.26161479716E-01 -0.21909884380E-01  0.12549135121E+00  0.13156609922E+00  0.19927197020E-01 0.  0.
         14    1    1    2    0    0 -0.17959083646E-01  0.15224737089E-01 -0.12897060552E-02  0.23579326677E-01  0.00000000000E+00 0. -1.
     999901    1    3    3    0    0 -0.82023960699E-02  0.66851472909E-02 -0.12420164516E+00  0.88878457410E+00  0.88000000000E+00 0.  1.
        -11    1    4    4    0    0  0.93179813563E-02 -0.11182383248E-01  0.86889929428E-01  0.88102164722E-01  0.51100000000E-03 0.  1.
         11    1    4    4    0    0  0.16843498360E-01 -0.10727501132E-01  0.38601421786E-01  0.43463934502E-01  0.51100000000E-03 0. -1.
</event>
<event>
 8    1  0.1112929E+005  0.1043930E+01  0.7957747E-01            NaN
         13   -1    0    0    0    0  0.00000000000E+00  0.00000000000E+00  0.74505805969E-08  0.10566000000E+00  0.10566000000E+00 0.  1.
     999900   -1    0    0    0    0 -0.00000000000E+00 -0.00000000000E+00 -0.74505805969E-08  0.93827000000E+00  0.93827000000E+00 0.  1.
     999902    2    1    2    0    0  0.14558844887E-01  0.10776808497E-01 -0.23713056062E-01  0.10140902850E+01  0.10136511715E+01 0.  0.
     999903    2    3    3    0    0  0.94419217344E-01  0.65979018629E-01  0.46912694874E-01  0.12593885655E+00  0.19788257774E-01 0.  0.
         14    1    1    2    0    0 -0.14558844887E-01 -0.10776808497E-01  0.23713056062E-01  0.29839715039E-01  0.00000000000E+00 0.  1.
     999901    1    3    3    0    0 -0.79860372456E-01 -0.55202210132E-01 -0.70625750935E-01  0.88815142841E+00  0.88000000000E+00 0.  1.
        -11    1    4    4    0    0  0.71847710391E-01  0.59631383114E-01  0.35994014210E-01  0.10006910373E+00  0.51100000000E-03 0. -1.
         11    1    4    4    0    0  0.22571506953E-01  0.63476355151E-02  0.10918680664E-01  0.25869752824E-01  0.51100000000E-03 0.  1.
</event>
<event>
 8    1  0.1112929E+005  0.1043930E+01  0.7957747E-01            NaN
         13   -1    0    0    0    0  0.00000000000E+00  0.00000000000E+00  0.74505805969E-08  0.10566000000E+00  0.10566000000E+00 0. -1.
     999900   -1    0    0    0    0 -0.00000000000E+00 -0.00000000000E+00 -0.74505805969E-08  0.93827000000E+00  0.93827000000E+00 0. -1.
     999902    2    1    2    0    0  0.20480780963E-01 -0.11492949631E-01 -0.25086801713E-02  0.10203112838E+01  0.10200378777E+01 0.  0.
     999903    2    3    3    0    0 -0.54575826977E-01 -0.96157278593E-01  0.66239140704E-01  0.13040802731E+00  0.19846579248E-01 0.  0.
         14    1    1    2    0    0 -0.20480780963E-01  0.11492949631E-01  0.25086801713E-02  0.23618716229E-01  0.00000000000E+00 0. -1.
     999901    1    3    3    0    0  0.75056607941E-01  0.84664328962E-01 -0.68747820875E-01  0.88990325647E+00  0.88000000000E+00 0.  1.
        -11    1    4    4    0    0 -0.22950552443E-02 -0.18472833799E-01  0.12740943638E-01  0.22563369273E-01  0.51100000000E-03 0. -1.
         11    1    4    4    0    0 -0.52280771733E-01 -0.77684444794E-01  0.53498197065E-01  0.10784465803E+00  0.51100000000E-03 0.  1.
</event>
<event>
 8    1  0.1112929E+005  0.1043930E+01  0.7957747E-01            NaN
         13   -1    0    0    0    0  0.00000000000E+00  0.00000000000E+00  0.74505805969E-08  0.10566000000E+00  0.10566000000E+00 0. -1.
     999900   -1    0    0    0    0 -0.00000000000E+00 -0.00000000000E+00 -0.74505805969E-08  0.93827000000E+00  0.93827000000E+00 0.  1.
     999902    2    1    2    0    0  0.17274110511E-01 -0.80734629779E-04  0.16169675329E-01  0.10202686431E+01  0.10199942373E+01 0.  0.
     999903    2    3    3    0    0 -0.71730437825E-01  0.10159694123E+00  0.31699602342E-01  0.12981856696E+00  0.19514132368E-01 0.  0.
         14    1    1    2    0    0 -0.17274110511E-01  0.80734629779E-04 -0.16169675329E-01  0.23661356940E-01  0.00000000000E+00 0.  1.
     999901    1    3    3    0    0  0.89004548335E-01 -0.10167767586E+00 -0.15529927013E-01  0.89045007610E+00  0.88000000000E+00 0. -1.
        -11    1    4    4    0    0 -0.24206075414E-01  0.20328640373E-01  0.54320755528E-02  0.32077348273E-01  0.51100000000E-03 0.  1.
         11    1    4    4    0    0 -0.47524362410E-01  0.81268300853E-01  0.26267526789E-01  0.97741218688E-01  0.51100000000E-03 0. -1.
</event>
<event>
 8    1  0.1112929E+005  0.1043930E+01  0.7957747E-01            NaN
         13   -1    0    0    0    0  0.00000000000E+00  0.00000000000E+00  0.74505805969E-08  0.10566000000E+00  0.10566000000E+00 0.  1.
     999900   -1    0    0    0    0 -0.00000000000E+00 -0.00000000000E+00 -0.74505805969E-08  0.93827000000E+00  0.93827000000E+00 0. -1.
     999902    2    1    2    0    0 -0.21565007544E-02  0.14543840079E-01  0.18876696904E-01  0.10200029553E+01  0.10197222786E+01 0.  0.
     999903    2    3    3    0    0  0.87574915345E-01 -0.20945688805E-01  0.93872415103E-01  0.13155735125E+00  0.19677872682E-01 0.  0.
         14    1    1    2    0    0  0.21565007544E-02 -0.14543840079E-01 -0.18876696904E-01  0.23927044651E-01  0.00000000000E+00 0. -1.
     999901    1    3    3    0    0 -0.89731416099E-01  0.35489528883E-01 -0.74995718199E-01  0.88844560410E+00  0.88000000000E+00 0. -1.
        -11    1    4    4    0    0  0.60637106568E-01 -0.15943678796E-01  0.77303258209E-01  0.99534488682E-01  0.51100000000E-03 0. -1.
         11    1    4    4    0    0  0.26937808776E-01 -0.50020100087E-02  0.16569156894E-01  0.32022862567E-01  0.51100000000E-03 0.  1.
</event>
<event>
 8    1  0.1112929E+005  0.1043930E+01  0.7957747E-01            NaN
         13   -1    0    0    0    0  0.00000000000E+00  0.00000000000E+00  0.74505805969E-08  0.10566000000E+00  0.10566000000E+00 0. -1.
     999900   -1    0    0    0    0 -0.00000000000E+00 -0.00000000000E+00 -0.74505805969E-08  0.93827000000E+00  0.93827000000E+00 0. -1.
     999902    2    1    2    0    0 -0.20634420087E-01  0.17547073386E-02  0.11079642903E-01  0.10204434767E+01  0.10201731580E+01 0.  0.
     999903    2    3    3    0    0  0.33538821386E-01  0.58047834514E-01  0.11112555844E+00  0.13133558590E+00  0.20143057165E-01 0.  0.
         14    1    1    2    0    0  0.20634420087E-01 -0.17547073386E-02 -0.11079642903E-01  0.23486523307E-01  0.00000000000E+00 0.  1.
     999901    1    3    3    0    0 -0.54173241473E-01 -0.56293127175E-01 -0.10004591554E+00  0.88910789080E+00  0.88000000000E+00 0. -1.
        -11    1    4    4    0    0  0.24876159823E-02  0.12198252539E-01  0.35350610970E-01  0.37482161294E-01  0.51100000000E-03 0.  1.
         11    1    4    4    0    0  0.31051205404E-01  0.45849581974E-01  0.75774947473E-01  0.93853424604E-01  0.51100000000E-03 0. -1.
</event>
<event>
 8    1  0.1112929E+005  0.1043930E+01  0.7957747E-01            NaN
         13   -1    0    0    0    0  0.00000000000E+00  0.00000000000E+00  0.74505805969E-08  0.10566000000E+00  0.10566000000E+00 0.  1.
     999900   -1    0    0    0    0 -0.00000000000E+00 -0.00000000000E+00 -0.74505805969E-08  0.93827000000E+00  0.93827000000E+00 0. -1.
     999902    2    1    2    0    0 -0.14792438428E-01 -0.19644696222E-01  0.70412121811E-02  0.10183505357E+01  0.10180292258E+01 0.  0.
     999903    2    3    3    0    0  0.70866476540E-01  0.26484226754E-01  0.10091059498E+00  0.12802655632E+00  0.22008616045E-01 0.  0.
         14    1    1    2    0    0  0.14792438428E-01  0.19644696222E-01 -0.70412121811E-02  0.25579464288E-01  0.00000000000E+00 0. -1.
     999901    1    3    3    0    0 -0.85658914968E-01 -0.46128922976E-01 -0.93869382801E-01  0.89032397939E+00  0.88000000000E+00 0. -1.
        -11    1    4    4    0    0  0.59563056332E-01  0.21301729597E-01  0.68166304799E-01  0.92996922500E-01  0.51100000000E-03 0.  1.
         11    1    4    4    0    0  0.11303420208E-01  0.51824971574E-02  0.32744290182E-01  0.35029633822E-01  0.51100000000E-03 0. -1.
</event>
<event>
 8    1  0.1112929E+005  0.1043930E+01  0.7957747E-01            NaN
         13   -1    0    0    0    0  0.00000000000E+00  0.00000000000E+00  0.74505805969E-08  0.10566000000E+00  0.10566000000E+00 0.  1.
     999900   -1    0    0    0    0 -0.00000000000E+00 -0.00000000000E+00 -0.74505805969E-08  0.93827000000E+00  0.93827000000E+00 0.  1.
     999902    2    1    2    0    0  0.66340818478E-02 -0.24622208219E-01  0.65398436382E-02  0.10176044661E+01  0.10172638870E+01 0.  0.
     999903    2    3    3    0    0  0.57378077281E-01  0.69178091074E-01  0.88030100487E-01  0.12742801665E+00  0.20266938555E-01 0.  0.
         14    1    1    2    0    0 -0.66340818478E-02  0.24622208219E-01 -0.65398436382E-02  0.26325533885E-01  0.00000000000E+00 0. -1.
     999901    1    3    3    0    0 -0.50743995433E-01 -0.93800299293E-01 -0.81490256849E-01  0.89017644946E+00  0.88000000000E+00 0. -1.
        -11    1    4    4    0    0  0.13510846334E-01  0.31401141170E-01  0.34755918095E-01  0.48752534283E-01  0.51100000000E-03 0.  1.
         11    1    4    4    0    0  0.43867230947E-01  0.37776949904E-01  0.53274182392E-01  0.78675482367E-01  0.51100000000E-03 0. -1.
</event>
<event>
 8    1  0.1112929E+005  0.1043930E+01  0.7957747E-01            NaN
         13   -1    0    0    0    0  0.00000000000E+00  0.00000000000E+00  0.74505805969E-08  0.10566000000E+00  0.10566000000E+00 0. -1.
     999900   -1    0    0    0    0 -0.00000000000E+00 -0.00000000000E+00 -0.74505805969E-08  0.93827000000E+00  0.93827000000E+00 0. -1.
     999902    2    1    2    0    0 -0.40457830502E-02 -0.66076204592E-03  0.23136870216E-01  0.10204327719E+01  0.10201622038E+01 0.  0.
     999903    2    3    3    0    0  0.78370104548E-01  0.15696566125E-01  0.10384918926E+00  0.13275353973E+00  0.21227169482E-01 0.  0.
         14    1    1    2    0    0  0.40457830502E-02  0.66076204592E-03 -0.23136870216E-01  0.23497228142E-01  0.00000000000E+00 0.  1.
     999901    1    3    3    0    0 -0.82415887598E-01 -0.16357328171E-01 -0.80712319047E-01  0.88767923213E+00  0.88000000000E+00 0.  1.
        -11    1    4    4    0    0  0.20931493592E-01  0.12950716430E-01  0.38565820374E-01  0.45754039189E-01  0.51100000000E-03 0.  1.
         11    1    4    4    0    0  0.57438610956E-01  0.27458496950E-02  0.65283368889E-01  0.86999500536E-01  0.51100000000E-03 0. -1.
</event>
<event>
 8    1  0.1112929E+005  0.1043930E+01  0.7957747E-01            NaN
         13   -1    0    0    0    0  0.00000000000E+00  0.00000000000E+00  0.74505805969E-08  0.10566000000E+00  0.10566000000E+00 0.  1.
     999900   -1    0    0    0    0 -0.00000000000E+00 -0.00000000000E+00 -0.74505805969E-08  0.93827000000E+00  0.93827000000E+00 0.  1.
     999902    2    1    2    0    0 -0.12672199955E-01 -0.29775222514E-02  0.19355864908E-01  0.10206040531E+01  0.10203374606E+01 0.  0.
     999903    2    3    3    0    0  0.11881099672E+00  0.18348379315E-01  0.45820558515E-01  0.13018673239E+00  0.19908433993E-01 0.  0.
         14    1    1    2    0    0  0.12672199955E-01  0.29775222514E-02 -0.19355864908E-01  0.23325946857E-01  0.00000000000E+00 0. -1.
     999901    1    3    3    0    0 -0.13148319667E+00 -0.21325901566E-01 -0.26464693607E-01  0.89041732075E+00  0.88000000000E+00 0. -1.
        -11    1    4    4    0    0  0.52453101182E-01  0.17311913268E-01  0.24974472495E-01  0.60621906618E-01  0.51100000000E-03 0. -1.
         11    1    4    4    0    0  0.66357895534E-01  0.10364660472E-02  0.20846086020E-01  0.69564825774E-01  0.51100000000E-03 0.  1.
</event>
<event>
 8    1  0.1112929E+005  0.1043930E+01  0.7957747E-01            NaN
         13   -1    0    0    0    0  0.00000000000E+00  0.00000000000E+00  0.74505805969E-08  0.10566000000E+00  0.10566000000E+00 0.  1.
     999900   -1    0    0    0    0 -0.00000000000E+00 -0.00000000000E+00 -0.74505805969E-08  0.93827000000E+00  0.93827000000E+00 0.  1.
     999902    2    1    2    0    0 -0.69448072991E-02 -0.35634300011E-02  0.22481553733E-01  0.10201319194E+01  0.10198542956E+01 0.  0.
     999903    2    3    3    0    0  0.61521890213E-01  0.87335677655E-01  0.73992824579E-01  0.13131036956E+00  0.18841748807E-01 0.  0.
         14    1    1    2    0    0  0.69448072991E-02  0.35634300011E-02 -0.22481553733E-01  0.23798080596E-01  0.00000000000E+00 0. -1.
     999901    1    3    3    0    0 -0.68466697513E-01 -0.90899107656E-01 -0.51511270846E-01  0.88882154984E+00  0.88000000000E+00 0.  1.
        -11    1    4    4    0    0  0.13714303853E-01  0.84286900032E-02  0.13167311864E-01  0.20802984595E-01  0.51100000000E-03 0.  1.
         11    1    4    4    0    0  0.47807586361E-01  0.78906987652E-01  0.60825512716E-01  0.11050738497E+00  0.51100000000E-03 0. -1.
</event>
<event>
 8    1  0.1112929E+005  0.1043930E+01  0.7957747E-01            NaN
         13   -1    0    0    0    0  0.00000000000E+00  0.00000000000E+00  0.74505805969E-08  0.10566000000E+00  0.10566000000E+00 0. -1.
     999900   -1    0    0    0    0 -0.00000000000E+00 -0.00000000000E+00 -0.74505805969E-08  0.93827000000E+00  0.93827000000E+00 0. -1.
     999902    2    1    2    0    0  0.17752159271E-01 -0.11235220204E-01  0.12726153428E-01  0.10193673391E+01  0.10190713653E+01 0.  0.
     999903    2    3    3    0    0  0.10295393873E+00  0.22285225077E-01  0.77417645654E-01  0.13225519696E+00  0.20044962193E-01 0.  0.
         14    1    1    2    0    0 -0.17752159271E-01  0.11235220204E-01 -0.12726153428E-01  0.24562660949E-01  0.00000000000E+00 0. -1.
     999901    1    3    3    0    0 -0.85201779455E-01 -0.33520445280E-01 -0.64691492226E-01  0.88711214209E+00  0.88000000000E+00 0. -1.
        -11    1    4    4    0    0  0.79461860766E-01  0.11881282408E-01  0.66649691954E-01  0.10439250331E+00  0.51100000000E-03 0.  1.
         11    1    4    4    0    0  0.23492077959E-01  0.10403942669E-01  0.10767953700E-01  0.27862693656E-01  0.51100000000E-03 0. -1.
</event>
<event>
 8    1  0.1112929E+005  0.1043930E+01  0.7957747E-01            NaN
         13   -1    0    0    0    0  0.00000000000E+00  0.00000000000E+00  0.74505805969E-08  0.10566000000E+00  0.10566000000E+00 0.  1.
     999900   -1    0    0    0    0 -0.00000000000E+00 -0.00000000000E+00 -0.74505805969E-08  0.93827000000E+00  0.93827000000E+00 0.  1.
     999902    2    1    2    0    0 -0.10021831399E-01 -0.20075540247E-01  0.54449151803E-02  0.10208407921E+01  0.10205796447E+01 0.  0.
     999903    2    3    3    0    0  0.66544840448E-01  0.10571203161E+00  0.23318883311E-01  0.12842583972E+00  0.18605820873E-01 0.  0.
         14    1    1    2    0    0  0.10021831399E-01  0.20075540247E-01 -0.54449151803E-02  0.23089207915E-01  0.00000000000E+00 0. -1.
     999901    1    3    3    0    0 -0.76566671847E-01 -0.12578757186E+00 -0.17873968131E-01  0.89241495237E+00  0.88000000000E+00 0.  1.
        -11    1    4    4    0    0  0.46507233180E-01  0.83704298352E-01  0.11695957025E-01  0.96469626476E-01  0.51100000000E-03 0. -1.
         11    1    4    4    0    0  0.20037607268E-01  0.22007733261E-01  0.11622926286E-01  0.31956213242E-01  0.51100000000E-03 0.  1.
</event>
<event>
 8    1  0.1112929E+005  0.1043930E+01  0.7957747E-01            NaN
         13   -1    0    0    0    0  0.00000000000E+00  0.00000000000E+00  0.74505805969E-08  0.10566000000E+00  0.10566000000E+00 0. -1.
     999900   -1    0    0    0    0 -0.00000000000E+00 -0.00000000000E+00 -0.74505805969E-08  0.93827000000E+00  0.93827000000E+00 0.  1.
     999902    2    1    2    0    0 -0.10858647725E-01  0.16045644333E-01 -0.14275750388E-01  0.10198640493E+01  0.10195800651E+01 0.  0.
     999903    2    3    3    0    0 -0.11998389220E+00 -0.90486376993E-02 -0.50688669260E-01  0.13202175329E+00  0.19554792777E-01 0.  0.
         14    1    1    2    0    0  0.10858647725E-01 -0.16045644333E-01  0.14275750388E-01  0.24065950669E-01  0.00000000000E+00 0.  1.
     999901    1    3    3    0    0  0.10912524447E+00  0.25094282032E-01  0.36412918872E-01  0.88784229604E+00  0.88000000000E+00 0. -1.
        -11    1    4    4    0    0 -0.99741810648E-01 -0.38551067035E-02 -0.48580399573E-01  0.11101174254E+00  0.51100000000E-03 0. -1.
         11    1    4    4    0    0 -0.20242081548E-01 -0.51935309958E-02 -0.21082696871E-02  0.21010010749E-01  0.51100000000E-03 0.  1.
</event>
<event>
 8    1  0.1196519E+005  0.1043930E+01  0.7957747E-01            NaN
         13   -1    0    0    0    0  0.00000000000E+00  0.00000000000E+00  0.74505805969E-08  0.10566000000E+00  0.10566000000E+00 0.  1.
     999900   -1    0    0    0    0 -0.00000000000E+00 -0.00000000000E+00 -0.74505805969E-08  0.93827000000E+00  0.93827000000E+00 0.  1.
     999902    2    1    2    0    0  0.74800779221E-02  0.22005965784E-01  0.16035097558E-01  0.10156928180E+01  0.10153002324E+01 0.  0.
     999903    2    3    3    0    0  0.80552057786E-01  0.86739160638E-01 -0.44888823125E-01  0.12820105751E+00  0.20203680445E-01 0.  0.
         14    1    1    2    0    0 -0.74800779221E-02 -0.22005965784E-01 -0.16035097558E-01  0.28237182039E-01  0.00000000000E+00 0. -1.
     999901    1    3    3    0    0 -0.73071979863E-01 -0.64733194854E-01  0.60923920683E-01  0.88749176045E+00  0.88000000000E+00 0.  1.
        -11    1    4    4    0    0  0.36618524610E-01  0.51308928817E-01 -0.17252842363E-01  0.65356286703E-01  0.51100000000E-03 0. -1.
         11    1    4    4    0    0  0.43933533175E-01  0.35430231820E-01 -0.27635980762E-01  0.62844770807E-01  0.51100000000E-03 0.  1.
</event>
<event>
 8    1  0.1112929E+005  0.1043930E+01  0.7957747E-01            NaN
         13   -1    0    0    0    0  0.00000000000E+00  0.00000000000E+00  0.74505805969E-08  0.10566000000E+00  0.10566000000E+00 0. -1.
     999900   -1    0    0    0    0 -0.00000000000E+00 -0.00000000000E+00 -0.74505805969E-08  0.93827000000E+00  0.93827000000E+00 0.  1.
     999902    2    1    2    0    0  0.14509369803E-01  0.17493701807E-01 -0.60061446233E-02  0.10204220186E+01  0.10201512000E+01 0.  0.
     999903    2    3    3    0    0  0.64766041306E-01  0.10458209476E+00  0.47737977338E-01  0.13306721255E+00  0.17202148829E-01 0.  0.
         14    1    1    2    0    0 -0.14509369803E-01 -0.17493701807E-01  0.60061446233E-02  0.23507981373E-01  0.00000000000E+00 0.  1.
     999901    1    3    3    0    0 -0.50256671502E-01 -0.87088392957E-01 -0.53744121962E-01  0.88735480607E+00  0.88000000000E+00 0. -1.
        -11    1    4    4    0    0  0.43412807379E-01  0.71253671499E-01  0.40794700821E-01  0.92877479954E-01  0.51100000000E-03 0. -1.
         11    1    4    4    0    0  0.21353233927E-01  0.33328423265E-01  0.69432765173E-02  0.40189732598E-01  0.51100000000E-03 0.  1.
</event>
<event>
 7    1  0.1112929E+005  0.1043930E+01  0.7957747E-01            NaN
         13   -1    0    0    0    0  0.00000000000E+00  0.00000000000E+00  0.74505805969E-08  0.10566000000E+00  0.10566000000E+00 0.  1.
     999900   -1    0    0    0    0 -0.00000000000E+00 -0.00000000000E+00 -0.74505805969E-08  0.93827000000E+00  0.93827000000E+00 0.  1.
     999903    2    1    2    0    0 -0.49345487000E-01 -0.99094679803E-01  0.14859724408E-01  0.11350397920E+00  0.20189334595E-01 0.  0.
         14    1    1    2    0    0 -0.29398101836E-01 -0.20691934354E-01 -0.14666453641E-01  0.38826658384E-01  0.00000000000E+00 0. -1.
     999901    1    1    2    0    0  0.78743588836E-01  0.11978661416E+00 -0.19327076752E-03  0.89159936242E+00  0.88000000000E+00 0.  1.
        -11    1    3    3    0    0 -0.15347892883E-01 -0.14405885570E-01  0.83455468568E-04  0.21056007238E-01  0.51100000000E-03 0. -1.
         11    1    3    3    0    0 -0.33997594117E-01 -0.84688794233E-01  0.14776268940E-01  0.92447971958E-01  0.51100000000E-03 0.  1.
</event>
<event>
 8    1  0.1112929E+005  0.1043930E+01  0.7957747E-01            NaN
         13   -1    0    0    0    0  0.00000000000E+00  0.00000000000E+00  0.74505805969E-08  0.10566000000E+00  0.10566000000E+00 0.  1.
     999900   -1    0    0    0    0 -0.00000000000E+00 -0.00000000000E+00 -0.74505805969E-08  0.93827000000E+00  0.93827000000E+00 0. -1.
     999902    2    1    2    0    0  0.85744077868E-02 -0.18718967011E-01 -0.13027913647E-01  0.10195651333E+01  0.10192739643E+01 0.  0.
     999903    2    3    3    0    0 -0.63331307236E-01  0.41286303456E-01  0.10049994149E+00  0.12734339056E+00  0.20017181417E-01 0.  0.
         14    1    1    2    0    0 -0.85744077868E-02  0.18718967011E-01  0.13027913647E-01  0.24364866690E-01  0.00000000000E+00 0.  1.
     999901    1    3    3    0    0  0.71905715022E-01 -0.60005270467E-01 -0.11352785514E+00  0.89222174275E+00  0.88000000000E+00 0. -1.
        -11    1    4    4    0    0 -0.48266985012E-01  0.21309236466E-01  0.74109608446E-01  0.90974065458E-01  0.51100000000E-03 0.  1.
         11    1    4    4    0    0 -0.15064322223E-01  0.19977066990E-01  0.26390333043E-01  0.36369325106E-01  0.51100000000E-03 0. -1.
</event>
<event>
 8    1  0.1112929E+005  0.1043930E+01  0.7957747E-01            NaN
         13   -1    0    0    0    0  0.00000000000E+00  0.00000000000E+00  0.74505805969E-08  0.10566000000E+00  0.10566000000E+00 0. -1.
     999900   -1    0    0    0    0 -0.00000000000E+00 -0.00000000000E+00 -0.74505805969E-08  0.93827000000E+00  0.93827000000E+00 0. -1.
     999902    2    1    2    0    0 -0.23749543490E-03 -0.16634761971E-01 -0.17073282494E-01  0.10200916132E+01  0.10198130371E+01 0.  0.
     999903    2    3    3    0    0 -0.39865227453E-01 -0.10300201320E+00  0.67421163651E-01  0.13095215808E+00  0.20104808264E-01 0.  0.
         14    1    1    2    0    0  0.23749543490E-03  0.16634761971E-01  0.17073282494E-01  0.23838386796E-01  0.00000000000E+00 0. -1.
     999901    1    3    3    0    0  0.39627732018E-01  0.86367251225E-01 -0.84494446145E-01  0.88913945512E+00  0.88000000000E+00 0. -1.
        -11    1    4    4    0    0 -0.66856985517E-03 -0.24497809665E-01  0.15124975041E-01  0.28803049405E-01  0.51100000000E-03 0.  1.
         11    1    4    4    0    0 -0.39196657598E-01 -0.78504203532E-01  0.52296188610E-01  0.10214910868E+00  0.51100000000E-03 0. -1.
</event>
<event>
 8    1  0.1112929E+005  0.1043930E+01  0.7957747E-01            NaN
         13   -1    0    0    0    0  0.00000000000E+00  0.00000000000E+00  0.74505805969E-08  0.10566000000E+00  0.10566000000E+00 0.  1.
     999900   -1    0    0    0    0 -0.00000000000E+00 -0.00000000000E+00 -0.74505805969E-08  0.93827000000E+00  0.93827000000E+00 0.  1.
     999902    2    1    2    0    0 -0.26772821249E-02 -0.14175615631E-01  0.18448448505E-01  0.10205107521E+01  0.10202419978E+01 0.  0.
     999903    2    3    3    0    0  0.38891466037E-01  0.10143107433E+00  0.70202986622E-01  0.13047064079E+00  0.17126581918E-01 0.  0.
         14    1    1    2    0    0  0.26772821249E-02  0.14175615631E-01 -0.18448448505E-01  0.23419247860E-01  0.00000000000E+00 0. -1.
     999901    1    3    3    0    0 -0.41568748162E-01 -0.11560668996E+00 -0.51754538116E-01  0.89004011135E+00  0.88000000000E+00 0. -1.
        -11    1    4    4    0    0  0.26573182944E-01  0.68300283800E-01  0.37557351259E-01  0.82352161924E-01  0.51100000000E-03 0. -1.
         11    1    4    4    0    0  0.12318283093E-01  0.33130790532E-01  0.32645635363E-01  0.48118478871E-01  0.51100000000E-03 0.  1.
</event>
<event>
 8    1  0.1112929E+005  0.1043930E+01  0.7957747E-01            NaN
         13   -1    0    0    0    0  0.00000000000E+00  0.00000000000E+00  0.74505805969E-08  0.10566000000E+00  0.10566000000E+00 0. -1.
     999900   -1    0    0    0    0 -0.00000000000E+00 -0.00000000000E+00 -0.74505805969E-08  0.93827000000E+00  0.93827000000E+00 0.  1.
     999902    2    1    2    0    0 -0.96289809784E-02  0.12792182576E-01 -0.17294535029E-01  0.10203618403E+01  0.10200896171E+01 0.  0.
     999903    2    3    3    0    0 -0.10548364035E+00  0.58991210933E-01 -0.52522266133E-01  0.13325223096E+00  0.19768845872E-01 0.  0.
         14    1    1    2    0    0  0.96289809784E-02 -0.12792182576E-01  0.17294535029E-01  0.23568159699E-01  0.00000000000E+00 0. -1.
     999901    1    3    3    0    0  0.95854659374E-01 -0.46199028357E-01  0.35227731104E-01  0.88710960934E+00  0.88000000000E+00 0. -1.
        -11    1    4    4    0    0 -0.86753567137E-01  0.53690093778E-01 -0.49996676841E-01  0.11361662025E+00  0.51100000000E-03 0.  1.
         11    1    4    4    0    0 -0.18730073215E-01  0.53011171552E-02 -0.25255892922E-02  0.19635610711E-01  0.51100000000E-03 0. -1.
</event>
<event>
 8    1  0.1112929E+005  0.1043930E+01  0.7957747E-01            NaN
         13   -1    0    0    0    0  0.00000000000E+00  0.00000000000E+00  0.74505805969E-08  0.10566000000E+00  0.10566000000E+00 0.  1.
     999900   -1    0    0    0    0 -0.00000000000E+00 -0.00000000000E+00 -0.74505805969E-08  0.93827000000E+00  0.93827000000E+00 0.  1.
     999902    2    1    2    0    0 -0.16247166355E-02  0.12429771653E-01 -0.19344960754E-01  0.10208786132E+01  0.10206183304E+01 0.  0.
     999903    2    3    3    0    0  0.68295214028E-01 -0.85928479174E-01 -0.69863139299E-01  0.13120719712E+00  0.16927213290E-01 0.  0.
         14    1    1    2    0    0  0.16247166355E-02 -0.12429771653E-01  0.19344960754E-01  0.23051386814E-01  0.00000000000E+00 0.  1.
     999901    1    3    3    0    0 -0.69919930664E-01  0.98358250827E-01  0.50518178545E-01  0.88967141607E+00  0.88000000000E+00 0. -1.
        -11    1    4    4    0    0  0.35620430321E-01 -0.34774046179E-01 -0.24871871258E-01  0.55649981535E-01  0.51100000000E-03 0. -1.
         11    1    4    4    0    0  0.32674783707E-01 -0.51154432995E-01 -0.44991268041E-01  0.75557215581E-01  0.51100000000E-03 0.  1.
</event>
<event>
 8    1  0.1112929E+005  0.1043930E+01  0.7957747E-01            NaN
         13   -1    0    0    0    0  0.00000000000E+00  0.00000000000E+00  0.74505805969E-08  0.10566000000E+00  0.10566000000E+00 0. -1.
     999900   -1    0    0    0    0 -0.00000000000E+00 -0.00000000000E+00 -0.74505805969E-08  0.93827000000E+00  0.93827000000E+00 0. -1.
     999902    2    1    2    0    0 -0.18302761236E-01  0.11446114019E-01 -0.91930663776E-02  0.10204668999E+01  0.10201971264E+01 0.  0.
     999903    2    3    3    0    0  0.42836652984E-01 -0.76403603743E-01  0.91467126328E-01  0.12828526189E+00  0.20454430213E-01 0.  0.
         14    1    1    2    0    0  0.18302761236E-01 -0.11446114019E-01  0.91930663776E-02  0.23463100060E-01  0.00000000000E+00 0. -1.
     999901    1    3    3    0    0 -0.61139414220E-01  0.87849717761E-01 -0.10066019271E+00  0.89218163805E+00  0.88000000000E+00 0. -1.
        -11    1    4    4    0    0  0.28596826511E-01 -0.36030860015E-01  0.57476825946E-01  0.73619616962E-01  0.51100000000E-03 0.  1.
         11    1    4    4    0    0  0.14239826473E-01 -0.40372743728E-01  0.33990300382E-01  0.54665644926E-01  0.51100000000E-03 0. -1.
</event>
<event>
 8    1  0.1112929E+005  0.1043930E+01  0.7957747E-01            NaN
         13   -1    0    0    0    0  0.00000000000E+00  0.00000000000E+00  0.74505805969E-08  0.10566000000E+00  0.10566000000E+00 0.  1.
     999900   -1    0    0    0    0 -0.00000000000E+00 -0.00000000000E+00 -0.74505805969E-08  0.93827000000E+00  0.93827000000E+00 0. -1.
     999902    2    1    2    0    0  0.20961311299E-01  0.18620420493E-01 -0.82558295555E-04  0.10158924636E+01  0.10155054870E+01 0.  0.
     999903    2    3    3    0    0 -0.11133846171E+00 -0.21910963135E-01 -0.45737900034E-01  0.12391127927E+00  0.19639405994E-01 0.  0.
         14    1    1    2    0    0 -0.20961311299E-01 -0.18620420493E-01  0.82558295555E-04  0.28037536386E-01  0.00000000000E+00 0. -1.
     999901    1    3    3    0    0  0.13229977301E+00  0.40531383629E-01  0.45655341738E-01  0.89198118435E+00  0.88000000000E+00 0.  1.
        -11    1    4    4    0    0 -0.57763760445E-01 -0.13808873039E-01 -0.13668084545E-01  0.60945997830E-01  0.51100000000E-03 0. -1.
         11    1    4    4    0    0 -0.53574701269E-01 -0.81020900965E-02 -0.32069815489E-01  0.62965281438E-01  0.51100000000E-03 0.  1.
</event>
<event>
 7    1  0.1112929E+005  0.1043930E+01  0.7957747E-01            NaN
         13   -1    0    0    0    0  0.00000000000E+00  0.00000000000E+00  0.74505805969E-08  0.10566000000E+00  0.10566000000E+00 0. -1.
     999900   -1    0    0    0    0 -0.00000000000E+00 -0.00000000000E+00 -0.74505805969E-08  0.93827000000E+00  0.93827000000E+00 0.  1.
     999903    2    1    2    0    0  0.32655374292E-02  0.68125441561E-01  0.14483907189E-02  0.70905705165E-01  0.19333433910E-01 0.  0.
         14    1    1    2    0    0 -0.28153772141E-01 -0.81121614906E-01 -0.33051415230E-01  0.92009495920E-01  0.00000000000E+00 0.  1.
     999901    1    1    2    0    0  0.24888234711E-01  0.12996173346E-01  0.31603024511E-01  0.88101479891E+00  0.88000000000E+00 0. -1.
        -11    1    3    3    0    0 -0.50936873394E-02  0.46479563671E-01 -0.44103232808E-02  0.46968154766E-01  0.51100000000E-03 0.  1.
         11    1    3    3    0    0  0.83592247685E-02  0.21645877890E-01  0.58587139997E-02  0.23937550399E-01  0.51100000000E-03 0. -1.
</event>
<event>
 8    1  0.1112929E+005  0.1043930E+01  0.7957747E-01            NaN
         13   -1    0    0    0    0  0.00000000000E+00  0.00000000000E+00  0.74505805969E-08  0.10566000000E+00  0.10566000000E+00 0.  1.
     999900   -1    0    0    0    0 -0.00000000000E+00 -0.00000000000E+00 -0.74505805969E-08  0.93827000000E+00  0.93827000000E+00 0.  1.
     999902    2    1    2    0    0  0.17207390199E-01  0.13225775229E-01  0.93118741251E-02  0.10203137681E+01  0.10200404203E+01 0.  0.
     999903    2    3    3    0    0 -0.23723085898E-02 -0.69693395465E-01 -0.10621170085E+00  0.12868343562E+00  0.20388820146E-01 0.  0.
         14    1    1    2    0    0 -0.17207390199E-01 -0.13225775229E-01 -0.93118741251E-02  0.23616231867E-01  0.00000000000E+00 0. -1.
     999901    1    3    3    0    0  0.19579698789E-01  0.82919170694E-01  0.11552357498E+00  0.89163033251E+00  0.88000000000E+00 0. -1.
        -11    1    4    4    0    0 -0.65155679248E-02 -0.55942885898E-01 -0.70825905356E-01  0.90491044299E-01  0.51100000000E-03 0.  1.
         11    1    4    4    0    0  0.41432593349E-02 -0.13750509567E-01 -0.35385795496E-01  0.38192391325E-01  0.51100000000E-03 0. -1.
</event>
<event>
 8    1  0.1112929E+005  0.1043930E+01  0.7957747E-01            NaN
         13   -1    0    0    0    0  0.00000000000E+00  0.00000000000E+00  0.74505805969E-08  0.10566000000E+00  0.10566000000E+00 0. -1.
     999900   -1    0    0    0    0 -0.00000000000E+00 -0.00000000000E+00 -0.74505805969E-08  0.93827000000E+00  0.93827000000E+00 0.  1.
     999902    2    1    2    0    0  0.20728959989E-01 -0.49776207567E-03 -0.11422833866E-01  0.10202568362E+01  0.10199821534E+01 0.  0.
     999903    2    3    3    0    0 -0.47407685419E-01  0.17528403016E-01  0.11620552319E+00  0.12826101640E+00  0.19809875294E-01 0.  0.
         14    1    1    2    0    0 -0.20728959989E-01  0.49776207567E-03  0.11422833866E-01  0.23673163770E-01  0.00000000000E+00 0.  1.
     999901    1    3    3    0    0  0.68136645409E-01 -0.18026165092E-01 -0.12762835705E+00  0.89199581983E+00  0.88000000000E+00 0.  1.
        -11    1    4    4    0    0 -0.24099156689E-01  0.47754354146E-02  0.34603488998E-01  0.42440979116E-01  0.51100000000E-03 0. -1.
         11    1    4    4    0    0 -0.23308528730E-01  0.12752967601E-01  0.81602034189E-01  0.85820037281E-01  0.51100000000E-03 0.  1.
</event>
<event>
 8    1  0.1112929E+005  0.1043930E+01  0.7957747E-01            NaN
         13   -1    0    0    0    0  0.00000000000E+00  0.00000000000E+00  0.74505805969E-08  0.10566000000E+00  0.10566000000E+00 0.  1.
     999900   -1    0    0    0    0 -0.00000000000E+00 -0.00000000000E+00 -0.74505805969E-08  0.93827000000E+00  0.93827000000E+00 0. -1.
     999902    2    1    2    0    0  0.11634913774E-01  0.12445961390E-01 -0.15868574838E-01  0.10206472845E+01  0.10203816906E+01 0.  0.
     999903    2    3    3    0    0 -0.71669457137E-01 -0.90587242825E-01  0.51834322653E-01  0.12815686903E+00  0.19870239710E-01 0.  0.
         14    1    1    2    0    0 -0.11634913774E-01 -0.12445961390E-01  0.15868574838E-01  0.23282715495E-01  0.00000000000E+00 0.  1.
     999901    1    3    3    0    0  0.83304370911E-01  0.10303320421E+00 -0.67702897491E-01  0.89249041547E+00  0.88000000000E+00 0.  1.
        -11    1    4    4    0    0 -0.18624548391E-01 -0.36482420196E-01  0.23726791825E-01  0.47339862246E-01  0.51100000000E-03 0. -1.
         11    1    4    4    0    0 -0.53044908746E-01 -0.54104822628E-01  0.28107530828E-01  0.80817006786E-01  0.51100000000E-03 0.  1.
</event>
<event>
 8    1  0.1112929E+005  0.1043930E+01  0.7957747E-01            NaN
         13   -1    0    0    0    0  0.00000000000E+00  0.00000000000E+00  0.74505805969E-08  0.10566000000E+00  0.10566000000E+00 0. -1.
     999900   -1    0    0    0    0 -0.00000000000E+00 -0.00000000000E+00 -0.74505805969E-08  0.93827000000E+00  0.93827000000E+00 0.  1.
     999902    2    1    2    0    0 -0.20061917927E-02 -0.75685009689E-02  0.22525881241E-01  0.10200820999E+01  0.10198032988E+01 0.  0.
     999903    2    3    3    0    0 -0.11005422035E+00  0.20738055019E-02 -0.64203620350E-01  0.12918965019E+00  0.21251559075E-01 0.  0.
         14    1    1    2    0    0  0.20061917927E-02  0.75685009689E-02 -0.22525881241E-01  0.23847900078E-01  0.00000000000E+00 0.  1.
     999901    1    3    3    0    0  0.10804802856E+00 -0.96423064707E-02  0.86729501591E-01  0.89089244974E+00  0.88000000000E+00 0. -1.
        -11    1    4    4    0    0 -0.34380263782E-01  0.10423943874E-01 -0.18940987062E-01  0.40616292981E-01  0.51100000000E-03 0. -1.
         11    1    4    4    0    0 -0.75673956568E-01 -0.83501383725E-02 -0.45262633288E-01  0.88573357206E-01  0.51100000000E-03 0.  1.
</event>
<event>
 8    1  0.1112929E+005  0.1043930E+01  0.7957747E-01            NaN
         13   -1    0    0    0    0  0.00000000000E+00  0.00000000000E+00  0.74505805969E-08  0.10566000000E+00  0.10566000000E+00 0.  1.
     999900   -1    0    0    0    0 -0.00000000000E+00 -0.00000000000E+00 -0.74505805969E-08  0.93827000000E+00  0.93827000000E+00 0. -1.
     999902    2    1    2    0    0 -0.30084830536E-02  0.24544931727E-01  0.55203891926E-03  0.10191952190E+01  0.10188950314E+01 0.  0.
     999903    2    3    3    0    0  0.11102981384E+00 -0.26073220613E-01 -0.55800315997E-01  0.12860972709E+00  0.20478140594E-01 0.  0.
         14    1    1    2    0    0  0.30084830536E-02 -0.24544931727E-01 -0.55203891926E-03  0.24734780992E-01  0.00000000000E+00 0. -1.
     999901    1    3    3    0    0 -0.11403829690E+00  0.50618152340E-01  0.56352354916E-01  0.89058549192E+00  0.88000000000E+00 0. -1.
        -11    1    4    4    0    0  0.58507133216E-01 -0.56323517609E-02 -0.35692413554E-01  0.68767852444E-01  0.51100000000E-03 0. -1.
         11    1    4    4    0    0  0.52522680627E-01 -0.20440868853E-01 -0.20107902443E-01  0.59841874648E-01  0.51100000000E-03 0.  1.
</event>
<event>
 8    1  0.1112929E+005  0.1043930E+01  0.7957747E-01            NaN
         13   -1    0    0    0    0  0.00000000000E+00  0.00000000000E+00  0.74505805969E-08  0.10566000000E+00  0.10566000000E+00 0. -1.
     999900   -1    0    0    0    0 -0.00000000000E+00 -0.00000000000E+00 -0.74505805969E-08  0.93827000000E+00  0.93827000000E+00 0.  1.
     999902    2    1    2    0    0  0.14562286453E-01  0.16544791744E-01  0.11093184331E-01  0.10192551330E+01  0.10189564157E+01 0.  0.
     999903    2    3    3    0    0  0.83100049780E-01 -0.93593726527E-02 -0.96814034880E-01  0.12964149854E+00  0.20993919717E-01 0.  0.
         14    1    1    2    0    0 -0.14562286453E-01 -0.16544791744E-01 -0.11093184331E-01  0.24674866954E-01  0.00000000000E+00 0.  1.
     999901    1    3    3    0    0 -0.68537763327E-01  0.25904164397E-01  0.10790721921E+00  0.88961363450E+00  0.88000000000E+00 0. -1.
        -11    1    4    4    0    0  0.35533235650E-01 -0.62299665556E-02 -0.26822630245E-01  0.44957067668E-01  0.51100000000E-03 0.  1.
         11    1    4    4    0    0  0.47566814129E-01 -0.31294060971E-02 -0.69991404635E-01  0.84684430876E-01  0.51100000000E-03 0. -1.
</event>
<event>
 8    1  0.1112929E+005  0.1043930E+01  0.7957747E-01            NaN
         13   -1    0    0    0    0  0.00000000000E+00  0.00000000000E+00  0.74505805969E-08  0.10566000000E+00  0.10566000000E+00 0. -1.
     999900   -1    0    0    0    0 -0.00000000000E+00 -0.00000000000E+00 -0.74505805969E-08  0.93827000000E+00  0.93827000000E+00 0. -1.
     999902    2    1    2    0    0 -0.22574931400E-01  0.72207208360E-02 -0.71912549724E-03  0.10202174827E+01  0.10199418750E+01 0.  0.
     999903    2    3    3    0    0 -0.87662362875E-01 -0.74030830531E-01  0.61688084043E-01  0.13188598590E+00  0.20572793433E-01 0.  0.
         14    1    1    2    0    0  0.22574931400E-01 -0.72207208360E-02  0.71912549724E-03  0.23712517340E-01  0.00000000000E+00 0.  1.
     999901    1    3    3    0    0  0.65087431475E-01  0.81251551367E-01 -0.62407209540E-01  0.88833149676E+00  0.88000000000E+00 0. -1.
        -11    1    4    4    0    0 -0.45907259825E-01 -0.51765432629E-01  0.38623053633E-01  0.79241011559E-01  0.51100000000E-03 0. -1.
         11    1    4    4    0    0 -0.41755103050E-01 -0.22265397902E-01  0.23065030410E-01  0.52644974340E-01  0.51100000000E-03 0.  1.
</event>
<event>
 8    1  0.1112929E+005  0.1043930E+01  0.7957747E-01            NaN
         13   -1    0    0    0    0  0.00000000000E+00  0.00000000000E+00  0.74505805969E-08  0.10566000000E+00  0.10566000000E+00 0.  1.
     999900   -1    0    0    0    0 -0.00000000000E+00 -0.00000000000E+00 -0.74505805969E-08  0.93827000000E+00  0.93827000000E+00 0. -1.
     999902    2    1    2    0    0  0.32588824994E-02  0.80937514863E-02  0.20719237751E-01  0.10214485423E+01  0.10212011107E+01 0.  0.
     999903    2    3    3    0    0  0.48153016640E-02  0.13045625514E+00  0.15546335968E-01  0.13296569852E+00  0.19903938984E-01 0.  0.
         14    1    1    2    0    0 -0.32588824994E-02 -0.80937514863E-02 -0.20719237751E-01  0.22481457721E-01  0.00000000000E+00 0. -1.
     999901    1    3    3    0    0 -0.15564191646E-02 -0.12236250365E+00  0.51729017837E-02  0.88848284376E+00  0.88000000000E+00 0.  1.
        -11    1    4    4    0    0  0.51436624380E-03  0.10182539417E+00  0.19689772016E-01  0.10371414423E+00  0.51100000000E-03 0.  1.
         11    1    4    4    0    0  0.43009354202E-02  0.28630860962E-01 -0.41434360479E-02  0.29251554287E-01  0.51100000000E-03 0. -1.
</event>
<event>
 8    1  0.1112929E+005  0.1043930E+01  0.7957747E-01            NaN
         13   -1    0    0    0    0  0.00000000000E+00  0.00000000000E+00  0.74505805969E-08  0.10566000000E+00  0.10566000000E+00 0. -1.
     999900   -1    0    0    0    0 -0.00000000000E+00 -0.00000000000E+00 -0.74505805969E-08  0.93827000000E+00  0.93827000000E+00 0.  1.
     999902    2    1    2    0    0  0.49338202793E-02  0.82460013250E-02 -0.21715626110E-01  0.10201832626E+01  0.10199068495E+01 0.  0.
     999903    2    3    3    0    0  0.32483255792E-01 -0.12182923263E+00  0.21140942427E-01  0.12916405777E+00  0.18408979957E-01 0.  0.
         14    1    1    2    0    0 -0.49338202793E-02 -0.82460013250E-02  0.21715626110E-01  0.23746737413E-01  0.00000000000E+00 0. -1.
     999901    1    3    3    0    0 -0.27549435513E-01  0.13007523395E+00 -0.42856568537E-01  0.89101920482E+00  0.88000000000E+00 0. -1.
        -11    1    4    4    0    0  0.31427388893E-01 -0.11308562732E+00  0.24172508215E-01  0.11983576742E+00  0.51100000000E-03 0.  1.
         11    1    4    4    0    0  0.10558668988E-02 -0.87436053108E-02 -0.30315657877E-02  0.93282903506E-02  0.51100000000E-03 0. -1.
</event>
<event>
 8    1  0.1112929E+005  0.1043930E+01  0.7957747E-01            NaN
         13   -1    0    0    0    0  0.00000000000E+00  0.00000000000E+00  0.74505805969E-08  0.10566000000E+00  0.10566000000E+00 0. -1.
     999900   -1    0    0    0    0 -0.00000000000E+00 -0.00000000000E+00 -0.74505805969E-08  0.93827000000E+00  0.93827000000E+00 0. -1.
     999902    2    1    2    0    0 -0.12483977671E-01  0.25366245260E-01 -0.44215938478E-02  0.10153145044E+01  0.10149111765E+01 0.  0.
     999903    2    3    3    0    0  0.30597911117E-01 -0.52850202451E-01 -0.10725537047E+00  0.12483786379E+00  0.18745710896E-01 0.  0.
         14    1    1    2    0    0  0.12483977671E-01 -0.25366245260E-01  0.44215938478E-02  0.28615495614E-01  0.00000000000E+00 0. -1.
     999901    1    3    3    0    0 -0.43081888788E-01  0.78216447712E-01  0.10283377662E+00  0.89047664060E+00  0.88000000000E+00 0.  1.
        -11    1    4    4    0    0  0.16705612588E-01 -0.30217061136E-01 -0.41929300881E-01  0.54318281167E-01  0.51100000000E-03 0.  1.
         11    1    4    4    0    0  0.13892298529E-01 -0.22633141316E-01 -0.65326069589E-01  0.70519582622E-01  0.51100000000E-03 0. -1.
</event>
<event>
 8    1  0.1112929E+005  0.1043930E+01  0.7957747E-01            NaN
         13   -1    0    0    0    0  0.00000000000E+00  0.00000000000E+00  0.74505805969E-08  0.10566000000E+00  0.10566000000E+00 0.  1.
     999900   -1    0    0    0    0 -0.00000000000E+00 -0.00000000000E+00 -0.74505805969E-08  0.93827000000E+00  0.93827000000E+00 0.  1.
     999902    2    1    2    0    0  0.73876846010E-02  0.11786880431E-01 -0.17295874424E-01  0.10217341512E+01  0.10214930347E+01 0.  0.
     999903    2    3    3    0    0 -0.99734883687E-01 -0.59492824624E-01  0.53710927233E-01  0.12954694721E+00  0.20275715086E-01 0.  0.
         14    1    1    2    0    0 -0.73876846010E-02 -0.11786880431E-01  0.17295874424E-01  0.22195848849E-01  0.00000000000E+00 0.  1.
     999901    1    3    3    0    0  0.10712256829E+00  0.71279705055E-01 -0.71006801656E-01  0.89218720394E+00  0.88000000000E+00 0.  1.
        -11    1    4    4    0    0 -0.41888613786E-01 -0.19051693462E-01  0.30647722576E-01  0.55291654061E-01  0.51100000000E-03 0. -1.
         11    1    4    4    0    0 -0.57846269901E-01 -0.40441131161E-01  0.23063204657E-01  0.74255293152E-01  0.51100000000E-03 0.  1.
</event>
<event>
 8    1  0.1112929E+005  0.1043930E+01  0.7957747E-01            NaN
         13   -1    0    0    0    0  0.00000000000E+00  0.00000000000E+00  0.74505805969E-08  0.10566000000E+00  0.10566000000E+00 0. -1.
     999900   -1    0    0    0    0 -0.00000000000E+00 -0.00000000000E+00 -0.74505805969E-08  0.93827000000E+00  0.93827000000E+00 0. -1.
     999902    2    1    2    0    0 -0.14951741346E-01 -0.98371415902E-02 -0.17034305897E-01  0.10192218738E+01  0.10189223408E+01 0.  0.
     999903    2    3    3    0    0  0.10145368056E+00 -0.74028123972E-01  0.18930154633E-01  0.12851196203E+00  0.19594927734E-01 0.  0.
         14    1    1    2    0    0  0.14951741346E-01  0.98371415902E-02  0.17034305897E-01  0.24708126221E-01  0.00000000000E+00 0. -1.
     999901    1    3    3    0    0 -0.11640542190E+00  0.64190982382E-01 -0.35964460531E-01  0.89070991175E+00  0.88000000000E+00 0.  1.
        -11    1    4    4    0    0  0.40852024917E-01 -0.21677595343E-01  0.12605564658E-03  0.46250222602E-01  0.51100000000E-03 0. -1.
         11    1    4    4    0    0  0.60601655640E-01 -0.52350528629E-01  0.18804098987E-01  0.82261739428E-01  0.51100000000E-03 0.  1.
</event>
<event>
 8    1  0.1112929E+005  0.1043930E+01  0.7957747E-01            NaN
         13   -1    0    0    0    0  0.00000000000E+00  0.00000000000E+00  0.74505805969E-08  0.10566000000E+00  0.10566000000E+00 0.  1.
     999900   -1    0    0    0    0 -0.00000000000E+00 -0.00000000000E+00 -0.74505805969E-08  0.93827000000E+00  0.93827000000E+00 0. -1.
     999902    2    1    2    0    0  0.18032938336E-01 -0.15658568952E-01 -0.16194981952E-02  0.10199925728E+01  0.10197116495E+01 0.  0.
     999903    2    3    3    0    0 -0.16297415172E-02  0.13201361186E-01 -0.12764264470E+00  0.13032895659E+00  0.22716958082E-01 0.  0.
         14    1    1    2    0    0 -0.18032938336E-01  0.15658568952E-01  0.16194981952E-02  0.23937427202E-01  0.00000000000E+00 0. -1.
     999901    1    3    3    0    0  0.19662679854E-01 -0.28859930138E-01  0.12602314651E+00  0.88966361621E+00  0.88000000000E+00 0.  1.
        -11    1    4    4    0    0 -0.12017401394E-01  0.74584036877E-02 -0.59638938000E-01  0.61295267098E-01  0.51100000000E-03 0. -1.
         11    1    4    4    0    0  0.10387659877E-01  0.57429574982E-02 -0.68003706704E-01  0.69033689493E-01  0.51100000000E-03 0.  1.
</event>
<event>
 8    1  0.1112929E+005  0.1043930E+01  0.7957747E-01            NaN
         13   -1    0    0    0    0  0.00000000000E+00  0.00000000000E+00  0.74505805969E-08  0.10566000000E+00  0.10566000000E+00 0.  1.
     999900   -1    0    0    0    0 -0.00000000000E+00 -0.00000000000E+00 -0.74505805969E-08  0.93827000000E+00  0.93827000000E+00 0.  1.
     999902    2    1    2    0    0 -0.53790135512E-02 -0.18056859073E-01 -0.15021884575E-01  0.10198335073E+01  0.10195487931E+01 0.  0.
     999903    2    3    3    0    0 -0.77552452038E-01  0.84302028390E-01 -0.57859050492E-01  0.12993386693E+00  0.20345152846E-01 0.  0.
         14    1    1    2    0    0  0.53790135512E-02  0.18056859073E-01  0.15021884575E-01  0.24096492744E-01  0.00000000000E+00 0.  1.
     999901    1    3    3    0    0  0.72173438487E-01 -0.10235888746E+00  0.42837165917E-01  0.88989964032E+00  0.88000000000E+00 0. -1.
        -11    1    4    4    0    0 -0.66188082904E-01  0.59305769157E-01 -0.43680687545E-01  0.99026764863E-01  0.51100000000E-03 0.  1.
         11    1    4    4    0    0 -0.11364369134E-01  0.24996259233E-01 -0.14178362947E-01  0.30907102069E-01  0.51100000000E-03 0. -1.
</event>
<event>
 8    1  0.1112929E+005  0.1043930E+01  0.7957747E-01            NaN
         13   -1    0    0    0    0  0.00000000000E+00  0.00000000000E+00  0.74505805969E-08  0.10566000000E+00  0.10566000000E+00 0.  1.
     999900   -1    0    0    0    0 -0.00000000000E+00 -0.00000000000E+00 -0.74505805969E-08  0.93827000000E+00  0.93827000000E+00 0. -1.
     999902    2    1    2    0    0  0.18769609842E-01 -0.90821896426E-02  0.11444386561E-01  0.10201443235E+01  0.10198669925E+01 0.  0.
     999903    2    3    3    0    0  0.24684463161E-01  0.10298903955E+00  0.74152782499E-01  0.13080339404E+00  0.19870273087E-01 0.  0.
         14    1    1    2    0    0 -0.18769609842E-01  0.90821896426E-02 -0.11444386561E-01  0.23785676490E-01  0.00000000000E+00 0. -1.
     999901    1    3    3    0    0 -0.59148533191E-02 -0.11207122919E+00 -0.62708395939E-01  0.88934092947E+00  0.88000000000E+00 0.  1.
        -11    1    4    4    0    0  0.77652445864E-02  0.58544299478E-01  0.31575660059E-01  0.66970272913E-01  0.51100000000E-03 0. -1.
         11    1    4    4    0    0  0.16919218575E-01  0.44444740069E-01  0.42577122440E-01  0.63833121131E-01  0.51100000000E-03 0.  1.
</event>
<event>
 8    1  0.1112929E+005  0.1043930E+01  0.7957747E-01            NaN
         13   -1    0    0    0    0  0.00000000000E+00  0.00000000000E+00  0.74505805969E-08  0.10566000000E+00  0.10566000000E+00 0. -1.
     999900   -1    0    0    0    0 -0.00000000000E+00 -0.00000000000E+00 -0.74505805969E-08  0.93827000000E+00  0.93827000000E+00 0.  1.
     999902    2    1    2    0    0 -0.65109018838E-02  0.15786142571E-01  0.19175460978E-01  0.10182533093E+01  0.10179295209E+01 0.  0.
     999903    2    3    3    0    0  0.87607374085E-01  0.72700639857E-01 -0.55945080114E-01  0.12823049749E+00  0.18782264752E-01 0.  0.
         14    1    1    2    0    0  0.65109018838E-02 -0.15786142571E-01 -0.19175460978E-01  0.25676690681E-01  0.00000000000E+00 0.  1.
     999901    1    3    3    0    0 -0.94118275968E-01 -0.56914497286E-01  0.75120541092E-01  0.89002281182E+00  0.88000000000E+00 0. -1.
        -11    1    4    4    0    0  0.75305981625E-01  0.52881246303E-01 -0.45807462158E-01  0.10279105890E+00  0.51100000000E-03 0.  1.
         11    1    4    4    0    0  0.12301392460E-01  0.19819393554E-01 -0.10137617956E-01  0.25439438597E-01  0.51100000000E-03 0. -1.
</event>
<event>
 8    1  0.1112929E+005  0.1043930E+01  0.7957747E-01            NaN
         13   -1    0    0    0    0  0.00000000000E+00  0.00000000000E+00  0.74505805969E-08  0.10566000000E+00  0.10566000000E+00 0.  1.
     999900   -1    0    0    0    0 -0.00000000000E+00 -0.00000000000E+00 -0.74505805969E-08  0.93827000000E+00  0.93827000000E+00 0. -1.
     999902    2    1    2    0    0 -0.36496586450E-02  0.19225521927E-01 -0.12115894491E-01  0.10209140142E+01  0.10206545394E+01 0.  0.
     999903    2    3    3    0    0  0.83353678228E-01  0.13830558618E-01  0.96731947456E-01  0.12993335285E+00  0.19659259871E-01 0.  0.
         14    1    1    2    0    0  0.36496586450E-02 -0.19225521927E-01  0.12115894491E-01  0.23015985769E-01  0.00000000000E+00 0.  1.
     999901    1    3    3    0    0 -0.87003336873E-01  0.53949633093E-02 -0.10884784195E+00  0.89098066138E+00  0.88000000000E+00 0. -1.
        -11    1    4    4    0    0  0.29687811120E-01  0.91208095086E-02  0.48664694133E-01  0.57732736565E-01  0.51100000000E-03 0. -1.
         11    1    4    4    0    0  0.53665867108E-01  0.47097491093E-02  0.48067253323E-01  0.72200616286E-01  0.51100000000E-03 0.  1.
</event>
<event>
 8    1  0.1112929E+005  0.1043930E+01  0.7957747E-01            NaN
         13   -1    0    0    0    0  0.00000000000E+00  0.00000000000E+00  0.74505805969E-08  0.10566000000E+00  0.10566000000E+00 0. -1.
     999900   -1    0    0    0    0 -0.00000000000E+00 -0.00000000000E+00 -0.74505805969E-08  0.93827000000E+00  0.93827000000E+00 0. -1.
     999902    2    1    2    0    0 -0.70805290994E-02 -0.11723532762E-01 -0.20001759787E-01  0.10196885993E+01  0.10194004091E+01 0.  0.
     999903    2    3    3    0    0 -0.27320218289E-01  0.68573491538E-01 -0.10699362546E+00  0.13153048173E+00  0.20097603482E-01 0.  0.
         14    1    1    2    0    0  0.70805290994E-02  0.11723532762E-01  0.20001759787E-01  0.24241400688E-01  0.00000000000E+00 0.  1.
     999901    1    3    3    0    0  0.20239689190E-01 -0.80297024300E-01  0.86991865677E-01  0.88815811758E+00  0.88000000000E+00 0.  1.
        -11    1    4    4    0    0 -0.21784607450E-01  0.28542025864E-01 -0.45882362517E-01  0.58263785264E-01  0.51100000000E-03 0. -1.
         11    1    4    4    0    0 -0.55356108388E-02  0.40031465674E-01 -0.61111262947E-01  0.73266696468E-01  0.51100000000E-03 0.  1.
</event>
<event>
 8    1  0.1206967E+005  0.1043930E+01  0.7957747E-01            NaN
         13   -1    0    0    0    0  0.00000000000E+00  0.00000000000E+00  0.74505805969E-08  0.10566000000E+00  0.10566000000E+00 0. -1.
     999900   -1    0    0    0    0 -0.00000000000E+00 -0.00000000000E+00 -0.74505805969E-08  0.93827000000E+00  0.93827000000E+00 0.  1.
     999902    2    1    2    0    0 -0.56650718211E-02  0.20519579902E-01  0.12131406241E-01  0.10194286283E+01  0.10191341477E+01 0.  0.
     999903    2    3    3    0    0  0.62242872570E-01  0.34114477583E-01 -0.10519199807E+00  0.12894500051E+00  0.22879771260E-01 0.  0.
         14    1    1    2    0    0  0.56650718211E-02 -0.20519579902E-01 -0.12131406241E-01  0.24501371706E-01  0.00000000000E+00 0.  1.
     999901    1    3    3    0    0 -0.67907944391E-01 -0.13594897681E-01  0.11732340431E+00  0.89048362778E+00  0.88000000000E+00 0. -1.
        -11    1    4    4    0    0  0.33306930938E-01  0.26673891334E-01 -0.46694250406E-01  0.63257112402E-01  0.51100000000E-03 0.  1.
         11    1    4    4    0    0  0.28935941632E-01  0.74405862486E-02 -0.58497747659E-01  0.65687888108E-01  0.51100000000E-03 0. -1.
</event>
<event>
 7    1  0.1112929E+005  0.1043930E+01  0.7957747E-01            NaN
         13   -1    0    0    0    0  0.00000000000E+00  0.00000000000E+00  0.74505805969E-08  0.10566000000E+00  0.10566000000E+00 0. -1.
     999900   -1    0    0    0    0 -0.00000000000E+00 -0.00000000000E+00 -0.74505805969E-08  0.93827000000E+00  0.93827000000E+00 0.  1.
     999902    2    1    2    0    0 -0.20431668573E-01 -0.10081141294E-01  0.79902737300E-02  0.10197861195E+01  0.10195002710E+01 0.  0.
         14    1    1    2    0    0  0.20431668573E-01  0.10081141294E-01 -0.79902737300E-02  0.24143880482E-01  0.00000000000E+00 0.  1.
     999901    1    3    3    0    0  0.87712533069E-01 -0.64149794641E-01 -0.16030514885E-01  0.88682899254E+00  0.88000000000E+00 0. -1.
        -11    1    3    3    0    0 -0.72096107241E-01  0.60483507821E-01  0.15757369757E-01  0.95418337966E-01  0.51100000000E-03 0. -1.
         11    1    3    3    0    0 -0.36048094401E-01 -0.64148544733E-02  0.82634188579E-02  0.37538789007E-01  0.51100000000E-03 0.  1.
</event>
<event>
 8    1  0.1417259E+005  0.1043930E+01  0.7957747E-01            NaN
         13   -1    0    0    0    0  0.00000000000E+00  0.00000000000E+00  0.74505805969E-08  0.10566000000E+00  0.10566000000E+00 0.  1.
     999900   -1    0    0    0    0 -0.00000000000E+00 -0.00000000000E+00 -0.74505805969E-08  0.93827000000E+00  0.93827000000E+00 0.  1.
     999902    2    1    2    0    0  0.53124623663E-02  0.20226252615E-01 -0.10705418004E-01  0.10204368196E+01  0.10201663459E+01 0.  0.
     999903    2    3    3    0    0  0.34568195551E-01  0.10434808622E+00  0.70553742968E-01  0.13221644600E+00  0.20490844422E-01 0.  0.
         14    1    1    2    0    0 -0.53124623663E-02 -0.20226252615E-01  0.10705418004E-01  0.23493180412E-01  0.00000000000E+00 0.  1.
     999901    1    3    3    0    0 -0.29255733185E-01 -0.84121833603E-01 -0.81259160973E-01  0.88822037359E+00  0.88000000000E+00 0.  1.
        -11    1    4    4    0    0  0.28433563869E-01  0.53404903494E-01  0.38181067131E-01  0.71544435701E-01  0.51100000000E-03 0.  1.
         11    1    4    4    0    0  0.61346316823E-02  0.50943182724E-01  0.32372675837E-01  0.60672010299E-01  0.51100000000E-03 0. -1.
</event>
<event>
 8    1  0.1112929E+005  0.1043930E+01  0.7957747E-01            NaN
         13   -1    0    0    0    0  0.00000000000E+00  0.00000000000E+00  0.74505805969E-08  0.10566000000E+00  0.10566000000E+00 0.  1.
     999900   -1    0    0    0    0 -0.00000000000E+00 -0.00000000000E+00 -0.74505805969E-08  0.93827000000E+00  0.93827000000E+00 0. -1.
     999902    2    1    2    0    0  0.10568103241E-01 -0.23567923134E-01 -0.46288981310E-03  0.10180969577E+01  0.10177691630E+01 0.  0.
     999903    2    3    3    0    0 -0.22354696022E-01 -0.14669226239E-01  0.12453526723E+00  0.12860966900E+00  0.17790321600E-01 0.  0.
         14    1    1    2    0    0 -0.10568103241E-01  0.23567923134E-01  0.46288981310E-03  0.25833042290E-01  0.00000000000E+00 0. -1.
     999901    1    3    3    0    0  0.32922799263E-01 -0.88986968946E-02 -0.12499815704E+00  0.88948728871E+00  0.88000000000E+00 0. -1.
        -11    1    4    4    0    0 -0.75819184894E-04 -0.61024287796E-02  0.49254076446E-01  0.49633361291E-01  0.51100000000E-03 0. -1.
         11    1    4    4    0    0 -0.22278876837E-01 -0.85667974597E-02  0.75281190785E-01  0.78976307706E-01  0.51100000000E-03 0.  1.
</event>
<event>
 8    1  0.1112929E+005  0.1043930E+01  0.7957747E-01            NaN
         13   -1    0    0    0    0  0.00000000000E+00  0.00000000000E+00  0.74505805969E-08  0.10566000000E+00  0.10566000000E+00 0. -1.
     999900   -1    0    0    0    0 -0.00000000000E+00 -0.00000000000E+00 -0.74505805969E-08  0.93827000000E+00  0.93827000000E+00 0. -1.
     999902    2    1    2    0    0  0.13218333282E-01  0.84986350714E-02 -0.18110300532E-01  0.10199522162E+01  0.10196703335E+01 0.  0.
     999903    2    3    3    0    0  0.33222483745E-01  0.12507474584E+00  0.12653298250E-01  0.13150606998E+00  0.19654897916E-01 0.  0.
         14    1    1    2    0    0 -0.13218333282E-01 -0.84986350714E-02  0.18110300532E-01  0.23977783847E-01  0.00000000000E+00 0. -1.
     999901    1    3    3    0    0 -0.20004150463E-01 -0.11657611077E+00 -0.30763598783E-01  0.88844614617E+00  0.88000000000E+00 0. -1.
        -11    1    4    4    0    0  0.23075538928E-01  0.77812158604E-01 -0.13568322703E-02  0.81174593552E-01  0.51100000000E-03 0.  1.
         11    1    4    4    0    0  0.10146944817E-01  0.47262587236E-01  0.14010130521E-01  0.50331476429E-01  0.51100000000E-03 0. -1.
</event>
<event>
 8    1  0.1112929E+005  0.1043930E+01  0.7957747E-01            NaN
         13   -1    0    0    0    0  0.00000000000E+00  0.00000000000E+00  0.74505805969E-08  0.10566000000E+00  0.10566000000E+00 0.  1.
     999900   -1    0    0    0    0 -0.00000000000E+00 -0.00000000000E+00 -0.74505805969E-08  0.93827000000E+00  0.93827000000E+00 0.  1.
     999902    2    1    2    0    0  0.65880783842E-02 -0.84307947990E-02 -0.20672775868E-01  0.10206524413E+01  0.10203869664E+01 0.  0.
     999903    2    3    3    0    0 -0.12561354061E+00  0.24245915431E-01 -0.13528372402E-01  0.13014916899E+00  0.19727223081E-01 0.  0.
         14    1    1    2    0    0 -0.65880783842E-02  0.84307947990E-02  0.20672775868E-01  0.23277558717E-01  0.00000000000E+00 0.  1.
     999901    1    3    3    0    0  0.13220161899E+00 -0.32676710230E-01 -0.71444034666E-02  0.89050327229E+00  0.88000000000E+00 0.  1.
        -11    1    4    4    0    0 -0.82279179774E-01  0.10620649202E-01 -0.78586711051E-03  0.82967103854E-01  0.51100000000E-03 0. -1.
         11    1    4    4    0    0 -0.43334360835E-01  0.13625266229E-01 -0.12742505291E-01  0.47182065140E-01  0.51100000000E-03 0.  1.
</event>
<event>
 8    1  0.1112929E+005  0.1043930E+01  0.7957747E-01            NaN
         13   -1    0    0    0    0  0.00000000000E+00  0.00000000000E+00  0.74505805969E-08  0.10566000000E+00  0.10566000000E+00 0.  1.
     999900   -1    0    0    0    0 -0.00000000000E+00 -0.00000000000E+00 -0.74505805969E-08  0.93827000000E+00  0.93827000000E+00 0.  1.
     999902    2    1    2    0    0  0.22584319708E-01  0.88844091916E-02 -0.25036736287E-02  0.10195322008E+01  0.10192402346E+01 0.  0.
     999903    2    3    3    0    0 -0.12166359311E+00  0.12606690524E-01  0.33444918771E-01  0.12705608515E+00  0.79829598334E-02 0.  0.
         14    1    1    2    0    0 -0.22584319708E-01 -0.88844091916E-02  0.25036736287E-02  0.24397799183E-01  0.00000000000E+00 0. -1.
     999901    1    3    3    0    0  0.14424791282E+00 -0.37222813329E-02 -0.35948592399E-01  0.89247611566E+00  0.88000000000E+00 0.  1.
        -11    1    4    4    0    0 -0.11736665870E+00  0.12237861819E-01  0.30749152522E-01  0.12194453386E+00  0.51100000000E-03 0. -1.
         11    1    4    4    0    0 -0.42969344147E-02  0.36882870545E-03  0.26957662492E-02  0.51115512956E-02  0.51100000000E-03 0.  1.
</event>
<event>
 8    1  0.1112929E+005  0.1043930E+01  0.7957747E-01            NaN
         13   -1    0    0    0    0  0.00000000000E+00  0.00000000000E+00  0.74505805969E-08  0.10566000000E+00  0.10566000000E+00 0. -1.
     999900   -1    0    0    0    0 -0.00000000000E+00 -0.00000000000E+00 -0.74505805969E-08  0.93827000000E+00  0.93827000000E+00 0.  1.
     999902    2    1    2    0    0  0.13321958817E-02  0.24831383638E-02 -0.21639827918E-01  0.10221074687E+01  0.10218744808E+01 0.  0.
     999903    2    3    3    0    0  0.12278468795E+00 -0.44597631773E-01 -0.81952727941E-02  0.13241759976E+00  0.20055669388E-01 0.  0.
         14    1    1    2    0    0 -0.13321958817E-02 -0.24831383638E-02  0.21639827918E-01  0.21822531346E-01  0.00000000000E+00 0. -1.
     999901    1    3    3    0    0 -0.12145249207E+00  0.47080770137E-01 -0.13444555124E-01  0.88968986889E+00  0.88000000000E+00 0.  1.
        -11    1    4    4    0    0  0.87521221324E-01 -0.29592329623E-01 -0.14671114421E-01  0.93547703734E-01  0.51100000000E-03 0.  1.
         11    1    4    4    0    0  0.35263466631E-01 -0.15005302150E-01  0.64758416268E-02  0.38869896028E-01  0.51100000000E-03 0. -1.
</event>
<event>
 8    1  0.1112929E+005  0.1043930E+01  0.7957747E-01            NaN
         13   -1    0    0    0    0  0.00000000000E+00  0.00000000000E+00  0.74505805969E-08  0.10566000000E+00  0.10566000000E+00 0. -1.
     999900   -1    0    0    0    0 -0.00000000000E+00 -0.00000000000E+00 -0.74505805969E-08  0.93827000000E+00  0.93827000000E+00 0. -1.
     999902    2    1    2    0    0 -0.16868757057E-02 -0.19514407863E-01  0.68654293830E-02  0.10231744758E+01  0.10229639369E+01 0.  0.
     999903    2    3    3    0    0  0.30862554471E-01  0.12546224779E+00  0.40788044322E-02  0.13071413419E+00  0.19397817978E-01 0.  0.
         14    1    1    2    0    0  0.16868757057E-02  0.19514407863E-01 -0.68654293830E-02  0.20755524192E-01  0.00000000000E+00 0.  1.
     999901    1    3    3    0    0 -0.32549430177E-01 -0.14497665565E+00  0.27866249509E-02  0.89246034162E+00  0.88000000000E+00 0.  1.
        -11    1    4    4    0    0 -0.24695447556E-02  0.15740153408E-01  0.14913050221E-02  0.16010502562E-01  0.51100000000E-03 0.  1.
         11    1    4    4    0    0  0.33332099227E-01  0.10972209438E+00  0.25874994100E-02  0.11470363162E+00  0.51100000000E-03 0. -1.
</event>
<event>
 7    1  0.1112929E+005  0.1043930E+01  0.7957747E-01            NaN
         13   -1    0    0    0    0  0.00000000000E+00  0.00000000000E+00  0.74505805969E-08  0.10566000000E+00  0.10566000000E+00 0. -1.
     999900   -1    0    0    0    0 -0.00000000000E+00 -0.00000000000E+00 -0.74505805969E-08  0.93827000000E+00  0.93827000000E+00 0.  1.
     999903    2    1    2    0    0  0.63381272237E-01 -0.75093404165E-02 -0.86649253260E-01  0.10908831856E+00  0.17849153816E-01 0.  0.
         14    1    1    2    0    0  0.23285519496E-01 -0.69481887575E-02  0.42998010949E-01  0.49389489679E-01  0.00000000000E+00 0. -1.
     999901    1    1    2    0    0 -0.86666791733E-01  0.14457529174E-01  0.43651242311E-01  0.88545219176E+00  0.88000000000E+00 0.  1.
        -11    1    3    3    0    0  0.50228427444E-01 -0.11866364838E-01 -0.60784132714E-01  0.79741315820E-01  0.51100000000E-03 0.  1.
         11    1    3    3    0    0  0.13152844793E-01  0.43570244215E-02 -0.25865120546E-01  0.29347002740E-01  0.51100000000E-03 0. -1.
</event>
<event>
 8    1  0.1112929E+005  0.1043930E+01  0.7957747E-01            NaN
         13   -1    0    0    0    0  0.00000000000E+00  0.00000000000E+00  0.74505805969E-08  0.10566000000E+00  0.10566000000E+00 0. -1.
     999900   -1    0    0    0    0 -0.00000000000E+00 -0.00000000000E+00 -0.74505805969E-08  0.93827000000E+00  0.93827000000E+00 0.  1.
     999902    2    1    2    0    0 -0.15027569420E-01  0.17640792476E-01  0.41673623392E-02  0.10203844630E+01  0.10201127683E+01 0.  0.
     999903    2    3    3    0    0  0.50899124358E-01  0.45385056908E-01  0.11027891388E+00  0.13112874361E+00  0.19564874273E-01 0.  0.
         14    1    1    2    0    0  0.15027569420E-01 -0.17640792476E-01 -0.41673623392E-02  0.23545536960E-01  0.00000000000E+00 0.  1.
     999901    1    3    3    0    0 -0.65926693778E-01 -0.27744264431E-01 -0.10611155154E+00  0.88925571943E+00  0.88000000000E+00 0.  1.
        -11    1    4    4    0    0  0.38708733252E-01  0.43228040058E-01  0.96454055827E-01  0.11256409500E+00  0.51100000000E-03 0. -1.
         11    1    4    4    0    0  0.12190391106E-01  0.21570168493E-02  0.13824858049E-01  0.18564648612E-01  0.51100000000E-03 0.  1.
</event>
<event>
 8    1  0.1112929E+005  0.1043930E+01  0.7957747E-01            NaN
         13   -1    0    0    0    0  0.00000000000E+00  0.00000000000E+00  0.74505805969E-08  0.10566000000E+00  0.10566000000E+00 0.  1.
     999900   -1    0    0    0    0 -0.00000000000E+00 -0.00000000000E+00 -0.74505805969E-08  0.93827000000E+00  0.93827000000E+00 0.  1.
     999902    2    1    2    0    0  0.12193040456E-02  0.22370412029E-01  0.76300154705E-02  0.10202627405E+01  0.10199881962E+01 0.  0.
     999903    2    3    3    0    0  0.12784296406E-01  0.26218336377E-01  0.12693099158E+00  0.13212914780E+00  0.22266469796E-01 0.  0.
         14    1    1    2    0    0 -0.12193040456E-02 -0.22370412029E-01 -0.76300154705E-02  0.23667259511E-01  0.00000000000E+00 0.  1.
     999901    1    3    3    0    0 -0.11564992361E-01 -0.38479243486E-02 -0.11930097611E+00  0.88813359269E+00  0.88000000000E+00 0.  1.
        -11    1    4    4    0    0  0.88645427284E-02  0.27095542776E-01  0.78303224109E-01  0.83333094164E-01  0.51100000000E-03 0.  1.
         11    1    4    4    0    0  0.39197536777E-02 -0.87720639851E-03  0.48627767469E-01  0.48796053631E-01  0.51100000000E-03 0. -1.
</event>
<event>
 8    1  0.1112929E+005  0.1043930E+01  0.7957747E-01            NaN
         13   -1    0    0    0    0  0.00000000000E+00  0.00000000000E+00  0.74505805969E-08  0.10566000000E+00  0.10566000000E+00 0.  1.
     999900   -1    0    0    0    0 -0.00000000000E+00 -0.00000000000E+00 -0.74505805969E-08  0.93827000000E+00  0.93827000000E+00 0.  1.
     999902    2    1    2    0    0  0.22602231317E-01 -0.20652608999E-02 -0.43195945377E-02  0.10208262111E+01  0.10205647301E+01 0.  0.
     999903    2    3    3    0    0 -0.38809161121E-01  0.10041346892E+00 -0.70647631589E-01  0.13027994188E+00  0.19818165362E-01 0.  0.
         14    1    1    2    0    0 -0.22602231317E-01  0.20652608999E-02  0.43195945377E-02  0.23103788868E-01  0.00000000000E+00 0.  1.
     999901    1    3    3    0    0  0.61411392438E-01 -0.10247872982E+00  0.66328037051E-01  0.89054626926E+00  0.88000000000E+00 0. -1.
        -11    1    4    4    0    0 -0.20044471289E-01  0.58021627988E-01 -0.28734427097E-01  0.67780665128E-01  0.51100000000E-03 0. -1.
         11    1    4    4    0    0 -0.18764689831E-01  0.42391840934E-01 -0.41913204491E-01  0.62499276747E-01  0.51100000000E-03 0.  1.
</event>
<event>
 8    1  0.1112929E+005  0.1043930E+01  0.7957747E-01            NaN
         13   -1    0    0    0    0  0.00000000000E+00  0.00000000000E+00  0.74505805969E-08  0.10566000000E+00  0.10566000000E+00 0.  1.
     999900   -1    0    0    0    0 -0.00000000000E+00 -0.00000000000E+00 -0.74505805969E-08  0.93827000000E+00  0.93827000000E+00 0.  1.
     999902    2    1    2    0    0  0.23051988697E-01 -0.44667220943E-02 -0.47080021701E-02  0.10199819088E+01  0.10197007321E+01 0.  0.
     999903    2    3    3    0    0  0.29410714888E-01  0.80688337945E-01  0.95752263995E-01  0.13015940808E+00  0.19934327729E-01 0.  0.
         14    1    1    2    0    0 -0.23051988697E-01  0.44667220943E-02  0.47080021701E-02  0.23948091231E-01  0.00000000000E+00 0.  1.
     999901    1    3    3    0    0 -0.63587261905E-02 -0.85155060039E-01 -0.10046026616E+00  0.88982250069E+00  0.88000000000E+00 0.  1.
        -11    1    4    4    0    0 -0.22799496569E-02  0.14789165550E-01  0.18226981796E-01  0.23588165984E-01  0.51100000000E-03 0. -1.
         11    1    4    4    0    0  0.31690664544E-01  0.65899172395E-01  0.77525282199E-01  0.10657124210E+00  0.51100000000E-03 0.  1.
</event>
<event>
 8    1  0.1112929E+005  0.1043930E+01  0.7957747E-01            NaN
         13   -1    0    0    0    0  0.00000000000E+00  0.00000000000E+00  0.74505805969E-08  0.10566000000E+00  0.10566000000E+00 0.  1.
     999900   -1    0    0    0    0 -0.00000000000E+00 -0.00000000000E+00 -0.74505805969E-08  0.93827000000E+00  0.93827000000E+00 0. -1.
     999902    2    1    2    0    0  0.49334706676E-02  0.18130281804E-02  0.22479959719E-01  0.10208437532E+01  0.10205826736E+01 0.  0.
     999903    2    3    3    0    0  0.12444136751E+00  0.38501552873E-01  0.24427872565E-03  0.13173036852E+00  0.19616492951E-01 0.  0.
         14    1    1    2    0    0 -0.49334706676E-02 -0.18130281804E-02 -0.22479959719E-01  0.23086246837E-01  0.00000000000E+00 0. -1.
     999901    1    3    3    0    0 -0.11950789684E+00 -0.36688524693E-01  0.22235680994E-01  0.88911338465E+00  0.88000000000E+00 0. -1.
        -11    1    4    4    0    0  0.76108125577E-01  0.28164715439E-01 -0.82675557759E-02  0.81573963825E-01  0.51100000000E-03 0.  1.
         11    1    4    4    0    0  0.48333241932E-01  0.10336837434E-01  0.85118345015E-02  0.50156404690E-01  0.51100000000E-03 0. -1.
</event>
<event>
 8    1  0.1112929E+005  0.1043930E+01  0.7957747E-01            NaN
         13   -1    0    0    0    0  0.00000000000E+00  0.00000000000E+00  0.74505805969E-08  0.10566000000E+00  0.10566000000E+00 0. -1.
     999900   -1    0    0    0    0 -0.00000000000E+00 -0.00000000000E+00 -0.74505805969E-08  0.93827000000E+00  0.93827000000E+00 0.  1.
     999902    2    1    2    0    0  0.16809912397E-01 -0.10048717009E-01  0.15184379615E-01  0.10191486511E+01  0.10188473182E+01 0.  0.
     999903    2    3    3    0    0 -0.51652200333E-01 -0.56736951981E-01  0.10408139925E+00  0.13079650682E+00  0.19691546642E-01 0.  0.
         14    1    1    2    0    0 -0.16809912397E-01  0.10048717009E-01 -0.15184379615E-01  0.24781348886E-01  0.00000000000E+00 0.  1.
     999901    1    3    3    0    0  0.68462112730E-01  0.46688234972E-01 -0.88897019631E-01  0.88835214429E+00  0.88000000000E+00 0. -1.
        -11    1    4    4    0    0 -0.21551665237E-01 -0.35801584239E-01  0.46391720790E-01  0.62439415335E-01  0.51100000000E-03 0.  1.
         11    1    4    4    0    0 -0.30100535096E-01 -0.20935367742E-01  0.57689678456E-01  0.68357091490E-01  0.51100000000E-03 0. -1.
</event>
<event>
 8    1  0.1112929E+005  0.1043930E+01  0.7957747E-01            NaN
         13   -1    0    0    0    0  0.00000000000E+00  0.00000000000E+00  0.74505805969E-08  0.10566000000E+00  0.10566000000E+00 0. -1.
     999900   -1    0    0    0    0 -0.00000000000E+00 -0.00000000000E+00 -0.74505805969E-08  0.93827000000E+00  0.93827000000E+00 0. -1.
     999902    2    1    2    0    0  0.22311117962E-01 -0.79908263402E-04 -0.78734065327E-02  0.10202702684E+01  0.10199959008E+01 0.  0.
     999903    2    3    3    0    0  0.23280525198E-01  0.61235418159E-01  0.11099132102E+00  0.13016390818E+00  0.18215662480E-01 0.  0.
         14    1    1    2    0    0 -0.22311117962E-01  0.79908263402E-04  0.78734065327E-02  0.23659731623E-01  0.00000000000E+00 0. -1.
     999901    1    3    3    0    0 -0.96940723619E-03 -0.61315326423E-01 -0.11886472756E+00  0.89010636020E+00  0.88000000000E+00 0. -1.
        -11    1    4    4    0    0  0.22954220524E-01  0.59469025040E-01  0.97151765980E-01  0.11619891537E+00  0.51100000000E-03 0. -1.
         11    1    4    4    0    0  0.32630467441E-03  0.17663931189E-02  0.13839555044E-01  0.13964992811E-01  0.51100000000E-03 0.  1.
</event>
<event>
 8    1  0.1112929E+005  0.1043930E+01  0.7957747E-01            NaN
         13   -1    0    0    0    0  0.00000000000E+00  0.00000000000E+00  0.74505805969E-08  0.10566000000E+00  0.10566000000E+00 0.  1.
     999900   -1    0    0    0    0 -0.00000000000E+00 -0.00000000000E+00 -0.74505805969E-08  0.93827000000E+00  0.93827000000E+00 0. -1.
     999902    2    1    2    0    0 -0.19194706121E-01  0.15561438587E-01 -0.77144053803E-02  0.10180435718E+01  0.10177144034E+01 0.  0.
     999903    2    3    3    0    0  0.88257478708E-01 -0.55627969153E-01 -0.68784480278E-01  0.12655972011E+00  0.20055037445E-01 0.  0.
         14    1    1    2    0    0  0.19194706121E-01 -0.15561438587E-01  0.77144053803E-02  0.25886428189E-01  0.00000000000E+00 0.  1.
     999901    1    3    3    0    0 -0.10745218483E+00  0.71189407741E-01  0.61070074897E-01  0.89148385170E+00  0.88000000000E+00 0. -1.
        -11    1    4    4    0    0  0.27478397853E-01 -0.27667349168E-01 -0.20546450363E-01  0.44079046066E-01  0.51100000000E-03 0.  1.
         11    1    4    4    0    0  0.60779080855E-01 -0.27960619985E-01 -0.48238029915E-01  0.82480674043E-01  0.51100000000E-03 0. -1.
</event>
<event>
 8    1  0.1112929E+005  0.1043930E+01  0.7957747E-01            NaN
         13   -1    0    0    0    0  0.00000000000E+00  0.00000000000E+00  0.74505805969E-08  0.10566000000E+00  0.10566000000E+00 0.  1.
     999900   -1    0    0    0    0 -0.00000000000E+00 -0.00000000000E+00 -0.74505805969E-08  0.93827000000E+00  0.93827000000E+00 0.  1.
     999902    2    1    2    0    0  0.15821905629E-01  0.38371457465E-02  0.15019290865E-01  0.10217797069E+01  0.10215395900E+01 0.  0.
     999903    2    3    3    0    0  0.12540006934E+00  0.14305557500E-01 -0.38321071411E-01  0.13331915301E+00  0.19382096915E-01 0.  0.
         14    1    1    2    0    0 -0.15821905629E-01 -0.38371457465E-02 -0.15019290865E-01  0.22150293075E-01  0.00000000000E+00 0.  1.
     999901    1    3    3    0    0 -0.10957816371E+00 -0.10468411754E-01  0.53340362276E-01  0.88846055391E+00  0.88000000000E+00 0. -1.
        -11    1    4    4    0    0  0.64501819012E-01  0.16597156160E-02 -0.27699043819E-01  0.70219210058E-01  0.51100000000E-03 0. -1.
         11    1    4    4    0    0  0.60898250328E-01  0.12645841884E-01 -0.10622027591E-01  0.63099942956E-01  0.51100000000E-03 0.  1.
</event>
<event>
 8    1  0.1112929E+005  0.1043930E+01  0.7957747E-01            NaN
         13   -1    0    0    0    0  0.00000000000E+00  0.00000000000E+00  0.74505805969E-08  0.10566000000E+00  0.10566000000E+00 0.  1.
     999900   -1    0    0    0    0 -0.00000000000E+00 -0.00000000000E+00 -0.74505805969E-08  0.93827000000E+00  0.93827000000E+00 0.  1.
     999902    2    1    2    0    0 -0.10188412175E-01 -0.21124432131E-01 -0.16907640041E-02  0.10204160880E+01  0.10201451311E+01 0.  0.
     999903    2    3    3    0    0 -0.85109598630E-01  0.96238214294E-02 -0.97839974212E-01  0.13148228285E+00  0.19459404727E-01 0.  0.
         14    1    1    2    0    0  0.10188412175E-01  0.21124432131E-01  0.16907640041E-02  0.23513912019E-01  0.00000000000E+00 0. -1.
     999901    1    3    3    0    0  0.74921186456E-01 -0.30748253561E-01  0.96149210208E-01  0.88893380513E+00  0.88000000000E+00 0. -1.
        -11    1    4    4    0    0 -0.27447951487E-01  0.14004999855E-02 -0.18816653870E-01  0.33311845114E-01  0.51100000000E-03 0. -1.
         11    1    4    4    0    0 -0.57661647144E-01  0.82233214439E-02 -0.79023320342E-01  0.98170437738E-01  0.51100000000E-03 0.  1.
</event>
<event>
 8    1  0.1112929E+005  0.1043930E+01  0.7957747E-01            NaN
         13   -1    0    0    0    0  0.00000000000E+00  0.00000000000E+00  0.74505805969E-08  0.10566000000E+00  0.10566000000E+00 0. -1.
     999900   -1    0    0    0    0 -0.00000000000E+00 -0.00000000000E+00 -0.74505805969E-08  0.93827000000E+00  0.93827000000E+00 0. -1.
     999902    2    1    2    0    0 -0.20568626255E-01 -0.60709451047E-02 -0.10695984859E-01  0.10199648409E+01  0.10196832585E+01 0.  0.
     999903    2    3    3    0    0 -0.86519290977E-02  0.12391259572E+00 -0.32984852981E-01  0.13005781077E+00  0.19946086413E-01 0.  0.
         14    1    1    2    0    0  0.20568626255E-01  0.60709451047E-02  0.10695984859E-01  0.23965159139E-01  0.00000000000E+00 0. -1.
     999901    1    3    3    0    0 -0.11916697157E-01 -0.12998354082E+00  0.22288868122E-01  0.88990703009E+00  0.88000000000E+00 0.  1.
        -11    1    4    4    0    0 -0.39259853241E-02  0.42252040945E-01 -0.21122836199E-01  0.47403413958E-01  0.51100000000E-03 0.  1.
         11    1    4    4    0    0 -0.47259437736E-02  0.81660554770E-01 -0.11862016782E-01  0.82654396816E-01  0.51100000000E-03 0. -1.
</event>
<event>
 8    1  0.1112929E+005  0.1043930E+01  0.7957747E-01            NaN
         13   -1    0    0    0    0  0.00000000000E+00  0.00000000000E+00  0.74505805969E-08  0.10566000000E+00  0.10566000000E+00 0.  1.
     999900   -1    0    0    0    0 -0.00000000000E+00 -0.00000000000E+00 -0.74505805969E-08  0.93827000000E+00  0.93827000000E+00 0.  1.
     999902    2    1    2    0    0  0.20164464366E-01 -0.80506751138E-02  0.12846042417E-01  0.10187022415E+01  0.10183898159E+01 0.  0.
     999903    2    3    3    0    0  0.12410167010E-01 -0.86966737698E-01  0.95467035526E-01  0.13128232818E+00  0.20096494949E-01 0.  0.
         14    1    1    2    0    0 -0.20164464366E-01  0.80506751138E-02 -0.12846042417E-01  0.25227758496E-01  0.00000000000E+00 0. -1.
     999901    1    3    3    0    0  0.77542973553E-02  0.78916062584E-01 -0.82620993109E-01  0.88741991332E+00  0.88000000000E+00 0.  1.
        -11    1    4    4    0    0 -0.51524521394E-02 -0.30227095528E-01  0.34637774681E-01  0.46262961676E-01  0.51100000000E-03 0. -1.
         11    1    4    4    0    0  0.17562619150E-01 -0.56739642170E-01  0.60829260845E-01  0.85019366505E-01  0.51100000000E-03 0.  1.
</event>
<event>
 8    1  0.1112929E+005  0.1043930E+01  0.7957747E-01            NaN
         13   -1    0    0    0    0  0.00000000000E+00  0.00000000000E+00  0.74505805969E-08  0.10566000000E+00  0.10566000000E+00 0. -1.
     999900   -1    0    0    0    0 -0.00000000000E+00 -0.00000000000E+00 -0.74505805969E-08  0.93827000000E+00  0.93827000000E+00 0.  1.
     999902    2    1    2    0    0  0.90733174650E-02  0.15713306694E-01  0.15681161370E-01  0.10199480918E+01  0.10196661111E+01 0.  0.
     999903    2    3    3    0    0 -0.85607095796E-01 -0.91461758908E-01 -0.13389280098E-01  0.12793017391E+00  0.22204242429E-01 0.  0.
         14    1    1    2    0    0 -0.90733174650E-02 -0.15713306694E-01 -0.15681161370E-01  0.23981908160E-01  0.00000000000E+00 0.  1.
     999901    1    3    3    0    0  0.94680413261E-01  0.10717506560E+00  0.29070441468E-01  0.89201791793E+00  0.88000000000E+00 0.  1.
        -11    1    4    4    0    0 -0.60617037755E-01 -0.57144615768E-01 -0.17985142399E-01  0.85227101591E-01  0.51100000000E-03 0. -1.
         11    1    4    4    0    0 -0.24990058041E-01 -0.34317143140E-01  0.45958623007E-02  0.42703072319E-01  0.51100000000E-03 0.  1.
</event>
<event>
 7    1  0.1112929E+005  0.1043930E+01  0.7957747E-01            NaN
         13   -1    0    0    0    0  0.00000000000E+00  0.00000000000E+00  0.74505805969E-08  0.10566000000E+00  0.10566000000E+00 0. -1.
     999900   -1    0    0    0    0 -0.00000000000E+00 -0.00000000000E+00 -0.74505805969E-08  0.93827000000E+00  0.93827000000E+00 0. -1.
     999903    2    1    2    0    0  0.73206427893E-01 -0.40609829000E-01  0.63122043791E-01  0.10674820759E+00  0.20061109516E-01 0.  0.
         14    1    1    2    0    0  0.16056315377E-02 -0.13788477781E-01  0.43753397433E-01  0.45902722785E-01  0.00000000000E+00 0. -1.
     999901    1    1    2    0    0 -0.74812059430E-01  0.54398306781E-01 -0.10687544122E+00  0.89127906963E+00  0.88000000000E+00 0. -1.
        -11    1    3    3    0    0  0.51683063294E-01 -0.38503250699E-01  0.46876977186E-01  0.79695366596E-01  0.51100000000E-03 0.  1.
         11    1    3    3    0    0  0.21523364599E-01 -0.21065783006E-02  0.16245066605E-01  0.27052840993E-01  0.51100000000E-03 0. -1.
</event>
<event>
 8    1  0.1112929E+005  0.1043930E+01  0.7957747E-01            NaN
         13   -1    0    0    0    0  0.00000000000E+00  0.00000000000E+00  0.74505805969E-08  0.10566000000E+00  0.10566000000E+00 0. -1.
     999900   -1    0    0    0    0 -0.00000000000E+00 -0.00000000000E+00 -0.74505805969E-08  0.93827000000E+00  0.93827000000E+00 0.  1.
     999902    2    1    2    0    0 -0.11867205803E-02 -0.20072546108E-01  0.12384059011E-01  0.10203147437E+01  0.10200414187E+01 0.  0.
     999903    2    3    3    0    0  0.34825208407E-01 -0.88292002396E-01 -0.87726710987E-01  0.13128554309E+00  0.23057432141E-01 0.  0.
         14    1    1    2    0    0  0.11867205803E-02  0.20072546108E-01 -0.12384059011E-01  0.23615256309E-01  0.00000000000E+00 0.  1.
     999901    1    3    3    0    0 -0.36011928987E-01  0.68219456288E-01  0.10011077000E+00  0.88902920060E+00  0.88000000000E+00 0. -1.
        -11    1    4    4    0    0 -0.60766216944E-03 -0.19384354471E-01 -0.24671237773E-01  0.31385562697E-01  0.51100000000E-03 0.  1.
         11    1    4    4    0    0  0.35432870576E-01 -0.68907647925E-01 -0.63055473214E-01  0.99899980396E-01  0.51100000000E-03 0. -1.
</event>
<event>
 8    1  0.1112929E+005  0.1043930E+01  0.7957747E-01            NaN
         13   -1    0    0    0    0  0.00000000000E+00  0.00000000000E+00  0.74505805969E-08  0.10566000000E+00  0.10566000000E+00 0. -1.
     999900   -1    0    0    0    0 -0.00000000000E+00 -0.00000000000E+00 -0.74505805969E-08  0.93827000000E+00  0.93827000000E+00 0.  1.
     999902    2    1    2    0    0 -0.10229160148E-01 -0.95083670662E-03  0.21205451391E-01  0.10203670847E+01  0.10200949841E+01 0.  0.
     999903    2    3    3    0    0 -0.86283460228E-01  0.21767564842E-01 -0.91976607014E-01  0.12957498739E+00  0.20280994306E-01 0.  0.
         14    1    1    2    0    0  0.10229160148E-01  0.95083670662E-03 -0.21205451391E-01  0.23562915280E-01  0.00000000000E+00 0.  1.
     999901    1    3    3    0    0  0.76054300079E-01 -0.22718401548E-01  0.11318205841E+00  0.89079209733E+00  0.88000000000E+00 0.  1.
        -11    1    4    4    0    0 -0.51728862362E-01  0.38234783748E-02 -0.46063119062E-01  0.69372662101E-01  0.51100000000E-03 0. -1.
         11    1    4    4    0    0 -0.34554597865E-01  0.17944086467E-01 -0.45913487952E-01  0.60202325285E-01  0.51100000000E-03 0.  1.
</event>
<event>
 8    1  0.1112929E+005  0.1043930E+01  0.7957747E-01            NaN
         13   -1    0    0    0    0  0.00000000000E+00  0.00000000000E+00  0.74505805969E-08  0.10566000000E+00  0.10566000000E+00 0. -1.
     999900   -1    0    0    0    0 -0.00000000000E+00 -0.00000000000E+00 -0.74505805969E-08  0.93827000000E+00  0.93827000000E+00 0.  1.
     999902    2    1    2    0    0 -0.31865519243E-02  0.10198043282E-01 -0.20659723130E-01  0.10206710585E+01  0.10204060130E+01 0.  0.
     999903    2    3    3    0    0 -0.71189465564E-01  0.79503552368E-01  0.72349570821E-01  0.13045851162E+00  0.19904974520E-01 0.  0.
         14    1    1    2    0    0  0.31865519243E-02 -0.10198043282E-01  0.20659723130E-01  0.23258941501E-01  0.00000000000E+00 0. -1.
     999901    1    3    3    0    0  0.68002913639E-01 -0.69305509086E-01 -0.93009293951E-01  0.89021254688E+00  0.88000000000E+00 0.  1.
        -11    1    4    4    0    0 -0.45188099226E-01  0.60983732150E-01  0.43830656580E-01  0.87649115660E-01  0.51100000000E-03 0.  1.
         11    1    4    4    0    0 -0.26001366337E-01  0.18519820218E-01  0.28518914241E-01  0.42809395964E-01  0.51100000000E-03 0. -1.
</event>
<event>
 8    1  0.1112929E+005  0.1043930E+01  0.7957747E-01            NaN
         13   -1    0    0    0    0  0.00000000000E+00  0.00000000000E+00  0.74505805969E-08  0.10566000000E+00  0.10566000000E+00 0. -1.
     999900   -1    0    0    0    0 -0.00000000000E+00 -0.00000000000E+00 -0.74505805969E-08  0.93827000000E+00  0.93827000000E+00 0.  1.
     999902    2    1    2    0    0 -0.11757148009E-01 -0.99097801913E-02  0.18319025125E-01  0.10200130404E+01  0.10197326031E+01 0.  0.
     999903    2    3    3    0    0  0.65321998288E-01  0.71154420221E-01  0.85554853801E-01  0.13038769456E+00  0.18745743704E-01 0.  0.
         14    1    1    2    0    0  0.11757148009E-01  0.99097801913E-02 -0.18319025125E-01  0.23916959554E-01  0.00000000000E+00 0.  1.
     999901    1    3    3    0    0 -0.77079146297E-01 -0.81064200412E-01 -0.67235828675E-01  0.88962534588E+00  0.88000000000E+00 0.  1.
        -11    1    4    4    0    0  0.23599338872E-02 -0.63542189663E-03  0.44515977186E-02  0.51040074634E-02  0.51100000000E-03 0.  1.
         11    1    4    4    0    0  0.62962064401E-01  0.71789842117E-01  0.81103256082E-01  0.12528368710E+00  0.51100000000E-03 0. -1.
</event>
<event>
 8    1  0.1112929E+005  0.1043930E+01  0.7957747E-01            NaN
         13   -1    0    0    0    0  0.00000000000E+00  0.00000000000E+00  0.74505805969E-08  0.10566000000E+00  0.10566000000E+00 0.  1.
     999900   -1    0    0    0    0 -0.00000000000E+00 -0.00000000000E+00 -0.74505805969E-08  0.93827000000E+00  0.93827000000E+00 0.  1.
     999902    2    1    2    0    0 -0.18057009823E-01  0.97075595043E-02 -0.10326452250E-01  0.10209750892E+01  0.10207170052E+01 0.  0.
     999903    2    3    3    0    0 -0.44898622995E-01 -0.57481909136E-01  0.10633293261E+00  0.13033245097E+00  0.18968368277E-01 0.  0.
         14    1    1    2    0    0  0.18057009823E-01 -0.97075595043E-02  0.10326452250E-01  0.22954910833E-01  0.00000000000E+00 0.  1.
     999901    1    3    3    0    0  0.26841613172E-01  0.67189468641E-01 -0.11665938486E+00  0.89064263819E+00  0.88000000000E+00 0.  1.
        -11    1    4    4    0    0 -0.17438597517E-01 -0.37429671607E-01  0.60956383913E-01  0.73627622946E-01  0.51100000000E-03 0.  1.
         11    1    4    4    0    0 -0.27460025478E-01 -0.20052237530E-01  0.45376548694E-01  0.56704828027E-01  0.51100000000E-03 0. -1.
</event>
<event>
 8    1  0.1112929E+005  0.1043930E+01  0.7957747E-01            NaN
         13   -1    0    0    0    0  0.00000000000E+00  0.00000000000E+00  0.74505805969E-08  0.10566000000E+00  0.10566000000E+00 0.  1.
     999900   -1    0    0    0    0 -0.00000000000E+00 -0.00000000000E+00 -0.74505805969E-08  0.93827000000E+00  0.93827000000E+00 0. -1.
     999902    2    1    2    0    0  0.67849706182E-02 -0.14831901451E-02 -0.21961870447E-01  0.10208961242E+01  0.10206362413E+01 0.  0.
     999903    2    3    3    0    0  0.76718637985E-01  0.28138244679E-01  0.98042121256E-01  0.12951006575E+00  0.21979293949E-01 0.  0.
         14    1    1    2    0    0 -0.67849706182E-02  0.14831901451E-02  0.21961870447E-01  0.23033875767E-01  0.00000000000E+00 0.  1.
     999901    1    3    3    0    0 -0.69933667367E-01 -0.29621434824E-01 -0.12000399170E+00  0.89138605848E+00  0.88000000000E+00 0. -1.
        -11    1    4    4    0    0  0.41976981646E-01  0.15571723021E-01  0.70127224613E-01  0.83202369551E-01  0.51100000000E-03 0.  1.
         11    1    4    4    0    0  0.34741656339E-01  0.12566521658E-01  0.27914896643E-01  0.46307696200E-01  0.51100000000E-03 0. -1.
</event>
<event>
 8    1  0.1112929E+005  0.1043930E+01  0.7957747E-01            NaN
         13   -1    0    0    0    0  0.00000000000E+00  0.00000000000E+00  0.74505805969E-08  0.10566000000E+00  0.10566000000E+00 0. -1.
     999900   -1    0    0    0    0 -0.00000000000E+00 -0.00000000000E+00 -0.74505805969E-08  0.93827000000E+00  0.93827000000E+00 0. -1.
     999902    2    1    2    0    0 -0.11456215676E-01  0.13425134372E-01 -0.14216345371E-01  0.10212676174E+01  0.10210161422E+01 0.  0.
     999903    2    3    3    0    0 -0.87601751797E-01 -0.75622122902E-01 -0.60999054088E-01  0.13227032912E+00  0.19539267505E-01 0.  0.
         14    1    1    2    0    0  0.11456215676E-01 -0.13425134372E-01  0.14216345371E-01  0.22662382624E-01  0.00000000000E+00 0.  1.
     999901    1    3    3    0    0  0.76145536121E-01  0.89047257273E-01  0.46782708717E-01  0.88899728826E+00  0.88000000000E+00 0. -1.
        -11    1    4    4    0    0 -0.69051261745E-01 -0.52708398627E-01 -0.52830355077E-01  0.10167379000E+00  0.51100000000E-03 0. -1.
         11    1    4    4    0    0 -0.18550490052E-01 -0.22913724275E-01 -0.81686990106E-02  0.30596539116E-01  0.51100000000E-03 0.  1.
</event>
<event>
 8    1  0.1112929E+005  0.1043930E+01  0.7957747E-01            NaN
         13   -1    0    0    0    0  0.00000000000E+00  0.00000000000E+00  0.74505805969E-08  0.10566000000E+00  0.10566000000E+00 0.  1.
     999900   -1    0    0    0    0 -0.00000000000E+00 -0.00000000000E+00 -0.74505805969E-08  0.93827000000E+00  0.93827000000E+00 0. -1.
     999902    2    1    2    0    0  0.91829014298E-02  0.84076882722E-02  0.19564521635E-01  0.10207397993E+01  0.10204763361E+01 0.  0.
     999903    2    3    3    0    0  0.89177144796E-01  0.37851568596E-01  0.90065262988E-01  0.13381456257E+00  0.20230698420E-01 0.  0.
         14    1    1    2    0    0 -0.91829014298E-02 -0.84076882722E-02 -0.19564521635E-01  0.23190200679E-01  0.00000000000E+00 0. -1.
     999901    1    3    3    0    0 -0.79994243366E-01 -0.29443880324E-01 -0.70500741354E-01  0.88692523675E+00  0.88000000000E+00 0. -1.
        -11    1    4    4    0    0  0.77579617301E-01  0.32411250427E-01  0.86221413696E-01  0.12043039266E+00  0.51100000000E-03 0. -1.
         11    1    4    4    0    0  0.11597527495E-01  0.54403181691E-02  0.38438492919E-02  0.13384169909E-01  0.51100000000E-03 0.  1.
</event>
<event>
 8    1  0.1112929E+005  0.1043930E+01  0.7957747E-01            NaN
         13   -1    0    0    0    0  0.00000000000E+00  0.00000000000E+00  0.74505805969E-08  0.10566000000E+00  0.10566000000E+00 0. -1.
     999900   -1    0    0    0    0 -0.00000000000E+00 -0.00000000000E+00 -0.74505805969E-08  0.93827000000E+00  0.93827000000E+00 0.  1.
     999902    2    1    2    0    0  0.11659606958E-01 -0.20263394904E-01 -0.16385581766E-01  0.10153811139E+01  0.10149796883E+01 0.  0.
     999903    2    3    3    0    0 -0.10091771859E+00 -0.59545690440E-01 -0.44471476507E-01  0.12689612784E+00  0.19870577833E-01 0.  0.
         14    1    1    2    0    0 -0.11659606958E-01  0.20263394904E-01  0.16385581766E-01  0.28548886095E-01  0.00000000000E+00 0. -1.
     999901    1    3    3    0    0  0.11257732555E+00  0.39282295536E-01  0.28085894742E-01  0.88848498606E+00  0.88000000000E+00 0. -1.
        -11    1    4    4    0    0 -0.28224534334E-01 -0.18335075060E-01 -0.22512948311E-01  0.40495595792E-01  0.51100000000E-03 0. -1.
         11    1    4    4    0    0 -0.72693184258E-01 -0.41210615379E-01 -0.21958528196E-01  0.86400532053E-01  0.51100000000E-03 0.  1.
</event>
<event>
 8    1  0.1112929E+005  0.1043930E+01  0.7957747E-01            NaN
         13   -1    0    0    0    0  0.00000000000E+00  0.00000000000E+00  0.74505805969E-08  0.10566000000E+00  0.10566000000E+00 0.  1.
     999900   -1    0    0    0    0 -0.00000000000E+00 -0.00000000000E+00 -0.74505805969E-08  0.93827000000E+00  0.93827000000E+00 0. -1.
     999902    2    1    2    0    0 -0.58560537298E-02  0.15133929192E-01 -0.15305484489E-01  0.10216233410E+01  0.10213797844E+01 0.  0.
     999903    2    3    3    0    0  0.47124024608E-01 -0.11823653831E+00 -0.14192893321E-01  0.12999796671E+00  0.22304269607E-01 0.  0.
         14    1    1    2    0    0  0.58560537298E-02 -0.15133929192E-01  0.15305484489E-01  0.22306658951E-01  0.00000000000E+00 0.  1.
     999901    1    3    3    0    0 -0.52980078338E-01  0.13337046750E+00 -0.11125911683E-02  0.89162537434E+00  0.88000000000E+00 0.  1.
        -11    1    4    4    0    0  0.24918600004E-01 -0.61498377842E-01 -0.18580996618E-01  0.68909372800E-01  0.51100000000E-03 0.  1.
         11    1    4    4    0    0  0.22205424604E-01 -0.56738160465E-01  0.43881032966E-02  0.61088593913E-01  0.51100000000E-03 0. -1.
</event>
<event>
 8    1  0.1112929E+005  0.1043930E+01  0.7957747E-01            NaN
         13   -1    0    0    0    0  0.00000000000E+00  0.00000000000E+00  0.74505805969E-08  0.10566000000E+00  0.10566000000E+00 0. -1.
     999900   -1    0    0    0    0 -0.00000000000E+00 -0.00000000000E+00 -0.74505805969E-08  0.93827000000E+00  0.93827000000E+00 0. -1.
     999902    2    1    2    0    0 -0.13409623600E-01 -0.18912240274E-01  0.18257621311E-02  0.10206743718E+01  0.10204094026E+01 0.  0.
     999903    2    3    3    0    0 -0.99329694122E-01  0.73543796719E-01  0.38468172059E-01  0.13091426730E+00  0.19587418162E-01 0.  0.
         14    1    1    2    0    0  0.13409623600E-01  0.18912240274E-01 -0.18257621311E-02  0.23255628236E-01  0.00000000000E+00 0.  1.
     999901    1    3    3    0    0  0.85920070522E-01 -0.92456036994E-01 -0.36642409927E-01  0.88976010447E+00  0.88000000000E+00 0. -1.
        -11    1    4    4    0    0 -0.71304845951E-01  0.42469292111E-01  0.29757035505E-01  0.88168952083E-01  0.51100000000E-03 0. -1.
         11    1    4    4    0    0 -0.28024848172E-01  0.31074504609E-01  0.87111365531E-02  0.42745315214E-01  0.51100000000E-03 0.  1.
</event>
<event>
 8    1  0.1112929E+005  0.1043930E+01  0.7957747E-01            NaN
         13   -1    0    0    0    0  0.00000000000E+00  0.00000000000E+00  0.74505805969E-08  0.10566000000E+00  0.10566000000E+00 0. -1.
     999900   -1    0    0    0    0 -0.00000000000E+00 -0.00000000000E+00 -0.74505805969E-08  0.93827000000E+00  0.93827000000E+00 0.  1.
     999902    2    1    2    0    0 -0.13839035632E-01 -0.16061424189E-01 -0.11613014156E-01  0.10197566603E+01  0.10194701054E+01 0.  0.
     999903    2    3    3    0    0 -0.13012753694E+00 -0.81462017596E-03  0.54986692040E-02  0.13181055255E+00  0.20247146110E-01 0.  0.
         14    1    1    2    0    0  0.13839035632E-01  0.16061424189E-01  0.11613014156E-01  0.24173339695E-01  0.00000000000E+00 0. -1.
     999901    1    3    3    0    0  0.11628850130E+00 -0.15246804013E-01 -0.17111683359E-01  0.88794610775E+00  0.88000000000E+00 0. -1.
        -11    1    4    4    0    0 -0.32761481775E-01  0.22742780445E-02  0.98726524584E-02  0.34296026246E-01  0.51100000000E-03 0.  1.
         11    1    4    4    0    0 -0.97366055162E-01 -0.30888982205E-02 -0.43739832544E-02  0.97514526305E-01  0.51100000000E-03 0. -1.
</event>
<event>
 8    1  0.1112929E+005  0.1043930E+01  0.7957747E-01            NaN
         13   -1    0    0    0    0  0.00000000000E+00  0.00000000000E+00  0.74505805969E-08  0.10566000000E+00  0.10566000000E+00 0. -1.
     999900   -1    0    0    0    0 -0.00000000000E+00 -0.00000000000E+00 -0.74505805969E-08  0.93827000000E+00  0.93827000000E+00 0.  1.
     999902    2    1    2    0    0 -0.34383534370E-03 -0.40128081729E-02  0.23076109052E-01  0.10205050633E+01  0.10202361768E+01 0.  0.
     999903    2    3    3    0    0 -0.12185044985E+00  0.19349774690E-01  0.41238913920E-01  0.13166337031E+00  0.20313767498E-01 0.  0.
         14    1    1    2    0    0  0.34383534370E-03  0.40128081729E-02 -0.23076109052E-01  0.23424936738E-01  0.00000000000E+00 0.  1.
     999901    1    3    3    0    0  0.12150661451E+00 -0.23362582863E-01 -0.18162804867E-01  0.88884169295E+00  0.88000000000E+00 0.  1.
        -11    1    4    4    0    0 -0.61216175868E-01 -0.53638062163E-03  0.19689155746E-01  0.64308878602E-01  0.51100000000E-03 0. -1.
         11    1    4    4    0    0 -0.60634273987E-01  0.19886155312E-01  0.21549758173E-01  0.67354491709E-01  0.51100000000E-03 0.  1.
</event>
<event>
 8    1  0.1112929E+005  0.1043930E+01  0.7957747E-01            NaN
         13   -1    0    0    0    0  0.00000000000E+00  0.00000000000E+00  0.74505805969E-08  0.10566000000E+00  0.10566000000E+00 0. -1.
     999900   -1    0    0    0    0 -0.00000000000E+00 -0.00000000000E+00 -0.74505805969E-08  0.93827000000E+00  0.93827000000E+00 0. -1.
     999902    2    1    2    0    0  0.67841089908E-02 -0.15876589754E-01 -0.16928319464E-01  0.10197502929E+01  0.10194635852E+01 0.  0.
     999903    2    3    3    0    0  0.71736972517E-01  0.87135409953E-01  0.57322409060E-01  0.12826640785E+00  0.20679456207E-01 0.  0.
         14    1    1    2    0    0 -0.67841089908E-02  0.15876589754E-01  0.16928319464E-01  0.24179707130E-01  0.00000000000E+00 0. -1.
     999901    1    3    3    0    0 -0.64952863526E-01 -0.10301199971E+00 -0.74250728524E-01  0.89148388502E+00  0.88000000000E+00 0. -1.
        -11    1    4    4    0    0  0.42811234656E-01  0.63554897684E-01  0.31348352490E-01  0.82794970603E-01  0.51100000000E-03 0. -1.
         11    1    4    4    0    0  0.28925737861E-01  0.23580512269E-01  0.25974056570E-01  0.45471437247E-01  0.51100000000E-03 0.  1.
</event>
<event>
 8    1  0.1112929E+005  0.1043930E+01  0.7957747E-01            NaN
         13   -1    0    0    0    0  0.00000000000E+00  0.00000000000E+00  0.74505805969E-08  0.10566000000E+00  0.10566000000E+00 0. -1.
     999900   -1    0    0    0    0 -0.00000000000E+00 -0.00000000000E+00 -0.74505805969E-08  0.93827000000E+00  0.93827000000E+00 0. -1.
     999902    2    1    2    0    0 -0.11006666610E-01 -0.19086719821E-01 -0.50145250183E-02  0.10213336498E+01  0.10210836543E+01 0.  0.
     999903    2    3    3    0    0 -0.73945404039E-02 -0.13147349684E+00  0.13228976861E-01  0.13399117896E+00  0.20944464924E-01 0.  0.
         14    1    1    2    0    0  0.11006666610E-01  0.19086719821E-01  0.50145250183E-02  0.22596350248E-01  0.00000000000E+00 0.  1.
     999901    1    3    3    0    0 -0.36121262058E-02  0.11238677702E+00 -0.18243501879E-01  0.88734247079E+00  0.88000000000E+00 0. -1.
        -11    1    4    4    0    0  0.42769065728E-02 -0.30349651471E-01  0.96310916709E-02  0.32131173679E-01  0.51100000000E-03 0.  1.
         11    1    4    4    0    0 -0.11671446977E-01 -0.10112384537E+00  0.35978851900E-02  0.10186000528E+00  0.51100000000E-03 0. -1.
</event>
<event>
 8    1  0.1112929E+005  0.1043930E+01  0.7957747E-01            NaN
         13   -1    0    0    0    0  0.00000000000E+00  0.00000000000E+00  0.74505805969E-08  0.10566000000E+00  0.10566000000E+00 0. -1.
     999900   -1    0    0    0    0 -0.00000000000E+00 -0.00000000000E+00 -0.74505805969E-08  0.93827000000E+00  0.93827000000E+00 0.  1.
     999902    2    1    2    0    0 -0.62005331311E-02  0.20951512839E-01 -0.76134628773E-02  0.10207917780E+01  0.10205295080E+01 0.  0.
     999903    2    3    3    0    0 -0.43060670644E-01  0.91793373644E-01  0.82665523189E-01  0.13257585023E+00  0.21506337184E-01 0.  0.
         14    1    1    2    0    0  0.62005331311E-02 -0.20951512839E-01  0.76134628773E-02  0.23138222022E-01  0.00000000000E+00 0.  1.
     999901    1    3    3    0    0  0.36860137513E-01 -0.70841860805E-01 -0.90278986066E-01  0.88821592775E+00  0.88000000000E+00 0.  1.
        -11    1    4    4    0    0 -0.14995241126E-01  0.43132155385E-01  0.24967231103E-01  0.52046746628E-01  0.51100000000E-03 0. -1.
         11    1    4    4    0    0 -0.28065429518E-01  0.48661218258E-01  0.57698292085E-01  0.80529103603E-01  0.51100000000E-03 0.  1.
</event>
<event>
 8    1  0.1112929E+005  0.1043930E+01  0.7957747E-01            NaN
         13   -1    0    0    0    0  0.00000000000E+00  0.00000000000E+00  0.74505805969E-08  0.10566000000E+00  0.10566000000E+00 0. -1.
     999900   -1    0    0    0    0 -0.00000000000E+00 -0.00000000000E+00 -0.74505805969E-08  0.93827000000E+00  0.93827000000E+00 0.  1.
     999902    2    1    2    0    0 -0.15679876280E-01 -0.75198828371E-02 -0.13975611683E-01  0.10216202515E+01  0.10213766266E+01 0.  0.
     999903    2    3    3    0    0  0.12685738316E+00  0.31862515161E-02  0.16699501780E-01  0.12955946080E+00  0.20095588110E-01 0.  0.
         14    1    1    2    0    0  0.15679876280E-01  0.75198828371E-02  0.13975611683E-01  0.22309748541E-01  0.00000000000E+00 0.  1.
     999901    1    3    3    0    0 -0.14253725944E+00 -0.10706134353E-01 -0.30675113463E-01  0.89206079066E+00  0.88000000000E+00 0.  1.
        -11    1    4    4    0    0  0.51952790104E-01 -0.82152313660E-02  0.94675764791E-02  0.53446034009E-01  0.51100000000E-03 0. -1.
         11    1    4    4    0    0  0.74904593060E-01  0.11401482882E-01  0.72319253014E-02  0.76113426792E-01  0.51100000000E-03 0.  1.
</event>
<event>
 8    1  0.1112929E+005  0.1043930E+01  0.7957747E-01            NaN
         13   -1    0    0    0    0  0.00000000000E+00  0.00000000000E+00  0.74505805969E-08  0.10566000000E+00  0.10566000000E+00 0. -1.
     999900   -1    0    0    0    0 -0.00000000000E+00 -0.00000000000E+00 -0.74505805969E-08  0.93827000000E+00  0.93827000000E+00 0. -1.
     999902    2    1    2    0    0  0.20670267090E-01  0.11124400514E-01  0.97013441615E-02  0.10185306239E+01  0.10182138790E+01 0.  0.
     999903    2    3    3    0    0  0.96973568305E-01 -0.56967425033E-01 -0.61574330075E-01  0.12974554738E+00  0.19833014805E-01 0.  0.
         14    1    1    2    0    0 -0.20670267090E-01 -0.11124400514E-01 -0.97013441615E-02  0.25399376113E-01  0.00000000000E+00 0.  1.
     999901    1    3    3    0    0 -0.76303301215E-01  0.68091825547E-01  0.71275674237E-01  0.88878507651E+00  0.88000000000E+00 0.  1.
        -11    1    4    4    0    0  0.46320561715E-01 -0.25102417756E-01 -0.17848822520E-01  0.55628836058E-01  0.51100000000E-03 0. -1.
         11    1    4    4    0    0  0.50653006590E-01 -0.31865007277E-01 -0.43725507555E-01  0.74116711323E-01  0.51100000000E-03 0.  1.
</event>
<event>
 8    1  0.1112929E+005  0.1043930E+01  0.7957747E-01            NaN
         13   -1    0    0    0    0  0.00000000000E+00  0.00000000000E+00  0.74505805969E-08  0.10566000000E+00  0.10566000000E+00 0. -1.
     999900   -1    0    0    0    0 -0.00000000000E+00 -0.00000000000E+00 -0.74505805969E-08  0.93827000000E+00  0.93827000000E+00 0.  1.
     999902    2    1    2    0    0 -0.54010817738E-02  0.22265862311E-01  0.57985610929E-02  0.10202960494E+01  0.10200222865E+01 0.  0.
     999903    2    3    3    0    0  0.74523771153E-01  0.15398312291E-01  0.10457549252E+00  0.13114362856E+00  0.21719051249E-01 0.  0.
         14    1    1    2    0    0  0.54010817738E-02 -0.22265862311E-01 -0.57985610929E-02  0.23633950570E-01  0.00000000000E+00 0. -1.
     999901    1    3    3    0    0 -0.79924852926E-01  0.68675500201E-02 -0.98776931429E-01  0.88915242087E+00  0.88000000000E+00 0. -1.
        -11    1    4    4    0    0  0.33398053485E-01  0.17930735797E-01  0.51563406323E-01  0.63999900433E-01  0.51100000000E-03 0.  1.
         11    1    4    4    0    0  0.41125717667E-01 -0.25324235055E-02  0.53012086199E-01  0.67143728126E-01  0.51100000000E-03 0. -1.
</event>
<event>
 8    1  0.1112929E+005  0.1043930E+01  0.7957747E-01            NaN
         13   -1    0    0    0    0  0.00000000000E+00  0.00000000000E+00  0.74505805969E-08  0.10566000000E+00  0.10566000000E+00 0. -1.
     999900   -1    0    0    0    0 -0.00000000000E+00 -0.00000000000E+00 -0.74505805969E-08  0.93827000000E+00  0.93827000000E+00 0. -1.
     999902    2    1    2    0    0  0.12636250166E-01  0.36348024407E-02  0.19967910952E-01  0.10200217572E+01  0.10197415266E+01 0.  0.
     999903    2    3    3    0    0  0.45067077994E-02  0.78483567536E-01 -0.99526429881E-01  0.12876010952E+00  0.22218793181E-01 0.  0.
         14    1    1    2    0    0 -0.12636250166E-01 -0.36348024407E-02 -0.19967910952E-01  0.23908242822E-01  0.00000000000E+00 0.  1.
     999901    1    3    3    0    0  0.81295423664E-02 -0.74848765095E-01  0.11949434083E+00  0.89126164766E+00  0.88000000000E+00 0.  1.
        -11    1    4    4    0    0  0.13413994657E-01  0.51988187297E-01 -0.63474484796E-01  0.83138307730E-01  0.51100000000E-03 0. -1.
         11    1    4    4    0    0 -0.89072868574E-02  0.26495380239E-01 -0.36051945085E-01  0.45621801790E-01  0.51100000000E-03 0.  1.
</event>
<event>
 8    1  0.1112929E+005  0.1043930E+01  0.7957747E-01            NaN
         13   -1    0    0    0    0  0.00000000000E+00  0.00000000000E+00  0.74505805969E-08  0.10566000000E+00  0.10566000000E+00 0.  1.
     999900   -1    0    0    0    0 -0.00000000000E+00 -0.00000000000E+00 -0.74505805969E-08  0.93827000000E+00  0.93827000000E+00 0. -1.
     999902    2    1    2    0    0  0.26257261639E-02 -0.15619678212E-01  0.17294745677E-01  0.10204784113E+01  0.10202089055E+01 0.  0.
     999903    2    3    3    0    0  0.48391073367E-01  0.94347392958E-01  0.73706534901E-01  0.13066409711E+00  0.19933049099E-01 0.  0.
         14    1    1    2    0    0 -0.26257261639E-02  0.15619678212E-01 -0.17294745677E-01  0.23451588718E-01  0.00000000000E+00 0. -1.
     999901    1    3    3    0    0 -0.45765347203E-01 -0.10996707117E+00 -0.56411789223E-01  0.88981431417E+00  0.88000000000E+00 0. -1.
        -11    1    4    4    0    0  0.87339656282E-02  0.18396825168E-01  0.24480971360E-01  0.31848146125E-01  0.51100000000E-03 0. -1.
         11    1    4    4    0    0  0.39657107739E-01  0.75950567790E-01  0.49225563541E-01  0.98815950983E-01  0.51100000000E-03 0.  1.
</event>
<event>
 8    1  0.1112929E+005  0.1043930E+01  0.7957747E-01            NaN
         13   -1    0    0    0    0  0.00000000000E+00  0.00000000000E+00  0.74505805969E-08  0.10566000000E+00  0.10566000000E+00 0.  1.
     999900   -1    0    0    0    0 -0.00000000000E+00 -0.00000000000E+00 -0.74505805969E-08  0.93827000000E+00  0.93827000000E+00 0.  1.
     999902    2    1    2    0    0  0.19886865545E-01  0.28091621970E-02 -0.11741614760E-01  0.10206653416E+01  0.10204001643E+01 0.  0.
     999903    2    3    3    0    0  0.84738549464E-01  0.44142988701E-01  0.88394595902E-01  0.13165381928E+00  0.19745843372E-01 0.  0.
         14    1    1    2    0    0 -0.19886865545E-01 -0.28091621970E-02  0.11741614760E-01  0.23264658403E-01  0.00000000000E+00 0. -1.
     999901    1    3    3    0    0 -0.64851683919E-01 -0.41333826504E-01 -0.10013621066E+00  0.88901152231E+00  0.88000000000E+00 0.  1.
        -11    1    4    4    0    0  0.18068573542E-01  0.10566274591E-02  0.18493898149E-01  0.25881947399E-01  0.51100000000E-03 0. -1.
         11    1    4    4    0    0  0.66669975922E-01  0.43086361242E-01  0.69900697753E-01  0.10577187188E+00  0.51100000000E-03 0.  1.
</event>
<event>
 8    1  0.1112929E+005  0.1043930E+01  0.7957747E-01            NaN
         13   -1    0    0    0    0  0.00000000000E+00  0.00000000000E+00  0.74505805969E-08  0.10566000000E+00  0.10566000000E+00 0. -1.
     999900   -1    0    0    0    0 -0.00000000000E+00 -0.00000000000E+00 -0.74505805969E-08  0.93827000000E+00  0.93827000000E+00 0.  1.
     999902    2    1    2    0    0  0.15472431162E-01 -0.63824511944E-02 -0.17384984361E-01  0.10197976671E+01  0.10195120952E+01 0.  0.
     999903    2    3    3    0    0  0.87359452754E-01  0.18769413324E-01  0.91984485258E-01  0.12976281328E+00  0.19831220813E-01 0.  0.
         14    1    1    2    0    0 -0.15472431162E-01  0.63824511944E-02  0.17384984361E-01  0.24132332886E-01  0.00000000000E+00 0. -1.
     999901    1    3    3    0    0 -0.71887021593E-01 -0.25151864518E-01 -0.10936946962E+00  0.89003485384E+00  0.88000000000E+00 0.  1.
        -11    1    4    4    0    0  0.50304091234E-01  0.16034049135E-01  0.41936686976E-01  0.67428029499E-01  0.51100000000E-03 0. -1.
         11    1    4    4    0    0  0.37055361521E-01  0.27353641887E-02  0.50047798282E-01  0.62334783777E-01  0.51100000000E-03 0.  1.
</event>
<event>
 8    1  0.1112929E+005  0.1043930E+01  0.7957747E-01            NaN
         13   -1    0    0    0    0  0.00000000000E+00  0.00000000000E+00  0.74505805969E-08  0.10566000000E+00  0.10566000000E+00 0. -1.
     999900   -1    0    0    0    0 -0.00000000000E+00 -0.00000000000E+00 -0.74505805969E-08  0.93827000000E+00  0.93827000000E+00 0.  1.
     999902    2    1    2    0    0  0.18571801176E-01 -0.63490583537E-02 -0.16529573083E-01  0.10182697364E+01  0.10179463674E+01 0.  0.
     999903    2    3    3    0    0 -0.49339657594E-01 -0.85611137312E-01  0.77553195299E-01  0.12712103350E+00  0.19534339377E-01 0.  0.
         14    1    1    2    0    0 -0.18571801176E-01  0.63490583537E-02  0.16529573083E-01  0.25660263584E-01  0.00000000000E+00 0. -1.
     999901    1    3    3    0    0  0.67911458770E-01  0.79262078958E-01 -0.94082768382E-01  0.89114870291E+00  0.88000000000E+00 0.  1.
        -11    1    4    4    0    0 -0.99723418501E-03 -0.12956150517E-01  0.62616627130E-02  0.14433497607E-01  0.51100000000E-03 0.  1.
         11    1    4    4    0    0 -0.48342423409E-01 -0.72654986795E-01  0.71291532586E-01  0.11268753590E+00  0.51100000000E-03 0. -1.
</event>
<event>
 8    1  0.1112929E+005  0.1043930E+01  0.7957747E-01            NaN
         13   -1    0    0    0    0  0.00000000000E+00  0.00000000000E+00  0.74505805969E-08  0.10566000000E+00  0.10566000000E+00 0. -1.
     999900   -1    0    0    0    0 -0.00000000000E+00 -0.00000000000E+00 -0.74505805969E-08  0.93827000000E+00  0.93827000000E+00 0. -1.
     999902    2    1    2    0    0  0.18146156431E-01 -0.14598207917E-01  0.46362605767E-02  0.10201837249E+01  0.10199073228E+01 0.  0.
     999903    2    3    3    0    0  0.10504111477E+00 -0.39362991234E-02  0.78627660206E-01  0.13274970637E+00  0.19774866544E-01 0.  0.
         14    1    1    2    0    0 -0.18146156431E-01  0.14598207917E-01 -0.46362605767E-02  0.23746275071E-01  0.00000000000E+00 0.  1.
     999901    1    3    3    0    0 -0.86894958343E-01 -0.10661908794E-01 -0.73991399629E-01  0.88743401856E+00  0.88000000000E+00 0. -1.
        -11    1    4    4    0    0  0.58996212164E-01  0.10824622303E-03  0.32110487877E-01  0.67170747500E-01  0.51100000000E-03 0. -1.
         11    1    4    4    0    0  0.46044902610E-01 -0.40445453464E-02  0.46517172329E-01  0.65578958866E-01  0.51100000000E-03 0.  1.
</event>
<event>
 8    1  0.1112929E+005  0.1043930E+01  0.7957747E-01            NaN
         13   -1    0    0    0    0  0.00000000000E+00  0.00000000000E+00  0.74505805969E-08  0.10566000000E+00  0.10566000000E+00 0. -1.
     999900   -1    0    0    0    0 -0.00000000000E+00 -0.00000000000E+00 -0.74505805969E-08  0.93827000000E+00  0.93827000000E+00 0. -1.
     999902    2    1    2    0    0 -0.14795725265E-01  0.99723401511E-02  0.16647640007E-01  0.10195270294E+01  0.10192349380E+01 0.  0.
     999903    2    3    3    0    0  0.72260349184E-01 -0.52357967373E-01  0.92242451381E-01  0.12982010981E+00  0.19536536611E-01 0.  0.
         14    1    1    2    0    0  0.14795725265E-01 -0.99723401511E-02 -0.16647640007E-01  0.24402970557E-01  0.00000000000E+00 0.  1.
     999901    1    3    3    0    0 -0.87056074449E-01  0.62330307524E-01 -0.75594811374E-01  0.88970691963E+00  0.88000000000E+00 0. -1.
        -11    1    4    4    0    0  0.62344786870E-01 -0.41002514387E-01  0.66344097320E-01  0.99849281450E-01  0.51100000000E-03 0.  1.
         11    1    4    4    0    0  0.99155623140E-02 -0.11355452986E-01  0.25898354061E-01  0.29970828360E-01  0.51100000000E-03 0. -1.
</event>
<event>
 8    1  0.1328143E+005  0.1043930E+01  0.7957747E-01            NaN
         13   -1    0    0    0    0  0.00000000000E+00  0.00000000000E+00  0.74505805969E-08  0.10566000000E+00  0.10566000000E+00 0. -1.
     999900   -1    0    0    0    0 -0.00000000000E+00 -0.00000000000E+00 -0.74505805969E-08  0.93827000000E+00  0.93827000000E+00 0. -1.
     999902    2    1    2    0    0  0.91565324223E-02  0.19720732904E-01  0.99179505520E-02  0.10200319847E+01  0.10197519966E+01 0.  0.
     999903    2    3    3    0    0 -0.59331029805E-01  0.11618268172E+00 -0.19530156147E-02  0.13203627886E+00  0.20277525367E-01 0.  0.
         14    1    1    2    0    0 -0.91565324223E-02 -0.19720732904E-01 -0.99179505520E-02  0.23898015303E-01  0.00000000000E+00 0.  1.
     999901    1    3    3    0    0  0.68487562227E-01 -0.96461948819E-01  0.11870966167E-01  0.88799570584E+00  0.88000000000E+00 0.  1.
        -11    1    4    4    0    0 -0.22145289115E-01  0.63698321237E-01  0.31189999269E-02  0.67512067365E-01  0.51100000000E-03 0. -1.
         11    1    4    4    0    0 -0.37185740690E-01  0.52484360485E-01 -0.50720155417E-02  0.64524211494E-01  0.51100000000E-03 0.  1.
</event>
<event>
 8    1  0.1112929E+005  0.1043930E+01  0.7957747E-01            NaN
         13   -1    0    0    0    0  0.00000000000E+00  0.00000000000E+00  0.74505805969E-08  0.10566000000E+00  0.10566000000E+00 0. -1.
     999900   -1    0    0    0    0 -0.00000000000E+00 -0.00000000000E+00 -0.74505805969E-08  0.93827000000E+00  0.93827000000E+00 0.  1.
     999902    2    1    2    0    0 -0.13209498164E-01  0.51469507789E-02 -0.19592382525E-01  0.10197464643E+01  0.10194596648E+01 0.  0.
     999903    2    3    3    0    0  0.40530985653E-01  0.10545540976E+00 -0.63884392725E-01  0.13131435736E+00  0.19965985337E-01 0.  0.
         14    1    1    2    0    0  0.13209498164E-01 -0.51469507789E-02  0.19592382525E-01  0.24183535661E-01  0.00000000000E+00 0. -1.
     999901    1    3    3    0    0 -0.53740483817E-01 -0.10030845898E+00  0.44292010200E-01  0.88843210698E+00  0.88000000000E+00 0.  1.
        -11    1    4    4    0    0  0.17314574700E-01  0.21469932284E-01 -0.15803827885E-01  0.31792681329E-01  0.51100000000E-03 0. -1.
         11    1    4    4    0    0  0.23216410953E-01  0.83985477471E-01 -0.48080564840E-01  0.99521676030E-01  0.51100000000E-03 0.  1.
</event>
<event>
 8    1  0.1112929E+005  0.1043930E+01  0.7957747E-01            NaN
         13   -1    0    0    0    0  0.00000000000E+00  0.00000000000E+00  0.74505805969E-08  0.10566000000E+00  0.10566000000E+00 0. -1.
     999900   -1    0    0    0    0 -0.00000000000E+00 -0.00000000000E+00 -0.74505805969E-08  0.93827000000E+00  0.93827000000E+00 0.  1.
     999902    2    1    2    0    0  0.83109597274E-03 -0.19567479214E-01 -0.47394797772E-02  0.10237795749E+01  0.10235812515E+01 0.  0.
     999903    2    3    3    0    0  0.28179545290E-01  0.50395767749E-01 -0.11843838046E+00  0.13329081381E+00  0.20123888803E-01 0.  0.
         14    1    1    2    0    0 -0.83109597274E-03  0.19567479214E-01  0.47394797772E-02  0.20150425104E-01  0.00000000000E+00 0. -1.
     999901    1    3    3    0    0 -0.27348449317E-01 -0.69963246963E-01  0.11369890068E+00  0.89048876109E+00  0.88000000000E+00 0. -1.
        -11    1    4    4    0    0  0.21265981952E-02 -0.17747980391E-02 -0.49078392965E-02  0.56586513874E-02  0.51100000000E-03 0.  1.
         11    1    4    4    0    0  0.26052947095E-01  0.52170565788E-01 -0.11353054116E+00  0.12763216242E+00  0.51100000000E-03 0. -1.
</event>
<event>
 8    1  0.1112929E+005  0.1043930E+01  0.7957747E-01            NaN
         13   -1    0    0    0    0  0.00000000000E+00  0.00000000000E+00  0.74505805969E-08  0.10566000000E+00  0.10566000000E+00 0. -1.
     999900   -1    0    0    0    0 -0.00000000000E+00 -0.00000000000E+00 -0.74505805969E-08  0.93827000000E+00  0.93827000000E+00 0.  1.
     999902    2    1    2    0    0  0.17784595534E-01  0.40008861695E-02 -0.15282390241E-01  0.10201423902E+01  0.10198650136E+01 0.  0.
     999903    2    3    3    0    0  0.45823548511E-01 -0.64336748039E-01 -0.10302351766E+00  0.13269959172E+00  0.27501303684E-01 0.  0.
         14    1    1    2    0    0 -0.17784595534E-01 -0.40008861695E-02  0.15282390241E-01  0.23787609799E-01  0.00000000000E+00 0. -1.
     999901    1    3    3    0    0 -0.28038952977E-01  0.68337634209E-01  0.87741127423E-01  0.88744279848E+00  0.88000000000E+00 0. -1.
        -11    1    4    4    0    0  0.30280216760E-01 -0.20522830156E-01 -0.37820681302E-01  0.52618847762E-01  0.51100000000E-03 0. -1.
         11    1    4    4    0    0  0.15543331752E-01 -0.43813917883E-01 -0.65202836363E-01  0.80080743959E-01  0.51100000000E-03 0.  1.
</event>
<event>
 8    1  0.1112929E+005  0.1043930E+01  0.7957747E-01            NaN
         13   -1    0    0    0    0  0.00000000000E+00  0.00000000000E+00  0.74505805969E-08  0.10566000000E+00  0.10566000000E+00 0.  1.
     999900   -1    0    0    0    0 -0.00000000000E+00 -0.00000000000E+00 -0.74505805969E-08  0.93827000000E+00  0.93827000000E+00 0.  1.
     999902    2    1    2    0    0 -0.21088809293E-02  0.13614578540E-01 -0.17484203419E-01  0.10216701371E+01  0.10214276125E+01 0.  0.
     999903    2    3    3    0    0 -0.36764926392E-01  0.12144174943E+00  0.33854677504E-01  0.13292753039E+00  0.20587152023E-01 0.  0.
         14    1    1    2    0    0  0.21088809293E-02 -0.13614578540E-01  0.17484203419E-01  0.22259862910E-01  0.00000000000E+00 0.  1.
     999901    1    3    3    0    0  0.34656045463E-01 -0.10782717089E+00 -0.51338880923E-01  0.88874260670E+00  0.88000000000E+00 0.  1.
        -11    1    4    4    0    0 -0.13613844515E-01  0.73308261906E-01  0.13551427218E-01  0.75784829133E-01  0.51100000000E-03 0.  1.
         11    1    4    4    0    0 -0.23151081877E-01  0.48133487528E-01  0.20303250286E-01  0.57142701256E-01  0.51100000000E-03 0. -1.
</event>
<event>
 8    1  0.1112929E+005  0.1043930E+01  0.7957747E-01            NaN
         13   -1    0    0    0    0  0.00000000000E+00  0.00000000000E+00  0.74505805969E-08  0.10566000000E+00  0.10566000000E+00 0. -1.
     999900   -1    0    0    0    0 -0.00000000000E+00 -0.00000000000E+00 -0.74505805969E-08  0.93827000000E+00  0.93827000000E+00 0. -1.
     999902    2    1    2    0    0 -0.18324121098E-01  0.68400438638E-02  0.11651709300E-01  0.10211633150E+01  0.10209094936E+01 0.  0.
     999903    2    3    3    0    0 -0.66885429216E-01 -0.70094072314E-01 -0.86132034789E-01  0.13108538616E+00  0.19437372100E-01 0.  0.
         14    1    1    2    0    0  0.18324121098E-01 -0.68400438638E-02 -0.11651709300E-01  0.22766684952E-01  0.00000000000E+00 0.  1.
     999901    1    3    3    0    0  0.48561308117E-01  0.76934116177E-01  0.97783744089E-01  0.89007792888E+00  0.88000000000E+00 0.  1.
        -11    1    4    4    0    0 -0.19707172990E-01 -0.29905248964E-01 -0.22723086756E-01  0.42418113767E-01  0.51100000000E-03 0.  1.
         11    1    4    4    0    0 -0.47178256226E-01 -0.40188823350E-01 -0.63408948033E-01  0.88667272398E-01  0.51100000000E-03 0. -1.
</event>
<event>
 8    1  0.1112929E+005  0.1043930E+01  0.7957747E-01            NaN
         13   -1    0    0    0    0  0.00000000000E+00  0.00000000000E+00  0.74505805969E-08  0.10566000000E+00  0.10566000000E+00 0. -1.
     999900   -1    0    0    0    0 -0.00000000000E+00 -0.00000000000E+00 -0.74505805969E-08  0.93827000000E+00  0.93827000000E+00 0.  1.
     999902    2    1    2    0    0 -0.74198735166E-02 -0.16059202497E-02  0.21949474591E-01  0.10207047349E+01  0.10204404652E+01 0.  0.
     999903    2    3    3    0    0  0.12258900193E+00 -0.27660848814E-01 -0.13535707378E-01  0.13006431077E+00  0.30664696495E-01 0.  0.
         14    1    1    2    0    0  0.74198735166E-02  0.16059202497E-02 -0.21949474591E-01  0.23225265073E-01  0.00000000000E+00 0.  1.
     999901    1    3    3    0    0 -0.13000887545E+00  0.26054928565E-01  0.35485181970E-01  0.89064042415E+00  0.88000000000E+00 0.  1.
        -11    1    4    4    0    0  0.81651298371E-01 -0.20229226291E-01 -0.23371369691E-01  0.87307721103E-01  0.51100000000E-03 0. -1.
         11    1    4    4    0    0  0.40937703560E-01 -0.74316225237E-02  0.98356623125E-02  0.42756589671E-01  0.51100000000E-03 0.  1.
</event>
<event>
 8    1  0.1112929E+005  0.1043930E+01  0.7957747E-01            NaN
         13   -1    0    0    0    0  0.00000000000E+00  0.00000000000E+00  0.74505805969E-08  0.10566000000E+00  0.10566000000E+00 0. -1.
     999900   -1    0    0    0    0 -0.00000000000E+00 -0.00000000000E+00 -0.74505805969E-08  0.93827000000E+00  0.93827000000E+00 0. -1.
     999902    2    1    2    0    0  0.22452672995E-01 -0.76289693269E-02 -0.25963750059E-02  0.10200749196E+01  0.10197959486E+01 0.  0.
     999903    2    3    3    0    0  0.10254431547E+00 -0.78340368702E-01 -0.28349146348E-01  0.13323898301E+00  0.17216343769E-01 0.  0.
         14    1    1    2    0    0 -0.22452672995E-01  0.76289693269E-02  0.25963750059E-02  0.23855080398E-01  0.00000000000E+00 0.  1.
     999901    1    3    3    0    0 -0.80091642471E-01  0.70711399375E-01  0.25752771343E-01  0.88683593659E+00  0.88000000000E+00 0. -1.
        -11    1    4    4    0    0  0.85958704982E-01 -0.70447386651E-01 -0.28970871015E-01  0.11485340977E+00  0.51100000000E-03 0.  1.
         11    1    4    4    0    0  0.16585610483E-01 -0.78929820507E-02  0.62172466629E-03  0.18385573239E-01  0.51100000000E-03 0. -1.
</event>
<event>
 8    1  0.1112929E+005  0.1043930E+01  0.7957747E-01            NaN
         13   -1    0    0    0    0  0.00000000000E+00  0.00000000000E+00  0.74505805969E-08  0.10566000000E+00  0.10566000000E+00 0.  1.
     999900   -1    0    0    0    0 -0.00000000000E+00 -0.00000000000E+00 -0.74505805969E-08  0.93827000000E+00  0.93827000000E+00 0. -1.
     999902    2    1    2    0    0 -0.16542872962E-01  0.16674885653E-01  0.41282756929E-02  0.10200812869E+01  0.10198024665E+01 0.  0.
     999903    2    3    3    0    0  0.97486261111E-01  0.39406025074E-01 -0.71908781484E-01  0.12918231271E+00  0.21466046303E-01 0.  0.
         14    1    1    2    0    0  0.16542872962E-01 -0.16674885653E-01 -0.41282756929E-02  0.23848713122E-01  0.00000000000E+00 0.  1.
     999901    1    3    3    0    0 -0.11402913407E+00 -0.22731139421E-01  0.76037057177E-01  0.89089897417E+00  0.88000000000E+00 0. -1.
        -11    1    4    4    0    0  0.73091236588E-01  0.36237194772E-01 -0.46919011179E-01  0.94112262123E-01  0.51100000000E-03 0. -1.
         11    1    4    4    0    0  0.24395024522E-01  0.31688303025E-02 -0.24989770305E-01  0.35070050582E-01  0.51100000000E-03 0.  1.
</event>
<event>
 8    1  0.1112929E+005  0.1043930E+01  0.7957747E-01            NaN
         13   -1    0    0    0    0  0.00000000000E+00  0.00000000000E+00  0.74505805969E-08  0.10566000000E+00  0.10566000000E+00 0.  1.
     999900   -1    0    0    0    0 -0.00000000000E+00 -0.00000000000E+00 -0.74505805969E-08  0.93827000000E+00  0.93827000000E+00 0. -1.
     999902    2    1    2    0    0 -0.10803315374E-01 -0.20547312741E-01  0.41017423196E-02  0.10203561167E+01  0.10200837598E+01 0.  0.
     999903    2    3    3    0    0 -0.62098439444E-01 -0.32240678013E-01 -0.10950940676E+00  0.13149425018E+00  0.20068636314E-01 0.  0.
         14    1    1    2    0    0  0.10803315374E-01  0.20547312741E-01 -0.41017423196E-02  0.23573883303E-01  0.00000000000E+00 0. -1.
     999901    1    3    3    0    0  0.51295124070E-01  0.11693365272E-01  0.11361114908E+00  0.88886186651E+00  0.88000000000E+00 0.  1.
        -11    1    4    4    0    0 -0.18470416067E-01 -0.19040476582E-01 -0.31940826329E-01  0.41523168542E-01  0.51100000000E-03 0. -1.
         11    1    4    4    0    0 -0.43628023377E-01 -0.13200201431E-01 -0.77568580427E-01  0.89971081643E-01  0.51100000000E-03 0.  1.
</event>
<event>
 8    1  0.1112929E+005  0.1043930E+01  0.7957747E-01            NaN
         13   -1    0    0    0    0  0.00000000000E+00  0.00000000000E+00  0.74505805969E-08  0.10566000000E+00  0.10566000000E+00 0. -1.
     999900   -1    0    0    0    0 -0.00000000000E+00 -0.00000000000E+00 -0.74505805969E-08  0.93827000000E+00  0.93827000000E+00 0.  1.
     999902    2    1    2    0    0 -0.82402351020E-02  0.47406875456E-02  0.21714732698E-01  0.10202254602E+01  0.10199500401E+01 0.  0.
     999903    2    3    3    0    0  0.12547141960E+00  0.23189918873E-01  0.14157812101E-01  0.12990176184E+00  0.19828631101E-01 0.  0.
         14    1    1    2    0    0  0.82402351020E-02 -0.47406875456E-02 -0.21714732698E-01  0.23704539842E-01  0.00000000000E+00 0.  1.
     999901    1    3    3    0    0 -0.13371165470E+00 -0.18449231327E-01  0.75569205976E-02  0.89032369832E+00  0.88000000000E+00 0.  1.
        -11    1    4    4    0    0  0.52203804206E-01  0.70309830712E-02 -0.35945361636E-02  0.52800129808E-01  0.51100000000E-03 0.  1.
         11    1    4    4    0    0  0.73267615396E-01  0.16158935802E-01  0.17752348264E-01  0.77101632031E-01  0.51100000000E-03 0. -1.
</event>
<event>
 8    1  0.1112929E+005  0.1043930E+01  0.7957747E-01            NaN
         13   -1    0    0    0    0  0.00000000000E+00  0.00000000000E+00  0.74505805969E-08  0.10566000000E+00  0.10566000000E+00 0.  1.
     999900   -1    0    0    0    0 -0.00000000000E+00 -0.00000000000E+00 -0.74505805969E-08  0.93827000000E+00  0.93827000000E+00 0. -1.
     999902    2    1    2    0    0  0.10704070940E-01 -0.20330286420E-01 -0.64504822586E-02  0.10200656667E+01  0.10197864767E+01 0.  0.
     999903    2    3    3    0    0 -0.63800566365E-01  0.92800457877E-01 -0.57743840911E-01  0.12822458508E+00  0.20609604711E-01 0.  0.
         14    1    1    2    0    0 -0.10704070940E-01  0.20330286420E-01  0.64504822586E-02  0.23864333261E-01  0.00000000000E+00 0. -1.
     999901    1    3    3    0    0  0.74504637305E-01 -0.11313074430E+00  0.51293358652E-01  0.89184108165E+00  0.88000000000E+00 0.  1.
        -11    1    4    4    0    0 -0.17723197898E-01  0.43464656082E-01 -0.25270841882E-01  0.53311955905E-01  0.51100000000E-03 0. -1.
         11    1    4    4    0    0 -0.46077368467E-01  0.49335801795E-01 -0.32472999029E-01  0.74912629179E-01  0.51100000000E-03 0.  1.
</event>
<event>
 8    1  0.1112929E+005  0.1043930E+01  0.7957747E-01            NaN
         13   -1    0    0    0    0  0.00000000000E+00  0.00000000000E+00  0.74505805969E-08  0.10566000000E+00  0.10566000000E+00 0. -1.
     999900   -1    0    0    0    0 -0.00000000000E+00 -0.00000000000E+00 -0.74505805969E-08  0.93827000000E+00  0.93827000000E+00 0. -1.
     999902    2    1    2    0    0 -0.15823903047E-01 -0.53947228178E-02  0.15729951059E-01  0.10209750375E+01  0.10207169524E+01 0.  0.
     999903    2    3    3    0    0  0.10822865600E+00  0.65345950059E-01 -0.15533548057E-01  0.12891523763E+00  0.19857296147E-01 0.  0.
         14    1    1    2    0    0  0.15823903047E-01  0.53947228178E-02 -0.15729951059E-01  0.22954962475E-01  0.00000000000E+00 0. -1.
     999901    1    3    3    0    0 -0.12405255905E+00 -0.70740672877E-01  0.31263499117E-01  0.89205979989E+00  0.88000000000E+00 0.  1.
        -11    1    4    4    0    0  0.37255731169E-01  0.15987196536E-01  0.24337519399E-02  0.40617289761E-01  0.51100000000E-03 0. -1.
         11    1    4    4    0    0  0.70972924830E-01  0.49358753522E-01 -0.17967299997E-01  0.88297947872E-01  0.51100000000E-03 0.  1.
</event>
<event>
 8    1  0.1112929E+005  0.1043930E+01  0.7957747E-01            NaN
         13   -1    0    0    0    0  0.00000000000E+00  0.00000000000E+00  0.74505805969E-08  0.10566000000E+00  0.10566000000E+00 0. -1.
     999900   -1    0    0    0    0 -0.00000000000E+00 -0.00000000000E+00 -0.74505805969E-08  0.93827000000E+00  0.93827000000E+00 0. -1.
     999902    2    1    2    0    0 -0.12252098964E-01  0.22638824469E-01  0.14354630833E-02  0.10181484008E+01  0.10178219271E+01 0.  0.
     999903    2    3    3    0    0  0.11256700035E+00  0.51572937880E-01 -0.27446956421E-01  0.12840058001E+00  0.20056820283E-01 0.  0.
         14    1    1    2    0    0  0.12252098964E-01 -0.22638824469E-01 -0.14354630833E-02  0.25781599187E-01  0.00000000000E+00 0. -1.
     999901    1    3    3    0    0 -0.12481909931E+00 -0.28934113411E-01  0.28882419504E-01  0.88974782081E+00  0.88000000000E+00 0.  1.
        -11    1    4    4    0    0  0.53738450982E-01  0.13808146290E-01 -0.10586749766E-01  0.56487400449E-01  0.51100000000E-03 0.  1.
         11    1    4    4    0    0  0.58828549369E-01  0.37764791590E-01 -0.16860206655E-01  0.71913179558E-01  0.51100000000E-03 0. -1.
</event>
<event>
 8    1  0.1112929E+005  0.1043930E+01  0.7957747E-01            NaN
         13   -1    0    0    0    0  0.00000000000E+00  0.00000000000E+00  0.74505805969E-08  0.10566000000E+00  0.10566000000E+00 0. -1.
     999900   -1    0    0    0    0 -0.00000000000E+00 -0.00000000000E+00 -0.74505805969E-08  0.93827000000E+00  0.93827000000E+00 0.  1.
     999902    2    1    2    0    0  0.11094861760E-01 -0.81907411921E-02  0.19982703831E-01  0.10196505303E+01  0.10193614232E+01 0.  0.
     999903    2    3    3    0    0  0.74491120515E-01 -0.61496701022E-01 -0.84346681555E-01  0.12962511959E+00  0.18908666439E-01 0.  0.
         14    1    1    2    0    0 -0.11094861760E-01  0.81907411921E-02 -0.19982703831E-01  0.24279469746E-01  0.00000000000E+00 0.  1.
     999901    1    3    3    0    0 -0.63396258755E-01  0.53305959830E-01  0.10432938539E+00  0.89002541067E+00  0.88000000000E+00 0. -1.
        -11    1    4    4    0    0  0.54418184379E-01 -0.43272438824E-01 -0.48927573815E-01  0.85017711998E-01  0.51100000000E-03 0. -1.
         11    1    4    4    0    0  0.20072936136E-01 -0.18224262198E-01 -0.35419107739E-01  0.44607407589E-01  0.51100000000E-03 0.  1.
</event>
<event>
 8    1  0.1112929E+005  0.1043930E+01  0.7957747E-01            NaN
         13   -1    0    0    0    0  0.00000000000E+00  0.00000000000E+00  0.74505805969E-08  0.10566000000E+00  0.10566000000E+00 0.  1.
     999900   -1    0    0    0    0 -0.00000000000E+00 -0.00000000000E+00 -0.74505805969E-08  0.93827000000E+00  0.93827000000E+00 0.  1.
     999902    2    1    2    0    0 -0.18596871553E-01 -0.77563048062E-02  0.12087005308E-01  0.10204332004E+01  0.10201626423E+01 0.  0.
     999903    2    3    3    0    0 -0.65496030915E-01  0.60310572191E-01  0.96164727085E-01  0.13256964430E+00  0.19999016728E-01 0.  0.
         14    1    1    2    0    0  0.18596871553E-01  0.77563048062E-02 -0.12087005308E-01  0.23496799636E-01  0.00000000000E+00 0. -1.
     999901    1    3    3    0    0  0.46899159363E-01 -0.68066876997E-01 -0.84077721777E-01  0.88786355607E+00  0.88000000000E+00 0.  1.
        -11    1    4    4    0    0 -0.44800781859E-01  0.52731498126E-01  0.73848013004E-01  0.10120035126E+00  0.51100000000E-03 0.  1.
         11    1    4    4    0    0 -0.20695249056E-01  0.75790740642E-02  0.22316714082E-01  0.31369293036E-01  0.51100000000E-03 0. -1.
</event>
<event>
 8    1  0.1112929E+005  0.1043930E+01  0.7957747E-01            NaN
         13   -1    0    0    0    0  0.00000000000E+00  0.00000000000E+00  0.74505805969E-08  0.10566000000E+00  0.10566000000E+00 0.  1.
     999900   -1    0    0    0    0 -0.00000000000E+00 -0.00000000000E+00 -0.74505805969E-08  0.93827000000E+00  0.93827000000E+00 0.  1.
     999902    2    1    2    0    0 -0.46450330753E-02 -0.14189069338E-01  0.19017665248E-01  0.10197519601E+01  0.10194652925E+01 0.  0.
     999903    2    3    3    0    0 -0.11159201063E+00 -0.37704128655E-01  0.56524361200E-01  0.13217246156E+00  0.20004450291E-01 0.  0.
         14    1    1    2    0    0  0.46450330753E-02  0.14189069338E-01 -0.19017665248E-01  0.24178039879E-01  0.00000000000E+00 0. -1.
     999901    1    3    3    0    0  0.10694697756E+00  0.23515059317E-01 -0.37506695952E-01  0.88757949856E+00  0.88000000000E+00 0.  1.
        -11    1    4    4    0    0 -0.26392005722E-01 -0.72519873089E-03  0.15650250190E-01  0.30696177796E-01  0.51100000000E-03 0.  1.
         11    1    4    4    0    0 -0.85200004910E-01 -0.36978929924E-01  0.40874111009E-01  0.10147628376E+00  0.51100000000E-03 0. -1.
</event>
<event>
 8    1  0.1112929E+005  0.1043930E+01  0.7957747E-01            NaN
         13   -1    0    0    0    0  0.00000000000E+00  0.00000000000E+00  0.74505805969E-08  0.10566000000E+00  0.10566000000E+00 0.  1.
     999900   -1    0    0    0    0 -0.00000000000E+00 -0.00000000000E+00 -0.74505805969E-08  0.93827000000E+00  0.93827000000E+00 0.  1.
     999902    2    1    2    0    0  0.23656802076E-01  0.24809033581E-02  0.70749365685E-02  0.10191135963E+01  0.10188113997E+01 0.  0.
     999903    2    3    3    0    0  0.51193589838E-01  0.77757171675E-01 -0.88836680070E-01  0.13028074954E+00  0.20350837486E-01 0.  0.
         14    1    1    2    0    0 -0.23656802076E-01 -0.24809033581E-02 -0.70749365685E-02  0.24816403716E-01  0.00000000000E+00 0.  1.
     999901    1    3    3    0    0 -0.27536787761E-01 -0.75276268317E-01  0.95911616639E-01  0.88883284675E+00  0.88000000000E+00 0. -1.
        -11    1    4    4    0    0  0.36298216415E-01  0.50460081774E-01 -0.71238752894E-01  0.94546292378E-01  0.51100000000E-03 0.  1.
         11    1    4    4    0    0  0.14895373423E-01  0.27297089901E-01 -0.17597927176E-01  0.35734457158E-01  0.51100000000E-03 0. -1.
</event>
<event>
 8    1  0.1112929E+005  0.1043930E+01  0.7957747E-01            NaN
         13   -1    0    0    0    0  0.00000000000E+00  0.00000000000E+00  0.74505805969E-08  0.10566000000E+00  0.10566000000E+00 0. -1.
     999900   -1    0    0    0    0 -0.00000000000E+00 -0.00000000000E+00 -0.74505805969E-08  0.93827000000E+00  0.93827000000E+00 0.  1.
     999902    2    1    2    0    0 -0.32863742480E-02  0.10594028438E-01 -0.21258881885E-01  0.10199513897E+01  0.10196694874E+01 0.  0.
     999903    2    3    3    0    0  0.11090043457E+00 -0.17020891734E-01 -0.64050740969E-01  0.13111374740E+00  0.22353974899E-01 0.  0.
         14    1    1    2    0    0  0.32863742480E-02 -0.10594028438E-01  0.21258881885E-01  0.23978610328E-01  0.00000000000E+00 0. -1.
     999901    1    3    3    0    0 -0.11418680882E+00  0.27614920171E-01  0.42791859084E-01  0.88883764228E+00  0.88000000000E+00 0.  1.
        -11    1    4    4    0    0  0.43925401140E-01 -0.53218104116E-02 -0.13092114453E-01  0.46145716088E-01  0.51100000000E-03 0.  1.
         11    1    4    4    0    0  0.66975033431E-01 -0.11699081322E-01 -0.50958626516E-01  0.84968031308E-01  0.51100000000E-03 0. -1.
</event>
<event>
 8    1  0.1112929E+005  0.1043930E+01  0.7957747E-01            NaN
         13   -1    0    0    0    0  0.00000000000E+00  0.00000000000E+00  0.74505805969E-08  0.10566000000E+00  0.10566000000E+00 0.  1.
     999900   -1    0    0    0    0 -0.00000000000E+00 -0.00000000000E+00 -0.74505805969E-08  0.93827000000E+00  0.93827000000E+00 0. -1.
     999902    2    1    2    0    0  0.17396062476E-01  0.14813308482E-01 -0.37563143736E-03  0.10210783437E+01  0.10208226025E+01 0.  0.
     999903    2    3    3    0    0  0.72449155847E-01  0.83394681962E-01  0.70752604066E-01  0.13383910099E+00  0.26522081526E-01 0.  0.
         14    1    1    2    0    0 -0.17396062476E-01 -0.14813308482E-01  0.37563143736E-03  0.22851656326E-01  0.00000000000E+00 0. -1.
     999901    1    3    3    0    0 -0.55053093371E-01 -0.68581373480E-01 -0.71128235503E-01  0.88723924269E+00  0.88000000000E+00 0. -1.
        -11    1    4    4    0    0  0.56256812503E-01  0.60543725737E-01  0.65231674138E-01  0.10528914527E+00  0.51100000000E-03 0.  1.
         11    1    4    4    0    0  0.16192343344E-01  0.22850956225E-01  0.55209299274E-02  0.28549955720E-01  0.51100000000E-03 0. -1.
</event>
<event>
 8    1  0.1112929E+005  0.1043930E+01  0.7957747E-01            NaN
         13   -1    0    0    0    0  0.00000000000E+00  0.00000000000E+00  0.74505805969E-08  0.10566000000E+00  0.10566000000E+00 0. -1.
     999900   -1    0    0    0    0 -0.00000000000E+00 -0.00000000000E+00 -0.74505805969E-08  0.93827000000E+00  0.93827000000E+00 0. -1.
     999902    2    1    2    0    0  0.97039397746E-02  0.99164246249E-02 -0.19574504367E-01  0.10199370188E+01  0.10196547745E+01 0.  0.
     999903    2    3    3    0    0  0.96976647531E-01 -0.78663853140E-03  0.84394213275E-01  0.12946491071E+00  0.15286952100E-01 0.  0.
         14    1    1    2    0    0 -0.97039397746E-02 -0.99164246249E-02  0.19574504367E-01  0.23992981176E-01  0.00000000000E+00 0. -1.
     999901    1    3    3    0    0 -0.87272707757E-01  0.10703063156E-01 -0.10396871764E+00  0.89047210811E+00  0.88000000000E+00 0. -1.
        -11    1    4    4    0    0  0.50132490637E-01 -0.66897882484E-02  0.49326284843E-01  0.70649581610E-01  0.51100000000E-03 0.  1.
         11    1    4    4    0    0  0.46844156895E-01  0.59031497170E-02  0.35067928432E-01  0.58815329101E-01  0.51100000000E-03 0. -1.
</event>
<event>
 8    1  0.1112929E+005  0.1043930E+01  0.7957747E-01            NaN
         13   -1    0    0    0    0  0.00000000000E+00  0.00000000000E+00  0.74505805969E-08  0.10566000000E+00  0.10566000000E+00 0.  1.
     999900   -1    0    0    0    0 -0.00000000000E+00 -0.00000000000E+00 -0.74505805969E-08  0.93827000000E+00  0.93827000000E+00 0.  1.
     999902    2    1    2    0    0  0.21966241509E-01 -0.66414484261E-02  0.41175191438E-02  0.10206152286E+01  0.10203488944E+01 0.  0.
     999903    2    3    3    0    0  0.11308419029E+00  0.58970812708E-01  0.32030690580E-01  0.13304179806E+00  0.20212967308E-01 0.  0.
         14    1    1    2    0    0 -0.21966241509E-01  0.66414484261E-02 -0.41175191438E-02  0.23314771436E-01  0.00000000000E+00 0.  1.
     999901    1    3    3    0    0 -0.91117948778E-01 -0.65612261134E-01 -0.27913171436E-01  0.88757343051E+00  0.88000000000E+00 0. -1.
        -11    1    4    4    0    0  0.49682000203E-01  0.28795710828E-01  0.24453146734E-01  0.62415635961E-01  0.51100000000E-03 0. -1.
         11    1    4    4    0    0  0.63402190083E-01  0.30175101880E-01  0.75775438461E-02  0.70626162097E-01  0.51100000000E-03 0.  1.
</event>
<event>
 8    1  0.1112929E+005  0.1043930E+01  0.7957747E-01            NaN
         13   -1    0    0    0    0  0.00000000000E+00  0.00000000000E+00  0.74505805969E-08  0.10566000000E+00  0.10566000000E+00 0.  1.
     999900   -1    0    0    0    0 -0.00000000000E+00 -0.00000000000E+00 -0.74505805969E-08  0.93827000000E+00  0.93827000000E+00 0.  1.
     999902    2    1    2    0    0 -0.13837049342E-01 -0.18790833996E-01 -0.59546902635E-02  0.10198464431E+01  0.10195620382E+01 0.  0.
     999903    2    3    3    0    0  0.95684289296E-01  0.16279334291E-02 -0.84575773749E-01  0.12934482915E+00  0.20466800858E-01 0.  0.
         14    1    1    2    0    0  0.13837049342E-01  0.18790833996E-01  0.59546902635E-02  0.24083556899E-01  0.00000000000E+00 0. -1.
     999901    1    3    3    0    0 -0.10952133864E+00 -0.20418767426E-01  0.78621083486E-01  0.89050161395E+00  0.88000000000E+00 0. -1.
        -11    1    4    4    0    0  0.66658886492E-01  0.78192654789E-02 -0.67066262006E-01  0.94882520421E-01  0.51100000000E-03 0.  1.
         11    1    4    4    0    0  0.29025402804E-01 -0.61913320498E-02 -0.17509511744E-01  0.34462308730E-01  0.51100000000E-03 0. -1.
</event>
<event>
 8    1  0.1112929E+005  0.1043930E+01  0.7957747E-01            NaN
         13   -1    0    0    0    0  0.00000000000E+00  0.00000000000E+00  0.74505805969E-08  0.10566000000E+00  0.10566000000E+00 0. -1.
     999900   -1    0    0    0    0 -0.00000000000E+00 -0.00000000000E+00 -0.74505805969E-08  0.93827000000E+00  0.93827000000E+00 0.  1.
     999902    2    1    2    0    0  0.15297860743E-01 -0.84330352071E-02 -0.15034591210E-01  0.10208826670E+01  0.10206224768E+01 0.  0.
     999903    2    3    3    0    0 -0.94434340286E-01 -0.32700988795E-01 -0.82710043972E-01  0.13115795877E+00  0.19345787144E-01 0.  0.
         14    1    1    2    0    0 -0.15297860743E-01  0.84330352071E-02  0.15034591210E-01  0.23047333012E-01  0.00000000000E+00 0. -1.
     999901    1    3    3    0    0  0.10973220103E+00  0.24267953588E-01  0.67675452763E-01  0.88972470822E+00  0.88000000000E+00 0. -1.
        -11    1    4    4    0    0 -0.47652280586E-01 -0.99812419617E-02 -0.30443408517E-01  0.57423229440E-01  0.51100000000E-03 0.  1.
         11    1    4    4    0    0 -0.46782059700E-01 -0.22719746833E-01 -0.52266635455E-01  0.73734729326E-01  0.51100000000E-03 0. -1.
</event>
<event>
 8    1  0.1112929E+005  0.1043930E+01  0.7957747E-01            NaN
         13   -1    0    0    0    0  0.00000000000E+00  0.00000000000E+00  0.74505805969E-08  0.10566000000E+00  0.10566000000E+00 0.  1.
     999900   -1    0    0    0    0 -0.00000000000E+00 -0.00000000000E+00 -0.74505805969E-08  0.93827000000E+00  0.93827000000E+00 0. -1.
     999902    2    1    2    0    0 -0.43003724547E-02 -0.22933691000E-01  0.43037496846E-02  0.10202030186E+01  0.10199270707E+01 0.  0.
     999903    2    3    3    0    0  0.35106230855E-01  0.22702016752E-01 -0.12085815058E+00  0.12930403469E+00  0.19105282421E-01 0.  0.
         14    1    1    2    0    0  0.43003724547E-02  0.22933691000E-01 -0.43037496846E-02  0.23726981423E-01  0.00000000000E+00 0. -1.
     999901    1    3    3    0    0 -0.39406603309E-01 -0.45635707752E-01  0.12516190027E+00  0.89089898388E+00  0.88000000000E+00 0.  1.
        -11    1    4    4    0    0  0.31301232921E-03 -0.40721513126E-03 -0.21629637286E-01  0.21641768204E-01  0.51100000000E-03 0.  1.
         11    1    4    4    0    0  0.34793218525E-01  0.23109231883E-01 -0.99228513296E-01  0.10766226649E+00  0.51100000000E-03 0. -1.
</event>
<event>
 8    1  0.1112929E+005  0.1043930E+01  0.7957747E-01            NaN
         13   -1    0    0    0    0  0.00000000000E+00  0.00000000000E+00  0.74505805969E-08  0.10566000000E+00  0.10566000000E+00 0. -1.
     999900   -1    0    0    0    0 -0.00000000000E+00 -0.00000000000E+00 -0.74505805969E-08  0.93827000000E+00  0.93827000000E+00 0. -1.
     999902    2    1    2    0    0 -0.45759006821E-02 -0.66102072958E-02 -0.25185443854E-01  0.10174925211E+01  0.10171490010E+01 0.  0.
     999903    2    3    3    0    0 -0.10456404277E+00 -0.72428360684E-01  0.56671259109E-02  0.12885224579E+00  0.19780759772E-01 0.  0.
         14    1    1    2    0    0  0.45759006821E-02  0.66102072958E-02  0.25185443854E-01  0.26437478882E-01  0.00000000000E+00 0. -1.
     999901    1    3    3    0    0  0.99988142088E-01  0.65818153388E-01 -0.30852569765E-01  0.88864027533E+00  0.88000000000E+00 0.  1.
        -11    1    4    4    0    0 -0.32683297547E-01 -0.19201260386E-01 -0.68910850455E-02  0.38530955257E-01  0.51100000000E-03 0. -1.
         11    1    4    4    0    0 -0.71880745224E-01 -0.53227100298E-01  0.12558210956E-01  0.90321290533E-01  0.51100000000E-03 0.  1.
</event>
<event>
 8    1  0.1112929E+005  0.1043930E+01  0.7957747E-01            NaN
         13   -1    0    0    0    0  0.00000000000E+00  0.00000000000E+00  0.74505805969E-08  0.10566000000E+00  0.10566000000E+00 0. -1.
     999900   -1    0    0    0    0 -0.00000000000E+00 -0.00000000000E+00 -0.74505805969E-08  0.93827000000E+00  0.93827000000E+00 0. -1.
     999902    2    1    2    0    0 -0.18328841056E-01  0.18383952983E-02  0.14720725039E-01  0.10203497995E+01  0.10200772948E+01 0.  0.
     999903    2    3    3    0    0  0.27239539533E-01  0.88003737044E-01 -0.87226542895E-01  0.12911796157E+00  0.24006831691E-01 0.  0.
         14    1    1    2    0    0  0.18328841056E-01 -0.18383952983E-02 -0.14720725039E-01  0.23580200537E-01  0.00000000000E+00 0.  1.
     999901    1    3    3    0    0 -0.45568380589E-01 -0.86165341745E-01  0.10194726793E+00  0.89123183789E+00  0.88000000000E+00 0. -1.
        -11    1    4    4    0    0  0.26992815888E-01  0.64410398055E-01 -0.53604388615E-01  0.88039781275E-01  0.51100000000E-03 0.  1.
         11    1    4    4    0    0  0.24672364468E-03  0.23593338989E-01 -0.33622154281E-01  0.41078180299E-01  0.51100000000E-03 0. -1.
</event>
<event>
 8    1  0.1112929E+005  0.1043930E+01  0.7957747E-01            NaN
         13   -1    0    0    0    0  0.00000000000E+00  0.00000000000E+00  0.74505805969E-08  0.10566000000E+00  0.10566000000E+00 0. -1.
     999900   -1    0    0    0    0 -0.00000000000E+00 -0.00000000000E+00 -0.74505805969E-08  0.93827000000E+00  0.93827000000E+00 0. -1.
     999902    2    1    2    0    0 -0.19446067052E-01 -0.20552337955E-02 -0.13336336595E-01  0.10202607925E+01  0.10199862025E+01 0.  0.
     999903    2    3    3    0    0 -0.83628616748E-01  0.63528809657E-01 -0.79102490086E-01  0.13304838649E+00  0.20371892744E-01 0.  0.
         14    1    1    2    0    0  0.19446067052E-01  0.20552337955E-02  0.13336336595E-01  0.23669207497E-01  0.00000000000E+00 0. -1.
     999901    1    3    3    0    0  0.64182549696E-01 -0.65584043452E-01  0.65766153491E-01  0.88721240601E+00  0.88000000000E+00 0.  1.
        -11    1    4    4    0    0 -0.38166452229E-01  0.39318428159E-01 -0.48200235280E-01  0.72980412925E-01  0.51100000000E-03 0. -1.
         11    1    4    4    0    0 -0.45462164519E-01  0.24210381498E-01 -0.30902254805E-01  0.60067973564E-01  0.51100000000E-03 0.  1.
</event>
<event>
 8    1  0.1112929E+005  0.1043930E+01  0.7957747E-01            NaN
         13   -1    0    0    0    0  0.00000000000E+00  0.00000000000E+00  0.74505805969E-08  0.10566000000E+00  0.10566000000E+00 0. -1.
     999900   -1    0    0    0    0 -0.00000000000E+00 -0.00000000000E+00 -0.74505805969E-08  0.93827000000E+00  0.93827000000E+00 0. -1.
     999902    2    1    2    0    0 -0.96246292238E-02 -0.21556036254E-01 -0.84285194595E-03  0.10203078370E+01  0.10200343502E+01 0.  0.
     999903    2    3    3    0    0  0.56660235852E-01  0.70745724859E-01  0.88913388433E-01  0.12847294131E+00  0.19605256759E-01 0.  0.
         14    1    1    2    0    0  0.96246292238E-02  0.21556036254E-01  0.84285194595E-03  0.23622163027E-01  0.00000000000E+00 0.  1.
     999901    1    3    3    0    0 -0.66284865076E-01 -0.92301761112E-01 -0.89756240379E-01  0.89183489567E+00  0.88000000000E+00 0. -1.
        -11    1    4    4    0    0  0.53479333728E-01  0.70130558403E-01  0.88851320622E-01  0.12519246245E+00  0.51100000000E-03 0.  1.
         11    1    4    4    0    0  0.31809021238E-02  0.61516645599E-03  0.62067811303E-04  0.32804788527E-02  0.51100000000E-03 0. -1.
</event>
<event>
 8    1  0.1112929E+005  0.1043930E+01  0.7957747E-01            NaN
         13   -1    0    0    0    0  0.00000000000E+00  0.00000000000E+00  0.74505805969E-08  0.10566000000E+00  0.10566000000E+00 0.  1.
     999900   -1    0    0    0    0 -0.00000000000E+00 -0.00000000000E+00 -0.74505805969E-08  0.93827000000E+00  0.93827000000E+00 0. -1.
     999902    2    1    2    0    0  0.11211138876E-01 -0.19378380659E-01 -0.82654444741E-02  0.10200651965E+01  0.10197859954E+01 0.  0.
     999903    2    3    3    0    0  0.65469577082E-01 -0.10001255099E+00 -0.55872454052E-01  0.13343546835E+00  0.19862457418E-01 0.  0.
         14    1    1    2    0    0 -0.11211138876E-01  0.19378380659E-01  0.82654444741E-02  0.23864803461E-01  0.00000000000E+00 0.  1.
     999901    1    3    3    0    0 -0.54258438205E-01  0.80634170328E-01  0.47607009578E-01  0.88662972819E+00  0.88000000000E+00 0.  1.
        -11    1    4    4    0    0  0.40509131809E-01 -0.77653499726E-01 -0.42484096420E-01  0.97345854299E-01  0.51100000000E-03 0. -1.
         11    1    4    4    0    0  0.24960445273E-01 -0.22359051261E-01 -0.13388357632E-01  0.36089614054E-01  0.51100000000E-03 0.  1.
</event>
<event>
 8    1  0.1112929E+005  0.1043930E+01  0.7957747E-01            NaN
         13   -1    0    0    0    0  0.00000000000E+00  0.00000000000E+00  0.74505805969E-08  0.10566000000E+00  0.10566000000E+00 0.  1.
     999900   -1    0    0    0    0 -0.00000000000E+00 -0.00000000000E+00 -0.74505805969E-08  0.93827000000E+00  0.93827000000E+00 0.  1.
     999902    2    1    2    0    0 -0.12145749988E-01  0.60388934005E-02 -0.19433581475E-01  0.10202308109E+01  0.10199555166E+01 0.  0.
     999903    2    3    3    0    0 -0.24998530673E-01  0.11386251424E-01  0.12144223152E+00  0.12891729538E+00  0.33419757547E-01 0.  0.
         14    1    1    2    0    0  0.12145749988E-01 -0.60388934005E-02  0.19433581475E-01  0.23699189126E-01  0.00000000000E+00 0.  1.
     999901    1    3    3    0    0  0.12852780684E-01 -0.53473580231E-02 -0.14087581300E+00  0.89131351549E+00  0.88000000000E+00 0.  1.
        -11    1    4    4    0    0 -0.12507205710E-01  0.13141028397E-01  0.21303839475E-01  0.27986273767E-01  0.51100000000E-03 0.  1.
         11    1    4    4    0    0 -0.12491324963E-01 -0.17547769736E-02  0.10013839205E+00  0.10093102162E+00  0.51100000000E-03 0. -1.
</event>
<event>
 8    1  0.1112929E+005  0.1043930E+01  0.7957747E-01            NaN
         13   -1    0    0    0    0  0.00000000000E+00  0.00000000000E+00  0.74505805969E-08  0.10566000000E+00  0.10566000000E+00 0.  1.
     999900   -1    0    0    0    0 -0.00000000000E+00 -0.00000000000E+00 -0.74505805969E-08  0.93827000000E+00  0.93827000000E+00 0. -1.
     999902    2    1    2    0    0  0.10432723158E-01 -0.18780694003E-01 -0.70264133834E-02  0.10213263130E+01  0.10210761534E+01 0.  0.
     999903    2    3    3    0    0 -0.11408532577E+00 -0.34765390107E-01  0.48966184106E-01  0.13065497859E+00  0.21188259420E-01 0.  0.
         14    1    1    2    0    0 -0.10432723158E-01  0.18780694003E-01  0.70264133834E-02  0.22603686973E-01  0.00000000000E+00 0.  1.
     999901    1    3    3    0    0  0.12451804893E+00  0.15984696104E-01 -0.55992597490E-01  0.89067133444E+00  0.88000000000E+00 0. -1.
        -11    1    4    4    0    0 -0.49116871606E-01 -0.19507333231E-01  0.32037075014E-01  0.61803223400E-01  0.51100000000E-03 0. -1.
         11    1    4    4    0    0 -0.64968454169E-01 -0.15258056876E-01  0.16929109092E-01  0.68851755187E-01  0.51100000000E-03 0.  1.
</event>
<event>
 8    1  0.1112929E+005  0.1043930E+01  0.7957747E-01            NaN
         13   -1    0    0    0    0  0.00000000000E+00  0.00000000000E+00  0.74505805969E-08  0.10566000000E+00  0.10566000000E+00 0.  1.
     999900   -1    0    0    0    0 -0.00000000000E+00 -0.00000000000E+00 -0.74505805969E-08  0.93827000000E+00  0.93827000000E+00 0.  1.
     999902    2    1    2    0    0 -0.17611889487E-01  0.19562319604E-01  0.26901453128E-02  0.10174705994E+01  0.10171265018E+01 0.  0.
     999903    2    3    3    0    0 -0.12611642498E+00 -0.23370870872E-01  0.73020744257E-03  0.12976550509E+00  0.19672388096E-01 0.  0.
         14    1    1    2    0    0  0.17611889487E-01 -0.19562319604E-01 -0.26901453128E-02  0.26459400624E-01  0.00000000000E+00 0. -1.
     999901    1    3    3    0    0  0.10850453549E+00  0.42933190476E-01  0.19599378702E-02  0.88770509429E+00  0.88000000000E+00 0. -1.
        -11    1    4    4    0    0 -0.11119802043E+00 -0.14663191017E-01  0.37395865338E-02  0.11222412640E+00  0.51100000000E-03 0. -1.
         11    1    4    4    0    0 -0.14918404552E-01 -0.87076798547E-02 -0.30093790912E-02  0.17541378690E-01  0.51100000000E-03 0.  1.
</event>
<event>
 8    1  0.1112929E+005  0.1043930E+01  0.7957747E-01            NaN
         13   -1    0    0    0    0  0.00000000000E+00  0.00000000000E+00  0.74505805969E-08  0.10566000000E+00  0.10566000000E+00 0. -1.
     999900   -1    0    0    0    0 -0.00000000000E+00 -0.00000000000E+00 -0.74505805969E-08  0.93827000000E+00  0.93827000000E+00 0. -1.
     999902    2    1    2    0    0  0.12717326523E-01 -0.17085995401E-01  0.83565781233E-02  0.10210500081E+01  0.10207936251E+01 0.  0.
     999903    2    3    3    0    0 -0.49126172151E-01 -0.11737036059E+00  0.33405475265E-01  0.13284450286E+00  0.18508209741E-01 0.  0.
         14    1    1    2    0    0 -0.12717326523E-01  0.17085995401E-01 -0.83565781233E-02  0.22879991929E-01  0.00000000000E+00 0.  1.
     999901    1    3    3    0    0  0.61843498674E-01  0.10028436519E+00 -0.25048897142E-01  0.88820550521E+00  0.88000000000E+00 0. -1.
        -11    1    4    4    0    0 -0.42812934458E-01 -0.10298032628E+00  0.35367897395E-01  0.11700018908E+00  0.51100000000E-03 0. -1.
         11    1    4    4    0    0 -0.63132376922E-02 -0.14390034316E-01 -0.19624221297E-02  0.15844313787E-01  0.51100000000E-03 0.  1.
</event>
<event>
 8    1  0.1112929E+005  0.1043930E+01  0.7957747E-01            NaN
         13   -1    0    0    0    0  0.00000000000E+00  0.00000000000E+00  0.74505805969E-08  0.10566000000E+00  0.10566000000E+00 0.  1.
     999900   -1    0    0    0    0 -0.00000000000E+00 -0.00000000000E+00 -0.74505805969E-08  0.93827000000E+00  0.93827000000E+00 0. -1.
     999902    2    1    2    0    0  0.18880430942E-01 -0.12563292408E-01 -0.73142047920E-02  0.10201013496E+01  0.10198230037E+01 0.  0.
     999903    2    3    3    0    0 -0.88187805502E-01 -0.34798973243E-01  0.81381169964E-01  0.12890838381E+00  0.31724107754E-01 0.  0.
         14    1    1    2    0    0 -0.18880430942E-01  0.12563292408E-01  0.73142047920E-02  0.23828650411E-01  0.00000000000E+00 0.  1.
     999901    1    3    3    0    0  0.10706823644E+00  0.22235680835E-01 -0.88695374756E-01  0.89119296578E+00  0.88000000000E+00 0. -1.
        -11    1    4    4    0    0 -0.71824204887E-01 -0.19321795696E-01  0.47610112056E-01  0.88312128768E-01  0.51100000000E-03 0.  1.
         11    1    4    4    0    0 -0.16363600615E-01 -0.15477177546E-01  0.33771057908E-01  0.40596255038E-01  0.51100000000E-03 0. -1.
</event>
<event>
 8    1  0.1112929E+005  0.1043930E+01  0.7957747E-01            NaN
         13   -1    0    0    0    0  0.00000000000E+00  0.00000000000E+00  0.74505805969E-08  0.10566000000E+00  0.10566000000E+00 0.  1.
     999900   -1    0    0    0    0 -0.00000000000E+00 -0.00000000000E+00 -0.74505805969E-08  0.93827000000E+00  0.93827000000E+00 0. -1.
     999902    2    1    2    0    0  0.16430876119E-02  0.21217593494E-01  0.87660521397E-02  0.10209141428E+01  0.10206546710E+01 0.  0.
     999903    2    3    3    0    0 -0.42805317330E-01 -0.41417333145E-01 -0.11289886325E+00  0.12922969957E+00  0.20161132189E-01 0.  0.
         14    1    1    2    0    0 -0.16430876119E-02 -0.21217593494E-01 -0.87660521397E-02  0.23015857157E-01  0.00000000000E+00 0.  1.
     999901    1    3    3    0    0  0.44448404941E-01  0.62634926639E-01  0.12166491539E+00  0.89168444327E+00  0.88000000000E+00 0.  1.
        -11    1    4    4    0    0 -0.20504394810E-01 -0.33014041390E-01 -0.65181111773E-01  0.75889364132E-01  0.51100000000E-03 0.  1.
         11    1    4    4    0    0 -0.22300922520E-01 -0.84032917553E-02 -0.47717751478E-01  0.53340335439E-01  0.51100000000E-03 0. -1.
</event>
<event>
 8    1  0.1112929E+005  0.1043930E+01  0.7957747E-01            NaN
         13   -1    0    0    0    0  0.00000000000E+00  0.00000000000E+00  0.74505805969E-08  0.10566000000E+00  0.10566000000E+00 0. -1.
     999900   -1    0    0    0    0 -0.00000000000E+00 -0.00000000000E+00 -0.74505805969E-08  0.93827000000E+00  0.93827000000E+00 0. -1.
     999902    2    1    2    0    0 -0.74374623730E-04 -0.23393772177E-01  0.31661058726E-02  0.10203228330E+01  0.10200496974E+01 0.  0.
     999903    2    3    3    0    0  0.76365598265E-01 -0.10117271240E+00 -0.34296713672E-01  0.13280038490E+00  0.19800387056E-01 0.  0.
         14    1    1    2    0    0  0.74374623730E-04  0.23393772177E-01 -0.31661058726E-02  0.23607167019E-01  0.00000000000E+00 0. -1.
     999901    1    3    3    0    0 -0.76439972889E-01  0.77778940227E-01  0.37462819545E-01  0.88752244808E+00  0.88000000000E+00 0.  1.
        -11    1    4    4    0    0  0.67397262484E-01 -0.91608175777E-01 -0.24282813496E-01  0.11629430344E+00  0.51100000000E-03 0.  1.
         11    1    4    4    0    0  0.89683357813E-02 -0.95645366275E-02 -0.10013900176E-01  0.16506081465E-01  0.51100000000E-03 0. -1.
</event>
<event>
 8    1  0.1112929E+005  0.1043930E+01  0.7957747E-01            NaN
         13   -1    0    0    0    0  0.00000000000E+00  0.00000000000E+00  0.74505805969E-08  0.10566000000E+00  0.10566000000E+00 0. -1.
     999900   -1    0    0    0    0 -0.00000000000E+00 -0.00000000000E+00 -0.74505805969E-08  0.93827000000E+00  0.93827000000E+00 0. -1.
     999902    2    1    2    0    0  0.11270624215E-01 -0.18665768099E-01  0.92168208364E-02  0.10202574916E+01  0.10199828241E+01 0.  0.
     999903    2    3    3    0    0  0.10400622726E+00  0.13243560522E-01  0.78419167752E-01  0.13210938335E+00  0.17624871442E-01 0.  0.
         14    1    1    2    0    0 -0.11270624215E-01  0.18665768099E-01 -0.92168208364E-02  0.23672508427E-01  0.00000000000E+00 0.  1.
     999901    1    3    3    0    0 -0.92735603046E-01 -0.31909328621E-01 -0.69202346915E-01  0.88814810823E+00  0.88000000000E+00 0.  1.
        -11    1    4    4    0    0  0.84199266739E-01  0.38465288066E-02  0.64499738738E-01  0.10613571369E+00  0.51100000000E-03 0. -1.
         11    1    4    4    0    0  0.19806960522E-01  0.93970317159E-02  0.13919429014E-01  0.25973669653E-01  0.51100000000E-03 0.  1.
</event>
<event>
 8    1  0.1112929E+005  0.1043930E+01  0.7957747E-01            NaN
         13   -1    0    0    0    0  0.00000000000E+00  0.00000000000E+00  0.74505805969E-08  0.10566000000E+00  0.10566000000E+00 0. -1.
     999900   -1    0    0    0    0 -0.00000000000E+00 -0.00000000000E+00 -0.74505805969E-08  0.93827000000E+00  0.93827000000E+00 0.  1.
     999902    2    1    2    0    0  0.49841031953E-02  0.12361785845E-01 -0.22259887051E-01  0.10179847190E+01  0.10176540328E+01 0.  0.
     999903    2    3    3    0    0 -0.46767025234E-01  0.42780501353E-01 -0.11313442959E+00  0.13127075159E+00  0.20378545528E-01 0.  0.
         14    1    1    2    0    0 -0.49841031953E-02 -0.12361785845E-01  0.22259887051E-01  0.25945280986E-01  0.00000000000E+00 0. -1.
     999901    1    3    3    0    0  0.51751128429E-01 -0.30418715508E-01  0.90874542541E-01  0.88671396743E+00  0.88000000000E+00 0.  1.
        -11    1    4    4    0    0 -0.32922574282E-01  0.35031034274E-01 -0.98827363659E-01  0.10990076519E+00  0.51100000000E-03 0. -1.
         11    1    4    4    0    0 -0.13844450952E-01  0.77494670789E-02 -0.14307065933E-01  0.21369986401E-01  0.51100000000E-03 0.  1.
</event>
<event>
 8    1  0.1112929E+005  0.1043930E+01  0.7957747E-01            NaN
         13   -1    0    0    0    0  0.00000000000E+00  0.00000000000E+00  0.74505805969E-08  0.10566000000E+00  0.10566000000E+00 0. -1.
     999900   -1    0    0    0    0 -0.00000000000E+00 -0.00000000000E+00 -0.74505805969E-08  0.93827000000E+00  0.93827000000E+00 0. -1.
     999902    2    1    2    0    0 -0.21199295307E-02 -0.11065854821E-01 -0.21656558603E-01  0.10195178355E+01  0.10192255212E+01 0.  0.
     999903    2    3    3    0    0 -0.10830343099E+00  0.26361245427E-01  0.59878764656E-01  0.12860609311E+00  0.23011134362E-01 0.  0.
         14    1    1    2    0    0  0.21199295307E-02  0.11065854821E-01  0.21656558603E-01  0.24412164481E-01  0.00000000000E+00 0. -1.
     999901    1    3    3    0    0  0.10618350146E+00 -0.37427100248E-01 -0.81535323259E-01  0.89091174240E+00  0.88000000000E+00 0. -1.
        -11    1    4    4    0    0 -0.23124918391E-01  0.12440824144E-01  0.62688938861E-02  0.27001779710E-01  0.51100000000E-03 0. -1.
         11    1    4    4    0    0 -0.85178512600E-01  0.13920421283E-01  0.53609870770E-01  0.10160431340E+00  0.51100000000E-03 0.  1.
</event>
<event>
 8    1  0.1112929E+005  0.1043930E+01  0.7957747E-01            NaN
         13   -1    0    0    0    0  0.00000000000E+00  0.00000000000E+00  0.74505805969E-08  0.10566000000E+00  0.10566000000E+00 0.  1.
     999900   -1    0    0    0    0 -0.00000000000E+00 -0.00000000000E+00 -0.74505805969E-08  0.93827000000E+00  0.93827000000E+00 0.  1.
     999902    2    1    2    0    0  0.22416849345E-01 -0.46729654611E-02 -0.50245267746E-02  0.10204865018E+01  0.10202171841E+01 0.  0.
     999903    2    3    3    0    0  0.37509912550E-01  0.12035059949E+00 -0.30110197878E-01  0.13116767071E+00  0.20176062232E-01 0.  0.
         14    1    1    2    0    0 -0.22416849345E-01  0.46729654611E-02  0.50245267746E-02  0.23443498247E-01  0.00000000000E+00 0.  1.
     999901    1    3    3    0    0 -0.15093063205E-01 -0.12502356495E+00  0.25085671104E-01  0.88931883104E+00  0.88000000000E+00 0.  1.
        -11    1    4    4    0    0  0.18381080231E-01  0.89027388294E-01 -0.19740437547E-01  0.93025189989E-01  0.51100000000E-03 0. -1.
         11    1    4    4    0    0  0.19128832320E-01  0.31323211194E-01 -0.10369760331E-01  0.38142480723E-01  0.51100000000E-03 0.  1.
</event>
<event>
 8    1  0.1112929E+005  0.1043930E+01  0.7957747E-01            NaN
         13   -1    0    0    0    0  0.00000000000E+00  0.00000000000E+00  0.74505805969E-08  0.10566000000E+00  0.10566000000E+00 0.  1.
     999900   -1    0    0    0    0 -0.00000000000E+00 -0.00000000000E+00 -0.74505805969E-08  0.93827000000E+00  0.93827000000E+00 0.  1.
     999902    2    1    2    0    0  0.16990023697E-02  0.23371619973E-01 -0.28771883460E-02  0.10203207340E+01  0.10200475493E+01 0.  0.
     999903    2    3    3    0    0  0.82244876065E-01 -0.19200043878E-01  0.98153192336E-01  0.12986741002E+00  0.99314498217E-02 0.  0.
         14    1    1    2    0    0 -0.16990023697E-02 -0.23371619973E-01  0.28771883460E-02  0.23609266020E-01  0.00000000000E+00 0. -1.
     999901    1    3    3    0    0 -0.80545873695E-01  0.42571663851E-01 -0.10103038068E+00  0.89045332396E+00  0.88000000000E+00 0.  1.
        -11    1    4    4    0    0  0.51751943526E-01 -0.16713146013E-01  0.60583083951E-01  0.81413537513E-01  0.51100000000E-03 0.  1.
         11    1    4    4    0    0  0.30492932539E-01 -0.24868978653E-02  0.37570108385E-01  0.48453872506E-01  0.51100000000E-03 0. -1.
</event>
<event>
 8    1  0.1112929E+005  0.1043930E+01  0.7957747E-01            NaN
         13   -1    0    0    0    0  0.00000000000E+00  0.00000000000E+00  0.74505805969E-08  0.10566000000E+00  0.10566000000E+00 0.  1.
     999900   -1    0    0    0    0 -0.00000000000E+00 -0.00000000000E+00 -0.74505805969E-08  0.93827000000E+00  0.93827000000E+00 0.  1.
     999902    2    1    2    0    0 -0.20428862896E-01  0.19812315455E-02 -0.10517314555E-01  0.10208675278E+01  0.10206069918E+01 0.  0.
     999903    2    3    3    0    0 -0.12040403214E+00  0.54142827787E-01 -0.38917449402E-02  0.13364728190E+00  0.20441954994E-01 0.  0.
         14    1    1    2    0    0  0.20428862896E-01 -0.19812315455E-02  0.10517314555E-01  0.23062472181E-01  0.00000000000E+00 0. -1.
     999901    1    3    3    0    0  0.99975169248E-01 -0.52161596242E-01 -0.66255696144E-02  0.88722024591E+00  0.88000000000E+00 0.  1.
        -11    1    4    4    0    0 -0.38639805292E-01  0.27534871431E-01 -0.44641473800E-02  0.47659137955E-01  0.51100000000E-03 0.  1.
         11    1    4    4    0    0 -0.81764226852E-01  0.26607956357E-01  0.57240243975E-03  0.85988143949E-01  0.51100000000E-03 0. -1.
</event>
<event>
 8    1  0.1112929E+005  0.1043930E+01  0.7957747E-01            NaN
         13   -1    0    0    0    0  0.00000000000E+00  0.00000000000E+00  0.74505805969E-08  0.10566000000E+00  0.10566000000E+00 0. -1.
     999900   -1    0    0    0    0 -0.00000000000E+00 -0.00000000000E+00 -0.74505805969E-08  0.93827000000E+00  0.93827000000E+00 0. -1.
     999902    2    1    2    0    0 -0.94817740573E-02 -0.16715527729E-01  0.12337304563E-01  0.10210931440E+01  0.10208377377E+01 0.  0.
     999903    2    3    3    0    0  0.10516392432E+00  0.71219670067E-01  0.14015358433E-01  0.12930894871E+00  0.19816194447E-01 0.  0.
         14    1    1    2    0    0  0.94817740573E-02  0.16715527729E-01 -0.12337304563E-01  0.22836855966E-01  0.00000000000E+00 0.  1.
     999901    1    3    3    0    0 -0.11464569837E+00 -0.87935197795E-01 -0.16780538703E-02  0.89178419533E+00  0.88000000000E+00 0. -1.
        -11    1    4    4    0    0  0.53820325180E-01  0.48131351170E-01  0.95569059558E-02  0.72834400804E-01  0.51100000000E-03 0. -1.
         11    1    4    4    0    0  0.51343599135E-01  0.23088318897E-01  0.44584524776E-02  0.56474547906E-01  0.51100000000E-03 0.  1.
</event>
<event>
 8    1  0.1112929E+005  0.1043930E+01  0.7957747E-01            NaN
         13   -1    0    0    0    0  0.00000000000E+00  0.00000000000E+00  0.74505805969E-08  0.10566000000E+00  0.10566000000E+00 0.  1.
     999900   -1    0    0    0    0 -0.00000000000E+00 -0.00000000000E+00 -0.74505805969E-08  0.93827000000E+00  0.93827000000E+00 0. -1.
     999902    2    1    2    0    0 -0.14233560124E-01  0.73764691977E-02  0.19084372902E-01  0.10190057183E+01  0.10187008560E+01 0.  0.
     999903    2    3    3    0    0 -0.63891553959E-01 -0.82140258539E-01 -0.74180682543E-01  0.12817603113E+00  0.98574110445E-02 0.  0.
         14    1    1    2    0    0  0.14233560124E-01 -0.73764691977E-02 -0.19084372902E-01  0.24924281749E-01  0.00000000000E+00 0. -1.
     999901    1    3    3    0    0  0.49657993835E-01  0.89516727736E-01  0.93265055445E-01  0.89082968713E+00  0.88000000000E+00 0.  1.
        -11    1    4    4    0    0 -0.29639215264E-01 -0.36950311855E-01 -0.27868931206E-01  0.54961323449E-01  0.51100000000E-03 0.  1.
         11    1    4    4    0    0 -0.34252338695E-01 -0.45189946684E-01 -0.46311751337E-01  0.73214707677E-01  0.51100000000E-03 0. -1.
</event>
<event>
 8    1  0.1112929E+005  0.1043930E+01  0.7957747E-01            NaN
         13   -1    0    0    0    0  0.00000000000E+00  0.00000000000E+00  0.74505805969E-08  0.10566000000E+00  0.10566000000E+00 0.  1.
     999900   -1    0    0    0    0 -0.00000000000E+00 -0.00000000000E+00 -0.74505805969E-08  0.93827000000E+00  0.93827000000E+00 0.  1.
     999902    2    1    2    0    0 -0.10863630894E-01 -0.18868404281E-01  0.72399327977E-02  0.10209854629E+01  0.10207276148E+01 0.  0.
     999903    2    3    3    0    0  0.16097595232E-01 -0.12440449186E+00  0.41458654405E-01  0.13360972826E+00  0.19928103128E-01 0.  0.
         14    1    1    2    0    0  0.10863630894E-01  0.18868404281E-01 -0.72399327977E-02  0.22944537111E-01  0.00000000000E+00 0.  1.
     999901    1    3    3    0    0 -0.26961226126E-01  0.10553608758E+00 -0.34218721608E-01  0.88737573463E+00  0.88000000000E+00 0.  1.
        -11    1    4    4    0    0  0.11306865918E-01 -0.36456687755E-01  0.59150416956E-02  0.38628799337E-01  0.51100000000E-03 0. -1.
         11    1    4    4    0    0  0.47907293137E-02 -0.87947804105E-01  0.35543612710E-01  0.94980928926E-01  0.51100000000E-03 0.  1.
</event>
<event>
 8    1  0.1112929E+005  0.1043930E+01  0.7957747E-01            NaN
         13   -1    0    0    0    0  0.00000000000E+00  0.00000000000E+00  0.74505805969E-08  0.10566000000E+00  0.10566000000E+00 0. -1.
     999900   -1    0    0    0    0 -0.00000000000E+00 -0.00000000000E+00 -0.74505805969E-08  0.93827000000E+00  0.93827000000E+00 0.  1.
     999902    2    1    2    0    0 -0.11127408626E-01 -0.14514422767E-01  0.15269660579E-01  0.10201045887E+01  0.10198263193E+01 0.  0.
     999903    2    3    3    0    0  0.81106664096E-01  0.16466627826E-01  0.98938522569E-01  0.13079731436E+00  0.21671765117E-01 0.  0.
         14    1    1    2    0    0  0.11127408626E-01  0.14514422767E-01 -0.15269660579E-01  0.23825411333E-01  0.00000000000E+00 0. -1.
     999901    1    3    3    0    0 -0.92234072721E-01 -0.30981050594E-01 -0.83668861990E-01  0.88930727431E+00  0.88000000000E+00 0. -1.
        -11    1    4    4    0    0  0.24193723804E-01  0.55558306526E-02  0.15713377150E-01  0.29383241281E-01  0.51100000000E-03 0. -1.
         11    1    4    4    0    0  0.56912940291E-01  0.10910797174E-01  0.83225145419E-01  0.10141407308E+00  0.51100000000E-03 0.  1.
</event>
<event>
 8    1  0.1112929E+005  0.1043930E+01  0.7957747E-01            NaN
         13   -1    0    0    0    0  0.00000000000E+00  0.00000000000E+00  0.74505805969E-08  0.10566000000E+00  0.10566000000E+00 0. -1.
     999900   -1    0    0    0    0 -0.00000000000E+00 -0.00000000000E+00 -0.74505805969E-08  0.93827000000E+00  0.93827000000E+00 0. -1.
     999902    2    1    2    0    0  0.23920291720E-01 -0.17614253910E-02  0.58545236771E-04  0.10199448712E+01  0.10196628138E+01 0.  0.
     999903    2    3    3    0    0 -0.67938850473E-01  0.80473103485E-01  0.71038512987E-01  0.12851973383E+00  0.19474184633E-01 0.  0.
         14    1    1    2    0    0 -0.23920291720E-01  0.17614253910E-02 -0.58545236771E-04  0.23985128787E-01  0.00000000000E+00 0.  1.
     999901    1    3    3    0    0  0.91859142193E-01 -0.82234528876E-01 -0.70979967751E-01  0.89142513739E+00  0.88000000000E+00 0.  1.
        -11    1    4    4    0    0 -0.17416356195E-01  0.94621419911E-02  0.10818478075E-01  0.22586770088E-01  0.51100000000E-03 0. -1.
         11    1    4    4    0    0 -0.50522494279E-01  0.71010961494E-01  0.60220034913E-01  0.10593296374E+00  0.51100000000E-03 0.  1.
</event>
<event>
 8    1  0.1112929E+005  0.1043930E+01  0.7957747E-01            NaN
         13   -1    0    0    0    0  0.00000000000E+00  0.00000000000E+00  0.74505805969E-08  0.10566000000E+00  0.10566000000E+00 0. -1.
     999900   -1    0    0    0    0 -0.00000000000E+00 -0.00000000000E+00 -0.74505805969E-08  0.93827000000E+00  0.93827000000E+00 0.  1.
     999902    2    1    2    0    0 -0.46146152860E-03 -0.23341671166E-01 -0.57691260252E-02  0.10198815203E+01  0.10195979532E+01 0.  0.
     999903    2    3    3    0    0  0.75380005175E-01 -0.47763314153E-01 -0.94977953632E-01  0.13178999371E+00  0.19603862059E-01 0.  0.
         14    1    1    2    0    0  0.46146152860E-03  0.23341671166E-01  0.57691260252E-02  0.24048479675E-01  0.00000000000E+00 0. -1.
     999901    1    3    3    0    0 -0.75841466704E-01  0.24421642987E-01  0.89208827607E-01  0.88809152661E+00  0.88000000000E+00 0. -1.
        -11    1    4    4    0    0  0.17934448965E-01 -0.12352157858E-01 -0.12120514361E-01  0.24927660395E-01  0.51100000000E-03 0.  1.
         11    1    4    4    0    0  0.57445556211E-01 -0.35411156295E-01 -0.82857439271E-01  0.10686233332E+00  0.51100000000E-03 0. -1.
</event>
<event>
 8    1  0.1112929E+005  0.1043930E+01  0.7957747E-01            NaN
         13   -1    0    0    0    0  0.00000000000E+00  0.00000000000E+00  0.74505805969E-08  0.10566000000E+00  0.10566000000E+00 0.  1.
     999900   -1    0    0    0    0 -0.00000000000E+00 -0.00000000000E+00 -0.74505805969E-08  0.93827000000E+00  0.93827000000E+00 0.  1.
     999902    2    1    2    0    0 -0.99560425320E-02  0.18210935104E-01 -0.11804683731E-01  0.10200529923E+01  0.10197735021E+01 0.  0.
     999903    2    3    3    0    0  0.11519133131E+00 -0.53166308449E-01 -0.24503224940E-02  0.12828840441E+00  0.18873565172E-01 0.  0.
         14    1    1    2    0    0  0.99560425320E-02 -0.18210935104E-01  0.11804683731E-01  0.23877007733E-01  0.00000000000E+00 0. -1.
     999901    1    3    3    0    0 -0.12514737385E+00  0.71377243553E-01 -0.93543612367E-02  0.89176458785E+00  0.88000000000E+00 0.  1.
        -11    1    4    4    0    0  0.76843227980E-01 -0.44013946439E-01  0.22152413347E-02  0.88584860911E-01  0.51100000000E-03 0. -1.
         11    1    4    4    0    0  0.38348103335E-01 -0.91523620101E-02 -0.46655638287E-02  0.39703543501E-01  0.51100000000E-03 0.  1.
</event>
<event>
 8    1  0.1112929E+005  0.1043930E+01  0.7957747E-01            NaN
         13   -1    0    0    0    0  0.00000000000E+00  0.00000000000E+00  0.74505805969E-08  0.10566000000E+00  0.10566000000E+00 0. -1.
     999900   -1    0    0    0    0 -0.00000000000E+00 -0.00000000000E+00 -0.74505805969E-08  0.93827000000E+00  0.93827000000E+00 0.  1.
     999902    2    1    2    0    0 -0.85210235155E-02 -0.13044291896E-02  0.23162891510E-01  0.10192150466E+01  0.10189153460E+01 0.  0.
     999903    2    3    3    0    0 -0.64716182482E-01 -0.50252499171E-01  0.10228071766E+00  0.13252826999E+00  0.19720527185E-01 0.  0.
         14    1    1    2    0    0  0.85210235155E-02  0.13044291896E-02 -0.23162891510E-01  0.24714953375E-01  0.00000000000E+00 0.  1.
     999901    1    3    3    0    0  0.56195158966E-01  0.48948069981E-01 -0.79117826154E-01  0.88668677664E+00  0.88000000000E+00 0.  1.
        -11    1    4    4    0    0 -0.23631496852E-01 -0.20296604750E-01  0.24653366275E-01  0.39729704221E-01  0.51100000000E-03 0. -1.
         11    1    4    4    0    0 -0.41084685630E-01 -0.29955894422E-01  0.77627351388E-01  0.92798565767E-01  0.51100000000E-03 0.  1.
</event>
<event>
 8    1  0.1112929E+005  0.1043930E+01  0.7957747E-01            NaN
         13   -1    0    0    0    0  0.00000000000E+00  0.00000000000E+00  0.74505805969E-08  0.10566000000E+00  0.10566000000E+00 0.  1.
     999900   -1    0    0    0    0 -0.00000000000E+00 -0.00000000000E+00 -0.74505805969E-08  0.93827000000E+00  0.93827000000E+00 0. -1.
     999902    2    1    2    0    0 -0.31121153321E-02  0.13050404984E-02  0.21152752810E-01  0.10225097445E+01  0.10222853566E+01 0.  0.
     999903    2    3    3    0    0  0.15388076395E-01 -0.38771520021E-01 -0.12192008941E+00  0.12986299135E+00  0.16120318265E-01 0.  0.
         14    1    1    2    0    0  0.31121153321E-02 -0.13050404984E-02 -0.21152752810E-01  0.21420255460E-01  0.00000000000E+00 0. -1.
     999901    1    3    3    0    0 -0.18500191727E-01  0.40076560519E-01  0.14307284222E+00  0.89264675319E+00  0.88000000000E+00 0.  1.
        -11    1    4    4    0    0  0.55769819395E-03 -0.17322182275E-01 -0.34149448237E-01  0.38299020378E-01  0.51100000000E-03 0. -1.
         11    1    4    4    0    0  0.14830378201E-01 -0.21449337746E-01 -0.87770641174E-01  0.91563970973E-01  0.51100000000E-03 0.  1.
</event>
<event>
 8    1  0.1153038E+005  0.1043930E+01  0.7957747E-01            NaN
         13   -1    0    0    0    0  0.00000000000E+00  0.00000000000E+00  0.74505805969E-08  0.10566000000E+00  0.10566000000E+00 0.  1.
     999900   -1    0    0    0    0 -0.00000000000E+00 -0.00000000000E+00 -0.74505805969E-08  0.93827000000E+00  0.93827000000E+00 0. -1.
     999902    2    1    2    0    0 -0.18843519643E-01  0.11603982353E-01 -0.75620388984E-02  0.10205437846E+01  0.10202757966E+01 0.  0.
     999903    2    3    3    0    0  0.82874829836E-02  0.52345775468E-01 -0.11941853275E+00  0.13211378722E+00  0.19608779323E-01 0.  0.
         14    1    1    2    0    0  0.18843519643E-01 -0.11603982353E-01  0.75620388984E-02  0.23386215412E-01  0.00000000000E+00 0.  1.
     999901    1    3    3    0    0 -0.27131002626E-01 -0.40741793114E-01  0.11185649385E+00  0.88842999737E+00  0.88000000000E+00 0.  1.
        -11    1    4    4    0    0  0.10964984538E-01  0.23203030557E-01 -0.40575726862E-01  0.48013146578E-01  0.51100000000E-03 0.  1.
         11    1    4    4    0    0 -0.26775015540E-02  0.29142744910E-01 -0.78842805884E-01  0.84100640640E-01  0.51100000000E-03 0. -1.
</event>
<event>
 8    1  0.1112929E+005  0.1043930E+01  0.7957747E-01            NaN
         13   -1    0    0    0    0  0.00000000000E+00  0.00000000000E+00  0.74505805969E-08  0.10566000000E+00  0.10566000000E+00 0. -1.
     999900   -1    0    0    0    0 -0.00000000000E+00 -0.00000000000E+00 -0.74505805969E-08  0.93827000000E+00  0.93827000000E+00 0. -1.
     999902    2    1    2    0    0 -0.38529351553E-02 -0.19381783253E-01 -0.13128879411E-01  0.10202052006E+01  0.10199293040E+01 0.  0.
     999903    2    3    3    0    0  0.12726641815E+00  0.13634267548E-01 -0.32010792148E-02  0.12982275153E+00  0.21472435052E-01 0.  0.
         14    1    1    2    0    0  0.38529351553E-02  0.19381783253E-01  0.13128879411E-01  0.23724799387E-01  0.00000000000E+00 0. -1.
     999901    1    3    3    0    0 -0.13111935330E+00 -0.33016050800E-01 -0.99278001961E-02  0.89038244908E+00  0.88000000000E+00 0. -1.
        -11    1    4    4    0    0  0.44689310599E-01  0.71340486638E-02 -0.11140457101E-01  0.46609012407E-01  0.51100000000E-03 0. -1.
         11    1    4    4    0    0  0.82577107548E-01  0.65002188837E-02  0.79393778860E-02  0.83213739122E-01  0.51100000000E-03 0.  1.
</event>
<event>
 8    1  0.1112929E+005  0.1043930E+01  0.7957747E-01            NaN
         13   -1    0    0    0    0  0.00000000000E+00  0.00000000000E+00  0.74505805969E-08  0.10566000000E+00  0.10566000000E+00 0.  1.
     999900   -1    0    0    0    0 -0.00000000000E+00 -0.00000000000E+00 -0.74505805969E-08  0.93827000000E+00  0.93827000000E+00 0. -1.
     999902    2    1    2    0    0 -0.97172029633E-02  0.12114051550E-01  0.18469499540E-01  0.10197991755E+01  0.10195136397E+01 0.  0.
     999903    2    3    3    0    0  0.11165229327E+00  0.47213571229E-01  0.43691118790E-01  0.13041812050E+00  0.20115078715E-01 0.  0.
         14    1    1    2    0    0  0.97172029633E-02 -0.12114051550E-01 -0.18469499540E-01  0.24130824512E-01  0.00000000000E+00 0. -1.
     999901    1    3    3    0    0 -0.12136949624E+00 -0.35099519679E-01 -0.25221619250E-01  0.88938105499E+00  0.88000000000E+00 0.  1.
        -11    1    4    4    0    0  0.26154901170E-01  0.41897311344E-02  0.39680489594E-02  0.26788789367E-01  0.51100000000E-03 0. -1.
         11    1    4    4    0    0  0.85497392103E-01  0.43023840094E-01  0.39723069830E-01  0.10362933113E+00  0.51100000000E-03 0.  1.
</event>
<event>
 8    1  0.1112929E+005  0.1043930E+01  0.7957747E-01            NaN
         13   -1    0    0    0    0  0.00000000000E+00  0.00000000000E+00  0.74505805969E-08  0.10566000000E+00  0.10566000000E+00 0. -1.
     999900   -1    0    0    0    0 -0.00000000000E+00 -0.00000000000E+00 -0.74505805969E-08  0.93827000000E+00  0.93827000000E+00 0. -1.
     999902    2    1    2    0    0 -0.82562980827E-02  0.21444771950E-01  0.68907065134E-02  0.10199398658E+01  0.10196576893E+01 0.  0.
     999903    2    3    3    0    0 -0.25403391209E-01 -0.29568489366E-03  0.12720162399E+00  0.13132218248E+00  0.20490064731E-01 0.  0.
         14    1    1    2    0    0  0.82562980827E-02 -0.21444771950E-01 -0.68907065134E-02  0.23990134187E-01  0.00000000000E+00 0.  1.
     999901    1    3    3    0    0  0.17147093126E-01  0.21740456844E-01 -0.12031091747E+00  0.88861768333E+00  0.88000000000E+00 0. -1.
        -11    1    4    4    0    0 -0.67830875681E-02 -0.67602291152E-02  0.18408889552E-01  0.20757150821E-01  0.51100000000E-03 0. -1.
         11    1    4    4    0    0 -0.18620303641E-01  0.64645442215E-02  0.10879273443E+00  0.11056503166E+00  0.51100000000E-03 0.  1.
</event>
<event>
 8    1  0.1112929E+005  0.1043930E+01  0.7957747E-01            NaN
         13   -1    0    0    0    0  0.00000000000E+00  0.00000000000E+00  0.74505805969E-08  0.10566000000E+00  0.10566000000E+00 0. -1.
     999900   -1    0    0    0    0 -0.00000000000E+00 -0.00000000000E+00 -0.74505805969E-08  0.93827000000E+00  0.93827000000E+00 0. -1.
     999902    2    1    2    0    0 -0.15799405349E-01  0.21381807297E-02 -0.25985594405E-01  0.10134432136E+01  0.10129845523E+01 0.  0.
     999903    2    3    3    0    0 -0.70033359316E-01  0.85550869709E-01 -0.61600896563E-01  0.12712078461E+00  0.11891202533E-01 0.  0.
         14    1    1    2    0    0  0.15799405349E-01 -0.21381807297E-02  0.25985594405E-01  0.30486786364E-01  0.00000000000E+00 0. -1.
     999901    1    3    3    0    0  0.54233953968E-01 -0.83412688979E-01  0.35615302158E-01  0.88632242903E+00  0.88000000000E+00 0. -1.
        -11    1    4    4    0    0 -0.33111265019E-01  0.48954824268E-01 -0.35547365558E-01  0.68969609318E-01  0.51100000000E-03 0.  1.
         11    1    4    4    0    0 -0.36922094297E-01  0.36596045441E-01 -0.26053531005E-01  0.58151175294E-01  0.51100000000E-03 0. -1.
</event>
<event>
 8    1  0.1112929E+005  0.1043930E+01  0.7957747E-01            NaN
         13   -1    0    0    0    0  0.00000000000E+00  0.00000000000E+00  0.74505805969E-08  0.10566000000E+00  0.10566000000E+00 0.  1.
     999900   -1    0    0    0    0 -0.00000000000E+00 -0.00000000000E+00 -0.74505805969E-08  0.93827000000E+00  0.93827000000E+00 0.  1.
     999902    2    1    2    0    0 -0.12299417420E-01 -0.16384059694E-01  0.83768849336E-02  0.10217966477E+01  0.10215569020E+01 0.  0.
     999903    2    3    3    0    0  0.91190178486E-01 -0.31482297257E-01  0.87679328276E-01  0.13206245667E+00  0.21119757640E-01 0.  0.
         14    1    1    2    0    0  0.12299417420E-01  0.16384059694E-01 -0.83768849336E-02  0.22133352257E-01  0.00000000000E+00 0.  1.
     999901    1    3    3    0    0 -0.10348959591E+00  0.15098237563E-01 -0.79302443343E-01  0.88973419107E+00  0.88000000000E+00 0.  1.
        -11    1    4    4    0    0  0.40450801118E-01 -0.70990473549E-02  0.48075376351E-01  0.63231058165E-01  0.51100000000E-03 0. -1.
         11    1    4    4    0    0  0.50739377368E-01 -0.24383249902E-01  0.39603951926E-01  0.68831398508E-01  0.51100000000E-03 0.  1.
</event>
<event>
 8    1  0.1112929E+005  0.1043930E+01  0.7957747E-01            NaN
         13   -1    0    0    0    0  0.00000000000E+00  0.00000000000E+00  0.74505805969E-08  0.10566000000E+00  0.10566000000E+00 0. -1.
     999900   -1    0    0    0    0 -0.00000000000E+00 -0.00000000000E+00 -0.74505805969E-08  0.93827000000E+00  0.93827000000E+00 0. -1.
     999902    2    1    2    0    0  0.11486493729E-01 -0.48550375982E-02 -0.25894947955E-01  0.10151887534E+01  0.10147818217E+01 0.  0.
     999903    2    3    3    0    0 -0.33956770552E-01 -0.47894635853E-01 -0.11352359864E+00  0.12862444228E+00  0.14480376130E-01 0.  0.
         14    1    1    2    0    0 -0.11486493729E-01  0.48550375982E-02  0.25894947955E-01  0.28741246630E-01  0.00000000000E+00 0. -1.
     999901    1    3    3    0    0  0.45443264281E-01  0.43039598254E-01  0.87628650685E-01  0.88656431109E+00  0.88000000000E+00 0. -1.
        -11    1    4    4    0    0 -0.28286627161E-01 -0.43243550234E-01 -0.87876096459E-01  0.10194413844E+00  0.51100000000E-03 0. -1.
         11    1    4    4    0    0 -0.56701433906E-02 -0.46510856185E-02 -0.25647502180E-01  0.26680303832E-01  0.51100000000E-03 0.  1.
</event>
<event>
 8    1  0.1112929E+005  0.1043930E+01  0.7957747E-01            NaN
         13   -1    0    0    0    0  0.00000000000E+00  0.00000000000E+00  0.74505805969E-08  0.10566000000E+00  0.10566000000E+00 0. -1.
     999900   -1    0    0    0    0 -0.00000000000E+00 -0.00000000000E+00 -0.74505805969E-08  0.93827000000E+00  0.93827000000E+00 0.  1.
     999902    2    1    2    0    0 -0.13454257020E-01  0.17719985655E-01 -0.89017196051E-02  0.10199663706E+01  0.10196848246E+01 0.  0.
     999903    2    3    3    0    0 -0.46304720690E-01  0.71463756597E-01  0.97794952524E-01  0.13128660501E+00  0.20521312083E-01 0.  0.
         14    1    1    2    0    0  0.13454257020E-01 -0.17719985655E-01  0.89017196051E-02  0.23963629431E-01  0.00000000000E+00 0. -1.
     999901    1    3    3    0    0  0.32850463670E-01 -0.53743770942E-01 -0.10669667213E+00  0.88867976556E+00  0.88000000000E+00 0.  1.
        -11    1    4    4    0    0 -0.16048433029E-01  0.39852983051E-01  0.39252501166E-01  0.58196498430E-01  0.51100000000E-03 0.  1.
         11    1    4    4    0    0 -0.30256287660E-01  0.31610773546E-01  0.58542451358E-01  0.73090106575E-01  0.51100000000E-03 0. -1.
</event>
<event>
 8    1  0.1112929E+005  0.1043930E+01  0.7957747E-01            NaN
         13   -1    0    0    0    0  0.00000000000E+00  0.00000000000E+00  0.74505805969E-08  0.10566000000E+00  0.10566000000E+00 0.  1.
     999900   -1    0    0    0    0 -0.00000000000E+00 -0.00000000000E+00 -0.74505805969E-08  0.93827000000E+00  0.93827000000E+00 0. -1.
     999902    2    1    2    0    0  0.12394054618E-01  0.27601720054E-02  0.18704979986E-01  0.10213223151E+01  0.10210720660E+01 0.  0.
     999903    2    3    3    0    0 -0.54544539064E-02  0.12342347818E+00  0.43924108796E-01  0.13255113694E+00  0.19426027301E-01 0.  0.
         14    1    1    2    0    0 -0.12394054618E-01 -0.27601720054E-02 -0.18704979986E-01  0.22607684880E-01  0.00000000000E+00 0. -1.
     999901    1    3    3    0    0  0.17848508525E-01 -0.12066330617E+00 -0.25219128810E-01  0.88877117818E+00  0.88000000000E+00 0.  1.
        -11    1    4    4    0    0 -0.56008279285E-02  0.37398056629E-01  0.50705277260E-02  0.38156982134E-01  0.51100000000E-03 0. -1.
         11    1    4    4    0    0  0.14637402208E-03  0.86025421548E-01  0.38853581070E-01  0.94394154802E-01  0.51100000000E-03 0.  1.
</event>
<event>
 8    1  0.1112929E+005  0.1043930E+01  0.7957747E-01            NaN
         13   -1    0    0    0    0  0.00000000000E+00  0.00000000000E+00  0.74505805969E-08  0.10566000000E+00  0.10566000000E+00 0.  1.
     999900   -1    0    0    0    0 -0.00000000000E+00 -0.00000000000E+00 -0.74505805969E-08  0.93827000000E+00  0.93827000000E+00 0.  1.
     999902    2    1    2    0    0  0.11574509348E-01  0.20342248331E-01  0.34726491115E-02  0.10202691542E+01  0.10199947604E+01 0.  0.
     999903    2    3    3    0    0  0.45286465062E-02 -0.12416172444E+00  0.24365709436E-01  0.12821110544E+00  0.20193001405E-01 0.  0.
         14    1    1    2    0    0 -0.11574509348E-01 -0.20342248331E-01 -0.34726491115E-02  0.23660845835E-01  0.00000000000E+00 0. -1.
     999901    1    3    3    0    0  0.70458628416E-02  0.14450397277E+00 -0.20893060325E-01  0.89205804873E+00  0.88000000000E+00 0.  1.
        -11    1    4    4    0    0 -0.77853903531E-02 -0.39629813390E-01  0.96487571308E-02  0.41527027915E-01  0.51100000000E-03 0. -1.
         11    1    4    4    0    0  0.12314036859E-01 -0.84531911051E-01  0.14716952306E-01  0.86684077522E-01  0.51100000000E-03 0.  1.
</event>
<event>
 8    1  0.1112929E+005  0.1043930E+01  0.7957747E-01            NaN
         13   -1    0    0    0    0  0.00000000000E+00  0.00000000000E+00  0.74505805969E-08  0.10566000000E+00  0.10566000000E+00 0. -1.
     999900   -1    0    0    0    0 -0.00000000000E+00 -0.00000000000E+00 -0.74505805969E-08  0.93827000000E+00  0.93827000000E+00 0. -1.
     999902    2    1    2    0    0  0.18392389180E-01 -0.14293414932E-01  0.33437361922E-02  0.10203978462E+01  0.10201264639E+01 0.  0.
     999903    2    3    3    0    0 -0.32812016571E-01  0.68452470273E-02  0.12448761910E+00  0.13037280467E+00  0.19401418782E-01 0.  0.
         14    1    1    2    0    0 -0.18392389180E-01  0.14293414932E-01 -0.33437361922E-02  0.23532153787E-01  0.00000000000E+00 0.  1.
     999901    1    3    3    0    0  0.51204405751E-01 -0.21138661959E-01 -0.12114388291E+00  0.89002504154E+00  0.88000000000E+00 0. -1.
        -11    1    4    4    0    0 -0.19237594732E-02 -0.46790884795E-02  0.26588854804E-01  0.27070704466E-01  0.51100000000E-03 0. -1.
         11    1    4    4    0    0 -0.30888257098E-01  0.11524335507E-01  0.97898764299E-01  0.10330210021E+00  0.51100000000E-03 0.  1.
</event>
<event>
 8    1  0.1112929E+005  0.1043930E+01  0.7957747E-01            NaN
         13   -1    0    0    0    0  0.00000000000E+00  0.00000000000E+00  0.74505805969E-08  0.10566000000E+00  0.10566000000E+00 0. -1.
     999900   -1    0    0    0    0 -0.00000000000E+00 -0.00000000000E+00 -0.74505805969E-08  0.93827000000E+00  0.93827000000E+00 0.  1.
     999902    2    1    2    0    0 -0.79966611697E-02  0.19570268323E-01  0.18058656663E-01  0.10161260961E+01  0.10157456306E+01 0.  0.
     999903    2    3    3    0    0  0.12134091622E+00  0.69992239219E-02 -0.24594038279E-01  0.12556139183E+00  0.19702520549E-01 0.  0.
         14    1    1    2    0    0  0.79966611697E-02 -0.19570268323E-01 -0.18058656663E-01  0.27803903909E-01  0.00000000000E+00 0.  1.
     999901    1    3    3    0    0 -0.12933757739E+00  0.12571044401E-01  0.42652694942E-01  0.89056470426E+00  0.88000000000E+00 0. -1.
        -11    1    4    4    0    0  0.64762319403E-01  0.11820227855E-01 -0.75092201355E-02  0.66261039149E-01  0.51100000000E-03 0. -1.
         11    1    4    4    0    0  0.56578596816E-01 -0.48210039332E-02 -0.17084818143E-01  0.59300352686E-01  0.51100000000E-03 0.  1.
</event>
<event>
 8    1  0.1112929E+005  0.1043930E+01  0.7957747E-01            NaN
         13   -1    0    0    0    0  0.00000000000E+00  0.00000000000E+00  0.74505805969E-08  0.10566000000E+00  0.10566000000E+00 0.  1.
     999900   -1    0    0    0    0 -0.00000000000E+00 -0.00000000000E+00 -0.74505805969E-08  0.93827000000E+00  0.93827000000E+00 0. -1.
     999902    2    1    2    0    0  0.21909137065E-01  0.84023465086E-02 -0.14345949780E-02  0.10204211128E+01  0.10201502731E+01 0.  0.
     999903    2    3    3    0    0 -0.21338829939E-01  0.10760798885E+00  0.68619966986E-01  0.13102818066E+00  0.20612116093E-01 0.  0.
         14    1    1    2    0    0 -0.21909137065E-01 -0.84023465086E-02  0.14345949780E-02  0.23508887182E-01  0.00000000000E+00 0. -1.
     999901    1    3    3    0    0  0.43247967004E-01 -0.99205642343E-01 -0.70054561964E-01  0.88939293216E+00  0.88000000000E+00 0. -1.
        -11    1    4    4    0    0 -0.21925812352E-01  0.60128008859E-01  0.36211192701E-01  0.73536591535E-01  0.51100000000E-03 0. -1.
         11    1    4    4    0    0  0.58698241281E-03  0.47479979992E-01  0.32408774285E-01  0.57491589124E-01  0.51100000000E-03 0.  1.
</event>
<event>
 8    1  0.1112929E+005  0.1043930E+01  0.7957747E-01            NaN
         13   -1    0    0    0    0  0.00000000000E+00  0.00000000000E+00  0.74505805969E-08  0.10566000000E+00  0.10566000000E+00 0. -1.
     999900   -1    0    0    0    0 -0.00000000000E+00 -0.00000000000E+00 -0.74505805969E-08  0.93827000000E+00  0.93827000000E+00 0.  1.
     999902    2    1    2    0    0  0.18096802092E-01 -0.32437494303E-02 -0.10805846660E-01  0.10226043704E+01  0.10223819814E+01 0.  0.
     999903    2    3    3    0    0 -0.15132489824E-01  0.11600130910E+00 -0.59350467951E-01  0.13261552210E+00  0.19470559675E-01 0.  0.
         14    1    1    2    0    0 -0.18096802092E-01  0.32437494303E-02  0.10805846660E-01  0.21325629613E-01  0.00000000000E+00 0. -1.
     999901    1    3    3    0    0  0.33229291916E-01 -0.11924505853E+00  0.48544621291E-01  0.88998884829E+00  0.88000000000E+00 0. -1.
        -11    1    4    4    0    0 -0.86379151889E-02  0.10727925691E+00 -0.52463886203E-01  0.11973375889E+00  0.51100000000E-03 0. -1.
         11    1    4    4    0    0 -0.64945746349E-02  0.87220521875E-02 -0.68865817479E-02  0.12881763203E-01  0.51100000000E-03 0.  1.
</event>
<event>
 8    1  0.1112929E+005  0.1043930E+01  0.7957747E-01            NaN
         13   -1    0    0    0    0  0.00000000000E+00  0.00000000000E+00  0.74505805969E-08  0.10566000000E+00  0.10566000000E+00 0. -1.
     999900   -1    0    0    0    0 -0.00000000000E+00 -0.00000000000E+00 -0.74505805969E-08  0.93827000000E+00  0.93827000000E+00 0.  1.
     999902    2    1    2    0    0  0.13034893759E-01  0.16268304157E-01 -0.13321828761E-01  0.10191906124E+01  0.10188903117E+01 0.  0.
     999903    2    3    3    0    0  0.54539967479E-01 -0.97487312508E-01 -0.62727115598E-01  0.12952556657E+00  0.19073468792E-01 0.  0.
         14    1    1    2    0    0 -0.13034893759E-01 -0.16268304157E-01  0.13321828761E-01  0.24739387563E-01  0.00000000000E+00 0. -1.
     999901    1    3    3    0    0 -0.41505073720E-01  0.11375561666E+00  0.49405286837E-01  0.88966504587E+00  0.88000000000E+00 0. -1.
        -11    1    4    4    0    0  0.14360145649E-01 -0.12117514171E-01 -0.13148563725E-01  0.22938914137E-01  0.51100000000E-03 0. -1.
         11    1    4    4    0    0  0.40179821831E-01 -0.85369798337E-01 -0.49578551873E-01  0.10658665243E+00  0.51100000000E-03 0.  1.
</event>
<event>
 8    1  0.1112929E+005  0.1043930E+01  0.7957747E-01            NaN
         13   -1    0    0    0    0  0.00000000000E+00  0.00000000000E+00  0.74505805969E-08  0.10566000000E+00  0.10566000000E+00 0.  1.
     999900   -1    0    0    0    0 -0.00000000000E+00 -0.00000000000E+00 -0.74505805969E-08  0.93827000000E+00  0.93827000000E+00 0. -1.
     999902    2    1    2    0    0  0.86581548197E-02 -0.38011247185E-02 -0.21842349175E-01  0.10201287309E+01  0.10198510318E+01 0.  0.
     999903    2    3    3    0    0  0.26047642272E-01  0.12597668719E+00  0.27657788452E-04  0.13017200613E+00  0.19903392411E-01 0.  0.
         14    1    1    2    0    0 -0.86581548197E-02  0.38011247185E-02  0.21842349175E-01  0.23801269116E-01  0.00000000000E+00 0.  1.
     999901    1    3    3    0    0 -0.17389487452E-01 -0.12977781191E+00 -0.21870006964E-01  0.88995672476E+00  0.88000000000E+00 0. -1.
        -11    1    4    4    0    0  0.25783249706E-01  0.10762166519E+00  0.60832346554E-02  0.11083530867E+00  0.51100000000E-03 0.  1.
         11    1    4    4    0    0  0.26439256598E-03  0.18355022006E-01 -0.60555768669E-02  0.19336697455E-01  0.51100000000E-03 0. -1.
</event>
<event>
 8    1  0.1112929E+005  0.1043930E+01  0.7957747E-01            NaN
         13   -1    0    0    0    0  0.00000000000E+00  0.00000000000E+00  0.74505805969E-08  0.10566000000E+00  0.10566000000E+00 0.  1.
     999900   -1    0    0    0    0 -0.00000000000E+00 -0.00000000000E+00 -0.74505805969E-08  0.93827000000E+00  0.93827000000E+00 0.  1.
     999902    2    1    2    0    0  0.16814876556E-02 -0.18251007646E-01 -0.14165293504E-01  0.10207657556E+01  0.10205028885E+01 0.  0.
     999903    2    3    3    0    0  0.10122323634E+00  0.78189980415E-01 -0.42812570003E-02  0.12986333773E+00  0.22053133841E-01 0.  0.
         14    1    1    2    0    0 -0.16814876556E-02  0.18251007646E-01  0.14165293504E-01  0.23164244449E-01  0.00000000000E+00 0.  1.
     999901    1    3    3    0    0 -0.99541748681E-01 -0.96440988061E-01 -0.98840365033E-02  0.89090241782E+00  0.88000000000E+00 0.  1.
        -11    1    4    4    0    0  0.49070533203E-01  0.44208683469E-01  0.76174672224E-02  0.66487681948E-01  0.51100000000E-03 0. -1.
         11    1    4    4    0    0  0.52152703134E-01  0.33981296946E-01 -0.11898724223E-01  0.63375655779E-01  0.51100000000E-03 0.  1.
</event>
<event>
 8    1  0.1112929E+005  0.1043930E+01  0.7957747E-01            NaN
         13   -1    0    0    0    0  0.00000000000E+00  0.00000000000E+00  0.74505805969E-08  0.10566000000E+00  0.10566000000E+00 0.  1.
     999900   -1    0    0    0    0 -0.00000000000E+00 -0.00000000000E+00 -0.74505805969E-08  0.93827000000E+00  0.93827000000E+00 0. -1.
     999902    2    1    2    0    0  0.86720886950E-02  0.22628409173E-01  0.11629511026E-02  0.10196688690E+01  0.10193802038E+01 0.  0.
     999903    2    3    3    0    0 -0.73832494772E-01  0.89875652269E-01 -0.56735368286E-01  0.13136632287E+00  0.22568531537E-01 0.  0.
         14    1    1    2    0    0 -0.86720886950E-02 -0.22628409173E-01 -0.11629511026E-02  0.24261131039E-01  0.00000000000E+00 0.  1.
     999901    1    3    3    0    0  0.82504583467E-01 -0.67247243095E-01  0.57898319389E-01  0.88830254609E+00  0.88000000000E+00 0.  1.
        -11    1    4    4    0    0 -0.69083378089E-01  0.74013808987E-01 -0.43644455619E-01  0.11025269464E+00  0.51100000000E-03 0.  1.
         11    1    4    4    0    0 -0.47491166833E-02  0.15861843281E-01 -0.13090912667E-01  0.21113628230E-01  0.51100000000E-03 0. -1.
</event>
<event>
 8    1  0.1112929E+005  0.1043930E+01  0.7957747E-01            NaN
         13   -1    0    0    0    0  0.00000000000E+00  0.00000000000E+00  0.74505805969E-08  0.10566000000E+00  0.10566000000E+00 0. -1.
     999900   -1    0    0    0    0 -0.00000000000E+00 -0.00000000000E+00 -0.74505805969E-08  0.93827000000E+00  0.93827000000E+00 0. -1.
     999902    2    1    2    0    0  0.10962952823E-01  0.21213996413E-01  0.45533437217E-02  0.10196204768E+01  0.10193306450E+01 0.  0.
     999903    2    3    3    0    0 -0.12258711950E+00  0.75689360183E-02  0.33781326048E-01  0.12896000029E+00  0.20114995047E-01 0.  0.
         14    1    1    2    0    0 -0.10962952823E-01 -0.21213996413E-01 -0.45533437217E-02  0.24309523184E-01  0.00000000000E+00 0. -1.
     999901    1    3    3    0    0  0.13355007232E+00  0.13645060395E-01 -0.29227982326E-01  0.89066047652E+00  0.88000000000E+00 0.  1.
        -11    1    4    4    0    0 -0.82923510212E-01 -0.16983794231E-02  0.15805509235E-01  0.84434994415E-01  0.51100000000E-03 0.  1.
         11    1    4    4    0    0 -0.39663609289E-01  0.92673154413E-02  0.17975816813E-01  0.44525005877E-01  0.51100000000E-03 0. -1.
</event>
<event>
 7    1  0.1112929E+005  0.1043930E+01  0.7957747E-01            NaN
         13   -1    0    0    0    0  0.00000000000E+00  0.00000000000E+00  0.74505805969E-08  0.10566000000E+00  0.10566000000E+00 0.  1.
     999900   -1    0    0    0    0 -0.00000000000E+00 -0.00000000000E+00 -0.74505805969E-08  0.93827000000E+00  0.93827000000E+00 0.  1.
     999903    2    1    2    0    0  0.85820939792E-01 -0.61827467219E-01 -0.59724446601E-02  0.10782689923E+00  0.20077367702E-01 0.  0.
         14    1    1    2    0    0 -0.99317860603E-02 -0.43917651147E-01 -0.11065194052E-01  0.46366356079E-01  0.00000000000E+00 0.  1.
     999901    1    1    2    0    0 -0.75889153732E-01  0.10574511837E+00  0.17037638712E-01  0.88973674469E+00  0.88000000000E+00 0. -1.
        -11    1    3    3    0    0  0.33179390618E-01 -0.36193098719E-01 -0.32501540463E-02  0.49210130857E-01  0.51100000000E-03 0.  1.
         11    1    3    3    0    0  0.52641549174E-01 -0.25634368500E-01 -0.27222906138E-02  0.58616768378E-01  0.51100000000E-03 0. -1.
</event>
<event>
 8    1  0.1112929E+005  0.1043930E+01  0.7957747E-01            NaN
         13   -1    0    0    0    0  0.00000000000E+00  0.00000000000E+00  0.74505805969E-08  0.10566000000E+00  0.10566000000E+00 0. -1.
     999900   -1    0    0    0    0 -0.00000000000E+00 -0.00000000000E+00 -0.74505805969E-08  0.93827000000E+00  0.93827000000E+00 0. -1.
     999902    2    1    2    0    0  0.17737512297E-01 -0.10090923419E-01 -0.13032870273E-01  0.10197163306E+01  0.10194288073E+01 0.  0.
     999903    2    3    3    0    0 -0.32717894370E-01 -0.12480667770E+00 -0.23615342923E-02  0.13077351481E+00  0.21188863118E-01 0.  0.
         14    1    1    2    0    0 -0.17737512297E-01  0.10090923419E-01  0.13032870273E-01  0.24213669393E-01  0.00000000000E+00 0. -1.
     999901    1    3    3    0    0  0.50455406667E-01  0.11471575429E+00 -0.10671335980E-01  0.88894281580E+00  0.88000000000E+00 0.  1.
        -11    1    4    4    0    0 -0.29133783449E-01 -0.12035469891E+00  0.15282919790E-02  0.12384113891E+00  0.51100000000E-03 0.  1.
         11    1    4    4    0    0 -0.35841109218E-02 -0.44519787922E-02 -0.38898262713E-02  0.69323759049E-02  0.51100000000E-03 0. -1.
</event>
<event>
 8    1  0.1112929E+005  0.1043930E+01  0.7957747E-01            NaN
         13   -1    0    0    0    0  0.00000000000E+00  0.00000000000E+00  0.74505805969E-08  0.10566000000E+00  0.10566000000E+00 0. -1.
     999900   -1    0    0    0    0 -0.00000000000E+00 -0.00000000000E+00 -0.74505805969E-08  0.93827000000E+00  0.93827000000E+00 0.  1.
     999902    2    1    2    0    0  0.15147990979E-01  0.51315160050E-02  0.18263128007E-01  0.10196537579E+01  0.10193647286E+01 0.  0.
     999903    2    3    3    0    0 -0.10372609062E+00 -0.75004053238E-02  0.74336552392E-01  0.12980273572E+00  0.22527077554E-01 0.  0.
         14    1    1    2    0    0 -0.15147990979E-01 -0.51315160050E-02 -0.18263128007E-01  0.24276242127E-01  0.00000000000E+00 0.  1.
     999901    1    3    3    0    0  0.11887408160E+00  0.12631921329E-01 -0.56073424385E-01  0.88985102216E+00  0.88000000000E+00 0. -1.
        -11    1    4    4    0    0 -0.56639052165E-01 -0.79827086204E-02  0.27810578818E-01  0.63603421938E-01  0.51100000000E-03 0. -1.
         11    1    4    4    0    0 -0.47087038452E-01  0.48230329659E-03  0.46525973574E-01  0.66199313778E-01  0.51100000000E-03 0.  1.
</event>
<event>
 8    1  0.1112929E+005  0.1043930E+01  0.7957747E-01            NaN
         13   -1    0    0    0    0  0.00000000000E+00  0.00000000000E+00  0.74505805969E-08  0.10566000000E+00  0.10566000000E+00 0. -1.
     999900   -1    0    0    0    0 -0.00000000000E+00 -0.00000000000E+00 -0.74505805969E-08  0.93827000000E+00  0.93827000000E+00 0.  1.
     999902    2    1    2    0    0  0.10400927771E-01  0.69570070353E-02 -0.21022710063E-01  0.10194650540E+01  0.10191714589E+01 0.  0.
     999903    2    3    3    0    0  0.92924437848E-01  0.63318494893E-01 -0.67377807502E-01  0.13259666347E+00  0.19948014295E-01 0.  0.
         14    1    1    2    0    0 -0.10400927771E-01 -0.69570070353E-02  0.21022710063E-01  0.24464946020E-01  0.00000000000E+00 0. -1.
     999901    1    3    3    0    0 -0.82523510077E-01 -0.56361487858E-01  0.46355097439E-01  0.88686839051E+00  0.88000000000E+00 0. -1.
        -11    1    4    4    0    0  0.49400126860E-01  0.42221758663E-01 -0.46517055326E-01  0.79919628350E-01  0.51100000000E-03 0.  1.
         11    1    4    4    0    0  0.43524310988E-01  0.21096736231E-01 -0.20860752176E-01  0.52677035119E-01  0.51100000000E-03 0. -1.
</event>
<event>
 8    1  0.1112929E+005  0.1043930E+01  0.7957747E-01            NaN
         13   -1    0    0    0    0  0.00000000000E+00  0.00000000000E+00  0.74505805969E-08  0.10566000000E+00  0.10566000000E+00 0. -1.
     999900   -1    0    0    0    0 -0.00000000000E+00 -0.00000000000E+00 -0.74505805969E-08  0.93827000000E+00  0.93827000000E+00 0. -1.
     999902    2    1    2    0    0 -0.92369593039E-02 -0.15866571406E-01 -0.14074492129E-01  0.10207964565E+01  0.10205342938E+01 0.  0.
     999903    2    3    3    0    0 -0.10630741561E-01  0.58330234635E-01 -0.11628878306E+00  0.13177740727E+00  0.18076920679E-01 0.  0.
         14    1    1    2    0    0  0.92369593039E-02  0.15866571406E-01  0.14074492129E-01  0.23133543483E-01  0.00000000000E+00 0. -1.
     999901    1    3    3    0    0  0.13937822574E-02 -0.74196806041E-01  0.10221429093E+00  0.88901904925E+00  0.88000000000E+00 0.  1.
        -11    1    4    4    0    0 -0.47924727534E-02  0.54506035157E-01 -0.98801405349E-01  0.11294181902E+00  0.51100000000E-03 0. -1.
         11    1    4    4    0    0 -0.58382688079E-02  0.38241994776E-02 -0.17487377715E-01  0.18835588249E-01  0.51100000000E-03 0.  1.
</event>
<event>
 8    1  0.1112929E+005  0.1043930E+01  0.7957747E-01            NaN
         13   -1    0    0    0    0  0.00000000000E+00  0.00000000000E+00  0.74505805969E-08  0.10566000000E+00  0.10566000000E+00 0.  1.
     999900   -1    0    0    0    0 -0.00000000000E+00 -0.00000000000E+00 -0.74505805969E-08  0.93827000000E+00  0.93827000000E+00 0. -1.
     999902    2    1    2    0    0 -0.23040096784E-01  0.38221667766E-03  0.49620422082E-03  0.10208813912E+01  0.10206211719E+01 0.  0.
     999903    2    3    3    0    0 -0.88803884797E-02  0.55160655219E-01 -0.11702999262E+00  0.13126710308E+00  0.20334059939E-01 0.  0.
         14    1    1    2    0    0  0.23040096784E-01 -0.38221667766E-03 -0.49620422082E-03  0.23048608809E-01  0.00000000000E+00 0. -1.
     999901    1    3    3    0    0 -0.14159708304E-01 -0.54778438541E-01  0.11752619684E+00  0.88961428811E+00  0.88000000000E+00 0.  1.
        -11    1    4    4    0    0  0.56626983281E-03  0.26258645378E-01 -0.74400430537E-01  0.78901979086E-01  0.51100000000E-03 0.  1.
         11    1    4    4    0    0 -0.94466583125E-02  0.28902009841E-01 -0.42629562086E-01  0.52365123993E-01  0.51100000000E-03 0. -1.
</event>
<event>
 8    1  0.1112929E+005  0.1043930E+01  0.7957747E-01            NaN
         13   -1    0    0    0    0  0.00000000000E+00  0.00000000000E+00  0.74505805969E-08  0.10566000000E+00  0.10566000000E+00 0. -1.
     999900   -1    0    0    0    0 -0.00000000000E+00 -0.00000000000E+00 -0.74505805969E-08  0.93827000000E+00  0.93827000000E+00 0.  1.
     999902    2    1    2    0    0  0.50259637244E-02 -0.13963357784E-01  0.20216708203E-01  0.10188511052E+01  0.10185424015E+01 0.  0.
     999903    2    3    3    0    0 -0.11169902021E+00 -0.62874405133E-01  0.24492200223E-02  0.12961958529E+00  0.19114818236E-01 0.  0.
         14    1    1    2    0    0 -0.50259637244E-02  0.13963357784E-01 -0.20216708203E-01  0.25078894763E-01  0.00000000000E+00 0.  1.
     999901    1    3    3    0    0  0.11672498393E+00  0.48911047349E-01  0.17767488181E-01  0.88923151994E+00  0.88000000000E+00 0. -1.
        -11    1    4    4    0    0 -0.45878228755E-01 -0.26984315020E-01  0.10376599099E-01  0.54230066021E-01  0.51100000000E-03 0. -1.
         11    1    4    4    0    0 -0.65820791454E-01 -0.35890090113E-01 -0.79273790765E-02  0.75389519271E-01  0.51100000000E-03 0.  1.
</event>
<event>
 8    1  0.1112929E+005  0.1043930E+01  0.7957747E-01            NaN
         13   -1    0    0    0    0  0.00000000000E+00  0.00000000000E+00  0.74505805969E-08  0.10566000000E+00  0.10566000000E+00 0. -1.
     999900   -1    0    0    0    0 -0.00000000000E+00 -0.00000000000E+00 -0.74505805969E-08  0.93827000000E+00  0.93827000000E+00 0.  1.
     999902    2    1    2    0    0  0.15887394257E-01 -0.17040655520E-01 -0.38403753947E-02  0.10203176786E+01  0.10200444224E+01 0.  0.
     999903    2    3    3    0    0  0.10736148986E+00  0.66163478967E-01 -0.28915646948E-01  0.13131868685E+00  0.22458571279E-01 0.  0.
         14    1    1    2    0    0 -0.15887394257E-01  0.17040655520E-01  0.38403753947E-02  0.23612321360E-01  0.00000000000E+00 0.  1.
     999901    1    3    3    0    0 -0.91474095600E-01 -0.83204134487E-01  0.25075271553E-01  0.88899899179E+00  0.88000000000E+00 0. -1.
        -11    1    4    4    0    0  0.55490967824E-01  0.41998910755E-01 -0.25039946342E-01  0.73962260975E-01  0.51100000000E-03 0. -1.
         11    1    4    4    0    0  0.51870522033E-01  0.24164568212E-01 -0.38757006056E-02  0.57356425874E-01  0.51100000000E-03 0.  1.
</event>
<event>
 8    1  0.1112929E+005  0.1043930E+01  0.7957747E-01            NaN
         13   -1    0    0    0    0  0.00000000000E+00  0.00000000000E+00  0.74505805969E-08  0.10566000000E+00  0.10566000000E+00 0. -1.
     999900   -1    0    0    0    0 -0.00000000000E+00 -0.00000000000E+00 -0.74505805969E-08  0.93827000000E+00  0.93827000000E+00 0. -1.
     999902    2    1    2    0    0 -0.50994669495E-02 -0.21846988721E-01 -0.55704806047E-02  0.10208145131E+01  0.10205527642E+01 0.  0.
     999903    2    3    3    0    0  0.17548697243E-01  0.10817669145E+00 -0.65179682840E-01  0.12897800695E+00  0.19410870012E-01 0.  0.
         14    1    1    2    0    0  0.50994669495E-02  0.21846988721E-01  0.55704806047E-02  0.23115486876E-01  0.00000000000E+00 0. -1.
     999901    1    3    3    0    0 -0.22648164192E-01 -0.13002368017E+00  0.59609202236E-01  0.89183650617E+00  0.88000000000E+00 0.  1.
        -11    1    4    4    0    0  0.17561282788E-01  0.67075034574E-01 -0.48506547309E-01  0.84620359070E-01  0.51100000000E-03 0.  1.
         11    1    4    4    0    0 -0.12585545169E-04  0.41101656877E-01 -0.16673135531E-01  0.44357647884E-01  0.51100000000E-03 0. -1.
</event>
<event>
 8    1  0.1112929E+005  0.1043930E+01  0.7957747E-01            NaN
         13   -1    0    0    0    0  0.00000000000E+00  0.00000000000E+00  0.74505805969E-08  0.10566000000E+00  0.10566000000E+00 0. -1.
     999900   -1    0    0    0    0 -0.00000000000E+00 -0.00000000000E+00 -0.74505805969E-08  0.93827000000E+00  0.93827000000E+00 0. -1.
     999902    2    1    2    0    0 -0.65729568777E-02 -0.15470197783E-01 -0.16538760671E-01  0.10203490461E+01  0.10200765239E+01 0.  0.
     999903    2    3    3    0    0 -0.36022006710E-01 -0.58412717526E-01  0.10853686976E+00  0.12998102116E+00  0.20129163612E-01 0.  0.
         14    1    1    2    0    0  0.65729568777E-02  0.15470197783E-01  0.16538760671E-01  0.23580953884E-01  0.00000000000E+00 0. -1.
     999901    1    3    3    0    0  0.29449049832E-01  0.42942519743E-01 -0.12507563043E+00  0.89036802496E+00  0.88000000000E+00 0. -1.
        -11    1    4    4    0    0 -0.23648276841E-01 -0.41478283770E-01  0.57121573445E-01  0.74450146379E-01  0.51100000000E-03 0.  1.
         11    1    4    4    0    0 -0.12373729869E-01 -0.16934433757E-01  0.51415296317E-01  0.55530874780E-01  0.51100000000E-03 0. -1.
</event>
<event>
 8    1  0.1112929E+005  0.1043930E+01  0.7957747E-01            NaN
         13   -1    0    0    0    0  0.00000000000E+00  0.00000000000E+00  0.74505805969E-08  0.10566000000E+00  0.10566000000E+00 0.  1.
     999900   -1    0    0    0    0 -0.00000000000E+00 -0.00000000000E+00 -0.74505805969E-08  0.93827000000E+00  0.93827000000E+00 0.  1.
     999902    2    1    2    0    0 -0.19473443620E-02 -0.23205389649E-01 -0.44557979008E-02  0.10202205843E+01  0.10199450496E+01 0.  0.
     999903    2    3    3    0    0  0.30822320028E-01  0.26657117991E-01  0.12099045511E+00  0.12932391072E+00  0.20624410368E-01 0.  0.
         14    1    1    2    0    0  0.19473443620E-02  0.23205389649E-01  0.44557979008E-02  0.23709415720E-01  0.00000000000E+00 0.  1.
     999901    1    3    3    0    0 -0.32769664390E-01 -0.49862507640E-01 -0.12544625301E+00  0.89089667356E+00  0.88000000000E+00 0.  1.
        -11    1    4    4    0    0  0.31665309098E-01  0.17096184811E-01  0.92423897513E-01  0.99183714832E-01  0.51100000000E-03 0. -1.
         11    1    4    4    0    0 -0.84298907000E-03  0.95609331794E-02  0.28566557600E-01  0.30140195884E-01  0.51100000000E-03 0.  1.
</event>
<event>
 8    1  0.1112929E+005  0.1043930E+01  0.7957747E-01            NaN
         13   -1    0    0    0    0  0.00000000000E+00  0.00000000000E+00  0.74505805969E-08  0.10566000000E+00  0.10566000000E+00 0.  1.
     999900   -1    0    0    0    0 -0.00000000000E+00 -0.00000000000E+00 -0.74505805969E-08  0.93827000000E+00  0.93827000000E+00 0. -1.
     999902    2    1    2    0    0  0.13378162875E-01 -0.19422251195E-01 -0.26811368584E-03  0.10203446026E+01  0.10200719765E+01 0.  0.
     999903    2    3    3    0    0  0.28905084298E-01  0.98337514138E-01 -0.76037684390E-01  0.12913785028E+00  0.19725220966E-01 0.  0.
         14    1    1    2    0    0 -0.13378162875E-01  0.19422251195E-01  0.26811368584E-03  0.23585397354E-01  0.00000000000E+00 0. -1.
     999901    1    3    3    0    0 -0.15526921422E-01 -0.11775976533E+00  0.75769570704E-01  0.89120675237E+00  0.88000000000E+00 0.  1.
        -11    1    4    4    0    0  0.18266546288E-01  0.76687445384E-01 -0.66701112327E-01  0.10326630864E+00  0.51100000000E-03 0.  1.
         11    1    4    4    0    0  0.10638538010E-01  0.21650068754E-01 -0.93365720625E-02  0.25871541642E-01  0.51100000000E-03 0. -1.
</event>
<event>
 8    1  0.1112929E+005  0.1043930E+01  0.7957747E-01            NaN
         13   -1    0    0    0    0  0.00000000000E+00  0.00000000000E+00  0.74505805969E-08  0.10566000000E+00  0.10566000000E+00 0.  1.
     999900   -1    0    0    0    0 -0.00000000000E+00 -0.00000000000E+00 -0.74505805969E-08  0.93827000000E+00  0.93827000000E+00 0.  1.
     999902    2    1    2    0    0 -0.12979496918E-02 -0.66736070021E-02 -0.28352500541E-01  0.10147737658E+01  0.10143548244E+01 0.  0.
     999903    2    3    3    0    0  0.32442050461E-01 -0.10222424984E+00  0.60468564055E-01  0.12451678357E+00  0.18592962616E-01 0.  0.
         14    1    1    2    0    0  0.12979496918E-02  0.66736070021E-02  0.28352500541E-01  0.29156234166E-01  0.00000000000E+00 0.  1.
     999901    1    3    3    0    0 -0.33740000153E-01  0.95550642834E-01 -0.88821064595E-01  0.89025698227E+00  0.88000000000E+00 0.  1.
        -11    1    4    4    0    0  0.20374412137E-01 -0.86560145445E-01  0.51864058008E-01  0.10294618538E+00  0.51100000000E-03 0.  1.
         11    1    4    4    0    0  0.12067638325E-01 -0.15664104391E-01  0.86045060472E-02  0.21570598194E-01  0.51100000000E-03 0. -1.
</event>
<event>
 8    1  0.1112929E+005  0.1043930E+01  0.7957747E-01            NaN
         13   -1    0    0    0    0  0.00000000000E+00  0.00000000000E+00  0.74505805969E-08  0.10566000000E+00  0.10566000000E+00 0.  1.
     999900   -1    0    0    0    0 -0.00000000000E+00 -0.00000000000E+00 -0.74505805969E-08  0.93827000000E+00  0.93827000000E+00 0. -1.
     999902    2    1    2    0    0 -0.19862532869E-01 -0.26467079077E-02 -0.11958129644E-01  0.10205950018E+01  0.10203282000E+01 0.  0.
     999903    2    3    3    0    0  0.94988525787E-01 -0.81569085698E-01 -0.26480838722E-01  0.12951115815E+00  0.19888928939E-01 0.  0.
         14    1    1    2    0    0  0.19862532869E-01  0.26467079077E-02  0.11958129644E-01  0.23334998164E-01  0.00000000000E+00 0. -1.
     999901    1    3    3    0    0 -0.11485105866E+00  0.78922377790E-01  0.14522709078E-01  0.89108384368E+00  0.88000000000E+00 0.  1.
        -11    1    4    4    0    0  0.38033081998E-01 -0.43762964177E-01 -0.17468470210E-01  0.60556757940E-01  0.51100000000E-03 0.  1.
         11    1    4    4    0    0  0.56955443789E-01 -0.37806121521E-01 -0.90123685126E-02  0.68954400214E-01  0.51100000000E-03 0. -1.
</event>
<event>
 8    1  0.1112929E+005  0.1043930E+01  0.7957747E-01            NaN
         13   -1    0    0    0    0  0.00000000000E+00  0.00000000000E+00  0.74505805969E-08  0.10566000000E+00  0.10566000000E+00 0.  1.
     999900   -1    0    0    0    0 -0.00000000000E+00 -0.00000000000E+00 -0.74505805969E-08  0.93827000000E+00  0.93827000000E+00 0.  1.
     999902    2    1    2    0    0  0.15690769241E-01 -0.45475668064E-02 -0.19070168745E-01  0.10188192067E+01  0.10185097074E+01 0.  0.
     999903    2    3    3    0    0 -0.18129799897E-01  0.10600569120E+00  0.65161891422E-01  0.12726949206E+00  0.19635562197E-01 0.  0.
         14    1    1    2    0    0 -0.15690769241E-01  0.45475668064E-02  0.19070168745E-01  0.25110793281E-01  0.00000000000E+00 0.  1.
     999901    1    3    3    0    0  0.33820569138E-01 -0.11055325801E+00 -0.84232060167E-01  0.89154971466E+00  0.88000000000E+00 0.  1.
        -11    1    4    4    0    0  0.64165419898E-03  0.49476031413E-01  0.34056899176E-01  0.60070149883E-01  0.51100000000E-03 0. -1.
         11    1    4    4    0    0 -0.18771454096E-01  0.56529659792E-01  0.31104992245E-01  0.67199342174E-01  0.51100000000E-03 0.  1.
</event>
<event>
 8    1  0.1112929E+005  0.1043930E+01  0.7957747E-01            NaN
         13   -1    0    0    0    0  0.00000000000E+00  0.00000000000E+00  0.74505805969E-08  0.10566000000E+00  0.10566000000E+00 0.  1.
     999900   -1    0    0    0    0 -0.00000000000E+00 -0.00000000000E+00 -0.74505805969E-08  0.93827000000E+00  0.93827000000E+00 0.  1.
     999902    2    1    2    0    0 -0.30211727928E-02  0.11815658374E-01 -0.20155521797E-01  0.10203719371E+01  0.10200999499E+01 0.  0.
     999903    2    3    3    0    0  0.87249567780E-01  0.30816228178E-02 -0.97365815776E-01  0.13234799629E+00  0.20344693760E-01 0.  0.
         14    1    1    2    0    0  0.30211727928E-02 -0.11815658374E-01  0.20155521797E-01  0.23558062882E-01  0.00000000000E+00 0.  1.
     999901    1    3    3    0    0 -0.90270740573E-01  0.87340355566E-02  0.77210293979E-01  0.88802394082E+00  0.88000000000E+00 0. -1.
        -11    1    4    4    0    0  0.68586863693E-01  0.81589089905E-02 -0.66254509150E-01  0.95711267732E-01  0.51100000000E-03 0. -1.
         11    1    4    4    0    0  0.18662704087E-01 -0.50772861727E-02 -0.31111306626E-01  0.36636728562E-01  0.51100000000E-03 0.  1.
</event>
<event>
 8    1  0.1112929E+005  0.1043930E+01  0.7957747E-01            NaN
         13   -1    0    0    0    0  0.00000000000E+00  0.00000000000E+00  0.74505805969E-08  0.10566000000E+00  0.10566000000E+00 0. -1.
     999900   -1    0    0    0    0 -0.00000000000E+00 -0.00000000000E+00 -0.74505805969E-08  0.93827000000E+00  0.93827000000E+00 0.  1.
     999902    2    1    2    0    0  0.20114057835E-01 -0.11748942577E-01  0.55412849920E-02  0.10199859232E+01  0.10197048420E+01 0.  0.
     999903    2    3    3    0    0 -0.51579758063E-01 -0.10456544684E+00  0.55686188988E-01  0.13078998411E+00  0.20264850999E-01 0.  0.
         14    1    1    2    0    0 -0.20114057835E-01  0.11748942577E-01 -0.55412849920E-02  0.23944076797E-01  0.00000000000E+00 0. -1.
     999901    1    3    3    0    0  0.71693815898E-01  0.92816504258E-01 -0.50144903996E-01  0.88919593909E+00  0.88000000000E+00 0.  1.
        -11    1    4    4    0    0 -0.20115238648E-01 -0.29633373314E-01  0.85028255308E-02  0.36814654730E-01  0.51100000000E-03 0. -1.
         11    1    4    4    0    0 -0.31464519415E-01 -0.74932073521E-01  0.47183363457E-01  0.93975329381E-01  0.51100000000E-03 0.  1.
</event>
<event>
 8    1  0.1112929E+005  0.1043930E+01  0.7957747E-01            NaN
         13   -1    0    0    0    0  0.00000000000E+00  0.00000000000E+00  0.74505805969E-08  0.10566000000E+00  0.10566000000E+00 0. -1.
     999900   -1    0    0    0    0 -0.00000000000E+00 -0.00000000000E+00 -0.74505805969E-08  0.93827000000E+00  0.93827000000E+00 0.  1.
     999902    2    1    2    0    0 -0.18451172550E-01  0.31186646198E-02  0.15101858958E-01  0.10198834206E+01  0.10195998988E+01 0.  0.
     999903    2    3    3    0    0 -0.45882542544E-01  0.58969708503E-01  0.10789182999E+00  0.13281983894E+00  0.20440851375E-01 0.  0.
         14    1    1    2    0    0  0.18451172550E-01 -0.31186646198E-02 -0.15101858958E-01  0.24046579414E-01  0.00000000000E+00 0.  1.
     999901    1    3    3    0    0  0.27431369994E-01 -0.55851043884E-01 -0.92789971035E-01  0.88706358165E+00  0.88000000000E+00 0.  1.
        -11    1    4    4    0    0 -0.20213179417E-01  0.37503541236E-01  0.72633099766E-01  0.84207580003E-01  0.51100000000E-03 0. -1.
         11    1    4    4    0    0 -0.25669363127E-01  0.21466167267E-01  0.35258730227E-01  0.48612258935E-01  0.51100000000E-03 0.  1.
</event>
<event>
 8    1  0.1112929E+005  0.1043930E+01  0.7957747E-01            NaN
         13   -1    0    0    0    0  0.00000000000E+00  0.00000000000E+00  0.74505805969E-08  0.10566000000E+00  0.10566000000E+00 0. -1.
     999900   -1    0    0    0    0 -0.00000000000E+00 -0.00000000000E+00 -0.74505805969E-08  0.93827000000E+00  0.93827000000E+00 0. -1.
     999902    2    1    2    0    0 -0.63233603747E-02 -0.10002604803E-01 -0.19971777485E-01  0.10207155888E+01  0.10204515689E+01 0.  0.
     999903    2    3    3    0    0  0.73314601243E-02 -0.11663665941E+00 -0.60890119078E-01  0.13322948394E+00  0.19611939308E-01 0.  0.
         14    1    1    2    0    0  0.63233603747E-02  0.10002604803E-01  0.19971777485E-01  0.23214411153E-01  0.00000000000E+00 0. -1.
     999901    1    3    3    0    0 -0.13654820499E-01  0.10663405461E+00  0.40918341594E-01  0.88748610491E+00  0.88000000000E+00 0.  1.
        -11    1    4    4    0    0  0.12607678725E-01 -0.10447575560E+00 -0.54100715982E-01  0.11832702845E+00  0.51100000000E-03 0. -1.
         11    1    4    4    0    0 -0.52762186010E-02 -0.12160903810E-01 -0.67894030957E-02  0.14902455489E-01  0.51100000000E-03 0.  1.
</event>
<event>
 8    1  0.1112929E+005  0.1043930E+01  0.7957747E-01            NaN
         13   -1    0    0    0    0  0.00000000000E+00  0.00000000000E+00  0.74505805969E-08  0.10566000000E+00  0.10566000000E+00 0. -1.
     999900   -1    0    0    0    0 -0.00000000000E+00 -0.00000000000E+00 -0.74505805969E-08  0.93827000000E+00  0.93827000000E+00 0.  1.
     999902    2    1    2    0    0 -0.15744941596E-01 -0.17194065157E-01 -0.92738656090E-03  0.10205976382E+01  0.10203308973E+01 0.  0.
     999903    2    3    3    0    0 -0.10327471349E+00  0.62985569895E-01  0.47650111921E-01  0.13130015802E+00  0.18339843803E-01 0.  0.
         14    1    1    2    0    0  0.15744941596E-01  0.17194065157E-01  0.92738656090E-03  0.23332361824E-01  0.00000000000E+00 0.  1.
     999901    1    3    3    0    0  0.87529771889E-01 -0.80179635052E-01 -0.48577498482E-01  0.88929748015E+00  0.88000000000E+00 0. -1.
        -11    1    4    4    0    0 -0.51146761127E-01  0.31535887984E-01  0.33492739182E-01  0.68793372528E-01  0.51100000000E-03 0. -1.
         11    1    4    4    0    0 -0.52127952358E-01  0.31449681911E-01  0.14157372739E-01  0.62506785497E-01  0.51100000000E-03 0.  1.
</event>
<event>
 8    1  0.1112929E+005  0.1043930E+01  0.7957747E-01            NaN
         13   -1    0    0    0    0  0.00000000000E+00  0.00000000000E+00  0.74505805969E-08  0.10566000000E+00  0.10566000000E+00 0. -1.
     999900   -1    0    0    0    0 -0.00000000000E+00 -0.00000000000E+00 -0.74505805969E-08  0.93827000000E+00  0.93827000000E+00 0.  1.
     999902    2    1    2    0    0  0.15209778006E-01  0.17535543120E-01 -0.38089760171E-02  0.10204068004E+01  0.10201356270E+01 0.  0.
     999903    2    3    3    0    0  0.54091726426E-02 -0.10553470726E+00  0.70444232241E-01  0.12869166805E+00  0.20792353983E-01 0.  0.
         14    1    1    2    0    0 -0.15209778006E-01 -0.17535543120E-01  0.38089760171E-02  0.23523199566E-01  0.00000000000E+00 0. -1.
     999901    1    3    3    0    0  0.98006053637E-02  0.12307025038E+00 -0.74253208259E-01  0.89171513239E+00  0.88000000000E+00 0.  1.
        -11    1    4    4    0    0  0.33502818100E-02 -0.38434806505E-01  0.37905323167E-01  0.54088200050E-01  0.51100000000E-03 0.  1.
         11    1    4    4    0    0  0.20588908326E-02 -0.67099900751E-01  0.32538909074E-01  0.74603467996E-01  0.51100000000E-03 0. -1.
</event>
<event>
 8    1  0.1112929E+005  0.1043930E+01  0.7957747E-01            NaN
         13   -1    0    0    0    0  0.00000000000E+00  0.00000000000E+00  0.74505805969E-08  0.10566000000E+00  0.10566000000E+00 0. -1.
     999900   -1    0    0    0    0 -0.00000000000E+00 -0.00000000000E+00 -0.74505805969E-08  0.93827000000E+00  0.93827000000E+00 0.  1.
     999902    2    1    2    0    0 -0.62529064155E-02  0.23882052543E-01  0.44331507622E-02  0.10188480523E+01  0.10185392725E+01 0.  0.
     999903    2    3    3    0    0 -0.35022105190E-01 -0.33130116744E-01 -0.11709368354E+00  0.12820400128E+00  0.20029546485E-01 0.  0.
         14    1    1    2    0    0  0.62529064155E-02 -0.23882052543E-01 -0.44331507622E-02  0.25081947651E-01  0.00000000000E+00 0.  1.
     999901    1    3    3    0    0  0.28769198775E-01  0.57012169287E-01  0.12152683430E+00  0.89064405107E+00  0.88000000000E+00 0. -1.
        -11    1    4    4    0    0 -0.16324355518E-01 -0.23583079466E-01 -0.86204734832E-01  0.90852427863E-01  0.51100000000E-03 0. -1.
         11    1    4    4    0    0 -0.18697749672E-01 -0.95470372783E-02 -0.30888948708E-01  0.37351573419E-01  0.51100000000E-03 0.  1.
</event>
<event>
 7    1  0.1112929E+005  0.1043930E+01  0.7957747E-01            NaN
         13   -1    0    0    0    0  0.00000000000E+00  0.00000000000E+00  0.74505805969E-08  0.10566000000E+00  0.10566000000E+00 0. -1.
     999900   -1    0    0    0    0 -0.00000000000E+00 -0.00000000000E+00 -0.74505805969E-08  0.93827000000E+00  0.93827000000E+00 0.  1.
     999903    2    1    2    0    0  0.47126238328E-01 -0.52251898847E-01 -0.90623545902E-01  0.11646853867E+00  0.20028733272E-01 0.  0.
         14    1    1    2    0    0 -0.56526632755E-02  0.27815047678E-01 -0.25964107538E-01  0.38467705412E-01  0.00000000000E+00 0.  1.
     999901    1    1    2    0    0 -0.41473575053E-01  0.24436851170E-01  0.11658765344E+00  0.88899375592E+00  0.88000000000E+00 0. -1.
        -11    1    3    3    0    0  0.26371230009E-01 -0.41725433247E-01 -0.54885257646E-01  0.73818061338E-01  0.51100000000E-03 0. -1.
         11    1    3    3    0    0  0.20755008319E-01 -0.10526465600E-01 -0.35738288257E-01  0.42650477335E-01  0.51100000000E-03 0.  1.
</event>
<event>
 8    1  0.1145812E+005  0.1043930E+01  0.7957747E-01            NaN
         13   -1    0    0    0    0  0.00000000000E+00  0.00000000000E+00  0.74505805969E-08  0.10566000000E+00  0.10566000000E+00 0.  1.
     999900   -1    0    0    0    0 -0.00000000000E+00 -0.00000000000E+00 -0.74505805969E-08  0.93827000000E+00  0.93827000000E+00 0.  1.
     999902    2    1    2    0    0  0.21332842962E-01 -0.80253716516E-02 -0.75975370175E-02  0.10199046104E+01  0.10196215940E+01 0.  0.
     999903    2    3    3    0    0  0.11489247212E+00  0.46596996474E-01 -0.42353834814E-01  0.13257997554E+00  0.20298826560E-01 0.  0.
         14    1    1    2    0    0 -0.21332842962E-01  0.80253716516E-02  0.75975370175E-02  0.24025389648E-01  0.00000000000E+00 0.  1.
     999901    1    3    3    0    0 -0.93559629160E-01 -0.54622368125E-01  0.34756297797E-01  0.88732463481E+00  0.88000000000E+00 0. -1.
        -11    1    4    4    0    0  0.63032500892E-01  0.14855316818E-01 -0.23997106423E-01  0.69064454273E-01  0.51100000000E-03 0. -1.
         11    1    4    4    0    0  0.51859971231E-01  0.31741679656E-01 -0.18356728392E-01  0.63515521266E-01  0.51100000000E-03 0.  1.
</event>
<event>
 7    1  0.1112929E+005  0.1043930E+01  0.7957747E-01            NaN
         13   -1    0    0    0    0  0.00000000000E+00  0.00000000000E+00  0.74505805969E-08  0.10566000000E+00  0.10566000000E+00 0.  1.
     999900   -1    0    0    0    0 -0.00000000000E+00 -0.00000000000E+00 -0.74505805969E-08  0.93827000000E+00  0.93827000000E+00 0.  1.
     999903    2    1    2    0    0  0.13541931611E-01 -0.74590077348E-01  0.87109270856E-02  0.79035082102E-01  0.20581554890E-01 0.  0.
         14    1    1    2    0    0 -0.32064004998E-02 -0.31662347201E-01 -0.69419904512E-01  0.76366932483E-01  0.00000000000E+00 0. -1.
     999901    1    1    2    0    0 -0.10335531111E-01  0.10625242455E+00  0.60708977426E-01  0.88852798542E+00  0.88000000000E+00 0. -1.
        -11    1    3    3    0    0  0.17181088764E-01 -0.37926705116E-01  0.62440986365E-02  0.42105518176E-01  0.51100000000E-03 0. -1.
         11    1    3    3    0    0 -0.36391571528E-02 -0.36663372232E-01  0.24668284491E-02  0.36929563927E-01  0.51100000000E-03 0.  1.
</event>
<event>
 8    1  0.1112929E+005  0.1043930E+01  0.7957747E-01            NaN
         13   -1    0    0    0    0  0.00000000000E+00  0.00000000000E+00  0.74505805969E-08  0.10566000000E+00  0.10566000000E+00 0.  1.
     999900   -1    0    0    0    0 -0.00000000000E+00 -0.00000000000E+00 -0.74505805969E-08  0.93827000000E+00  0.93827000000E+00 0. -1.
     999902    2    1    2    0    0 -0.23901224020E-02 -0.11173416124E-01  0.20980699718E-01  0.10200396741E+01  0.10197598683E+01 0.  0.
     999903    2    3    3    0    0  0.92745125854E-01 -0.60572853009E-01  0.69339803994E-01  0.13221670590E+00  0.20062901322E-01 0.  0.
         14    1    1    2    0    0  0.23901224020E-02  0.11173416124E-01 -0.20980699718E-01  0.23890325942E-01  0.00000000000E+00 0. -1.
     999901    1    3    3    0    0 -0.95135248256E-01  0.49399436885E-01 -0.48359104276E-01  0.88782296816E+00  0.88000000000E+00 0.  1.
        -11    1    4    4    0    0  0.81580602108E-01 -0.48731666420E-01  0.65709745141E-01  0.11553441773E+00  0.51100000000E-03 0.  1.
         11    1    4    4    0    0  0.11164523746E-01 -0.11841186589E-01  0.36300588525E-02  0.16682288170E-01  0.51100000000E-03 0. -1.
</event>
<event>
 8    1  0.1112929E+005  0.1043930E+01  0.7957747E-01            NaN
         13   -1    0    0    0    0  0.00000000000E+00  0.00000000000E+00  0.74505805969E-08  0.10566000000E+00  0.10566000000E+00 0.  1.
     999900   -1    0    0    0    0 -0.00000000000E+00 -0.00000000000E+00 -0.74505805969E-08  0.93827000000E+00  0.93827000000E+00 0.  1.
     999902    2    1    2    0    0 -0.20495701626E-01  0.66332882470E-02  0.10073828564E-01  0.10201485720E+01  0.10198713412E+01 0.  0.
     999903    2    3    3    0    0  0.65772390657E-01  0.32559752222E-01 -0.10311483829E+00  0.12833803177E+00  0.21256426896E-01 0.  0.
         14    1    1    2    0    0  0.20495701626E-01 -0.66332882470E-02 -0.10073828564E-01  0.23781428049E-01  0.00000000000E+00 0. -1.
     999901    1    3    3    0    0 -0.86268092283E-01 -0.25926463975E-01  0.11318866686E+00  0.89181054018E+00  0.88000000000E+00 0. -1.
        -11    1    4    4    0    0  0.53959065031E-02  0.94897986003E-02 -0.89584084309E-02  0.14131039844E-01  0.51100000000E-03 0.  1.
         11    1    4    4    0    0  0.60376484154E-01  0.23069953622E-01 -0.94156429860E-01  0.11420699192E+00  0.51100000000E-03 0. -1.
</event>
<event>
 8    1  0.1112929E+005  0.1043930E+01  0.7957747E-01            NaN
         13   -1    0    0    0    0  0.00000000000E+00  0.00000000000E+00  0.74505805969E-08  0.10566000000E+00  0.10566000000E+00 0. -1.
     999900   -1    0    0    0    0 -0.00000000000E+00 -0.00000000000E+00 -0.74505805969E-08  0.93827000000E+00  0.93827000000E+00 0.  1.
     999902    2    1    2    0    0 -0.66024529292E-02  0.90912075742E-02 -0.19986245678E-01  0.10210020159E+01  0.10207445439E+01 0.  0.
     999903    2    3    3    0    0  0.43836274022E-01 -0.11912711136E+00 -0.20314388863E-01  0.13028089781E+00  0.21155386041E-01 0.  0.
         14    1    1    2    0    0  0.66024529292E-02 -0.90912075742E-02  0.19986245678E-01  0.22927984127E-01  0.00000000000E+00 0. -1.
     999901    1    3    3    0    0 -0.50438726951E-01  0.12821831893E+00  0.32814318528E-03  0.89072111806E+00  0.88000000000E+00 0.  1.
        -11    1    4    4    0    0  0.96050758574E-02 -0.20884857312E-01  0.42523150349E-02  0.23383285725E-01  0.51100000000E-03 0.  1.
         11    1    4    4    0    0  0.34231198164E-01 -0.98242254046E-01 -0.24566703898E-01  0.10689761208E+00  0.51100000000E-03 0. -1.
</event>
<event>
 8    1  0.1112929E+005  0.1043930E+01  0.7957747E-01            NaN
         13   -1    0    0    0    0  0.00000000000E+00  0.00000000000E+00  0.74505805969E-08  0.10566000000E+00  0.10566000000E+00 0. -1.
     999900   -1    0    0    0    0 -0.00000000000E+00 -0.00000000000E+00 -0.74505805969E-08  0.93827000000E+00  0.93827000000E+00 0.  1.
     999902    2    1    2    0    0 -0.68033054001E-02 -0.23290321349E-01  0.52851280410E-02  0.10190974284E+01  0.10187948331E+01 0.  0.
     999903    2    3    3    0    0  0.68600680677E-01 -0.33274727892E-01  0.10442694796E+00  0.13026980174E+00  0.15873653662E-01 0.  0.
         14    1    1    2    0    0  0.68033054001E-02  0.23290321349E-01 -0.52851280410E-02  0.24832571580E-01  0.00000000000E+00 0.  1.
     999901    1    3    3    0    0 -0.75403986078E-01  0.99844065434E-02 -0.99141819915E-01  0.88882762668E+00  0.88000000000E+00 0. -1.
        -11    1    4    4    0    0  0.32533899751E-01 -0.71791931479E-02  0.46744749420E-01  0.57404948973E-01  0.51100000000E-03 0.  1.
         11    1    4    4    0    0  0.36066780927E-01 -0.26095534744E-01  0.57682198536E-01  0.72864852769E-01  0.51100000000E-03 0. -1.
</event>
<event>
 8    1  0.1112929E+005  0.1043930E+01  0.7957747E-01            NaN
         13   -1    0    0    0    0  0.00000000000E+00  0.00000000000E+00  0.74505805969E-08  0.10566000000E+00  0.10566000000E+00 0.  1.
     999900   -1    0    0    0    0 -0.00000000000E+00 -0.00000000000E+00 -0.74505805969E-08  0.93827000000E+00  0.93827000000E+00 0.  1.
     999902    2    1    2    0    0  0.78041221165E-02 -0.39506265951E-02  0.22252279838E-01  0.10200202587E+01  0.10197399925E+01 0.  0.
     999903    2    3    3    0    0  0.41689304816E-03 -0.71280104325E-01 -0.10480160505E+00  0.12831934503E+00  0.20036237523E-01 0.  0.
         14    1    1    2    0    0 -0.78041221165E-02  0.39506265951E-02 -0.22252279838E-01  0.23909741331E-01  0.00000000000E+00 0. -1.
     999901    1    3    3    0    0  0.73872290683E-02  0.67329477730E-01  0.12705388489E+00  0.89170091364E+00  0.88000000000E+00 0. -1.
        -11    1    4    4    0    0 -0.78990634173E-02 -0.56707490036E-01 -0.80901074903E-01  0.99112964190E-01  0.51100000000E-03 0. -1.
         11    1    4    4    0    0  0.83159564655E-02 -0.14572614289E-01 -0.23900530150E-01  0.29206380837E-01  0.51100000000E-03 0.  1.
</event>
<event>
 8    1  0.1112929E+005  0.1043930E+01  0.7957747E-01            NaN
         13   -1    0    0    0    0  0.00000000000E+00  0.00000000000E+00  0.74505805969E-08  0.10566000000E+00  0.10566000000E+00 0.  1.
     999900   -1    0    0    0    0 -0.00000000000E+00 -0.00000000000E+00 -0.74505805969E-08  0.93827000000E+00  0.93827000000E+00 0. -1.
     999902    2    1    2    0    0  0.19543278923E-01  0.39304612112E-02  0.12635880094E-01  0.10203280140E+01  0.10200549997E+01 0.  0.
     999903    2    3    3    0    0 -0.15669368537E-01 -0.76356272227E-01 -0.99684394035E-01  0.12886756392E+00  0.24373370689E-01 0.  0.
         14    1    1    2    0    0 -0.19543278923E-01 -0.39304612112E-02 -0.12635880094E-01  0.23601985979E-01  0.00000000000E+00 0. -1.
     999901    1    3    3    0    0  0.35212647460E-01  0.80286733439E-01  0.11232027413E+00  0.89146045010E+00  0.88000000000E+00 0.  1.
        -11    1    4    4    0    0  0.55921415763E-03 -0.31772892790E-01 -0.25226584889E-01  0.40576731545E-01  0.51100000000E-03 0. -1.
         11    1    4    4    0    0 -0.16228582695E-01 -0.44583379437E-01 -0.74457809146E-01  0.88290832379E-01  0.51100000000E-03 0.  1.
</event>
<event>
 8    1  0.1112929E+005  0.1043930E+01  0.7957747E-01            NaN
         13   -1    0    0    0    0  0.00000000000E+00  0.00000000000E+00  0.74505805969E-08  0.10566000000E+00  0.10566000000E+00 0.  1.
     999900   -1    0    0    0    0 -0.00000000000E+00 -0.00000000000E+00 -0.74505805969E-08  0.93827000000E+00  0.93827000000E+00 0. -1.
     999902    2    1    2    0    0  0.14799064099E-01 -0.17320310789E-01 -0.62511023109E-02  0.10203062462E+01  0.10200327222E+01 0.  0.
     999903    2    3    3    0    0 -0.56979979506E-01  0.31015210798E-02  0.11393925912E+00  0.12900663029E+00  0.20105183209E-01 0.  0.
         14    1    1    2    0    0 -0.14799064099E-01  0.17320310789E-01  0.62511023109E-02  0.23623753811E-01  0.00000000000E+00 0.  1.
     999901    1    3    3    0    0  0.71779043605E-01 -0.20421831869E-01 -0.12019036143E+00  0.89129961590E+00  0.88000000000E+00 0. -1.
        -11    1    4    4    0    0 -0.39741255378E-02 -0.54860412438E-02  0.13536214119E-01  0.15145313994E-01  0.51100000000E-03 0. -1.
         11    1    4    4    0    0 -0.53005853968E-01  0.85875623235E-02  0.10040304501E+00  0.11386131630E+00  0.51100000000E-03 0.  1.
</event>
<event>
 8    1  0.1112929E+005  0.1043930E+01  0.7957747E-01            NaN
         13   -1    0    0    0    0  0.00000000000E+00  0.00000000000E+00  0.74505805969E-08  0.10566000000E+00  0.10566000000E+00 0. -1.
     999900   -1    0    0    0    0 -0.00000000000E+00 -0.00000000000E+00 -0.74505805969E-08  0.93827000000E+00  0.93827000000E+00 0. -1.
     999902    2    1    2    0    0  0.13519395219E-01 -0.19272946887E-01 -0.33868860772E-02  0.10201457294E+01  0.10198684316E+01 0.  0.
     999903    2    3    3    0    0  0.12288011982E+00  0.36560394770E-01 -0.20497729871E-01  0.13145573225E+00  0.20597725562E-01 0.  0.
         14    1    1    2    0    0 -0.13519395219E-01  0.19272946887E-01  0.33868860772E-02  0.23784270560E-01  0.00000000000E+00 0. -1.
     999901    1    3    3    0    0 -0.10936072460E+00 -0.55833341656E-01  0.17110843794E-01  0.88868999719E+00  0.88000000000E+00 0.  1.
        -11    1    4    4    0    0  0.21646025572E-01 -0.14464256082E-02 -0.41147158119E-02  0.22086977551E-01  0.51100000000E-03 0.  1.
         11    1    4    4    0    0  0.10123409425E+00  0.38006820378E-01 -0.16383014059E-01  0.10936875470E+00  0.51100000000E-03 0. -1.
</event>
<event>
 7    1  0.1112929E+005  0.1043930E+01  0.7957747E-01            NaN
         13   -1    0    0    0    0  0.00000000000E+00  0.00000000000E+00  0.74505805969E-08  0.10566000000E+00  0.10566000000E+00 0.  1.
     999900   -1    0    0    0    0 -0.00000000000E+00 -0.00000000000E+00 -0.74505805969E-08  0.93827000000E+00  0.93827000000E+00 0. -1.
     999903    2    1    2    0    0 -0.66508862144E-01 -0.11010142348E-01 -0.27438343723E-01  0.75292978172E-01  0.19274799028E-01 0.  0.
         14    1    1    2    0    0 -0.57799234917E-01  0.35226542649E-01 -0.37177282626E-01  0.77225715972E-01  0.00000000000E+00 0. -1.
     999901    1    1    2    0    0  0.12430809706E+00 -0.24216400301E-01  0.64615626348E-01  0.89141130586E+00  0.88000000000E+00 0.  1.
        -11    1    3    3    0    0 -0.16991501665E-01 -0.94710697403E-02 -0.13958133856E-01  0.23947920841E-01  0.51100000000E-03 0. -1.
         11    1    3    3    0    0 -0.49517360479E-01 -0.15390726074E-02 -0.13480209866E-01  0.51345057331E-01  0.51100000000E-03 0.  1.
</event>
<event>
 8    1  0.1112929E+005  0.1043930E+01  0.7957747E-01            NaN
         13   -1    0    0    0    0  0.00000000000E+00  0.00000000000E+00  0.74505805969E-08  0.10566000000E+00  0.10566000000E+00 0. -1.
     999900   -1    0    0    0    0 -0.00000000000E+00 -0.00000000000E+00 -0.74505805969E-08  0.93827000000E+00  0.93827000000E+00 0.  1.
     999902    2    1    2    0    0 -0.61637320909E-02 -0.19544917828E-03 -0.23756088480E-01  0.10193865379E+01  0.10190910323E+01 0.  0.
     999903    2    3    3    0    0  0.58247299809E-01  0.24958273090E-01 -0.11416052921E+00  0.13205658025E+00  0.19764883728E-01 0.  0.
         14    1    1    2    0    0  0.61637320909E-02  0.19544917828E-03  0.23756088480E-01  0.24543462135E-01  0.00000000000E+00 0. -1.
     999901    1    3    3    0    0 -0.64411031900E-01 -0.25153722268E-01  0.90404440725E-01  0.88732995761E+00  0.88000000000E+00 0. -1.
        -11    1    4    4    0    0  0.52633140139E-01  0.27220559978E-01 -0.10908406684E+00  0.12414024765E+00  0.51100000000E-03 0. -1.
         11    1    4    4    0    0  0.56141596704E-02 -0.22622868885E-02 -0.50764623638E-02  0.79163326043E-02  0.51100000000E-03 0.  1.
</event>
<event>
 8    1  0.1112929E+005  0.1043930E+01  0.7957747E-01            NaN
         13   -1    0    0    0    0  0.00000000000E+00  0.00000000000E+00  0.74505805969E-08  0.10566000000E+00  0.10566000000E+00 0. -1.
     999900   -1    0    0    0    0 -0.00000000000E+00 -0.00000000000E+00 -0.74505805969E-08  0.93827000000E+00  0.93827000000E+00 0. -1.
     999902    2    1    2    0    0 -0.73532798798E-02 -0.21963744064E-01 -0.32465104439E-02  0.10205416138E+01  0.10202735755E+01 0.  0.
     999903    2    3    3    0    0 -0.10147333895E+00  0.55086683918E-01  0.56661298815E-01  0.13015725884E+00  0.19975684794E-01 0.  0.
         14    1    1    2    0    0  0.73532798798E-02  0.21963744064E-01  0.32465104439E-02  0.23388386186E-01  0.00000000000E+00 0.  1.
     999901    1    3    3    0    0  0.94120059069E-01 -0.77050427982E-01 -0.59907809259E-01  0.89038435497E+00  0.88000000000E+00 0. -1.
        -11    1    4    4    0    0 -0.79929818672E-01  0.37988571797E-01  0.35101587173E-01  0.95206565126E-01  0.51100000000E-03 0. -1.
         11    1    4    4    0    0 -0.21543520277E-01  0.17098112121E-01  0.21559711642E-01  0.34950693714E-01  0.51100000000E-03 0.  1.
</event>
<event>
 8    1  0.1112929E+005  0.1043930E+01  0.7957747E-01            NaN
         13   -1    0    0    0    0  0.00000000000E+00  0.00000000000E+00  0.74505805969E-08  0.10566000000E+00  0.10566000000E+00 0.  1.
     999900   -1    0    0    0    0 -0.00000000000E+00 -0.00000000000E+00 -0.74505805969E-08  0.93827000000E+00  0.93827000000E+00 0.  1.
     999902    2    1    2    0    0 -0.12896448155E-01 -0.11455155503E-03 -0.19862199323E-01  0.10202479718E+01  0.10199730808E+01 0.  0.
     999903    2    3    3    0    0  0.16770150307E-01 -0.30046285102E-01  0.12154017751E+00  0.12796402154E+00  0.20463598696E-01 0.  0.
         14    1    1    2    0    0  0.12896448155E-01  0.11455155503E-03  0.19862199323E-01  0.23682028187E-01  0.00000000000E+00 0.  1.
     999901    1    3    3    0    0 -0.29666598462E-01  0.29931733547E-01 -0.14140237683E+00  0.89228395027E+00  0.88000000000E+00 0.  1.
        -11    1    4    4    0    0  0.28957677650E-02 -0.24498024507E-01  0.84231560791E-01  0.87771040953E-01  0.51100000000E-03 0.  1.
         11    1    4    4    0    0  0.13874382542E-01 -0.55482605949E-02  0.37308616715E-01  0.40192980590E-01  0.51100000000E-03 0. -1.
</event>
<event>
 8    1  0.1112929E+005  0.1043930E+01  0.7957747E-01            NaN
         13   -1    0    0    0    0  0.00000000000E+00  0.00000000000E+00  0.74505805969E-08  0.10566000000E+00  0.10566000000E+00 0.  1.
     999900   -1    0    0    0    0 -0.00000000000E+00 -0.00000000000E+00 -0.74505805969E-08  0.93827000000E+00  0.93827000000E+00 0. -1.
     999902    2    1    2    0    0  0.22295027901E-01  0.72637283446E-02  0.19627898772E-02  0.10203995397E+01  0.10201281969E+01 0.  0.
     999903    2    3    3    0    0 -0.15218828385E-01 -0.12608990659E+00 -0.15094768036E-01  0.12939929185E+00  0.19648089626E-01 0.  0.
         14    1    1    2    0    0 -0.22295027901E-01 -0.72637283446E-02 -0.19627898772E-02  0.23530460316E-01  0.00000000000E+00 0. -1.
     999901    1    3    3    0    0  0.37513856286E-01  0.13335363494E+00  0.17057557914E-01  0.89100024784E+00  0.88000000000E+00 0. -1.
        -11    1    4    4    0    0 -0.89614862344E-02 -0.11269231834E+00 -0.17543556935E-01  0.11440237916E+00  0.51100000000E-03 0.  1.
         11    1    4    4    0    0 -0.62573421509E-02 -0.13397588258E-01  0.24487888990E-02  0.14996912682E-01  0.51100000000E-03 0. -1.
</event>
<event>
 8    1  0.1112929E+005  0.1043930E+01  0.7957747E-01            NaN
         13   -1    0    0    0    0  0.00000000000E+00  0.00000000000E+00  0.74505805969E-08  0.10566000000E+00  0.10566000000E+00 0.  1.
     999900   -1    0    0    0    0 -0.00000000000E+00 -0.00000000000E+00 -0.74505805969E-08  0.93827000000E+00  0.93827000000E+00 0. -1.
     999902    2    1    2    0    0  0.22518287494E-01 -0.37591402963E-02  0.28197753534E-02  0.10209266189E+01  0.10206674315E+01 0.  0.
     999903    2    3    3    0    0  0.11454783514E+00  0.22584611301E-01  0.62199263761E-01  0.13374605415E+00  0.19697395413E-01 0.  0.
         14    1    1    2    0    0 -0.22518287494E-01  0.37591402963E-02 -0.28197753534E-02  0.23003381066E-01  0.00000000000E+00 0.  1.
     999901    1    3    3    0    0 -0.92029547642E-01 -0.26343751598E-01 -0.59379488408E-01  0.88718056478E+00  0.88000000000E+00 0. -1.
        -11    1    4    4    0    0  0.48445560115E-01  0.16132209008E-01  0.18843351029E-01  0.54429343752E-01  0.51100000000E-03 0. -1.
         11    1    4    4    0    0  0.66102275021E-01  0.64524022935E-02  0.43355912732E-01  0.79316710397E-01  0.51100000000E-03 0.  1.
</event>
<event>
 8    1  0.1112929E+005  0.1043930E+01  0.7957747E-01            NaN
         13   -1    0    0    0    0  0.00000000000E+00  0.00000000000E+00  0.74505805969E-08  0.10566000000E+00  0.10566000000E+00 0. -1.
     999900   -1    0    0    0    0 -0.00000000000E+00 -0.00000000000E+00 -0.74505805969E-08  0.93827000000E+00  0.93827000000E+00 0. -1.
     999902    2    1    2    0    0  0.19835411613E-01 -0.12654358049E-01  0.90723877215E-02  0.10187132486E+01  0.10184010990E+01 0.  0.
     999903    2    3    3    0    0 -0.40427730637E-01 -0.10180533259E+00 -0.65289787891E-01  0.12904517808E+00  0.19778130186E-01 0.  0.
         14    1    1    2    0    0 -0.19835411613E-01  0.12654358049E-01 -0.90723877215E-02  0.25216751386E-01  0.00000000000E+00 0.  1.
     999901    1    3    3    0    0  0.60263142249E-01  0.89150974539E-01  0.74362175613E-01  0.88966807054E+00  0.88000000000E+00 0.  1.
        -11    1    4    4    0    0 -0.20484048886E-01 -0.75750292608E-01 -0.44877665940E-01  0.90398944187E-01  0.51100000000E-03 0. -1.
         11    1    4    4    0    0 -0.19943681751E-01 -0.26055039981E-01 -0.20412121952E-01  0.38646233888E-01  0.51100000000E-03 0.  1.
</event>
<event>
 8    1  0.1112929E+005  0.1043930E+01  0.7957747E-01            NaN
         13   -1    0    0    0    0  0.00000000000E+00  0.00000000000E+00  0.74505805969E-08  0.10566000000E+00  0.10566000000E+00 0. -1.
     999900   -1    0    0    0    0 -0.00000000000E+00 -0.00000000000E+00 -0.74505805969E-08  0.93827000000E+00  0.93827000000E+00 0.  1.
     999902    2    1    2    0    0  0.18035992983E-01 -0.89427476430E-02 -0.12560118985E-01  0.10202018233E+01  0.10199258473E+01 0.  0.
     999903    2    3    3    0    0 -0.14178360293E-01 -0.92093786563E-01  0.88385221891E-01  0.12995364353E+00  0.19842141846E-01 0.  0.
         14    1    1    2    0    0 -0.18035992983E-01  0.89427476430E-02  0.12560118985E-01  0.23728176652E-01  0.00000000000E+00 0.  1.
     999901    1    3    3    0    0  0.32214353276E-01  0.83151038920E-01 -0.10094534088E+00  0.89024817982E+00  0.88000000000E+00 0.  1.
        -11    1    4    4    0    0 -0.96056168138E-02 -0.89259788556E-01  0.84588108857E-01  0.12334904543E+00  0.51100000000E-03 0. -1.
         11    1    4    4    0    0 -0.45727434791E-02 -0.28339980072E-02  0.37971130346E-02  0.66045980974E-02  0.51100000000E-03 0.  1.
</event>
<event>
 7    1  0.1546569E+005  0.1043930E+01  0.7957747E-01            NaN
         13   -1    0    0    0    0  0.00000000000E+00  0.00000000000E+00  0.74505805969E-08  0.10566000000E+00  0.10566000000E+00 0. -1.
     999900   -1    0    0    0    0 -0.00000000000E+00 -0.00000000000E+00 -0.74505805969E-08  0.93827000000E+00  0.93827000000E+00 0. -1.
     999903    2    1    2    0    0 -0.50126494399E-02  0.83822699519E-01  0.35126365701E-01  0.93306104943E-01  0.20513313803E-01 0.  0.
         14    1    1    2    0    0  0.29485120724E-01  0.13951631907E-01  0.51163760097E-01  0.60677431754E-01  0.00000000000E+00 0.  1.
     999901    1    1    2    0    0 -0.24472471284E-01 -0.97774331425E-01 -0.86290125798E-01  0.88994646330E+00  0.88000000000E+00 0. -1.
        -11    1    3    3    0    0 -0.12852493416E-01  0.59380901107E-01  0.24035238114E-01  0.65339358701E-01  0.51100000000E-03 0. -1.
         11    1    3    3    0    0  0.78398439763E-02  0.24441798412E-01  0.11091127587E-01  0.27966746241E-01  0.51100000000E-03 0.  1.
</event>
<event>
 8    1  0.1112929E+005  0.1043930E+01  0.7957747E-01            NaN
         13   -1    0    0    0    0  0.00000000000E+00  0.00000000000E+00  0.74505805969E-08  0.10566000000E+00  0.10566000000E+00 0. -1.
     999900   -1    0    0    0    0 -0.00000000000E+00 -0.00000000000E+00 -0.74505805969E-08  0.93827000000E+00  0.93827000000E+00 0. -1.
     999902    2    1    2    0    0 -0.74725225130E-03  0.21031819624E-01  0.12609508849E-01  0.10193964406E+01  0.10191011763E+01 0.  0.
     999903    2    3    3    0    0 -0.79590971012E-01  0.99687668808E-01 -0.29770585340E-01  0.13136538993E+00  0.99107992110E-02 0.  0.
         14    1    1    2    0    0  0.74725225130E-03 -0.21031819624E-01 -0.12609508849E-01  0.24533559384E-01  0.00000000000E+00 0. -1.
     999901    1    3    3    0    0  0.78843718761E-01 -0.78655849184E-01  0.42380094189E-01  0.88803105069E+00  0.88000000000E+00 0.  1.
        -11    1    4    4    0    0 -0.38029480182E-01  0.50857143296E-01 -0.19432996488E-01  0.66412294499E-01  0.51100000000E-03 0.  1.
         11    1    4    4    0    0 -0.41561490830E-01  0.48830525512E-01 -0.10337588852E-01  0.64953095431E-01  0.51100000000E-03 0. -1.
</event>
<event>
 8    1  0.1112929E+005  0.1043930E+01  0.7957747E-01            NaN
         13   -1    0    0    0    0  0.00000000000E+00  0.00000000000E+00  0.74505805969E-08  0.10566000000E+00  0.10566000000E+00 0. -1.
     999900   -1    0    0    0    0 -0.00000000000E+00 -0.00000000000E+00 -0.74505805969E-08  0.93827000000E+00  0.93827000000E+00 0. -1.
     999902    2    1    2    0    0  0.91177443842E-02 -0.85721579369E-02  0.20131120277E-01  0.10202260518E+01  0.10199506457E+01 0.  0.
     999903    2    3    3    0    0  0.75281668136E-01 -0.54797036957E-03  0.10814414794E+00  0.13332789229E+00  0.20335690300E-01 0.  0.
         14    1    1    2    0    0 -0.91177443842E-02  0.85721579369E-02 -0.20131120277E-01  0.23703948151E-01  0.00000000000E+00 0.  1.
     999901    1    3    3    0    0 -0.66163923751E-01 -0.80241875673E-02 -0.88013027662E-01  0.88689815956E+00  0.88000000000E+00 0. -1.
        -11    1    4    4    0    0  0.35690895066E-02 -0.43337120884E-02  0.12602761162E-01  0.13806164213E-01  0.51100000000E-03 0.  1.
         11    1    4    4    0    0  0.71712578629E-01  0.37857417189E-02  0.95541386776E-01  0.11952172808E+00  0.51100000000E-03 0. -1.
</event>
<event>
 8    1  0.1112929E+005  0.1043930E+01  0.7957747E-01            NaN
         13   -1    0    0    0    0  0.00000000000E+00  0.00000000000E+00  0.74505805969E-08  0.10566000000E+00  0.10566000000E+00 0. -1.
     999900   -1    0    0    0    0 -0.00000000000E+00 -0.00000000000E+00 -0.74505805969E-08  0.93827000000E+00  0.93827000000E+00 0.  1.
     999902    2    1    2    0    0  0.25922714599E-02 -0.23621679318E-01  0.17301062222E-02  0.10201036097E+01  0.10198253173E+01 0.  0.
     999903    2    3    3    0    0  0.36880271768E-01 -0.37637796721E-01 -0.11807769763E+00  0.13121327434E+00  0.22311936183E-01 0.  0.
         14    1    1    2    0    0 -0.25922714599E-02  0.23621679318E-01 -0.17301062222E-02  0.23826390257E-01  0.00000000000E+00 0.  1.
     999901    1    3    3    0    0 -0.34288000308E-01  0.14016117402E-01  0.11980780386E+00  0.88889033541E+00  0.88000000000E+00 0. -1.
        -11    1    4    4    0    0  0.15108333170E-01 -0.12331626216E-01 -0.70086541887E-01  0.72751049552E-01  0.51100000000E-03 0. -1.
         11    1    4    4    0    0  0.21771938598E-01 -0.25306170504E-01 -0.47991155747E-01  0.58462224785E-01  0.51100000000E-03 0.  1.
</event>
<event>
 8    1  0.1112929E+005  0.1043930E+01  0.7957747E-01            NaN
         13   -1    0    0    0    0  0.00000000000E+00  0.00000000000E+00  0.74505805969E-08  0.10566000000E+00  0.10566000000E+00 0. -1.
     999900   -1    0    0    0    0 -0.00000000000E+00 -0.00000000000E+00 -0.74505805969E-08  0.93827000000E+00  0.93827000000E+00 0. -1.
     999902    2    1    2    0    0  0.14976590483E-01  0.18066718153E-01  0.38021445411E-03  0.10204598247E+01  0.10201898866E+01 0.  0.
     999903    2    3    3    0    0 -0.63185309532E-01 -0.76265171443E-01 -0.79181019491E-01  0.12841847027E+00  0.20320185574E-01 0.  0.
         14    1    1    2    0    0 -0.14976590483E-01 -0.18066718153E-01 -0.38021445411E-03  0.23470175337E-01  0.00000000000E+00 0.  1.
     999901    1    3    3    0    0  0.78161900015E-01  0.94331889596E-01  0.79561233945E-01  0.89204135440E+00  0.88000000000E+00 0.  1.
        -11    1    4    4    0    0 -0.41942880002E-01 -0.40610380986E-01 -0.36346069354E-01  0.68772858783E-01  0.51100000000E-03 0.  1.
         11    1    4    4    0    0 -0.21242429530E-01 -0.35654790457E-01 -0.42834950137E-01  0.59645611483E-01  0.51100000000E-03 0. -1.
</event>
<event>
 8    1  0.1112929E+005  0.1043930E+01  0.7957747E-01            NaN
         13   -1    0    0    0    0  0.00000000000E+00  0.00000000000E+00  0.74505805969E-08  0.10566000000E+00  0.10566000000E+00 0. -1.
     999900   -1    0    0    0    0 -0.00000000000E+00 -0.00000000000E+00 -0.74505805969E-08  0.93827000000E+00  0.93827000000E+00 0. -1.
     999902    2    1    2    0    0  0.17753472922E-01 -0.68357617305E-02  0.10687172177E-01  0.10221096176E+01  0.10218766762E+01 0.  0.
     999903    2    3    3    0    0 -0.64418732117E-01 -0.13782107102E-02 -0.11110325298E+00  0.12991291069E+00  0.19538654761E-01 0.  0.
         14    1    1    2    0    0 -0.17753472922E-01  0.68357617305E-02 -0.10687172177E-01  0.21820382407E-01  0.00000000000E+00 0.  1.
     999901    1    3    3    0    0  0.82172205039E-01 -0.54575510204E-02  0.12179042516E+00  0.89219670690E+00  0.88000000000E+00 0.  1.
        -11    1    4    4    0    0 -0.47575090879E-01  0.56878706758E-02 -0.90287380690E-01  0.10221454582E+00  0.51100000000E-03 0.  1.
         11    1    4    4    0    0 -0.16843641239E-01 -0.70660813859E-02 -0.20815872289E-01  0.27698364870E-01  0.51100000000E-03 0. -1.
</event>
<event>
 8    1  0.1112929E+005  0.1043930E+01  0.7957747E-01            NaN
         13   -1    0    0    0    0  0.00000000000E+00  0.00000000000E+00  0.74505805969E-08  0.10566000000E+00  0.10566000000E+00 0. -1.
     999900   -1    0    0    0    0 -0.00000000000E+00 -0.00000000000E+00 -0.74505805969E-08  0.93827000000E+00  0.93827000000E+00 0.  1.
     999902    2    1    2    0    0  0.13107310106E-01 -0.18501319335E-01 -0.67485451865E-02  0.10202732196E+01  0.10199989213E+01 0.  0.
     999903    2    3    3    0    0 -0.39913812555E-01 -0.17956169834E-01  0.12028715271E+00  0.12957147091E+00  0.20105484316E-01 0.  0.
         14    1    1    2    0    0 -0.13107310106E-01  0.18501319335E-01  0.67485451865E-02  0.23656780370E-01  0.00000000000E+00 0.  1.
     999901    1    3    3    0    0  0.53021122661E-01 -0.54514950114E-03 -0.12703569789E+00  0.89070174872E+00  0.88000000000E+00 0.  1.
        -11    1    4    4    0    0 -0.20308996650E-01 -0.68479319784E-02  0.32477177614E-01  0.38915006155E-01  0.51100000000E-03 0.  1.
         11    1    4    4    0    0 -0.19604815905E-01 -0.11108237855E-01  0.87809975092E-01  0.90656464753E-01  0.51100000000E-03 0. -1.
</event>
<event>
 8    1  0.1112929E+005  0.1043930E+01  0.7957747E-01            NaN
         13   -1    0    0    0    0  0.00000000000E+00  0.00000000000E+00  0.74505805969E-08  0.10566000000E+00  0.10566000000E+00 0.  1.
     999900   -1    0    0    0    0 -0.00000000000E+00 -0.00000000000E+00 -0.74505805969E-08  0.93827000000E+00  0.93827000000E+00 0.  1.
     999902    2    1    2    0    0  0.22855062244E-01  0.43873536404E-02  0.67605418152E-02  0.10196955685E+01  0.10194075460E+01 0.  0.
     999903    2    3    3    0    0 -0.12426163709E+00 -0.13065746742E-01 -0.11698204128E-01  0.12712139279E+00  0.20281329705E-01 0.  0.
         14    1    1    2    0    0 -0.22855062244E-01 -0.43873536404E-02 -0.67605418152E-02  0.24234431452E-01  0.00000000000E+00 0.  1.
     999901    1    3    3    0    0  0.14711669933E+00  0.17453100383E-01  0.18458745944E-01  0.89257417576E+00  0.88000000000E+00 0. -1.
        -11    1    4    4    0    0 -0.83619101164E-01 -0.13662645856E-01  0.32630040428E-03  0.84730098337E-01  0.51100000000E-03 0. -1.
         11    1    4    4    0    0 -0.40642535924E-01  0.59689911398E-03 -0.12024504533E-01  0.42391294450E-01  0.51100000000E-03 0.  1.
</event>
<event>
 8    1  0.1112929E+005  0.1043930E+01  0.7957747E-01            NaN
         13   -1    0    0    0    0  0.00000000000E+00  0.00000000000E+00  0.74505805969E-08  0.10566000000E+00  0.10566000000E+00 0. -1.
     999900   -1    0    0    0    0 -0.00000000000E+00 -0.00000000000E+00 -0.74505805969E-08  0.93827000000E+00  0.93827000000E+00 0. -1.
     999902    2    1    2    0    0 -0.29826607680E-02 -0.11672027486E-01  0.21417873943E-01  0.10193564814E+01  0.10190602428E+01 0.  0.
     999903    2    3    3    0    0  0.21988961673E-01 -0.61231332044E-01 -0.10823355271E+00  0.12812744295E+00  0.21664469607E-01 0.  0.
         14    1    1    2    0    0  0.29826607680E-02  0.11672027486E-01 -0.21417873943E-01  0.24573518574E-01  0.00000000000E+00 0.  1.
     999901    1    3    3    0    0 -0.24971622441E-01  0.49559304558E-01  0.12965142666E+00  0.89122903848E+00  0.88000000000E+00 0.  1.
        -11    1    4    4    0    0  0.10519717998E-01 -0.38925843574E-01 -0.84331898420E-01  0.93477355422E-01  0.51100000000E-03 0.  1.
         11    1    4    4    0    0  0.11469243674E-01 -0.22305488471E-01 -0.23901654294E-01  0.34650087524E-01  0.51100000000E-03 0. -1.
</event>
<event>
 8    1  0.1112929E+005  0.1043930E+01  0.7957747E-01            NaN
         13   -1    0    0    0    0  0.00000000000E+00  0.00000000000E+00  0.74505805969E-08  0.10566000000E+00  0.10566000000E+00 0. -1.
     999900   -1    0    0    0    0 -0.00000000000E+00 -0.00000000000E+00 -0.74505805969E-08  0.93827000000E+00  0.93827000000E+00 0. -1.
     999902    2    1    2    0    0  0.13702732991E-01 -0.19177807728E-01  0.26435071986E-02  0.10202120462E+01  0.10199363107E+01 0.  0.
     999903    2    3    3    0    0  0.63637396876E-01  0.11086235006E+00  0.66311104204E-03  0.12925310483E+00  0.19124498703E-01 0.  0.
         14    1    1    2    0    0 -0.13702732991E-01  0.19177807728E-01 -0.26435071986E-02  0.23717953769E-01  0.00000000000E+00 0. -1.
     999901    1    3    3    0    0 -0.49934663885E-01 -0.13004015778E+00  0.19803961566E-02  0.89095894140E+00  0.88000000000E+00 0. -1.
        -11    1    4    4    0    0  0.21040522439E-01  0.55359490137E-01 -0.16500880371E-02  0.59248296552E-01  0.51100000000E-03 0. -1.
         11    1    4    4    0    0  0.42596874438E-01  0.55502859918E-01  0.23131990791E-02  0.70004808277E-01  0.51100000000E-03 0.  1.
</event>
<event>
 8    1  0.1112929E+005  0.1043930E+01  0.7957747E-01            NaN
         13   -1    0    0    0    0  0.00000000000E+00  0.00000000000E+00  0.74505805969E-08  0.10566000000E+00  0.10566000000E+00 0. -1.
     999900   -1    0    0    0    0 -0.00000000000E+00 -0.00000000000E+00 -0.74505805969E-08  0.93827000000E+00  0.93827000000E+00 0.  1.
     999902    2    1    2    0    0 -0.11695019148E-01  0.18163642092E-01 -0.15608388506E-01  0.10172782991E+01  0.10169291149E+01 0.  0.
     999903    2    3    3    0    0  0.10617189600E+00 -0.50198545786E-01 -0.41871315979E-01  0.12640471676E+00  0.20798553305E-01 0.  0.
         14    1    1    2    0    0  0.11695019148E-01 -0.18163642092E-01  0.15608388506E-01  0.26651700859E-01  0.00000000000E+00 0. -1.
     999901    1    3    3    0    0 -0.11786691515E+00  0.68362187878E-01  0.26262927472E-01  0.89087358238E+00  0.88000000000E+00 0.  1.
        -11    1    4    4    0    0  0.36091385825E-01 -0.89353499058E-02 -0.19837223433E-01  0.42145049095E-01  0.51100000000E-03 0. -1.
         11    1    4    4    0    0  0.70080510173E-01 -0.41263195880E-01 -0.22034092546E-01  0.84259667669E-01  0.51100000000E-03 0.  1.
</event>
<event>
 8    1  0.1112929E+005  0.1043930E+01  0.7957747E-01            NaN
         13   -1    0    0    0    0  0.00000000000E+00  0.00000000000E+00  0.74505805969E-08  0.10566000000E+00  0.10566000000E+00 0. -1.
     999900   -1    0    0    0    0 -0.00000000000E+00 -0.00000000000E+00 -0.74505805969E-08  0.93827000000E+00  0.93827000000E+00 0. -1.
     999902    2    1    2    0    0 -0.45304150234E-02 -0.22682978635E-01 -0.32488967637E-02  0.10205719712E+01  0.10203046363E+01 0.  0.
     999903    2    3    3    0    0  0.54623185369E-01 -0.11570246299E+00  0.30934506263E-01  0.13303589983E+00  0.19257586687E-01 0.  0.
         14    1    1    2    0    0  0.45304150234E-02  0.22682978635E-01  0.32488967637E-02  0.23358028817E-01  0.00000000000E+00 0. -1.
     999901    1    3    3    0    0 -0.59153600392E-01  0.93019484351E-01 -0.34183403027E-01  0.88753607135E+00  0.88000000000E+00 0. -1.
        -11    1    4    4    0    0  0.24216615956E-01 -0.44444697272E-01  0.21478962627E-01  0.54985294038E-01  0.51100000000E-03 0. -1.
         11    1    4    4    0    0  0.30406569413E-01 -0.71257765715E-01  0.94555436368E-02  0.78050605793E-01  0.51100000000E-03 0.  1.
</event>
<event>
 8    1  0.1112929E+005  0.1043930E+01  0.7957747E-01            NaN
         13   -1    0    0    0    0  0.00000000000E+00  0.00000000000E+00  0.74505805969E-08  0.10566000000E+00  0.10566000000E+00 0. -1.
     999900   -1    0    0    0    0 -0.00000000000E+00 -0.00000000000E+00 -0.74505805969E-08  0.93827000000E+00  0.93827000000E+00 0.  1.
     999902    2    1    2    0    0 -0.20833537730E-01  0.71004487099E-02 -0.91062056322E-02  0.10201103517E+01  0.10198322185E+01 0.  0.
     999903    2    3    3    0    0  0.18528269416E-01  0.12259689398E+00  0.35598997910E-01  0.13056702165E+00  0.20178288046E-01 0.  0.
         14    1    1    2    0    0  0.20833537730E-01 -0.71004487099E-02  0.91062056322E-02  0.23819648345E-01  0.00000000000E+00 0.  1.
     999901    1    3    3    0    0 -0.39361807146E-01 -0.11549644527E+00 -0.44705203542E-01  0.88954333001E+00  0.88000000000E+00 0. -1.
        -11    1    4    4    0    0 -0.13510576638E-02  0.52650248849E-01  0.18876665086E-01  0.55950546614E-01  0.51100000000E-03 0.  1.
         11    1    4    4    0    0  0.19879327080E-01  0.69946645135E-01  0.16722332824E-01  0.74616475036E-01  0.51100000000E-03 0. -1.
</event>
<event>
 8    1  0.1112929E+005  0.1043930E+01  0.7957747E-01            NaN
         13   -1    0    0    0    0  0.00000000000E+00  0.00000000000E+00  0.74505805969E-08  0.10566000000E+00  0.10566000000E+00 0.  1.
     999900   -1    0    0    0    0 -0.00000000000E+00 -0.00000000000E+00 -0.74505805969E-08  0.93827000000E+00  0.93827000000E+00 0. -1.
     999902    2    1    2    0    0  0.11306503686E-01 -0.73061897007E-02 -0.18891812735E-01  0.10207326290E+01  0.10204690009E+01 0.  0.
     999903    2    3    3    0    0  0.12731713883E+00  0.27913860565E-01 -0.12848014203E-01  0.13239966950E+00  0.19384621857E-01 0.  0.
         14    1    1    2    0    0 -0.11306503686E-01  0.73061897007E-02  0.18891812735E-01  0.23197371014E-01  0.00000000000E+00 0.  1.
     999901    1    3    3    0    0 -0.11601063514E+00 -0.35220050266E-01 -0.60437985321E-02  0.88833295948E+00  0.88000000000E+00 0.  1.
        -11    1    4    4    0    0  0.16447416634E-01 -0.28223908867E-02 -0.25166809695E-02  0.16884259189E-01  0.51100000000E-03 0. -1.
         11    1    4    4    0    0  0.11086972219E+00  0.30736251452E-01 -0.10331333234E-01  0.11551541031E+00  0.51100000000E-03 0.  1.
</event>
<event>
 8    1  0.1112929E+005  0.1043930E+01  0.7957747E-01            NaN
         13   -1    0    0    0    0  0.00000000000E+00  0.00000000000E+00  0.74505805969E-08  0.10566000000E+00  0.10566000000E+00 0. -1.
     999900   -1    0    0    0    0 -0.00000000000E+00 -0.00000000000E+00 -0.74505805969E-08  0.93827000000E+00  0.93827000000E+00 0. -1.
     999902    2    1    2    0    0  0.89669401302E-02  0.73558680296E-02  0.20861078325E-01  0.10200616235E+01  0.10197823377E+01 0.  0.
     999903    2    3    3    0    0 -0.24980951141E-01  0.15411519417E-01 -0.12236865817E+00  0.12779926840E+00  0.22293533802E-01 0.  0.
         14    1    1    2    0    0 -0.89669401302E-02 -0.73558680296E-02 -0.20861078325E-01  0.23868376540E-01  0.00000000000E+00 0.  1.
     999901    1    3    3    0    0  0.33947891272E-01 -0.80556513877E-02  0.14322973650E+00  0.89226235506E+00  0.88000000000E+00 0.  1.
        -11    1    4    4    0    0 -0.10545147116E-01  0.17794959772E-01 -0.88769995721E-01  0.91149514438E-01  0.51100000000E-03 0. -1.
         11    1    4    4    0    0 -0.14435804025E-01 -0.23834403549E-02 -0.33598662454E-01  0.36649753962E-01  0.51100000000E-03 0.  1.
</event>
<event>
 8    1  0.1112929E+005  0.1043930E+01  0.7957747E-01            NaN
         13   -1    0    0    0    0  0.00000000000E+00  0.00000000000E+00  0.74505805969E-08  0.10566000000E+00  0.10566000000E+00 0. -1.
     999900   -1    0    0    0    0 -0.00000000000E+00 -0.00000000000E+00 -0.74505805969E-08  0.93827000000E+00  0.93827000000E+00 0.  1.
     999902    2    1    2    0    0  0.27028763364E-02 -0.16536611223E-01  0.14206467528E-01  0.10219620968E+01  0.10217259606E+01 0.  0.
     999903    2    3    3    0    0  0.14973417544E-01 -0.23427784222E-01 -0.12623001164E+00  0.13071552086E+00  0.19479919118E-01 0.  0.
         14    1    1    2    0    0 -0.27028763364E-02  0.16536611223E-01 -0.14206467528E-01  0.21967903196E-01  0.00000000000E+00 0. -1.
     999901    1    3    3    0    0 -0.12270541207E-01  0.68911729996E-02  0.14043647917E+00  0.89124657594E+00  0.88000000000E+00 0. -1.
        -11    1    4    4    0    0 -0.31866410338E-02 -0.45866994191E-02 -0.45606539197E-01  0.45950081949E-01  0.51100000000E-03 0. -1.
         11    1    4    4    0    0  0.18160058577E-01 -0.18841084803E-01 -0.80623472444E-01  0.84765438913E-01  0.51100000000E-03 0.  1.
</event>
<event>
 8    1  0.1112929E+005  0.1043930E+01  0.7957747E-01            NaN
         13   -1    0    0    0    0  0.00000000000E+00  0.00000000000E+00  0.74505805969E-08  0.10566000000E+00  0.10566000000E+00 0. -1.
     999900   -1    0    0    0    0 -0.00000000000E+00 -0.00000000000E+00 -0.74505805969E-08  0.93827000000E+00  0.93827000000E+00 0. -1.
     999902    2    1    2    0    0 -0.14752377259E-01  0.83107521143E-02 -0.16331801105E-01  0.10204049291E+01  0.10201337120E+01 0.  0.
     999903    2    3    3    0    0 -0.98627082250E-01 -0.84323526632E-01 -0.75990263936E-02  0.13153354517E+00  0.20138763782E-01 0.  0.
         14    1    1    2    0    0  0.14752377259E-01 -0.83107521143E-02  0.16331801105E-01  0.23525070942E-01  0.00000000000E+00 0.  1.
     999901    1    3    3    0    0  0.83874704991E-01  0.92634278747E-01 -0.87327747112E-02  0.88887138389E+00  0.88000000000E+00 0. -1.
        -11    1    4    4    0    0 -0.72181172079E-01 -0.71921070767E-01 -0.89404541905E-02  0.10228858619E+00  0.51100000000E-03 0. -1.
         11    1    4    4    0    0 -0.26445910171E-01 -0.12402455866E-01  0.13414277969E-02  0.29244958981E-01  0.51100000000E-03 0.  1.
</event>
<event>
 8    1  0.1112929E+005  0.1043930E+01  0.7957747E-01            NaN
         13   -1    0    0    0    0  0.00000000000E+00  0.00000000000E+00  0.74505805969E-08  0.10566000000E+00  0.10566000000E+00 0. -1.
     999900   -1    0    0    0    0 -0.00000000000E+00 -0.00000000000E+00 -0.74505805969E-08  0.93827000000E+00  0.93827000000E+00 0. -1.
     999902    2    1    2    0    0 -0.54675800135E-03  0.13847733255E-01  0.21640058650E-01  0.10182327083E+01  0.10179083935E+01 0.  0.
     999903    2    3    3    0    0 -0.20196933463E-01 -0.31058827751E-01 -0.11857526978E+00  0.12578491325E+00  0.19727718965E-01 0.  0.
         14    1    1    2    0    0  0.54675800135E-03 -0.13847733255E-01 -0.21640058650E-01  0.25697291667E-01  0.00000000000E+00 0.  1.
     999901    1    3    3    0    0  0.19650175462E-01  0.44906561005E-01  0.14021532843E+00  0.89244779508E+00  0.88000000000E+00 0.  1.
        -11    1    4    4    0    0 -0.15025677273E-01 -0.81886112222E-02 -0.66565393353E-01  0.68731630597E-01  0.51100000000E-03 0. -1.
         11    1    4    4    0    0 -0.51712561898E-02 -0.22870216528E-01 -0.52009876429E-01  0.57053282655E-01  0.51100000000E-03 0.  1.
</event>
<event>
 8    1  0.1112929E+005  0.1043930E+01  0.7957747E-01            NaN
         13   -1    0    0    0    0  0.00000000000E+00  0.00000000000E+00  0.74505805969E-08  0.10566000000E+00  0.10566000000E+00 0.  1.
     999900   -1    0    0    0    0 -0.00000000000E+00 -0.00000000000E+00 -0.74505805969E-08  0.93827000000E+00  0.93827000000E+00 0. -1.
     999902    2    1    2    0    0 -0.22753382415E-01  0.48053003647E-02  0.19633931896E-02  0.10205920002E+01  0.10203251289E+01 0.  0.
     999903    2    3    3    0    0  0.49935370044E-01 -0.88253095972E-02 -0.11729611196E+00  0.12947344587E+00  0.20822296579E-01 0.  0.
         14    1    1    2    0    0  0.22753382415E-01 -0.48053003647E-02 -0.19633931896E-02  0.23337999823E-01  0.00000000000E+00 0.  1.
     999901    1    3    3    0    0 -0.72688752459E-01  0.13630609962E-01  0.11925950515E+00  0.89111855431E+00  0.88000000000E+00 0. -1.
        -11    1    4    4    0    0  0.39173711237E-01  0.90362883695E-03 -0.72911523264E-01  0.82775283405E-01  0.51100000000E-03 0. -1.
         11    1    4    4    0    0  0.10761658807E-01 -0.97289384341E-02 -0.44384588692E-01  0.46698162466E-01  0.51100000000E-03 0.  1.
</event>
<event>
 8    1  0.1112929E+005  0.1043930E+01  0.7957747E-01            NaN
         13   -1    0    0    0    0  0.00000000000E+00  0.00000000000E+00  0.74505805969E-08  0.10566000000E+00  0.10566000000E+00 0.  1.
     999900   -1    0    0    0    0 -0.00000000000E+00 -0.00000000000E+00 -0.74505805969E-08  0.93827000000E+00  0.93827000000E+00 0. -1.
     999902    2    1    2    0    0 -0.10720811222E-02  0.66687680081E-02 -0.22511986159E-01  0.10204265674E+01  0.10201558548E+01 0.  0.
     999903    2    3    3    0    0 -0.10052934081E+00 -0.58858639106E-01  0.52455961173E-01  0.12924432971E+00  0.19544337776E-01 0.  0.
         14    1    1    2    0    0  0.10720811222E-02 -0.66687680081E-02  0.22511986159E-01  0.23503432632E-01  0.00000000000E+00 0.  1.
     999901    1    3    3    0    0  0.99457259687E-01  0.65527407114E-01 -0.74967947331E-01  0.89118223766E+00  0.88000000000E+00 0. -1.
        -11    1    4    4    0    0 -0.15856273906E-01 -0.18855687995E-02  0.88259730180E-02  0.18252005715E-01  0.51100000000E-03 0.  1.
         11    1    4    4    0    0 -0.84673066902E-01 -0.56973070307E-01  0.43629988155E-01  0.11099232400E+00  0.51100000000E-03 0. -1.
</event>
<event>
 8    1  0.1112929E+005  0.1043930E+01  0.7957747E-01            NaN
         13   -1    0    0    0    0  0.00000000000E+00  0.00000000000E+00  0.74505805969E-08  0.10566000000E+00  0.10566000000E+00 0. -1.
     999900   -1    0    0    0    0 -0.00000000000E+00 -0.00000000000E+00 -0.74505805969E-08  0.93827000000E+00  0.93827000000E+00 0. -1.
     999902    2    1    2    0    0  0.12285262920E-01  0.18774396194E-01  0.10476087438E-01  0.10191680525E+01  0.10188671970E+01 0.  0.
     999903    2    3    3    0    0  0.12900724799E-01 -0.12357348834E+00  0.21621448500E-01  0.12765948936E+00  0.19814703320E-01 0.  0.
         14    1    1    2    0    0 -0.12285262920E-01 -0.18774396194E-01 -0.10476087438E-01  0.24761947530E-01  0.00000000000E+00 0.  1.
     999901    1    3    3    0    0 -0.61546187890E-03  0.14234788453E+00 -0.11145361063E-01  0.89150856311E+00  0.88000000000E+00 0.  1.
        -11    1    4    4    0    0  0.11101392714E-01 -0.31725207991E-01  0.17080814530E-02  0.33658704751E-01  0.51100000000E-03 0.  1.
         11    1    4    4    0    0  0.17993320849E-02 -0.91848280349E-01  0.19913367047E-01  0.94000784610E-01  0.51100000000E-03 0. -1.
</event>
<event>
 8    1  0.1112929E+005  0.1043930E+01  0.7957747E-01            NaN
         13   -1    0    0    0    0  0.00000000000E+00  0.00000000000E+00  0.74505805969E-08  0.10566000000E+00  0.10566000000E+00 0. -1.
     999900   -1    0    0    0    0 -0.00000000000E+00 -0.00000000000E+00 -0.74505805969E-08  0.93827000000E+00  0.93827000000E+00 0. -1.
     999902    2    1    2    0    0  0.96048256039E-02  0.49443575675E-02  0.25273399012E-01  0.10164446576E+01  0.10160729787E+01 0.  0.
     999903    2    3    3    0    0 -0.31397026360E-01  0.85231899258E-01  0.90132912426E-01  0.12946438859E+00  0.19668149262E-01 0.  0.
         14    1    1    2    0    0 -0.96048256039E-02 -0.49443575675E-02 -0.25273399012E-01  0.27485342353E-01  0.00000000000E+00 0.  1.
     999901    1    3    3    0    0  0.41001851964E-01 -0.80287541690E-01 -0.64859513414E-01  0.88698026906E+00  0.88000000000E+00 0.  1.
        -11    1    4    4    0    0 -0.22924452742E-01  0.37885218793E-01  0.50254496988E-01  0.66982056739E-01  0.51100000000E-03 0. -1.
         11    1    4    4    0    0 -0.84725736186E-02  0.47346680464E-01  0.39878415438E-01  0.62482331851E-01  0.51100000000E-03 0.  1.
</event>
<event>
 8    1  0.1112929E+005  0.1043930E+01  0.7957747E-01            NaN
         13   -1    0    0    0    0  0.00000000000E+00  0.00000000000E+00  0.74505805969E-08  0.10566000000E+00  0.10566000000E+00 0.  1.
     999900   -1    0    0    0    0 -0.00000000000E+00 -0.00000000000E+00 -0.74505805969E-08  0.93827000000E+00  0.93827000000E+00 0.  1.
     999902    2    1    2    0    0  0.17275010473E-01 -0.71385813417E-02  0.14108465666E-01  0.10205113294E+01  0.10202425884E+01 0.  0.
     999903    2    3    3    0    0  0.33180995466E-01 -0.12611894727E+00  0.10857744686E-01  0.13235599666E+00  0.19830580211E-01 0.  0.
         14    1    1    2    0    0 -0.17275010473E-01  0.71385813417E-02 -0.14108465666E-01  0.23418670625E-01  0.00000000000E+00 0. -1.
     999901    1    3    3    0    0 -0.15905984993E-01  0.11898036593E+00  0.32507209796E-02  0.88815533271E+00  0.88000000000E+00 0. -1.
        -11    1    4    4    0    0  0.37733588086E-02 -0.45941045757E-01 -0.11540929755E-02  0.46113023904E-01  0.51100000000E-03 0. -1.
         11    1    4    4    0    0  0.29407636657E-01 -0.80177901517E-01  0.12011837662E-01  0.86242972760E-01  0.51100000000E-03 0.  1.
</event>
<event>
 8    1  0.1112929E+005  0.1043930E+01  0.7957747E-01            NaN
         13   -1    0    0    0    0  0.00000000000E+00  0.00000000000E+00  0.74505805969E-08  0.10566000000E+00  0.10566000000E+00 0.  1.
     999900   -1    0    0    0    0 -0.00000000000E+00 -0.00000000000E+00 -0.74505805969E-08  0.93827000000E+00  0.93827000000E+00 0.  1.
     999902    2    1    2    0    0  0.20343436116E-01 -0.70086212254E-02  0.10360835869E-01  0.10200485619E+01  0.10197689668E+01 0.  0.
     999903    2    3    3    0    0 -0.87731427305E-01  0.30945619725E-01  0.87663931792E-01  0.12926437418E+00  0.19232232752E-01 0.  0.
         14    1    1    2    0    0 -0.20343436116E-01  0.70086212254E-02 -0.10360835869E-01  0.23881438072E-01  0.00000000000E+00 0. -1.
     999901    1    3    3    0    0  0.10807486342E+00 -0.37954240950E-01 -0.77303095923E-01  0.89078418775E+00  0.88000000000E+00 0.  1.
        -11    1    4    4    0    0 -0.64189906605E-01  0.29665155920E-01  0.72216406262E-01  0.10107341906E+00  0.51100000000E-03 0. -1.
         11    1    4    4    0    0 -0.23541520700E-01  0.12804638046E-02  0.15447525530E-01  0.28190955117E-01  0.51100000000E-03 0.  1.
</event>
<event>
 8    1  0.1112929E+005  0.1043930E+01  0.7957747E-01            NaN
         13   -1    0    0    0    0  0.00000000000E+00  0.00000000000E+00  0.74505805969E-08  0.10566000000E+00  0.10566000000E+00 0. -1.
     999900   -1    0    0    0    0 -0.00000000000E+00 -0.00000000000E+00 -0.74505805969E-08  0.93827000000E+00  0.93827000000E+00 0.  1.
     999902    2    1    2    0    0  0.15019341366E-01 -0.15681442149E-01 -0.92776781777E-02  0.10203172163E+01  0.10200439492E+01 0.  0.
     999903    2    3    3    0    0  0.54331783439E-01  0.10326145998E+00  0.52716872387E-01  0.12928623681E+00  0.17916210099E-01 0.  0.
         14    1    1    2    0    0 -0.15019341366E-01  0.15681442149E-01  0.92776781777E-02  0.23612783726E-01  0.00000000000E+00 0. -1.
     999901    1    3    3    0    0 -0.39312442073E-01 -0.11894290213E+00 -0.61994550565E-01  0.89103097947E+00  0.88000000000E+00 0.  1.
        -11    1    4    4    0    0  0.27011354956E-01  0.69767267720E-01  0.32669520412E-01  0.81637268613E-01  0.51100000000E-03 0. -1.
         11    1    4    4    0    0  0.27320428483E-01  0.33494192262E-01  0.20047351975E-01  0.47648968194E-01  0.51100000000E-03 0.  1.
</event>
<event>
 8    1  0.1112929E+005  0.1043930E+01  0.7957747E-01            NaN
         13   -1    0    0    0    0  0.00000000000E+00  0.00000000000E+00  0.74505805969E-08  0.10566000000E+00  0.10566000000E+00 0.  1.
     999900   -1    0    0    0    0 -0.00000000000E+00 -0.00000000000E+00 -0.74505805969E-08  0.93827000000E+00  0.93827000000E+00 0.  1.
     999902    2    1    2    0    0 -0.14673002699E-01  0.51500482670E-02 -0.17453403943E-01  0.10205539158E+01  0.10202861626E+01 0.  0.
     999903    2    3    3    0    0  0.27068374156E-01  0.89181796038E-01 -0.91937599981E-01  0.13243704696E+00  0.20023972988E-01 0.  0.
         14    1    1    2    0    0  0.14673002699E-01 -0.51500482670E-02  0.17453403943E-01  0.23376084244E-01  0.00000000000E+00 0.  1.
     999901    1    3    3    0    0 -0.41741376855E-01 -0.84031747771E-01  0.74484196037E-01  0.88811686879E+00  0.88000000000E+00 0. -1.
        -11    1    4    4    0    0  0.25796752520E-01  0.64949114892E-01 -0.76770786297E-01  0.10381654355E+00  0.51100000000E-03 0. -1.
         11    1    4    4    0    0  0.12716216362E-02  0.24232681146E-01 -0.15166813684E-01  0.28620503410E-01  0.51100000000E-03 0.  1.
</event>
<event>
 8    1  0.1112929E+005  0.1043930E+01  0.7957747E-01            NaN
         13   -1    0    0    0    0  0.00000000000E+00  0.00000000000E+00  0.74505805969E-08  0.10566000000E+00  0.10566000000E+00 0.  1.
     999900   -1    0    0    0    0 -0.00000000000E+00 -0.00000000000E+00 -0.74505805969E-08  0.93827000000E+00  0.93827000000E+00 0. -1.
     999902    2    1    2    0    0 -0.18256546542E-01  0.15398816670E-01  0.30016150557E-02  0.10198585493E+01  0.10195744337E+01 0.  0.
     999903    2    3    3    0    0  0.12205385129E+00  0.12481878473E-01 -0.32939064712E-01  0.12801369241E+00  0.15798213747E-01 0.  0.
         14    1    1    2    0    0  0.18256546542E-01 -0.15398816670E-01 -0.30016150557E-02  0.24071450713E-01  0.00000000000E+00 0. -1.
     999901    1    3    3    0    0 -0.14031039783E+00  0.29169381966E-02  0.35940679768E-01  0.89184485687E+00  0.88000000000E+00 0.  1.
        -11    1    4    4    0    0  0.33972259463E-01 -0.30840468368E-02 -0.63913199636E-02  0.34709304945E-01  0.51100000000E-03 0.  1.
         11    1    4    4    0    0  0.88081591823E-01  0.15565925310E-01 -0.26547744749E-01  0.93304387470E-01  0.51100000000E-03 0. -1.
</event>
<event>
 8    1  0.1112929E+005  0.1043930E+01  0.7957747E-01            NaN
         13   -1    0    0    0    0  0.00000000000E+00  0.00000000000E+00  0.74505805969E-08  0.10566000000E+00  0.10566000000E+00 0.  1.
     999900   -1    0    0    0    0 -0.00000000000E+00 -0.00000000000E+00 -0.74505805969E-08  0.93827000000E+00  0.93827000000E+00 0. -1.
     999902    2    1    2    0    0  0.25050180823E-03 -0.96836921214E-02  0.23966998901E-01  0.10180793969E+01  0.10177511507E+01 0.  0.
     999903    2    3    3    0    0  0.55083894305E-01  0.18373392880E-01  0.11568890406E+00  0.13117082842E+00  0.21214304821E-01 0.  0.
         14    1    1    2    0    0 -0.25050180823E-03  0.96836921214E-02 -0.23966998901E-01  0.25850603099E-01  0.00000000000E+00 0. -1.
     999901    1    3    3    0    0 -0.54833392497E-01 -0.28057085001E-01 -0.91721905160E-01  0.88690856848E+00  0.88000000000E+00 0. -1.
        -11    1    4    4    0    0  0.12986131723E-01  0.12369552759E-01  0.22824975903E-01  0.29032500728E-01  0.51100000000E-03 0. -1.
         11    1    4    4    0    0  0.42097762582E-01  0.60038401207E-02  0.92863928158E-01  0.10213832770E+00  0.51100000000E-03 0.  1.
</event>
<event>
 8    1  0.1112929E+005  0.1043930E+01  0.7957747E-01            NaN
         13   -1    0    0    0    0  0.00000000000E+00  0.00000000000E+00  0.74505805969E-08  0.10566000000E+00  0.10566000000E+00 0. -1.
     999900   -1    0    0    0    0 -0.00000000000E+00 -0.00000000000E+00 -0.74505805969E-08  0.93827000000E+00  0.93827000000E+00 0.  1.
     999902    2    1    2    0    0  0.22796775709E-01  0.46553697104E-02  0.48304857460E-02  0.10201666029E+01  0.10198897973E+01 0.  0.
     999903    2    3    3    0    0 -0.10535064099E-01  0.10273745537E-01 -0.12739666205E+00  0.12964619531E+00  0.19018123872E-01 0.  0.
         14    1    1    2    0    0 -0.22796775709E-01 -0.46553697104E-02 -0.48304857460E-02  0.23763397114E-01  0.00000000000E+00 0.  1.
     999901    1    3    3    0    0  0.33331839808E-01 -0.56183758263E-02  0.13222714779E+00  0.89052040757E+00  0.88000000000E+00 0. -1.
        -11    1    4    4    0    0 -0.11676824496E-01 -0.18324452091E-02 -0.66759750600E-01  0.67799937366E-01  0.51100000000E-03 0.  1.
         11    1    4    4    0    0  0.11417603971E-02  0.12106190746E-01 -0.60636911446E-01  0.61846257946E-01  0.51100000000E-03 0. -1.
</event>
<event>
 8    1  0.1112929E+005  0.1043930E+01  0.7957747E-01            NaN
         13   -1    0    0    0    0  0.00000000000E+00  0.00000000000E+00  0.74505805969E-08  0.10566000000E+00  0.10566000000E+00 0.  1.
     999900   -1    0    0    0    0 -0.00000000000E+00 -0.00000000000E+00 -0.74505805969E-08  0.93827000000E+00  0.93827000000E+00 0. -1.
     999902    2    1    2    0    0  0.10505766694E-01 -0.56678406801E-02 -0.20373285526E-01  0.10203171578E+01  0.10200438894E+01 0.  0.
     999903    2    3    3    0    0  0.88194815378E-01 -0.76330166735E-01 -0.60685075982E-01  0.13315663513E+00  0.21056856791E-01 0.  0.
         14    1    1    2    0    0 -0.10505766694E-01  0.56678406801E-02  0.20373285526E-01  0.23612842161E-01  0.00000000000E+00 0.  1.
     999901    1    3    3    0    0 -0.77689048684E-01  0.70662326055E-01  0.40311790456E-01  0.88716052271E+00  0.88000000000E+00 0. -1.
        -11    1    4    4    0    0  0.45368360706E-01 -0.49013197143E-01 -0.42675124179E-01  0.79259125607E-01  0.51100000000E-03 0.  1.
         11    1    4    4    0    0  0.42826454671E-01 -0.27316969593E-01 -0.18009951804E-01  0.53897509520E-01  0.51100000000E-03 0. -1.
</event>
<event>
 8    1  0.1112929E+005  0.1043930E+01  0.7957747E-01            NaN
         13   -1    0    0    0    0  0.00000000000E+00  0.00000000000E+00  0.74505805969E-08  0.10566000000E+00  0.10566000000E+00 0.  1.
     999900   -1    0    0    0    0 -0.00000000000E+00 -0.00000000000E+00 -0.74505805969E-08  0.93827000000E+00  0.93827000000E+00 0. -1.
     999902    2    1    2    0    0 -0.80672727444E-02 -0.21060236606E-01 -0.38106497710E-02  0.10210578443E+01  0.10208016388E+01 0.  0.
     999903    2    3    3    0    0 -0.60301332741E-01  0.97924950255E-01  0.56167832186E-01  0.12949556939E+00  0.19716249800E-01 0.  0.
         14    1    1    2    0    0  0.80672727444E-02  0.21060236606E-01  0.38106497710E-02  0.22872155716E-01  0.00000000000E+00 0.  1.
     999901    1    3    3    0    0  0.52234059997E-01 -0.11898518686E+00 -0.59978481957E-01  0.89156227489E+00  0.88000000000E+00 0. -1.
        -11    1    4    4    0    0 -0.26995970939E-01  0.58727015113E-01  0.24704721486E-01  0.69197031264E-01  0.51100000000E-03 0. -1.
         11    1    4    4    0    0 -0.33305361802E-01  0.39197935143E-01  0.31463110700E-01  0.60298538126E-01  0.51100000000E-03 0.  1.
</event>
<event>
 8    1  0.1112929E+005  0.1043930E+01  0.7957747E-01            NaN
         13   -1    0    0    0    0  0.00000000000E+00  0.00000000000E+00  0.74505805969E-08  0.10566000000E+00  0.10566000000E+00 0.  1.
     999900   -1    0    0    0    0 -0.00000000000E+00 -0.00000000000E+00 -0.74505805969E-08  0.93827000000E+00  0.93827000000E+00 0. -1.
     999902    2    1    2    0    0  0.20274898899E-01  0.72595793928E-02  0.97463662543E-02  0.10202917963E+01  0.10200179336E+01 0.  0.
     999903    2    3    3    0    0 -0.12351493725E+00  0.26158444460E-01  0.90274284432E-02  0.12842117736E+00  0.21686410248E-01 0.  0.
         14    1    1    2    0    0 -0.20274898899E-01 -0.72595793928E-02 -0.97463662543E-02  0.23638203686E-01  0.00000000000E+00 0.  1.
     999901    1    3    3    0    0  0.14378983615E+00 -0.18898865067E-01  0.71893781107E-03  0.89187061895E+00  0.88000000000E+00 0. -1.
        -11    1    4    4    0    0 -0.11549803300E+00  0.29780300034E-01  0.79092789144E-02  0.11953861180E+00  0.51100000000E-03 0.  1.
         11    1    4    4    0    0 -0.80169042557E-02 -0.36218555738E-02  0.11181495288E-02  0.88825655647E-02  0.51100000000E-03 0. -1.
</event>
<event>
 8    1  0.1112929E+005  0.1043930E+01  0.7957747E-01            NaN
         13   -1    0    0    0    0  0.00000000000E+00  0.00000000000E+00  0.74505805969E-08  0.10566000000E+00  0.10566000000E+00 0. -1.
     999900   -1    0    0    0    0 -0.00000000000E+00 -0.00000000000E+00 -0.74505805969E-08  0.93827000000E+00  0.93827000000E+00 0.  1.
     999902    2    1    2    0    0  0.22006596430E-01 -0.47535618583E-02  0.85247083502E-02  0.10198560039E+01  0.10195718275E+01 0.  0.
     999903    2    3    3    0    0 -0.62146816871E-01  0.10582787122E+00 -0.30648729303E-01  0.12809111977E+00  0.20155028675E-01 0.  0.
         14    1    1    2    0    0 -0.22006596430E-01  0.47535618583E-02 -0.85247083502E-02  0.24073996121E-01  0.00000000000E+00 0. -1.
     999901    1    3    3    0    0  0.84153413301E-01 -0.11058143308E+00  0.39173437654E-01  0.89176488411E+00  0.88000000000E+00 0. -1.
        -11    1    4    4    0    0 -0.43836506320E-01  0.90197412813E-01 -0.24331277428E-01  0.10319634076E+00  0.51100000000E-03 0.  1.
         11    1    4    4    0    0 -0.18310310551E-01  0.15630458411E-01 -0.63174518755E-02  0.24894779007E-01  0.51100000000E-03 0. -1.
</event>
<event>
 8    1  0.1112929E+005  0.1043930E+01  0.7957747E-01            NaN
         13   -1    0    0    0    0  0.00000000000E+00  0.00000000000E+00  0.74505805969E-08  0.10566000000E+00  0.10566000000E+00 0. -1.
     999900   -1    0    0    0    0 -0.00000000000E+00 -0.00000000000E+00 -0.74505805969E-08  0.93827000000E+00  0.93827000000E+00 0.  1.
     999902    2    1    2    0    0 -0.17719075781E-01 -0.79675162213E-02 -0.75607453229E-02  0.10230826541E+01  0.10228702290E+01 0.  0.
     999903    2    3    3    0    0 -0.78703361806E-01 -0.27498583387E-01  0.10313119984E+00  0.13383957572E+00  0.18071978283E-01 0.  0.
         14    1    1    2    0    0  0.17719075781E-01  0.79675162213E-02  0.75607453229E-02  0.20847345900E-01  0.00000000000E+00 0.  1.
     999901    1    3    3    0    0  0.60984286026E-01  0.19531067166E-01 -0.11069194517E+00  0.88924307838E+00  0.88000000000E+00 0. -1.
        -11    1    4    4    0    0 -0.13759557095E-01 -0.56742980141E-02  0.30791361275E-01  0.34203685760E-01  0.51100000000E-03 0. -1.
         11    1    4    4    0    0 -0.64943804711E-01 -0.21824285373E-01  0.72339838568E-01  0.99635889957E-01  0.51100000000E-03 0.  1.
</event>
<event>
 8    1  0.1112929E+005  0.1043930E+01  0.7957747E-01            NaN
         13   -1    0    0    0    0  0.00000000000E+00  0.00000000000E+00  0.74505805969E-08  0.10566000000E+00  0.10566000000E+00 0. -1.
     999900   -1    0    0    0    0 -0.00000000000E+00 -0.00000000000E+00 -0.74505805969E-08  0.93827000000E+00  0.93827000000E+00 0. -1.
     999902    2    1    2    0    0 -0.10615929441E-01 -0.56634248283E-02  0.17790646555E-01  0.10224525829E+01  0.10222269831E+01 0.  0.
     999903    2    3    3    0    0 -0.96084306995E-01 -0.58971412456E-01 -0.66990016588E-01  0.13265803028E+00  0.20016721431E-01 0.  0.
         14    1    1    2    0    0  0.10615929441E-01  0.56634248283E-02 -0.17790646555E-01  0.21477417059E-01  0.00000000000E+00 0.  1.
     999901    1    3    3    0    0  0.85468377553E-01  0.53307987628E-01  0.84780663143E-01  0.88979455266E+00  0.88000000000E+00 0.  1.
        -11    1    4    4    0    0 -0.38456508495E-01 -0.28190216978E-01 -0.38904298133E-01  0.61541830596E-01  0.51100000000E-03 0.  1.
         11    1    4    4    0    0 -0.57627798499E-01 -0.30781195478E-01 -0.28085718455E-01  0.71116199681E-01  0.51100000000E-03 0. -1.
</event>
<event>
 8    1  0.1112929E+005  0.1043930E+01  0.7957747E-01            NaN
         13   -1    0    0    0    0  0.00000000000E+00  0.00000000000E+00  0.74505805969E-08  0.10566000000E+00  0.10566000000E+00 0. -1.
     999900   -1    0    0    0    0 -0.00000000000E+00 -0.00000000000E+00 -0.74505805969E-08  0.93827000000E+00  0.93827000000E+00 0. -1.
     999902    2    1    2    0    0 -0.21641609424E-01  0.64410436047E-02 -0.72209670897E-02  0.10202236998E+01  0.10199482384E+01 0.  0.
     999903    2    3    3    0    0 -0.92849860251E-01  0.77936843288E-01  0.49999560701E-01  0.13261091650E+00  0.19759833380E-01 0.  0.
         14    1    1    2    0    0  0.21641609424E-01 -0.64410436047E-02  0.72209670897E-02  0.23706300152E-01  0.00000000000E+00 0. -1.
     999901    1    3    3    0    0  0.71208250827E-01 -0.71495799683E-01 -0.57220527790E-01  0.88761278335E+00  0.88000000000E+00 0. -1.
        -11    1    4    4    0    0 -0.54047807570E-01  0.32908092369E-01  0.28466595722E-01  0.69388156334E-01  0.51100000000E-03 0. -1.
         11    1    4    4    0    0 -0.38802052681E-01  0.45028750919E-01  0.21532964979E-01  0.63222760169E-01  0.51100000000E-03 0.  1.
</event>
<event>
 8    1  0.1112929E+005  0.1043930E+01  0.7957747E-01            NaN
         13   -1    0    0    0    0  0.00000000000E+00  0.00000000000E+00  0.74505805969E-08  0.10566000000E+00  0.10566000000E+00 0. -1.
     999900   -1    0    0    0    0 -0.00000000000E+00 -0.00000000000E+00 -0.74505805969E-08  0.93827000000E+00  0.93827000000E+00 0. -1.
     999902    2    1    2    0    0 -0.23670862915E-02  0.15896847430E-01 -0.25578417790E-01  0.10137212544E+01  0.10132710463E+01 0.  0.
     999903    2    3    3    0    0 -0.19647176729E-01 -0.59932147138E-01  0.10152774281E+00  0.12119416010E+00  0.20056621593E-01 0.  0.
         14    1    1    2    0    0  0.23670862915E-02 -0.15896847430E-01  0.25578417790E-01  0.30208745628E-01  0.00000000000E+00 0. -1.
     999901    1    3    3    0    0  0.17280090438E-01  0.75828994568E-01 -0.12710616060E+00  0.89252709427E+00  0.88000000000E+00 0. -1.
        -11    1    4    4    0    0 -0.60998273330E-02 -0.49205864498E-02  0.51348987942E-02  0.93834093553E-02  0.51100000000E-03 0.  1.
         11    1    4    4    0    0 -0.13547349396E-01 -0.55011560688E-01  0.96392844013E-01  0.11181075075E+00  0.51100000000E-03 0. -1.
</event>
<event>
 8    1  0.1112929E+005  0.1043930E+01  0.7957747E-01            NaN
         13   -1    0    0    0    0  0.00000000000E+00  0.00000000000E+00  0.74505805969E-08  0.10566000000E+00  0.10566000000E+00 0. -1.
     999900   -1    0    0    0    0 -0.00000000000E+00 -0.00000000000E+00 -0.74505805969E-08  0.93827000000E+00  0.93827000000E+00 0. -1.
     999902    2    1    2    0    0 -0.10471875805E-01  0.15428894060E-01  0.14202646270E-01  0.10204901596E+01  0.10202209270E+01 0.  0.
     999903    2    3    3    0    0 -0.12656388427E+00 -0.30332533696E-01  0.40329866571E-02  0.13162859299E+00  0.19270238954E-01 0.  0.
         14    1    1    2    0    0  0.10471875805E-01 -0.15428894060E-01 -0.14202646270E-01  0.23439840355E-01  0.00000000000E+00 0.  1.
     999901    1    3    3    0    0  0.11609200846E+00  0.45761427756E-01  0.10169659613E-01  0.88886156665E+00  0.88000000000E+00 0. -1.
        -11    1    4    4    0    0 -0.12680482233E-01  0.12784817958E-02  0.42300207931E-02  0.13438130163E-01  0.51100000000E-03 0.  1.
         11    1    4    4    0    0 -0.11388340204E+00 -0.31611015492E-01 -0.19703413606E-03  0.11819046283E+00  0.51100000000E-03 0. -1.
</event>
<event>
 8    1  0.1112929E+005  0.1043930E+01  0.7957747E-01            NaN
         13   -1    0    0    0    0  0.00000000000E+00  0.00000000000E+00  0.74505805969E-08  0.10566000000E+00  0.10566000000E+00 0.  1.
     999900   -1    0    0    0    0 -0.00000000000E+00 -0.00000000000E+00 -0.74505805969E-08  0.93827000000E+00  0.93827000000E+00 0. -1.
     999902    2    1    2    0    0 -0.23046534764E-01  0.30624750477E-02  0.56842763722E-02  0.10199960802E+01  0.10197152402E+01 0.  0.
     999903    2    3    3    0    0 -0.11747211857E-01  0.95512840797E-01 -0.85615433780E-01  0.13038359048E+00  0.20228159145E-01 0.  0.
         14    1    1    2    0    0  0.23046534764E-01 -0.30624750477E-02 -0.56842763722E-02  0.23933919778E-01  0.00000000000E+00 0.  1.
     999901    1    3    3    0    0 -0.11299322907E-01 -0.92450365749E-01  0.91299710152E-01  0.88961248974E+00  0.88000000000E+00 0.  1.
        -11    1    4    4    0    0 -0.95064076509E-02  0.43938663059E-01 -0.52179950536E-01  0.68876601664E-01  0.51100000000E-03 0.  1.
         11    1    4    4    0    0 -0.22408042063E-02  0.51574177738E-01 -0.33435483244E-01  0.61506988819E-01  0.51100000000E-03 0. -1.
</event>
<event>
 8    1  0.1112929E+005  0.1043930E+01  0.7957747E-01            NaN
         13   -1    0    0    0    0  0.00000000000E+00  0.00000000000E+00  0.74505805969E-08  0.10566000000E+00  0.10566000000E+00 0.  1.
     999900   -1    0    0    0    0 -0.00000000000E+00 -0.00000000000E+00 -0.74505805969E-08  0.93827000000E+00  0.93827000000E+00 0. -1.
     999902    2    1    2    0    0 -0.13761075060E-01 -0.20495701582E-01  0.95932231094E-02  0.10174447041E+01  0.10170999238E+01 0.  0.
     999903    2    3    3    0    0  0.86069533377E-01  0.88223255273E-01 -0.27294441285E-02  0.12506708778E+00  0.21048022062E-01 0.  0.
         14    1    1    2    0    0  0.13761075060E-01  0.20495701582E-01 -0.95932231094E-02  0.26485295916E-01  0.00000000000E+00 0. -1.
     999901    1    3    3    0    0 -0.99830608437E-01 -0.10871895685E+00  0.12322667238E-01  0.89237761631E+00  0.88000000000E+00 0.  1.
        -11    1    4    4    0    0  0.70203217080E-02  0.65134866500E-02  0.55416056216E-02  0.11076142789E-01  0.51100000000E-03 0. -1.
         11    1    4    4    0    0  0.79049211669E-01  0.81709768623E-01 -0.82710497501E-02  0.11399094499E+00  0.51100000000E-03 0.  1.
</event>
<event>
 8    1  0.1112929E+005  0.1043930E+01  0.7957747E-01            NaN
         13   -1    0    0    0    0  0.00000000000E+00  0.00000000000E+00  0.74505805969E-08  0.10566000000E+00  0.10566000000E+00 0.  1.
     999900   -1    0    0    0    0 -0.00000000000E+00 -0.00000000000E+00 -0.74505805969E-08  0.93827000000E+00  0.93827000000E+00 0.  1.
     999902    2    1    2    0    0 -0.20256598380E-01 -0.90141267145E-02 -0.59933869835E-02  0.10209625242E+01  0.10207041544E+01 0.  0.
     999903    2    3    3    0    0 -0.10812239241E+00  0.25071685979E-01  0.70011832891E-01  0.13267257498E+00  0.19527268857E-01 0.  0.
         14    1    1    2    0    0  0.20256598380E-01  0.90141267145E-02  0.59933869835E-02  0.22967475828E-01  0.00000000000E+00 0. -1.
     999901    1    3    3    0    0  0.87865794030E-01 -0.34085812694E-01 -0.76005219874E-01  0.88828994919E+00  0.88000000000E+00 0.  1.
        -11    1    4    4    0    0 -0.83232824249E-01  0.21825505490E-01  0.62876110646E-01  0.10657261437E+00  0.51100000000E-03 0. -1.
         11    1    4    4    0    0 -0.24889568160E-01  0.32461804891E-02  0.71357222442E-02  0.26099960612E-01  0.51100000000E-03 0.  1.
</event>
<event>
 8    1  0.1112929E+005  0.1043930E+01  0.7957747E-01            NaN
         13   -1    0    0    0    0  0.00000000000E+00  0.00000000000E+00  0.74505805969E-08  0.10566000000E+00  0.10566000000E+00 0. -1.
     999900   -1    0    0    0    0 -0.00000000000E+00 -0.00000000000E+00 -0.74505805969E-08  0.93827000000E+00  0.93827000000E+00 0. -1.
     999902    2    1    2    0    0  0.18931221694E-01 -0.11299544377E-01 -0.80155599361E-02  0.10204710985E+01  0.10202014227E+01 0.  0.
     999903    2    3    3    0    0 -0.55412251917E-01  0.11362101299E+00 -0.10044157107E-01  0.12854273091E+00  0.21026086745E-01 0.  0.
         14    1    1    2    0    0 -0.18931221694E-01  0.11299544377E-01  0.80155599361E-02  0.23458901488E-01  0.00000000000E+00 0. -1.
     999901    1    3    3    0    0  0.74343473611E-01 -0.12492055736E+00  0.20285971713E-02  0.89192836760E+00  0.88000000000E+00 0. -1.
        -11    1    4    4    0    0 -0.40371423092E-01  0.99386975063E-01 -0.10779720868E-01  0.10781505515E+00  0.51100000000E-03 0.  1.
         11    1    4    4    0    0 -0.15040828825E-01  0.14234037925E-01  0.73556376028E-03  0.20727675761E-01  0.51100000000E-03 0. -1.
</event>
<event>
 8    1  0.1112929E+005  0.1043930E+01  0.7957747E-01            NaN
         13   -1    0    0    0    0  0.00000000000E+00  0.00000000000E+00  0.74505805969E-08  0.10566000000E+00  0.10566000000E+00 0. -1.
     999900   -1    0    0    0    0 -0.00000000000E+00 -0.00000000000E+00 -0.74505805969E-08  0.93827000000E+00  0.93827000000E+00 0.  1.
     999902    2    1    2    0    0  0.17480258603E-01  0.11856471474E-01  0.11964010111E-01  0.10196550562E+01  0.10193660583E+01 0.  0.
     999903    2    3    3    0    0  0.59276282277E-01 -0.10419261071E+00  0.48310380478E-01  0.13030959147E+00  0.16640883350E-01 0.  0.
         14    1    1    2    0    0 -0.17480258603E-01 -0.11856471474E-01 -0.11964010111E-01  0.24274943761E-01  0.00000000000E+00 0.  1.
     999901    1    3    3    0    0 -0.41796023675E-01  0.11604908219E+00 -0.36346370367E-01  0.88934546477E+00  0.88000000000E+00 0. -1.
        -11    1    4    4    0    0  0.18969282205E-01 -0.19894763316E-01  0.88970515215E-02  0.28897299554E-01  0.51100000000E-03 0. -1.
         11    1    4    4    0    0  0.40307000073E-01 -0.84297847397E-01  0.39413328957E-01  0.10141229191E+00  0.51100000000E-03 0.  1.
</event>
<event>
 8    1  0.1112929E+005  0.1043930E+01  0.7957747E-01            NaN
         13   -1    0    0    0    0  0.00000000000E+00  0.00000000000E+00  0.74505805969E-08  0.10566000000E+00  0.10566000000E+00 0.  1.
     999900   -1    0    0    0    0 -0.00000000000E+00 -0.00000000000E+00 -0.74505805969E-08  0.93827000000E+00  0.93827000000E+00 0.  1.
     999902    2    1    2    0    0  0.31001951140E-02 -0.18275646018E-01  0.22804107802E-01  0.10145422852E+01  0.10141165666E+01 0.  0.
     999903    2    3    3    0    0  0.11302120146E+00 -0.54359478374E-02 -0.48513565128E-01  0.12474809781E+00  0.20129093297E-01 0.  0.
         14    1    1    2    0    0 -0.31001951140E-02  0.18275646018E-01 -0.22804107802E-01  0.29387714776E-01  0.00000000000E+00 0. -1.
     999901    1    3    3    0    0 -0.10992100635E+00 -0.12839698181E-01  0.71317672930E-01  0.88979418742E+00  0.88000000000E+00 0. -1.
        -11    1    4    4    0    0  0.49781390382E-01 -0.20277302343E-02 -0.32276875282E-01  0.59366289401E-01  0.51100000000E-03 0. -1.
         11    1    4    4    0    0  0.63239811079E-01 -0.34082176031E-02 -0.16236689846E-01  0.65381808408E-01  0.51100000000E-03 0.  1.
</event>
<event>
 8    1  0.1112929E+005  0.1043930E+01  0.7957747E-01            NaN
         13   -1    0    0    0    0  0.00000000000E+00  0.00000000000E+00  0.74505805969E-08  0.10566000000E+00  0.10566000000E+00 0.  1.
     999900   -1    0    0    0    0 -0.00000000000E+00 -0.00000000000E+00 -0.74505805969E-08  0.93827000000E+00  0.93827000000E+00 0. -1.
     999902    2    1    2    0    0 -0.11548844759E-01 -0.14219935018E-01  0.14786381717E-01  0.10203881341E+01  0.10201165251E+01 0.  0.
     999903    2    3    3    0    0 -0.52794464667E-01  0.11633397540E+00 -0.50937938026E-02  0.12957909389E+00  0.21070014379E-01 0.  0.
         14    1    1    2    0    0  0.11548844759E-01  0.14219935018E-01 -0.14786381717E-01  0.23541865930E-01  0.00000000000E+00 0.  1.
     999901    1    3    3    0    0  0.41245619908E-01 -0.13055391042E+00  0.19880175519E-01  0.89080904018E+00  0.88000000000E+00 0. -1.
        -11    1    4    4    0    0 -0.29812191711E-01  0.45708230799E-01 -0.84837635390E-02  0.55229018660E-01  0.51100000000E-03 0. -1.
         11    1    4    4    0    0 -0.22982272955E-01  0.70625744603E-01  0.33899697364E-02  0.74350075230E-01  0.51100000000E-03 0.  1.
</event>
<event>
 8    1  0.1112929E+005  0.1043930E+01  0.7957747E-01            NaN
         13   -1    0    0    0    0  0.00000000000E+00  0.00000000000E+00  0.74505805969E-08  0.10566000000E+00  0.10566000000E+00 0. -1.
     999900   -1    0    0    0    0 -0.00000000000E+00 -0.00000000000E+00 -0.74505805969E-08  0.93827000000E+00  0.93827000000E+00 0.  1.
     999902    2    1    2    0    0 -0.27145740945E-01 -0.15819847165E-02 -0.17474047737E-02  0.10166821129E+01  0.10163169148E+01 0.  0.
     999903    2    3    3    0    0  0.57610099772E-01  0.42131872808E-01 -0.10175207271E+00  0.12589853231E+00  0.20073311497E-01 0.  0.
         14    1    1    2    0    0  0.27145740945E-01  0.15819847165E-02  0.17474047737E-02  0.27247887084E-01  0.00000000000E+00 0.  1.
     999901    1    3    3    0    0 -0.84755840717E-01 -0.43713857525E-01  0.10000466793E+00  0.89078358061E+00  0.88000000000E+00 0. -1.
        -11    1    4    4    0    0  0.33480813263E-01  0.30781156826E-01 -0.49434111502E-01  0.67174675089E-01  0.51100000000E-03 0. -1.
         11    1    4    4    0    0  0.24129286509E-01  0.11350715982E-01 -0.52317961206E-01  0.58723857217E-01  0.51100000000E-03 0.  1.
</event>
<event>
 8    1  0.1112929E+005  0.1043930E+01  0.7957747E-01            NaN
         13   -1    0    0    0    0  0.00000000000E+00  0.00000000000E+00  0.74505805969E-08  0.10566000000E+00  0.10566000000E+00 0. -1.
     999900   -1    0    0    0    0 -0.00000000000E+00 -0.00000000000E+00 -0.74505805969E-08  0.93827000000E+00  0.93827000000E+00 0. -1.
     999902    2    1    2    0    0 -0.11260850885E-01  0.18652799979E-01 -0.87446384926E-02  0.10204522997E+01  0.10201821864E+01 0.  0.
     999903    2    3    3    0    0  0.57522709676E-01 -0.10104075713E+00  0.49228561422E-01  0.12780532707E+00  0.19815489837E-01 0.  0.
         14    1    1    2    0    0  0.11260850885E-01 -0.18652799979E-01  0.87446384926E-02  0.23477700315E-01  0.00000000000E+00 0. -1.
     999901    1    3    3    0    0 -0.68783560561E-01  0.11969355711E+00 -0.57973199914E-01  0.89264697262E+00  0.88000000000E+00 0.  1.
        -11    1    4    4    0    0  0.16261448440E-01 -0.38201835559E-01  0.26542193855E-01  0.49280463889E-01  0.51100000000E-03 0.  1.
         11    1    4    4    0    0  0.41261261236E-01 -0.62838921569E-01  0.22686367567E-01  0.78524863178E-01  0.51100000000E-03 0. -1.
</event>
<event>
 8    1  0.1112929E+005  0.1043930E+01  0.7957747E-01            NaN
         13   -1    0    0    0    0  0.00000000000E+00  0.00000000000E+00  0.74505805969E-08  0.10566000000E+00  0.10566000000E+00 0.  1.
     999900   -1    0    0    0    0 -0.00000000000E+00 -0.00000000000E+00 -0.74505805969E-08  0.93827000000E+00  0.93827000000E+00 0.  1.
     999902    2    1    2    0    0  0.64987781390E-02  0.54642830049E-02  0.21295377148E-01  0.10210043464E+01  0.10207469274E+01 0.  0.
     999903    2    3    3    0    0 -0.23593925851E-01  0.12545039690E+00  0.27989274964E-01  0.13232721343E+00  0.20799434654E-01 0.  0.
         14    1    1    2    0    0 -0.64987781390E-02 -0.54642830049E-02 -0.21295377148E-01  0.22925653621E-01  0.00000000000E+00 0. -1.
     999901    1    3    3    0    0  0.30092703990E-01 -0.11998611389E+00 -0.66938978161E-02  0.88867713295E+00  0.88000000000E+00 0.  1.
        -11    1    4    4    0    0 -0.18773570052E-01  0.69521897046E-01  0.24550965028E-01  0.76083849181E-01  0.51100000000E-03 0. -1.
         11    1    4    4    0    0 -0.48203557983E-02  0.55928499852E-01  0.34383099366E-02  0.56243364248E-01  0.51100000000E-03 0.  1.
</event>
<event>
 8    1  0.1112929E+005  0.1043930E+01  0.7957747E-01            NaN
         13   -1    0    0    0    0  0.00000000000E+00  0.00000000000E+00  0.74505805969E-08  0.10566000000E+00  0.10566000000E+00 0. -1.
     999900   -1    0    0    0    0 -0.00000000000E+00 -0.00000000000E+00 -0.74505805969E-08  0.93827000000E+00  0.93827000000E+00 0. -1.
     999902    2    1    2    0    0 -0.15919778921E-01  0.28926422233E-02 -0.16040534737E-01  0.10211461133E+01  0.10208919038E+01 0.  0.
     999903    2    3    3    0    0  0.37380807015E-01  0.11287225972E+00 -0.53534629975E-01  0.13190920676E+00  0.19915081523E-01 0.  0.
         14    1    1    2    0    0  0.15919778921E-01 -0.28926422233E-02  0.16040534737E-01  0.22783886731E-01  0.00000000000E+00 0. -1.
     999901    1    3    3    0    0 -0.53300585936E-01 -0.10997961750E+00  0.37494095238E-01  0.88923690651E+00  0.88000000000E+00 0.  1.
        -11    1    4    4    0    0  0.29175268578E-01  0.74944848794E-01 -0.26757016533E-01  0.84759221988E-01  0.51100000000E-03 0. -1.
         11    1    4    4    0    0  0.82055384374E-02  0.37927410931E-01 -0.26777613443E-01  0.47149984768E-01  0.51100000000E-03 0.  1.
</event>
<event>
 8    1  0.1112929E+005  0.1043930E+01  0.7957747E-01            NaN
         13   -1    0    0    0    0  0.00000000000E+00  0.00000000000E+00  0.74505805969E-08  0.10566000000E+00  0.10566000000E+00 0. -1.
     999900   -1    0    0    0    0 -0.00000000000E+00 -0.00000000000E+00 -0.74505805969E-08  0.93827000000E+00  0.93827000000E+00 0.  1.
     999902    2    1    2    0    0  0.16283667797E-01  0.16247659496E-01  0.48245677333E-02  0.10204263677E+01  0.10201556505E+01 0.  0.
     999903    2    3    3    0    0 -0.10412990290E-01 -0.32591754632E-01 -0.12330872118E+00  0.12940664873E+00  0.19245445644E-01 0.  0.
         14    1    1    2    0    0 -0.16283667797E-01 -0.16247659496E-01 -0.48245677333E-02  0.23503632269E-01  0.00000000000E+00 0. -1.
     999901    1    3    3    0    0  0.26696658088E-01  0.48839414129E-01  0.12813328892E+00  0.89101971900E+00  0.88000000000E+00 0. -1.
        -11    1    4    4    0    0 -0.67719436886E-02 -0.25088541624E-01 -0.57898244251E-01  0.63464651189E-01  0.51100000000E-03 0.  1.
         11    1    4    4    0    0 -0.36410466018E-02 -0.75032130079E-02 -0.65410476932E-01  0.65941997538E-01  0.51100000000E-03 0. -1.
</event>
<event>
 8    1  0.1112929E+005  0.1043930E+01  0.7957747E-01            NaN
         13   -1    0    0    0    0  0.00000000000E+00  0.00000000000E+00  0.74505805969E-08  0.10566000000E+00  0.10566000000E+00 0. -1.
     999900   -1    0    0    0    0 -0.00000000000E+00 -0.00000000000E+00 -0.74505805969E-08  0.93827000000E+00  0.93827000000E+00 0.  1.
     999902    2    1    2    0    0  0.13564153290E-01  0.26160672667E-02  0.18844846792E-01  0.10205642491E+01  0.10202967354E+01 0.  0.
     999903    2    3    3    0    0  0.11915070059E-01 -0.12686005552E+00 -0.18173400776E-01  0.13031870071E+00  0.20426665872E-01 0.  0.
         14    1    1    2    0    0 -0.13564153290E-01 -0.26160672667E-02 -0.18844846792E-01  0.23365750856E-01  0.00000000000E+00 0.  1.
     999901    1    3    3    0    0  0.16490832311E-02  0.12947612279E+00  0.37018247568E-01  0.89024554843E+00  0.88000000000E+00 0.  1.
        -11    1    4    4    0    0 -0.45117047377E-02 -0.38881912912E-01 -0.10267057212E-01  0.40470139809E-01  0.51100000000E-03 0.  1.
         11    1    4    4    0    0  0.16426774797E-01 -0.87978142609E-01 -0.79063435635E-02  0.89848560905E-01  0.51100000000E-03 0. -1.
</event>
<event>
 8    1  0.1112929E+005  0.1043930E+01  0.7957747E-01            NaN
         13   -1    0    0    0    0  0.00000000000E+00  0.00000000000E+00  0.74505805969E-08  0.10566000000E+00  0.10566000000E+00 0. -1.
     999900   -1    0    0    0    0 -0.00000000000E+00 -0.00000000000E+00 -0.74505805969E-08  0.93827000000E+00  0.93827000000E+00 0. -1.
     999902    2    1    2    0    0  0.19319329628E-03  0.19916110643E-01 -0.14442457150E-01  0.10193276961E+01  0.10190307546E+01 0.  0.
     999903    2    3    3    0    0 -0.14010299192E-01 -0.89763776483E-01  0.86410692126E-01  0.12668959783E+00  0.18155506925E-01 0.  0.
         14    1    1    2    0    0 -0.19319329628E-03 -0.19916110643E-01  0.14442457150E-01  0.24602303862E-01  0.00000000000E+00 0. -1.
     999901    1    3    3    0    0  0.14203492488E-01  0.10967988713E+00 -0.10085314928E+00  0.89263809831E+00  0.88000000000E+00 0. -1.
        -11    1    4    4    0    0  0.18945659213E-02 -0.11554571343E-01  0.18478115196E-01  0.21881484436E-01  0.51100000000E-03 0. -1.
         11    1    4    4    0    0 -0.15904865113E-01 -0.78209205140E-01  0.67932576930E-01  0.10480811339E+00  0.51100000000E-03 0.  1.
</event>
<event>
 8    1  0.1112929E+005  0.1043930E+01  0.7957747E-01            NaN
         13   -1    0    0    0    0  0.00000000000E+00  0.00000000000E+00  0.74505805969E-08  0.10566000000E+00  0.10566000000E+00 0.  1.
     999900   -1    0    0    0    0 -0.00000000000E+00 -0.00000000000E+00 -0.74505805969E-08  0.93827000000E+00  0.93827000000E+00 0.  1.
     999902    2    1    2    0    0  0.12110951457E-02  0.15965011798E-01 -0.17213445199E-01  0.10204214686E+01  0.10201506372E+01 0.  0.
     999903    2    3    3    0    0  0.13076655784E-01 -0.10397510763E+00  0.70485967348E-01  0.12788709349E+00  0.20124988330E-01 0.  0.
         14    1    1    2    0    0 -0.12110951457E-02 -0.15965011798E-01  0.17213445199E-01  0.23508531404E-01  0.00000000000E+00 0.  1.
     999901    1    3    3    0    0 -0.11865560638E-01  0.11994011943E+00 -0.87699412547E-01  0.89253437510E+00  0.88000000000E+00 0.  1.
        -11    1    4    4    0    0  0.20058281210E-02 -0.55230945344E-01  0.47460593483E-01  0.72850873192E-01  0.51100000000E-03 0. -1.
         11    1    4    4    0    0  0.11070827663E-01 -0.48744162289E-01  0.23025373864E-01  0.55036220301E-01  0.51100000000E-03 0.  1.
</event>
<event>
 8    1  0.1112929E+005  0.1043930E+01  0.7957747E-01            NaN
         13   -1    0    0    0    0  0.00000000000E+00  0.00000000000E+00  0.74505805969E-08  0.10566000000E+00  0.10566000000E+00 0.  1.
     999900   -1    0    0    0    0 -0.00000000000E+00 -0.00000000000E+00 -0.74505805969E-08  0.93827000000E+00  0.93827000000E+00 0. -1.
     999902    2    1    2    0    0  0.57124911558E-02 -0.49790123582E-02 -0.22687133137E-01  0.10200107791E+01  0.10197302880E+01 0.  0.
     999903    2    3    3    0    0 -0.70191256011E-01 -0.37825388045E-01  0.98175658535E-01  0.12790760252E+00  0.19087232686E-01 0.  0.
         14    1    1    2    0    0 -0.57124911558E-02  0.49790123582E-02  0.22687133137E-01  0.23919220916E-01  0.00000000000E+00 0.  1.
     999901    1    3    3    0    0  0.75903747167E-01  0.32846375687E-01 -0.12086279167E+00  0.89210317657E+00  0.88000000000E+00 0. -1.
        -11    1    4    4    0    0 -0.31905208423E-01 -0.23091943204E-01  0.60589116971E-01  0.72266744646E-01  0.51100000000E-03 0.  1.
         11    1    4    4    0    0 -0.38286047588E-01 -0.14733444841E-01  0.37586541564E-01  0.55640857870E-01  0.51100000000E-03 0. -1.
</event>
<event>
 8    1  0.1112929E+005  0.1043930E+01  0.7957747E-01            NaN
         13   -1    0    0    0    0  0.00000000000E+00  0.00000000000E+00  0.74505805969E-08  0.10566000000E+00  0.10566000000E+00 0. -1.
     999900   -1    0    0    0    0 -0.00000000000E+00 -0.00000000000E+00 -0.74505805969E-08  0.93827000000E+00  0.93827000000E+00 0. -1.
     999902    2    1    2    0    0 -0.10696927349E-01  0.14416604516E-01  0.15757523493E-01  0.10200435543E+01  0.10197638405E+01 0.  0.
     999903    2    3    3    0    0 -0.53940533303E-01  0.11767682953E+00  0.22582429528E-01  0.13292503751E+00  0.20042009225E-01 0.  0.
         14    1    1    2    0    0  0.10696927349E-01 -0.14416604516E-01 -0.15757523493E-01  0.23886445677E-01  0.00000000000E+00 0.  1.
     999901    1    3    3    0    0  0.43243605954E-01 -0.10326022501E+00 -0.68249060348E-02  0.88711851681E+00  0.88000000000E+00 0.  1.
        -11    1    4    4    0    0 -0.11858721183E-01  0.42855802193E-01  0.14154452880E-01  0.46667533758E-01  0.51100000000E-03 0.  1.
         11    1    4    4    0    0 -0.42081812120E-01  0.74821027334E-01  0.84279766477E-02  0.86257503755E-01  0.51100000000E-03 0. -1.
</event>
<event>
 8    1  0.1112929E+005  0.1043930E+01  0.7957747E-01            NaN
         13   -1    0    0    0    0  0.00000000000E+00  0.00000000000E+00  0.74505805969E-08  0.10566000000E+00  0.10566000000E+00 0.  1.
     999900   -1    0    0    0    0 -0.00000000000E+00 -0.00000000000E+00 -0.74505805969E-08  0.93827000000E+00  0.93827000000E+00 0. -1.
     999902    2    1    2    0    0  0.70720732438E-02  0.21912777660E-02 -0.22558877525E-01  0.10201872353E+01  0.10199109159E+01 0.  0.
     999903    2    3    3    0    0 -0.27167106710E-01 -0.12359956910E+00  0.19849979771E-01  0.12957274536E+00  0.19497935133E-01 0.  0.
         14    1    1    2    0    0 -0.70720732438E-02 -0.21912777660E-02  0.22558877525E-01  0.23742764654E-01  0.00000000000E+00 0.  1.
     999901    1    3    3    0    0  0.34239179954E-01  0.12579084686E+00 -0.42408857296E-01  0.89061448999E+00  0.88000000000E+00 0. -1.
        -11    1    4    4    0    0  0.89401170928E-03 -0.13904113599E-03  0.12143440025E-02  0.15982308126E-02  0.51100000000E-03 0.  1.
         11    1    4    4    0    0 -0.28061118420E-01 -0.12346052796E+00  0.18635635768E-01  0.12797451455E+00  0.51100000000E-03 0. -1.
</event>
<event>
 8    1  0.1112929E+005  0.1043930E+01  0.7957747E-01            NaN
         13   -1    0    0    0    0  0.00000000000E+00  0.00000000000E+00  0.74505805969E-08  0.10566000000E+00  0.10566000000E+00 0.  1.
     999900   -1    0    0    0    0 -0.00000000000E+00 -0.00000000000E+00 -0.74505805969E-08  0.93827000000E+00  0.93827000000E+00 0. -1.
     999902    2    1    2    0    0 -0.12765701235E-01  0.19081742445E-01 -0.49051121868E-02  0.10204537109E+01  0.10201836305E+01 0.  0.
     999903    2    3    3    0    0 -0.73728352199E-01 -0.10432380471E+00 -0.12345687960E-01  0.12972326010E+00  0.18878083923E-01 0.  0.
         14    1    1    2    0    0  0.12765701235E-01 -0.19081742445E-01  0.49051121868E-02  0.23476289066E-01  0.00000000000E+00 0. -1.
     999901    1    3    3    0    0  0.60962650963E-01  0.12340554715E+00  0.74405757733E-02  0.89073045084E+00  0.88000000000E+00 0.  1.
        -11    1    4    4    0    0 -0.69164916485E-01 -0.96038222596E-01 -0.63723033291E-02  0.11852423061E+00  0.51100000000E-03 0. -1.
         11    1    4    4    0    0 -0.45634357135E-02 -0.82855821102E-02 -0.59733846310E-02  0.11199029483E-01  0.51100000000E-03 0.  1.
</event>
<event>
 8    1  0.1112929E+005  0.1043930E+01  0.7957747E-01            NaN
         13   -1    0    0    0    0  0.00000000000E+00  0.00000000000E+00  0.74505805969E-08  0.10566000000E+00  0.10566000000E+00 0. -1.
     999900   -1    0    0    0    0 -0.00000000000E+00 -0.00000000000E+00 -0.74505805969E-08  0.93827000000E+00  0.93827000000E+00 0.  1.
     999902    2    1    2    0    0  0.56373720118E-02  0.23462995827E-01 -0.67467626147E-03  0.10197898400E+01  0.10195040806E+01 0.  0.
     999903    2    3    3    0    0 -0.67700042972E-02  0.10814201103E+00  0.73772807287E-01  0.13250921562E+00  0.19383952713E-01 0.  0.
         14    1    1    2    0    0 -0.56373720118E-02 -0.23462995827E-01  0.67467626147E-03  0.24140159992E-01  0.00000000000E+00 0. -1.
     999901    1    3    3    0    0  0.12407376309E-01 -0.84679015200E-01 -0.74447483548E-01  0.88728062438E+00  0.88000000000E+00 0.  1.
        -11    1    4    4    0    0 -0.64748744985E-02  0.42681075049E-01  0.39966904741E-01  0.58832072569E-01  0.51100000000E-03 0. -1.
         11    1    4    4    0    0 -0.29512979872E-03  0.65460935978E-01  0.33805902546E-01  0.73677143054E-01  0.51100000000E-03 0.  1.
</event>
<event>
 8    1  0.1112929E+005  0.1043930E+01  0.7957747E-01            NaN
         13   -1    0    0    0    0  0.00000000000E+00  0.00000000000E+00  0.74505805969E-08  0.10566000000E+00  0.10566000000E+00 0. -1.
     999900   -1    0    0    0    0 -0.00000000000E+00 -0.00000000000E+00 -0.74505805969E-08  0.93827000000E+00  0.93827000000E+00 0.  1.
     999902    2    1    2    0    0 -0.18266397317E-01  0.15875026196E-01 -0.48245450736E-02  0.10192530074E+01  0.10189542380E+01 0.  0.
     999903    2    3    3    0    0  0.11927474230E+00 -0.36742679691E-01 -0.11155546319E-01  0.12699392529E+00  0.20652413598E-01 0.  0.
         14    1    1    2    0    0  0.18266397317E-01 -0.15875026196E-01  0.48245450736E-02  0.24676992581E-01  0.00000000000E+00 0. -1.
     999901    1    3    3    0    0 -0.13754113961E+00  0.52617705887E-01  0.63310012456E-02  0.89225908213E+00  0.88000000000E+00 0.  1.
        -11    1    4    4    0    0  0.91286802002E-01 -0.18654269154E-01 -0.82262233727E-02  0.93537125514E-01  0.51100000000E-03 0.  1.
         11    1    4    4    0    0  0.27987940293E-01 -0.18088410537E-01 -0.29293229466E-02  0.33456799780E-01  0.51100000000E-03 0. -1.
</event>
<event>
 8    1  0.1112929E+005  0.1043930E+01  0.7957747E-01            NaN
         13   -1    0    0    0    0  0.00000000000E+00  0.00000000000E+00  0.74505805969E-08  0.10566000000E+00  0.10566000000E+00 0.  1.
     999900   -1    0    0    0    0 -0.00000000000E+00 -0.00000000000E+00 -0.74505805969E-08  0.93827000000E+00  0.93827000000E+00 0. -1.
     999902    2    1    2    0    0  0.66573178845E-02  0.12321440874E-03 -0.16386388070E-01  0.10262424683E+01  0.10260900326E+01 0.  0.
     999903    2    3    3    0    0 -0.76222313141E-01 -0.10444536611E+00  0.32402485351E-01  0.13484806882E+00  0.20381488814E-01 0.  0.
         14    1    1    2    0    0 -0.66573178845E-02 -0.12321440874E-03  0.16386388070E-01  0.17687531687E-01  0.00000000000E+00 0.  1.
     999901    1    3    3    0    0  0.82879631025E-01  0.10456858052E+00 -0.48788873421E-01  0.89139439949E+00  0.88000000000E+00 0.  1.
        -11    1    4    4    0    0 -0.19185592980E-02 -0.59008816033E-02  0.59788333932E-02  0.86318505096E-02  0.51100000000E-03 0.  1.
         11    1    4    4    0    0 -0.74303753843E-01 -0.98544484506E-01  0.26423651958E-01  0.12621621831E+00  0.51100000000E-03 0. -1.
</event>
<event>
 8    1  0.1112929E+005  0.1043930E+01  0.7957747E-01            NaN
         13   -1    0    0    0    0  0.00000000000E+00  0.00000000000E+00  0.74505805969E-08  0.10566000000E+00  0.10566000000E+00 0. -1.
     999900   -1    0    0    0    0 -0.00000000000E+00 -0.00000000000E+00 -0.74505805969E-08  0.93827000000E+00  0.93827000000E+00 0.  1.
     999902    2    1    2    0    0  0.41302749672E-02 -0.23133376823E-01  0.27344560295E-02  0.10202722414E+01  0.10199979201E+01 0.  0.
     999903    2    3    3    0    0 -0.11189841011E+00  0.59403918807E-01 -0.13743600230E-01  0.12867446922E+00  0.17836836250E-01 0.  0.
         14    1    1    2    0    0 -0.41302749672E-02  0.23133376823E-01 -0.27344560295E-02  0.23657758650E-01  0.00000000000E+00 0. -1.
     999901    1    3    3    0    0  0.11602868508E+00 -0.82537295630E-01  0.16478056260E-01  0.89159777213E+00  0.88000000000E+00 0.  1.
        -11    1    4    4    0    0 -0.59979855607E-01  0.41681420498E-01 -0.93081063653E-02  0.73633048684E-01  0.51100000000E-03 0. -1.
         11    1    4    4    0    0 -0.51918554501E-01  0.17722498309E-01 -0.44354938648E-02  0.55041420536E-01  0.51100000000E-03 0.  1.
</event>
<event>
 8    1  0.1112929E+005  0.1043930E+01  0.7957747E-01            NaN
         13   -1    0    0    0    0  0.00000000000E+00  0.00000000000E+00  0.74505805969E-08  0.10566000000E+00  0.10566000000E+00 0.  1.
     999900   -1    0    0    0    0 -0.00000000000E+00 -0.00000000000E+00 -0.74505805969E-08  0.93827000000E+00  0.93827000000E+00 0.  1.
     999902    2    1    2    0    0 -0.15982694341E-01 -0.11543179335E-01  0.13018858016E-01  0.10203041207E+01  0.10200305469E+01 0.  0.
     999903    2    3    3    0    0  0.58063919947E-01  0.78420030041E-01 -0.80003840580E-01  0.12776308381E+00  0.20041735572E-01 0.  0.
         14    1    1    2    0    0  0.15982694341E-01  0.11543179335E-01 -0.13018858016E-01  0.23625879277E-01  0.00000000000E+00 0.  1.
     999901    1    3    3    0    0 -0.74046614288E-01 -0.89963209375E-01  0.93022698596E-01  0.89254103692E+00  0.88000000000E+00 0.  1.
        -11    1    4    4    0    0  0.48021626811E-01  0.61279548158E-01 -0.72903739114E-01  0.10666056423E+00  0.51100000000E-03 0.  1.
         11    1    4    4    0    0  0.10042293137E-01  0.17140481883E-01 -0.71001014654E-02  0.21102519576E-01  0.51100000000E-03 0. -1.
</event>
<event>
 8    1  0.1112929E+005  0.1043930E+01  0.7957747E-01            NaN
         13   -1    0    0    0    0  0.00000000000E+00  0.00000000000E+00  0.74505805969E-08  0.10566000000E+00  0.10566000000E+00 0.  1.
     999900   -1    0    0    0    0 -0.00000000000E+00 -0.00000000000E+00 -0.74505805969E-08  0.93827000000E+00  0.93827000000E+00 0. -1.
     999902    2    1    2    0    0  0.18643815820E-01  0.12521477045E-01  0.89374838070E-02  0.10197585732E+01  0.10194720642E+01 0.  0.
     999903    2    3    3    0    0  0.66549106005E-01 -0.41616968650E-01  0.10382949895E+00  0.13170993566E+00  0.20154074275E-01 0.  0.
         14    1    1    2    0    0 -0.18643815820E-01 -0.12521477045E-01 -0.89374838070E-02  0.24171426779E-01  0.00000000000E+00 0. -1.
     999901    1    3    3    0    0 -0.47905290184E-01  0.54138445695E-01 -0.94892015146E-01  0.88804863756E+00  0.88000000000E+00 0.  1.
        -11    1    4    4    0    0  0.14259491955E-01 -0.19663610496E-01  0.29563558473E-01  0.38265595502E-01  0.51100000000E-03 0.  1.
         11    1    4    4    0    0  0.52289614050E-01 -0.21953358154E-01  0.74265940480E-01  0.93444340161E-01  0.51100000000E-03 0. -1.
</event>
<event>
 8    1  0.1112929E+005  0.1043930E+01  0.7957747E-01            NaN
         13   -1    0    0    0    0  0.00000000000E+00  0.00000000000E+00  0.74505805969E-08  0.10566000000E+00  0.10566000000E+00 0. -1.
     999900   -1    0    0    0    0 -0.00000000000E+00 -0.00000000000E+00 -0.74505805969E-08  0.93827000000E+00  0.93827000000E+00 0.  1.
     999902    2    1    2    0    0 -0.14292772695E-01  0.43415579461E-02 -0.21516939807E-01  0.10177362760E+01  0.10173991431E+01 0.  0.
     999903    2    3    3    0    0  0.10491042265E+00 -0.62964052771E-01 -0.28773054120E-01  0.12712294904E+00  0.19018065306E-01 0.  0.
         14    1    1    2    0    0  0.14292772695E-01 -0.43415579461E-02  0.21516939807E-01  0.26193723969E-01  0.00000000000E+00 0. -1.
     999901    1    3    3    0    0 -0.11920319535E+00  0.67305610717E-01  0.72561143137E-02  0.89061332699E+00  0.88000000000E+00 0.  1.
        -11    1    4    4    0    0  0.90816939419E-01 -0.49679864648E-01 -0.18380918642E-01  0.10513764658E+00  0.51100000000E-03 0. -1.
         11    1    4    4    0    0  0.14093483231E-01 -0.13284188123E-01 -0.10392135478E-01  0.21985302465E-01  0.51100000000E-03 0.  1.
</event>
<event>
 8    1  0.1112929E+005  0.1043930E+01  0.7957747E-01            NaN
         13   -1    0    0    0    0  0.00000000000E+00  0.00000000000E+00  0.74505805969E-08  0.10566000000E+00  0.10566000000E+00 0. -1.
     999900   -1    0    0    0    0 -0.00000000000E+00 -0.00000000000E+00 -0.74505805969E-08  0.93827000000E+00  0.93827000000E+00 0. -1.
     999902    2    1    2    0    0 -0.10992738871E-01  0.14762755276E-01  0.14593879657E-01  0.10204404156E+01  0.10201700257E+01 0.  0.
     999903    2    3    3    0    0 -0.10321936534E-01  0.10704465006E+00  0.77207419502E-01  0.13340216759E+00  0.16433295802E-01 0.  0.
         14    1    1    2    0    0  0.10992738871E-01 -0.14762755276E-01 -0.14593879657E-01  0.23489584387E-01  0.00000000000E+00 0.  1.
     999901    1    3    3    0    0 -0.67080233637E-03 -0.92281894788E-01 -0.62613539846E-01  0.88703824802E+00  0.88000000000E+00 0.  1.
        -11    1    4    4    0    0  0.21881763283E-02  0.57341452606E-01  0.37302323686E-01  0.68443807433E-01  0.51100000000E-03 0. -1.
         11    1    4    4    0    0 -0.12510112863E-01  0.49703197457E-01  0.39905095817E-01  0.64958360158E-01  0.51100000000E-03 0.  1.
</event>
<event>
 8    1  0.1112929E+005  0.1043930E+01  0.7957747E-01            NaN
         13   -1    0    0    0    0  0.00000000000E+00  0.00000000000E+00  0.74505805969E-08  0.10566000000E+00  0.10566000000E+00 0.  1.
     999900   -1    0    0    0    0 -0.00000000000E+00 -0.00000000000E+00 -0.74505805969E-08  0.93827000000E+00  0.93827000000E+00 0.  1.
     999902    2    1    2    0    0 -0.22913736207E-02  0.19104169859E-01 -0.15449004025E-01  0.10192542746E+01  0.10189555362E+01 0.  0.
     999903    2    3    3    0    0 -0.63251340200E-01 -0.10820122203E+00  0.13273549380E-01  0.12754369071E+00  0.19569605048E-01 0.  0.
         14    1    1    2    0    0  0.22913736207E-02 -0.19104169859E-01  0.15449004025E-01  0.24675725408E-01  0.00000000000E+00 0.  1.
     999901    1    3    3    0    0  0.60959966579E-01  0.12730539189E+00 -0.28722553405E-01  0.89171058388E+00  0.88000000000E+00 0. -1.
        -11    1    4    4    0    0 -0.41125869682E-01 -0.86331744703E-01  0.12284839095E-01  0.96414136376E-01  0.51100000000E-03 0. -1.
         11    1    4    4    0    0 -0.22125470518E-01 -0.21869477326E-01  0.98871028459E-03  0.31129554336E-01  0.51100000000E-03 0.  1.
</event>
<event>
 8    1  0.1112929E+005  0.1043930E+01  0.7957747E-01            NaN
         13   -1    0    0    0    0  0.00000000000E+00  0.00000000000E+00  0.74505805969E-08  0.10566000000E+00  0.10566000000E+00 0.  1.
     999900   -1    0    0    0    0 -0.00000000000E+00 -0.00000000000E+00 -0.74505805969E-08  0.93827000000E+00  0.93827000000E+00 0.  1.
     999902    2    1    2    0    0 -0.71727132675E-02  0.12187797485E-01  0.17709345455E-01  0.10212670095E+01  0.10210155207E+01 0.  0.
     999903    2    3    3    0    0 -0.30983171154E-01 -0.12357449658E+00  0.20816423633E-01  0.13053248543E+00  0.19359575392E-01 0.  0.
         14    1    1    2    0    0  0.71727132675E-02 -0.12187797485E-01 -0.17709345455E-01  0.22662990527E-01  0.00000000000E+00 0. -1.
     999901    1    3    3    0    0  0.23810457887E-01  0.13576229406E+00 -0.31070781780E-02  0.89073452405E+00  0.88000000000E+00 0.  1.
        -11    1    4    4    0    0 -0.19226045025E-01 -0.41968293191E-01  0.36133412610E-02  0.46306541619E-01  0.51100000000E-03 0.  1.
         11    1    4    4    0    0 -0.11757126129E-01 -0.81606203388E-01  0.17203082372E-01  0.84225943808E-01  0.51100000000E-03 0. -1.
</event>
<event>
 8    1  0.1112929E+005  0.1043930E+01  0.7957747E-01            NaN
         13   -1    0    0    0    0  0.00000000000E+00  0.00000000000E+00  0.74505805969E-08  0.10566000000E+00  0.10566000000E+00 0. -1.
     999900   -1    0    0    0    0 -0.00000000000E+00 -0.00000000000E+00 -0.74505805969E-08  0.93827000000E+00  0.93827000000E+00 0.  1.
     999902    2    1    2    0    0 -0.53839980140E-03  0.97028959361E-02  0.20567694274E-01  0.10211821185E+01  0.10209287209E+01 0.  0.
     999903    2    3    3    0    0 -0.29824629526E-01  0.11270157776E+00 -0.56995904278E-01  0.13130430470E+00  0.20028309290E-01 0.  0.
         14    1    1    2    0    0  0.53839980140E-03 -0.97028959361E-02 -0.20567694274E-01  0.22747881476E-01  0.00000000000E+00 0.  1.
     999901    1    3    3    0    0  0.29286229725E-01 -0.10299868183E+00  0.77563598552E-01  0.88987781382E+00  0.88000000000E+00 0.  1.
        -11    1    4    4    0    0 -0.17075489995E-01  0.81213912626E-01 -0.31262711835E-01  0.88684216380E-01  0.51100000000E-03 0. -1.
         11    1    4    4    0    0 -0.12749139531E-01  0.31487665135E-01 -0.25733192443E-01  0.42620088324E-01  0.51100000000E-03 0.  1.
</event>
<event>
 8    1  0.1112929E+005  0.1043930E+01  0.7957747E-01            NaN
         13   -1    0    0    0    0  0.00000000000E+00  0.00000000000E+00  0.74505805969E-08  0.10566000000E+00  0.10566000000E+00 0. -1.
     999900   -1    0    0    0    0 -0.00000000000E+00 -0.00000000000E+00 -0.74505805969E-08  0.93827000000E+00  0.93827000000E+00 0. -1.
     999902    2    1    2    0    0  0.16422933400E-01 -0.34663125786E-02 -0.16907311489E-01  0.10201059524E+01  0.10198277152E+01 0.  0.
     999903    2    3    3    0    0 -0.11819768956E+00 -0.45626824050E-01  0.80106377278E-02  0.12852245932E+00  0.20033755130E-01 0.  0.
         14    1    1    2    0    0 -0.16422933400E-01  0.34663125786E-02  0.16907311489E-01  0.23824047644E-01  0.00000000000E+00 0. -1.
     999901    1    3    3    0    0  0.13462062296E+00  0.42160511471E-01 -0.24917949217E-01  0.89158349303E+00  0.88000000000E+00 0.  1.
        -11    1    4    4    0    0 -0.68436734479E-01 -0.36852133916E-01  0.56941884090E-02  0.77938124836E-01  0.51100000000E-03 0.  1.
         11    1    4    4    0    0 -0.49760955078E-01 -0.87746901331E-02  0.23164493188E-02  0.50584334489E-01  0.51100000000E-03 0. -1.
</event>
<event>
 8    1  0.1112929E+005  0.1043930E+01  0.7957747E-01            NaN
         13   -1    0    0    0    0  0.00000000000E+00  0.00000000000E+00  0.74505805969E-08  0.10566000000E+00  0.10566000000E+00 0.  1.
     999900   -1    0    0    0    0 -0.00000000000E+00 -0.00000000000E+00 -0.74505805969E-08  0.93827000000E+00  0.93827000000E+00 0.  1.
     999902    2    1    2    0    0 -0.16899367728E-01  0.13262845141E-01 -0.11862693229E-01  0.10193899270E+01  0.10190945040E+01 0.  0.
     999903    2    3    3    0    0 -0.58819733987E-02 -0.42961923529E-02  0.12665019877E+00  0.12831443975E+00  0.19268308701E-01 0.  0.
         14    1    1    2    0    0  0.16899367728E-01 -0.13262845141E-01  0.11862693229E-01  0.24540072973E-01  0.00000000000E+00 0.  1.
     999901    1    3    3    0    0 -0.11017394329E-01  0.17559037494E-01 -0.13851289200E+00  0.89107548728E+00  0.88000000000E+00 0.  1.
        -11    1    4    4    0    0  0.21844223329E-02 -0.96860317196E-02  0.44816231258E-01  0.45905845124E-01  0.51100000000E-03 0.  1.
         11    1    4    4    0    0 -0.80663957316E-02  0.53898393667E-02  0.81833967512E-01  0.82408594626E-01  0.51100000000E-03 0. -1.
</event>
<event>
 8    1  0.1112929E+005  0.1043930E+01  0.7957747E-01            NaN
         13   -1    0    0    0    0  0.00000000000E+00  0.00000000000E+00  0.74505805969E-08  0.10566000000E+00  0.10566000000E+00 0.  1.
     999900   -1    0    0    0    0 -0.00000000000E+00 -0.00000000000E+00 -0.74505805969E-08  0.93827000000E+00  0.93827000000E+00 0. -1.
     999902    2    1    2    0    0 -0.21575089508E-01 -0.93538582355E-02  0.32666549433E-03  0.10204122224E+01  0.10201411754E+01 0.  0.
     999903    2    3    3    0    0  0.16926861625E-01 -0.12484221866E+00 -0.31984581429E-01  0.13144429371E+00  0.19557369274E-01 0.  0.
         14    1    1    2    0    0  0.21575089508E-01  0.93538582355E-02 -0.32666549433E-03  0.23517777563E-01  0.00000000000E+00 0. -1.
     999901    1    3    3    0    0 -0.38501951133E-01  0.11548836043E+00  0.32311246924E-01  0.88896792873E+00  0.88000000000E+00 0. -1.
        -11    1    4    4    0    0  0.66692242224E-02 -0.30450833286E-01  0.23617019474E-03  0.31177695503E-01  0.51100000000E-03 0.  1.
         11    1    4    4    0    0  0.10257637403E-01 -0.94391385379E-01 -0.32220751624E-01  0.10026659820E+00  0.51100000000E-03 0. -1.
</event>
<event>
 8    1  0.1112929E+005  0.1043930E+01  0.7957747E-01            NaN
         13   -1    0    0    0    0  0.00000000000E+00  0.00000000000E+00  0.74505805969E-08  0.10566000000E+00  0.10566000000E+00 0. -1.
     999900   -1    0    0    0    0 -0.00000000000E+00 -0.00000000000E+00 -0.74505805969E-08  0.93827000000E+00  0.93827000000E+00 0. -1.
     999902    2    1    2    0    0  0.19413463432E-01 -0.43479272431E-02  0.10934184506E-01  0.10212288233E+01  0.10209764767E+01 0.  0.
     999903    2    3    3    0    0  0.63458313910E-01 -0.99345958229E-01 -0.57112163360E-01  0.13241226166E+00  0.19355382044E-01 0.  0.
         14    1    1    2    0    0 -0.19413463432E-01  0.43479272431E-02 -0.10934184506E-01  0.22701176722E-01  0.00000000000E+00 0.  1.
     999901    1    3    3    0    0 -0.44044850479E-01  0.94998030986E-01  0.68046347866E-01  0.88881656162E+00  0.88000000000E+00 0. -1.
        -11    1    4    4    0    0  0.38342329662E-01 -0.73823039307E-01 -0.34495298245E-01  0.90056438406E-01  0.51100000000E-03 0. -1.
         11    1    4    4    0    0  0.25115984248E-01 -0.25522918923E-01 -0.22616865115E-01  0.42355823256E-01  0.51100000000E-03 0.  1.
</event>
<event>
 8    1  0.1112929E+005  0.1043930E+01  0.7957747E-01            NaN
         13   -1    0    0    0    0  0.00000000000E+00  0.00000000000E+00  0.74505805969E-08  0.10566000000E+00  0.10566000000E+00 0.  1.
     999900   -1    0    0    0    0 -0.00000000000E+00 -0.00000000000E+00 -0.74505805969E-08  0.93827000000E+00  0.93827000000E+00 0.  1.
     999902    2    1    2    0    0  0.18471452919E-01  0.65292979763E-02  0.13346944795E-01  0.10202241518E+01  0.10199487010E+01 0.  0.
     999903    2    3    3    0    0 -0.36299877050E-01  0.11316636175E+00  0.52148825153E-01  0.13124892834E+00  0.19556960889E-01 0.  0.
         14    1    1    2    0    0 -0.18471452919E-01 -0.65292979763E-02 -0.13346944795E-01  0.23705848231E-01  0.00000000000E+00 0. -1.
     999901    1    3    3    0    0  0.54771329969E-01 -0.10663706377E+00 -0.38801880359E-01  0.88897522343E+00  0.88000000000E+00 0.  1.
        -11    1    4    4    0    0 -0.13015724624E-01  0.29658713473E-01  0.23217997303E-01  0.39854546693E-01  0.51100000000E-03 0.  1.
         11    1    4    4    0    0 -0.23284152426E-01  0.83507648277E-01  0.28930827850E-01  0.91394381644E-01  0.51100000000E-03 0. -1.
</event>
<event>
 8    1  0.1112929E+005  0.1043930E+01  0.7957747E-01            NaN
         13   -1    0    0    0    0  0.00000000000E+00  0.00000000000E+00  0.74505805969E-08  0.10566000000E+00  0.10566000000E+00 0.  1.
     999900   -1    0    0    0    0 -0.00000000000E+00 -0.00000000000E+00 -0.74505805969E-08  0.93827000000E+00  0.93827000000E+00 0.  1.
     999902    2    1    2    0    0 -0.45106238786E-02  0.21521291306E-01  0.81641248478E-02  0.10204744113E+01  0.10202048125E+01 0.  0.
     999903    2    3    3    0    0 -0.10469718540E+00  0.78544002836E-01  0.31963092180E-02  0.13294209304E+00  0.23080786337E-01 0.  0.
         14    1    1    2    0    0  0.45106238786E-02 -0.21521291306E-01 -0.81641248478E-02  0.23455588711E-01  0.00000000000E+00 0.  1.
     999901    1    3    3    0    0  0.10018656152E+00 -0.57022711530E-01  0.49678156298E-02  0.88753231825E+00  0.88000000000E+00 0. -1.
        -11    1    4    4    0    0 -0.85539449915E-01  0.66323868708E-01  0.11259751542E-01  0.10882507146E+00  0.51100000000E-03 0.  1.
         11    1    4    4    0    0 -0.19157735483E-01  0.12220134128E-01 -0.80634423238E-02  0.24117021584E-01  0.51100000000E-03 0. -1.
</event>
<event>
 8    1  0.1112929E+005  0.1043930E+01  0.7957747E-01            NaN
         13   -1    0    0    0    0  0.00000000000E+00  0.00000000000E+00  0.74505805969E-08  0.10566000000E+00  0.10566000000E+00 0. -1.
     999900   -1    0    0    0    0 -0.00000000000E+00 -0.00000000000E+00 -0.74505805969E-08  0.93827000000E+00  0.93827000000E+00 0. -1.
     999902    2    1    2    0    0  0.10911307572E-01 -0.20810290104E-01 -0.10623784869E-02  0.10204086596E+01  0.10201375295E+01 0.  0.
     999903    2    3    3    0    0 -0.97962971996E-01 -0.78878522459E-01 -0.31509102978E-01  0.13127844898E+00  0.20558268643E-01 0.  0.
         14    1    1    2    0    0 -0.10911307572E-01  0.20810290104E-01  0.10623784869E-02  0.23521340420E-01  0.00000000000E+00 0.  1.
     999901    1    3    3    0    0  0.10887427957E+00  0.58068232355E-01  0.30446724491E-01  0.88913021059E+00  0.88000000000E+00 0. -1.
        -11    1    4    4    0    0 -0.77963651725E-01 -0.52156393884E-01 -0.19537416831E-01  0.95815406855E-01  0.51100000000E-03 0.  1.
         11    1    4    4    0    0 -0.19999320271E-01 -0.26722128575E-01 -0.11971686147E-01  0.35463042130E-01  0.51100000000E-03 0. -1.
</event>
<event>
 8    1  0.1112929E+005  0.1043930E+01  0.7957747E-01            NaN
         13   -1    0    0    0    0  0.00000000000E+00  0.00000000000E+00  0.74505805969E-08  0.10566000000E+00  0.10566000000E+00 0.  1.
     999900   -1    0    0    0    0 -0.00000000000E+00 -0.00000000000E+00 -0.74505805969E-08  0.93827000000E+00  0.93827000000E+00 0. -1.
     999902    2    1    2    0    0  0.99183552754E-03 -0.83411402118E-02 -0.22265221222E-01  0.10201329743E+01  0.10198553754E+01 0.  0.
     999903    2    3    3    0    0 -0.12533538447E+00  0.81262198346E-02 -0.33464996373E-01  0.13088881464E+00  0.15394212099E-01 0.  0.
         14    1    1    2    0    0 -0.99183552754E-03  0.83411402118E-02  0.22265221222E-01  0.23797025734E-01  0.00000000000E+00 0. -1.
     999901    1    3    3    0    0  0.12632722000E+00 -0.16467360046E-01  0.11199775151E-01  0.88924415962E+00  0.88000000000E+00 0.  1.
        -11    1    4    4    0    0 -0.17160327498E-01 -0.38390151522E-02 -0.65723568967E-02  0.18779559988E-01  0.51100000000E-03 0.  1.
         11    1    4    4    0    0 -0.10817505698E+00  0.11965234987E-01 -0.26892639476E-01  0.11210925465E+00  0.51100000000E-03 0. -1.
</event>
<event>
 8    1  0.1112929E+005  0.1043930E+01  0.7957747E-01            NaN
         13   -1    0    0    0    0  0.00000000000E+00  0.00000000000E+00  0.74505805969E-08  0.10566000000E+00  0.10566000000E+00 0. -1.
     999900   -1    0    0    0    0 -0.00000000000E+00 -0.00000000000E+00 -0.74505805969E-08  0.93827000000E+00  0.93827000000E+00 0.  1.
     999902    2    1    2    0    0  0.17112191229E-02 -0.10541436845E-01  0.21490345935E-01  0.10199323932E+01  0.10196500388E+01 0.  0.
     999903    2    3    3    0    0 -0.81062435203E-01 -0.99599389545E-01 -0.13633378093E-01  0.13087869814E+00  0.21265178803E-01 0.  0.
         14    1    1    2    0    0 -0.17112191229E-02  0.10541436845E-01 -0.21490345935E-01  0.23997606757E-01  0.00000000000E+00 0.  1.
     999901    1    3    3    0    0  0.82773654326E-01  0.89057952699E-01  0.35123724028E-01  0.88905369510E+00  0.88000000000E+00 0.  1.
        -11    1    4    4    0    0 -0.39014676386E-01 -0.59067506885E-01  0.48105565937E-03  0.70792710632E-01  0.51100000000E-03 0. -1.
         11    1    4    4    0    0 -0.42047758817E-01 -0.40531882660E-01 -0.14114433753E-01  0.60085987506E-01  0.51100000000E-03 0.  1.
</event>
<event>
 8    1  0.1112929E+005  0.1043930E+01  0.7957747E-01            NaN
         13   -1    0    0    0    0  0.00000000000E+00  0.00000000000E+00  0.74505805969E-08  0.10566000000E+00  0.10566000000E+00 0. -1.
     999900   -1    0    0    0    0 -0.00000000000E+00 -0.00000000000E+00 -0.74505805969E-08  0.93827000000E+00  0.93827000000E+00 0.  1.
     999902    2    1    2    0    0  0.83571041474E-02 -0.90609272874E-02  0.20837644616E-01  0.10197194852E+01  0.10194320377E+01 0.  0.
     999903    2    3    3    0    0 -0.66128875432E-01  0.10349158234E+00 -0.29600033698E-01  0.12800193578E+00  0.20610623179E-01 0.  0.
         14    1    1    2    0    0 -0.83571041474E-02  0.90609272874E-02 -0.20837644616E-01  0.24210514786E-01  0.00000000000E+00 0.  1.
     999901    1    3    3    0    0  0.74485979579E-01 -0.11255250962E+00  0.50437678315E-01  0.89171754943E+00  0.88000000000E+00 0.  1.
        -11    1    4    4    0    0 -0.50031200996E-01  0.62235186324E-01 -0.14162034124E-01  0.81099715298E-01  0.51100000000E-03 0. -1.
         11    1    4    4    0    0 -0.16097674436E-01  0.41256396013E-01 -0.15437999574E-01  0.46902220481E-01  0.51100000000E-03 0.  1.
</event>
<event>
 8    1  0.1112929E+005  0.1043930E+01  0.7957747E-01            NaN
         13   -1    0    0    0    0  0.00000000000E+00  0.00000000000E+00  0.74505805969E-08  0.10566000000E+00  0.10566000000E+00 0.  1.
     999900   -1    0    0    0    0 -0.00000000000E+00 -0.00000000000E+00 -0.74505805969E-08  0.93827000000E+00  0.93827000000E+00 0. -1.
     999902    2    1    2    0    0 -0.18293907675E-02 -0.21812917350E-01  0.90942409184E-02  0.10202265139E+01  0.10199511187E+01 0.  0.
     999903    2    3    3    0    0 -0.36377688614E-01  0.12072055465E+00 -0.83372524749E-02  0.12791870130E+00  0.19922244327E-01 0.  0.
         14    1    1    2    0    0  0.18293907675E-02  0.21812917350E-01 -0.90942409184E-02  0.23703486068E-01  0.00000000000E+00 0.  1.
     999901    1    3    3    0    0  0.34548297846E-01 -0.14253347200E+00  0.17431493393E-01  0.89230781263E+00  0.88000000000E+00 0.  1.
        -11    1    4    4    0    0 -0.37419221624E-01  0.98103651598E-01 -0.70608389733E-02  0.10523612104E+00  0.51100000000E-03 0.  1.
         11    1    4    4    0    0  0.10415330100E-02  0.22616903053E-01 -0.12764135017E-02  0.22682580258E-01  0.51100000000E-03 0. -1.
</event>
<event>
 8    1  0.1112929E+005  0.1043930E+01  0.7957747E-01            NaN
         13   -1    0    0    0    0  0.00000000000E+00  0.00000000000E+00  0.74505805969E-08  0.10566000000E+00  0.10566000000E+00 0. -1.
     999900   -1    0    0    0    0 -0.00000000000E+00 -0.00000000000E+00 -0.74505805969E-08  0.93827000000E+00  0.93827000000E+00 0. -1.
     999902    2    1    2    0    0  0.30959985879E-02 -0.90099868662E-02 -0.22120049015E-01  0.10198455312E+01  0.10195611045E+01 0.  0.
     999903    2    3    3    0    0  0.11702698240E+00 -0.17876752412E-01 -0.54462610450E-01  0.13186753038E+00  0.20198434198E-01 0.  0.
         14    1    1    2    0    0 -0.30959985879E-02  0.90099868662E-02  0.22120049015E-01  0.24084468834E-01  0.00000000000E+00 0. -1.
     999901    1    3    3    0    0 -0.11393098381E+00  0.88667655459E-02  0.32342561435E-01  0.88797800079E+00  0.88000000000E+00 0.  1.
        -11    1    4    4    0    0  0.64253520181E-01 -0.10664735776E-02 -0.23598054629E-01  0.68460072487E-01  0.51100000000E-03 0. -1.
         11    1    4    4    0    0  0.52773462220E-01 -0.16810278834E-01 -0.30864555821E-01  0.63407457891E-01  0.51100000000E-03 0.  1.
</event>
<event>
 8    1  0.1112929E+005  0.1043930E+01  0.7957747E-01            NaN
         13   -1    0    0    0    0  0.00000000000E+00  0.00000000000E+00  0.74505805969E-08  0.10566000000E+00  0.10566000000E+00 0. -1.
     999900   -1    0    0    0    0 -0.00000000000E+00 -0.00000000000E+00 -0.74505805969E-08  0.93827000000E+00  0.93827000000E+00 0. -1.
     999902    2    1    2    0    0 -0.76777660511E-02  0.28714064044E-01 -0.29380117595E-02  0.10140623339E+01  0.10136223851E+01 0.  0.
     999903    2    3    3    0    0 -0.64947922055E-01  0.34148008989E-01  0.10071012883E+00  0.12611394825E+00  0.19439104836E-01 0.  0.
         14    1    1    2    0    0  0.76777660511E-02 -0.28714064044E-01  0.29380117595E-02  0.29867666105E-01  0.00000000000E+00 0. -1.
     999901    1    3    3    0    0  0.57270156004E-01 -0.54339449453E-02 -0.10364814059E+00  0.88794838565E+00  0.88000000000E+00 0. -1.
        -11    1    4    4    0    0 -0.22840833151E-01  0.51761911713E-02  0.43421925235E-01  0.49337828551E-01  0.51100000000E-03 0.  1.
         11    1    4    4    0    0 -0.42107088903E-01  0.28971817818E-01  0.57288203594E-01  0.76776119696E-01  0.51100000000E-03 0. -1.
</event>
<event>
 8    1  0.1112929E+005  0.1043930E+01  0.7957747E-01            NaN
         13   -1    0    0    0    0  0.00000000000E+00  0.00000000000E+00  0.74505805969E-08  0.10566000000E+00  0.10566000000E+00 0. -1.
     999900   -1    0    0    0    0 -0.00000000000E+00 -0.00000000000E+00 -0.74505805969E-08  0.93827000000E+00  0.93827000000E+00 0. -1.
     999902    2    1    2    0    0  0.90499265740E-02 -0.39547013411E-02 -0.21295254546E-01  0.10204559995E+01  0.10201859724E+01 0.  0.
     999903    2    3    3    0    0 -0.12709942521E+00  0.27177675253E-03 -0.17969040639E-01  0.12996985541E+00  0.20370055054E-01 0.  0.
         14    1    1    2    0    0 -0.90499265740E-02  0.39547013411E-02  0.21295254546E-01  0.23474000508E-01  0.00000000000E+00 0. -1.
     999901    1    3    3    0    0  0.13614935178E+00 -0.42264780936E-02 -0.33262139069E-02  0.89048614408E+00  0.88000000000E+00 0. -1.
        -11    1    4    4    0    0 -0.10439004896E+00  0.40806919743E-02 -0.21522887208E-01  0.10666503722E+00  0.51100000000E-03 0. -1.
         11    1    4    4    0    0 -0.22709376243E-01 -0.38089152218E-02  0.35538465694E-02  0.23304818192E-01  0.51100000000E-03 0.  1.
</event>
<event>
 8    1  0.1112929E+005  0.1043930E+01  0.7957747E-01            NaN
         13   -1    0    0    0    0  0.00000000000E+00  0.00000000000E+00  0.74505805969E-08  0.10566000000E+00  0.10566000000E+00 0. -1.
     999900   -1    0    0    0    0 -0.00000000000E+00 -0.00000000000E+00 -0.74505805969E-08  0.93827000000E+00  0.93827000000E+00 0. -1.
     999902    2    1    2    0    0  0.16986573984E-01 -0.53941161269E-02  0.15777331847E-01  0.10201273870E+01  0.10198496563E+01 0.  0.
     999903    2    3    3    0    0  0.84395873612E-01 -0.47496963143E-01  0.90199983414E-01  0.13341695262E+00  0.16894414713E-01 0.  0.
         14    1    1    2    0    0 -0.16986573984E-01  0.53941161269E-02 -0.15777331847E-01  0.23802612981E-01  0.00000000000E+00 0.  1.
     999901    1    3    3    0    0 -0.67409299628E-01  0.42102847016E-01 -0.74422651567E-01  0.88671043440E+00  0.88000000000E+00 0. -1.
        -11    1    4    4    0    0  0.72549711482E-01 -0.41919673676E-01  0.84890957670E-01  0.11927889793E+00  0.51100000000E-03 0.  1.
         11    1    4    4    0    0  0.11846162130E-01 -0.55772894666E-02  0.53090257441E-02  0.14138054688E-01  0.51100000000E-03 0. -1.
</event>
<event>
 8    1  0.1112929E+005  0.1043930E+01  0.7957747E-01            NaN
         13   -1    0    0    0    0  0.00000000000E+00  0.00000000000E+00  0.74505805969E-08  0.10566000000E+00  0.10566000000E+00 0.  1.
     999900   -1    0    0    0    0 -0.00000000000E+00 -0.00000000000E+00 -0.74505805969E-08  0.93827000000E+00  0.93827000000E+00 0.  1.
     999902    2    1    2    0    0  0.22756074002E-01 -0.13094858051E-02  0.46380948983E-02  0.10206691836E+01  0.10204040948E+01 0.  0.
     999903    2    3    3    0    0  0.21099802037E-02 -0.98504527843E-01  0.84637453793E-01  0.13147121078E+00  0.20336830041E-01 0.  0.
         14    1    1    2    0    0 -0.22756074002E-01  0.13094858051E-02 -0.46380948983E-02  0.23260816437E-01  0.00000000000E+00 0.  1.
     999901    1    3    3    0    0  0.20646093798E-01  0.97195042038E-01 -0.79999358894E-01  0.88919797279E+00  0.88000000000E+00 0.  1.
        -11    1    4    4    0    0 -0.68973372691E-02 -0.28146922477E-01  0.17826615205E-01  0.34027515880E-01  0.51100000000E-03 0.  1.
         11    1    4    4    0    0  0.90073174728E-02 -0.70357605366E-01  0.66810838588E-01  0.97443694895E-01  0.51100000000E-03 0. -1.
</event>
<event>
 8    1  0.1112929E+005  0.1043930E+01  0.7957747E-01            NaN
         13   -1    0    0    0    0  0.00000000000E+00  0.00000000000E+00  0.74505805969E-08  0.10566000000E+00  0.10566000000E+00 0. -1.
     999900   -1    0    0    0    0 -0.00000000000E+00 -0.00000000000E+00 -0.74505805969E-08  0.93827000000E+00  0.93827000000E+00 0.  1.
     999902    2    1    2    0    0 -0.48840935205E-02 -0.17574363366E-01  0.14174190274E-01  0.10208297773E+01  0.10205683779E+01 0.  0.
     999903    2    3    3    0    0 -0.92727737706E-01 -0.45869356962E-01  0.81601535218E-01  0.13343834210E+00  0.21084338828E-01 0.  0.
         14    1    1    2    0    0  0.48840935205E-02  0.17574363366E-01 -0.14174190274E-01  0.23100222665E-01  0.00000000000E+00 0.  1.
     999901    1    3    3    0    0  0.87843644185E-01  0.28294993596E-01 -0.67427344944E-01  0.88739143524E+00  0.88000000000E+00 0.  1.
        -11    1    4    4    0    0 -0.52187679199E-01 -0.21602399063E-01  0.56674579034E-01  0.80015539335E-01  0.51100000000E-03 0.  1.
         11    1    4    4    0    0 -0.40540058507E-01 -0.24266957899E-01  0.24926956183E-01  0.53422802762E-01  0.51100000000E-03 0. -1.
</event>
<event>
 8    1  0.1112929E+005  0.1043930E+01  0.7957747E-01            NaN
         13   -1    0    0    0    0  0.00000000000E+00  0.00000000000E+00  0.74505805969E-08  0.10566000000E+00  0.10566000000E+00 0. -1.
     999900   -1    0    0    0    0 -0.00000000000E+00 -0.00000000000E+00 -0.74505805969E-08  0.93827000000E+00  0.93827000000E+00 0. -1.
     999902    2    1    2    0    0 -0.24242206033E-02  0.14229726087E-01  0.18806142008E-01  0.10202227664E+01  0.10199472830E+01 0.  0.
     999903    2    3    3    0    0 -0.17053002180E-02  0.51462640411E-01 -0.11666612946E+00  0.12907769225E+00  0.19968812361E-01 0.  0.
         14    1    1    2    0    0  0.24242206033E-02 -0.14229726087E-01 -0.18806142008E-01  0.23707233649E-01  0.00000000000E+00 0.  1.
     999901    1    3    3    0    0 -0.71892038520E-03 -0.37232914323E-01  0.13547227147E+00  0.89114507410E+00  0.88000000000E+00 0.  1.
        -11    1    4    4    0    0  0.57555799727E-02  0.13612517505E-01 -0.49024398199E-01  0.51206250335E-01  0.51100000000E-03 0.  1.
         11    1    4    4    0    0 -0.74608801907E-02  0.37850122906E-01 -0.67641731260E-01  0.77871441916E-01  0.51100000000E-03 0. -1.
</event>
<event>
 8    1  0.1112929E+005  0.1043930E+01  0.7957747E-01            NaN
         13   -1    0    0    0    0  0.00000000000E+00  0.00000000000E+00  0.74505805969E-08  0.10566000000E+00  0.10566000000E+00 0. -1.
     999900   -1    0    0    0    0 -0.00000000000E+00 -0.00000000000E+00 -0.74505805969E-08  0.93827000000E+00  0.93827000000E+00 0.  1.
     999902    2    1    2    0    0  0.14944059033E-01 -0.16241231266E-01 -0.70981045511E-02  0.10207462647E+01  0.10204829501E+01 0.  0.
     999903    2    3    3    0    0  0.10894285922E+00  0.35428466954E-01  0.61615257863E-01  0.13157414509E+00  0.19788704055E-01 0.  0.
         14    1    1    2    0    0 -0.14944059033E-01  0.16241231266E-01  0.70981045511E-02  0.23183735283E-01  0.00000000000E+00 0. -1.
     999901    1    3    3    0    0 -0.93998800188E-01 -0.51669698221E-01 -0.68713362414E-01  0.88917211963E+00  0.88000000000E+00 0.  1.
        -11    1    4    4    0    0  0.44162984470E-01  0.10987191524E-01  0.34927461417E-01  0.57369645780E-01  0.51100000000E-03 0. -1.
         11    1    4    4    0    0  0.64779874752E-01  0.24441275431E-01  0.26687796446E-01  0.74204499309E-01  0.51100000000E-03 0.  1.
</event>
<event>
 8    1  0.1112929E+005  0.1043930E+01  0.7957747E-01            NaN
         13   -1    0    0    0    0  0.00000000000E+00  0.00000000000E+00  0.74505805969E-08  0.10566000000E+00  0.10566000000E+00 0. -1.
     999900   -1    0    0    0    0 -0.00000000000E+00 -0.00000000000E+00 -0.74505805969E-08  0.93827000000E+00  0.93827000000E+00 0.  1.
     999902    2    1    2    0    0  0.17237230800E-01  0.25819348044E-02 -0.16414557990E-01  0.10199878567E+01  0.10197068214E+01 0.  0.
     999903    2    3    3    0    0 -0.37562191529E-01 -0.50526341749E-01  0.10937454443E+00  0.12777355281E+00  0.19986505091E-01 0.  0.
         14    1    1    2    0    0 -0.17237230800E-01 -0.25819348044E-02  0.16414557990E-01  0.23942143324E-01  0.00000000000E+00 0. -1.
     999901    1    3    3    0    0  0.54799422329E-01  0.53108276553E-01 -0.12578910242E+00  0.89221430386E+00  0.88000000000E+00 0.  1.
        -11    1    4    4    0    0 -0.56115769823E-02 -0.13350410756E-01  0.12234828688E-01  0.18965110536E-01  0.51100000000E-03 0.  1.
         11    1    4    4    0    0 -0.31950614547E-01 -0.37175930993E-01  0.97139715745E-01  0.10880844228E+00  0.51100000000E-03 0. -1.
</event>
<event>
 8    1  0.1112929E+005  0.1043930E+01  0.7957747E-01            NaN
         13   -1    0    0    0    0  0.00000000000E+00  0.00000000000E+00  0.74505805969E-08  0.10566000000E+00  0.10566000000E+00 0. -1.
     999900   -1    0    0    0    0 -0.00000000000E+00 -0.00000000000E+00 -0.74505805969E-08  0.93827000000E+00  0.93827000000E+00 0.  1.
     999902    2    1    2    0    0  0.30442489015E-02  0.63987100060E-02 -0.22507779807E-01  0.10203331550E+01  0.10200602610E+01 0.  0.
     999903    2    3    3    0    0 -0.22026866970E-02  0.12969668661E+00  0.17009871219E-02  0.13139222011E+00  0.20855210421E-01 0.  0.
         14    1    1    2    0    0 -0.30442489015E-02 -0.63987100060E-02  0.22507779807E-01  0.23596844979E-01  0.00000000000E+00 0. -1.
     999901    1    3    3    0    0  0.52469355985E-02 -0.12329797660E+00 -0.24208766929E-01  0.88894093491E+00  0.88000000000E+00 0.  1.
        -11    1    4    4    0    0  0.20007538107E-02  0.45806871742E-01  0.10176511865E-01  0.46969085890E-01  0.51100000000E-03 0.  1.
         11    1    4    4    0    0 -0.42034405077E-02  0.83889814867E-01 -0.84755247433E-02  0.84423134218E-01  0.51100000000E-03 0. -1.
</event>
<event>
 8    1  0.1112929E+005  0.1043930E+01  0.7957747E-01            NaN
         13   -1    0    0    0    0  0.00000000000E+00  0.00000000000E+00  0.74505805969E-08  0.10566000000E+00  0.10566000000E+00 0.  1.
     999900   -1    0    0    0    0 -0.00000000000E+00 -0.00000000000E+00 -0.74505805969E-08  0.93827000000E+00  0.93827000000E+00 0.  1.
     999902    2    1    2    0    0 -0.15346278533E-01  0.34311802039E-02  0.17530340222E-01  0.10203801785E+01  0.10201083838E+01 0.  0.
     999903    2    3    3    0    0  0.56409241970E-03  0.12343546749E+00 -0.37508872255E-01  0.13038945736E+00  0.18917247652E-01 0.  0.
         14    1    1    2    0    0  0.15346278533E-01 -0.34311802039E-02 -0.17530340222E-01  0.23549821458E-01  0.00000000000E+00 0. -1.
     999901    1    3    3    0    0 -0.15910370953E-01 -0.12000428729E+00  0.55039212477E-01  0.88999072118E+00  0.88000000000E+00 0. -1.
        -11    1    4    4    0    0 -0.65448240118E-02  0.32148115961E-01 -0.15115209397E-01  0.36125707707E-01  0.51100000000E-03 0.  1.
         11    1    4    4    0    0  0.71089164315E-02  0.91287351531E-01 -0.22393662858E-01  0.94263749658E-01  0.51100000000E-03 0. -1.
</event>
<event>
 8    1  0.1112929E+005  0.1043930E+01  0.7957747E-01            NaN
         13   -1    0    0    0    0  0.00000000000E+00  0.00000000000E+00  0.74505805969E-08  0.10566000000E+00  0.10566000000E+00 0.  1.
     999900   -1    0    0    0    0 -0.00000000000E+00 -0.00000000000E+00 -0.74505805969E-08  0.93827000000E+00  0.93827000000E+00 0.  1.
     999902    2    1    2    0    0 -0.22804525902E-01  0.18411448421E-02  0.52350623045E-02  0.10204599746E+01  0.10201900400E+01 0.  0.
     999903    2    3    3    0    0  0.10073634148E+00  0.21653378020E-01  0.74989785559E-01  0.12887678053E+00  0.19211385863E-01 0.  0.
         14    1    1    2    0    0  0.22804525902E-01 -0.18411448421E-02 -0.52350623045E-02  0.23470025421E-01  0.00000000000E+00 0. -1.
     999901    1    3    3    0    0 -0.12354086738E+00 -0.19812233177E-01 -0.69754723254E-01  0.89158319405E+00  0.88000000000E+00 0.  1.
        -11    1    4    4    0    0  0.25888811118E-01  0.13443404067E-01  0.25699937134E-01  0.38880631987E-01  0.51100000000E-03 0. -1.
         11    1    4    4    0    0  0.74847530361E-01  0.82099739528E-02  0.49289848425E-01  0.89996148541E-01  0.51100000000E-03 0.  1.
</event>
<event>
 8    1  0.1112929E+005  0.1043930E+01  0.7957747E-01            NaN
         13   -1    0    0    0    0  0.00000000000E+00  0.00000000000E+00  0.74505805969E-08  0.10566000000E+00  0.10566000000E+00 0. -1.
     999900   -1    0    0    0    0 -0.00000000000E+00 -0.00000000000E+00 -0.74505805969E-08  0.93827000000E+00  0.93827000000E+00 0. -1.
     999902    2    1    2    0    0 -0.22317784875E-01  0.78049064544E-02  0.22625245561E-02  0.10201788084E+01  0.10199022904E+01 0.  0.
     999903    2    3    3    0    0  0.12095489741E+00 -0.10610320572E-01  0.34070196830E-01  0.12783475472E+00  0.20935140110E-01 0.  0.
         14    1    1    2    0    0  0.22317784875E-01 -0.78049064544E-02 -0.22625245561E-02  0.23751191630E-01  0.00000000000E+00 0.  1.
     999901    1    3    3    0    0 -0.14327268228E+00  0.18415227027E-01 -0.31807672274E-01  0.89234405365E+00  0.88000000000E+00 0. -1.
        -11    1    4    4    0    0  0.10533871393E+00 -0.15964694801E-01  0.31630977301E-01  0.11113908394E+00  0.51100000000E-03 0.  1.
         11    1    4    4    0    0  0.15616183481E-01  0.53543742285E-02  0.24392195295E-02  0.16695670780E-01  0.51100000000E-03 0. -1.
</event>
<event>
 8    1  0.1112929E+005  0.1043930E+01  0.7957747E-01            NaN
         13   -1    0    0    0    0  0.00000000000E+00  0.00000000000E+00  0.74505805969E-08  0.10566000000E+00  0.10566000000E+00 0. -1.
     999900   -1    0    0    0    0 -0.00000000000E+00 -0.00000000000E+00 -0.74505805969E-08  0.93827000000E+00  0.93827000000E+00 0.  1.
     999902    2    1    2    0    0 -0.24985121819E-02 -0.23310884580E-01  0.78215023734E-03  0.10204725564E+01  0.10202029144E+01 0.  0.
     999903    2    3    3    0    0 -0.10216997413E+00  0.34687012761E-01 -0.69922471561E-01  0.13013705782E+00  0.20114902944E-01 0.  0.
         14    1    1    2    0    0  0.24985121819E-02  0.23310884580E-01 -0.78215023734E-03  0.23457443638E-01  0.00000000000E+00 0. -1.
     999901    1    3    3    0    0  0.99671461948E-01 -0.57997897341E-01  0.70704621798E-01  0.89033549854E+00  0.88000000000E+00 0. -1.
        -11    1    4    4    0    0 -0.62104848570E-01  0.20630055998E-01 -0.30524404090E-01  0.72212268989E-01  0.51100000000E-03 0. -1.
         11    1    4    4    0    0 -0.40065125559E-01  0.14056956763E-01 -0.39398067471E-01  0.57924788830E-01  0.51100000000E-03 0.  1.
</event>
<event>
 8    1  0.1112929E+005  0.1043930E+01  0.7957747E-01            NaN
         13   -1    0    0    0    0  0.00000000000E+00  0.00000000000E+00  0.74505805969E-08  0.10566000000E+00  0.10566000000E+00 0. -1.
     999900   -1    0    0    0    0 -0.00000000000E+00 -0.00000000000E+00 -0.74505805969E-08  0.93827000000E+00  0.93827000000E+00 0.  1.
     999902    2    1    2    0    0 -0.12629525832E-01  0.18536901595E-01 -0.11137739423E-01  0.10188866200E+01  0.10185788008E+01 0.  0.
     999903    2    3    3    0    0 -0.11844260922E-01 -0.17836845959E-01  0.12466891797E+00  0.12772607645E+00  0.17696663745E-01 0.  0.
         14    1    1    2    0    0  0.12629525832E-01 -0.18536901595E-01  0.11137739423E-01  0.25043380023E-01  0.00000000000E+00 0. -1.
     999901    1    3    3    0    0 -0.78526490959E-03  0.36373747554E-01 -0.13580665739E+00  0.89116054353E+00  0.88000000000E+00 0.  1.
        -11    1    4    4    0    0  0.29342695521E-02 -0.70564611998E-02  0.61015563499E-01  0.61494420012E-01  0.51100000000E-03 0.  1.
         11    1    4    4    0    0 -0.14778530475E-01 -0.10780384759E-01  0.63653354466E-01  0.66231656436E-01  0.51100000000E-03 0. -1.
</event>
<event>
 8    1  0.1112929E+005  0.1043930E+01  0.7957747E-01            NaN
         13   -1    0    0    0    0  0.00000000000E+00  0.00000000000E+00  0.74505805969E-08  0.10566000000E+00  0.10566000000E+00 0.  1.
     999900   -1    0    0    0    0 -0.00000000000E+00 -0.00000000000E+00 -0.74505805969E-08  0.93827000000E+00  0.93827000000E+00 0.  1.
     999902    2    1    2    0    0 -0.10817689458E-01  0.53705259204E-03 -0.21177763261E-01  0.10201432708E+01  0.10198659149E+01 0.  0.
     999903    2    3    3    0    0 -0.58492998411E-01  0.73121509160E-01 -0.92338666599E-01  0.13301007187E+00  0.19926462452E-01 0.  0.
         14    1    1    2    0    0  0.10817689458E-01 -0.53705259204E-03  0.21177763261E-01  0.23786729230E-01  0.00000000000E+00 0.  1.
     999901    1    3    3    0    0  0.47675308953E-01 -0.72584456568E-01  0.71160903337E-01  0.88713319890E+00  0.88000000000E+00 0. -1.
        -11    1    4    4    0    0 -0.38140969814E-01  0.41411560804E-01 -0.42566155987E-01  0.70581794416E-01  0.51100000000E-03 0.  1.
         11    1    4    4    0    0 -0.20352028598E-01  0.31709948356E-01 -0.49772510612E-01  0.62428277458E-01  0.51100000000E-03 0. -1.
</event>
<event>
 8    1  0.1112929E+005  0.1043930E+01  0.7957747E-01            NaN
         13   -1    0    0    0    0  0.00000000000E+00  0.00000000000E+00  0.74505805969E-08  0.10566000000E+00  0.10566000000E+00 0.  1.
     999900   -1    0    0    0    0 -0.00000000000E+00 -0.00000000000E+00 -0.74505805969E-08  0.93827000000E+00  0.93827000000E+00 0.  1.
     999902    2    1    2    0    0  0.12672344544E-01  0.18202695399E-01  0.29368954308E-02  0.10215569852E+01  0.10213119613E+01 0.  0.
     999903    2    3    3    0    0 -0.39866124910E-01 -0.22490444318E-02 -0.12285781419E+00  0.13082533460E+00  0.20660579610E-01 0.  0.
         14    1    1    2    0    0 -0.12672344544E-01 -0.18202695399E-01 -0.29368954308E-02  0.22373014790E-01  0.00000000000E+00 0. -1.
     999901    1    3    3    0    0  0.52538469454E-01  0.20451739831E-01  0.12579470962E+00  0.89073165061E+00  0.88000000000E+00 0. -1.
        -11    1    4    4    0    0 -0.32299635769E-02  0.11478857152E-02 -0.40174793170E-01  0.40324005674E-01  0.51100000000E-03 0.  1.
         11    1    4    4    0    0 -0.36636161333E-01 -0.33969301470E-02 -0.82683021016E-01  0.90501328924E-01  0.51100000000E-03 0. -1.
</event>
<event>
 8    1  0.1112929E+005  0.1043930E+01  0.7957747E-01            NaN
         13   -1    0    0    0    0  0.00000000000E+00  0.00000000000E+00  0.74505805969E-08  0.10566000000E+00  0.10566000000E+00 0.  1.
     999900   -1    0    0    0    0 -0.00000000000E+00 -0.00000000000E+00 -0.74505805969E-08  0.93827000000E+00  0.93827000000E+00 0. -1.
     999902    2    1    2    0    0 -0.14720955039E-02 -0.15194129228E-01 -0.17918083790E-01  0.10203909610E+01  0.10201194180E+01 0.  0.
     999903    2    3    3    0    0 -0.32257285310E-01 -0.98663278972E-01  0.77000679353E-01  0.13082679896E+00  0.20287228306E-01 0.  0.
         14    1    1    2    0    0  0.14720955039E-02  0.15194129228E-01  0.17918083790E-01  0.23539038954E-01  0.00000000000E+00 0.  1.
     999901    1    3    3    0    0  0.30785189807E-01  0.83469149743E-01 -0.94918763143E-01  0.88956416209E+00  0.88000000000E+00 0.  1.
        -11    1    4    4    0    0 -0.80074837641E-02 -0.55554660195E-01  0.37206426890E-01  0.67342552584E-01  0.51100000000E-03 0.  1.
         11    1    4    4    0    0 -0.24249801546E-01 -0.43108618777E-01  0.39794252463E-01  0.63484246376E-01  0.51100000000E-03 0. -1.
</event>
<event>
 8    1  0.1223429E+005  0.1043930E+01  0.7957747E-01            NaN
         13   -1    0    0    0    0  0.00000000000E+00  0.00000000000E+00  0.74505805969E-08  0.10566000000E+00  0.10566000000E+00 0.  1.
     999900   -1    0    0    0    0 -0.00000000000E+00 -0.00000000000E+00 -0.74505805969E-08  0.93827000000E+00  0.93827000000E+00 0. -1.
     999902    2    1    2    0    0 -0.96711157835E-02  0.19412683440E-01 -0.58327381891E-02  0.10214710687E+01  0.10212241383E+01 0.  0.
     999903    2    3    3    0    0 -0.79086141321E-01 -0.72942969106E-01  0.71144129670E-01  0.13058754632E+00  0.20404057823E-01 0.  0.
         14    1    1    2    0    0  0.96711157835E-02 -0.19412683440E-01  0.58327381891E-02  0.22458931267E-01  0.00000000000E+00 0. -1.
     999901    1    3    3    0    0  0.69415025537E-01  0.92355652546E-01 -0.76976867859E-01  0.89088352242E+00  0.88000000000E+00 0. -1.
        -11    1    4    4    0    0 -0.38704694421E-01 -0.22135936476E-01  0.27960647625E-01  0.52631853383E-01  0.51100000000E-03 0.  1.
         11    1    4    4    0    0 -0.40381446900E-01 -0.50807032629E-01  0.43183482045E-01  0.77955692934E-01  0.51100000000E-03 0. -1.
</event>
<event>
 7    1  0.1112929E+005  0.1043930E+01  0.7957747E-01            NaN
         13   -1    0    0    0    0  0.00000000000E+00  0.00000000000E+00  0.74505805969E-08  0.10566000000E+00  0.10566000000E+00 0.  1.
     999900   -1    0    0    0    0 -0.00000000000E+00 -0.00000000000E+00 -0.74505805969E-08  0.93827000000E+00  0.93827000000E+00 0.  1.
     999903    2    1    2    0    0  0.33535535359E-01 -0.24513013429E-01 -0.93088320336E-01  0.10355821952E+00  0.18257860989E-01 0.  0.
         14    1    1    2    0    0  0.44753102831E-01  0.26691826896E-01  0.11318311695E-02  0.52120772039E-01  0.00000000000E+00 0. -1.
     999901    1    1    2    0    0 -0.78288638190E-01 -0.21788134672E-02  0.91956489167E-01  0.88825100844E+00  0.88000000000E+00 0. -1.
        -11    1    3    3    0    0  0.72310102834E-02  0.19812927767E-02 -0.22204599128E-01  0.23441808254E-01  0.51100000000E-03 0.  1.
         11    1    3    3    0    0  0.26304525075E-01 -0.26494306206E-01 -0.70883721208E-01  0.80116411266E-01  0.51100000000E-03 0. -1.
</event>
<event>
 8    1  0.1112929E+005  0.1043930E+01  0.7957747E-01            NaN
         13   -1    0    0    0    0  0.00000000000E+00  0.00000000000E+00  0.74505805969E-08  0.10566000000E+00  0.10566000000E+00 0.  1.
     999900   -1    0    0    0    0 -0.00000000000E+00 -0.00000000000E+00 -0.74505805969E-08  0.93827000000E+00  0.93827000000E+00 0. -1.
     999902    2    1    2    0    0 -0.17110787111E-01 -0.16154970459E-01  0.34814170483E-02  0.10201417178E+01  0.10198643253E+01 0.  0.
     999903    2    3    3    0    0  0.99417683767E-01 -0.16472961388E-01 -0.77674449678E-01  0.12875781601E+00  0.19748942951E-01 0.  0.
         14    1    1    2    0    0  0.17110787111E-01  0.16154970459E-01 -0.34814170483E-02  0.23788282216E-01  0.00000000000E+00 0.  1.
     999901    1    3    3    0    0 -0.11652847088E+00  0.31799092844E-03  0.81155866727E-01  0.89138390178E+00  0.88000000000E+00 0. -1.
        -11    1    4    4    0    0  0.30755814969E-01 -0.12673260753E-01 -0.32296988634E-01  0.46366887844E-01  0.51100000000E-03 0. -1.
         11    1    4    4    0    0  0.68661868798E-01 -0.37997006345E-02 -0.45377461044E-01  0.82390928163E-01  0.51100000000E-03 0.  1.
</event>
<event>
 8    1  0.1112929E+005  0.1043930E+01  0.7957747E-01            NaN
         13   -1    0    0    0    0  0.00000000000E+00  0.00000000000E+00  0.74505805969E-08  0.10566000000E+00  0.10566000000E+00 0.  1.
     999900   -1    0    0    0    0 -0.00000000000E+00 -0.00000000000E+00 -0.74505805969E-08  0.93827000000E+00  0.93827000000E+00 0.  1.
     999902    2    1    2    0    0 -0.13437928424E-01  0.87265272264E-02 -0.17416689759E-01  0.10202641749E+01  0.10199896643E+01 0.  0.
     999903    2    3    3    0    0 -0.11038605812E+00 -0.58236122364E-01 -0.38498500782E-01  0.13216092689E+00  0.20195253349E-01 0.  0.
         14    1    1    2    0    0  0.13437928424E-01 -0.87265272264E-02  0.17416689759E-01  0.23665825148E-01  0.00000000000E+00 0.  1.
     999901    1    3    3    0    0  0.96948129695E-01  0.66962649591E-01  0.21081811024E-01  0.88810324797E+00  0.88000000000E+00 0. -1.
        -11    1    4    4    0    0 -0.50080207932E-01 -0.28196273345E-01 -0.73802505134E-02  0.57946408652E-01  0.51100000000E-03 0. -1.
         11    1    4    4    0    0 -0.60305850188E-01 -0.30039849020E-01 -0.31118250269E-01  0.74214518235E-01  0.51100000000E-03 0.  1.
</event>
<event>
 7    1  0.1112929E+005  0.1043930E+01  0.7957747E-01            NaN
         13   -1    0    0    0    0  0.00000000000E+00  0.00000000000E+00  0.74505805969E-08  0.10566000000E+00  0.10566000000E+00 0. -1.
     999900   -1    0    0    0    0 -0.00000000000E+00 -0.00000000000E+00 -0.74505805969E-08  0.93827000000E+00  0.93827000000E+00 0. -1.
     999902    2    1    2    0    0  0.14899002762E-01  0.83826109803E-02 -0.16789516925E-01  0.10199688579E+01  0.10196873711E+01 0.  0.
         14    1    1    2    0    0 -0.14899002762E-01 -0.83826109803E-02  0.16789516925E-01  0.23961142058E-01  0.00000000000E+00 0. -1.
     999901    1    3    3    0    0  0.41235347153E-01 -0.11872265583E+00  0.10592834328E-02  0.88893000002E+00  0.88000000000E+00 0.  1.
        -11    1    3    3    0    0 -0.11611653183E-01  0.59229590738E-01 -0.79366007862E-02  0.60878778418E-01  0.51100000000E-03 0. -1.
         11    1    3    3    0    0 -0.14724691208E-01  0.67875676076E-01 -0.99121995719E-02  0.70160079499E-01  0.51100000000E-03 0.  1.
</event>
<event>
 8    1  0.1112929E+005  0.1043930E+01  0.7957747E-01            NaN
         13   -1    0    0    0    0  0.00000000000E+00  0.00000000000E+00  0.74505805969E-08  0.10566000000E+00  0.10566000000E+00 0. -1.
     999900   -1    0    0    0    0 -0.00000000000E+00 -0.00000000000E+00 -0.74505805969E-08  0.93827000000E+00  0.93827000000E+00 0.  1.
     999902    2    1    2    0    0 -0.18009081568E-01  0.13989698214E-01 -0.60913756888E-02  0.10203261119E+01  0.10200530531E+01 0.  0.
     999903    2    3    3    0    0  0.40925718544E-01 -0.18238063652E-01  0.11938374396E+00  0.12889134428E+00  0.18787200524E-01 0.  0.
         14    1    1    2    0    0  0.18009081568E-01 -0.13989698214E-01  0.60913756888E-02  0.23603888087E-01  0.00000000000E+00 0. -1.
     999901    1    3    3    0    0 -0.58934800111E-01  0.32227761866E-01 -0.12547511965E+00  0.89143476764E+00  0.88000000000E+00 0.  1.
        -11    1    4    4    0    0  0.13449661770E-01  0.30679566620E-02  0.32901100678E-01  0.35679816516E-01  0.51100000000E-03 0.  1.
         11    1    4    4    0    0  0.27476056773E-01 -0.21306020314E-01  0.86482643283E-01  0.93211527761E-01  0.51100000000E-03 0. -1.
</event>
<event>
 8    1  0.1112929E+005  0.1043930E+01  0.7957747E-01            NaN
         13   -1    0    0    0    0  0.00000000000E+00  0.00000000000E+00  0.74505805969E-08  0.10566000000E+00  0.10566000000E+00 0. -1.
     999900   -1    0    0    0    0 -0.00000000000E+00 -0.00000000000E+00 -0.74505805969E-08  0.93827000000E+00  0.93827000000E+00 0. -1.
     999902    2    1    2    0    0 -0.45955381792E-02  0.23095937951E-01  0.43749535166E-02  0.10199783500E+01  0.10196970888E+01 0.  0.
     999903    2    3    3    0    0 -0.36099484119E-01  0.20565918175E-01 -0.12190017302E+00  0.13040299780E+00  0.20473395129E-01 0.  0.
         14    1    1    2    0    0  0.45955381792E-02 -0.23095937951E-01 -0.43749535166E-02  0.23951650032E-01  0.00000000000E+00 0. -1.
     999901    1    3    3    0    0  0.31503945940E-01  0.25300197756E-02  0.12627512654E+00  0.88957535217E+00  0.88000000000E+00 0.  1.
        -11    1    4    4    0    0 -0.18581202049E-02  0.10391549068E-01 -0.26105243440E-01  0.28163482718E-01  0.51100000000E-03 0. -1.
         11    1    4    4    0    0 -0.34241363914E-01  0.10174369107E-01 -0.95794929579E-01  0.10223951508E+00  0.51100000000E-03 0.  1.
</event>
<event>
 8    1  0.1112929E+005  0.1043930E+01  0.7957747E-01            NaN
         13   -1    0    0    0    0  0.00000000000E+00  0.00000000000E+00  0.74505805969E-08  0.10566000000E+00  0.10566000000E+00 0. -1.
     999900   -1    0    0    0    0 -0.00000000000E+00 -0.00000000000E+00 -0.74505805969E-08  0.93827000000E+00  0.93827000000E+00 0. -1.
     999902    2    1    2    0    0  0.20143872777E-01 -0.26300917527E-03  0.11341864393E-01  0.10208111187E+01  0.10205492920E+01 0.  0.
     999903    2    3    3    0    0 -0.94458189103E-01 -0.27132823650E-01  0.83003427451E-01  0.13008613358E+00  0.19346668252E-01 0.  0.
         14    1    1    2    0    0 -0.20143872777E-01  0.26300917527E-03 -0.11341864393E-01  0.23118881292E-01  0.00000000000E+00 0.  1.
     999901    1    3    3    0    0  0.11460206188E+00  0.26869814475E-01 -0.71661563059E-01  0.89072498513E+00  0.88000000000E+00 0. -1.
        -11    1    4    4    0    0 -0.84293991643E-01 -0.27663382864E-01  0.67260836844E-01  0.11133292897E+00  0.51100000000E-03 0.  1.
         11    1    4    4    0    0 -0.10164197460E-01  0.53055921347E-03  0.15742590608E-01  0.18753204610E-01  0.51100000000E-03 0. -1.
</event>
<event>
 8    1  0.1112929E+005  0.1043930E+01  0.7957747E-01            NaN
         13   -1    0    0    0    0  0.00000000000E+00  0.00000000000E+00  0.74505805969E-08  0.10566000000E+00  0.10566000000E+00 0. -1.
     999900   -1    0    0    0    0 -0.00000000000E+00 -0.00000000000E+00 -0.74505805969E-08  0.93827000000E+00  0.93827000000E+00 0. -1.
     999902    2    1    2    0    0  0.12375115310E-01  0.10262728682E-01 -0.16697388981E-01  0.10207509172E+01  0.10204877095E+01 0.  0.
     999903    2    3    3    0    0 -0.11168832668E+00  0.11318536858E-01  0.59633096714E-01  0.12877603227E+00  0.20609916798E-01 0.  0.
         14    1    1    2    0    0 -0.12375115310E-01 -0.10262728682E-01  0.16697388981E-01  0.23179082763E-01  0.00000000000E+00 0. -1.
     999901    1    3    3    0    0  0.12406344199E+00 -0.10558081755E-02 -0.76330485695E-01  0.89197488497E+00  0.88000000000E+00 0. -1.
        -11    1    4    4    0    0 -0.41475376457E-01  0.14206423613E-01  0.24040277786E-01  0.50002253961E-01  0.51100000000E-03 0.  1.
         11    1    4    4    0    0 -0.70212950221E-01 -0.28878867556E-02  0.35592818929E-01  0.78773778308E-01  0.51100000000E-03 0. -1.
</event>
<event>
 8    1  0.1112929E+005  0.1043930E+01  0.7957747E-01            NaN
         13   -1    0    0    0    0  0.00000000000E+00  0.00000000000E+00  0.74505805969E-08  0.10566000000E+00  0.10566000000E+00 0.  1.
     999900   -1    0    0    0    0 -0.00000000000E+00 -0.00000000000E+00 -0.74505805969E-08  0.93827000000E+00  0.93827000000E+00 0.  1.
     999902    2    1    2    0    0 -0.11840757730E-01 -0.21396914513E-01  0.11714595092E-02  0.10194472752E+01  0.10191532481E+01 0.  0.
     999903    2    3    3    0    0 -0.21432882565E-03 -0.12931187755E+00 -0.20832394421E-01  0.13250591152E+00  0.20055431128E-01 0.  0.
         14    1    1    2    0    0  0.11840757730E-01  0.21396914513E-01 -0.11714595092E-02  0.24482724760E-01  0.00000000000E+00 0.  1.
     999901    1    3    3    0    0 -0.11626428904E-01  0.10791496303E+00  0.22003853931E-01  0.88694136372E+00  0.88000000000E+00 0. -1.
        -11    1    4    4    0    0  0.53206140096E-02 -0.97630993967E-02 -0.76040741077E-03  0.11156450318E-01  0.51100000000E-03 0.  1.
         11    1    4    4    0    0 -0.55349428352E-02 -0.11954877815E+00 -0.20071987011E-01  0.12134946120E+00  0.51100000000E-03 0. -1.
</event>
<event>
 8    1  0.1112929E+005  0.1043930E+01  0.7957747E-01            NaN
         13   -1    0    0    0    0  0.00000000000E+00  0.00000000000E+00  0.74505805969E-08  0.10566000000E+00  0.10566000000E+00 0. -1.
     999900   -1    0    0    0    0 -0.00000000000E+00 -0.00000000000E+00 -0.74505805969E-08  0.93827000000E+00  0.93827000000E+00 0.  1.
     999902    2    1    2    0    0  0.11927704265E-01  0.12868864222E-01  0.18179692485E-01  0.10186638366E+01  0.10183504470E+01 0.  0.
     999903    2    3    3    0    0  0.29619854490E-01  0.14032492274E-01 -0.12166466035E+00  0.12744511525E+00  0.19123838634E-01 0.  0.
         14    1    1    2    0    0 -0.11927704265E-01 -0.12868864222E-01 -0.18179692485E-01  0.25266163426E-01  0.00000000000E+00 0.  1.
     999901    1    3    3    0    0 -0.17692150225E-01 -0.11636280520E-02  0.13984435284E+00  0.89121872132E+00  0.88000000000E+00 0. -1.
        -11    1    4    4    0    0 -0.16019704753E-02  0.27155762395E-02 -0.25650249667E-01  0.25848347968E-01  0.51100000000E-03 0.  1.
         11    1    4    4    0    0  0.31221824965E-01  0.11316916034E-01 -0.96014410686E-01  0.10159676729E+00  0.51100000000E-03 0. -1.
</event>
<event>
 8    1  0.1112929E+005  0.1043930E+01  0.7957747E-01            NaN
         13   -1    0    0    0    0  0.00000000000E+00  0.00000000000E+00  0.74505805969E-08  0.10566000000E+00  0.10566000000E+00 0. -1.
     999900   -1    0    0    0    0 -0.00000000000E+00 -0.00000000000E+00 -0.74505805969E-08  0.93827000000E+00  0.93827000000E+00 0. -1.
     999902    2    1    2    0    0  0.12028215067E-01  0.16385642249E-01 -0.10184520933E-01  0.10211947477E+01  0.10209416345E+01 0.  0.
     999903    2    3    3    0    0 -0.56242328684E-01  0.14205633561E-02  0.11493948142E+00  0.12960020046E+00  0.20491706497E-01 0.  0.
         14    1    1    2    0    0 -0.12028215067E-01 -0.16385642249E-01  0.10184520933E-01  0.22735252280E-01  0.00000000000E+00 0.  1.
     999901    1    3    3    0    0  0.68270543750E-01  0.14965078893E-01 -0.12512400235E+00  0.89159454726E+00  0.88000000000E+00 0. -1.
        -11    1    4    4    0    0 -0.21353659485E-01  0.21246376273E-02  0.66638145269E-01  0.70009973463E-01  0.51100000000E-03 0.  1.
         11    1    4    4    0    0 -0.34888669198E-01 -0.70407427121E-03  0.48301336152E-01  0.59590227002E-01  0.51100000000E-03 0. -1.
</event>
<event>
 8    1  0.1112929E+005  0.1043930E+01  0.7957747E-01            NaN
         13   -1    0    0    0    0  0.00000000000E+00  0.00000000000E+00  0.74505805969E-08  0.10566000000E+00  0.10566000000E+00 0. -1.
     999900   -1    0    0    0    0 -0.00000000000E+00 -0.00000000000E+00 -0.74505805969E-08  0.93827000000E+00  0.93827000000E+00 0.  1.
     999902    2    1    2    0    0  0.10587701565E-02 -0.16781782945E-01 -0.14972153907E-01  0.10214152354E+01  0.10211670620E+01 0.  0.
     999903    2    3    3    0    0 -0.14774243867E-01 -0.54938768442E-01 -0.12000180233E+00  0.13420733026E+00  0.19355318961E-01 0.  0.
         14    1    1    2    0    0 -0.10587701565E-02  0.16781782945E-01  0.14972153907E-01  0.22514764615E-01  0.00000000000E+00 0. -1.
     999901    1    3    3    0    0  0.15833014023E-01  0.38156985496E-01  0.10502964842E+00  0.88720790513E+00  0.88000000000E+00 0. -1.
        -11    1    4    4    0    0 -0.14686930031E-01 -0.22197293156E-01 -0.43612574579E-01  0.51095435408E-01  0.51100000000E-03 0.  1.
         11    1    4    4    0    0 -0.87313835459E-04 -0.32741475286E-01 -0.76389227752E-01  0.83111894847E-01  0.51100000000E-03 0. -1.
</event>
<event>
 8    1  0.1112929E+005  0.1043930E+01  0.7957747E-01            NaN
         13   -1    0    0    0    0  0.00000000000E+00  0.00000000000E+00  0.74505805969E-08  0.10566000000E+00  0.10566000000E+00 0. -1.
     999900   -1    0    0    0    0 -0.00000000000E+00 -0.00000000000E+00 -0.74505805969E-08  0.93827000000E+00  0.93827000000E+00 0.  1.
     999902    2    1    2    0    0  0.68537431906E-02  0.15691905064E-01  0.16155507971E-01  0.10203883323E+01  0.10201167279E+01 0.  0.
     999903    2    3    3    0    0 -0.90510362530E-01  0.19164686840E-01 -0.87625750190E-01  0.12894995594E+00  0.19758747295E-01 0.  0.
         14    1    1    2    0    0 -0.68537431906E-02 -0.15691905064E-01 -0.16155507971E-01  0.23541667699E-01  0.00000000000E+00 0.  1.
     999901    1    3    3    0    0  0.97364105721E-01 -0.34727817765E-02  0.10378125816E+00  0.89143837636E+00  0.88000000000E+00 0. -1.
        -11    1    4    4    0    0 -0.63125288822E-02  0.52894256018E-03 -0.51986138625E-03  0.63764549697E-02  0.51100000000E-03 0. -1.
         11    1    4    4    0    0 -0.84197833648E-01  0.18635744280E-01 -0.87105888803E-01  0.12257350097E+00  0.51100000000E-03 0.  1.
</event>
