<event>
 8    1  0.1128641E+005  0.1043930E+01  0.7957747E-01            NaN
         13   -1    0    0    0    0  0.00000000000E+00  0.00000000000E+00  0.74505805969E-08  0.10566000000E+00  0.10566000000E+00 0.  1.
     999900   -1    0    0    0    0 -0.00000000000E+00 -0.00000000000E+00 -0.74505805969E-08  0.93827000000E+00  0.93827000000E+00 0. -1.
     999902    2    1    2    0    0 -0.21431515772E-01  0.28008885844E-02  0.10560611139E-01  0.10198742033E+01  0.10195904616E+01 0.  0.
     999903    2    3    3    0    0  0.88542455335E-01  0.83444249114E-01  0.37740675303E-01  0.12895536203E+00  0.20060351863E-01 0.  0.
         14    1    1    2    0    0  0.21431515772E-01 -0.28008885844E-02 -0.10560611139E-01  0.24055796657E-01  0.00000000000E+00 0. -1.
     999901    1    3    3    0    0 -0.10997397111E+00 -0.80643360530E-01 -0.27180064164E-01  0.89091884131E+00  0.88000000000E+00 0.  1.
        -11    1    4    4    0    0  0.33746618550E-01  0.20043368870E-01  0.82013205333E-02  0.40101043362E-01  0.51100000000E-03 0.  1.
         11    1    4    4    0    0  0.54795836785E-01  0.63400880244E-01  0.29539354770E-01  0.88854318668E-01  0.51100000000E-03 0. -1.
</event>
<event>
 8    1  0.1128641E+005  0.1043930E+01  0.7957747E-01            NaN
         13   -1    0    0    0    0  0.00000000000E+00  0.00000000000E+00  0.74505805969E-08  0.10566000000E+00  0.10566000000E+00 0. -1.
     999900   -1    0    0    0    0 -0.00000000000E+00 -0.00000000000E+00 -0.74505805969E-08  0.93827000000E+00  0.93827000000E+00 0. -1.
     999902    2    1    2    0    0 -0.18907647291E-01  0.23983299518E-02  0.14550011669E-01  0.10199518026E+01  0.10196699101E+01 0.  0.
     999903    2    3    3    0    0 -0.49445884037E-02 -0.12737810563E+00  0.18163893435E-01  0.13031707393E+00  0.20074411190E-01 0.  0.
         14    1    1    2    0    0  0.18907647291E-01 -0.23983299518E-02 -0.14550011669E-01  0.23978197434E-01  0.00000000000E+00 0.  1.
     999901    1    3    3    0    0 -0.13963058888E-01  0.12977643559E+00 -0.36138817664E-02  0.88963472863E+00  0.88000000000E+00 0.  1.
        -11    1    4    4    0    0 -0.91403697908E-03 -0.86137086285E-01  0.30210792236E-02  0.86196410238E-01  0.51100000000E-03 0. -1.
         11    1    4    4    0    0 -0.40305514246E-02 -0.41241019349E-01  0.15142814211E-01  0.44120663696E-01  0.51100000000E-03 0.  1.
</event>
<event>
 8    1  0.1128641E+005  0.1043930E+01  0.7957747E-01            NaN
         13   -1    0    0    0    0  0.00000000000E+00  0.00000000000E+00  0.74505805969E-08  0.10566000000E+00  0.10566000000E+00 0.  1.
     999900   -1    0    0    0    0 -0.00000000000E+00 -0.00000000000E+00 -0.74505805969E-08  0.93827000000E+00  0.93827000000E+00 0. -1.
     999902    2    1    2    0    0  0.78782001818E-02  0.21554150555E-01 -0.51443863281E-02  0.10204116634E+01  0.10201406034E+01 0.  0.
     999903    2    3    3    0    0 -0.32050799666E-01 -0.10033351609E-01  0.12428653353E+00  0.12948828943E+00  0.13861918338E-01 0.  0.
         14    1    1    2    0    0 -0.78782001818E-02 -0.21554150555E-01  0.51443863281E-02  0.23518336569E-01  0.00000000000E+00 0.  1.
     999901    1    3    3    0    0  0.39928999848E-01  0.31587502165E-01 -0.12943091986E+00  0.89092337400E+00  0.88000000000E+00 0. -1.
        -11    1    4    4    0    0 -0.78220241271E-02  0.54363383491E-03  0.13784849222E-01  0.15867034640E-01  0.51100000000E-03 0. -1.
         11    1    4    4    0    0 -0.24228775539E-01 -0.10576985444E-01  0.11050168431E+00  0.11362125479E+00  0.51100000000E-03 0.  1.
</event>
<event>
 8    1  0.1128641E+005  0.1043930E+01  0.7957747E-01            NaN
         13   -1    0    0    0    0  0.00000000000E+00  0.00000000000E+00  0.74505805969E-08  0.10566000000E+00  0.10566000000E+00 0. -1.
     999900   -1    0    0    0    0 -0.00000000000E+00 -0.00000000000E+00 -0.74505805969E-08  0.93827000000E+00  0.93827000000E+00 0.  1.
     999902    2    1    2    0    0 -0.15426909261E-01  0.10835826845E-01  0.14638982816E-01  0.10200615168E+01  0.10197822285E+01 0.  0.
     999903    2    3    3    0    0  0.36679596424E-01  0.80534529023E-01  0.95676022165E-01  0.13206376974E+00  0.21347948432E-01 0.  0.
         14    1    1    2    0    0  0.15426909261E-01 -0.10835826845E-01 -0.14638982816E-01  0.23868483208E-01  0.00000000000E+00 0. -1.
     999901    1    3    3    0    0 -0.52106505685E-01 -0.69698702178E-01 -0.81037039350E-01  0.88799774705E+00  0.88000000000E+00 0.  1.
        -11    1    4    4    0    0  0.33251485043E-01  0.51257026484E-01  0.58217011841E-01  0.84394464334E-01  0.51100000000E-03 0. -1.
         11    1    4    4    0    0  0.34281113807E-02  0.29277502539E-01  0.37459010324E-01  0.47669305407E-01  0.51100000000E-03 0.  1.
</event>
<event>
 8    1  0.1128641E+005  0.1043930E+01  0.7957747E-01            NaN
         13   -1    0    0    0    0  0.00000000000E+00  0.00000000000E+00  0.74505805969E-08  0.10566000000E+00  0.10566000000E+00 0.  1.
     999900   -1    0    0    0    0 -0.00000000000E+00 -0.00000000000E+00 -0.74505805969E-08  0.93827000000E+00  0.93827000000E+00 0. -1.
     999902    2    1    2    0    0 -0.21728816237E-01  0.15486069420E-02  0.11143887675E-01  0.10194611244E+01  0.10191674339E+01 0.  0.
     999903    2    3    3    0    0  0.25756229013E-01 -0.60687452392E-01  0.11071679737E+00  0.13039255512E+00  0.19941389134E-01 0.  0.
         14    1    1    2    0    0  0.21728816237E-01 -0.15486069420E-02 -0.11143887675E-01  0.24468875558E-01  0.00000000000E+00 0.  1.
     999901    1    3    3    0    0 -0.47485045250E-01  0.62236059334E-01 -0.99572909697E-01  0.88906856932E+00  0.88000000000E+00 0. -1.
        -11    1    4    4    0    0  0.25834941383E-01 -0.52411824578E-01  0.83323696544E-01  0.10177201520E+00  0.51100000000E-03 0.  1.
         11    1    4    4    0    0 -0.78712370005E-04 -0.82756278142E-02  0.27393100828E-01  0.28620539920E-01  0.51100000000E-03 0. -1.
</event>
<event>
 8    1  0.1128641E+005  0.1043930E+01  0.7957747E-01            NaN
         13   -1    0    0    0    0  0.00000000000E+00  0.00000000000E+00  0.74505805969E-08  0.10566000000E+00  0.10566000000E+00 0. -1.
     999900   -1    0    0    0    0 -0.00000000000E+00 -0.00000000000E+00 -0.74505805969E-08  0.93827000000E+00  0.93827000000E+00 0. -1.
     999902    2    1    2    0    0 -0.19225132098E-01 -0.12426704826E-01  0.52823497658E-02  0.10204367687E+01  0.10201662938E+01 0.  0.
     999903    2    3    3    0    0 -0.66860833119E-01 -0.13067327050E-01 -0.11085545093E+00  0.13152869745E+00  0.19228655980E-01 0.  0.
         14    1    1    2    0    0  0.19225132098E-01  0.12426704826E-01 -0.52823497658E-02  0.23493231282E-01  0.00000000000E+00 0. -1.
     999901    1    3    3    0    0  0.47635701021E-01  0.64062222382E-03  0.11613780070E+00  0.88890807126E+00  0.88000000000E+00 0.  1.
        -11    1    4    4    0    0 -0.23819445519E-01 -0.11198433952E-01 -0.30018663685E-01  0.39926835565E-01  0.51100000000E-03 0. -1.
         11    1    4    4    0    0 -0.43041387600E-01 -0.18688930980E-02 -0.80836787248E-01  0.91601861889E-01  0.51100000000E-03 0.  1.
</event>
<event>
 8    1  0.1128641E+005  0.1043930E+01  0.7957747E-01            NaN
         13   -1    0    0    0    0  0.00000000000E+00  0.00000000000E+00  0.74505805969E-08  0.10566000000E+00  0.10566000000E+00 0.  1.
     999900   -1    0    0    0    0 -0.00000000000E+00 -0.00000000000E+00 -0.74505805969E-08  0.93827000000E+00  0.93827000000E+00 0. -1.
     999902    2    1    2    0    0  0.43155943750E-02 -0.11085951449E-01 -0.20677798353E-01  0.10200743085E+01  0.10197953230E+01 0.  0.
     999903    2    3    3    0    0 -0.61166739185E-01 -0.39115250157E-01  0.10401507195E+00  0.12843430851E+00  0.20121223457E-01 0.  0.
         14    1    1    2    0    0 -0.43155943750E-02  0.11085951449E-01  0.20677798353E-01  0.23855691544E-01  0.00000000000E+00 0.  1.
     999901    1    3    3    0    0  0.65482333560E-01  0.28029298708E-01 -0.12469287030E+00  0.89163999994E+00  0.88000000000E+00 0. -1.
        -11    1    4    4    0    0 -0.30414384617E-01 -0.10644230905E-01  0.34098206809E-01  0.46917835327E-01  0.51100000000E-03 0. -1.
         11    1    4    4    0    0 -0.30752354568E-01 -0.28471019252E-01  0.69916865139E-01  0.81516473185E-01  0.51100000000E-03 0.  1.
</event>
<event>
 8    1  0.1128641E+005  0.1043930E+01  0.7957747E-01            NaN
         13   -1    0    0    0    0  0.00000000000E+00  0.00000000000E+00  0.74505805969E-08  0.10566000000E+00  0.10566000000E+00 0. -1.
     999900   -1    0    0    0    0 -0.00000000000E+00 -0.00000000000E+00 -0.74505805969E-08  0.93827000000E+00  0.93827000000E+00 0.  1.
     999902    2    1    2    0    0  0.12428228998E-01  0.17727309418E-01 -0.12115584181E-01  0.10191206115E+01  0.10188185879E+01 0.  0.
     999903    2    3    3    0    0  0.25654168898E-01  0.36588519349E-01 -0.12263613215E+00  0.13190842597E+00  0.19061893964E-01 0.  0.
         14    1    1    2    0    0 -0.12428228998E-01 -0.17727309418E-01  0.12115584181E-01  0.24809388450E-01  0.00000000000E+00 0. -1.
     999901    1    3    3    0    0 -0.13225939900E-01 -0.18861209931E-01  0.11052054797E+00  0.88721218558E+00  0.88000000000E+00 0. -1.
        -11    1    4    4    0    0  0.73103307343E-02  0.61975542089E-02 -0.51712402795E-01  0.52595478299E-01  0.51100000000E-03 0. -1.
         11    1    4    4    0    0  0.18343838163E-01  0.30390965140E-01 -0.70923729356E-01  0.79312947666E-01  0.51100000000E-03 0.  1.
</event>
<event>
 8    1  0.1128641E+005  0.1043930E+01  0.7957747E-01            NaN
         13   -1    0    0    0    0  0.00000000000E+00  0.00000000000E+00  0.74505805969E-08  0.10566000000E+00  0.10566000000E+00 0.  1.
     999900   -1    0    0    0    0 -0.00000000000E+00 -0.00000000000E+00 -0.74505805969E-08  0.93827000000E+00  0.93827000000E+00 0.  1.
     999902    2    1    2    0    0  0.60045312067E-02  0.25805397746E-02 -0.23307824441E-01  0.10197232187E+01  0.10194358609E+01 0.  0.
     999903    2    3    3    0    0  0.92333818032E-01 -0.83180305929E-01  0.30611095536E-01  0.12971483765E+00  0.21080860734E-01 0.  0.
         14    1    1    2    0    0 -0.60045312067E-02 -0.25805397746E-02  0.23307824441E-01  0.24206781296E-01  0.00000000000E+00 0.  1.
     999901    1    3    3    0    0 -0.86329286825E-01  0.85760845703E-01 -0.53918919977E-01  0.89000838106E+00  0.88000000000E+00 0.  1.
        -11    1    4    4    0    0  0.74199618073E-01 -0.65467838062E-01  0.32844390988E-01  0.10426234355E+00  0.51100000000E-03 0. -1.
         11    1    4    4    0    0  0.18134199959E-01 -0.17712467867E-01 -0.22332954521E-02  0.25452494095E-01  0.51100000000E-03 0.  1.
</event>
<event>
 8    1  0.1128641E+005  0.1043930E+01  0.7957747E-01            NaN
         13   -1    0    0    0    0  0.00000000000E+00  0.00000000000E+00  0.74505805969E-08  0.10566000000E+00  0.10566000000E+00 0.  1.
     999900   -1    0    0    0    0 -0.00000000000E+00 -0.00000000000E+00 -0.74505805969E-08  0.93827000000E+00  0.93827000000E+00 0.  1.
     999902    2    1    2    0    0  0.86086435531E-02  0.22039948462E-01 -0.69058871840E-02  0.10192812810E+01  0.10189832042E+01 0.  0.
     999903    2    3    3    0    0  0.11634906851E+00 -0.45339362985E-01  0.28503873146E-01  0.12944881252E+00  0.18755284594E-01 0.  0.
         14    1    1    2    0    0 -0.86086435531E-02 -0.22039948462E-01  0.69058871840E-02  0.24648719030E-01  0.00000000000E+00 0.  1.
     999901    1    3    3    0    0 -0.10774042495E+00  0.67379311447E-01 -0.35409760330E-01  0.88983246845E+00  0.88000000000E+00 0. -1.
        -11    1    4    4    0    0  0.28467638772E-01 -0.16310583940E-01  0.14373815410E-01  0.35823306606E-01  0.51100000000E-03 0. -1.
         11    1    4    4    0    0  0.87881429735E-01 -0.29028779045E-01  0.14130057736E-01  0.93625505915E-01  0.51100000000E-03 0.  1.
</event>
<event>
 8    1  0.1128641E+005  0.1043930E+01  0.7957747E-01            NaN
         13   -1    0    0    0    0  0.00000000000E+00  0.00000000000E+00  0.74505805969E-08  0.10566000000E+00  0.10566000000E+00 0.  1.
     999900   -1    0    0    0    0 -0.00000000000E+00 -0.00000000000E+00 -0.74505805969E-08  0.93827000000E+00  0.93827000000E+00 0.  1.
     999902    2    1    2    0    0 -0.67542464072E-02  0.14006598802E-01  0.18225804947E-01  0.10199720239E+01  0.10196906123E+01 0.  0.
     999903    2    3    3    0    0 -0.81711172992E-01  0.81376606216E-01 -0.55215142417E-01  0.13118024201E+00  0.29337281924E-01 0.  0.
         14    1    1    2    0    0  0.67542464072E-02 -0.14006598802E-01 -0.18225804947E-01  0.23957976136E-01  0.00000000000E+00 0. -1.
     999901    1    3    3    0    0  0.74956926585E-01 -0.67370007414E-01  0.73440947364E-01  0.88879178185E+00  0.88000000000E+00 0. -1.
        -11    1    4    4    0    0 -0.70970810578E-01  0.53840425191E-01 -0.45723941187E-01  0.10013284804E+00  0.51100000000E-03 0.  1.
         11    1    4    4    0    0 -0.10740362414E-01  0.27536181026E-01 -0.94912012295E-02  0.31047393965E-01  0.51100000000E-03 0. -1.
</event>
<event>
 8    1  0.1128641E+005  0.1043930E+01  0.7957747E-01            NaN
         13   -1    0    0    0    0  0.00000000000E+00  0.00000000000E+00  0.74505805969E-08  0.10566000000E+00  0.10566000000E+00 0. -1.
     999900   -1    0    0    0    0 -0.00000000000E+00 -0.00000000000E+00 -0.74505805969E-08  0.93827000000E+00  0.93827000000E+00 0. -1.
     999902    2    1    2    0    0  0.64000821234E-02  0.18678548909E-01  0.16876139076E-01  0.10179559108E+01  0.10176244803E+01 0.  0.
     999903    2    3    3    0    0  0.78922556454E-01  0.73651038478E-01  0.72460544137E-01  0.13151859773E+00  0.19833449151E-01 0.  0.
         14    1    1    2    0    0 -0.64000821234E-02 -0.18678548909E-01 -0.16876139076E-01  0.25974089217E-01  0.00000000000E+00 0.  1.
     999901    1    3    3    0    0 -0.72522474331E-01 -0.54972489569E-01 -0.55584405061E-01  0.88643731306E+00  0.88000000000E+00 0. -1.
        -11    1    4    4    0    0  0.74738272619E-01  0.66839283473E-01  0.60444944709E-01  0.11707754555E+00  0.51100000000E-03 0.  1.
         11    1    4    4    0    0  0.41842838352E-02  0.68117550046E-02  0.12015599429E-01  0.14441052181E-01  0.51100000000E-03 0. -1.
</event>
<event>
 8    1  0.1128641E+005  0.1043930E+01  0.7957747E-01            NaN
         13   -1    0    0    0    0  0.00000000000E+00  0.00000000000E+00  0.74505805969E-08  0.10566000000E+00  0.10566000000E+00 0. -1.
     999900   -1    0    0    0    0 -0.00000000000E+00 -0.00000000000E+00 -0.74505805969E-08  0.93827000000E+00  0.93827000000E+00 0. -1.
     999902    2    1    2    0    0  0.15507763137E-01 -0.15968855455E-01 -0.79265994884E-02  0.10203010762E+01  0.10200274310E+01 0.  0.
     999903    2    3    3    0    0 -0.11239900049E+00 -0.14482094304E-01 -0.60152740460E-01  0.12952056423E+00  0.17718860217E-01 0.  0.
         14    1    1    2    0    0 -0.15507763137E-01  0.15968855455E-01  0.79265994884E-02  0.23628923833E-01  0.00000000000E+00 0. -1.
     999901    1    3    3    0    0  0.12790676363E+00 -0.14867611509E-02  0.52226140972E-01  0.89078051193E+00  0.88000000000E+00 0. -1.
        -11    1    4    4    0    0 -0.19142038546E-01 -0.21596569039E-02 -0.18251061043E-01  0.26541365975E-01  0.51100000000E-03 0.  1.
         11    1    4    4    0    0 -0.93256961945E-01 -0.12322437401E-01 -0.41901679417E-01  0.10297919826E+00  0.51100000000E-03 0. -1.
</event>
<event>
 8    1  0.1128641E+005  0.1043930E+01  0.7957747E-01            NaN
         13   -1    0    0    0    0  0.00000000000E+00  0.00000000000E+00  0.74505805969E-08  0.10566000000E+00  0.10566000000E+00 0.  1.
     999900   -1    0    0    0    0 -0.00000000000E+00 -0.00000000000E+00 -0.74505805969E-08  0.93827000000E+00  0.93827000000E+00 0.  1.
     999902    2    1    2    0    0  0.14724306063E-01 -0.46370594266E-02 -0.17305839877E-01  0.10207394933E+01  0.10204760230E+01 0.  0.
     999903    2    3    3    0    0  0.93638266551E-01  0.23726503158E-01  0.85900331723E-01  0.13074880864E+00  0.19629367199E-01 0.  0.
         14    1    1    2    0    0 -0.14724306063E-01  0.46370594266E-02  0.17305839877E-01  0.23190506743E-01  0.00000000000E+00 0.  1.
     999901    1    3    3    0    0 -0.78913960488E-01 -0.28363562585E-01 -0.10320617160E+00  0.88999068461E+00  0.88000000000E+00 0.  1.
        -11    1    4    4    0    0  0.23032857421E-02  0.44183265966E-03  0.83529494806E-02  0.86909854065E-02  0.51100000000E-03 0.  1.
         11    1    4    4    0    0  0.91334980809E-01  0.23284670499E-01  0.77547382243E-01  0.12205782324E+00  0.51100000000E-03 0. -1.
</event>
<event>
 8    1  0.1128641E+005  0.1043930E+01  0.7957747E-01            NaN
         13   -1    0    0    0    0  0.00000000000E+00  0.00000000000E+00  0.74505805969E-08  0.10566000000E+00  0.10566000000E+00 0. -1.
     999900   -1    0    0    0    0 -0.00000000000E+00 -0.00000000000E+00 -0.74505805969E-08  0.93827000000E+00  0.93827000000E+00 0. -1.
     999902    2    1    2    0    0  0.14764762407E-01 -0.41606154784E-02  0.13471021805E-01  0.10235148743E+01  0.10233112530E+01 0.  0.
     999903    2    3    3    0    0 -0.10236963770E+00 -0.80944161963E-01 -0.73633979736E-02  0.13219548497E+00  0.19746557594E-01 0.  0.
         14    1    1    2    0    0 -0.14764762407E-01  0.41606154784E-02 -0.13471021805E-01  0.20415125730E-01  0.00000000000E+00 0.  1.
     999901    1    3    3    0    0  0.11713440011E+00  0.76783546485E-01  0.20834419779E-01  0.89131938930E+00  0.88000000000E+00 0.  1.
        -11    1    4    4    0    0 -0.36413437170E-01 -0.24283896969E-01 -0.11118697304E-01  0.45161184763E-01  0.51100000000E-03 0. -1.
         11    1    4    4    0    0 -0.65956200533E-01 -0.56660264994E-01  0.37552993303E-02  0.87034300204E-01  0.51100000000E-03 0.  1.
</event>
<event>
 8    1  0.1128641E+005  0.1043930E+01  0.7957747E-01            NaN
         13   -1    0    0    0    0  0.00000000000E+00  0.00000000000E+00  0.74505805969E-08  0.10566000000E+00  0.10566000000E+00 0.  1.
     999900   -1    0    0    0    0 -0.00000000000E+00 -0.00000000000E+00 -0.74505805969E-08  0.93827000000E+00  0.93827000000E+00 0.  1.
     999902    2    1    2    0    0  0.18971219070E-02  0.23474212806E-01  0.20973070971E-02  0.10202860486E+01  0.10200120512E+01 0.  0.
     999903    2    3    3    0    0  0.18013628138E-01 -0.11919043536E+00  0.37388896436E-01  0.12795290465E+00  0.21051497592E-01 0.  0.
         14    1    1    2    0    0 -0.18971219070E-02 -0.23474212806E-01 -0.20973070971E-02  0.23643951350E-01  0.00000000000E+00 0. -1.
     999901    1    3    3    0    0 -0.16116506231E-01  0.14266464817E+00 -0.35291589339E-01  0.89233314400E+00  0.88000000000E+00 0.  1.
        -11    1    4    4    0    0  0.63892707402E-02 -0.36790941511E-01  0.21943136720E-01  0.43314645652E-01  0.51100000000E-03 0.  1.
         11    1    4    4    0    0  0.11624357398E-01 -0.82399493848E-01  0.15445759717E-01  0.84638258994E-01  0.51100000000E-03 0. -1.
</event>
<event>
 8    1  0.1128641E+005  0.1043930E+01  0.7957747E-01            NaN
         13   -1    0    0    0    0  0.00000000000E+00  0.00000000000E+00  0.74505805969E-08  0.10566000000E+00  0.10566000000E+00 0.  1.
     999900   -1    0    0    0    0 -0.00000000000E+00 -0.00000000000E+00 -0.74505805969E-08  0.93827000000E+00  0.93827000000E+00 0. -1.
     999902    2    1    2    0    0 -0.86339673950E-02 -0.22239028334E-01  0.56895638697E-02  0.10194046884E+01  0.10191096250E+01 0.  0.
     999903    2    3    3    0    0  0.48800388806E-01  0.19388218128E-01 -0.11535350836E+00  0.12829136321E+00  0.19871110527E-01 0.  0.
         14    1    1    2    0    0  0.86339673950E-02  0.22239028334E-01 -0.56895638697E-02  0.24525311644E-01  0.00000000000E+00 0. -1.
     999901    1    3    3    0    0 -0.57434356201E-01 -0.41627246461E-01  0.12104307223E+00  0.89111332515E+00  0.88000000000E+00 0.  1.
        -11    1    4    4    0    0 -0.87351650081E-03 -0.13086443341E-02 -0.10677760829E-02  0.19689712627E-02  0.51100000000E-03 0. -1.
         11    1    4    4    0    0  0.49673905306E-01  0.20696862462E-01 -0.11428573228E+00  0.12632239195E+00  0.51100000000E-03 0.  1.
</event>
<event>
 8    1  0.1128641E+005  0.1043930E+01  0.7957747E-01            NaN
         13   -1    0    0    0    0  0.00000000000E+00  0.00000000000E+00  0.74505805969E-08  0.10566000000E+00  0.10566000000E+00 0.  1.
     999900   -1    0    0    0    0 -0.00000000000E+00 -0.00000000000E+00 -0.74505805969E-08  0.93827000000E+00  0.93827000000E+00 0. -1.
     999902    2    1    2    0    0  0.11239151338E-01  0.82807184912E-02 -0.17551445937E-01  0.10215036299E+01  0.10212574229E+01 0.  0.
     999903    2    3    3    0    0 -0.48379682657E-01  0.10484968753E+00 -0.62884057541E-01  0.13305834918E+00  0.20397767642E-01 0.  0.
         14    1    1    2    0    0 -0.11239151338E-01 -0.82807184912E-02  0.17551445937E-01  0.22426370103E-01  0.00000000000E+00 0. -1.
     999901    1    3    3    0    0  0.59618833995E-01 -0.96568969041E-01  0.45332611603E-01  0.88844528071E+00  0.88000000000E+00 0.  1.
        -11    1    4    4    0    0 -0.22633470727E-01  0.62660763224E-01 -0.45430713738E-01  0.80640288422E-01  0.51100000000E-03 0. -1.
         11    1    4    4    0    0 -0.25746211930E-01  0.42188924308E-01 -0.17453343802E-01  0.52418060761E-01  0.51100000000E-03 0.  1.
</event>
<event>
 8    1  0.1128641E+005  0.1043930E+01  0.7957747E-01            NaN
         13   -1    0    0    0    0  0.00000000000E+00  0.00000000000E+00  0.74505805969E-08  0.10566000000E+00  0.10566000000E+00 0. -1.
     999900   -1    0    0    0    0 -0.00000000000E+00 -0.00000000000E+00 -0.74505805969E-08  0.93827000000E+00  0.93827000000E+00 0.  1.
     999902    2    1    2    0    0  0.49488373915E-02  0.13006124751E-02  0.22877038487E-01  0.10204876990E+01  0.10202184092E+01 0.  0.
     999903    2    3    3    0    0 -0.15051781379E-01 -0.25984352133E-01 -0.12258911310E+00  0.12790442825E+00  0.20729434030E-01 0.  0.
         14    1    1    2    0    0 -0.49488373915E-02 -0.13006124751E-02 -0.22877038487E-01  0.23442300959E-01  0.00000000000E+00 0.  1.
     999901    1    3    3    0    0  0.20000618770E-01  0.27284964608E-01  0.14546615159E+00  0.89258327079E+00  0.88000000000E+00 0. -1.
        -11    1    4    4    0    0 -0.12176303682E-01 -0.57137615794E-02 -0.27281001352E-01  0.30420775772E-01  0.51100000000E-03 0.  1.
         11    1    4    4    0    0 -0.28754776963E-02 -0.20270590554E-01 -0.95308111750E-01  0.97483652474E-01  0.51100000000E-03 0. -1.
</event>
<event>
 8    1  0.1128641E+005  0.1043930E+01  0.7957747E-01            NaN
         13   -1    0    0    0    0  0.00000000000E+00  0.00000000000E+00  0.74505805969E-08  0.10566000000E+00  0.10566000000E+00 0. -1.
     999900   -1    0    0    0    0 -0.00000000000E+00 -0.00000000000E+00 -0.74505805969E-08  0.93827000000E+00  0.93827000000E+00 0.  1.
     999902    2    1    2    0    0 -0.15008331240E-01 -0.17552582938E-01 -0.20736885364E-02  0.10207428622E+01  0.10204794694E+01 0.  0.
     999903    2    3    3    0    0  0.11646231846E+00  0.28210285217E-01 -0.42980623947E-01  0.12886162057E+00  0.19967258413E-01 0.  0.
         14    1    1    2    0    0  0.15008331240E-01  0.17552582938E-01  0.20736885364E-02  0.23187137783E-01  0.00000000000E+00 0. -1.
     999901    1    3    3    0    0 -0.13147064970E+00 -0.45762868155E-01  0.40906935410E-01  0.89188124165E+00  0.88000000000E+00 0. -1.
        -11    1    4    4    0    0  0.46520841049E-01  0.66939177852E-02 -0.77238442049E-02  0.47633140538E-01  0.51100000000E-03 0. -1.
         11    1    4    4    0    0  0.69941477411E-01  0.21516367432E-01 -0.35256779742E-01  0.81228480034E-01  0.51100000000E-03 0.  1.
</event>
<event>
 8    1  0.1128641E+005  0.1043930E+01  0.7957747E-01            NaN
         13   -1    0    0    0    0  0.00000000000E+00  0.00000000000E+00  0.74505805969E-08  0.10566000000E+00  0.10566000000E+00 0.  1.
     999900   -1    0    0    0    0 -0.00000000000E+00 -0.00000000000E+00 -0.74505805969E-08  0.93827000000E+00  0.93827000000E+00 0. -1.
     999902    2    1    2    0    0 -0.60600952886E-02  0.65002281947E-02  0.21164268505E-01  0.10209756108E+01  0.10207175387E+01 0.  0.
     999903    2    3    3    0    0  0.52815917458E-02 -0.98644763541E-01  0.86789458805E-01  0.13221761858E+00  0.13798692662E-01 0.  0.
         14    1    1    2    0    0  0.60600952886E-02 -0.65002281947E-02 -0.21164268505E-01  0.22954389185E-01  0.00000000000E+00 0.  1.
     999901    1    3    3    0    0 -0.11341687034E-01  0.10514499174E+00 -0.65625190300E-01  0.88875799223E+00  0.88000000000E+00 0.  1.
        -11    1    4    4    0    0 -0.11985453973E-02 -0.48341431786E-01  0.34757372453E-01  0.59553896590E-01  0.51100000000E-03 0. -1.
         11    1    4    4    0    0  0.64801371431E-02 -0.50303331755E-01  0.52032086352E-01  0.72663721995E-01  0.51100000000E-03 0.  1.
</event>
<event>
 8    1  0.1128641E+005  0.1043930E+01  0.7957747E-01            NaN
         13   -1    0    0    0    0  0.00000000000E+00  0.00000000000E+00  0.74505805969E-08  0.10566000000E+00  0.10566000000E+00 0. -1.
     999900   -1    0    0    0    0 -0.00000000000E+00 -0.00000000000E+00 -0.74505805969E-08  0.93827000000E+00  0.93827000000E+00 0. -1.
     999902    2    1    2    0    0  0.14506206319E-01 -0.73447512576E-02 -0.19100075013E-01  0.10188463747E+01  0.10185375531E+01 0.  0.
     999903    2    3    3    0    0 -0.80689901866E-01 -0.96619347595E-01 -0.21730783763E-01  0.12921770318E+00  0.19463536634E-01 0.  0.
         14    1    1    2    0    0 -0.14506206319E-01  0.73447512576E-02  0.19100075013E-01  0.25083625302E-01  0.00000000000E+00 0. -1.
     999901    1    3    3    0    0  0.95196108184E-01  0.89274596338E-01  0.26307087494E-02  0.88962867152E+00  0.88000000000E+00 0.  1.
        -11    1    4    4    0    0 -0.42656448858E-01 -0.62543780665E-01 -0.19113757651E-01  0.78082609983E-01  0.51100000000E-03 0.  1.
         11    1    4    4    0    0 -0.38033453007E-01 -0.34075566930E-01 -0.26170261116E-02  0.51135093194E-01  0.51100000000E-03 0. -1.
</event>
<event>
 8    1  0.1128641E+005  0.1043930E+01  0.7957747E-01            NaN
         13   -1    0    0    0    0  0.00000000000E+00  0.00000000000E+00  0.74505805969E-08  0.10566000000E+00  0.10566000000E+00 0. -1.
     999900   -1    0    0    0    0 -0.00000000000E+00 -0.00000000000E+00 -0.74505805969E-08  0.93827000000E+00  0.93827000000E+00 0. -1.
     999902    2    1    2    0    0 -0.58627569090E-02  0.17097832930E-01 -0.87793816931E-02  0.10238355890E+01  0.10236383776E+01 0.  0.
     999903    2    3    3    0    0 -0.12632470792E+00  0.42379110225E-01 -0.78862845523E-02  0.13526875291E+00  0.21943591670E-01 0.  0.
         14    1    1    2    0    0  0.58627569090E-02 -0.17097832930E-01  0.87793816931E-02  0.20094410974E-01  0.00000000000E+00 0. -1.
     999901    1    3    3    0    0  0.12046195101E+00 -0.25281277295E-01 -0.89309714074E-03  0.88856683612E+00  0.88000000000E+00 0. -1.
        -11    1    4    4    0    0 -0.70539549995E-01  0.15311575775E-01 -0.11782100983E-01  0.73139260940E-01  0.51100000000E-03 0. -1.
         11    1    4    4    0    0 -0.55785157924E-01  0.27067534449E-01  0.38958164308E-02  0.62129491970E-01  0.51100000000E-03 0.  1.
</event>
<event>
 8    1  0.1128641E+005  0.1043930E+01  0.7957747E-01            NaN
         13   -1    0    0    0    0  0.00000000000E+00  0.00000000000E+00  0.74505805969E-08  0.10566000000E+00  0.10566000000E+00 0. -1.
     999900   -1    0    0    0    0 -0.00000000000E+00 -0.00000000000E+00 -0.74505805969E-08  0.93827000000E+00  0.93827000000E+00 0.  1.
     999902    2    1    2    0    0 -0.23626954678E-01 -0.66146513199E-02 -0.19037166579E-02  0.10193208404E+01  0.10190237313E+01 0.  0.
     999903    2    3    3    0    0  0.10318936047E+00 -0.27661173451E-01 -0.67147598361E-01  0.12759100576E+00  0.18907145577E-01 0.  0.
         14    1    1    2    0    0  0.23626954678E-01  0.66146513199E-02  0.19037166579E-02  0.24609159607E-01  0.00000000000E+00 0. -1.
     999901    1    3    3    0    0 -0.12681631515E+00  0.21046522131E-01  0.65243881703E-01  0.89172983464E+00  0.88000000000E+00 0.  1.
        -11    1    4    4    0    0  0.15076379456E-01 -0.91947586427E-02 -0.17098431934E-01  0.24585733660E-01  0.51100000000E-03 0. -1.
         11    1    4    4    0    0  0.88112981011E-01 -0.18466414809E-01 -0.50049166427E-01  0.10300527210E+00  0.51100000000E-03 0.  1.
</event>
<event>
 8    1  0.1128641E+005  0.1043930E+01  0.7957747E-01            NaN
         13   -1    0    0    0    0  0.00000000000E+00  0.00000000000E+00  0.74505805969E-08  0.10566000000E+00  0.10566000000E+00 0. -1.
     999900   -1    0    0    0    0 -0.00000000000E+00 -0.00000000000E+00 -0.74505805969E-08  0.93827000000E+00  0.93827000000E+00 0.  1.
     999902    2    1    2    0    0  0.79653881322E-02  0.24193236650E-01  0.56114769057E-02  0.10178484207E+01  0.10175142056E+01 0.  0.
     999903    2    3    3    0    0 -0.11817248820E+00  0.28281879712E-01 -0.34809059743E-01  0.12792634507E+00  0.19719975490E-01 0.  0.
         14    1    1    2    0    0 -0.79653881322E-02 -0.24193236650E-01 -0.56114769057E-02  0.26081579338E-01  0.00000000000E+00 0.  1.
     999901    1    3    3    0    0  0.12613787634E+00 -0.40886430618E-02  0.40420536649E-01  0.88992207560E+00  0.88000000000E+00 0. -1.
        -11    1    4    4    0    0 -0.18652662175E-01  0.50875756829E-02  0.16922688538E-02  0.19414688445E-01  0.51100000000E-03 0.  1.
         11    1    4    4    0    0 -0.99519826030E-01  0.23194304029E-01 -0.36501328597E-01  0.10851165662E+00  0.51100000000E-03 0. -1.
</event>
<event>
 8    1  0.1128641E+005  0.1043930E+01  0.7957747E-01            NaN
         13   -1    0    0    0    0  0.00000000000E+00  0.00000000000E+00  0.74505805969E-08  0.10566000000E+00  0.10566000000E+00 0.  1.
     999900   -1    0    0    0    0 -0.00000000000E+00 -0.00000000000E+00 -0.74505805969E-08  0.93827000000E+00  0.93827000000E+00 0. -1.
     999902    2    1    2    0    0 -0.20355402689E-01 -0.69242002961E-02 -0.13741872668E-01  0.10184128287E+01  0.10180931016E+01 0.  0.
     999903    2    3    3    0    0  0.90341484597E-01  0.64233651682E-01 -0.61739457105E-01  0.12733426375E+00  0.10710196648E-01 0.  0.
         14    1    1    2    0    0  0.20355402689E-01  0.69242002961E-02  0.13741872668E-01  0.25517171332E-01  0.00000000000E+00 0.  1.
     999901    1    3    3    0    0 -0.11069688729E+00 -0.71157851979E-01  0.47997584437E-01  0.89107856492E+00  0.88000000000E+00 0.  1.
        -11    1    4    4    0    0  0.56647322507E-01  0.38688049719E-01 -0.43864920183E-01  0.81425282818E-01  0.51100000000E-03 0.  1.
         11    1    4    4    0    0  0.33694162089E-01  0.25545601964E-01 -0.17874536922E-01  0.45908980927E-01  0.51100000000E-03 0. -1.
</event>
<event>
 8    1  0.1128641E+005  0.1043930E+01  0.7957747E-01            NaN
         13   -1    0    0    0    0  0.00000000000E+00  0.00000000000E+00  0.74505805969E-08  0.10566000000E+00  0.10566000000E+00 0. -1.
     999900   -1    0    0    0    0 -0.00000000000E+00 -0.00000000000E+00 -0.74505805969E-08  0.93827000000E+00  0.93827000000E+00 0. -1.
     999902    2    1    2    0    0 -0.14077743226E-01 -0.74937365641E-02  0.16105853395E-01  0.10212642228E+01  0.10210126715E+01 0.  0.
     999903    2    3    3    0    0 -0.77201970946E-01  0.13171440484E-01 -0.10280590827E+00  0.13078585433E+00  0.20056264716E-01 0.  0.
         14    1    1    2    0    0  0.14077743226E-01  0.74937365641E-02 -0.16105853395E-01  0.22665777190E-01  0.00000000000E+00 0. -1.
     999901    1    3    3    0    0  0.63124227719E-01 -0.20665177048E-01  0.11891176167E+00  0.89047836848E+00  0.88000000000E+00 0.  1.
        -11    1    4    4    0    0 -0.67722862193E-01  0.75974062986E-02 -0.77576040422E-01  0.10325894545E+00  0.51100000000E-03 0.  1.
         11    1    4    4    0    0 -0.94791087526E-02  0.55740341855E-02 -0.25229867852E-01  0.27526908884E-01  0.51100000000E-03 0. -1.
</event>
<event>
 8    1  0.1128641E+005  0.1043930E+01  0.7957747E-01            NaN
         13   -1    0    0    0    0  0.00000000000E+00  0.00000000000E+00  0.74505805969E-08  0.10566000000E+00  0.10566000000E+00 0. -1.
     999900   -1    0    0    0    0 -0.00000000000E+00 -0.00000000000E+00 -0.74505805969E-08  0.93827000000E+00  0.93827000000E+00 0.  1.
     999902    2    1    2    0    0 -0.11622725423E-01  0.19591493981E-01 -0.83916761411E-02  0.10196537851E+01  0.10193647565E+01 0.  0.
     999903    2    3    3    0    0 -0.37545083499E-01  0.11847650500E+00 -0.43221700948E-01  0.13305165070E+00  0.19705602977E-01 0.  0.
         14    1    1    2    0    0  0.11622725423E-01 -0.19591493981E-01  0.83916761411E-02  0.24276214926E-01  0.00000000000E+00 0. -1.
     999901    1    3    3    0    0  0.25922358076E-01 -0.98885011019E-01  0.34830024807E-01  0.88660213438E+00  0.88000000000E+00 0. -1.
        -11    1    4    4    0    0 -0.14814051822E-01  0.72728390320E-01 -0.19598080684E-01  0.76767315815E-01  0.51100000000E-03 0. -1.
         11    1    4    4    0    0 -0.22731031677E-01  0.45748114680E-01 -0.23623620264E-01  0.56284334883E-01  0.51100000000E-03 0.  1.
</event>
<event>
 8    1  0.1128641E+005  0.1043930E+01  0.7957747E-01            NaN
         13   -1    0    0    0    0  0.00000000000E+00  0.00000000000E+00  0.74505805969E-08  0.10566000000E+00  0.10566000000E+00 0.  1.
     999900   -1    0    0    0    0 -0.00000000000E+00 -0.00000000000E+00 -0.74505805969E-08  0.93827000000E+00  0.93827000000E+00 0. -1.
     999902    2    1    2    0    0  0.55915693548E-02 -0.41050299100E-02  0.26736411619E-01  0.10163084029E+01  0.10159329787E+01 0.  0.
     999903    2    3    3    0    0  0.77019786026E-01 -0.50067966851E-01 -0.83217643543E-01  0.12540746795E+00  0.19052770815E-01 0.  0.
         14    1    1    2    0    0 -0.55915693548E-02  0.41050299100E-02 -0.26736411619E-01  0.27621597069E-01  0.00000000000E+00 0. -1.
     999901    1    3    3    0    0 -0.71428216671E-01  0.45962936941E-01  0.10995405516E+00  0.89090093498E+00  0.88000000000E+00 0.  1.
        -11    1    4    4    0    0  0.38235692808E-01 -0.29875795330E-01 -0.32316597258E-01  0.58302272087E-01  0.51100000000E-03 0. -1.
         11    1    4    4    0    0  0.38784093218E-01 -0.20192171522E-01 -0.50901046285E-01  0.67105195860E-01  0.51100000000E-03 0.  1.
</event>
<event>
 8    1  0.1128641E+005  0.1043930E+01  0.7957747E-01            NaN
         13   -1    0    0    0    0  0.00000000000E+00  0.00000000000E+00  0.74505805969E-08  0.10566000000E+00  0.10566000000E+00 0. -1.
     999900   -1    0    0    0    0 -0.00000000000E+00 -0.00000000000E+00 -0.74505805969E-08  0.93827000000E+00  0.93827000000E+00 0.  1.
     999902    2    1    2    0    0  0.82853683981E-02  0.33665524528E-02  0.22142161727E-01  0.10200499596E+01  0.10197703975E+01 0.  0.
     999903    2    3    3    0    0 -0.99252832677E-01 -0.71754010360E-01  0.39201701708E-01  0.13016311758E+00  0.20146983984E-01 0.  0.
         14    1    1    2    0    0 -0.82853683981E-02 -0.33665524528E-02 -0.22142161727E-01  0.23880040429E-01  0.00000000000E+00 0.  1.
     999901    1    3    3    0    0  0.10753820108E+00  0.75120562813E-01 -0.17059539981E-01  0.88988684199E+00  0.88000000000E+00 0. -1.
        -11    1    4    4    0    0 -0.90546121061E-01 -0.63622975658E-01  0.41175330874E-01  0.11807689048E+00  0.51100000000E-03 0.  1.
         11    1    4    4    0    0 -0.87067116166E-02 -0.81310347019E-02 -0.19736291659E-02  0.12086227103E-01  0.51100000000E-03 0. -1.
</event>
<event>
 8    1  0.1128641E+005  0.1043930E+01  0.7957747E-01            NaN
         13   -1    0    0    0    0  0.00000000000E+00  0.00000000000E+00  0.74505805969E-08  0.10566000000E+00  0.10566000000E+00 0.  1.
     999900   -1    0    0    0    0 -0.00000000000E+00 -0.00000000000E+00 -0.74505805969E-08  0.93827000000E+00  0.93827000000E+00 0.  1.
     999902    2    1    2    0    0 -0.17865515432E-01  0.11211317491E-02 -0.14599347182E-01  0.10208307681E+01  0.10205693913E+01 0.  0.
     999903    2    3    3    0    0  0.45555472149E-01 -0.98638056839E-01 -0.70527814807E-01  0.13116672424E+00  0.20634184912E-01 0.  0.
         14    1    1    2    0    0  0.17865515432E-01 -0.11211317491E-02  0.14599347182E-01  0.23099231940E-01  0.00000000000E+00 0.  1.
     999901    1    3    3    0    0 -0.63420987581E-01  0.99759188588E-01  0.55928467625E-01  0.88966404382E+00  0.88000000000E+00 0. -1.
        -11    1    4    4    0    0  0.36007312232E-01 -0.86441440663E-01 -0.52360739900E-01  0.10728726580E+00  0.51100000000E-03 0. -1.
         11    1    4    4    0    0  0.95481599166E-02 -0.12196616176E-01 -0.18167074908E-01  0.23879458445E-01  0.51100000000E-03 0.  1.
</event>
<event>
 8    1  0.1128641E+005  0.1043930E+01  0.7957747E-01            NaN
         13   -1    0    0    0    0  0.00000000000E+00  0.00000000000E+00  0.74505805969E-08  0.10566000000E+00  0.10566000000E+00 0. -1.
     999900   -1    0    0    0    0 -0.00000000000E+00 -0.00000000000E+00 -0.74505805969E-08  0.93827000000E+00  0.93827000000E+00 0.  1.
     999902    2    1    2    0    0 -0.14987103556E-01  0.81399321342E-02  0.16980396444E-01  0.10198633087E+01  0.10195793067E+01 0.  0.
     999903    2    3    3    0    0  0.10494888124E+00  0.58009158666E-01  0.45743527048E-01  0.12986392784E+00  0.19820174645E-01 0.  0.
         14    1    1    2    0    0  0.14987103556E-01 -0.81399321342E-02 -0.16980396444E-01  0.24066691329E-01  0.00000000000E+00 0. -1.
     999901    1    3    3    0    0 -0.11993598480E+00 -0.49869226532E-01 -0.28763130605E-01  0.88999938083E+00  0.88000000000E+00 0.  1.
        -11    1    4    4    0    0  0.82256157659E-01  0.45302454676E-01  0.44242003400E-01  0.10380753276E+00  0.51100000000E-03 0.  1.
         11    1    4    4    0    0  0.22692723583E-01  0.12706703990E-01  0.15015236481E-02  0.26056395072E-01  0.51100000000E-03 0. -1.
</event>
<event>
 8    1  0.1499624E+005  0.1043930E+01  0.7957747E-01            NaN
         13   -1    0    0    0    0  0.00000000000E+00  0.00000000000E+00  0.74505805969E-08  0.10566000000E+00  0.10566000000E+00 0. -1.
     999900   -1    0    0    0    0 -0.00000000000E+00 -0.00000000000E+00 -0.74505805969E-08  0.93827000000E+00  0.93827000000E+00 0.  1.
     999902    2    1    2    0    0  0.10858965718E-01  0.20058186283E-01  0.47955663441E-02  0.10206223740E+01  0.10203562049E+01 0.  0.
     999903    2    3    3    0    0 -0.18918672802E-01  0.62498833692E-01 -0.11239027246E+00  0.13134152009E+00  0.18841474542E-01 0.  0.
         14    1    1    2    0    0 -0.10858965718E-01 -0.20058186283E-01 -0.47955663441E-02  0.23307626005E-01  0.00000000000E+00 0.  1.
     999901    1    3    3    0    0  0.29777638520E-01 -0.42440647408E-01  0.11718583880E+00  0.88928085391E+00  0.88000000000E+00 0. -1.
        -11    1    4    4    0    0 -0.18795321583E-01  0.29660999485E-01 -0.58690751984E-01  0.68395208117E-01  0.51100000000E-03 0. -1.
         11    1    4    4    0    0 -0.12335121957E-03  0.32837834207E-01 -0.53699520473E-01  0.62946311972E-01  0.51100000000E-03 0.  1.
</event>
<event>
 8    1  0.1128641E+005  0.1043930E+01  0.7957747E-01            NaN
         13   -1    0    0    0    0  0.00000000000E+00  0.00000000000E+00  0.74505805969E-08  0.10566000000E+00  0.10566000000E+00 0.  1.
     999900   -1    0    0    0    0 -0.00000000000E+00 -0.00000000000E+00 -0.74505805969E-08  0.93827000000E+00  0.93827000000E+00 0. -1.
     999902    2    1    2    0    0  0.39714939643E-02 -0.17356836961E-01  0.16074307186E-01  0.10199421717E+01  0.10196600501E+01 0.  0.
     999903    2    3    3    0    0  0.59545839458E-01  0.99007393761E-01 -0.50772346464E-01  0.12803544052E+00  0.21611845089E-01 0.  0.
         14    1    1    2    0    0 -0.39714939643E-02  0.17356836961E-01 -0.16074307186E-01  0.23987828270E-01  0.00000000000E+00 0. -1.
     999901    1    3    3    0    0 -0.55574345494E-01 -0.11636423072E+00  0.66846653650E-01  0.89190673121E+00  0.88000000000E+00 0.  1.
        -11    1    4    4    0    0  0.44019418849E-01  0.85441423441E-01 -0.47289169596E-01  0.10711896544E+00  0.51100000000E-03 0. -1.
         11    1    4    4    0    0  0.15526420609E-01  0.13565970320E-01 -0.34831768679E-02  0.20916475080E-01  0.51100000000E-03 0.  1.
</event>
<event>
 8    1  0.1128641E+005  0.1043930E+01  0.7957747E-01            NaN
         13   -1    0    0    0    0  0.00000000000E+00  0.00000000000E+00  0.74505805969E-08  0.10566000000E+00  0.10566000000E+00 0.  1.
     999900   -1    0    0    0    0 -0.00000000000E+00 -0.00000000000E+00 -0.74505805969E-08  0.93827000000E+00  0.93827000000E+00 0. -1.
     999902    2    1    2    0    0 -0.31427737392E-02 -0.24667331184E-01 -0.81647233064E-02  0.10177571713E+01  0.10174205830E+01 0.  0.
     999903    2    3    3    0    0  0.64783863830E-01 -0.18894642020E-01 -0.10869491786E+00  0.12941395384E+00  0.19478957100E-01 0.  0.
         14    1    1    2    0    0  0.31427737392E-02  0.24667331184E-01  0.81647233064E-02  0.26172828682E-01  0.00000000000E+00 0.  1.
     999901    1    3    3    0    0 -0.67926637570E-01 -0.57726891645E-02  0.10053019455E+00  0.88834321748E+00  0.88000000000E+00 0.  1.
        -11    1    4    4    0    0  0.36292703248E-01 -0.88600445683E-02 -0.77234389017E-01  0.85796693798E-01  0.51100000000E-03 0. -1.
         11    1    4    4    0    0  0.28491160583E-01 -0.10034597452E-01 -0.31460528839E-01  0.43617260037E-01  0.51100000000E-03 0.  1.
</event>
<event>
 8    1  0.1128641E+005  0.1043930E+01  0.7957747E-01            NaN
         13   -1    0    0    0    0  0.00000000000E+00  0.00000000000E+00  0.74505805969E-08  0.10566000000E+00  0.10566000000E+00 0.  1.
     999900   -1    0    0    0    0 -0.00000000000E+00 -0.00000000000E+00 -0.74505805969E-08  0.93827000000E+00  0.93827000000E+00 0.  1.
     999902    2    1    2    0    0 -0.21455479484E-01 -0.92831638425E-02  0.44213012863E-02  0.10201379291E+01  0.10198604472E+01 0.  0.
     999903    2    3    3    0    0  0.95965720649E-01  0.23887355367E-01  0.79817618153E-01  0.12852555474E+00  0.19181782174E-01 0.  0.
         14    1    1    2    0    0  0.21455479484E-01  0.92831638425E-02 -0.44213012863E-02  0.23792070861E-01  0.00000000000E+00 0.  1.
     999901    1    3    3    0    0 -0.11742120013E+00 -0.33170519209E-01 -0.75396316867E-01  0.89161237440E+00  0.88000000000E+00 0.  1.
        -11    1    4    4    0    0  0.52726388876E-01  0.22890749563E-01  0.45472142113E-01  0.73294169815E-01  0.51100000000E-03 0.  1.
         11    1    4    4    0    0  0.43239331773E-01  0.99660580378E-03  0.34345476040E-01  0.55231384925E-01  0.51100000000E-03 0. -1.
</event>
<event>
 8    1  0.1128641E+005  0.1043930E+01  0.7957747E-01            NaN
         13   -1    0    0    0    0  0.00000000000E+00  0.00000000000E+00  0.74505805969E-08  0.10566000000E+00  0.10566000000E+00 0. -1.
     999900   -1    0    0    0    0 -0.00000000000E+00 -0.00000000000E+00 -0.74505805969E-08  0.93827000000E+00  0.93827000000E+00 0. -1.
     999902    2    1    2    0    0 -0.14078083747E-01  0.69863093756E-02 -0.16190509827E-01  0.10213660117E+01  0.10211167398E+01 0.  0.
     999903    2    3    3    0    0  0.11368282822E-01  0.92702485702E-01  0.88869228221E-01  0.13061782671E+00  0.20983046031E-01 0.  0.
         14    1    1    2    0    0  0.14078083747E-01 -0.69863093756E-02  0.16190509827E-01  0.22563988325E-01  0.00000000000E+00 0. -1.
     999901    1    3    3    0    0 -0.25446366569E-01 -0.85716176326E-01 -0.10505973805E+00  0.89074818496E+00  0.88000000000E+00 0. -1.
        -11    1    4    4    0    0  0.71415595465E-03  0.44602707851E-01  0.55061461195E-01  0.70865627749E-01  0.51100000000E-03 0.  1.
         11    1    4    4    0    0  0.10654126868E-01  0.48099777851E-01  0.33807767027E-01  0.59752198963E-01  0.51100000000E-03 0. -1.
</event>
<event>
 8    1  0.1128641E+005  0.1043930E+01  0.7957747E-01            NaN
         13   -1    0    0    0    0  0.00000000000E+00  0.00000000000E+00  0.74505805969E-08  0.10566000000E+00  0.10566000000E+00 0.  1.
     999900   -1    0    0    0    0 -0.00000000000E+00 -0.00000000000E+00 -0.74505805969E-08  0.93827000000E+00  0.93827000000E+00 0.  1.
     999902    2    1    2    0    0  0.20249799039E-01 -0.95902826196E-03  0.14554138186E-01  0.10189740982E+01  0.10186684523E+01 0.  0.
     999903    2    3    3    0    0 -0.35899015808E-01  0.10279007868E+00 -0.63765512588E-01  0.12765455152E+00  0.19367609997E-01 0.  0.
         14    1    1    2    0    0 -0.20249799039E-01  0.95902826196E-03 -0.14554138186E-01  0.24955901800E-01  0.00000000000E+00 0. -1.
     999901    1    3    3    0    0  0.56148814847E-01 -0.10374910694E+00  0.78319650773E-01  0.89131954668E+00  0.88000000000E+00 0. -1.
        -11    1    4    4    0    0 -0.94915220433E-03  0.27807396800E-01 -0.17349793558E-01  0.32793729038E-01  0.51100000000E-03 0.  1.
         11    1    4    4    0    0 -0.34949863604E-01  0.74982681879E-01 -0.46415719029E-01  0.94860822481E-01  0.51100000000E-03 0. -1.
</event>
<event>
 8    1  0.1128641E+005  0.1043930E+01  0.7957747E-01            NaN
         13   -1    0    0    0    0  0.00000000000E+00  0.00000000000E+00  0.74505805969E-08  0.10566000000E+00  0.10566000000E+00 0.  1.
     999900   -1    0    0    0    0 -0.00000000000E+00 -0.00000000000E+00 -0.74505805969E-08  0.93827000000E+00  0.93827000000E+00 0.  1.
     999902    2    1    2    0    0 -0.19628789789E-01  0.67258296813E-02 -0.94695240009E-02  0.10211221492E+01  0.10208673986E+01 0.  0.
     999903    2    3    3    0    0  0.45838632841E-01 -0.85913005500E-01  0.82500600062E-01  0.12908714936E+00  0.19362808290E-01 0.  0.
         14    1    1    2    0    0  0.19628789789E-01 -0.67258296813E-02  0.94695240009E-02  0.22807850804E-01  0.00000000000E+00 0. -1.
     999901    1    3    3    0    0 -0.65467422631E-01  0.92638835181E-01 -0.91970124063E-01  0.89203499983E+00  0.88000000000E+00 0. -1.
        -11    1    4    4    0    0  0.41574968733E-01 -0.78434626387E-01  0.66529067195E-01  0.11093622738E+00  0.51100000000E-03 0.  1.
         11    1    4    4    0    0  0.42636641085E-02 -0.74783791124E-02  0.15971532868E-01  0.18150921985E-01  0.51100000000E-03 0. -1.
</event>
<event>
 8    1  0.1128641E+005  0.1043930E+01  0.7957747E-01            NaN
         13   -1    0    0    0    0  0.00000000000E+00  0.00000000000E+00  0.74505805969E-08  0.10566000000E+00  0.10566000000E+00 0. -1.
     999900   -1    0    0    0    0 -0.00000000000E+00 -0.00000000000E+00 -0.74505805969E-08  0.93827000000E+00  0.93827000000E+00 0. -1.
     999902    2    1    2    0    0  0.20400696453E-01 -0.11018478646E-01  0.62658429138E-02  0.10199121717E+01  0.10196293356E+01 0.  0.
     999903    2    3    3    0    0 -0.55659087841E-01 -0.57719408944E-01  0.10085808137E+00  0.13035398968E+00  0.19757171364E-01 0.  0.
         14    1    1    2    0    0 -0.20400696453E-01  0.11018478646E-01 -0.62658429138E-02  0.24017828271E-01  0.00000000000E+00 0. -1.
     999901    1    3    3    0    0  0.76059784294E-01  0.46700930298E-01 -0.94592238451E-01  0.88955818205E+00  0.88000000000E+00 0. -1.
        -11    1    4    4    0    0 -0.26375872769E-01 -0.22699665615E-01  0.58544089651E-01  0.68107510874E-01  0.51100000000E-03 0.  1.
         11    1    4    4    0    0 -0.29283215073E-01 -0.35019743329E-01  0.42313991714E-01  0.62246478805E-01  0.51100000000E-03 0. -1.
</event>
<event>
 8    1  0.1128641E+005  0.1043930E+01  0.7957747E-01            NaN
         13   -1    0    0    0    0  0.00000000000E+00  0.00000000000E+00  0.74505805969E-08  0.10566000000E+00  0.10566000000E+00 0. -1.
     999900   -1    0    0    0    0 -0.00000000000E+00 -0.00000000000E+00 -0.74505805969E-08  0.93827000000E+00  0.93827000000E+00 0. -1.
     999902    2    1    2    0    0 -0.68999418355E-04  0.56398000946E-02 -0.23018912276E-01  0.10202301597E+01  0.10199548502E+01 0.  0.
     999903    2    3    3    0    0  0.88787368853E-01 -0.27669075071E-01 -0.92136817827E-01  0.13243388794E+00  0.20019163150E-01 0.  0.
         14    1    1    2    0    0  0.68999418355E-04 -0.56398000946E-02  0.23018912276E-01  0.23699840261E-01  0.00000000000E+00 0. -1.
     999901    1    3    3    0    0 -0.88856368272E-01  0.33308875165E-01  0.69117905550E-01  0.88779627180E+00  0.88000000000E+00 0.  1.
        -11    1    4    4    0    0  0.46546931927E-01 -0.16241831607E-01 -0.34993106456E-01  0.60458188744E-01  0.51100000000E-03 0.  1.
         11    1    4    4    0    0  0.42240436926E-01 -0.11427243464E-01 -0.57143711371E-01  0.71975699198E-01  0.51100000000E-03 0. -1.
</event>
<event>
 8    1  0.1128641E+005  0.1043930E+01  0.7957747E-01            NaN
         13   -1    0    0    0    0  0.00000000000E+00  0.00000000000E+00  0.74505805969E-08  0.10566000000E+00  0.10566000000E+00 0.  1.
     999900   -1    0    0    0    0 -0.00000000000E+00 -0.00000000000E+00 -0.74505805969E-08  0.93827000000E+00  0.93827000000E+00 0.  1.
     999902    2    1    2    0    0 -0.40788335902E-02 -0.17771857970E-01 -0.15656678877E-01  0.10198965356E+01  0.10196133266E+01 0.  0.
     999903    2    3    3    0    0 -0.42402466150E-01 -0.12014792778E-01  0.11933126674E+00  0.12876041237E+00  0.19924060547E-01 0.  0.
         14    1    1    2    0    0  0.40788335902E-02  0.17771857970E-01  0.15656678877E-01  0.24033464432E-01  0.00000000000E+00 0.  1.
     999901    1    3    3    0    0  0.38323632560E-01 -0.57570651918E-02 -0.13498794562E+00  0.89113612320E+00  0.88000000000E+00 0.  1.
        -11    1    4    4    0    0 -0.11000821981E-01 -0.90146526793E-03  0.57238156114E-01  0.58294925682E-01  0.51100000000E-03 0. -1.
         11    1    4    4    0    0 -0.31401644169E-01 -0.11113327510E-01  0.62093110630E-01  0.70465486684E-01  0.51100000000E-03 0.  1.
</event>
<event>
 8    1  0.1128641E+005  0.1043930E+01  0.7957747E-01            NaN
         13   -1    0    0    0    0  0.00000000000E+00  0.00000000000E+00  0.74505805969E-08  0.10566000000E+00  0.10566000000E+00 0. -1.
     999900   -1    0    0    0    0 -0.00000000000E+00 -0.00000000000E+00 -0.74505805969E-08  0.93827000000E+00  0.93827000000E+00 0. -1.
     999902    2    1    2    0    0 -0.37545746680E-02 -0.19906315457E-01  0.11939364045E-01  0.10204160331E+01  0.10201450750E+01 0.  0.
     999903    2    3    3    0    0 -0.73651035910E-01  0.23209133682E-01  0.10507866489E+00  0.13169820014E+00  0.18432339185E-01 0.  0.
         14    1    1    2    0    0  0.37545746680E-02  0.19906315457E-01 -0.11939364045E-01  0.23513966909E-01  0.00000000000E+00 0. -1.
     999901    1    3    3    0    0  0.69896461242E-01 -0.43115449139E-01 -0.93139300842E-01  0.88871783295E+00  0.88000000000E+00 0. -1.
        -11    1    4    4    0    0 -0.49343732833E-01  0.15703922435E-01  0.55101121752E-01  0.75616214459E-01  0.51100000000E-03 0.  1.
         11    1    4    4    0    0 -0.24307303078E-01  0.75052112467E-02  0.49977543135E-01  0.56081985678E-01  0.51100000000E-03 0. -1.
</event>
<event>
 8    1  0.1128641E+005  0.1043930E+01  0.7957747E-01            NaN
         13   -1    0    0    0    0  0.00000000000E+00  0.00000000000E+00  0.74505805969E-08  0.10566000000E+00  0.10566000000E+00 0. -1.
     999900   -1    0    0    0    0 -0.00000000000E+00 -0.00000000000E+00 -0.74505805969E-08  0.93827000000E+00  0.93827000000E+00 0.  1.
     999902    2    1    2    0    0 -0.14039382314E-01 -0.10814445745E-01 -0.15987095816E-01  0.10200627897E+01  0.10197835316E+01 0.  0.
     999903    2    3    3    0    0  0.18656587382E-01 -0.12807852113E+00  0.90315682965E-02  0.13133008338E+00  0.20343199060E-01 0.  0.
         14    1    1    2    0    0  0.14039382314E-01  0.10814445745E-01  0.15987095816E-01  0.23867210251E-01  0.00000000000E+00 0. -1.
     999901    1    3    3    0    0 -0.32695969696E-01  0.11726407538E+00 -0.25018664113E-01  0.88873270637E+00  0.88000000000E+00 0.  1.
        -11    1    4    4    0    0  0.22001448176E-01 -0.88326622637E-01  0.39567617315E-02  0.91112968740E-01  0.51100000000E-03 0. -1.
         11    1    4    4    0    0 -0.33448607940E-02 -0.39751898493E-01  0.50748065650E-02  0.40217114643E-01  0.51100000000E-03 0.  1.
</event>
<event>
 8    1  0.1128641E+005  0.1043930E+01  0.7957747E-01            NaN
         13   -1    0    0    0    0  0.00000000000E+00  0.00000000000E+00  0.74505805969E-08  0.10566000000E+00  0.10566000000E+00 0. -1.
     999900   -1    0    0    0    0 -0.00000000000E+00 -0.00000000000E+00 -0.74505805969E-08  0.93827000000E+00  0.93827000000E+00 0. -1.
     999902    2    1    2    0    0  0.19572125565E-01  0.69782502311E-02 -0.10765728798E-01  0.10205277567E+01  0.10202593970E+01 0.  0.
     999903    2    3    3    0    0  0.12679004976E+00 -0.56615254490E-02 -0.36438687181E-01  0.13355845170E+00  0.20057729407E-01 0.  0.
         14    1    1    2    0    0 -0.19572125565E-01 -0.69782502311E-02  0.10765728798E-01  0.23402243310E-01  0.00000000000E+00 0.  1.
     999901    1    3    3    0    0 -0.10721792420E+00  0.12639775680E-01  0.25672958383E-01  0.88696930499E+00  0.88000000000E+00 0.  1.
        -11    1    4    4    0    0  0.63987011391E-01 -0.22095899773E-02 -0.28765893437E-01  0.70192290609E-01  0.51100000000E-03 0. -1.
         11    1    4    4    0    0  0.62803038369E-01 -0.34519354717E-02 -0.76727937434E-02  0.63366161093E-01  0.51100000000E-03 0.  1.
</event>
<event>
 8    1  0.1128641E+005  0.1043930E+01  0.7957747E-01            NaN
         13   -1    0    0    0    0  0.00000000000E+00  0.00000000000E+00  0.74505805969E-08  0.10566000000E+00  0.10566000000E+00 0.  1.
     999900   -1    0    0    0    0 -0.00000000000E+00 -0.00000000000E+00 -0.74505805969E-08  0.93827000000E+00  0.93827000000E+00 0. -1.
     999902    2    1    2    0    0  0.23124977624E-01  0.33200828067E-02  0.49463855086E-03  0.10205626679E+01  0.10202951176E+01 0.  0.
     999903    2    3    3    0    0 -0.64614486246E-01  0.11169804350E+00 -0.96189492597E-02  0.12952603540E+00  0.57432489040E-02 0.  0.
         14    1    1    2    0    0 -0.23124977624E-01 -0.33200828067E-02 -0.49463855086E-03  0.23367332052E-01  0.00000000000E+00 0. -1.
     999901    1    3    3    0    0  0.87739463870E-01 -0.10837796069E+00  0.10113587811E-01  0.89103663255E+00  0.88000000000E+00 0. -1.
        -11    1    4    4    0    0 -0.28518855499E-01  0.43786422775E-01 -0.41408271090E-02  0.52421212391E-01  0.51100000000E-03 0. -1.
         11    1    4    4    0    0 -0.36095630747E-01  0.67911620721E-01 -0.54781221507E-02  0.77104823009E-01  0.51100000000E-03 0.  1.
</event>
<event>
 8    1  0.1128641E+005  0.1043930E+01  0.7957747E-01            NaN
         13   -1    0    0    0    0  0.00000000000E+00  0.00000000000E+00  0.74505805969E-08  0.10566000000E+00  0.10566000000E+00 0. -1.
     999900   -1    0    0    0    0 -0.00000000000E+00 -0.00000000000E+00 -0.74505805969E-08  0.93827000000E+00  0.93827000000E+00 0. -1.
     999902    2    1    2    0    0 -0.20738767538E-01 -0.84829818926E-02  0.63185479333E-02  0.10206495037E+01  0.10203839610E+01 0.  0.
     999903    2    3    3    0    0  0.73004008792E-01 -0.10515008513E+00 -0.17046586202E-01  0.13010014152E+00  0.15790345764E-01 0.  0.
         14    1    1    2    0    0  0.20738767538E-01  0.84829818926E-02 -0.63185479333E-02  0.23280496317E-01  0.00000000000E+00 0.  1.
     999901    1    3    3    0    0 -0.93742776330E-01  0.96667103235E-01  0.23365134136E-01  0.89054936217E+00  0.88000000000E+00 0. -1.
        -11    1    4    4    0    0  0.53446515131E-01 -0.87573605518E-01 -0.11685194479E-01  0.10325924295E+00  0.51100000000E-03 0.  1.
         11    1    4    4    0    0  0.19557493661E-01 -0.17576479610E-01 -0.53613917237E-02  0.26840898569E-01  0.51100000000E-03 0. -1.
</event>
<event>
 8    1  0.1128641E+005  0.1043930E+01  0.7957747E-01            NaN
         13   -1    0    0    0    0  0.00000000000E+00  0.00000000000E+00  0.74505805969E-08  0.10566000000E+00  0.10566000000E+00 0. -1.
     999900   -1    0    0    0    0 -0.00000000000E+00 -0.00000000000E+00 -0.74505805969E-08  0.93827000000E+00  0.93827000000E+00 0. -1.
     999902    2    1    2    0    0  0.28977098810E-02 -0.20757805981E-01 -0.11709275115E-01  0.10199218690E+01  0.10196392639E+01 0.  0.
     999903    2    3    3    0    0  0.18214988603E-01 -0.13009928452E+00  0.36925435005E-02  0.13288895303E+00  0.19703535653E-01 0.  0.
         14    1    1    2    0    0 -0.28977098810E-02  0.20757805981E-01  0.11709275115E-01  0.24008131027E-01  0.00000000000E+00 0. -1.
     999901    1    3    3    0    0 -0.15317278722E-01  0.10934147854E+00 -0.15401818616E-01  0.88703291595E+00  0.88000000000E+00 0.  1.
        -11    1    4    4    0    0  0.95202580408E-03 -0.43031988691E-01  0.89636809281E-02  0.43968933358E-01  0.51100000000E-03 0.  1.
         11    1    4    4    0    0  0.17262962799E-01 -0.87067295827E-01 -0.52711374276E-02  0.88920019669E-01  0.51100000000E-03 0. -1.
</event>
<event>
 8    1  0.1128641E+005  0.1043930E+01  0.7957747E-01            NaN
         13   -1    0    0    0    0  0.00000000000E+00  0.00000000000E+00  0.74505805969E-08  0.10566000000E+00  0.10566000000E+00 0.  1.
     999900   -1    0    0    0    0 -0.00000000000E+00 -0.00000000000E+00 -0.74505805969E-08  0.93827000000E+00  0.93827000000E+00 0.  1.
     999902    2    1    2    0    0  0.13529397741E-01 -0.16820224625E-01  0.10049085949E-01  0.10201193157E+01  0.10198413943E+01 0.  0.
     999903    2    3    3    0    0 -0.74384204600E-01 -0.73029342799E-01  0.77473351750E-01  0.13139309345E+00  0.19892962885E-01 0.  0.
         14    1    1    2    0    0 -0.13529397741E-01  0.16820224625E-01 -0.10049085949E-01  0.23810684326E-01  0.00000000000E+00 0. -1.
     999901    1    3    3    0    0  0.87913602342E-01  0.56209118174E-01 -0.67424265801E-01  0.88872622222E+00  0.88000000000E+00 0.  1.
        -11    1    4    4    0    0 -0.64936474925E-01 -0.52458706588E-01  0.61082995782E-01  0.10344107099E+00  0.51100000000E-03 0. -1.
         11    1    4    4    0    0 -0.94477296748E-02 -0.20570636210E-01  0.16390355968E-01  0.27952022465E-01  0.51100000000E-03 0.  1.
</event>
<event>
 8    1  0.1128641E+005  0.1043930E+01  0.7957747E-01            NaN
         13   -1    0    0    0    0  0.00000000000E+00  0.00000000000E+00  0.74505805969E-08  0.10566000000E+00  0.10566000000E+00 0.  1.
     999900   -1    0    0    0    0 -0.00000000000E+00 -0.00000000000E+00 -0.74505805969E-08  0.93827000000E+00  0.93827000000E+00 0.  1.
     999902    2    1    2    0    0 -0.20373161970E-01  0.11387287298E-01 -0.38236219527E-02  0.10202792891E+01  0.10200051332E+01 0.  0.
     999903    2    3    3    0    0  0.11410911718E-01 -0.11146943344E-01 -0.12809285639E+00  0.13069463237E+00  0.20465674141E-01 0.  0.
         14    1    1    2    0    0  0.20373161970E-01 -0.11387287298E-01  0.38236219527E-02  0.23650710888E-01  0.00000000000E+00 0. -1.
     999901    1    3    3    0    0 -0.31784073689E-01  0.22534230642E-01  0.12426923444E+00  0.88958465675E+00  0.88000000000E+00 0. -1.
        -11    1    4    4    0    0  0.13110908873E-01 -0.84840597885E-03 -0.43078073083E-01  0.45039951440E-01  0.51100000000E-03 0.  1.
         11    1    4    4    0    0 -0.16999971545E-02 -0.10298537365E-01 -0.85014783310E-01  0.85654680925E-01  0.51100000000E-03 0. -1.
</event>
<event>
 8    1  0.1128641E+005  0.1043930E+01  0.7957747E-01            NaN
         13   -1    0    0    0    0  0.00000000000E+00  0.00000000000E+00  0.74505805969E-08  0.10566000000E+00  0.10566000000E+00 0.  1.
     999900   -1    0    0    0    0 -0.00000000000E+00 -0.00000000000E+00 -0.74505805969E-08  0.93827000000E+00  0.93827000000E+00 0.  1.
     999902    2    1    2    0    0 -0.89554943712E-02  0.22046360215E-01  0.44625274327E-02  0.10197193199E+01  0.10194318685E+01 0.  0.
     999903    2    3    3    0    0 -0.41640708604E-01  0.39885022948E-01 -0.11654905258E+00  0.13065782397E+00  0.12767992688E-01 0.  0.
         14    1    1    2    0    0  0.89554943712E-02 -0.22046360215E-01 -0.44625274327E-02  0.24210680066E-01  0.00000000000E+00 0.  1.
     999901    1    3    3    0    0  0.32685214233E-01 -0.17838662734E-01  0.12101158001E+00  0.88906149597E+00  0.88000000000E+00 0. -1.
        -11    1    4    4    0    0 -0.25906846487E-01  0.22587878239E-01 -0.82242949070E-01  0.89137762655E-01  0.51100000000E-03 0. -1.
         11    1    4    4    0    0 -0.15733862116E-01  0.17297144709E-01 -0.34306103510E-01  0.41520061311E-01  0.51100000000E-03 0.  1.
</event>
<event>
 8    1  0.1128641E+005  0.1043930E+01  0.7957747E-01            NaN
         13   -1    0    0    0    0  0.00000000000E+00  0.00000000000E+00  0.74505805969E-08  0.10566000000E+00  0.10566000000E+00 0. -1.
     999900   -1    0    0    0    0 -0.00000000000E+00 -0.00000000000E+00 -0.74505805969E-08  0.93827000000E+00  0.93827000000E+00 0. -1.
     999902    2    1    2    0    0 -0.26909719430E-01 -0.16854228835E-01 -0.18539124229E-02  0.10121237896E+01  0.10116239076E+01 0.  0.
     999903    2    3    3    0    0 -0.81842357386E-01 -0.39923900856E-01  0.84751328645E-01  0.12586746535E+00  0.19176595203E-01 0.  0.
         14    1    1    2    0    0  0.26909719430E-01  0.16854228835E-01  0.18539124229E-02  0.31806210411E-01  0.00000000000E+00 0. -1.
     999901    1    3    3    0    0  0.54932637956E-01  0.23069672021E-01 -0.86605241068E-01  0.88625632424E+00  0.88000000000E+00 0. -1.
        -11    1    4    4    0    0 -0.22050301114E-01 -0.19118790538E-01  0.33337589398E-01  0.44310268773E-01  0.51100000000E-03 0.  1.
         11    1    4    4    0    0 -0.59792056272E-01 -0.20805110318E-01  0.51413739247E-01  0.81557196573E-01  0.51100000000E-03 0. -1.
</event>
<event>
 8    1  0.1128641E+005  0.1043930E+01  0.7957747E-01            NaN
         13   -1    0    0    0    0  0.00000000000E+00  0.00000000000E+00  0.74505805969E-08  0.10566000000E+00  0.10566000000E+00 0. -1.
     999900   -1    0    0    0    0 -0.00000000000E+00 -0.00000000000E+00 -0.74505805969E-08  0.93827000000E+00  0.93827000000E+00 0. -1.
     999902    2    1    2    0    0 -0.54322764184E-02  0.11194888276E-01  0.20440101205E-01  0.10200002510E+01  0.10197195100E+01 0.  0.
     999903    2    3    3    0    0 -0.50123171997E-01  0.92475977597E-01  0.79197813480E-01  0.13317650278E+00  0.19988707547E-01 0.  0.
         14    1    1    2    0    0  0.54322764184E-02 -0.11194888276E-01 -0.20440101205E-01  0.23929749014E-01  0.00000000000E+00 0.  1.
     999901    1    3    3    0    0  0.44690895578E-01 -0.81281089321E-01 -0.58757712274E-01  0.88682374821E+00  0.88000000000E+00 0.  1.
        -11    1    4    4    0    0 -0.38346433009E-01  0.74816023751E-01  0.52711845978E-01  0.99230469927E-01  0.51100000000E-03 0.  1.
         11    1    4    4    0    0 -0.11776738987E-01  0.17659953846E-01  0.26485967502E-01  0.33946032854E-01  0.51100000000E-03 0. -1.
</event>
<event>
 8    1  0.1128641E+005  0.1043930E+01  0.7957747E-01            NaN
         13   -1    0    0    0    0  0.00000000000E+00  0.00000000000E+00  0.74505805969E-08  0.10566000000E+00  0.10566000000E+00 0.  1.
     999900   -1    0    0    0    0 -0.00000000000E+00 -0.00000000000E+00 -0.74505805969E-08  0.93827000000E+00  0.93827000000E+00 0. -1.
     999902    2    1    2    0    0 -0.60814464048E-02 -0.91935910613E-02  0.20216286715E-01  0.10209038332E+01  0.10206441262E+01 0.  0.
     999903    2    3    3    0    0  0.69382426924E-01  0.87811853860E-01 -0.60430111796E-01  0.12871063997E+00  0.19743038947E-01 0.  0.
         14    1    1    2    0    0  0.60814464048E-02  0.91935910613E-02 -0.20216286715E-01  0.23026166757E-01  0.00000000000E+00 0. -1.
     999901    1    3    3    0    0 -0.75463873328E-01 -0.97005444921E-01  0.80646398511E-01  0.89219319327E+00  0.88000000000E+00 0. -1.
        -11    1    4    4    0    0  0.40469551369E-01  0.40158684322E-01 -0.38572325056E-01  0.68837416393E-01  0.51100000000E-03 0.  1.
         11    1    4    4    0    0  0.28912875554E-01  0.47653169538E-01 -0.21857786740E-01  0.59873223581E-01  0.51100000000E-03 0. -1.
</event>
<event>
 8    1  0.1128641E+005  0.1043930E+01  0.7957747E-01            NaN
         13   -1    0    0    0    0  0.00000000000E+00  0.00000000000E+00  0.74505805969E-08  0.10566000000E+00  0.10566000000E+00 0. -1.
     999900   -1    0    0    0    0 -0.00000000000E+00 -0.00000000000E+00 -0.74505805969E-08  0.93827000000E+00  0.93827000000E+00 0. -1.
     999902    2    1    2    0    0  0.18195568856E-01  0.79822609314E-02  0.13793559051E-01  0.10197420384E+01  0.10194551326E+01 0.  0.
     999903    2    3    3    0    0  0.31289294390E-01 -0.39105263516E-01  0.12038176151E+00  0.13196406755E+00  0.20359396878E-01 0.  0.
         14    1    1    2    0    0 -0.18195568856E-01 -0.79822609314E-02 -0.13793559051E-01  0.24187961611E-01  0.00000000000E+00 0. -1.
     999901    1    3    3    0    0 -0.13093725533E-01  0.47087524447E-01 -0.10658820246E+00  0.88777797084E+00  0.88000000000E+00 0. -1.
        -11    1    4    4    0    0  0.31197064725E-01 -0.41318999647E-01  0.11585990197E+00  0.12690269731E+00  0.51100000000E-03 0. -1.
         11    1    4    4    0    0  0.92229664650E-04  0.22137361309E-02  0.45218595436E-02  0.50613702395E-02  0.51100000000E-03 0.  1.
</event>
<event>
 8    1  0.1128641E+005  0.1043930E+01  0.7957747E-01            NaN
         13   -1    0    0    0    0  0.00000000000E+00  0.00000000000E+00  0.74505805969E-08  0.10566000000E+00  0.10566000000E+00 0.  1.
     999900   -1    0    0    0    0 -0.00000000000E+00 -0.00000000000E+00 -0.74505805969E-08  0.93827000000E+00  0.93827000000E+00 0.  1.
     999902    2    1    2    0    0 -0.89712108430E-02  0.45218764893E-02 -0.21481163996E-01  0.10202156500E+01  0.10199399992E+01 0.  0.
     999903    2    3    3    0    0 -0.44433427122E-01 -0.67631545959E-01  0.97938245345E-01  0.12851801036E+00  0.19406793407E-01 0.  0.
         14    1    1    2    0    0  0.89712108430E-02 -0.45218764893E-02  0.21481163996E-01  0.23714350035E-01  0.00000000000E+00 0.  1.
     999901    1    3    3    0    0  0.35462216279E-01  0.72153422448E-01 -0.11941940934E+00  0.89169763961E+00  0.88000000000E+00 0.  1.
        -11    1    4    4    0    0 -0.29789690338E-01 -0.54245261983E-01  0.62853663272E-01  0.88208946291E-01  0.51100000000E-03 0.  1.
         11    1    4    4    0    0 -0.14643736784E-01 -0.13386283976E-01  0.35084582072E-01  0.40309064066E-01  0.51100000000E-03 0. -1.
</event>
<event>
 8    1  0.1128641E+005  0.1043930E+01  0.7957747E-01            NaN
         13   -1    0    0    0    0  0.00000000000E+00  0.00000000000E+00  0.74505805969E-08  0.10566000000E+00  0.10566000000E+00 0.  1.
     999900   -1    0    0    0    0 -0.00000000000E+00 -0.00000000000E+00 -0.74505805969E-08  0.93827000000E+00  0.93827000000E+00 0. -1.
     999902    2    1    2    0    0 -0.21913660121E-01  0.12900280830E-01  0.39041048683E-02  0.10182032089E+01  0.10178781395E+01 0.  0.
     999903    2    3    3    0    0  0.94439767468E-01 -0.38374926606E-01  0.72044132521E-01  0.12645754428E+00  0.20239782670E-01 0.  0.
         14    1    1    2    0    0  0.21913660121E-01 -0.12900280830E-01 -0.39041048683E-02  0.25726791098E-01  0.00000000000E+00 0. -1.
     999901    1    3    3    0    0 -0.11635342759E+00  0.51275207435E-01 -0.68140027653E-01  0.89174566463E+00  0.88000000000E+00 0.  1.
        -11    1    4    4    0    0  0.36013114916E-01 -0.45177048870E-02  0.27853134303E-01  0.45753822954E-01  0.51100000000E-03 0. -1.
         11    1    4    4    0    0  0.58426652552E-01 -0.33857221719E-01  0.44190998218E-01  0.80703721323E-01  0.51100000000E-03 0.  1.
</event>
<event>
 8    1  0.1128641E+005  0.1043930E+01  0.7957747E-01            NaN
         13   -1    0    0    0    0  0.00000000000E+00  0.00000000000E+00  0.74505805969E-08  0.10566000000E+00  0.10566000000E+00 0. -1.
     999900   -1    0    0    0    0 -0.00000000000E+00 -0.00000000000E+00 -0.74505805969E-08  0.93827000000E+00  0.93827000000E+00 0.  1.
     999902    2    1    2    0    0  0.15596901517E-01  0.63807739768E-03  0.18425083881E-01  0.10197814142E+01  0.10194954529E+01 0.  0.
     999903    2    3    3    0    0  0.11107548525E+00  0.67868874795E-01  0.38628440559E-03  0.13188415756E+00  0.21197504839E-01 0.  0.
         14    1    1    2    0    0 -0.15596901517E-01 -0.63807739768E-03 -0.18425083881E-01  0.24148585791E-01  0.00000000000E+00 0.  1.
     999901    1    3    3    0    0 -0.95478583733E-01 -0.67230797397E-01  0.18038799475E-01  0.88789725664E+00  0.88000000000E+00 0. -1.
        -11    1    4    4    0    0  0.38157270970E-01  0.31298289408E-01 -0.75268880140E-02  0.49924697414E-01  0.51100000000E-03 0.  1.
         11    1    4    4    0    0  0.72918214281E-01  0.36570585386E-01  0.79131724196E-02  0.81959460150E-01  0.51100000000E-03 0. -1.
</event>
<event>
 8    1  0.1128641E+005  0.1043930E+01  0.7957747E-01            NaN
         13   -1    0    0    0    0  0.00000000000E+00  0.00000000000E+00  0.74505805969E-08  0.10566000000E+00  0.10566000000E+00 0.  1.
     999900   -1    0    0    0    0 -0.00000000000E+00 -0.00000000000E+00 -0.74505805969E-08  0.93827000000E+00  0.93827000000E+00 0. -1.
     999902    2    1    2    0    0 -0.11370805628E-01  0.11592226734E-01 -0.19011889130E-01  0.10189274627E+01  0.10186206592E+01 0.  0.
     999903    2    3    3    0    0  0.11533926704E+00  0.51521998029E-01  0.11528999744E-01  0.12843177210E+00  0.20103219855E-01 0.  0.
         14    1    1    2    0    0  0.11370805628E-01 -0.11592226734E-01  0.19011889130E-01  0.25002537263E-01  0.00000000000E+00 0.  1.
     999901    1    3    3    0    0 -0.12671007266E+00 -0.39929771294E-01 -0.30540888874E-01  0.89049569064E+00  0.88000000000E+00 0.  1.
        -11    1    4    4    0    0  0.50503783703E-01  0.30687172020E-01 -0.13895944509E-02  0.59114522654E-01  0.51100000000E-03 0.  1.
         11    1    4    4    0    0  0.64835483333E-01  0.20834826009E-01  0.12918594195E-01  0.69317249446E-01  0.51100000000E-03 0. -1.
</event>
<event>
 8    1  0.1128641E+005  0.1043930E+01  0.7957747E-01            NaN
         13   -1    0    0    0    0  0.00000000000E+00  0.00000000000E+00  0.74505805969E-08  0.10566000000E+00  0.10566000000E+00 0.  1.
     999900   -1    0    0    0    0 -0.00000000000E+00 -0.00000000000E+00 -0.74505805969E-08  0.93827000000E+00  0.93827000000E+00 0. -1.
     999902    2    1    2    0    0  0.13302270226E-01 -0.19630572136E-01  0.77469400460E-02  0.10189835607E+01  0.10186781494E+01 0.  0.
     999903    2    3    3    0    0 -0.10691014274E+00  0.56560197765E-01 -0.32841099814E-01  0.12662519844E+00  0.18071205044E-01 0.  0.
         14    1    1    2    0    0 -0.13302270226E-01  0.19630572136E-01 -0.77469400460E-02  0.24946439337E-01  0.00000000000E+00 0. -1.
     999901    1    3    3    0    0  0.12021241296E+00 -0.76190769901E-01  0.40588039860E-01  0.89235836222E+00  0.88000000000E+00 0.  1.
        -11    1    4    4    0    0 -0.87897687704E-01  0.42844449990E-01 -0.19716110904E-01  0.99752877396E-01  0.51100000000E-03 0.  1.
         11    1    4    4    0    0 -0.19012455034E-01  0.13715747775E-01 -0.13124988910E-01  0.26872321044E-01  0.51100000000E-03 0. -1.
</event>
<event>
 8    1  0.1128641E+005  0.1043930E+01  0.7957747E-01            NaN
         13   -1    0    0    0    0  0.00000000000E+00  0.00000000000E+00  0.74505805969E-08  0.10566000000E+00  0.10566000000E+00 0.  1.
     999900   -1    0    0    0    0 -0.00000000000E+00 -0.00000000000E+00 -0.74505805969E-08  0.93827000000E+00  0.93827000000E+00 0.  1.
     999902    2    1    2    0    0  0.66638165438E-02  0.18569180190E-01  0.10972915288E-01  0.10213551074E+01  0.10211055919E+01 0.  0.
     999903    2    3    3    0    0  0.47665141043E-02  0.46894600704E-01  0.12353695726E+00  0.13373097937E+00  0.20019285725E-01 0.  0.
         14    1    1    2    0    0 -0.66638165438E-02 -0.18569180190E-01 -0.10972915288E-01  0.22574892552E-01  0.00000000000E+00 0. -1.
     999901    1    3    3    0    0  0.18973024395E-02 -0.28325420515E-01 -0.11256404198E+00  0.88762412808E+00  0.88000000000E+00 0.  1.
        -11    1    4    4    0    0  0.92252229333E-02  0.44728173916E-01  0.10435000514E+00  0.11390741404E+00  0.51100000000E-03 0. -1.
         11    1    4    4    0    0 -0.44587088290E-02  0.21664267882E-02  0.19186952124E-01  0.19823565326E-01  0.51100000000E-03 0.  1.
</event>
<event>
 8    1  0.1128641E+005  0.1043930E+01  0.7957747E-01            NaN
         13   -1    0    0    0    0  0.00000000000E+00  0.00000000000E+00  0.74505805969E-08  0.10566000000E+00  0.10566000000E+00 0. -1.
     999900   -1    0    0    0    0 -0.00000000000E+00 -0.00000000000E+00 -0.74505805969E-08  0.93827000000E+00  0.93827000000E+00 0. -1.
     999902    2    1    2    0    0  0.11766427440E-01 -0.11017070814E-01 -0.16961493966E-01  0.10205309201E+01  0.10202626338E+01 0.  0.
     999903    2    3    3    0    0 -0.23223495416E-02  0.39939274654E-03  0.12694689301E+00  0.12865735665E+00  0.20776163118E-01 0.  0.
         14    1    1    2    0    0 -0.11766427440E-01  0.11017070814E-01  0.16961493966E-01  0.23399079931E-01  0.00000000000E+00 0.  1.
     999901    1    3    3    0    0  0.14088776982E-01 -0.11416463561E-01 -0.14390838698E+00  0.89187356342E+00  0.88000000000E+00 0. -1.
        -11    1    4    4    0    0 -0.76090934202E-02  0.23230753369E-02  0.11657160480E+00  0.11684389221E+00  0.51100000000E-03 0.  1.
         11    1    4    4    0    0  0.52867438786E-02 -0.19236825903E-02  0.10375288215E-01  0.11813464441E-01  0.51100000000E-03 0. -1.
</event>
<event>
 8    1  0.1128641E+005  0.1043930E+01  0.7957747E-01            NaN
         13   -1    0    0    0    0  0.00000000000E+00  0.00000000000E+00  0.74505805969E-08  0.10566000000E+00  0.10566000000E+00 0.  1.
     999900   -1    0    0    0    0 -0.00000000000E+00 -0.00000000000E+00 -0.74505805969E-08  0.93827000000E+00  0.93827000000E+00 0. -1.
     999902    2    1    2    0    0  0.16297544346E-01  0.24266260578E-02 -0.16899677131E-01  0.10203270859E+01  0.10200540499E+01 0.  0.
     999903    2    3    3    0    0  0.46158296464E-01 -0.24605158487E-01  0.11655262375E+00  0.12935464050E+00  0.20300412804E-01 0.  0.
         14    1    1    2    0    0 -0.16297544346E-01 -0.24266260578E-02  0.16899677131E-01  0.23602914076E-01  0.00000000000E+00 0.  1.
     999901    1    3    3    0    0 -0.29860752119E-01  0.27031784545E-01 -0.13345230088E+00  0.89097244542E+00  0.88000000000E+00 0. -1.
        -11    1    4    4    0    0  0.47115015864E-01 -0.26115236844E-01  0.10912439252E+00  0.12169726570E+00  0.51100000000E-03 0. -1.
         11    1    4    4    0    0 -0.95671939925E-03  0.15100783569E-02  0.74282312299E-02  0.76573748020E-02  0.51100000000E-03 0.  1.
</event>
<event>
 8    1  0.1128641E+005  0.1043930E+01  0.7957747E-01            NaN
         13   -1    0    0    0    0  0.00000000000E+00  0.00000000000E+00  0.74505805969E-08  0.10566000000E+00  0.10566000000E+00 0. -1.
     999900   -1    0    0    0    0 -0.00000000000E+00 -0.00000000000E+00 -0.74505805969E-08  0.93827000000E+00  0.93827000000E+00 0. -1.
     999902    2    1    2    0    0 -0.62216776768E-02 -0.19687049187E-02 -0.22055452374E-01  0.10209293902E+01  0.10206702659E+01 0.  0.
     999903    2    3    3    0    0  0.11811601230E+00 -0.46481113494E-01  0.20616283208E-01  0.13005224227E+00  0.19407944566E-01 0.  0.
         14    1    1    2    0    0  0.62216776768E-02  0.19687049187E-02  0.22055452374E-01  0.23000609809E-01  0.00000000000E+00 0. -1.
     999901    1    3    3    0    0 -0.12433768998E+00  0.44512408575E-01 -0.42671735582E-01  0.89087714792E+00  0.88000000000E+00 0. -1.
        -11    1    4    4    0    0  0.14517203314E-01 -0.11552910889E-02  0.69610628528E-02  0.16149346940E-01  0.51100000000E-03 0. -1.
         11    1    4    4    0    0  0.10359880899E+00 -0.45325822405E-01  0.13655220356E-01  0.11390289533E+00  0.51100000000E-03 0.  1.
</event>
<event>
 8    1  0.1128641E+005  0.1043930E+01  0.7957747E-01            NaN
         13   -1    0    0    0    0  0.00000000000E+00  0.00000000000E+00  0.74505805969E-08  0.10566000000E+00  0.10566000000E+00 0. -1.
     999900   -1    0    0    0    0 -0.00000000000E+00 -0.00000000000E+00 -0.74505805969E-08  0.93827000000E+00  0.93827000000E+00 0.  1.
     999902    2    1    2    0    0  0.18330730481E-01 -0.14480008015E-01 -0.20177026370E-02  0.10204830933E+01  0.10202136963E+01 0.  0.
     999903    2    3    3    0    0  0.62123986656E-01  0.53651267906E-01 -0.10063841471E+00  0.13127796231E+00  0.19182403565E-01 0.  0.
         14    1    1    2    0    0 -0.18330730481E-01  0.14480008015E-01  0.20177026370E-02  0.23446906747E-01  0.00000000000E+00 0.  1.
     999901    1    3    3    0    0 -0.43793256175E-01 -0.68131275922E-01  0.98620712075E-01  0.88920513094E+00  0.88000000000E+00 0. -1.
        -11    1    4    4    0    0  0.44353609193E-01  0.47399290374E-01 -0.71468757097E-01  0.96550399991E-01  0.51100000000E-03 0.  1.
         11    1    4    4    0    0  0.17770377463E-01  0.62519775319E-02 -0.29169657616E-01  0.34727562319E-01  0.51100000000E-03 0. -1.
</event>
<event>
 8    1  0.1128641E+005  0.1043930E+01  0.7957747E-01            NaN
         13   -1    0    0    0    0  0.00000000000E+00  0.00000000000E+00  0.74505805969E-08  0.10566000000E+00  0.10566000000E+00 0.  1.
     999900   -1    0    0    0    0 -0.00000000000E+00 -0.00000000000E+00 -0.74505805969E-08  0.93827000000E+00  0.93827000000E+00 0.  1.
     999902    2    1    2    0    0  0.21265150792E-01 -0.85868644448E-03  0.88234476495E-02  0.10208909634E+01  0.10206309626E+01 0.  0.
     999903    2    3    3    0    0  0.10888065189E+00  0.69008854365E-01  0.29114473545E-01  0.13355242874E+00  0.19271230291E-01 0.  0.
         14    1    1    2    0    0 -0.21265150792E-01  0.85868644448E-03 -0.88234476495E-02  0.23039036634E-01  0.00000000000E+00 0.  1.
     999901    1    3    3    0    0 -0.87615501099E-01 -0.69867540809E-01 -0.20291025896E-01  0.88733853462E+00  0.88000000000E+00 0.  1.
        -11    1    4    4    0    0  0.73190301128E-01  0.46093604709E-01  0.28699498643E-01  0.91133763873E-01  0.51100000000E-03 0. -1.
         11    1    4    4    0    0  0.35690350763E-01  0.22915249655E-01  0.41497490243E-03  0.42418664872E-01  0.51100000000E-03 0.  1.
</event>
<event>
 8    1  0.1128641E+005  0.1043930E+01  0.7957747E-01            NaN
         13   -1    0    0    0    0  0.00000000000E+00  0.00000000000E+00  0.74505805969E-08  0.10566000000E+00  0.10566000000E+00 0. -1.
     999900   -1    0    0    0    0 -0.00000000000E+00 -0.00000000000E+00 -0.74505805969E-08  0.93827000000E+00  0.93827000000E+00 0.  1.
     999902    2    1    2    0    0 -0.22287290435E-01  0.48731547312E-02  0.66934857316E-02  0.10201545147E+01  0.10198774240E+01 0.  0.
     999903    2    3    3    0    0 -0.88324306782E-01  0.89183776577E-01 -0.37544552640E-01  0.13255878882E+00  0.20181919832E-01 0.  0.
         14    1    1    2    0    0  0.22287290435E-01 -0.48731547312E-02 -0.66934857316E-02  0.23775485341E-01  0.00000000000E+00 0. -1.
     999901    1    3    3    0    0  0.66037016347E-01 -0.84310621845E-01  0.44238038371E-01  0.88759572584E+00  0.88000000000E+00 0. -1.
        -11    1    4    4    0    0 -0.29305225778E-01  0.33708176193E-01 -0.38653997308E-02  0.44835698235E-01  0.51100000000E-03 0. -1.
         11    1    4    4    0    0 -0.59019081005E-01  0.55475600384E-01 -0.33679152909E-01  0.87723090588E-01  0.51100000000E-03 0.  1.
</event>
<event>
 8    1  0.1128641E+005  0.1043930E+01  0.7957747E-01            NaN
         13   -1    0    0    0    0  0.00000000000E+00  0.00000000000E+00  0.74505805969E-08  0.10566000000E+00  0.10566000000E+00 0. -1.
     999900   -1    0    0    0    0 -0.00000000000E+00 -0.00000000000E+00 -0.74505805969E-08  0.93827000000E+00  0.93827000000E+00 0.  1.
     999902    2    1    2    0    0  0.13061395252E-01  0.18570240232E-01  0.82211755734E-02  0.10197837457E+01  0.10194978403E+01 0.  0.
     999903    2    3    3    0    0  0.95482525674E-01  0.87339011249E-01  0.24573976055E-01  0.13311029924E+00  0.19221234834E-01 0.  0.
         14    1    1    2    0    0 -0.13061395252E-01 -0.18570240232E-01 -0.82211755734E-02  0.24146254285E-01  0.00000000000E+00 0.  1.
     999901    1    3    3    0    0 -0.82421130422E-01 -0.68768771017E-01 -0.16352800482E-01  0.88667344648E+00  0.88000000000E+00 0.  1.
        -11    1    4    4    0    0  0.56037674543E-01  0.63259342578E-01  0.18291211472E-01  0.86468462053E-01  0.51100000000E-03 0.  1.
         11    1    4    4    0    0  0.39444851131E-01  0.24079668670E-01  0.62827645830E-02  0.46641837183E-01  0.51100000000E-03 0. -1.
</event>
<event>
 8    1  0.1128641E+005  0.1043930E+01  0.7957747E-01            NaN
         13   -1    0    0    0    0  0.00000000000E+00  0.00000000000E+00  0.74505805969E-08  0.10566000000E+00  0.10566000000E+00 0.  1.
     999900   -1    0    0    0    0 -0.00000000000E+00 -0.00000000000E+00 -0.74505805969E-08  0.93827000000E+00  0.93827000000E+00 0. -1.
     999902    2    1    2    0    0  0.13680507427E-01 -0.10302034401E-01 -0.14057792290E-01  0.10217735174E+01  0.10215332648E+01 0.  0.
     999903    2    3    3    0    0 -0.12864235714E+00 -0.86578798634E-02 -0.50720149677E-02  0.13029202843E+00  0.18068547307E-01 0.  0.
         14    1    1    2    0    0 -0.13680507427E-01  0.10302034401E-01  0.14057792290E-01  0.22156482580E-01  0.00000000000E+00 0. -1.
     999901    1    3    3    0    0  0.14232286457E+00 -0.16441545375E-02 -0.89857773220E-02  0.89148148899E+00  0.88000000000E+00 0. -1.
        -11    1    4    4    0    0 -0.83250106841E-01 -0.11359952250E-01  0.31364307675E-02  0.84081669364E-01  0.51100000000E-03 0.  1.
         11    1    4    4    0    0 -0.45392250299E-01  0.27020723864E-02 -0.82084457352E-02  0.46210359063E-01  0.51100000000E-03 0. -1.
</event>
<event>
 8    1  0.1128641E+005  0.1043930E+01  0.7957747E-01            NaN
         13   -1    0    0    0    0  0.00000000000E+00  0.00000000000E+00  0.74505805969E-08  0.10566000000E+00  0.10566000000E+00 0.  1.
     999900   -1    0    0    0    0 -0.00000000000E+00 -0.00000000000E+00 -0.74505805969E-08  0.93827000000E+00  0.93827000000E+00 0. -1.
     999902    2    1    2    0    0 -0.90805182601E-02 -0.11673469418E-01  0.18901097230E-01  0.10199304755E+01  0.10196480754E+01 0.  0.
     999903    2    3    3    0    0 -0.10849456469E+00  0.62817474595E-01  0.32602456366E-01  0.13109990637E+00  0.20178196328E-01 0.  0.
         14    1    1    2    0    0  0.90805182601E-02  0.11673469418E-01 -0.18901097230E-01  0.23999524509E-01  0.00000000000E+00 0. -1.
     999901    1    3    3    0    0  0.99414046428E-01 -0.74490944013E-01 -0.13701359136E-01  0.88883056912E+00  0.88000000000E+00 0. -1.
        -11    1    4    4    0    0 -0.74420837115E-01  0.32754666782E-01  0.17140927002E-01  0.83098746635E-01  0.51100000000E-03 0. -1.
         11    1    4    4    0    0 -0.34073727574E-01  0.30062807813E-01  0.15461529364E-01  0.48001159732E-01  0.51100000000E-03 0.  1.
</event>
<event>
 8    1  0.1128641E+005  0.1043930E+01  0.7957747E-01            NaN
         13   -1    0    0    0    0  0.00000000000E+00  0.00000000000E+00  0.74505805969E-08  0.10566000000E+00  0.10566000000E+00 0.  1.
     999900   -1    0    0    0    0 -0.00000000000E+00 -0.00000000000E+00 -0.74505805969E-08  0.93827000000E+00  0.93827000000E+00 0.  1.
     999902    2    1    2    0    0  0.96251039760E-02  0.10047645360E-01  0.19449153481E-01  0.10200162513E+01  0.10197358901E+01 0.  0.
     999903    2    3    3    0    0 -0.18156027854E-01 -0.12593998421E+00  0.92380488912E-03  0.12894520186E+00  0.20868413836E-01 0.  0.
         14    1    1    2    0    0 -0.96251039760E-02 -0.10047645360E-01 -0.19449153481E-01  0.23913748660E-01  0.00000000000E+00 0. -1.
     999901    1    3    3    0    0  0.27781131830E-01  0.13598762957E+00  0.18525348592E-01  0.89107104948E+00  0.88000000000E+00 0.  1.
        -11    1    4    4    0    0  0.80586872414E-03 -0.57189074950E-01 -0.47882407614E-02  0.57397108713E-01  0.51100000000E-03 0. -1.
         11    1    4    4    0    0 -0.18961896578E-01 -0.68750909263E-01  0.57120456505E-02  0.71548093146E-01  0.51100000000E-03 0.  1.
</event>
<event>
 8    1  0.1128641E+005  0.1043930E+01  0.7957747E-01            NaN
         13   -1    0    0    0    0  0.00000000000E+00  0.00000000000E+00  0.74505805969E-08  0.10566000000E+00  0.10566000000E+00 0. -1.
     999900   -1    0    0    0    0 -0.00000000000E+00 -0.00000000000E+00 -0.74505805969E-08  0.93827000000E+00  0.93827000000E+00 0. -1.
     999902    2    1    2    0    0  0.69601460095E-02  0.41488746738E-02 -0.22287370183E-01  0.10202153703E+01  0.10199397130E+01 0.  0.
     999903    2    3    3    0    0  0.12554041822E+00  0.32568672014E-01  0.18611078679E-02  0.13147912434E+00  0.21498404872E-01 0.  0.
         14    1    1    2    0    0 -0.69601460095E-02 -0.41488746738E-02  0.22287370183E-01  0.23714629729E-01  0.00000000000E+00 0. -1.
     999901    1    3    3    0    0 -0.11858027221E+00 -0.28419797340E-01 -0.24148478051E-01  0.88873624593E+00  0.88000000000E+00 0.  1.
        -11    1    4    4    0    0  0.34974848414E-01  0.11071675288E-01 -0.89647740952E-02  0.37768377127E-01  0.51100000000E-03 0. -1.
         11    1    4    4    0    0  0.90565569804E-01  0.21496996726E-01  0.10825881963E-01  0.93710747214E-01  0.51100000000E-03 0.  1.
</event>
<event>
 8    1  0.1128641E+005  0.1043930E+01  0.7957747E-01            NaN
         13   -1    0    0    0    0  0.00000000000E+00  0.00000000000E+00  0.74505805969E-08  0.10566000000E+00  0.10566000000E+00 0. -1.
     999900   -1    0    0    0    0 -0.00000000000E+00 -0.00000000000E+00 -0.74505805969E-08  0.93827000000E+00  0.93827000000E+00 0. -1.
     999902    2    1    2    0    0  0.20274475407E-02  0.37016521853E-02 -0.23724857317E-01  0.10198326635E+01  0.10195479292E+01 0.  0.
     999903    2    3    3    0    0  0.75257622078E-02  0.78780700082E-01 -0.10487158949E+00  0.13289868227E+00  0.20024326774E-01 0.  0.
         14    1    1    2    0    0 -0.20274475407E-02 -0.37016521853E-02  0.23724857317E-01  0.24097336515E-01  0.00000000000E+00 0. -1.
     999901    1    3    3    0    0 -0.54983146671E-02 -0.75079047897E-01  0.81146732178E-01  0.88693398122E+00  0.88000000000E+00 0. -1.
        -11    1    4    4    0    0  0.13021394154E-01  0.70324771887E-01 -0.91084839387E-01  0.11580949587E+00  0.51100000000E-03 0.  1.
         11    1    4    4    0    0 -0.54956319465E-02  0.84559281946E-02 -0.13786750108E-01  0.17089186395E-01  0.51100000000E-03 0. -1.
</event>
<event>
 8    1  0.1128641E+005  0.1043930E+01  0.7957747E-01            NaN
         13   -1    0    0    0    0  0.00000000000E+00  0.00000000000E+00  0.74505805969E-08  0.10566000000E+00  0.10566000000E+00 0. -1.
     999900   -1    0    0    0    0 -0.00000000000E+00 -0.00000000000E+00 -0.74505805969E-08  0.93827000000E+00  0.93827000000E+00 0. -1.
     999902    2    1    2    0    0  0.15628490349E-01  0.17299524647E-01 -0.65122132997E-02  0.10197239639E+01  0.10194366240E+01 0.  0.
     999903    2    3    3    0    0  0.32045907461E-01 -0.12280973887E+00 -0.23606561366E-02  0.12847911942E+00  0.19802506983E-01 0.  0.
         14    1    1    2    0    0 -0.15628490349E-01 -0.17299524647E-01  0.65122132997E-02  0.24206036141E-01  0.00000000000E+00 0.  1.
     999901    1    3    3    0    0 -0.16417417112E-01  0.14010926352E+00 -0.41515571631E-02  0.89124484444E+00  0.88000000000E+00 0. -1.
        -11    1    4    4    0    0  0.29259425628E-01 -0.93219805769E-01 -0.86785697871E-02  0.98089881589E-01  0.51100000000E-03 0. -1.
         11    1    4    4    0    0  0.27864818336E-02 -0.29589933105E-01  0.63179136505E-02  0.30389237833E-01  0.51100000000E-03 0.  1.
</event>
<event>
 8    1  0.1128641E+005  0.1043930E+01  0.7957747E-01            NaN
         13   -1    0    0    0    0  0.00000000000E+00  0.00000000000E+00  0.74505805969E-08  0.10566000000E+00  0.10566000000E+00 0.  1.
     999900   -1    0    0    0    0 -0.00000000000E+00 -0.00000000000E+00 -0.74505805969E-08  0.93827000000E+00  0.93827000000E+00 0. -1.
     999902    2    1    2    0    0 -0.14932314068E-01  0.16313145394E-01 -0.63375457886E-02  0.10209244093E+01  0.10206651715E+01 0.  0.
     999903    2    3    3    0    0  0.76621151698E-01  0.99630686399E-01  0.32693987341E-01  0.13140357746E+00  0.20023206548E-01 0.  0.
         14    1    1    2    0    0  0.14932314068E-01 -0.16313145394E-01  0.63375457886E-02  0.23005590683E-01  0.00000000000E+00 0.  1.
     999901    1    3    3    0    0 -0.91553465766E-01 -0.83317541005E-01 -0.39031533130E-01  0.88952083186E+00  0.88000000000E+00 0.  1.
        -11    1    4    4    0    0  0.12745644738E-01  0.17799273225E-01  0.13809856272E-01  0.25888971366E-01  0.51100000000E-03 0. -1.
         11    1    4    4    0    0  0.63875506960E-01  0.81831413174E-01  0.18884131070E-01  0.10551460609E+00  0.51100000000E-03 0.  1.
</event>
<event>
 8    1  0.1670618E+005  0.1043930E+01  0.7957747E-01            NaN
         13   -1    0    0    0    0  0.00000000000E+00  0.00000000000E+00  0.74505805969E-08  0.10566000000E+00  0.10566000000E+00 0.  1.
     999900   -1    0    0    0    0 -0.00000000000E+00 -0.00000000000E+00 -0.74505805969E-08  0.93827000000E+00  0.93827000000E+00 0.  1.
     999902    2    1    2    0    0 -0.11697309450E-02 -0.18996708355E-01 -0.14636100993E-01  0.10199204467E+01  0.10196378077E+01 0.  0.
     999903    2    3    3    0    0  0.20268655426E-01  0.64183560864E-01 -0.11069875837E+00  0.13053493086E+00  0.15962618526E-01 0.  0.
         14    1    1    2    0    0  0.11697309450E-02  0.18996708355E-01  0.14636100993E-01  0.24009553330E-01  0.00000000000E+00 0.  1.
     999901    1    3    3    0    0 -0.21438386372E-01 -0.83180269219E-01  0.96062657380E-01  0.88938551581E+00  0.88000000000E+00 0. -1.
        -11    1    4    4    0    0  0.14332926686E-01  0.20342936316E-01 -0.42027249614E-01  0.48844842885E-01  0.51100000000E-03 0. -1.
         11    1    4    4    0    0  0.59357287406E-02  0.43840624548E-01 -0.68671508759E-01  0.81690087971E-01  0.51100000000E-03 0.  1.
</event>
<event>
 8    1  0.1128641E+005  0.1043930E+01  0.7957747E-01            NaN
         13   -1    0    0    0    0  0.00000000000E+00  0.00000000000E+00  0.74505805969E-08  0.10566000000E+00  0.10566000000E+00 0.  1.
     999900   -1    0    0    0    0 -0.00000000000E+00 -0.00000000000E+00 -0.74505805969E-08  0.93827000000E+00  0.93827000000E+00 0. -1.
     999902    2    1    2    0    0 -0.18730289626E-01 -0.32754489405E-03 -0.13298828755E-01  0.10209563220E+01  0.10206978111E+01 0.  0.
     999903    2    3    3    0    0  0.15062829063E-01  0.96739877832E-01  0.83331230215E-01  0.12972042296E+00  0.17256923844E-01 0.  0.
         14    1    1    2    0    0  0.18730289626E-01  0.32754489405E-03  0.13298828755E-01  0.22973678012E-01  0.00000000000E+00 0.  1.
     999901    1    3    3    0    0 -0.33793118689E-01 -0.97067422726E-01 -0.96630058970E-01  0.89123589903E+00  0.88000000000E+00 0. -1.
        -11    1    4    4    0    0 -0.36551685545E-02  0.19258716247E-01  0.18744769695E-01  0.27127217339E-01  0.51100000000E-03 0.  1.
         11    1    4    4    0    0  0.18717997618E-01  0.77481161585E-01  0.64586460520E-01  0.10259320562E+00  0.51100000000E-03 0. -1.
</event>
<event>
 8    1  0.1317009E+005  0.1043930E+01  0.7957747E-01            NaN
         13   -1    0    0    0    0  0.00000000000E+00  0.00000000000E+00  0.74505805969E-08  0.10566000000E+00  0.10566000000E+00 0. -1.
     999900   -1    0    0    0    0 -0.00000000000E+00 -0.00000000000E+00 -0.74505805969E-08  0.93827000000E+00  0.93827000000E+00 0. -1.
     999902    2    1    2    0    0 -0.18559008029E-01 -0.63738760067E-02  0.14320962423E-01  0.10196369343E+01  0.10193474995E+01 0.  0.
     999903    2    3    3    0    0 -0.93149890959E-01 -0.10974738397E-01  0.92091556522E-01  0.13305178160E+00  0.20605211383E-01 0.  0.
         14    1    1    2    0    0  0.18559008029E-01  0.63738760067E-02 -0.14320962423E-01  0.24293065659E-01  0.00000000000E+00 0.  1.
     999901    1    3    3    0    0  0.74590882930E-01  0.46008623899E-02 -0.77770594099E-01  0.88658515274E+00  0.88000000000E+00 0. -1.
        -11    1    4    4    0    0 -0.27721303281E-01 -0.98048565159E-02  0.38623144596E-01  0.48544971793E-01  0.51100000000E-03 0. -1.
         11    1    4    4    0    0 -0.65428587678E-01 -0.11698818807E-02  0.53468411926E-01  0.84506809809E-01  0.51100000000E-03 0.  1.
</event>
<event>
 8    1  0.1128641E+005  0.1043930E+01  0.7957747E-01            NaN
         13   -1    0    0    0    0  0.00000000000E+00  0.00000000000E+00  0.74505805969E-08  0.10566000000E+00  0.10566000000E+00 0. -1.
     999900   -1    0    0    0    0 -0.00000000000E+00 -0.00000000000E+00 -0.74505805969E-08  0.93827000000E+00  0.93827000000E+00 0. -1.
     999902    2    1    2    0    0  0.49158698561E-03 -0.17012786688E-01 -0.16421966139E-01  0.10202792592E+01  0.10200051025E+01 0.  0.
     999903    2    3    3    0    0 -0.31687131617E-01 -0.65397781380E-01  0.10586954817E+00  0.12992439055E+00  0.19774779671E-01 0.  0.
         14    1    1    2    0    0 -0.49158698561E-03  0.17012786688E-01  0.16421966139E-01  0.23650740803E-01  0.00000000000E+00 0. -1.
     999901    1    3    3    0    0  0.32178718602E-01  0.48384994692E-01 -0.12229151431E+00  0.89035486864E+00  0.88000000000E+00 0. -1.
        -11    1    4    4    0    0 -0.10657594785E-01 -0.13737613049E-01  0.39948957297E-01  0.43571626651E-01  0.51100000000E-03 0. -1.
         11    1    4    4    0    0 -0.21029536831E-01 -0.51660168330E-01  0.65920590876E-01  0.86352763903E-01  0.51100000000E-03 0.  1.
</event>
<event>
 8    1  0.1128641E+005  0.1043930E+01  0.7957747E-01            NaN
         13   -1    0    0    0    0  0.00000000000E+00  0.00000000000E+00  0.74505805969E-08  0.10566000000E+00  0.10566000000E+00 0.  1.
     999900   -1    0    0    0    0 -0.00000000000E+00 -0.00000000000E+00 -0.74505805969E-08  0.93827000000E+00  0.93827000000E+00 0. -1.
     999902    2    1    2    0    0  0.17673731830E-01  0.71818424028E-02  0.37520427067E-02  0.10244873283E+01  0.10243028207E+01 0.  0.
     999903    2    3    3    0    0 -0.12699861360E+00  0.22769786643E-01 -0.20827597618E-01  0.13219968959E+00  0.19896182167E-01 0.  0.
         14    1    1    2    0    0 -0.17673731830E-01 -0.71818424028E-02 -0.37520427067E-02  0.19442671668E-01  0.00000000000E+00 0. -1.
     999901    1    3    3    0    0  0.14467234543E+00 -0.15587944240E-01  0.24579640324E-01  0.89228763874E+00  0.88000000000E+00 0. -1.
        -11    1    4    4    0    0 -0.81726405140E-01  0.49004452046E-02 -0.13007282667E-01  0.82901569247E-01  0.51100000000E-03 0.  1.
         11    1    4    4    0    0 -0.45272208459E-01  0.17869341438E-01 -0.78203149506E-02  0.49298120340E-01  0.51100000000E-03 0. -1.
</event>
<event>
 8    1  0.1134431E+005  0.1043930E+01  0.7957747E-01            NaN
         13   -1    0    0    0    0  0.00000000000E+00  0.00000000000E+00  0.74505805969E-08  0.10566000000E+00  0.10566000000E+00 0. -1.
     999900   -1    0    0    0    0 -0.00000000000E+00 -0.00000000000E+00 -0.74505805969E-08  0.93827000000E+00  0.93827000000E+00 0. -1.
     999902    2    1    2    0    0  0.37547450372E-02 -0.62357763467E-02  0.23530918076E-01  0.10192989805E+01  0.10190013368E+01 0.  0.
     999903    2    3    3    0    0  0.80668456178E-01  0.55977043272E-01 -0.79182072142E-01  0.12781924866E+00  0.20667137792E-01 0.  0.
         14    1    1    2    0    0 -0.37547450372E-02  0.62357763467E-02 -0.23530918076E-01  0.24631019517E-01  0.00000000000E+00 0.  1.
     999901    1    3    3    0    0 -0.76913711141E-01 -0.62212819618E-01  0.10271299022E+00  0.89147973182E+00  0.88000000000E+00 0.  1.
        -11    1    4    4    0    0  0.40067912617E-01  0.15719391544E-01 -0.30967206796E-01  0.53026087068E-01  0.51100000000E-03 0.  1.
         11    1    4    4    0    0  0.40600543562E-01  0.40257651728E-01 -0.48214865345E-01  0.74793161596E-01  0.51100000000E-03 0. -1.
</event>
<event>
 8    1  0.1128641E+005  0.1043930E+01  0.7957747E-01            NaN
         13   -1    0    0    0    0  0.00000000000E+00  0.00000000000E+00  0.74505805969E-08  0.10566000000E+00  0.10566000000E+00 0. -1.
     999900   -1    0    0    0    0 -0.00000000000E+00 -0.00000000000E+00 -0.74505805969E-08  0.93827000000E+00  0.93827000000E+00 0. -1.
     999902    2    1    2    0    0 -0.20706022826E-02  0.95026926908E-02  0.20618199337E-01  0.10211330988E+01  0.10208785955E+01 0.  0.
     999903    2    3    3    0    0 -0.70085624676E-02  0.88193842717E-01  0.98922354813E-01  0.13414481174E+00  0.19542886041E-01 0.  0.
         14    1    1    2    0    0  0.20706022826E-02 -0.95026926908E-02 -0.20618199337E-01  0.22796901239E-01  0.00000000000E+00 0.  1.
     999901    1    3    3    0    0  0.49379601850E-02 -0.78691150026E-01 -0.78304155475E-01  0.88698828702E+00  0.88000000000E+00 0. -1.
        -11    1    4    4    0    0  0.51875338235E-02  0.20396781322E-01  0.30429038653E-01  0.37001712255E-01  0.51100000000E-03 0. -1.
         11    1    4    4    0    0 -0.12196096291E-01  0.67797061395E-01  0.68493316160E-01  0.97143099488E-01  0.51100000000E-03 0.  1.
</event>
<event>
 8    1  0.1128641E+005  0.1043930E+01  0.7957747E-01            NaN
         13   -1    0    0    0    0  0.00000000000E+00  0.00000000000E+00  0.74505805969E-08  0.10566000000E+00  0.10566000000E+00 0. -1.
     999900   -1    0    0    0    0 -0.00000000000E+00 -0.00000000000E+00 -0.74505805969E-08  0.93827000000E+00  0.93827000000E+00 0.  1.
     999902    2    1    2    0    0  0.20533112620E-01  0.40429675887E-02 -0.11291144168E-01  0.10201509286E+01  0.10198737534E+01 0.  0.
     999903    2    3    3    0    0  0.20823538194E-01  0.88600802173E-01  0.91023329193E-01  0.13019679314E+00  0.19550872045E-01 0.  0.
         14    1    1    2    0    0 -0.20533112620E-01 -0.40429675887E-02  0.11291144168E-01  0.23779071416E-01  0.00000000000E+00 0. -1.
     999901    1    3    3    0    0 -0.29042557394E-03 -0.84557834584E-01 -0.10231447336E+00  0.88995413545E+00  0.88000000000E+00 0.  1.
        -11    1    4    4    0    0  0.17266841160E-01  0.60288593668E-01  0.73860819893E-01  0.96894479545E-01  0.51100000000E-03 0. -1.
         11    1    4    4    0    0  0.35566970335E-02  0.28312208505E-01  0.17162509300E-01  0.33302313594E-01  0.51100000000E-03 0.  1.
</event>
<event>
 8    1  0.1128641E+005  0.1043930E+01  0.7957747E-01            NaN
         13   -1    0    0    0    0  0.00000000000E+00  0.00000000000E+00  0.74505805969E-08  0.10566000000E+00  0.10566000000E+00 0.  1.
     999900   -1    0    0    0    0 -0.00000000000E+00 -0.00000000000E+00 -0.74505805969E-08  0.93827000000E+00  0.93827000000E+00 0. -1.
     999902    2    1    2    0    0 -0.17819676566E-01  0.13180075534E-01  0.90084419413E-02  0.10200049652E+01  0.10197243362E+01 0.  0.
     999903    2    3    3    0    0  0.62163603487E-01 -0.69893554021E-03  0.11274428038E+00  0.13020101139E+00  0.19396610498E-01 0.  0.
         14    1    1    2    0    0  0.17819676566E-01 -0.13180075534E-01 -0.90084419413E-02  0.23925034800E-01  0.00000000000E+00 0.  1.
     999901    1    3    3    0    0 -0.79983280053E-01  0.13879011074E-01 -0.10373583844E+00  0.88980395381E+00  0.88000000000E+00 0. -1.
        -11    1    4    4    0    0  0.26876605150E-01 -0.98896043504E-02  0.48336356312E-01  0.56185591045E-01  0.51100000000E-03 0. -1.
         11    1    4    4    0    0  0.35286998336E-01  0.91906688102E-02  0.64407924071E-01  0.74015420345E-01  0.51100000000E-03 0.  1.
</event>
<event>
 8    1  0.1128641E+005  0.1043930E+01  0.7957747E-01            NaN
         13   -1    0    0    0    0  0.00000000000E+00  0.00000000000E+00  0.74505805969E-08  0.10566000000E+00  0.10566000000E+00 0. -1.
     999900   -1    0    0    0    0 -0.00000000000E+00 -0.00000000000E+00 -0.74505805969E-08  0.93827000000E+00  0.93827000000E+00 0. -1.
     999902    2    1    2    0    0  0.18023512513E-01 -0.70342249593E-02 -0.10663936596E-01  0.10218382172E+01  0.10215993810E+01 0.  0.
     999903    2    3    3    0    0 -0.63783994276E-01 -0.84631867841E-01  0.73779986385E-01  0.13063417855E+00  0.19769957905E-01 0.  0.
         14    1    1    2    0    0 -0.18023512513E-01  0.70342249593E-02  0.10663936596E-01  0.22091782812E-01  0.00000000000E+00 0. -1.
     999901    1    3    3    0    0  0.81807506789E-01  0.77597642882E-01 -0.84443922981E-01  0.89120403863E+00  0.88000000000E+00 0. -1.
        -11    1    4    4    0    0 -0.21910123828E-01 -0.41426298644E-01  0.24645156974E-01  0.52951266545E-01  0.51100000000E-03 0.  1.
         11    1    4    4    0    0 -0.41873870448E-01 -0.43205569197E-01  0.49134829411E-01  0.77682912009E-01  0.51100000000E-03 0. -1.
</event>
<event>
 8    1  0.1128641E+005  0.1043930E+01  0.7957747E-01            NaN
         13   -1    0    0    0    0  0.00000000000E+00  0.00000000000E+00  0.74505805969E-08  0.10566000000E+00  0.10566000000E+00 0.  1.
     999900   -1    0    0    0    0 -0.00000000000E+00 -0.00000000000E+00 -0.74505805969E-08  0.93827000000E+00  0.93827000000E+00 0. -1.
     999902    2    1    2    0    0 -0.10939529411E-01  0.20988138724E-01  0.34780062670E-02  0.10200077970E+01  0.10197272351E+01 0.  0.
     999903    2    3    3    0    0 -0.92369423276E-01  0.45095474078E-01 -0.80054955851E-01  0.13198203889E+00  0.21089108426E-01 0.  0.
         14    1    1    2    0    0  0.10939529411E-01 -0.20988138724E-01 -0.34780062670E-02  0.23922203043E-01  0.00000000000E+00 0.  1.
     999901    1    3    3    0    0  0.81429893865E-01 -0.24107335353E-01  0.83532962118E-01  0.88802575807E+00  0.88000000000E+00 0.  1.
        -11    1    4    4    0    0 -0.70199232550E-01  0.41033302277E-01 -0.54422229026E-01  0.97845307908E-01  0.51100000000E-03 0.  1.
         11    1    4    4    0    0 -0.22170190726E-01  0.40621718003E-02 -0.25632726825E-01  0.34136730981E-01  0.51100000000E-03 0. -1.
</event>
<event>
 8    1  0.1128641E+005  0.1043930E+01  0.7957747E-01            NaN
         13   -1    0    0    0    0  0.00000000000E+00  0.00000000000E+00  0.74505805969E-08  0.10566000000E+00  0.10566000000E+00 0.  1.
     999900   -1    0    0    0    0 -0.00000000000E+00 -0.00000000000E+00 -0.74505805969E-08  0.93827000000E+00  0.93827000000E+00 0.  1.
     999902    2    1    2    0    0 -0.24507770778E-01 -0.78961173022E-02  0.19187345638E-01  0.10118187289E+01  0.10113090559E+01 0.  0.
     999903    2    3    3    0    0  0.41341330592E-01  0.41101491967E-01  0.10729759145E+00  0.12361814050E+00  0.19241446765E-01 0.  0.
         14    1    1    2    0    0  0.24507770778E-01  0.78961173022E-02 -0.19187345638E-01  0.32111271068E-01  0.00000000000E+00 0. -1.
     999901    1    3    3    0    0 -0.65849101370E-01 -0.48997609269E-01 -0.88110245814E-01  0.88820058843E+00  0.88000000000E+00 0.  1.
        -11    1    4    4    0    0  0.11912594650E-01  0.73967202823E-02  0.12506967415E-01  0.18796455441E-01  0.51100000000E-03 0.  1.
         11    1    4    4    0    0  0.29428735942E-01  0.33704771685E-01  0.94790624036E-01  0.10482168506E+00  0.51100000000E-03 0. -1.
</event>
<event>
 8    1  0.1128641E+005  0.1043930E+01  0.7957747E-01            NaN
         13   -1    0    0    0    0  0.00000000000E+00  0.00000000000E+00  0.74505805969E-08  0.10566000000E+00  0.10566000000E+00 0.  1.
     999900   -1    0    0    0    0 -0.00000000000E+00 -0.00000000000E+00 -0.74505805969E-08  0.93827000000E+00  0.93827000000E+00 0. -1.
     999902    2    1    2    0    0 -0.25344401449E-01  0.40920707781E-02 -0.90975357030E-02  0.10166930970E+01  0.10163281973E+01 0.  0.
     999903    2    3    3    0    0 -0.56420729781E-01  0.76117560964E-01  0.84318783274E-01  0.12827876909E+00  0.19199050775E-01 0.  0.
         14    1    1    2    0    0  0.25344401449E-01 -0.40920707781E-02  0.90975357030E-02  0.27236902980E-01  0.00000000000E+00 0.  1.
     999901    1    3    3    0    0  0.31076328332E-01 -0.72025490186E-01 -0.93416318977E-01  0.88841432793E+00  0.88000000000E+00 0. -1.
        -11    1    4    4    0    0 -0.15640860163E-01  0.34668346841E-01  0.27137291828E-01  0.46724988048E-01  0.51100000000E-03 0. -1.
         11    1    4    4    0    0 -0.40779869617E-01  0.41449214123E-01  0.57181491446E-01  0.81553781043E-01  0.51100000000E-03 0.  1.
</event>
<event>
 8    1  0.1128641E+005  0.1043930E+01  0.7957747E-01            NaN
         13   -1    0    0    0    0  0.00000000000E+00  0.00000000000E+00  0.74505805969E-08  0.10566000000E+00  0.10566000000E+00 0. -1.
     999900   -1    0    0    0    0 -0.00000000000E+00 -0.00000000000E+00 -0.74505805969E-08  0.93827000000E+00  0.93827000000E+00 0. -1.
     999902    2    1    2    0    0 -0.11723956615E-01  0.12601932931E-01 -0.15387320736E-01  0.10208425681E+01  0.10205814614E+01 0.  0.
     999903    2    3    3    0    0 -0.45990359234E-01 -0.11737207016E+00  0.22484506926E-01  0.12983095024E+00  0.21429106234E-01 0.  0.
         14    1    1    2    0    0  0.11723956615E-01 -0.12601932931E-01  0.15387320736E-01  0.23087431900E-01  0.00000000000E+00 0. -1.
     999901    1    3    3    0    0  0.34266402619E-01  0.12997400309E+00 -0.37871827661E-01  0.89101161786E+00  0.88000000000E+00 0. -1.
        -11    1    4    4    0    0 -0.30450036805E-01 -0.92994118101E-01  0.24409872360E-01  0.10085243543E+00  0.51100000000E-03 0. -1.
         11    1    4    4    0    0 -0.15540322429E-01 -0.24377952055E-01 -0.19253654347E-02  0.28978514811E-01  0.51100000000E-03 0.  1.
</event>
<event>
 8    1  0.1128641E+005  0.1043930E+01  0.7957747E-01            NaN
         13   -1    0    0    0    0  0.00000000000E+00  0.00000000000E+00  0.74505805969E-08  0.10566000000E+00  0.10566000000E+00 0. -1.
     999900   -1    0    0    0    0 -0.00000000000E+00 -0.00000000000E+00 -0.74505805969E-08  0.93827000000E+00  0.93827000000E+00 0.  1.
     999902    2    1    2    0    0  0.12279491692E-01 -0.14790035346E-01 -0.11649900801E-01  0.10214522054E+01  0.10212048554E+01 0.  0.
     999903    2    3    3    0    0  0.12938691543E+00 -0.25785424977E-01  0.37975531597E-02  0.13349180587E+00  0.19994469205E-01 0.  0.
         14    1    1    2    0    0 -0.12279491692E-01  0.14790035346E-01  0.11649900801E-01  0.22477794608E-01  0.00000000000E+00 0. -1.
     999901    1    3    3    0    0 -0.11710742374E+00  0.10995389631E-01 -0.15447453961E-01  0.88796039952E+00  0.88000000000E+00 0.  1.
        -11    1    4    4    0    0  0.67530912775E-01 -0.19294202551E-01  0.10174027335E-01  0.70968037774E-01  0.51100000000E-03 0.  1.
         11    1    4    4    0    0  0.61856002654E-01 -0.64912224255E-02 -0.63764741749E-02  0.62523768095E-01  0.51100000000E-03 0. -1.
</event>
<event>
 8    1  0.1128641E+005  0.1043930E+01  0.7957747E-01            NaN
         13   -1    0    0    0    0  0.00000000000E+00  0.00000000000E+00  0.74505805969E-08  0.10566000000E+00  0.10566000000E+00 0.  1.
     999900   -1    0    0    0    0 -0.00000000000E+00 -0.00000000000E+00 -0.74505805969E-08  0.93827000000E+00  0.93827000000E+00 0.  1.
     999902    2    1    2    0    0 -0.13837465069E-01 -0.18489355808E-01  0.58527119277E-02  0.10201059375E+01  0.10198277000E+01 0.  0.
     999903    2    3    3    0    0 -0.73943594584E-01  0.31867097209E-01  0.10184557277E+00  0.13141974512E+00  0.20382876402E-01 0.  0.
         14    1    1    2    0    0  0.13837465069E-01  0.18489355808E-01 -0.58527119277E-02  0.23824062513E-01  0.00000000000E+00 0. -1.
     999901    1    3    3    0    0  0.60106129515E-01 -0.50356453017E-01 -0.95992860843E-01  0.88868619236E+00  0.88000000000E+00 0. -1.
        -11    1    4    4    0    0 -0.33419977195E-01  0.24573010273E-01  0.57512174824E-01  0.70912897865E-01  0.51100000000E-03 0.  1.
         11    1    4    4    0    0 -0.40523617389E-01  0.72940869357E-02  0.44333397947E-01  0.60506847257E-01  0.51100000000E-03 0. -1.
</event>
<event>
 8    1  0.1128641E+005  0.1043930E+01  0.7957747E-01            NaN
         13   -1    0    0    0    0  0.00000000000E+00  0.00000000000E+00  0.74505805969E-08  0.10566000000E+00  0.10566000000E+00 0. -1.
     999900   -1    0    0    0    0 -0.00000000000E+00 -0.00000000000E+00 -0.74505805969E-08  0.93827000000E+00  0.93827000000E+00 0. -1.
     999902    2    1    2    0    0  0.17886116001E-01 -0.12524785171E-01 -0.72511579724E-02  0.10209221170E+01  0.10206628269E+01 0.  0.
     999903    2    3    3    0    0  0.12205209338E+00  0.11978302739E-01 -0.48839171477E-01  0.13346478559E+00  0.19682253126E-01 0.  0.
         14    1    1    2    0    0 -0.17886116001E-01  0.12524785171E-01  0.72511579724E-02  0.23007883021E-01  0.00000000000E+00 0.  1.
     999901    1    3    3    0    0 -0.10416597738E+00 -0.24503087910E-01  0.41588013505E-01  0.88745733138E+00  0.88000000000E+00 0.  1.
        -11    1    4    4    0    0  0.65069809061E-01  0.74140663186E-02 -0.15557086827E-01  0.67315172897E-01  0.51100000000E-03 0. -1.
         11    1    4    4    0    0  0.56982284320E-01  0.45642364200E-02 -0.33282084650E-01  0.66149612698E-01  0.51100000000E-03 0.  1.
</event>
<event>
 8    1  0.1128641E+005  0.1043930E+01  0.7957747E-01            NaN
         13   -1    0    0    0    0  0.00000000000E+00  0.00000000000E+00  0.74505805969E-08  0.10566000000E+00  0.10566000000E+00 0.  1.
     999900   -1    0    0    0    0 -0.00000000000E+00 -0.00000000000E+00 -0.74505805969E-08  0.93827000000E+00  0.93827000000E+00 0. -1.
     999902    2    1    2    0    0  0.73158372167E-02 -0.15857180199E-01 -0.17569220065E-01  0.10191580576E+01  0.10188569562E+01 0.  0.
     999903    2    3    3    0    0 -0.89838258438E-01  0.20548837906E-01  0.85398410728E-01  0.12710052050E+00  0.19195997961E-01 0.  0.
         14    1    1    2    0    0 -0.73158372167E-02  0.15857180199E-01  0.17569220065E-01  0.24771942429E-01  0.00000000000E+00 0. -1.
     999901    1    3    3    0    0  0.97154095655E-01 -0.36406018104E-01 -0.10296763079E+00  0.89205753707E+00  0.88000000000E+00 0. -1.
        -11    1    4    4    0    0 -0.43680004190E-01  0.35102916041E-02  0.49989653151E-01  0.66479255835E-01  0.51100000000E-03 0.  1.
         11    1    4    4    0    0 -0.46158254248E-01  0.17038546302E-01  0.35408757576E-01  0.60621264663E-01  0.51100000000E-03 0. -1.
</event>
<event>
 8    1  0.1128641E+005  0.1043930E+01  0.7957747E-01            NaN
         13   -1    0    0    0    0  0.00000000000E+00  0.00000000000E+00  0.74505805969E-08  0.10566000000E+00  0.10566000000E+00 0.  1.
     999900   -1    0    0    0    0 -0.00000000000E+00 -0.00000000000E+00 -0.74505805969E-08  0.93827000000E+00  0.93827000000E+00 0. -1.
     999902    2    1    2    0    0  0.20880973499E-01  0.78676792934E-02 -0.74055111388E-02  0.10204192147E+01  0.10201483307E+01 0.  0.
     999903    2    3    3    0    0 -0.40830360396E-01  0.81356266576E-01  0.90608923603E-01  0.12979264275E+00  0.18713434575E-01 0.  0.
         14    1    1    2    0    0 -0.20880973499E-01 -0.78676792934E-02  0.74055111388E-02  0.23510785333E-01  0.00000000000E+00 0.  1.
     999901    1    3    3    0    0  0.61711333895E-01 -0.73488587283E-01 -0.98014434742E-01  0.89062657192E+00  0.88000000000E+00 0. -1.
        -11    1    4    4    0    0 -0.47017506719E-02  0.27615020596E-01  0.30868020468E-01  0.41686828022E-01  0.51100000000E-03 0. -1.
         11    1    4    4    0    0 -0.36128609724E-01  0.53741245980E-01  0.59740903135E-01  0.88105814726E-01  0.51100000000E-03 0.  1.
</event>
<event>
 8    1  0.1128641E+005  0.1043930E+01  0.7957747E-01            NaN
         13   -1    0    0    0    0  0.00000000000E+00  0.00000000000E+00  0.74505805969E-08  0.10566000000E+00  0.10566000000E+00 0.  1.
     999900   -1    0    0    0    0 -0.00000000000E+00 -0.00000000000E+00 -0.74505805969E-08  0.93827000000E+00  0.93827000000E+00 0. -1.
     999902    2    1    2    0    0  0.21327343563E-01 -0.36505824375E-02 -0.16286868401E-01  0.10168478210E+01  0.10164871109E+01 0.  0.
     999903    2    3    3    0    0 -0.60772163849E-01  0.10797145870E+00 -0.12214027425E-01  0.12599631981E+00  0.19359709385E-01 0.  0.
         14    1    1    2    0    0 -0.21327343563E-01  0.36505824375E-02  0.16286868401E-01  0.27082178972E-01  0.00000000000E+00 0.  1.
     999901    1    3    3    0    0  0.82099507412E-01 -0.11162204114E+00 -0.40728409765E-02  0.89085150122E+00  0.88000000000E+00 0. -1.
        -11    1    4    4    0    0 -0.17017916039E-01  0.45590551768E-01 -0.10466585771E-01  0.49778694394E-01  0.51100000000E-03 0. -1.
         11    1    4    4    0    0 -0.43754247810E-01  0.62380906932E-01 -0.17474416539E-02  0.76217625418E-01  0.51100000000E-03 0.  1.
</event>
<event>
 8    1  0.1128641E+005  0.1043930E+01  0.7957747E-01            NaN
         13   -1    0    0    0    0  0.00000000000E+00  0.00000000000E+00  0.74505805969E-08  0.10566000000E+00  0.10566000000E+00 0. -1.
     999900   -1    0    0    0    0 -0.00000000000E+00 -0.00000000000E+00 -0.74505805969E-08  0.93827000000E+00  0.93827000000E+00 0. -1.
     999902    2    1    2    0    0  0.10996406323E-01  0.20460859203E-01  0.10502292168E-02  0.10206776734E+01  0.10204127803E+01 0.  0.
     999903    2    3    3    0    0  0.96663993190E-02  0.93592493594E-02 -0.12868816403E+00  0.13109515033E+00  0.21077477419E-01 0.  0.
         14    1    1    2    0    0 -0.10996406323E-01 -0.20460859203E-01 -0.10502292168E-02  0.23252326609E-01  0.00000000000E+00 0.  1.
     999901    1    3    3    0    0  0.13300070042E-02  0.11101609843E-01  0.12973839324E+00  0.88958252306E+00  0.88000000000E+00 0.  1.
        -11    1    4    4    0    0  0.85309701947E-02  0.14819918599E-01 -0.66865414814E-01  0.69019216592E-01  0.51100000000E-03 0. -1.
         11    1    4    4    0    0  0.11354291244E-02 -0.54606692398E-02 -0.61822749213E-01  0.62075933735E-01  0.51100000000E-03 0.  1.
</event>
<event>
 8    1  0.1128641E+005  0.1043930E+01  0.7957747E-01            NaN
         13   -1    0    0    0    0  0.00000000000E+00  0.00000000000E+00  0.74505805969E-08  0.10566000000E+00  0.10566000000E+00 0.  1.
     999900   -1    0    0    0    0 -0.00000000000E+00 -0.00000000000E+00 -0.74505805969E-08  0.93827000000E+00  0.93827000000E+00 0. -1.
     999902    2    1    2    0    0  0.13416668553E-01  0.18751260428E-01  0.44616410039E-02  0.10204454731E+01  0.10201752009E+01 0.  0.
     999903    2    3    3    0    0 -0.69861027028E-01 -0.10518854492E+00  0.58087888024E-02  0.12786602861E+00  0.19255808658E-01 0.  0.
         14    1    1    2    0    0 -0.13416668553E-01 -0.18751260428E-01 -0.44616410039E-02  0.23484526889E-01  0.00000000000E+00 0.  1.
     999901    1    3    3    0    0  0.83277695581E-01  0.12393980535E+00 -0.13471477985E-02  0.89257944450E+00  0.88000000000E+00 0. -1.
        -11    1    4    4    0    0 -0.19454495024E-01 -0.46109380288E-01  0.34775494047E-02  0.50168783103E-01  0.51100000000E-03 0. -1.
         11    1    4    4    0    0 -0.50406532004E-01 -0.59079164630E-01  0.23312393977E-02  0.77697245512E-01  0.51100000000E-03 0.  1.
</event>
<event>
 8    1  0.1128641E+005  0.1043930E+01  0.7957747E-01            NaN
         13   -1    0    0    0    0  0.00000000000E+00  0.00000000000E+00  0.74505805969E-08  0.10566000000E+00  0.10566000000E+00 0. -1.
     999900   -1    0    0    0    0 -0.00000000000E+00 -0.00000000000E+00 -0.74505805969E-08  0.93827000000E+00  0.93827000000E+00 0.  1.
     999902    2    1    2    0    0 -0.23017400853E-01  0.43753712210E-02 -0.10042446006E-02  0.10204789207E+01  0.10202094267E+01 0.  0.
     999903    2    3    3    0    0 -0.15096521748E-01  0.51551252238E-01  0.11797914470E+00  0.13118405898E+00  0.20118204939E-01 0.  0.
         14    1    1    2    0    0  0.23017400853E-01 -0.43753712210E-02  0.10042446006E-02  0.23451079347E-01  0.00000000000E+00 0. -1.
     999901    1    3    3    0    0 -0.79208791046E-02 -0.47175881017E-01 -0.11898338930E+00  0.88929486168E+00  0.88000000000E+00 0.  1.
        -11    1    4    4    0    0 -0.12300406603E-01  0.45843184094E-01  0.82880919094E-01  0.95511284157E-01  0.51100000000E-03 0.  1.
         11    1    4    4    0    0 -0.27961151449E-02  0.57080681438E-02  0.35098225603E-01  0.35672774819E-01  0.51100000000E-03 0. -1.
</event>
<event>
 8    1  0.1128641E+005  0.1043930E+01  0.7957747E-01            NaN
         13   -1    0    0    0    0  0.00000000000E+00  0.00000000000E+00  0.74505805969E-08  0.10566000000E+00  0.10566000000E+00 0.  1.
     999900   -1    0    0    0    0 -0.00000000000E+00 -0.00000000000E+00 -0.74505805969E-08  0.93827000000E+00  0.93827000000E+00 0.  1.
     999902    2    1    2    0    0 -0.12598467809E-01  0.18344645713E-01  0.76344230117E-02  0.10204027428E+01  0.10201314747E+01 0.  0.
     999903    2    3    3    0    0  0.10452199870E+00 -0.61232260925E-01 -0.36156192673E-01  0.12800860017E+00  0.20116994298E-01 0.  0.
         14    1    1    2    0    0  0.12598467809E-01 -0.18344645713E-01 -0.76344230117E-02  0.23527257218E-01  0.00000000000E+00 0. -1.
     999901    1    3    3    0    0 -0.11712046651E+00  0.79576906638E-01  0.43790615684E-01  0.89239414261E+00  0.88000000000E+00 0.  1.
        -11    1    4    4    0    0  0.14863686665E-01 -0.16663422104E-01 -0.30017268236E-02  0.22535977956E-01  0.51100000000E-03 0. -1.
         11    1    4    4    0    0  0.89658312031E-01 -0.44568838821E-01 -0.33154465849E-01  0.10547262222E+00  0.51100000000E-03 0.  1.
</event>
<event>
 8    1  0.1128641E+005  0.1043930E+01  0.7957747E-01            NaN
         13   -1    0    0    0    0  0.00000000000E+00  0.00000000000E+00  0.74505805969E-08  0.10566000000E+00  0.10566000000E+00 0.  1.
     999900   -1    0    0    0    0 -0.00000000000E+00 -0.00000000000E+00 -0.74505805969E-08  0.93827000000E+00  0.93827000000E+00 0. -1.
     999902    2    1    2    0    0 -0.31361626030E-02  0.20549724791E-01 -0.13635068062E-01  0.10190695538E+01  0.10187662704E+01 0.  0.
     999903    2    3    3    0    0  0.10701695663E+00  0.10451289708E-01 -0.70945566083E-01  0.13029501474E+00  0.19536096279E-01 0.  0.
         14    1    1    2    0    0  0.31361626030E-02 -0.20549724791E-01  0.13635068062E-01  0.24860446213E-01  0.00000000000E+00 0.  1.
     999901    1    3    3    0    0 -0.11015311923E+00  0.10098435083E-01  0.57310498020E-01  0.88877453904E+00  0.88000000000E+00 0.  1.
        -11    1    4    4    0    0  0.53964574168E-01  0.14949459775E-01 -0.34563042770E-01  0.65806737187E-01  0.51100000000E-03 0. -1.
         11    1    4    4    0    0  0.53052382460E-01 -0.44981700669E-02 -0.36382523313E-01  0.64488277557E-01  0.51100000000E-03 0.  1.
</event>
<event>
 8    1  0.1128641E+005  0.1043930E+01  0.7957747E-01            NaN
         13   -1    0    0    0    0  0.00000000000E+00  0.00000000000E+00  0.74505805969E-08  0.10566000000E+00  0.10566000000E+00 0.  1.
     999900   -1    0    0    0    0 -0.00000000000E+00 -0.00000000000E+00 -0.74505805969E-08  0.93827000000E+00  0.93827000000E+00 0.  1.
     999902    2    1    2    0    0 -0.28426555197E-02  0.11667169561E-01 -0.21821207772E-01  0.10190227993E+01  0.10187183600E+01 0.  0.
     999903    2    3    3    0    0  0.11504058718E-01 -0.11974955926E+00 -0.41603835537E-01  0.12892868230E+00  0.20479884720E-01 0.  0.
         14    1    1    2    0    0  0.28426555197E-02 -0.11667169561E-01  0.21821207772E-01  0.24907200658E-01  0.00000000000E+00 0.  1.
     999901    1    3    3    0    0 -0.14346714238E-01  0.13141672883E+00  0.19782627765E-01  0.89009411704E+00  0.88000000000E+00 0.  1.
        -11    1    4    4    0    0  0.55550619746E-02 -0.99628449991E-01 -0.41147248394E-01  0.10793536924E+00  0.51100000000E-03 0.  1.
         11    1    4    4    0    0  0.59489967436E-02 -0.20121109274E-01 -0.45658714282E-03  0.20993313066E-01  0.51100000000E-03 0. -1.
</event>
<event>
 8    1  0.1128641E+005  0.1043930E+01  0.7957747E-01            NaN
         13   -1    0    0    0    0  0.00000000000E+00  0.00000000000E+00  0.74505805969E-08  0.10566000000E+00  0.10566000000E+00 0. -1.
     999900   -1    0    0    0    0 -0.00000000000E+00 -0.00000000000E+00 -0.74505805969E-08  0.93827000000E+00  0.93827000000E+00 0. -1.
     999902    2    1    2    0    0 -0.19700706862E-01  0.93768193109E-02 -0.19630747278E-02  0.10220234655E+01  0.10217886610E+01 0.  0.
     999903    2    3    3    0    0 -0.40980327299E-01 -0.36923962140E-01  0.11849971786E+00  0.13235618556E+00  0.20813709836E-01 0.  0.
         14    1    1    2    0    0  0.19700706862E-01 -0.93768193109E-02  0.19630747278E-02  0.21906534496E-01  0.00000000000E+00 0. -1.
     999901    1    3    3    0    0  0.21279620437E-01  0.46300781451E-01 -0.12046279259E+00  0.88966727995E+00  0.88000000000E+00 0. -1.
        -11    1    4    4    0    0 -0.32302268098E-01 -0.15498044102E-01  0.71290763360E-01  0.79788846067E-01  0.51100000000E-03 0.  1.
         11    1    4    4    0    0 -0.86780592013E-02 -0.21425918038E-01  0.47208954498E-01  0.52567339490E-01  0.51100000000E-03 0. -1.
</event>
<event>
 8    1  0.1128641E+005  0.1043930E+01  0.7957747E-01            NaN
         13   -1    0    0    0    0  0.00000000000E+00  0.00000000000E+00  0.74505805969E-08  0.10566000000E+00  0.10566000000E+00 0. -1.
     999900   -1    0    0    0    0 -0.00000000000E+00 -0.00000000000E+00 -0.74505805969E-08  0.93827000000E+00  0.93827000000E+00 0. -1.
     999902    2    1    2    0    0 -0.18478442910E-01  0.73127198113E-02 -0.13614562958E-01  0.10198408936E+01  0.10195563561E+01 0.  0.
     999903    2    3    3    0    0  0.88153151396E-01  0.46536841684E-01  0.77479767962E-01  0.12787284160E+00  0.20290230149E-01 0.  0.
         14    1    1    2    0    0  0.18478442910E-01 -0.73127198113E-02  0.13614562958E-01  0.24089106417E-01  0.00000000000E+00 0. -1.
     999901    1    3    3    0    0 -0.10663159431E+00 -0.39224121872E-01 -0.91094330920E-01  0.89196805199E+00  0.88000000000E+00 0. -1.
        -11    1    4    4    0    0  0.16512263954E-01  0.16881959336E-01  0.24047694421E-01  0.33707686658E-01  0.51100000000E-03 0. -1.
         11    1    4    4    0    0  0.71640887442E-01  0.29654882348E-01  0.53432073541E-01  0.94165154938E-01  0.51100000000E-03 0.  1.
</event>
<event>
 8    1  0.1128641E+005  0.1043930E+01  0.7957747E-01            NaN
         13   -1    0    0    0    0  0.00000000000E+00  0.00000000000E+00  0.74505805969E-08  0.10566000000E+00  0.10566000000E+00 0. -1.
     999900   -1    0    0    0    0 -0.00000000000E+00 -0.00000000000E+00 -0.74505805969E-08  0.93827000000E+00  0.93827000000E+00 0. -1.
     999902    2    1    2    0    0 -0.12635076623E-01  0.11440158529E-01  0.13840720102E-01  0.10219734993E+01  0.10217376109E+01 0.  0.
     999903    2    3    3    0    0 -0.48256207296E-01 -0.92291749202E-01 -0.76174388920E-01  0.13060831408E+00  0.20237728797E-01 0.  0.
         14    1    1    2    0    0  0.12635076623E-01 -0.11440158529E-01 -0.13840720102E-01  0.21956500663E-01  0.00000000000E+00 0.  1.
     999901    1    3    3    0    0  0.35621130674E-01  0.10373190773E+00  0.90015109022E-01  0.89136518525E+00  0.88000000000E+00 0.  1.
        -11    1    4    4    0    0 -0.13210821282E-01 -0.46958030210E-01 -0.34227568634E-01  0.59593371911E-01  0.51100000000E-03 0. -1.
         11    1    4    4    0    0 -0.35045386015E-01 -0.45333718992E-01 -0.41946820286E-01  0.71014942172E-01  0.51100000000E-03 0.  1.
</event>
<event>
 8    1  0.1128641E+005  0.1043930E+01  0.7957747E-01            NaN
         13   -1    0    0    0    0  0.00000000000E+00  0.00000000000E+00  0.74505805969E-08  0.10566000000E+00  0.10566000000E+00 0.  1.
     999900   -1    0    0    0    0 -0.00000000000E+00 -0.00000000000E+00 -0.74505805969E-08  0.93827000000E+00  0.93827000000E+00 0. -1.
     999902    2    1    2    0    0 -0.95249701980E-02  0.14760188925E-01  0.13636360956E-01  0.10216917767E+01  0.10214497286E+01 0.  0.
     999903    2    3    3    0    0 -0.10566969718E+00 -0.72761486606E-01 -0.20717423195E-01  0.13147605304E+00  0.19910350674E-01 0.  0.
         14    1    1    2    0    0  0.95249701980E-02 -0.14760188925E-01 -0.13636360956E-01  0.22238223276E-01  0.00000000000E+00 0. -1.
     999901    1    3    3    0    0  0.96144726978E-01  0.87521675531E-01  0.34353784150E-01  0.89021572369E+00  0.88000000000E+00 0.  1.
        -11    1    4    4    0    0 -0.77954202151E-01 -0.62049420254E-01 -0.20674877342E-01  0.10175804568E+00  0.51100000000E-03 0.  1.
         11    1    4    4    0    0 -0.27715495025E-01 -0.10712066352E-01 -0.42545852536E-04  0.29718007355E-01  0.51100000000E-03 0. -1.
</event>
<event>
 8    1  0.1128641E+005  0.1043930E+01  0.7957747E-01            NaN
         13   -1    0    0    0    0  0.00000000000E+00  0.00000000000E+00  0.74505805969E-08  0.10566000000E+00  0.10566000000E+00 0. -1.
     999900   -1    0    0    0    0 -0.00000000000E+00 -0.00000000000E+00 -0.74505805969E-08  0.93827000000E+00  0.93827000000E+00 0.  1.
     999902    2    1    2    0    0  0.14559144502E-01 -0.11363242776E-01 -0.14504578610E-01  0.10204464999E+01  0.10201762517E+01 0.  0.
     999903    2    3    3    0    0 -0.18982371987E-01  0.44546062093E-01  0.11701367654E+00  0.12828735766E+00  0.20512521640E-01 0.  0.
         14    1    1    2    0    0 -0.14559144502E-01  0.11363242776E-01  0.14504578610E-01  0.23483500073E-01  0.00000000000E+00 0. -1.
     999901    1    3    3    0    0  0.33541516490E-01 -0.55909304869E-01 -0.13151825515E+00  0.89215914227E+00  0.88000000000E+00 0.  1.
        -11    1    4    4    0    0 -0.17524816499E-01  0.39228733746E-01  0.11432289603E+00  0.12213107067E+00  0.51100000000E-03 0.  1.
         11    1    4    4    0    0 -0.14575554880E-02  0.53173283470E-02  0.26907805020E-02  0.61562869865E-02  0.51100000000E-03 0. -1.
</event>
<event>
 8    1  0.1128641E+005  0.1043930E+01  0.7957747E-01            NaN
         13   -1    0    0    0    0  0.00000000000E+00  0.00000000000E+00  0.74505805969E-08  0.10566000000E+00  0.10566000000E+00 0. -1.
     999900   -1    0    0    0    0 -0.00000000000E+00 -0.00000000000E+00 -0.74505805969E-08  0.93827000000E+00  0.93827000000E+00 0.  1.
     999902    2    1    2    0    0 -0.19312539919E-02  0.14646669421E-01 -0.18032045611E-01  0.10206188581E+01  0.10203526078E+01 0.  0.
     999903    2    3    3    0    0  0.83527256089E-01 -0.87142057761E-01  0.40231806489E-01  0.12873390007E+00  0.19577487910E-01 0.  0.
         14    1    1    2    0    0  0.19312539919E-02 -0.14646669421E-01  0.18032045611E-01  0.23311141886E-01  0.00000000000E+00 0. -1.
     999901    1    3    3    0    0 -0.85458510081E-01  0.10178872718E+00 -0.58263852100E-01  0.89188495805E+00  0.88000000000E+00 0.  1.
        -11    1    4    4    0    0  0.46461007418E-01 -0.62060982867E-01  0.25224296226E-01  0.81527400582E-01  0.51100000000E-03 0. -1.
         11    1    4    4    0    0  0.37066248671E-01 -0.25081074894E-01  0.15007510263E-01  0.47206499486E-01  0.51100000000E-03 0.  1.
</event>
<event>
 8    1  0.1128641E+005  0.1043930E+01  0.7957747E-01            NaN
         13   -1    0    0    0    0  0.00000000000E+00  0.00000000000E+00  0.74505805969E-08  0.10566000000E+00  0.10566000000E+00 0. -1.
     999900   -1    0    0    0    0 -0.00000000000E+00 -0.00000000000E+00 -0.74505805969E-08  0.93827000000E+00  0.93827000000E+00 0. -1.
     999902    2    1    2    0    0  0.19088132989E-01  0.44156976587E-02  0.15097517197E-01  0.10191956063E+01  0.10188954282E+01 0.  0.
     999903    2    3    3    0    0 -0.12150412175E+00 -0.17508455899E-01 -0.24754337548E-01  0.12687558470E+00  0.20367600145E-01 0.  0.
         14    1    1    2    0    0 -0.19088132989E-01 -0.44156976587E-02 -0.15097517197E-01  0.24734393713E-01  0.00000000000E+00 0.  1.
     999901    1    3    3    0    0  0.14059225474E+00  0.21924153558E-01  0.39851854744E-01  0.89232002159E+00  0.88000000000E+00 0.  1.
        -11    1    4    4    0    0 -0.53989773408E-01 -0.17128822008E-01 -0.15503478247E-01  0.58727430854E-01  0.51100000000E-03 0.  1.
         11    1    4    4    0    0 -0.67514348340E-01 -0.37963389123E-03 -0.92508593007E-02  0.68148153844E-01  0.51100000000E-03 0. -1.
</event>
<event>
 8    1  0.1128641E+005  0.1043930E+01  0.7957747E-01            NaN
         13   -1    0    0    0    0  0.00000000000E+00  0.00000000000E+00  0.74505805969E-08  0.10566000000E+00  0.10566000000E+00 0.  1.
     999900   -1    0    0    0    0 -0.00000000000E+00 -0.00000000000E+00 -0.74505805969E-08  0.93827000000E+00  0.93827000000E+00 0. -1.
     999902    2    1    2    0    0  0.33083567584E-02 -0.20186019614E-01 -0.13361750494E-01  0.10194972967E+01  0.10192044844E+01 0.  0.
     999903    2    3    3    0    0 -0.46803108894E-01 -0.10590071996E+00  0.58047253270E-01  0.13103941104E+00  0.19908544469E-01 0.  0.
         14    1    1    2    0    0 -0.33083567584E-02  0.20186019614E-01  0.13361750494E-01  0.24432703260E-01  0.00000000000E+00 0. -1.
     999901    1    3    3    0    0  0.50111465653E-01  0.85714700347E-01 -0.71409003765E-01  0.88845788570E+00  0.88000000000E+00 0. -1.
        -11    1    4    4    0    0 -0.31862899018E-01 -0.58043489967E-01  0.41928523007E-01  0.78374442415E-01  0.51100000000E-03 0.  1.
         11    1    4    4    0    0 -0.14940209877E-01 -0.47857229995E-01  0.16118730263E-01  0.52664968625E-01  0.51100000000E-03 0. -1.
</event>
<event>
 8    1  0.1128641E+005  0.1043930E+01  0.7957747E-01            NaN
         13   -1    0    0    0    0  0.00000000000E+00  0.00000000000E+00  0.74505805969E-08  0.10566000000E+00  0.10566000000E+00 0.  1.
     999900   -1    0    0    0    0 -0.00000000000E+00 -0.00000000000E+00 -0.74505805969E-08  0.93827000000E+00  0.93827000000E+00 0. -1.
     999902    2    1    2    0    0 -0.12698337952E-02 -0.41320059520E-02  0.23387945189E-01  0.10201459311E+01  0.10198686381E+01 0.  0.
     999903    2    3    3    0    0 -0.18921836638E-01 -0.11390727173E+00 -0.55443571788E-01  0.12965358966E+00  0.20078874577E-01 0.  0.
         14    1    1    2    0    0  0.12698337952E-02  0.41320059520E-02 -0.23387945189E-01  0.23784068853E-01  0.00000000000E+00 0. -1.
     999901    1    3    3    0    0  0.17652002843E-01  0.10977526578E+00  0.78831516977E-01  0.89049234149E+00  0.88000000000E+00 0.  1.
        -11    1    4    4    0    0 -0.20041088373E-01 -0.63210085133E-01 -0.34924000841E-01  0.74947361804E-01  0.51100000000E-03 0.  1.
         11    1    4    4    0    0  0.11192517349E-02 -0.50697186595E-01 -0.20519570947E-01  0.54706227854E-01  0.51100000000E-03 0. -1.
</event>
<event>
 8    1  0.1128641E+005  0.1043930E+01  0.7957747E-01            NaN
         13   -1    0    0    0    0  0.00000000000E+00  0.00000000000E+00  0.74505805969E-08  0.10566000000E+00  0.10566000000E+00 0.  1.
     999900   -1    0    0    0    0 -0.00000000000E+00 -0.00000000000E+00 -0.74505805969E-08  0.93827000000E+00  0.93827000000E+00 0.  1.
     999902    2    1    2    0    0  0.24248291313E-01  0.25315798205E-02  0.14951180365E-02  0.10195041140E+01  0.10192114671E+01 0.  0.
     999903    2    3    3    0    0  0.11294293454E+00 -0.39593794663E-01 -0.53014731355E-01  0.13236680188E+00  0.19662997223E-01 0.  0.
         14    1    1    2    0    0 -0.24248291313E-01 -0.25315798205E-02 -0.14951180365E-02  0.24425885980E-01  0.00000000000E+00 0.  1.
     999901    1    3    3    0    0 -0.88694643231E-01  0.42125374483E-01  0.54509849391E-01  0.88713731214E+00  0.88000000000E+00 0. -1.
        -11    1    4    4    0    0  0.69736659178E-01 -0.28728918848E-01 -0.23807168475E-01  0.79092318231E-01  0.51100000000E-03 0.  1.
         11    1    4    4    0    0  0.43206275366E-01 -0.10864875815E-01 -0.29207562880E-01  0.53274483647E-01  0.51100000000E-03 0. -1.
</event>
<event>
 8    1  0.1128641E+005  0.1043930E+01  0.7957747E-01            NaN
         13   -1    0    0    0    0  0.00000000000E+00  0.00000000000E+00  0.74505805969E-08  0.10566000000E+00  0.10566000000E+00 0.  1.
     999900   -1    0    0    0    0 -0.00000000000E+00 -0.00000000000E+00 -0.74505805969E-08  0.93827000000E+00  0.93827000000E+00 0.  1.
     999902    2    1    2    0    0 -0.21603934328E-01 -0.87446065266E-02 -0.50301365322E-02  0.10200867537E+01  0.10198080626E+01 0.  0.
     999903    2    3    3    0    0 -0.45588632548E-01 -0.56639111592E-01  0.10753319841E+00  0.13130126002E+00  0.19756511357E-01 0.  0.
         14    1    1    2    0    0  0.21603934328E-01  0.87446065266E-02  0.50301365322E-02  0.23843246325E-01  0.00000000000E+00 0. -1.
     999901    1    3    3    0    0  0.23984698219E-01  0.47894505065E-01 -0.11256333495E+00  0.88878549366E+00  0.88000000000E+00 0.  1.
        -11    1    4    4    0    0 -0.21778203877E-01 -0.12727104990E-01  0.32129373121E-01  0.40851280319E-01  0.51100000000E-03 0. -1.
         11    1    4    4    0    0 -0.23810428671E-01 -0.43912006602E-01  0.75403825293E-01  0.90449979697E-01  0.51100000000E-03 0.  1.
</event>
<event>
 8    1  0.1128641E+005  0.1043930E+01  0.7957747E-01            NaN
         13   -1    0    0    0    0  0.00000000000E+00  0.00000000000E+00  0.74505805969E-08  0.10566000000E+00  0.10566000000E+00 0. -1.
     999900   -1    0    0    0    0 -0.00000000000E+00 -0.00000000000E+00 -0.74505805969E-08  0.93827000000E+00  0.93827000000E+00 0.  1.
     999902    2    1    2    0    0  0.57027887352E-02  0.18530337730E-01  0.13300628962E-01  0.10204182594E+01  0.10201473532E+01 0.  0.
     999903    2    3    3    0    0  0.96943070086E-01  0.83970243802E-01  0.34243750886E-01  0.13303683937E+00  0.87866644202E-02 0.  0.
         14    1    1    2    0    0 -0.57027887352E-02 -0.18530337730E-01 -0.13300628962E-01  0.23511740610E-01  0.00000000000E+00 0. -1.
     999901    1    3    3    0    0 -0.91240281351E-01 -0.65439906073E-01 -0.20943121924E-01  0.88738142002E+00  0.88000000000E+00 0.  1.
        -11    1    4    4    0    0  0.86257379013E-03  0.53694972837E-03 -0.30814400905E-03  0.11783133219E-02  0.51100000000E-03 0. -1.
         11    1    4    4    0    0  0.96080496296E-01  0.83433294074E-01  0.34551894895E-01  0.13185852604E+00  0.51100000000E-03 0.  1.
</event>
<event>
 8    1  0.1128641E+005  0.1043930E+01  0.7957747E-01            NaN
         13   -1    0    0    0    0  0.00000000000E+00  0.00000000000E+00  0.74505805969E-08  0.10566000000E+00  0.10566000000E+00 0.  1.
     999900   -1    0    0    0    0 -0.00000000000E+00 -0.00000000000E+00 -0.74505805969E-08  0.93827000000E+00  0.93827000000E+00 0.  1.
     999902    2    1    2    0    0  0.58006271738E-02  0.16462050864E-01 -0.98462793504E-03  0.10264481269E+01  0.10262992455E+01 0.  0.
     999903    2    3    3    0    0  0.13122205819E+00  0.11223942369E-01 -0.32522546886E-01  0.13698052578E+00  0.18993234320E-01 0.  0.
         14    1    1    2    0    0 -0.58006271738E-02 -0.16462050864E-01  0.98462793504E-03  0.17481873081E-01  0.00000000000E+00 0. -1.
     999901    1    3    3    0    0 -0.12542143102E+00  0.52381084949E-02  0.31537918950E-01  0.88946760114E+00  0.88000000000E+00 0. -1.
        -11    1    4    4    0    0  0.78795016706E-01 -0.15636210967E-02 -0.14889105581E-01  0.80206272539E-01  0.51100000000E-03 0.  1.
         11    1    4    4    0    0  0.52427041484E-01  0.12787563465E-01 -0.17633441304E-01  0.56774253244E-01  0.51100000000E-03 0. -1.
</event>
<event>
 8    1  0.1128641E+005  0.1043930E+01  0.7957747E-01            NaN
         13   -1    0    0    0    0  0.00000000000E+00  0.00000000000E+00  0.74505805969E-08  0.10566000000E+00  0.10566000000E+00 0. -1.
     999900   -1    0    0    0    0 -0.00000000000E+00 -0.00000000000E+00 -0.74505805969E-08  0.93827000000E+00  0.93827000000E+00 0. -1.
     999902    2    1    2    0    0  0.42223196870E-02 -0.15319041125E-01  0.17405636312E-01  0.10203618609E+01  0.10200896382E+01 0.  0.
     999903    2    3    3    0    0 -0.16592700472E-01  0.12517722972E+00 -0.13157941794E-01  0.12845009426E+00  0.19535576119E-01 0.  0.
         14    1    1    2    0    0 -0.42223196870E-02  0.15319041125E-01 -0.17405636312E-01  0.23568139086E-01  0.00000000000E+00 0.  1.
     999901    1    3    3    0    0  0.20815020159E-01 -0.14049627085E+00  0.30563578105E-01  0.89191176665E+00  0.88000000000E+00 0.  1.
        -11    1    4    4    0    0 -0.18305026603E-01  0.78525746231E-01 -0.13547097908E-01  0.81762777611E-01  0.51100000000E-03 0.  1.
         11    1    4    4    0    0  0.17123261304E-02  0.46651483490E-01  0.38915611408E-03  0.46687316651E-01  0.51100000000E-03 0. -1.
</event>
<event>
 8    1  0.1128641E+005  0.1043930E+01  0.7957747E-01            NaN
         13   -1    0    0    0    0  0.00000000000E+00  0.00000000000E+00  0.74505805969E-08  0.10566000000E+00  0.10566000000E+00 0.  1.
     999900   -1    0    0    0    0 -0.00000000000E+00 -0.00000000000E+00 -0.74505805969E-08  0.93827000000E+00  0.93827000000E+00 0.  1.
     999902    2    1    2    0    0 -0.14277846384E-01  0.67116417333E-02  0.17519235792E-01  0.10203540238E+01  0.10200816179E+01 0.  0.
     999903    2    3    3    0    0 -0.58756560730E-01  0.89103329367E-01 -0.72830076870E-01  0.13078685682E+00  0.20229806923E-01 0.  0.
         14    1    1    2    0    0  0.14277846384E-01 -0.67116417333E-02 -0.17519235792E-01  0.23575976223E-01  0.00000000000E+00 0. -1.
     999901    1    3    3    0    0  0.44478714346E-01 -0.82391687634E-01  0.90349312662E-01  0.88956716695E+00  0.88000000000E+00 0. -1.
        -11    1    4    4    0    0 -0.44409813132E-01  0.75713192336E-01 -0.66621896050E-01  0.11019735546E+00  0.51100000000E-03 0.  1.
         11    1    4    4    0    0 -0.14346747598E-01  0.13390137031E-01 -0.62081808197E-02  0.20589501365E-01  0.51100000000E-03 0. -1.
</event>
<event>
 8    1  0.1128641E+005  0.1043930E+01  0.7957747E-01            NaN
         13   -1    0    0    0    0  0.00000000000E+00  0.00000000000E+00  0.74505805969E-08  0.10566000000E+00  0.10566000000E+00 0. -1.
     999900   -1    0    0    0    0 -0.00000000000E+00 -0.00000000000E+00 -0.74505805969E-08  0.93827000000E+00  0.93827000000E+00 0. -1.
     999902    2    1    2    0    0 -0.17365715844E-01  0.52994460232E-02 -0.18577823446E-01  0.10179533232E+01  0.10176218258E+01 0.  0.
     999903    2    3    3    0    0  0.48269396595E-01 -0.76286491648E-01  0.85124610486E-01  0.12569863531E+00  0.20109305130E-01 0.  0.
         14    1    1    2    0    0  0.17365715844E-01 -0.52994460232E-02  0.18577823446E-01  0.25976676826E-01  0.00000000000E+00 0. -1.
     999901    1    3    3    0    0 -0.65635112439E-01  0.81585937672E-01 -0.10370243393E+00  0.89225468786E+00  0.88000000000E+00 0.  1.
        -11    1    4    4    0    0  0.73295534390E-02 -0.24658428894E-01  0.16525541744E-01  0.30579652060E-01  0.51100000000E-03 0. -1.
         11    1    4    4    0    0  0.40939843156E-01 -0.51628062754E-01  0.68599068742E-01  0.95118983251E-01  0.51100000000E-03 0.  1.
</event>
<event>
 8    1  0.1128641E+005  0.1043930E+01  0.7957747E-01            NaN
         13   -1    0    0    0    0  0.00000000000E+00  0.00000000000E+00  0.74505805969E-08  0.10566000000E+00  0.10566000000E+00 0.  1.
     999900   -1    0    0    0    0 -0.00000000000E+00 -0.00000000000E+00 -0.74505805969E-08  0.93827000000E+00  0.93827000000E+00 0.  1.
     999902    2    1    2    0    0  0.14636681768E-01 -0.27715126999E-02  0.19096668419E-01  0.10197102461E+01  0.10194225765E+01 0.  0.
     999903    2    3    3    0    0 -0.38562705457E-01  0.12156246191E+00  0.65943305710E-02  0.12929156899E+00  0.20206687463E-01 0.  0.
         14    1    1    2    0    0 -0.14636681768E-01  0.27715126999E-02 -0.19096668419E-01  0.24219753932E-01  0.00000000000E+00 0. -1.
     999901    1    3    3    0    0  0.53199387225E-01 -0.12433397461E+00  0.12502337848E-01  0.89041867708E+00  0.88000000000E+00 0. -1.
        -11    1    4    4    0    0 -0.26484664295E-01  0.87595822728E-01  0.13732020955E-01  0.92538073908E-01  0.51100000000E-03 0. -1.
         11    1    4    4    0    0 -0.12078041162E-01  0.33966639180E-01 -0.71376903835E-02  0.36753495079E-01  0.51100000000E-03 0.  1.
</event>
<event>
 8    1  0.1128641E+005  0.1043930E+01  0.7957747E-01            NaN
         13   -1    0    0    0    0  0.00000000000E+00  0.00000000000E+00  0.74505805969E-08  0.10566000000E+00  0.10566000000E+00 0. -1.
     999900   -1    0    0    0    0 -0.00000000000E+00 -0.00000000000E+00 -0.74505805969E-08  0.93827000000E+00  0.93827000000E+00 0.  1.
     999902    2    1    2    0    0 -0.34725618088E-02 -0.23297308830E-02 -0.23350745522E-01  0.10202077816E+01  0.10199319457E+01 0.  0.
     999903    2    3    3    0    0  0.39245722783E-01 -0.87401840539E-01  0.83493702687E-01  0.12864855649E+00  0.19998605274E-01 0.  0.
         14    1    1    2    0    0  0.34725618088E-02  0.23297308830E-02  0.23350745522E-01  0.23722218445E-01  0.00000000000E+00 0. -1.
     999901    1    3    3    0    0 -0.42718284592E-01  0.85072109656E-01 -0.10684444821E+00  0.89155922506E+00  0.88000000000E+00 0.  1.
        -11    1    4    4    0    0  0.26788574319E-01 -0.77058815989E-01  0.71665482604E-01  0.10859047543E+00  0.51100000000E-03 0. -1.
         11    1    4    4    0    0  0.12457148464E-01 -0.10343024550E-01  0.11828220083E-01  0.20058081066E-01  0.51100000000E-03 0.  1.
</event>
<event>
 8    1  0.1128641E+005  0.1043930E+01  0.7957747E-01            NaN
         13   -1    0    0    0    0  0.00000000000E+00  0.00000000000E+00  0.74505805969E-08  0.10566000000E+00  0.10566000000E+00 0. -1.
     999900   -1    0    0    0    0 -0.00000000000E+00 -0.00000000000E+00 -0.74505805969E-08  0.93827000000E+00  0.93827000000E+00 0. -1.
     999902    2    1    2    0    0  0.18310478547E-01  0.17333422545E-01 -0.59135334024E-03  0.10187095547E+01  0.10183973124E+01 0.  0.
     999903    2    3    3    0    0 -0.10180225823E+00  0.58072116439E-01 -0.48320064726E-01  0.12833618325E+00  0.19981911537E-01 0.  0.
         14    1    1    2    0    0 -0.18310478547E-01 -0.17333422545E-01  0.59135334024E-03  0.25220445288E-01  0.00000000000E+00 0.  1.
     999901    1    3    3    0    0  0.12011273677E+00 -0.40738693895E-01  0.47728711386E-01  0.89037337146E+00  0.88000000000E+00 0. -1.
        -11    1    4    4    0    0 -0.88931757494E-01  0.43831086246E-01 -0.35800249354E-01  0.10541318982E+00  0.51100000000E-03 0. -1.
         11    1    4    4    0    0 -0.12870500733E-01  0.14241030193E-01 -0.12519815372E-01  0.22922993435E-01  0.51100000000E-03 0.  1.
</event>
<event>
 8    1  0.1128641E+005  0.1043930E+01  0.7957747E-01            NaN
         13   -1    0    0    0    0  0.00000000000E+00  0.00000000000E+00  0.74505805969E-08  0.10566000000E+00  0.10566000000E+00 0.  1.
     999900   -1    0    0    0    0 -0.00000000000E+00 -0.00000000000E+00 -0.74505805969E-08  0.93827000000E+00  0.93827000000E+00 0. -1.
     999902    2    1    2    0    0  0.19157981280E-01 -0.11598703859E-01  0.42012669165E-02  0.10211438458E+01  0.10208895851E+01 0.  0.
     999903    2    3    3    0    0 -0.18939742258E-01  0.79462658379E-01  0.99704569400E-01  0.13048987879E+00  0.20336651476E-01 0.  0.
         14    1    1    2    0    0 -0.19157981280E-01  0.11598703859E-01 -0.42012669165E-02  0.22786154165E-01  0.00000000000E+00 0.  1.
     999901    1    3    3    0    0  0.38097723538E-01 -0.91061362238E-01 -0.95503302484E-01  0.89065396705E+00  0.88000000000E+00 0. -1.
        -11    1    4    4    0    0 -0.12442405332E-01  0.37048241957E-01  0.32892502527E-01  0.51083887147E-01  0.51100000000E-03 0. -1.
         11    1    4    4    0    0 -0.64973369257E-02  0.42414416422E-01  0.66812066874E-01  0.79405991641E-01  0.51100000000E-03 0.  1.
</event>
<event>
 8    1  0.1128641E+005  0.1043930E+01  0.7957747E-01            NaN
         13   -1    0    0    0    0  0.00000000000E+00  0.00000000000E+00  0.74505805969E-08  0.10566000000E+00  0.10566000000E+00 0. -1.
     999900   -1    0    0    0    0 -0.00000000000E+00 -0.00000000000E+00 -0.74505805969E-08  0.93827000000E+00  0.93827000000E+00 0. -1.
     999902    2    1    2    0    0  0.99359361130E-02 -0.28015246058E-01 -0.12709707635E-01  0.10116017847E+01  0.10110850890E+01 0.  0.
     999903    2    3    3    0    0  0.31377573495E-01 -0.80517329941E-01 -0.90015298343E-01  0.12639425704E+00  0.20128629786E-01 0.  0.
         14    1    1    2    0    0 -0.99359361130E-02  0.28015246058E-01  0.12709707635E-01  0.32328215328E-01  0.00000000000E+00 0. -1.
     999901    1    3    3    0    0 -0.21441637382E-01  0.52502083884E-01  0.77305590708E-01  0.88520752763E+00  0.88000000000E+00 0.  1.
        -11    1    4    4    0    0  0.26132761954E-01 -0.74024865643E-01 -0.71951285111E-01  0.10648873429E+00  0.51100000000E-03 0.  1.
         11    1    4    4    0    0  0.52448115410E-02 -0.64924642981E-02 -0.18064013233E-01  0.19905522747E-01  0.51100000000E-03 0. -1.
</event>
<event>
 8    1  0.1128641E+005  0.1043930E+01  0.7957747E-01            NaN
         13   -1    0    0    0    0  0.00000000000E+00  0.00000000000E+00  0.74505805969E-08  0.10566000000E+00  0.10566000000E+00 0.  1.
     999900   -1    0    0    0    0 -0.00000000000E+00 -0.00000000000E+00 -0.74505805969E-08  0.93827000000E+00  0.93827000000E+00 0.  1.
     999902    2    1    2    0    0 -0.94046486966E-02 -0.21731832618E-01  0.20328275107E-02  0.10201633773E+01  0.10198864957E+01 0.  0.
     999903    2    3    3    0    0  0.25248137911E-02 -0.10890564108E+00 -0.72657121764E-01  0.13262736482E+00  0.21074800428E-01 0.  0.
         14    1    1    2    0    0  0.94046486966E-02  0.21731832618E-01 -0.20328275107E-02  0.23766622683E-01  0.00000000000E+00 0.  1.
     999901    1    3    3    0    0 -0.11929462488E-01  0.87173808459E-01  0.74689949275E-01  0.88753601250E+00  0.88000000000E+00 0. -1.
        -11    1    4    4    0    0  0.10067802652E-01 -0.59478096710E-01 -0.32685743136E-01  0.68612124029E-01  0.51100000000E-03 0. -1.
         11    1    4    4    0    0 -0.75429888606E-02 -0.49427544367E-01 -0.39971378628E-01  0.64015240791E-01  0.51100000000E-03 0.  1.
</event>
<event>
 8    1  0.1128641E+005  0.1043930E+01  0.7957747E-01            NaN
         13   -1    0    0    0    0  0.00000000000E+00  0.00000000000E+00  0.74505805969E-08  0.10566000000E+00  0.10566000000E+00 0.  1.
     999900   -1    0    0    0    0 -0.00000000000E+00 -0.00000000000E+00 -0.74505805969E-08  0.93827000000E+00  0.93827000000E+00 0.  1.
     999902    2    1    2    0    0  0.18606805453E-01 -0.73254726575E-02 -0.37232434678E-02  0.10235894420E+01  0.10233873203E+01 0.  0.
     999903    2    3    3    0    0 -0.78627356898E-02 -0.10243512209E+00 -0.85023350590E-01  0.13434471220E+00  0.16271284482E-01 0.  0.
         14    1    1    2    0    0 -0.18606805453E-01  0.73254726575E-02  0.37232434678E-02  0.20340558024E-01  0.00000000000E+00 0.  1.
     999901    1    3    3    0    0  0.26469541143E-01  0.95109649435E-01  0.81300107123E-01  0.88924472978E+00  0.88000000000E+00 0. -1.
        -11    1    4    4    0    0  0.20516130041E-02 -0.30564612913E-01 -0.33251135228E-01  0.45213977853E-01  0.51100000000E-03 0. -1.
         11    1    4    4    0    0 -0.99143486939E-02 -0.71870509180E-01 -0.51772215363E-01  0.89130734342E-01  0.51100000000E-03 0.  1.
</event>
<event>
 8    1  0.1128641E+005  0.1043930E+01  0.7957747E-01            NaN
         13   -1    0    0    0    0  0.00000000000E+00  0.00000000000E+00  0.74505805969E-08  0.10566000000E+00  0.10566000000E+00 0. -1.
     999900   -1    0    0    0    0 -0.00000000000E+00 -0.00000000000E+00 -0.74505805969E-08  0.93827000000E+00  0.93827000000E+00 0. -1.
     999902    2    1    2    0    0 -0.20898923508E-01  0.37408474927E-02 -0.10507800324E-01  0.10202409137E+01  0.10199658568E+01 0.  0.
     999903    2    3    3    0    0 -0.86406187358E-01 -0.69151599204E-01  0.67777472652E-01  0.13134660365E+00  0.20252693810E-01 0.  0.
         14    1    1    2    0    0  0.20898923508E-01 -0.37408474927E-02  0.10507800324E-01  0.23689086336E-01  0.00000000000E+00 0. -1.
     999901    1    3    3    0    0  0.65507263849E-01  0.72892446696E-01 -0.78285272976E-01  0.88889431001E+00  0.88000000000E+00 0. -1.
        -11    1    4    4    0    0 -0.59938925680E-01 -0.53560961874E-01  0.39388691044E-01  0.89516375886E-01  0.51100000000E-03 0.  1.
         11    1    4    4    0    0 -0.26467261677E-01 -0.15590637329E-01  0.28388781608E-01  0.41830227769E-01  0.51100000000E-03 0. -1.
</event>
<event>
 8    1  0.1128641E+005  0.1043930E+01  0.7957747E-01            NaN
         13   -1    0    0    0    0  0.00000000000E+00  0.00000000000E+00  0.74505805969E-08  0.10566000000E+00  0.10566000000E+00 0.  1.
     999900   -1    0    0    0    0 -0.00000000000E+00 -0.00000000000E+00 -0.74505805969E-08  0.93827000000E+00  0.93827000000E+00 0. -1.
     999902    2    1    2    0    0  0.38809017258E-02 -0.96590134067E-02 -0.21415857426E-01  0.10201183036E+01  0.10198403583E+01 0.  0.
     999903    2    3    3    0    0 -0.98557380883E-01  0.80999202335E-01 -0.78216976638E-02  0.12944590867E+00  0.20509417660E-01 0.  0.
         14    1    1    2    0    0 -0.38809017258E-02  0.96590134067E-02  0.21415857426E-01  0.23811696443E-01  0.00000000000E+00 0.  1.
     999901    1    3    3    0    0  0.10243828261E+00 -0.90658215742E-01 -0.13594159762E-01  0.89067239488E+00  0.88000000000E+00 0.  1.
        -11    1    4    4    0    0 -0.34153372884E-01  0.40670842510E-01 -0.61912222464E-03  0.53115108426E-01  0.51100000000E-03 0.  1.
         11    1    4    4    0    0 -0.64404008000E-01  0.40328359826E-01 -0.72025754391E-02  0.76330800248E-01  0.51100000000E-03 0. -1.
</event>
<event>
 8    1  0.1128641E+005  0.1043930E+01  0.7957747E-01            NaN
         13   -1    0    0    0    0  0.00000000000E+00  0.00000000000E+00  0.74505805969E-08  0.10566000000E+00  0.10566000000E+00 0.  1.
     999900   -1    0    0    0    0 -0.00000000000E+00 -0.00000000000E+00 -0.74505805969E-08  0.93827000000E+00  0.93827000000E+00 0. -1.
     999902    2    1    2    0    0 -0.64880861812E-02  0.11422772034E-01 -0.19786401947E-01  0.10201797014E+01  0.10199032044E+01 0.  0.
     999903    2    3    3    0    0 -0.11293764673E+00 -0.49663171987E-01  0.35562535944E-01  0.12994012326E+00  0.19959934075E-01 0.  0.
         14    1    1    2    0    0  0.64880861812E-02 -0.11422772034E-01  0.19786401947E-01  0.23750298635E-01  0.00000000000E+00 0.  1.
     999901    1    3    3    0    0  0.10644956055E+00  0.61085944021E-01 -0.55348937891E-01  0.89023957811E+00  0.88000000000E+00 0. -1.
        -11    1    4    4    0    0 -0.59147177224E-01 -0.29294734102E-01  0.91203166302E-02  0.66633409909E-01  0.51100000000E-03 0.  1.
         11    1    4    4    0    0 -0.53790469511E-01 -0.20368437886E-01  0.26442219314E-01  0.63306713351E-01  0.51100000000E-03 0. -1.
</event>
<event>
 8    1  0.1128641E+005  0.1043930E+01  0.7957747E-01            NaN
         13   -1    0    0    0    0  0.00000000000E+00  0.00000000000E+00  0.74505805969E-08  0.10566000000E+00  0.10566000000E+00 0. -1.
     999900   -1    0    0    0    0 -0.00000000000E+00 -0.00000000000E+00 -0.74505805969E-08  0.93827000000E+00  0.93827000000E+00 0. -1.
     999902    2    1    2    0    0 -0.23252863693E-01 -0.41407313727E-02 -0.52829588227E-02  0.10197277071E+01  0.10194404572E+01 0.  0.
     999903    2    3    3    0    0  0.25312935233E-01 -0.82845005997E-02 -0.12592067854E+00  0.13016080854E+00  0.19402091517E-01 0.  0.
         14    1    1    2    0    0  0.23252863693E-01  0.41407313727E-02  0.52829588227E-02  0.24202292869E-01  0.00000000000E+00 0. -1.
     999901    1    3    3    0    0 -0.48565798926E-01  0.41437692270E-02  0.12063771972E+00  0.88956689859E+00  0.88000000000E+00 0.  1.
        -11    1    4    4    0    0  0.48286049008E-02 -0.11035321809E-01 -0.39342558829E-01  0.41148411986E-01  0.51100000000E-03 0. -1.
         11    1    4    4    0    0  0.20484330332E-01  0.27508212095E-02 -0.86578119712E-01  0.89012396554E-01  0.51100000000E-03 0.  1.
</event>
<event>
 8    1  0.1128641E+005  0.1043930E+01  0.7957747E-01            NaN
         13   -1    0    0    0    0  0.00000000000E+00  0.00000000000E+00  0.74505805969E-08  0.10566000000E+00  0.10566000000E+00 0.  1.
     999900   -1    0    0    0    0 -0.00000000000E+00 -0.00000000000E+00 -0.74505805969E-08  0.93827000000E+00  0.93827000000E+00 0. -1.
     999902    2    1    2    0    0 -0.17009245540E-01  0.14605862567E-01 -0.66747619908E-02  0.10205377341E+01  0.10202696059E+01 0.  0.
     999903    2    3    3    0    0  0.44664817512E-01  0.11740720110E+00 -0.35109623864E-01  0.13195439722E+00  0.19997011350E-01 0.  0.
         14    1    1    2    0    0  0.17009245540E-01 -0.14605862567E-01  0.66747619908E-02  0.23392265875E-01  0.00000000000E+00 0.  1.
     999901    1    3    3    0    0 -0.61674063052E-01 -0.10280133854E+00  0.28434861873E-01  0.88858333691E+00  0.88000000000E+00 0. -1.
        -11    1    4    4    0    0  0.26611471197E-02  0.20848745324E-01 -0.22172580218E-03  0.21025274527E-01  0.51100000000E-03 0.  1.
         11    1    4    4    0    0  0.42003670393E-01  0.96558455779E-01 -0.34887898062E-01  0.11092912269E+00  0.51100000000E-03 0. -1.
</event>
<event>
 8    1  0.1128641E+005  0.1043930E+01  0.7957747E-01            NaN
         13   -1    0    0    0    0  0.00000000000E+00  0.00000000000E+00  0.74505805969E-08  0.10566000000E+00  0.10566000000E+00 0. -1.
     999900   -1    0    0    0    0 -0.00000000000E+00 -0.00000000000E+00 -0.74505805969E-08  0.93827000000E+00  0.93827000000E+00 0. -1.
     999902    2    1    2    0    0 -0.34242965585E-02 -0.10675438025E-01  0.16440569064E-01  0.10240306760E+01  0.10238373124E+01 0.  0.
     999903    2    3    3    0    0 -0.58617432367E-01 -0.10641359256E+00  0.58268512027E-01  0.13613335465E+00  0.19422015767E-01 0.  0.
         14    1    1    2    0    0  0.34242965585E-02  0.10675438025E-01 -0.16440569064E-01  0.19899323986E-01  0.00000000000E+00 0.  1.
     999901    1    3    3    0    0  0.55193135808E-01  0.95738154530E-01 -0.41827942963E-01  0.88789732136E+00  0.88000000000E+00 0. -1.
        -11    1    4    4    0    0 -0.37706162752E-01 -0.51917934901E-01  0.24421127129E-01  0.68657696182E-01  0.51100000000E-03 0.  1.
         11    1    4    4    0    0 -0.20911269615E-01 -0.54495657655E-01  0.33847384898E-01  0.67475658467E-01  0.51100000000E-03 0. -1.
</event>
<event>
 8    1  0.1128641E+005  0.1043930E+01  0.7957747E-01            NaN
         13   -1    0    0    0    0  0.00000000000E+00  0.00000000000E+00  0.74505805969E-08  0.10566000000E+00  0.10566000000E+00 0.  1.
     999900   -1    0    0    0    0 -0.00000000000E+00 -0.00000000000E+00 -0.74505805969E-08  0.93827000000E+00  0.93827000000E+00 0. -1.
     999902    2    1    2    0    0 -0.16460214994E-01  0.14813085430E-01 -0.11120293645E-01  0.10191504296E+01  0.10188491405E+01 0.  0.
     999903    2    3    3    0    0  0.95136433594E-01 -0.56751705425E-01 -0.60743833238E-01  0.12783801136E+00  0.19520420214E-01 0.  0.
         14    1    1    2    0    0  0.16460214994E-01 -0.14813085430E-01  0.11120293645E-01  0.24779570382E-01  0.00000000000E+00 0.  1.
     999901    1    3    3    0    0 -0.11159664859E+00  0.71564790855E-01  0.49623539593E-01  0.89131241826E+00  0.88000000000E+00 0.  1.
        -11    1    4    4    0    0  0.63806050833E-01 -0.38257044414E-01 -0.50902376592E-01  0.90145031111E-01  0.51100000000E-03 0.  1.
         11    1    4    4    0    0  0.31330382761E-01 -0.18494661011E-01 -0.98414566460E-02  0.37692980245E-01  0.51100000000E-03 0. -1.
</event>
<event>
 7    1  0.1128641E+005  0.1043930E+01  0.7957747E-01            NaN
         13   -1    0    0    0    0  0.00000000000E+00  0.00000000000E+00  0.74505805969E-08  0.10566000000E+00  0.10566000000E+00 0. -1.
     999900   -1    0    0    0    0 -0.00000000000E+00 -0.00000000000E+00 -0.74505805969E-08  0.93827000000E+00  0.93827000000E+00 0. -1.
     999903    2    1    2    0    0  0.55698199153E-02  0.90121333825E-01  0.71902746393E-01  0.11720690752E+00  0.20361152406E-01 0.  0.
         14    1    1    2    0    0 -0.13078399444E-01  0.17964848025E-01 -0.32285625566E-01  0.39193646357E-01  0.00000000000E+00 0.  1.
     999901    1    1    2    0    0  0.75085795288E-02 -0.10808618185E+00 -0.39617120827E-01  0.88752944612E+00  0.88000000000E+00 0. -1.
        -11    1    3    3    0    0 -0.11941526801E-02  0.26997213633E-01  0.10844033023E-01  0.29122666735E-01  0.51100000000E-03 0. -1.
         11    1    3    3    0    0  0.67639725953E-02  0.63124120192E-01  0.61058713370E-01  0.88084240785E-01  0.51100000000E-03 0.  1.
</event>
<event>
 8    1  0.1128641E+005  0.1043930E+01  0.7957747E-01            NaN
         13   -1    0    0    0    0  0.00000000000E+00  0.00000000000E+00  0.74505805969E-08  0.10566000000E+00  0.10566000000E+00 0. -1.
     999900   -1    0    0    0    0 -0.00000000000E+00 -0.00000000000E+00 -0.74505805969E-08  0.93827000000E+00  0.93827000000E+00 0.  1.
     999902    2    1    2    0    0 -0.61429124128E-03  0.29330803908E-03 -0.23052841817E-01  0.10208671099E+01  0.10206065644E+01 0.  0.
     999903    2    3    3    0    0  0.48591745882E-01  0.49634739515E-01 -0.11236656032E+00  0.13360573283E+00  0.19987066601E-01 0.  0.
         14    1    1    2    0    0  0.61429124128E-03 -0.29330803908E-03  0.23052841817E-01  0.23062890088E-01  0.00000000000E+00 0. -1.
     999901    1    3    3    0    0 -0.49206037123E-01 -0.49341431476E-01  0.89313718507E-01  0.88726137708E+00  0.88000000000E+00 0. -1.
        -11    1    4    4    0    0  0.44472293132E-01  0.39887914685E-01 -0.10464083052E+00  0.12049396303E+00  0.51100000000E-03 0.  1.
         11    1    4    4    0    0  0.41194527498E-02  0.97468248303E-02 -0.77257298068E-02  0.13111769800E-01  0.51100000000E-03 0. -1.
</event>
<event>
 8    1  0.1128641E+005  0.1043930E+01  0.7957747E-01            NaN
         13   -1    0    0    0    0  0.00000000000E+00  0.00000000000E+00  0.74505805969E-08  0.10566000000E+00  0.10566000000E+00 0. -1.
     999900   -1    0    0    0    0 -0.00000000000E+00 -0.00000000000E+00 -0.74505805969E-08  0.93827000000E+00  0.93827000000E+00 0.  1.
     999902    2    1    2    0    0  0.10631886978E-01 -0.20896708143E-01  0.43650142768E-02  0.10200812520E+01  0.10198024308E+01 0.  0.
     999903    2    3    3    0    0  0.67850206444E-01  0.58767472162E-01 -0.91177458433E-01  0.12949229978E+00  0.19941426170E-01 0.  0.
         14    1    1    2    0    0 -0.10631886978E-01  0.20896708143E-01 -0.43650142768E-02  0.23848748009E-01  0.00000000000E+00 0. -1.
     999901    1    3    3    0    0 -0.57218319466E-01 -0.79664180305E-01  0.95542472710E-01  0.89058895221E+00  0.88000000000E+00 0. -1.
        -11    1    4    4    0    0  0.55883949261E-02  0.12197592031E-01 -0.19941954773E-01  0.24040675746E-01  0.51100000000E-03 0. -1.
         11    1    4    4    0    0  0.62261811518E-01  0.46569880131E-01 -0.71235503661E-01  0.10545162404E+00  0.51100000000E-03 0.  1.
</event>
<event>
 8    1  0.1128641E+005  0.1043930E+01  0.7957747E-01            NaN
         13   -1    0    0    0    0  0.00000000000E+00  0.00000000000E+00  0.74505805969E-08  0.10566000000E+00  0.10566000000E+00 0.  1.
     999900   -1    0    0    0    0 -0.00000000000E+00 -0.00000000000E+00 -0.74505805969E-08  0.93827000000E+00  0.93827000000E+00 0.  1.
     999902    2    1    2    0    0 -0.11200384829E-01  0.21802435486E-01 -0.26023401673E-02  0.10192811260E+01  0.10189830454E+01 0.  0.
     999903    2    3    3    0    0 -0.53491003910E-01  0.10914909966E+00  0.48913656783E-01  0.13244865361E+00  0.19372314428E-01 0.  0.
         14    1    1    2    0    0  0.11200384829E-01 -0.21802435486E-01  0.26023401673E-02  0.24648873966E-01  0.00000000000E+00 0. -1.
     999901    1    3    3    0    0  0.42290619081E-01 -0.87346664177E-01 -0.51515996951E-01  0.88683247242E+00  0.88000000000E+00 0.  1.
        -11    1    4    4    0    0 -0.15601888768E-01  0.52087717682E-01  0.25516558818E-01  0.60065840220E-01  0.51100000000E-03 0.  1.
         11    1    4    4    0    0 -0.37889115142E-01  0.57061381982E-01  0.23397097966E-01  0.72382813389E-01  0.51100000000E-03 0. -1.
</event>
<event>
 7    1  0.1128641E+005  0.1043930E+01  0.7957747E-01            NaN
         13   -1    0    0    0    0  0.00000000000E+00  0.00000000000E+00  0.74505805969E-08  0.10566000000E+00  0.10566000000E+00 0.  1.
     999900   -1    0    0    0    0 -0.00000000000E+00 -0.00000000000E+00 -0.74505805969E-08  0.93827000000E+00  0.93827000000E+00 0.  1.
     999903    2    1    2    0    0  0.19087953854E-01  0.64595330508E-01 -0.30273413182E-01  0.76568171094E-01  0.20231128818E-01 0.  0.
         14    1    1    2    0    0 -0.35375254960E-01  0.46055126357E-01 -0.50035352139E-01  0.76655200678E-01  0.00000000000E+00 0.  1.
     999901    1    1    2    0    0  0.16287301106E-01 -0.11065045687E+00  0.80308765321E-01  0.89070662823E+00  0.88000000000E+00 0.  1.
        -11    1    3    3    0    0  0.23065612787E-01  0.59197020970E-01 -0.26342272701E-01  0.68778530349E-01  0.51100000000E-03 0. -1.
         11    1    3    3    0    0 -0.39776589328E-02  0.53983095378E-02 -0.39311404807E-02  0.77896407446E-02  0.51100000000E-03 0.  1.
</event>
<event>
 8    1  0.1128641E+005  0.1043930E+01  0.7957747E-01            NaN
         13   -1    0    0    0    0  0.00000000000E+00  0.00000000000E+00  0.74505805969E-08  0.10566000000E+00  0.10566000000E+00 0. -1.
     999900   -1    0    0    0    0 -0.00000000000E+00 -0.00000000000E+00 -0.74505805969E-08  0.93827000000E+00  0.93827000000E+00 0. -1.
     999902    2    1    2    0    0  0.10209814848E-01  0.19741385810E-01 -0.72630705526E-03  0.10216928654E+01  0.10214508412E+01 0.  0.
     999903    2    3    3    0    0  0.72277957232E-01  0.40025523262E-01  0.10289034000E+00  0.13321083966E+00  0.18236231035E-01 0.  0.
         14    1    1    2    0    0 -0.10209814848E-01 -0.19741385810E-01  0.72630705526E-03  0.22237134592E-01  0.00000000000E+00 0. -1.
     999901    1    3    3    0    0 -0.62068142385E-01 -0.20284137453E-01 -0.10361664706E+00  0.88848202575E+00  0.88000000000E+00 0. -1.
        -11    1    4    4    0    0  0.41085841360E-01  0.17015821292E-01  0.66779159021E-01  0.80232797128E-01  0.51100000000E-03 0.  1.
         11    1    4    4    0    0  0.31192115873E-01  0.23009701971E-01  0.36111180984E-01  0.52978042531E-01  0.51100000000E-03 0. -1.
</event>
<event>
 8    1  0.1128641E+005  0.1043930E+01  0.7957747E-01            NaN
         13   -1    0    0    0    0  0.00000000000E+00  0.00000000000E+00  0.74505805969E-08  0.10566000000E+00  0.10566000000E+00 0.  1.
     999900   -1    0    0    0    0 -0.00000000000E+00 -0.00000000000E+00 -0.74505805969E-08  0.93827000000E+00  0.93827000000E+00 0.  1.
     999902    2    1    2    0    0  0.75173261336E-02  0.58556772886E-02  0.23575596495E-01  0.10185015140E+01  0.10181840336E+01 0.  0.
     999903    2    3    3    0    0  0.95978117572E-01  0.85615117840E-01 -0.45842115416E-02  0.13003099974E+00  0.18582207655E-01 0.  0.
         14    1    1    2    0    0 -0.75173261336E-02 -0.58556772886E-02 -0.23575596495E-01  0.25428485972E-01  0.00000000000E+00 0. -1.
     999901    1    3    3    0    0 -0.88460791439E-01 -0.79759440551E-01  0.28159808037E-01  0.88847051429E+00  0.88000000000E+00 0. -1.
        -11    1    4    4    0    0  0.70780671337E-01  0.52291422356E-01 -0.34811095166E-04  0.88003173919E-01  0.51100000000E-03 0. -1.
         11    1    4    4    0    0  0.25197446235E-01  0.33323695484E-01 -0.45494004464E-02  0.42027825816E-01  0.51100000000E-03 0.  1.
</event>
<event>
 8    1  0.1128641E+005  0.1043930E+01  0.7957747E-01            NaN
         13   -1    0    0    0    0  0.00000000000E+00  0.00000000000E+00  0.74505805969E-08  0.10566000000E+00  0.10566000000E+00 0. -1.
     999900   -1    0    0    0    0 -0.00000000000E+00 -0.00000000000E+00 -0.74505805969E-08  0.93827000000E+00  0.93827000000E+00 0. -1.
     999902    2    1    2    0    0 -0.11483797542E-01  0.23203953913E-02  0.20625965373E-01  0.10202088641E+01  0.10199330537E+01 0.  0.
     999903    2    3    3    0    0 -0.82189001464E-01  0.13885074284E-01 -0.96839569908E-01  0.12951749239E+00  0.21190830229E-01 0.  0.
         14    1    1    2    0    0  0.11483797542E-01 -0.23203953913E-02 -0.20625965373E-01  0.23721135899E-01  0.00000000000E+00 0.  1.
     999901    1    3    3    0    0  0.70705203922E-01 -0.11564678892E-01  0.11746553528E+00  0.89069137171E+00  0.88000000000E+00 0.  1.
        -11    1    4    4    0    0 -0.14147209997E-01 -0.48909068811E-02 -0.22268696708E-01  0.26836924095E-01  0.51100000000E-03 0. -1.
         11    1    4    4    0    0 -0.68041791468E-01  0.18775981165E-01 -0.74570873200E-01  0.10268056830E+00  0.51100000000E-03 0.  1.
</event>
<event>
 8    1  0.1128641E+005  0.1043930E+01  0.7957747E-01            NaN
         13   -1    0    0    0    0  0.00000000000E+00  0.00000000000E+00  0.74505805969E-08  0.10566000000E+00  0.10566000000E+00 0. -1.
     999900   -1    0    0    0    0 -0.00000000000E+00 -0.00000000000E+00 -0.74505805969E-08  0.93827000000E+00  0.93827000000E+00 0. -1.
     999902    2    1    2    0    0  0.38854506887E-02  0.22374302797E-01 -0.83394733219E-02  0.10197379979E+01  0.10194509950E+01 0.  0.
     999903    2    3    3    0    0 -0.67787186769E-01  0.65985321066E-01 -0.90095535345E-01  0.13197511197E+00  0.18736579291E-01 0.  0.
         14    1    1    2    0    0 -0.38854506887E-02 -0.22374302797E-01  0.83394733219E-02  0.24192002149E-01  0.00000000000E+00 0.  1.
     999901    1    3    3    0    0  0.71672637458E-01 -0.43611018269E-01  0.81756062023E-01  0.88776288588E+00  0.88000000000E+00 0.  1.
        -11    1    4    4    0    0 -0.50557860086E-01  0.56286512097E-01 -0.78601287883E-01  0.10909946030E+00  0.51100000000E-03 0.  1.
         11    1    4    4    0    0 -0.17229326683E-01  0.96988089692E-02 -0.11494247462E-01  0.22875651665E-01  0.51100000000E-03 0. -1.
</event>
<event>
 8    1  0.1128641E+005  0.1043930E+01  0.7957747E-01            NaN
         13   -1    0    0    0    0  0.00000000000E+00  0.00000000000E+00  0.74505805969E-08  0.10566000000E+00  0.10566000000E+00 0.  1.
     999900   -1    0    0    0    0 -0.00000000000E+00 -0.00000000000E+00 -0.74505805969E-08  0.93827000000E+00  0.93827000000E+00 0. -1.
     999902    2    1    2    0    0 -0.19323617171E-01  0.44258011528E-02  0.12298980316E-01  0.10206007305E+01  0.10203340612E+01 0.  0.
     999903    2    3    3    0    0 -0.28927060457E-01  0.91535610080E-01  0.89622945507E-01  0.13287366634E+00  0.20189009523E-01 0.  0.
         14    1    1    2    0    0  0.19323617171E-01 -0.44258011528E-02 -0.12298980316E-01  0.23329269453E-01  0.00000000000E+00 0.  1.
     999901    1    3    3    0    0  0.96034432858E-02 -0.87109808927E-01 -0.77323965191E-01  0.88772706421E+00  0.88000000000E+00 0. -1.
        -11    1    4    4    0    0 -0.29558760829E-01  0.63913807998E-01  0.62557378633E-01  0.94193322146E-01  0.51100000000E-03 0. -1.
         11    1    4    4    0    0  0.63170037218E-03  0.27621802082E-01  0.27065566874E-01  0.38680344192E-01  0.51100000000E-03 0.  1.
</event>
<event>
 8    1  0.1128641E+005  0.1043930E+01  0.7957747E-01            NaN
         13   -1    0    0    0    0  0.00000000000E+00  0.00000000000E+00  0.74505805969E-08  0.10566000000E+00  0.10566000000E+00 0. -1.
     999900   -1    0    0    0    0 -0.00000000000E+00 -0.00000000000E+00 -0.74505805969E-08  0.93827000000E+00  0.93827000000E+00 0.  1.
     999902    2    1    2    0    0 -0.95619485179E-02 -0.27323636193E-02 -0.21782420098E-01  0.10199848440E+01  0.10197037371E+01 0.  0.
     999903    2    3    3    0    0 -0.81821198540E-01  0.79046417148E-01  0.58943159104E-01  0.12957719167E+00  0.19310826009E-01 0.  0.
         14    1    1    2    0    0  0.95619485179E-02  0.27323636193E-02  0.21782420098E-01  0.23945155997E-01  0.00000000000E+00 0. -1.
     999901    1    3    3    0    0  0.72259250022E-01 -0.81778780767E-01 -0.80725579202E-01  0.89040765233E+00  0.88000000000E+00 0.  1.
        -11    1    4    4    0    0 -0.47629955667E-01  0.57894606775E-01  0.34559628964E-01  0.82553178289E-01  0.51100000000E-03 0. -1.
         11    1    4    4    0    0 -0.34191242873E-01  0.21151810372E-01  0.24383530140E-01  0.47024013379E-01  0.51100000000E-03 0.  1.
</event>
<event>
 8    1  0.1128641E+005  0.1043930E+01  0.7957747E-01            NaN
         13   -1    0    0    0    0  0.00000000000E+00  0.00000000000E+00  0.74505805969E-08  0.10566000000E+00  0.10566000000E+00 0.  1.
     999900   -1    0    0    0    0 -0.00000000000E+00 -0.00000000000E+00 -0.74505805969E-08  0.93827000000E+00  0.93827000000E+00 0. -1.
     999902    2    1    2    0    0  0.65378885561E-02 -0.12626560315E-01 -0.18409993749E-01  0.10206684033E+01  0.10204032965E+01 0.  0.
     999903    2    3    3    0    0 -0.20368299655E-03  0.10075518136E+00 -0.81561831636E-01  0.13112412515E+00  0.19737166940E-01 0.  0.
         14    1    1    2    0    0 -0.65378885561E-02  0.12626560315E-01  0.18409993749E-01  0.23261596720E-01  0.00000000000E+00 0.  1.
     999901    1    3    3    0    0  0.67415715527E-02 -0.11338174167E+00  0.63151837888E-01  0.88954427813E+00  0.88000000000E+00 0.  1.
        -11    1    4    4    0    0 -0.65312420606E-02  0.57629517223E-01 -0.55832039353E-01  0.80506497362E-01  0.51100000000E-03 0.  1.
         11    1    4    4    0    0  0.63275590641E-02  0.43125664132E-01 -0.25729792284E-01  0.50617627784E-01  0.51100000000E-03 0. -1.
</event>
<event>
 8    1  0.1128641E+005  0.1043930E+01  0.7957747E-01            NaN
         13   -1    0    0    0    0  0.00000000000E+00  0.00000000000E+00  0.74505805969E-08  0.10566000000E+00  0.10566000000E+00 0.  1.
     999900   -1    0    0    0    0 -0.00000000000E+00 -0.00000000000E+00 -0.74505805969E-08  0.93827000000E+00  0.93827000000E+00 0.  1.
     999902    2    1    2    0    0 -0.44604861321E-02  0.22405641117E-01  0.56428005864E-02  0.10203981091E+01  0.10201267329E+01 0.  0.
     999903    2    3    3    0    0  0.10123857155E+00  0.54496433745E-01  0.60469451212E-01  0.13179917180E+00  0.22256628155E-01 0.  0.
         14    1    1    2    0    0  0.44604861321E-02 -0.22405641117E-01 -0.56428005864E-02  0.23531890890E-01  0.00000000000E+00 0. -1.
     999901    1    3    3    0    0 -0.10569905768E+00 -0.32090792628E-01 -0.54826650625E-01  0.88859893731E+00  0.88000000000E+00 0.  1.
        -11    1    4    4    0    0  0.31062068311E-01  0.28148636774E-01  0.25641322685E-01  0.49142002299E-01  0.51100000000E-03 0. -1.
         11    1    4    4    0    0  0.70176503241E-01  0.26347796972E-01  0.34828128527E-01  0.82657169502E-01  0.51100000000E-03 0.  1.
</event>
<event>
 8    1  0.1128641E+005  0.1043930E+01  0.7957747E-01            NaN
         13   -1    0    0    0    0  0.00000000000E+00  0.00000000000E+00  0.74505805969E-08  0.10566000000E+00  0.10566000000E+00 0. -1.
     999900   -1    0    0    0    0 -0.00000000000E+00 -0.00000000000E+00 -0.74505805969E-08  0.93827000000E+00  0.93827000000E+00 0.  1.
     999902    2    1    2    0    0 -0.31935537054E-02 -0.14568444515E-02  0.23076645208E-01  0.10205879192E+01  0.10203209535E+01 0.  0.
     999903    2    3    3    0    0  0.11420202881E+00 -0.58434127100E-01  0.15393432095E-01  0.13093227500E+00  0.21205006269E-01 0.  0.
         14    1    1    2    0    0  0.31935537054E-02  0.14568444515E-02 -0.23076645208E-01  0.23342080779E-01  0.00000000000E+00 0.  1.
     999901    1    3    3    0    0 -0.11739558251E+00  0.56977282649E-01  0.76832131137E-02  0.88965564422E+00  0.88000000000E+00 0. -1.
        -11    1    4    4    0    0  0.70587843432E-01 -0.25892672486E-01  0.14092532744E-01  0.76497939377E-01  0.51100000000E-03 0. -1.
         11    1    4    4    0    0  0.43614185377E-01 -0.32541454615E-01  0.13008993509E-02  0.54434335622E-01  0.51100000000E-03 0.  1.
</event>
<event>
 8    1  0.1128641E+005  0.1043930E+01  0.7957747E-01            NaN
         13   -1    0    0    0    0  0.00000000000E+00  0.00000000000E+00  0.74505805969E-08  0.10566000000E+00  0.10566000000E+00 0. -1.
     999900   -1    0    0    0    0 -0.00000000000E+00 -0.00000000000E+00 -0.74505805969E-08  0.93827000000E+00  0.93827000000E+00 0. -1.
     999902    2    1    2    0    0 -0.56476424957E-02  0.21305337195E-01 -0.11267093107E-01  0.10191759974E+01  0.10188753373E+01 0.  0.
     999903    2    3    3    0    0 -0.70373169436E-02  0.12983703330E+00  0.13947252782E-01  0.13214903979E+00  0.19017460663E-01 0.  0.
         14    1    1    2    0    0  0.56476424957E-02 -0.21305337195E-01  0.11267093107E-01  0.24754002623E-01  0.00000000000E+00 0. -1.
     999901    1    3    3    0    0  0.13896744479E-02 -0.10853169611E+00 -0.25214345890E-01  0.88702695759E+00  0.88000000000E+00 0. -1.
        -11    1    4    4    0    0  0.86215032886E-04  0.40716328693E-01  0.12976682051E-01  0.42737363668E-01  0.51100000000E-03 0. -1.
         11    1    4    4    0    0 -0.71235319765E-02  0.89120704608E-01  0.97057073108E-03  0.89411676118E-01  0.51100000000E-03 0.  1.
</event>
<event>
 8    1  0.1128641E+005  0.1043930E+01  0.7957747E-01            NaN
         13   -1    0    0    0    0  0.00000000000E+00  0.00000000000E+00  0.74505805969E-08  0.10566000000E+00  0.10566000000E+00 0. -1.
     999900   -1    0    0    0    0 -0.00000000000E+00 -0.00000000000E+00 -0.74505805969E-08  0.93827000000E+00  0.93827000000E+00 0. -1.
     999902    2    1    2    0    0 -0.66181399421E-02 -0.20210192893E-01 -0.12470731388E-01  0.10192769918E+01  0.10189788100E+01 0.  0.
     999903    2    3    3    0    0  0.43038995273E-01  0.64971680396E-01  0.98162696181E-01  0.12688608085E+00  0.19760774875E-01 0.  0.
         14    1    1    2    0    0  0.66181399421E-02  0.20210192893E-01  0.12470731388E-01  0.24653008223E-01  0.00000000000E+00 0. -1.
     999901    1    3    3    0    0 -0.49657135215E-01 -0.85181873289E-01 -0.11063342757E+00  0.89239091093E+00  0.88000000000E+00 0. -1.
        -11    1    4    4    0    0  0.36489663144E-01  0.39324802563E-01  0.70559426617E-01  0.88638757993E-01  0.51100000000E-03 0. -1.
         11    1    4    4    0    0  0.65493321295E-02  0.25646877833E-01  0.27603269564E-01  0.38247322855E-01  0.51100000000E-03 0.  1.
</event>
<event>
 8    1  0.1128641E+005  0.1043930E+01  0.7957747E-01            NaN
         13   -1    0    0    0    0  0.00000000000E+00  0.00000000000E+00  0.74505805969E-08  0.10566000000E+00  0.10566000000E+00 0. -1.
     999900   -1    0    0    0    0 -0.00000000000E+00 -0.00000000000E+00 -0.74505805969E-08  0.93827000000E+00  0.93827000000E+00 0. -1.
     999902    2    1    2    0    0  0.13834220271E-01 -0.41476829097E-03 -0.19489459409E-01  0.10200260942E+01  0.10197459665E+01 0.  0.
     999903    2    3    3    0    0 -0.21744349906E-01 -0.10545484867E+00  0.67735482569E-01  0.12878682016E+00  0.20109887776E-01 0.  0.
         14    1    1    2    0    0 -0.13834220271E-01  0.41476829097E-03  0.19489459409E-01  0.23903905775E-01  0.00000000000E+00 0. -1.
     999901    1    3    3    0    0  0.35578570177E-01  0.10504008038E+00 -0.87224941978E-01  0.89123927407E+00  0.88000000000E+00 0. -1.
        -11    1    4    4    0    0 -0.22351464519E-02 -0.48269967644E-01  0.22493607018E-01  0.53302993665E-01  0.51100000000E-03 0.  1.
         11    1    4    4    0    0 -0.19509203454E-01 -0.57184881024E-01  0.45241875551E-01  0.75483826490E-01  0.51100000000E-03 0. -1.
</event>
<event>
 8    1  0.1128641E+005  0.1043930E+01  0.7957747E-01            NaN
         13   -1    0    0    0    0  0.00000000000E+00  0.00000000000E+00  0.74505805969E-08  0.10566000000E+00  0.10566000000E+00 0. -1.
     999900   -1    0    0    0    0 -0.00000000000E+00 -0.00000000000E+00 -0.74505805969E-08  0.93827000000E+00  0.93827000000E+00 0.  1.
     999902    2    1    2    0    0 -0.14202414681E-01  0.18425235850E-01 -0.82497841715E-03  0.10206517164E+01  0.10203862248E+01 0.  0.
     999903    2    3    3    0    0 -0.10661761320E-01  0.75368670991E-01  0.10620154267E+00  0.13233321086E+00  0.20957130312E-01 0.  0.
         14    1    1    2    0    0  0.14202414681E-01 -0.18425235850E-01  0.82497841715E-03  0.23278283620E-01  0.00000000000E+00 0.  1.
     999901    1    3    3    0    0 -0.35406533610E-02 -0.56943435141E-01 -0.10702652108E+00  0.88831850552E+00  0.88000000000E+00 0.  1.
        -11    1    4    4    0    0 -0.87077054982E-02  0.99856592146E-02  0.22312435446E-01  0.25954641619E-01  0.51100000000E-03 0. -1.
         11    1    4    4    0    0 -0.19540558218E-02  0.65383011777E-01  0.83889107219E-01  0.10637856924E+00  0.51100000000E-03 0.  1.
</event>
<event>
 8    1  0.1128641E+005  0.1043930E+01  0.7957747E-01            NaN
         13   -1    0    0    0    0  0.00000000000E+00  0.00000000000E+00  0.74505805969E-08  0.10566000000E+00  0.10566000000E+00 0.  1.
     999900   -1    0    0    0    0 -0.00000000000E+00 -0.00000000000E+00 -0.74505805969E-08  0.93827000000E+00  0.93827000000E+00 0. -1.
     999902    2    1    2    0    0 -0.11819234675E-01  0.18737393585E-01 -0.92511850552E-02  0.10199223210E+01  0.10196397267E+01 0.  0.
     999903    2    3    3    0    0  0.11278183238E+00 -0.24703921566E-01 -0.53222339567E-01  0.12899806147E+00  0.21859940012E-01 0.  0.
         14    1    1    2    0    0  0.11819234675E-01 -0.18737393585E-01  0.92511850552E-02  0.24007679013E-01  0.00000000000E+00 0.  1.
     999901    1    3    3    0    0 -0.12460106706E+00  0.43441315151E-01  0.43971154512E-01  0.89092425952E+00  0.88000000000E+00 0.  1.
        -11    1    4    4    0    0  0.46641621873E-01 -0.23497858661E-02 -0.29594788854E-01  0.55290822321E-01  0.51100000000E-03 0.  1.
         11    1    4    4    0    0  0.66140210507E-01 -0.22354135700E-01 -0.23627550713E-01  0.73707239146E-01  0.51100000000E-03 0. -1.
</event>
<event>
 8    1  0.1128641E+005  0.1043930E+01  0.7957747E-01            NaN
         13   -1    0    0    0    0  0.00000000000E+00  0.00000000000E+00  0.74505805969E-08  0.10566000000E+00  0.10566000000E+00 0. -1.
     999900   -1    0    0    0    0 -0.00000000000E+00 -0.00000000000E+00 -0.74505805969E-08  0.93827000000E+00  0.93827000000E+00 0. -1.
     999902    2    1    2    0    0 -0.54872359173E-02 -0.10265673416E-01 -0.20021773437E-01  0.10207704400E+01  0.10205076805E+01 0.  0.
     999903    2    3    3    0    0 -0.99464677780E-01  0.55221087112E-01 -0.63763683614E-01  0.13226966334E+00  0.22065038063E-01 0.  0.
         14    1    1    2    0    0  0.54872359173E-02  0.10265673416E-01  0.20021773437E-01  0.23159560019E-01  0.00000000000E+00 0. -1.
     999901    1    3    3    0    0  0.93977441863E-01 -0.65486760528E-01  0.43741910177E-01  0.88850077664E+00  0.88000000000E+00 0. -1.
        -11    1    4    4    0    0 -0.15787886605E-01  0.99112518052E-02 -0.18429472533E-02  0.18738939441E-01  0.51100000000E-03 0.  1.
         11    1    4    4    0    0 -0.83676791175E-01  0.45309835307E-01 -0.61920736361E-01  0.11353072390E+00  0.51100000000E-03 0. -1.
</event>
<event>
 8    1  0.1128641E+005  0.1043930E+01  0.7957747E-01            NaN
         13   -1    0    0    0    0  0.00000000000E+00  0.00000000000E+00  0.74505805969E-08  0.10566000000E+00  0.10566000000E+00 0. -1.
     999900   -1    0    0    0    0 -0.00000000000E+00 -0.00000000000E+00 -0.74505805969E-08  0.93827000000E+00  0.93827000000E+00 0. -1.
     999902    2    1    2    0    0  0.85905873944E-02 -0.22236469478E-01 -0.95374727951E-02  0.10182546781E+01  0.10179309246E+01 0.  0.
     999903    2    3    3    0    0  0.98659132839E-01  0.77963805342E-01  0.10202980203E-01  0.12778170074E+00  0.20299822725E-01 0.  0.
         14    1    1    2    0    0 -0.85905873944E-02  0.22236469478E-01  0.95374727951E-02  0.25675321886E-01  0.00000000000E+00 0. -1.
     999901    1    3    3    0    0 -0.90068545444E-01 -0.10020027482E+00 -0.19740452999E-01  0.89047297738E+00  0.88000000000E+00 0. -1.
        -11    1    4    4    0    0  0.61655914278E-02  0.12673589481E-01  0.22965256202E-02  0.14288790674E-01  0.51100000000E-03 0. -1.
         11    1    4    4    0    0  0.92493541411E-01  0.65290215861E-01  0.79064545833E-02  0.11349291006E+00  0.51100000000E-03 0.  1.
</event>
<event>
 8    1  0.1128641E+005  0.1043930E+01  0.7957747E-01            NaN
         13   -1    0    0    0    0  0.00000000000E+00  0.00000000000E+00  0.74505805969E-08  0.10566000000E+00  0.10566000000E+00 0.  1.
     999900   -1    0    0    0    0 -0.00000000000E+00 -0.00000000000E+00 -0.74505805969E-08  0.93827000000E+00  0.93827000000E+00 0. -1.
     999902    2    1    2    0    0 -0.96649223530E-02 -0.78641020614E-03 -0.21381460501E-01  0.10204524359E+01  0.10201823258E+01 0.  0.
     999903    2    3    3    0    0 -0.28077845400E-02  0.10443721331E+00  0.73390911589E-01  0.12910467331E+00  0.19151386070E-01 0.  0.
         14    1    1    2    0    0  0.96649223530E-02  0.78641020614E-03  0.21381460501E-01  0.23477564146E-01  0.00000000000E+00 0.  1.
     999901    1    3    3    0    0 -0.68571378130E-02 -0.10522362351E+00 -0.94772372090E-01  0.89134776255E+00  0.88000000000E+00 0. -1.
        -11    1    4    4    0    0  0.72128005784E-02  0.21858018135E-01  0.16488749634E-01  0.28318499863E-01  0.51100000000E-03 0. -1.
         11    1    4    4    0    0 -0.10020585118E-01  0.82579195173E-01  0.56902161955E-01  0.10078617344E+00  0.51100000000E-03 0.  1.
</event>
<event>
 8    1  0.1128641E+005  0.1043930E+01  0.7957747E-01            NaN
         13   -1    0    0    0    0  0.00000000000E+00  0.00000000000E+00  0.74505805969E-08  0.10566000000E+00  0.10566000000E+00 0. -1.
     999900   -1    0    0    0    0 -0.00000000000E+00 -0.00000000000E+00 -0.74505805969E-08  0.93827000000E+00  0.93827000000E+00 0.  1.
     999902    2    1    2    0    0  0.18931261628E-01  0.13080447851E-01  0.91063003850E-02  0.10191829701E+01  0.10188824815E+01 0.  0.
     999903    2    3    3    0    0 -0.61414806144E-01  0.35724452179E-01  0.10678390775E+00  0.12985223492E+00  0.20267833190E-01 0.  0.
         14    1    1    2    0    0 -0.18931261628E-01 -0.13080447851E-01 -0.91063003850E-02  0.24747029913E-01  0.00000000000E+00 0. -1.
     999901    1    3    3    0    0  0.80346067771E-01 -0.22644004328E-01 -0.97677607361E-01  0.88933073517E+00  0.88000000000E+00 0. -1.
        -11    1    4    4    0    0 -0.49149942769E-01  0.35808645912E-01  0.80929548229E-01  0.10123156076E+00  0.51100000000E-03 0.  1.
         11    1    4    4    0    0 -0.12264863374E-01 -0.84193732847E-04  0.25854359517E-01  0.28620674157E-01  0.51100000000E-03 0. -1.
</event>
<event>
 8    1  0.1128641E+005  0.1043930E+01  0.7957747E-01            NaN
         13   -1    0    0    0    0  0.00000000000E+00  0.00000000000E+00  0.74505805969E-08  0.10566000000E+00  0.10566000000E+00 0. -1.
     999900   -1    0    0    0    0 -0.00000000000E+00 -0.00000000000E+00 -0.74505805969E-08  0.93827000000E+00  0.93827000000E+00 0. -1.
     999902    2    1    2    0    0  0.59201178894E-02 -0.20520471899E-02  0.23073229088E-01  0.10200211608E+01  0.10197409160E+01 0.  0.
     999903    2    3    3    0    0  0.94383552395E-01  0.70338319429E-02 -0.85658351655E-01  0.12888094222E+00  0.17754275656E-01 0.  0.
         14    1    1    2    0    0 -0.59201178894E-02  0.20520471899E-02 -0.23073229088E-01  0.23908839245E-01  0.00000000000E+00 0.  1.
     999901    1    3    3    0    0 -0.88463434505E-01 -0.90858791328E-02  0.10873158074E+00  0.89114021854E+00  0.88000000000E+00 0.  1.
        -11    1    4    4    0    0  0.74328432506E-01  0.12763655100E-01 -0.68001316493E-01  0.10154834778E+00  0.51100000000E-03 0. -1.
         11    1    4    4    0    0  0.20055119889E-01 -0.57298231568E-02 -0.17657035163E-01  0.27332594442E-01  0.51100000000E-03 0.  1.
</event>
<event>
 8    1  0.1128641E+005  0.1043930E+01  0.7957747E-01            NaN
         13   -1    0    0    0    0  0.00000000000E+00  0.00000000000E+00  0.74505805969E-08  0.10566000000E+00  0.10566000000E+00 0. -1.
     999900   -1    0    0    0    0 -0.00000000000E+00 -0.00000000000E+00 -0.74505805969E-08  0.93827000000E+00  0.93827000000E+00 0.  1.
     999902    2    1    2    0    0 -0.51986750266E-02  0.20677566168E-01  0.11051652487E-01  0.10199148592E+01  0.10196320871E+01 0.  0.
     999903    2    3    3    0    0  0.11730134443E+00  0.35238271709E-01  0.41189688636E-01  0.13079924797E+00  0.20261086394E-01 0.  0.
         14    1    1    2    0    0  0.51986750266E-02 -0.20677566168E-01 -0.11051652487E-01  0.24015140794E-01  0.00000000000E+00 0.  1.
     999901    1    3    3    0    0 -0.12250001946E+00 -0.14560705541E-01 -0.30138036149E-01  0.88911561123E+00  0.88000000000E+00 0.  1.
        -11    1    4    4    0    0  0.98773010385E-02  0.56450163814E-02 -0.14758200085E-02  0.11483311868E-01  0.51100000000E-03 0.  1.
         11    1    4    4    0    0  0.10742404339E+00  0.29593255328E-01  0.42665508644E-01  0.11931593611E+00  0.51100000000E-03 0. -1.
</event>
<event>
 8    1  0.1255919E+005  0.1043930E+01  0.7957747E-01            NaN
         13   -1    0    0    0    0  0.00000000000E+00  0.00000000000E+00  0.74505805969E-08  0.10566000000E+00  0.10566000000E+00 0. -1.
     999900   -1    0    0    0    0 -0.00000000000E+00 -0.00000000000E+00 -0.74505805969E-08  0.93827000000E+00  0.93827000000E+00 0. -1.
     999902    2    1    2    0    0 -0.20539942045E-01 -0.12367049071E-01 -0.69523206142E-03  0.10199442444E+01  0.10196621721E+01 0.  0.
     999903    2    3    3    0    0 -0.12459607751E+00  0.41223170404E-01  0.96551276133E-02  0.13213417416E+00  0.11945132240E-01 0.  0.
         14    1    1    2    0    0  0.20539942045E-01  0.12367049071E-01  0.69523206142E-03  0.23985755556E-01  0.00000000000E+00 0.  1.
     999901    1    3    3    0    0  0.10405613546E+00 -0.53590219475E-01 -0.10350359675E-01  0.88781007028E+00  0.88000000000E+00 0. -1.
        -11    1    4    4    0    0 -0.69822834478E-01  0.25518706865E-01  0.10909349378E-01  0.75137924109E-01  0.51100000000E-03 0.  1.
         11    1    4    4    0    0 -0.54773243028E-01  0.15704463540E-01 -0.12542217648E-02  0.56996250053E-01  0.51100000000E-03 0. -1.
</event>
<event>
 8    1  0.1128641E+005  0.1043930E+01  0.7957747E-01            NaN
         13   -1    0    0    0    0  0.00000000000E+00  0.00000000000E+00  0.74505805969E-08  0.10566000000E+00  0.10566000000E+00 0.  1.
     999900   -1    0    0    0    0 -0.00000000000E+00 -0.00000000000E+00 -0.74505805969E-08  0.93827000000E+00  0.93827000000E+00 0.  1.
     999902    2    1    2    0    0 -0.11735522985E-02 -0.49058743436E-02 -0.23765611582E-01  0.10196349568E+01  0.10193454744E+01 0.  0.
     999903    2    3    3    0    0  0.10008269517E+00 -0.69335160560E-01  0.38205096632E-01  0.12932920641E+00  0.21035775743E-01 0.  0.
         14    1    1    2    0    0  0.11735522985E-02  0.49058743436E-02  0.23765611582E-01  0.24295043156E-01  0.00000000000E+00 0.  1.
     999901    1    3    3    0    0 -0.10125624747E+00  0.64429286217E-01 -0.61970708214E-01  0.89030575043E+00  0.88000000000E+00 0. -1.
        -11    1    4    4    0    0  0.66492127789E-01 -0.47890298221E-01  0.35733535567E-01  0.89397038020E-01  0.51100000000E-03 0. -1.
         11    1    4    4    0    0  0.33590567377E-01 -0.21444862339E-01  0.24715610647E-02  0.39932168393E-01  0.51100000000E-03 0.  1.
</event>
<event>
 8    1  0.1128641E+005  0.1043930E+01  0.7957747E-01            NaN
         13   -1    0    0    0    0  0.00000000000E+00  0.00000000000E+00  0.74505805969E-08  0.10566000000E+00  0.10566000000E+00 0.  1.
     999900   -1    0    0    0    0 -0.00000000000E+00 -0.00000000000E+00 -0.74505805969E-08  0.93827000000E+00  0.93827000000E+00 0.  1.
     999902    2    1    2    0    0 -0.16556311679E-01  0.66883185800E-02  0.21145257391E-01  0.10162538917E+01  0.10158769637E+01 0.  0.
     999903    2    3    3    0    0 -0.43550328159E-01 -0.69195543171E-01 -0.91685876464E-01  0.12540154579E+00  0.25191138649E-01 0.  0.
         14    1    1    2    0    0  0.16556311679E-01 -0.66883185800E-02 -0.21145257391E-01  0.27676108324E-01  0.00000000000E+00 0. -1.
     999901    1    3    3    0    0  0.26994016480E-01  0.75883861751E-01  0.11283113386E+00  0.89085234588E+00  0.88000000000E+00 0. -1.
        -11    1    4    4    0    0 -0.14934328644E-01 -0.44944178688E-01 -0.58892535857E-01  0.75575163054E-01  0.51100000000E-03 0. -1.
         11    1    4    4    0    0 -0.28615999515E-01 -0.24251364483E-01 -0.32793340607E-01  0.49826382738E-01  0.51100000000E-03 0.  1.
</event>
<event>
 8    1  0.1128641E+005  0.1043930E+01  0.7957747E-01            NaN
         13   -1    0    0    0    0  0.00000000000E+00  0.00000000000E+00  0.74505805969E-08  0.10566000000E+00  0.10566000000E+00 0.  1.
     999900   -1    0    0    0    0 -0.00000000000E+00 -0.00000000000E+00 -0.74505805969E-08  0.93827000000E+00  0.93827000000E+00 0.  1.
     999902    2    1    2    0    0  0.31932951235E-03 -0.23309032214E-01  0.44227789157E-02  0.10202029284E+01  0.10199269783E+01 0.  0.
     999903    2    3    3    0    0  0.41877472019E-01 -0.36228349477E-01  0.11778204566E+00  0.13186497956E+00  0.21202513685E-01 0.  0.
         14    1    1    2    0    0 -0.31932951235E-03  0.23309032214E-01 -0.44227789157E-02  0.23727071615E-01  0.00000000000E+00 0. -1.
     999901    1    3    3    0    0 -0.41558142507E-01  0.12919317264E-01 -0.11335926674E+00  0.88833794883E+00  0.88000000000E+00 0.  1.
        -11    1    4    4    0    0  0.23642190438E-01 -0.24088827787E-01  0.47692363155E-01  0.58429850395E-01  0.51100000000E-03 0. -1.
         11    1    4    4    0    0  0.18235281582E-01 -0.12139521690E-01  0.70089682502E-01  0.73435129165E-01  0.51100000000E-03 0.  1.
</event>
<event>
 8    1  0.1128641E+005  0.1043930E+01  0.7957747E-01            NaN
         13   -1    0    0    0    0  0.00000000000E+00  0.00000000000E+00  0.74505805969E-08  0.10566000000E+00  0.10566000000E+00 0.  1.
     999900   -1    0    0    0    0 -0.00000000000E+00 -0.00000000000E+00 -0.74505805969E-08  0.93827000000E+00  0.93827000000E+00 0.  1.
     999902    2    1    2    0    0  0.21226403593E-01 -0.11688693852E-02 -0.10885710687E-01  0.10200464248E+01  0.10197667791E+01 0.  0.
     999903    2    3    3    0    0 -0.70112400011E-01 -0.35537189841E-01  0.99035610391E-01  0.12785437415E+00  0.18974940485E-01 0.  0.
         14    1    1    2    0    0 -0.21226403593E-01  0.11688693852E-02  0.10885710687E-01  0.23883575157E-01  0.00000000000E+00 0.  1.
     999901    1    3    3    0    0  0.91338803603E-01  0.34368320456E-01 -0.10992132108E+00  0.89219205069E+00  0.88000000000E+00 0.  1.
        -11    1    4    4    0    0 -0.18898252463E-01 -0.77688846327E-03  0.21457813684E-01  0.28608502074E-01  0.51100000000E-03 0. -1.
         11    1    4    4    0    0 -0.51214147548E-01 -0.34760301378E-01  0.77577796706E-01  0.99245872074E-01  0.51100000000E-03 0.  1.
</event>
<event>
 8    1  0.1128641E+005  0.1043930E+01  0.7957747E-01            NaN
         13   -1    0    0    0    0  0.00000000000E+00  0.00000000000E+00  0.74505805969E-08  0.10566000000E+00  0.10566000000E+00 0.  1.
     999900   -1    0    0    0    0 -0.00000000000E+00 -0.00000000000E+00 -0.74505805969E-08  0.93827000000E+00  0.93827000000E+00 0.  1.
     999902    2    1    2    0    0  0.87536053358E-02 -0.10556426375E-01 -0.19263686198E-01  0.10202835764E+01  0.10200095210E+01 0.  0.
     999903    2    3    3    0    0  0.50691417899E-01  0.11717811268E+00 -0.14547266893E-01  0.13006049355E+00  0.20094254575E-01 0.  0.
         14    1    1    2    0    0 -0.87536053358E-02  0.10556426375E-01  0.19263686198E-01  0.23646423622E-01  0.00000000000E+00 0.  1.
     999901    1    3    3    0    0 -0.41937812563E-01 -0.12773453906E+00 -0.47164193052E-02  0.89022308283E+00  0.88000000000E+00 0. -1.
        -11    1    4    4    0    0  0.42707383091E-01  0.10577568500E+00 -0.71697266745E-02  0.11429821612E+00  0.51100000000E-03 0. -1.
         11    1    4    4    0    0  0.79840348081E-02  0.11402427689E-01 -0.73775402184E-02  0.15762277427E-01  0.51100000000E-03 0.  1.
</event>
<event>
 8    1  0.1128641E+005  0.1043930E+01  0.7957747E-01            NaN
         13   -1    0    0    0    0  0.00000000000E+00  0.00000000000E+00  0.74505805969E-08  0.10566000000E+00  0.10566000000E+00 0.  1.
     999900   -1    0    0    0    0 -0.00000000000E+00 -0.00000000000E+00 -0.74505805969E-08  0.93827000000E+00  0.93827000000E+00 0. -1.
     999902    2    1    2    0    0  0.48421099919E-02  0.91406560179E-02  0.20876923938E-01  0.10206309963E+01  0.10203650263E+01 0.  0.
     999903    2    3    3    0    0 -0.11473685825E+00  0.13352906205E-02 -0.55922897153E-01  0.12919492683E+00  0.19940638163E-01 0.  0.
         14    1    1    2    0    0 -0.48421099919E-02 -0.91406560179E-02 -0.20876923938E-01  0.23299003728E-01  0.00000000000E+00 0.  1.
     999901    1    3    3    0    0  0.11957896825E+00  0.78053653974E-02  0.76799821091E-01  0.89143606944E+00  0.88000000000E+00 0.  1.
        -11    1    4    4    0    0 -0.45782118133E-01 -0.27124034188E-02 -0.12255430376E-01  0.47474373801E-01  0.51100000000E-03 0.  1.
         11    1    4    4    0    0 -0.68954740121E-01  0.40476940393E-02 -0.43667466777E-01  0.81720553032E-01  0.51100000000E-03 0. -1.
</event>
<event>
 8    1  0.1128641E+005  0.1043930E+01  0.7957747E-01            NaN
         13   -1    0    0    0    0  0.00000000000E+00  0.00000000000E+00  0.74505805969E-08  0.10566000000E+00  0.10566000000E+00 0.  1.
     999900   -1    0    0    0    0 -0.00000000000E+00 -0.00000000000E+00 -0.74505805969E-08  0.93827000000E+00  0.93827000000E+00 0. -1.
     999902    2    1    2    0    0  0.14604857003E-01 -0.18007443852E-01 -0.22312540882E-02  0.10206373321E+01  0.10203715085E+01 0.  0.
     999903    2    3    3    0    0 -0.73165007035E-01  0.32099950394E-01  0.99412500159E-01  0.12904002797E+00  0.19620360867E-01 0.  0.
         14    1    1    2    0    0 -0.14604857003E-01  0.18007443852E-01  0.22312540882E-02  0.23292667880E-01  0.00000000000E+00 0.  1.
     999901    1    3    3    0    0  0.87769864038E-01 -0.50107394246E-01 -0.10164375425E+00  0.89159730415E+00  0.88000000000E+00 0. -1.
        -11    1    4    4    0    0 -0.49301730344E-01  0.25609308648E-01  0.54847180634E-01  0.78070299403E-01  0.51100000000E-03 0. -1.
         11    1    4    4    0    0 -0.23863276691E-01  0.64906417460E-02  0.44565319526E-01  0.50969728566E-01  0.51100000000E-03 0.  1.
</event>
<event>
 8    1  0.1128641E+005  0.1043930E+01  0.7957747E-01            NaN
         13   -1    0    0    0    0  0.00000000000E+00  0.00000000000E+00  0.74505805969E-08  0.10566000000E+00  0.10566000000E+00 0. -1.
     999900   -1    0    0    0    0 -0.00000000000E+00 -0.00000000000E+00 -0.74505805969E-08  0.93827000000E+00  0.93827000000E+00 0.  1.
     999902    2    1    2    0    0  0.72320862700E-02 -0.21846627857E-01  0.33173856590E-05  0.10209174332E+01  0.10206580363E+01 0.  0.
     999903    2    3    3    0    0 -0.95558708099E-01 -0.44765586860E-01  0.76028158496E-01  0.13138328400E+00  0.18597364619E-01 0.  0.
         14    1    1    2    0    0 -0.72320862700E-02  0.21846627857E-01 -0.33173856590E-05  0.23012566817E-01  0.00000000000E+00 0. -1.
     999901    1    3    3    0    0  0.10279079437E+00  0.22918959004E-01 -0.76024841110E-01  0.88953414918E+00  0.88000000000E+00 0.  1.
        -11    1    4    4    0    0 -0.55646631337E-01 -0.18987915762E-01  0.33841438700E-01  0.67842410175E-01  0.51100000000E-03 0.  1.
         11    1    4    4    0    0 -0.39912076763E-01 -0.25777671098E-01  0.42186719796E-01  0.63540873829E-01  0.51100000000E-03 0. -1.
</event>
<event>
 8    1  0.1128641E+005  0.1043930E+01  0.7957747E-01            NaN
         13   -1    0    0    0    0  0.00000000000E+00  0.00000000000E+00  0.74505805969E-08  0.10566000000E+00  0.10566000000E+00 0.  1.
     999900   -1    0    0    0    0 -0.00000000000E+00 -0.00000000000E+00 -0.74505805969E-08  0.93827000000E+00  0.93827000000E+00 0. -1.
     999902    2    1    2    0    0 -0.23967210564E-01 -0.35864333379E-02  0.74541515641E-02  0.10185754331E+01  0.10182598189E+01 0.  0.
     999903    2    3    3    0    0  0.59043764618E-03  0.88571431678E-01  0.91963022339E-01  0.12939721734E+00  0.21004648343E-01 0.  0.
         14    1    1    2    0    0  0.23967210564E-01  0.35864333379E-02 -0.74541515641E-02  0.25354566883E-01  0.00000000000E+00 0.  1.
     999901    1    3    3    0    0 -0.24557648210E-01 -0.92157865016E-01 -0.84508870774E-01  0.88917821578E+00  0.88000000000E+00 0. -1.
        -11    1    4    4    0    0 -0.70401127858E-02  0.72327891583E-01  0.78367461261E-01  0.10687659797E+00  0.51100000000E-03 0. -1.
         11    1    4    4    0    0  0.76305504320E-02  0.16243540095E-01  0.13595561078E-01  0.22520619368E-01  0.51100000000E-03 0.  1.
</event>
<event>
 8    1  0.1128641E+005  0.1043930E+01  0.7957747E-01            NaN
         13   -1    0    0    0    0  0.00000000000E+00  0.00000000000E+00  0.74505805969E-08  0.10566000000E+00  0.10566000000E+00 0. -1.
     999900   -1    0    0    0    0 -0.00000000000E+00 -0.00000000000E+00 -0.74505805969E-08  0.93827000000E+00  0.93827000000E+00 0.  1.
     999902    2    1    2    0    0 -0.22544027472E-01 -0.49404758564E-02  0.39700057458E-02  0.10205120064E+01  0.10202432812E+01 0.  0.
     999903    2    3    3    0    0 -0.12211590911E+00 -0.30070255745E-01  0.41198952090E-01  0.13375834285E+00  0.19427431391E-01 0.  0.
         14    1    1    2    0    0  0.22544027472E-01  0.49404758564E-02 -0.39700057458E-02  0.23417993551E-01  0.00000000000E+00 0. -1.
     999901    1    3    3    0    0  0.99571881643E-01  0.25129779889E-01 -0.37228946344E-01  0.88675366359E+00  0.88000000000E+00 0.  1.
        -11    1    4    4    0    0 -0.74864957932E-01 -0.27642534508E-01  0.28803819150E-01  0.84845699707E-01  0.51100000000E-03 0.  1.
         11    1    4    4    0    0 -0.47250951183E-01 -0.24277212376E-02  0.12395132940E-01  0.48912643148E-01  0.51100000000E-03 0. -1.
</event>
<event>
 8    1  0.1128641E+005  0.1043930E+01  0.7957747E-01            NaN
         13   -1    0    0    0    0  0.00000000000E+00  0.00000000000E+00  0.74505805969E-08  0.10566000000E+00  0.10566000000E+00 0. -1.
     999900   -1    0    0    0    0 -0.00000000000E+00 -0.00000000000E+00 -0.74505805969E-08  0.93827000000E+00  0.93827000000E+00 0. -1.
     999902    2    1    2    0    0 -0.85088561307E-02 -0.71811482002E-02 -0.21038186483E-01  0.10201271680E+01  0.10198494320E+01 0.  0.
     999903    2    3    3    0    0  0.86203163464E-01  0.92964746771E-01 -0.16622379727E-01  0.12938642775E+00  0.19776618652E-01 0.  0.
         14    1    1    2    0    0  0.85088561307E-02  0.71811482002E-02  0.21038186483E-01  0.23802832029E-01  0.00000000000E+00 0. -1.
     999901    1    3    3    0    0 -0.94712019595E-01 -0.10014589497E+00 -0.44158067554E-02  0.89074074022E+00  0.88000000000E+00 0. -1.
        -11    1    4    4    0    0  0.53339823676E-01  0.58046994858E-01 -0.19945072710E-01  0.81318247941E-01  0.51100000000E-03 0. -1.
         11    1    4    4    0    0  0.32863339789E-01  0.34917751913E-01  0.33226929829E-02  0.48068179811E-01  0.51100000000E-03 0.  1.
</event>
<event>
 8    1  0.1128641E+005  0.1043930E+01  0.7957747E-01            NaN
         13   -1    0    0    0    0  0.00000000000E+00  0.00000000000E+00  0.74505805969E-08  0.10566000000E+00  0.10566000000E+00 0.  1.
     999900   -1    0    0    0    0 -0.00000000000E+00 -0.00000000000E+00 -0.74505805969E-08  0.93827000000E+00  0.93827000000E+00 0.  1.
     999902    2    1    2    0    0  0.14640982406E-01  0.12238417442E-02 -0.23554317871E-01  0.10161691995E+01  0.10157899290E+01 0.  0.
     999903    2    3    3    0    0  0.69535262555E-01  0.69496266129E-01  0.76459625763E-01  0.12618195529E+00  0.20271352304E-01 0.  0.
         14    1    1    2    0    0 -0.14640982406E-01 -0.12238417442E-02  0.23554317871E-01  0.27760800507E-01  0.00000000000E+00 0.  1.
     999901    1    3    3    0    0 -0.54894280149E-01 -0.68272424385E-01 -0.10001394363E+00  0.88998724420E+00  0.88000000000E+00 0.  1.
        -11    1    4    4    0    0  0.21945824652E-01  0.12045323632E-01  0.26122393061E-01  0.36184935834E-01  0.51100000000E-03 0. -1.
         11    1    4    4    0    0  0.47589437903E-01  0.57450942497E-01  0.50337232702E-01  0.89997019455E-01  0.51100000000E-03 0.  1.
</event>
<event>
 8    1  0.1128641E+005  0.1043930E+01  0.7957747E-01            NaN
         13   -1    0    0    0    0  0.00000000000E+00  0.00000000000E+00  0.74505805969E-08  0.10566000000E+00  0.10566000000E+00 0. -1.
     999900   -1    0    0    0    0 -0.00000000000E+00 -0.00000000000E+00 -0.74505805969E-08  0.93827000000E+00  0.93827000000E+00 0.  1.
     999902    2    1    2    0    0 -0.15517455558E-01 -0.14641456644E-01  0.10254645010E-01  0.10202588905E+01  0.10199842559E+01 0.  0.
     999903    2    3    3    0    0  0.94862874177E-01 -0.79251390887E-01 -0.34386347384E-01  0.12989319094E+00  0.20250242236E-01 0.  0.
         14    1    1    2    0    0  0.15517455558E-01  0.14641456644E-01 -0.10254645010E-01  0.23671109478E-01  0.00000000000E+00 0.  1.
     999901    1    3    3    0    0 -0.11038032974E+00  0.64609934243E-01  0.44640992394E-01  0.89036569958E+00  0.88000000000E+00 0. -1.
        -11    1    4    4    0    0  0.80299606502E-01 -0.58788603774E-01 -0.32534628952E-01  0.10470382008E+00  0.51100000000E-03 0. -1.
         11    1    4    4    0    0  0.14563267675E-01 -0.20462787113E-01 -0.18517184322E-02  0.25189370853E-01  0.51100000000E-03 0.  1.
</event>
<event>
 8    1  0.1128641E+005  0.1043930E+01  0.7957747E-01            NaN
         13   -1    0    0    0    0  0.00000000000E+00  0.00000000000E+00  0.74505805969E-08  0.10566000000E+00  0.10566000000E+00 0.  1.
     999900   -1    0    0    0    0 -0.00000000000E+00 -0.00000000000E+00 -0.74505805969E-08  0.93827000000E+00  0.93827000000E+00 0. -1.
     999902    2    1    2    0    0  0.80862180537E-02  0.98736534734E-02  0.19439668633E-01  0.10206753946E+01  0.10204104490E+01 0.  0.
     999903    2    3    3    0    0 -0.12052500885E+00 -0.30231945183E-01  0.33602592270E-01  0.13031035984E+00  0.20283180402E-01 0.  0.
         14    1    1    2    0    0 -0.80862180537E-02 -0.98736534734E-02 -0.19439668633E-01  0.23254605390E-01  0.00000000000E+00 0. -1.
     999901    1    3    3    0    0  0.12861122690E+00  0.40105598657E-01 -0.14162923637E-01  0.89036503477E+00  0.88000000000E+00 0. -1.
        -11    1    4    4    0    0 -0.51063142222E-01 -0.25575696046E-02  0.13562459292E-01  0.52897892954E-01  0.51100000000E-03 0. -1.
         11    1    4    4    0    0 -0.69461866628E-01 -0.27674375579E-01  0.20040132978E-01  0.77412466889E-01  0.51100000000E-03 0.  1.
</event>
<event>
 8    1  0.1128641E+005  0.1043930E+01  0.7957747E-01            NaN
         13   -1    0    0    0    0  0.00000000000E+00  0.00000000000E+00  0.74505805969E-08  0.10566000000E+00  0.10566000000E+00 0. -1.
     999900   -1    0    0    0    0 -0.00000000000E+00 -0.00000000000E+00 -0.74505805969E-08  0.93827000000E+00  0.93827000000E+00 0. -1.
     999902    2    1    2    0    0  0.59732894492E-02  0.22623483344E-01  0.30546407538E-02  0.10203326905E+01  0.10200597856E+01 0.  0.
     999903    2    3    3    0    0 -0.11226752349E+00  0.23847759136E-01  0.59013572163E-01  0.13066208252E+00  0.20427081610E-01 0.  0.
         14    1    1    2    0    0 -0.59732894492E-02 -0.22623483344E-01 -0.30546407538E-02  0.23597309500E-01  0.00000000000E+00 0.  1.
     999901    1    3    3    0    0  0.11824081294E+00 -0.12242757918E-02 -0.55958931410E-01  0.88967060798E+00  0.88000000000E+00 0. -1.
        -11    1    4    4    0    0 -0.49236678540E-01  0.49604247492E-02  0.15842458382E-01  0.51962495474E-01  0.51100000000E-03 0. -1.
         11    1    4    4    0    0 -0.63030844950E-01  0.18887334387E-01  0.43171113781E-01  0.78699587048E-01  0.51100000000E-03 0.  1.
</event>
<event>
 8    1  0.1128641E+005  0.1043930E+01  0.7957747E-01            NaN
         13   -1    0    0    0    0  0.00000000000E+00  0.00000000000E+00  0.74505805969E-08  0.10566000000E+00  0.10566000000E+00 0. -1.
     999900   -1    0    0    0    0 -0.00000000000E+00 -0.00000000000E+00 -0.74505805969E-08  0.93827000000E+00  0.93827000000E+00 0. -1.
     999902    2    1    2    0    0 -0.14850268803E-01 -0.18211473160E-01 -0.13038171786E-02  0.10203951710E+01  0.10201237262E+01 0.  0.
     999903    2    3    3    0    0 -0.10733006641E+00  0.55482500228E-01  0.46913808398E-01  0.13117739444E+00  0.20212679381E-01 0.  0.
         14    1    1    2    0    0  0.14850268803E-01  0.18211473160E-01  0.13038171786E-02  0.23534829029E-01  0.00000000000E+00 0. -1.
     999901    1    3    3    0    0  0.92479797604E-01 -0.73693973388E-01 -0.48217625577E-01  0.88921777653E+00  0.88000000000E+00 0. -1.
        -11    1    4    4    0    0 -0.82972447936E-01  0.47280525634E-01  0.28861254024E-01  0.99765266128E-01  0.51100000000E-03 0. -1.
         11    1    4    4    0    0 -0.24357618471E-01  0.82019745945E-02  0.18052554374E-01  0.31412128315E-01  0.51100000000E-03 0.  1.
</event>
<event>
 8    1  0.1128641E+005  0.1043930E+01  0.7957747E-01            NaN
         13   -1    0    0    0    0  0.00000000000E+00  0.00000000000E+00  0.74505805969E-08  0.10566000000E+00  0.10566000000E+00 0.  1.
     999900   -1    0    0    0    0 -0.00000000000E+00 -0.00000000000E+00 -0.74505805969E-08  0.93827000000E+00  0.93827000000E+00 0.  1.
     999902    2    1    2    0    0 -0.11637194436E-01  0.11886537781E-01 -0.16001802500E-01  0.10208481509E+01  0.10205871719E+01 0.  0.
     999903    2    3    3    0    0  0.53145179701E-01 -0.91035670680E-01  0.70374902288E-01  0.12829525492E+00  0.19878181523E-01 0.  0.
         14    1    1    2    0    0  0.11637194436E-01 -0.11886537781E-01  0.16001802500E-01  0.23081849102E-01  0.00000000000E+00 0.  1.
     999901    1    3    3    0    0 -0.64782374137E-01  0.10292220846E+00 -0.86376704788E-01  0.89255289598E+00  0.88000000000E+00 0.  1.
        -11    1    4    4    0    0  0.43986494043E-01 -0.64342248228E-01  0.43197337424E-01  0.89112331620E-01  0.51100000000E-03 0.  1.
         11    1    4    4    0    0  0.91586856575E-02 -0.26693422452E-01  0.27177564864E-01  0.39182923297E-01  0.51100000000E-03 0. -1.
</event>
<event>
 8    1  0.1128641E+005  0.1043930E+01  0.7957747E-01            NaN
         13   -1    0    0    0    0  0.00000000000E+00  0.00000000000E+00  0.74505805969E-08  0.10566000000E+00  0.10566000000E+00 0. -1.
     999900   -1    0    0    0    0 -0.00000000000E+00 -0.00000000000E+00 -0.74505805969E-08  0.93827000000E+00  0.93827000000E+00 0. -1.
     999902    2    1    2    0    0  0.13601564568E-02  0.55660630240E-02  0.23449983996E-01  0.10197901402E+01  0.10195043880E+01 0.  0.
     999903    2    3    3    0    0  0.11327650327E+00  0.53061302189E-01  0.35530739783E-01  0.13134936494E+00  0.18524422194E-01 0.  0.
         14    1    1    2    0    0 -0.13601564568E-02 -0.55660630240E-02 -0.23449983996E-01  0.24139859829E-01  0.00000000000E+00 0.  1.
     999901    1    3    3    0    0 -0.11191634682E+00 -0.47495239165E-01 -0.12080755787E-01  0.88844077523E+00  0.88000000000E+00 0. -1.
        -11    1    4    4    0    0  0.10768516952E+00  0.45208002813E-01  0.32433968883E-01  0.12121090178E+00  0.51100000000E-03 0. -1.
         11    1    4    4    0    0  0.55913337556E-02  0.78532993759E-02  0.30967709003E-02  0.10138463161E-01  0.51100000000E-03 0.  1.
</event>
<event>
 8    1  0.1128641E+005  0.1043930E+01  0.7957747E-01            NaN
         13   -1    0    0    0    0  0.00000000000E+00  0.00000000000E+00  0.74505805969E-08  0.10566000000E+00  0.10566000000E+00 0. -1.
     999900   -1    0    0    0    0 -0.00000000000E+00 -0.00000000000E+00 -0.74505805969E-08  0.93827000000E+00  0.93827000000E+00 0. -1.
     999902    2    1    2    0    0  0.69210516198E-02 -0.54985635990E-02  0.20882230981E-01  0.10212539614E+01  0.10210021797E+01 0.  0.
     999903    2    3    3    0    0 -0.48614905712E-01  0.72335947468E-01 -0.92843518461E-01  0.12879892062E+00  0.19322129276E-01 0.  0.
         14    1    1    2    0    0 -0.69210516198E-02  0.54985635990E-02 -0.20882230981E-01  0.22676038630E-01  0.00000000000E+00 0.  1.
     999901    1    3    3    0    0  0.55535957332E-01 -0.77834511067E-01  0.11372574944E+00  0.89245504075E+00  0.88000000000E+00 0.  1.
        -11    1    4    4    0    0 -0.31796876538E-01  0.58505107549E-01 -0.61596413267E-01  0.90709802200E-01  0.51100000000E-03 0. -1.
         11    1    4    4    0    0 -0.16818029174E-01  0.13830839920E-01 -0.31247105194E-01  0.38089118422E-01  0.51100000000E-03 0.  1.
</event>
<event>
 8    1  0.1128641E+005  0.1043930E+01  0.7957747E-01            NaN
         13   -1    0    0    0    0  0.00000000000E+00  0.00000000000E+00  0.74505805969E-08  0.10566000000E+00  0.10566000000E+00 0.  1.
     999900   -1    0    0    0    0 -0.00000000000E+00 -0.00000000000E+00 -0.74505805969E-08  0.93827000000E+00  0.93827000000E+00 0.  1.
     999902    2    1    2    0    0  0.22527583801E-01 -0.72192714051E-02 -0.13435222076E-02  0.10202358032E+01  0.10199606263E+01 0.  0.
     999903    2    3    3    0    0  0.18834826274E-01 -0.12544044744E+00  0.28555672904E-01  0.13181932156E+00  0.21699090925E-01 0.  0.
         14    1    1    2    0    0 -0.22527583801E-01  0.72192714051E-02  0.13435222076E-02  0.23694196831E-01  0.00000000000E+00 0.  1.
     999901    1    3    3    0    0  0.36927575271E-02  0.11822117604E+00 -0.29899195112E-01  0.88841648161E+00  0.88000000000E+00 0.  1.
        -11    1    4    4    0    0  0.16271416790E-01 -0.11612762043E+00  0.20103179661E-01  0.11897387185E+00  0.51100000000E-03 0.  1.
         11    1    4    4    0    0  0.25634094839E-02 -0.93128270145E-02  0.84524932428E-02  0.12845449708E-01  0.51100000000E-03 0. -1.
</event>
<event>
 8    1  0.1128641E+005  0.1043930E+01  0.7957747E-01            NaN
         13   -1    0    0    0    0  0.00000000000E+00  0.00000000000E+00  0.74505805969E-08  0.10566000000E+00  0.10566000000E+00 0.  1.
     999900   -1    0    0    0    0 -0.00000000000E+00 -0.00000000000E+00 -0.74505805969E-08  0.93827000000E+00  0.93827000000E+00 0. -1.
     999902    2    1    2    0    0  0.88309403629E-02  0.21160248372E-01 -0.42979829015E-02  0.10206015994E+01  0.10203349501E+01 0.  0.
     999903    2    3    3    0    0 -0.59935684954E-01 -0.11114758560E+00  0.42923607838E-02  0.12801658623E+00  0.20585185748E-01 0.  0.
         14    1    1    2    0    0 -0.88309403629E-02 -0.21160248372E-01  0.42979829015E-02  0.23328400629E-01  0.00000000000E+00 0. -1.
     999901    1    3    3    0    0  0.68766625316E-01  0.13230783397E+00 -0.85903436853E-02  0.89258501315E+00  0.88000000000E+00 0.  1.
        -11    1    4    4    0    0 -0.29974048646E-01 -0.69075299291E-01 -0.52763375410E-02  0.75484709863E-01  0.51100000000E-03 0. -1.
         11    1    4    4    0    0 -0.29961636308E-01 -0.42072286309E-01  0.95686983247E-02  0.52531876362E-01  0.51100000000E-03 0.  1.
</event>
<event>
 8    1  0.1128641E+005  0.1043930E+01  0.7957747E-01            NaN
         13   -1    0    0    0    0  0.00000000000E+00  0.00000000000E+00  0.74505805969E-08  0.10566000000E+00  0.10566000000E+00 0.  1.
     999900   -1    0    0    0    0 -0.00000000000E+00 -0.00000000000E+00 -0.74505805969E-08  0.93827000000E+00  0.93827000000E+00 0.  1.
     999902    2    1    2    0    0 -0.82708467462E-02  0.17131794632E-01 -0.10446571294E-02  0.10248775303E+01  0.10247004223E+01 0.  0.
     999903    2    3    3    0    0 -0.25791527927E-02 -0.13030088573E+00  0.67938231637E-02  0.13256019191E+00  0.23261031663E-01 0.  0.
         14    1    1    2    0    0  0.82708467462E-02 -0.17131794632E-01  0.10446571294E-02  0.19052469702E-01  0.00000000000E+00 0.  1.
     999901    1    3    3    0    0 -0.56916939535E-02  0.14743268036E+00 -0.78384802931E-02  0.89231733839E+00  0.88000000000E+00 0.  1.
        -11    1    4    4    0    0 -0.82899607281E-02 -0.87856658274E-01 -0.41787042857E-02  0.88347261092E-01  0.51100000000E-03 0. -1.
         11    1    4    4    0    0  0.57108079354E-02 -0.42444227457E-01  0.10972527449E-01  0.44212930816E-01  0.51100000000E-03 0.  1.
</event>
<event>
 8    1  0.1128641E+005  0.1043930E+01  0.7957747E-01            NaN
         13   -1    0    0    0    0  0.00000000000E+00  0.00000000000E+00  0.74505805969E-08  0.10566000000E+00  0.10566000000E+00 0.  1.
     999900   -1    0    0    0    0 -0.00000000000E+00 -0.00000000000E+00 -0.74505805969E-08  0.93827000000E+00  0.93827000000E+00 0.  1.
     999902    2    1    2    0    0 -0.32086779706E-03  0.15263260440E-01 -0.18557274522E-01  0.10198999664E+01  0.10196168393E+01 0.  0.
     999903    2    3    3    0    0 -0.91696287090E-01 -0.87891103585E-01  0.57366658934E-02  0.12884414012E+00  0.20853008241E-01 0.  0.
         14    1    1    2    0    0  0.32086779706E-03 -0.15263260440E-01  0.18557274522E-01  0.24030033564E-01  0.00000000000E+00 0.  1.
     999901    1    3    3    0    0  0.91375419293E-01  0.10315436402E+00 -0.24293940415E-01  0.89105582631E+00  0.88000000000E+00 0.  1.
        -11    1    4    4    0    0 -0.48334842394E-01 -0.58951608371E-01 -0.12395083037E-02  0.76245305565E-01  0.51100000000E-03 0.  1.
         11    1    4    4    0    0 -0.43361444696E-01 -0.28939495213E-01  0.69761741971E-02  0.52598834557E-01  0.51100000000E-03 0. -1.
</event>
<event>
 8    1  0.1128641E+005  0.1043930E+01  0.7957747E-01            NaN
         13   -1    0    0    0    0  0.00000000000E+00  0.00000000000E+00  0.74505805969E-08  0.10566000000E+00  0.10566000000E+00 0. -1.
     999900   -1    0    0    0    0 -0.00000000000E+00 -0.00000000000E+00 -0.74505805969E-08  0.93827000000E+00  0.93827000000E+00 0. -1.
     999902    2    1    2    0    0  0.88483799214E-02  0.20100679250E-01  0.80960839973E-02  0.10205232123E+01  0.10202547472E+01 0.  0.
     999903    2    3    3    0    0  0.11608690347E+00  0.61409534514E-01  0.47932845163E-02  0.13304508248E+00  0.20753754067E-01 0.  0.
         14    1    1    2    0    0 -0.88483799214E-02 -0.20100679250E-01 -0.80960839973E-02  0.23406787683E-01  0.00000000000E+00 0. -1.
     999901    1    3    3    0    0 -0.10723852355E+00 -0.41308855264E-01  0.33027994809E-02  0.88747812984E+00  0.88000000000E+00 0.  1.
        -11    1    4    4    0    0  0.96325978190E-01  0.43792953733E-01  0.91543129469E-02  0.10621007220E+00  0.51100000000E-03 0. -1.
         11    1    4    4    0    0  0.19760925284E-01  0.17616580781E-01 -0.43610284306E-02  0.26835010275E-01  0.51100000000E-03 0.  1.
</event>
<event>
 8    1  0.1128641E+005  0.1043930E+01  0.7957747E-01            NaN
         13   -1    0    0    0    0  0.00000000000E+00  0.00000000000E+00  0.74505805969E-08  0.10566000000E+00  0.10566000000E+00 0. -1.
     999900   -1    0    0    0    0 -0.00000000000E+00 -0.00000000000E+00 -0.74505805969E-08  0.93827000000E+00  0.93827000000E+00 0. -1.
     999902    2    1    2    0    0  0.11797414042E-01  0.55276806637E-02  0.20068378890E-01  0.10200035698E+01  0.10197229076E+01 0.  0.
     999903    2    3    3    0    0 -0.89170497476E-01 -0.24380684097E-01 -0.85464616755E-01  0.12746435910E+00  0.19929042790E-01 0.  0.
         14    1    1    2    0    0 -0.11797414042E-01 -0.55276806637E-02 -0.20068378890E-01  0.23926430216E-01  0.00000000000E+00 0.  1.
     999901    1    3    3    0    0  0.10096791152E+00  0.29908364760E-01  0.10553299565E+00  0.89253921068E+00  0.88000000000E+00 0.  1.
        -11    1    4    4    0    0 -0.21652675187E-01 -0.13081266786E-01 -0.30785500864E-01  0.39849291937E-01  0.51100000000E-03 0. -1.
         11    1    4    4    0    0 -0.67517822290E-01 -0.11299417311E-01 -0.54679115891E-01  0.87615067163E-01  0.51100000000E-03 0.  1.
</event>
<event>
 6    1  0.1128641E+005  0.1043930E+01  0.7957747E-01            NaN
         13   -1    0    0    0    0  0.00000000000E+00  0.00000000000E+00  0.74505805969E-08  0.10566000000E+00  0.10566000000E+00 0.  1.
     999900   -1    0    0    0    0 -0.00000000000E+00 -0.00000000000E+00 -0.74505805969E-08  0.93827000000E+00  0.93827000000E+00 0.  1.
         14    1    1    2    0    0  0.86681435682E-02 -0.38231793800E-01 -0.18572891666E-01  0.43379247053E-01  0.00000000000E+00 0. -1.
     999901    1    1    2    0    0  0.79550684047E-01  0.74689735727E-01  0.61856369716E-01  0.88889430104E+00  0.88000000000E+00 0. -1.
        -11    1    1    2    0    0 -0.15697426423E-01 -0.24320403259E-01 -0.16971848497E-01  0.33558843445E-01  0.51100000000E-03 0. -1.
         11    1    1    2    0    0 -0.72521401193E-01 -0.12137538668E-01 -0.26311629553E-01  0.78097608456E-01  0.51100000000E-03 0.  1.
</event>
<event>
 7    1  0.1215378E+005  0.1043930E+01  0.7957747E-01            NaN
         13   -1    0    0    0    0  0.00000000000E+00  0.00000000000E+00  0.74505805969E-08  0.10566000000E+00  0.10566000000E+00 0. -1.
     999900   -1    0    0    0    0 -0.00000000000E+00 -0.00000000000E+00 -0.74505805969E-08  0.93827000000E+00  0.93827000000E+00 0. -1.
     999903    2    1    2    0    0  0.82240756263E-01 -0.27696121218E-02 -0.55977094503E-01  0.10207243968E+00  0.22674547197E-01 0.  0.
         14    1    1    2    0    0 -0.15993775596E-02  0.98393127334E-02  0.57280207148E-01  0.58141140465E-01  0.00000000000E+00 0. -1.
     999901    1    1    2    0    0 -0.80641378703E-01 -0.70697006116E-02 -0.13031126450E-02  0.88371641986E+00  0.88000000000E+00 0.  1.
        -11    1    3    3    0    0  0.48472546078E-01  0.93984150448E-02 -0.34573440398E-01  0.60278535405E-01  0.51100000000E-03 0. -1.
         11    1    3    3    0    0  0.33768210185E-01 -0.12168027167E-01 -0.21403654105E-01  0.41793904272E-01  0.51100000000E-03 0.  1.
</event>
<event>
 8    1  0.1128641E+005  0.1043930E+01  0.7957747E-01            NaN
         13   -1    0    0    0    0  0.00000000000E+00  0.00000000000E+00  0.74505805969E-08  0.10566000000E+00  0.10566000000E+00 0.  1.
     999900   -1    0    0    0    0 -0.00000000000E+00 -0.00000000000E+00 -0.74505805969E-08  0.93827000000E+00  0.93827000000E+00 0.  1.
     999902    2    1    2    0    0 -0.10495609005E-02  0.16870399518E-01  0.17403509986E-01  0.10196690413E+01  0.10193803802E+01 0.  0.
     999903    2    3    3    0    0  0.56283177423E-01 -0.32116098242E-01 -0.10789731562E+00  0.12760008838E+00  0.20993141932E-01 0.  0.
         14    1    1    2    0    0  0.10495609005E-02 -0.16870399518E-01 -0.17403509986E-01  0.24260958716E-01  0.00000000000E+00 0. -1.
     999901    1    3    3    0    0 -0.57332738324E-01  0.48986497760E-01  0.12530082561E+00  0.89206895291E+00  0.88000000000E+00 0. -1.
        -11    1    4    4    0    0  0.22203022339E-01 -0.15367147970E-01 -0.64537578549E-01  0.69960586073E-01  0.51100000000E-03 0. -1.
         11    1    4    4    0    0  0.34080155084E-01 -0.16748950272E-01 -0.43359737072E-01  0.57639502302E-01  0.51100000000E-03 0.  1.
</event>
<event>
 8    1  0.1128641E+005  0.1043930E+01  0.7957747E-01            NaN
         13   -1    0    0    0    0  0.00000000000E+00  0.00000000000E+00  0.74505805969E-08  0.10566000000E+00  0.10566000000E+00 0.  1.
     999900   -1    0    0    0    0 -0.00000000000E+00 -0.00000000000E+00 -0.74505805969E-08  0.93827000000E+00  0.93827000000E+00 0. -1.
     999902    2    1    2    0    0  0.53455713229E-02  0.23041362349E-01 -0.39344991957E-02  0.10199516807E+01  0.10196697854E+01 0.  0.
     999903    2    3    3    0    0 -0.12594225898E+00  0.26204915304E-01 -0.99874508712E-02  0.13018590217E+00  0.17334063741E-01 0.  0.
         14    1    1    2    0    0 -0.53455713229E-02 -0.23041362349E-01  0.39344991957E-02  0.23978319282E-01  0.00000000000E+00 0.  1.
     999901    1    3    3    0    0  0.13128783030E+00 -0.31635529551E-02  0.60529516755E-02  0.88976577855E+00  0.88000000000E+00 0.  1.
        -11    1    4    4    0    0 -0.33476787462E-01  0.93815691237E-03  0.21548998308E-02  0.33563077204E-01  0.51100000000E-03 0.  1.
         11    1    4    4    0    0 -0.92465471518E-01  0.25266758392E-01 -0.12142350702E-01  0.96622824965E-01  0.51100000000E-03 0. -1.
</event>
<event>
 8    1  0.1128641E+005  0.1043930E+01  0.7957747E-01            NaN
         13   -1    0    0    0    0  0.00000000000E+00  0.00000000000E+00  0.74505805969E-08  0.10566000000E+00  0.10566000000E+00 0.  1.
     999900   -1    0    0    0    0 -0.00000000000E+00 -0.00000000000E+00 -0.74505805969E-08  0.93827000000E+00  0.93827000000E+00 0.  1.
     999902    2    1    2    0    0  0.81285579730E-02  0.15794408259E-01  0.11839662896E-01  0.10225825317E+01  0.10223596821E+01 0.  0.
     999903    2    3    3    0    0  0.86058412738E-01  0.96267086508E-01  0.31423055229E-01  0.13526498790E+00  0.25215197891E-01 0.  0.
         14    1    1    2    0    0 -0.81285579730E-02 -0.15794408259E-01 -0.11839662896E-01  0.21347468338E-01  0.00000000000E+00 0. -1.
     999901    1    3    3    0    0 -0.77929854765E-01 -0.80472678249E-01 -0.19583392334E-01  0.88731754376E+00  0.88000000000E+00 0.  1.
        -11    1    4    4    0    0  0.23514968856E-01  0.34137694175E-01  0.21061209920E-01  0.46499157070E-01  0.51100000000E-03 0.  1.
         11    1    4    4    0    0  0.62543443881E-01  0.62129392332E-01  0.10361845309E-01  0.88765830832E-01  0.51100000000E-03 0. -1.
</event>
<event>
 8    1  0.1128641E+005  0.1043930E+01  0.7957747E-01            NaN
         13   -1    0    0    0    0  0.00000000000E+00  0.00000000000E+00  0.74505805969E-08  0.10566000000E+00  0.10566000000E+00 0. -1.
     999900   -1    0    0    0    0 -0.00000000000E+00 -0.00000000000E+00 -0.74505805969E-08  0.93827000000E+00  0.93827000000E+00 0. -1.
     999902    2    1    2    0    0 -0.20956338728E-01 -0.38378617186E-02 -0.10108987338E-01  0.10203484619E+01  0.10200759260E+01 0.  0.
     999903    2    3    3    0    0 -0.44770371264E-01 -0.41880528882E-01 -0.11601457081E+00  0.13286305620E+00  0.20852966687E-01 0.  0.
         14    1    1    2    0    0  0.20956338728E-01  0.38378617186E-02  0.10108987338E-01  0.23581538127E-01  0.00000000000E+00 0. -1.
     999901    1    3    3    0    0  0.23814032536E-01  0.38042667163E-01  0.10590558347E+00  0.88748540567E+00  0.88000000000E+00 0.  1.
        -11    1    4    4    0    0 -0.31269187583E-01 -0.33528566842E-01 -0.65818911890E-01  0.80214195564E-01  0.51100000000E-03 0.  1.
         11    1    4    4    0    0 -0.13501183681E-01 -0.83519620401E-02 -0.50195658922E-01  0.52648860637E-01  0.51100000000E-03 0. -1.
</event>
<event>
 8    1  0.1128641E+005  0.1043930E+01  0.7957747E-01            NaN
         13   -1    0    0    0    0  0.00000000000E+00  0.00000000000E+00  0.74505805969E-08  0.10566000000E+00  0.10566000000E+00 0.  1.
     999900   -1    0    0    0    0 -0.00000000000E+00 -0.00000000000E+00 -0.74505805969E-08  0.93827000000E+00  0.93827000000E+00 0. -1.
     999902    2    1    2    0    0  0.53124305655E-02 -0.16911088737E-01  0.56422043771E-02  0.10253278143E+01  0.10251590538E+01 0.  0.
     999903    2    3    3    0    0 -0.11833308385E+00  0.43491674078E-01 -0.38969326960E-01  0.13351679417E+00  0.20344076091E-01 0.  0.
         14    1    1    2    0    0 -0.53124305655E-02  0.16911088737E-01 -0.56422043771E-02  0.18602185651E-01  0.00000000000E+00 0. -1.
     999901    1    3    3    0    0  0.12364551442E+00 -0.60402762815E-01  0.44611531337E-01  0.89181102018E+00  0.88000000000E+00 0.  1.
        -11    1    4    4    0    0 -0.85630154885E-01  0.25216973017E-01 -0.34833888913E-01  0.95823170953E-01  0.51100000000E-03 0.  1.
         11    1    4    4    0    0 -0.32702928969E-01  0.18274701061E-01 -0.41354380471E-02  0.37693623212E-01  0.51100000000E-03 0. -1.
</event>
<event>
 8    1  0.1128641E+005  0.1043930E+01  0.7957747E-01            NaN
         13   -1    0    0    0    0  0.00000000000E+00  0.00000000000E+00  0.74505805969E-08  0.10566000000E+00  0.10566000000E+00 0.  1.
     999900   -1    0    0    0    0 -0.00000000000E+00 -0.00000000000E+00 -0.74505805969E-08  0.93827000000E+00  0.93827000000E+00 0. -1.
     999902    2    1    2    0    0 -0.18854550105E-01  0.14154017200E-01  0.10434422445E-02  0.10203308679E+01  0.10200579204E+01 0.  0.
     999903    2    3    3    0    0  0.86476409700E-02  0.12716119285E+00  0.29093152164E-01  0.13223527708E+00  0.19874766451E-01 0.  0.
         14    1    1    2    0    0  0.18854550105E-01 -0.14154017200E-01 -0.10434422445E-02  0.23599132066E-01  0.00000000000E+00 0. -1.
     999901    1    3    3    0    0 -0.27502191075E-01 -0.11300717565E+00 -0.28049709920E-01  0.88809559085E+00  0.88000000000E+00 0. -1.
        -11    1    4    4    0    0  0.11501285450E-01  0.36173879409E-01  0.85525914785E-02  0.38913199052E-01  0.51100000000E-03 0.  1.
         11    1    4    4    0    0 -0.28536444796E-02  0.90987313439E-01  0.20540560686E-01  0.93322078031E-01  0.51100000000E-03 0. -1.
</event>
<event>
 8    1  0.1128641E+005  0.1043930E+01  0.7957747E-01            NaN
         13   -1    0    0    0    0  0.00000000000E+00  0.00000000000E+00  0.74505805969E-08  0.10566000000E+00  0.10566000000E+00 0.  1.
     999900   -1    0    0    0    0 -0.00000000000E+00 -0.00000000000E+00 -0.74505805969E-08  0.93827000000E+00  0.93827000000E+00 0.  1.
     999902    2    1    2    0    0 -0.17857883301E-01 -0.11657669008E-01  0.10389445133E-01  0.10202077359E+01  0.10199318990E+01 0.  0.
     999903    2    3    3    0    0 -0.13026684655E+00 -0.34375222139E-02 -0.13996198662E-01  0.13268421204E+00  0.20686678782E-01 0.  0.
         14    1    1    2    0    0  0.17857883301E-01  0.11657669008E-01 -0.10389445133E-01  0.23722264075E-01  0.00000000000E+00 0. -1.
     999901    1    3    3    0    0  0.11240896324E+00 -0.82201467940E-02  0.24385643795E-01  0.88752352389E+00  0.88000000000E+00 0. -1.
        -11    1    4    4    0    0 -0.97344480967E-01 -0.11262019112E-01 -0.80791456455E-02  0.98327589031E-01  0.51100000000E-03 0. -1.
         11    1    4    4    0    0 -0.32922365578E-01  0.78244968985E-02 -0.59170530161E-02  0.34356623006E-01  0.51100000000E-03 0.  1.
</event>
<event>
 8    1  0.1128641E+005  0.1043930E+01  0.7957747E-01            NaN
         13   -1    0    0    0    0  0.00000000000E+00  0.00000000000E+00  0.74505805969E-08  0.10566000000E+00  0.10566000000E+00 0. -1.
     999900   -1    0    0    0    0 -0.00000000000E+00 -0.00000000000E+00 -0.74505805969E-08  0.93827000000E+00  0.93827000000E+00 0. -1.
     999902    2    1    2    0    0  0.14738436537E-01 -0.18737225411E-01 -0.83679358831E-02  0.10186648565E+01  0.10183514925E+01 0.  0.
     999903    2    3    3    0    0  0.10487069372E+00 -0.71415597222E-01  0.29333766803E-01  0.13169233544E+00  0.19604882320E-01 0.  0.
         14    1    1    2    0    0 -0.14738436537E-01  0.18737225411E-01  0.83679358831E-02  0.25265143550E-01  0.00000000000E+00 0.  1.
     999901    1    3    3    0    0 -0.90132257184E-01  0.52678371811E-01 -0.37701702686E-01  0.88697252101E+00  0.88000000000E+00 0. -1.
        -11    1    4    4    0    0  0.28786838327E-01 -0.95952817845E-02  0.67023641156E-02  0.31079483572E-01  0.51100000000E-03 0.  1.
         11    1    4    4    0    0  0.76083855394E-01 -0.61820315438E-01  0.22631402687E-01  0.10061285187E+00  0.51100000000E-03 0. -1.
</event>
<event>
 8    1  0.1128641E+005  0.1043930E+01  0.7957747E-01            NaN
         13   -1    0    0    0    0  0.00000000000E+00  0.00000000000E+00  0.74505805969E-08  0.10566000000E+00  0.10566000000E+00 0.  1.
     999900   -1    0    0    0    0 -0.00000000000E+00 -0.00000000000E+00 -0.74505805969E-08  0.93827000000E+00  0.93827000000E+00 0. -1.
     999902    2    1    2    0    0  0.24260036726E-01  0.14406398947E-03  0.57309123388E-02  0.10190018333E+01  0.10186968749E+01 0.  0.
     999903    2    3    3    0    0 -0.15356179102E-01  0.54301669568E-01 -0.11360145164E+00  0.12841623730E+00  0.20023901539E-01 0.  0.
         14    1    1    2    0    0 -0.24260036726E-01 -0.14406398947E-03 -0.57309123388E-02  0.24928166652E-01  0.00000000000E+00 0. -1.
     999901    1    3    3    0    0  0.39616215829E-01 -0.54157605578E-01  0.11933236398E+00  0.89058559605E+00  0.88000000000E+00 0.  1.
        -11    1    4    4    0    0 -0.11830433913E-01  0.17391165387E-01 -0.56903854657E-01  0.60668950839E-01  0.51100000000E-03 0.  1.
         11    1    4    4    0    0 -0.35257451889E-02  0.36910504181E-01 -0.56697596982E-01  0.67747286459E-01  0.51100000000E-03 0. -1.
</event>
<event>
 8    1  0.1128641E+005  0.1043930E+01  0.7957747E-01            NaN
         13   -1    0    0    0    0  0.00000000000E+00  0.00000000000E+00  0.74505805969E-08  0.10566000000E+00  0.10566000000E+00 0. -1.
     999900   -1    0    0    0    0 -0.00000000000E+00 -0.00000000000E+00 -0.74505805969E-08  0.93827000000E+00  0.93827000000E+00 0. -1.
     999902    2    1    2    0    0 -0.18722839035E-01 -0.14135613248E-01  0.47331245541E-02  0.10199975381E+01  0.10197167327E+01 0.  0.
     999903    2    3    3    0    0 -0.12055975914E+00 -0.42326727373E-01 -0.31851764804E-01  0.13292146960E+00  0.18093501221E-01 0.  0.
         14    1    1    2    0    0  0.18722839035E-01  0.14135613248E-01 -0.47331245541E-02  0.23932461877E-01  0.00000000000E+00 0.  1.
     999901    1    3    3    0    0  0.10183692010E+00  0.28191114124E-01  0.36584889358E-01  0.88707606852E+00  0.88000000000E+00 0. -1.
        -11    1    4    4    0    0 -0.30695159314E-01 -0.11967750875E-01 -0.16435688853E-01  0.36821364116E-01  0.51100000000E-03 0.  1.
         11    1    4    4    0    0 -0.89864599826E-01 -0.30358976498E-01 -0.15416075950E-01  0.96100105487E-01  0.51100000000E-03 0. -1.
</event>
<event>
 8    1  0.1128641E+005  0.1043930E+01  0.7957747E-01            NaN
         13   -1    0    0    0    0  0.00000000000E+00  0.00000000000E+00  0.74505805969E-08  0.10566000000E+00  0.10566000000E+00 0.  1.
     999900   -1    0    0    0    0 -0.00000000000E+00 -0.00000000000E+00 -0.74505805969E-08  0.93827000000E+00  0.93827000000E+00 0.  1.
     999902    2    1    2    0    0  0.14581284069E-01  0.15218822371E-01 -0.10768714654E-01  0.10202616326E+01  0.10199870624E+01 0.  0.
     999903    2    3    3    0    0  0.11286332443E+00  0.40606868677E-01 -0.54827629704E-01  0.13333147733E+00  0.19600155178E-01 0.  0.
         14    1    1    2    0    0 -0.14581284069E-01 -0.15218822371E-01  0.10768714654E-01  0.23668367386E-01  0.00000000000E+00 0.  1.
     999901    1    3    3    0    0 -0.98282040363E-01 -0.25388046306E-01  0.44058915049E-01  0.88693015528E+00  0.88000000000E+00 0. -1.
        -11    1    4    4    0    0  0.10729832443E+00  0.41010599418E-01 -0.47989855101E-01  0.12449131296E+00  0.51100000000E-03 0. -1.
         11    1    4    4    0    0  0.55650000057E-02 -0.40373074077E-03 -0.68377746030E-02  0.88401643705E-02  0.51100000000E-03 0.  1.
</event>
<event>
 8    1  0.1128641E+005  0.1043930E+01  0.7957747E-01            NaN
         13   -1    0    0    0    0  0.00000000000E+00  0.00000000000E+00  0.74505805969E-08  0.10566000000E+00  0.10566000000E+00 0.  1.
     999900   -1    0    0    0    0 -0.00000000000E+00 -0.00000000000E+00 -0.74505805969E-08  0.93827000000E+00  0.93827000000E+00 0. -1.
     999902    2    1    2    0    0 -0.10992552397E-01 -0.10270363853E-01 -0.17960116605E-01  0.10205017613E+01  0.10202327981E+01 0.  0.
     999903    2    3    3    0    0 -0.12688712770E+00  0.22746585583E-01  0.15765119061E-01  0.13164909459E+00  0.21568374876E-01 0.  0.
         14    1    1    2    0    0  0.10992552397E-01  0.10270363853E-01  0.17960116605E-01  0.23428238737E-01  0.00000000000E+00 0.  1.
     999901    1    3    3    0    0  0.11589457530E+00 -0.33016949437E-01 -0.33725235666E-01  0.88885266668E+00  0.88000000000E+00 0. -1.
        -11    1    4    4    0    0 -0.59312128506E-01  0.54546321587E-02  0.16795504462E-01  0.61887249826E-01  0.51100000000E-03 0. -1.
         11    1    4    4    0    0 -0.67574999195E-01  0.17291953425E-01 -0.10303854009E-02  0.69761844761E-01  0.51100000000E-03 0.  1.
</event>
<event>
 8    1  0.1128641E+005  0.1043930E+01  0.7957747E-01            NaN
         13   -1    0    0    0    0  0.00000000000E+00  0.00000000000E+00  0.74505805969E-08  0.10566000000E+00  0.10566000000E+00 0. -1.
     999900   -1    0    0    0    0 -0.00000000000E+00 -0.00000000000E+00 -0.74505805969E-08  0.93827000000E+00  0.93827000000E+00 0. -1.
     999902    2    1    2    0    0  0.58514202033E-02  0.22276013385E-01 -0.60676324497E-02  0.10201124423E+01  0.10198343586E+01 0.  0.
     999903    2    3    3    0    0 -0.12648644111E+00  0.11840231888E-01  0.17657263444E-01  0.12983996393E+00  0.20189759894E-01 0.  0.
         14    1    1    2    0    0 -0.58514202033E-02 -0.22276013385E-01  0.60676324497E-02  0.23817557689E-01  0.00000000000E+00 0. -1.
     999901    1    3    3    0    0  0.13233786132E+00  0.10435781497E-01 -0.23724895894E-01  0.89027247838E+00  0.88000000000E+00 0. -1.
        -11    1    4    4    0    0 -0.11823597667E+00  0.62956061109E-02  0.18540019746E-01  0.11984729570E+00  0.51100000000E-03 0.  1.
         11    1    4    4    0    0 -0.82504644479E-02  0.55446257768E-02 -0.88275630139E-03  0.99926682272E-02  0.51100000000E-03 0. -1.
</event>
<event>
 8    1  0.1128641E+005  0.1043930E+01  0.7957747E-01            NaN
         13   -1    0    0    0    0  0.00000000000E+00  0.00000000000E+00  0.74505805969E-08  0.10566000000E+00  0.10566000000E+00 0.  1.
     999900   -1    0    0    0    0 -0.00000000000E+00 -0.00000000000E+00 -0.74505805969E-08  0.93827000000E+00  0.93827000000E+00 0. -1.
     999902    2    1    2    0    0  0.19491667209E-01  0.13526367351E-01  0.42702544224E-03  0.10202009028E+01  0.10199249051E+01 0.  0.
     999903    2    3    3    0    0  0.12808965516E+00  0.31197004880E-02 -0.29509623378E-01  0.13295909546E+00  0.19763878806E-01 0.  0.
         14    1    1    2    0    0 -0.19491667209E-01 -0.13526367351E-01 -0.42702544224E-03  0.23729097224E-01  0.00000000000E+00 0.  1.
     999901    1    3    3    0    0 -0.10859798795E+00  0.10406666863E-01  0.29936648820E-01  0.88724180731E+00  0.88000000000E+00 0.  1.
        -11    1    4    4    0    0  0.42967272505E-01 -0.61457954912E-02 -0.38885276517E-02  0.43581407470E-01  0.51100000000E-03 0. -1.
         11    1    4    4    0    0  0.85122382650E-01  0.92654959793E-02 -0.25621095726E-01  0.89377687993E-01  0.51100000000E-03 0.  1.
</event>
<event>
 8    1  0.1128641E+005  0.1043930E+01  0.7957747E-01            NaN
         13   -1    0    0    0    0  0.00000000000E+00  0.00000000000E+00  0.74505805969E-08  0.10566000000E+00  0.10566000000E+00 0. -1.
     999900   -1    0    0    0    0 -0.00000000000E+00 -0.00000000000E+00 -0.74505805969E-08  0.93827000000E+00  0.93827000000E+00 0. -1.
     999902    2    1    2    0    0  0.89990013424E-02 -0.82062404623E-02 -0.20113621539E-01  0.10204165532E+01  0.10201456072E+01 0.  0.
     999903    2    3    3    0    0  0.67142467881E-01  0.98601487513E-01 -0.51552692837E-01  0.13149756442E+00  0.20088926728E-01 0.  0.
         14    1    1    2    0    0 -0.89990013424E-02  0.82062404623E-02  0.20113621539E-01  0.23513446772E-01  0.00000000000E+00 0. -1.
     999901    1    3    3    0    0 -0.58143466538E-01 -0.10680772798E+00  0.31439071297E-01  0.88891898881E+00  0.88000000000E+00 0.  1.
        -11    1    4    4    0    0  0.66737970405E-01  0.94438285566E-01 -0.52768956461E-01  0.12711164526E+00  0.51100000000E-03 0.  1.
         11    1    4    4    0    0  0.40449747543E-03  0.41632019478E-02  0.12162636239E-02  0.43859191589E-02  0.51100000000E-03 0. -1.
</event>
<event>
 8    1  0.1128641E+005  0.1043930E+01  0.7957747E-01            NaN
         13   -1    0    0    0    0  0.00000000000E+00  0.00000000000E+00  0.74505805969E-08  0.10566000000E+00  0.10566000000E+00 0.  1.
     999900   -1    0    0    0    0 -0.00000000000E+00 -0.00000000000E+00 -0.74505805969E-08  0.93827000000E+00  0.93827000000E+00 0.  1.
     999902    2    1    2    0    0  0.17472868546E-01  0.15149824912E-01 -0.35483479769E-02  0.10205332245E+01  0.10202649917E+01 0.  0.
     999903    2    3    3    0    0 -0.12225615015E+00  0.35576958643E-01 -0.95646680139E-02  0.12925455733E+00  0.20074149548E-01 0.  0.
         14    1    1    2    0    0 -0.17472868546E-01 -0.15149824912E-01  0.35483479769E-02  0.23396775493E-01  0.00000000000E+00 0. -1.
     999901    1    3    3    0    0  0.13972901870E+00 -0.20427133731E-01  0.60163200370E-02  0.89127866718E+00  0.88000000000E+00 0.  1.
        -11    1    4    4    0    0 -0.37928854061E-01  0.20590359854E-01 -0.54814907021E-02  0.43507111495E-01  0.51100000000E-03 0.  1.
         11    1    4    4    0    0 -0.84327296091E-01  0.14986598789E-01 -0.40831773118E-02  0.85747445835E-01  0.51100000000E-03 0. -1.
</event>
<event>
 8    1  0.1128641E+005  0.1043930E+01  0.7957747E-01            NaN
         13   -1    0    0    0    0  0.00000000000E+00  0.00000000000E+00  0.74505805969E-08  0.10566000000E+00  0.10566000000E+00 0. -1.
     999900   -1    0    0    0    0 -0.00000000000E+00 -0.00000000000E+00 -0.74505805969E-08  0.93827000000E+00  0.93827000000E+00 0. -1.
     999902    2    1    2    0    0 -0.29413163051E-02 -0.20694067414E-01  0.10471463832E-01  0.10205516484E+01  0.10202838427E+01 0.  0.
     999903    2    3    3    0    0 -0.97582302317E-01  0.80308615446E-01  0.21258190545E-01  0.12966736208E+00  0.19746763861E-01 0.  0.
         14    1    1    2    0    0  0.29413163051E-02  0.20694067414E-01 -0.10471463832E-01  0.23378351578E-01  0.00000000000E+00 0.  1.
     999901    1    3    3    0    0  0.94640986012E-01 -0.10100268286E+00 -0.10786726713E-01  0.89088428634E+00  0.88000000000E+00 0. -1.
        -11    1    4    4    0    0 -0.43231921800E-01  0.47198148784E-01  0.14806154366E-01  0.65697394464E-01  0.51100000000E-03 0.  1.
         11    1    4    4    0    0 -0.54350380517E-01  0.33110466662E-01  0.64520361792E-02  0.63969967616E-01  0.51100000000E-03 0. -1.
</event>
<event>
 8    1  0.1128641E+005  0.1043930E+01  0.7957747E-01            NaN
         13   -1    0    0    0    0  0.00000000000E+00  0.00000000000E+00  0.74505805969E-08  0.10566000000E+00  0.10566000000E+00 0.  1.
     999900   -1    0    0    0    0 -0.00000000000E+00 -0.00000000000E+00 -0.74505805969E-08  0.93827000000E+00  0.93827000000E+00 0.  1.
     999902    2    1    2    0    0  0.95469656959E-03  0.18955024202E-01  0.13406215378E-01  0.10206935846E+01  0.10204290582E+01 0.  0.
     999903    2    3    3    0    0 -0.54751256691E-01 -0.10933663424E+00 -0.33492310254E-01  0.12841483080E+00  0.20406720135E-01 0.  0.
         14    1    1    2    0    0 -0.95469656959E-03 -0.18955024202E-01 -0.13406215378E-01  0.23236415360E-01  0.00000000000E+00 0. -1.
     999901    1    3    3    0    0  0.55705953261E-01  0.12829165844E+00  0.46898525632E-01  0.89227875384E+00  0.88000000000E+00 0.  1.
        -11    1    4    4    0    0 -0.31551077395E-01 -0.82840351859E-01 -0.21608612826E-01  0.91242466265E-01  0.51100000000E-03 0. -1.
         11    1    4    4    0    0 -0.23200179297E-01 -0.26496282379E-01 -0.11883697428E-01  0.37172364531E-01  0.51100000000E-03 0.  1.
</event>
<event>
 8    1  0.1128641E+005  0.1043930E+01  0.7957747E-01            NaN
         13   -1    0    0    0    0  0.00000000000E+00  0.00000000000E+00  0.74505805969E-08  0.10566000000E+00  0.10566000000E+00 0. -1.
     999900   -1    0    0    0    0 -0.00000000000E+00 -0.00000000000E+00 -0.74505805969E-08  0.93827000000E+00  0.93827000000E+00 0. -1.
     999902    2    1    2    0    0 -0.85556816313E-03  0.24400727904E-01 -0.48442645452E-03  0.10195094720E+01  0.10192169550E+01 0.  0.
     999903    2    3    3    0    0  0.10837322071E+00 -0.37784254378E-01 -0.55001619079E-01  0.12890853744E+00  0.20489706612E-01 0.  0.
         14    1    1    2    0    0  0.85556816313E-03 -0.24400727904E-01  0.48442645452E-03  0.24420528007E-01  0.00000000000E+00 0. -1.
     999901    1    3    3    0    0 -0.10922878887E+00  0.62184982282E-01  0.54517192625E-01  0.89060093456E+00  0.88000000000E+00 0. -1.
        -11    1    4    4    0    0  0.73276314032E-01 -0.21381535891E-01 -0.26472050703E-01  0.80793680846E-01  0.51100000000E-03 0. -1.
         11    1    4    4    0    0  0.35096906678E-01 -0.16402718487E-01 -0.28529568377E-01  0.48114856592E-01  0.51100000000E-03 0.  1.
</event>
<event>
 8    1  0.1128641E+005  0.1043930E+01  0.7957747E-01            NaN
         13   -1    0    0    0    0  0.00000000000E+00  0.00000000000E+00  0.74505805969E-08  0.10566000000E+00  0.10566000000E+00 0.  1.
     999900   -1    0    0    0    0 -0.00000000000E+00 -0.00000000000E+00 -0.74505805969E-08  0.93827000000E+00  0.93827000000E+00 0. -1.
     999902    2    1    2    0    0 -0.13915764661E-02  0.91668341769E-02 -0.21167074301E-01  0.10208212924E+01  0.10205596987E+01 0.  0.
     999903    2    3    3    0    0  0.58051906415E-02 -0.10501032640E+00  0.71484247721E-01  0.12859235038E+00  0.19108270849E-01 0.  0.
         14    1    1    2    0    0  0.13915764661E-02 -0.91668341769E-02  0.21167074301E-01  0.23108707631E-01  0.00000000000E+00 0.  1.
     999901    1    3    3    0    0 -0.71967671076E-02  0.11417716058E+00 -0.92651322022E-01  0.89222894199E+00  0.88000000000E+00 0. -1.
        -11    1    4    4    0    0 -0.27347404781E-02 -0.33982021958E-01  0.14166873722E-01  0.36921782919E-01  0.51100000000E-03 0.  1.
         11    1    4    4    0    0  0.85399311196E-02 -0.71028304441E-01  0.57317373999E-01  0.91670567459E-01  0.51100000000E-03 0. -1.
</event>
<event>
 8    1  0.1128641E+005  0.1043930E+01  0.7957747E-01            NaN
         13   -1    0    0    0    0  0.00000000000E+00  0.00000000000E+00  0.74505805969E-08  0.10566000000E+00  0.10566000000E+00 0. -1.
     999900   -1    0    0    0    0 -0.00000000000E+00 -0.00000000000E+00 -0.74505805969E-08  0.93827000000E+00  0.93827000000E+00 0.  1.
     999902    2    1    2    0    0 -0.10975511395E-01  0.57868157841E-02 -0.20174087791E-01  0.10202457667E+01  0.10199708239E+01 0.  0.
     999903    2    3    3    0    0  0.10914531468E+00  0.20469145504E-01  0.61055791459E-01  0.12825760709E+00  0.19761540181E-01 0.  0.
         14    1    1    2    0    0  0.10975511395E-01 -0.57868157841E-02  0.20174087791E-01  0.23684233268E-01  0.00000000000E+00 0. -1.
     999901    1    3    3    0    0 -0.12012082608E+00 -0.14682329720E-01 -0.81229879250E-01  0.89198815964E+00  0.88000000000E+00 0.  1.
        -11    1    4    4    0    0  0.52696687304E-01  0.11411182587E-01  0.40745781170E-01  0.67584286229E-01  0.51100000000E-03 0. -1.
         11    1    4    4    0    0  0.56448627378E-01  0.90579629172E-02  0.20310010289E-01  0.60673320859E-01  0.51100000000E-03 0.  1.
</event>
<event>
 8    1  0.1128641E+005  0.1043930E+01  0.7957747E-01            NaN
         13   -1    0    0    0    0  0.00000000000E+00  0.00000000000E+00  0.74505805969E-08  0.10566000000E+00  0.10566000000E+00 0. -1.
     999900   -1    0    0    0    0 -0.00000000000E+00 -0.00000000000E+00 -0.74505805969E-08  0.93827000000E+00  0.93827000000E+00 0. -1.
     999902    2    1    2    0    0  0.15118841173E-01 -0.27980937170E-02  0.18519289264E-01  0.10198598367E+01  0.10195757518E+01 0.  0.
     999903    2    3    3    0    0 -0.42748357685E-01 -0.10926476421E+00  0.54236737136E-01  0.13083818301E+00  0.20268095524E-01 0.  0.
         14    1    1    2    0    0 -0.15118841173E-01  0.27980937170E-02 -0.18519289264E-01  0.24070163308E-01  0.00000000000E+00 0.  1.
     999901    1    3    3    0    0  0.57867198858E-01  0.10646667049E+00 -0.35717447873E-01  0.88902165368E+00  0.88000000000E+00 0.  1.
        -11    1    4    4    0    0  0.78347289202E-03 -0.66731876547E-02  0.72317056857E-02  0.98845309131E-02  0.51100000000E-03 0. -1.
         11    1    4    4    0    0 -0.43531830577E-01 -0.10259157655E+00  0.47005031451E-01  0.12095365210E+00  0.51100000000E-03 0.  1.
</event>
<event>
 7    1  0.1128641E+005  0.1043930E+01  0.7957747E-01            NaN
         13   -1    0    0    0    0  0.00000000000E+00  0.00000000000E+00  0.74505805969E-08  0.10566000000E+00  0.10566000000E+00 0.  1.
     999900   -1    0    0    0    0 -0.00000000000E+00 -0.00000000000E+00 -0.74505805969E-08  0.93827000000E+00  0.93827000000E+00 0.  1.
     999903    2    1    2    0    0 -0.69017936134E-02  0.26766460611E-01 -0.68833233897E-01  0.76756776526E-01  0.19736019993E-01 0.  0.
         14    1    1    2    0    0  0.37832006415E-01  0.91850307292E-02 -0.65024862601E-01  0.75788246154E-01  0.00000000000E+00 0. -1.
     999901    1    1    2    0    0 -0.30930212801E-01 -0.35951491340E-01  0.13385809650E+00  0.89138497732E+00  0.88000000000E+00 0. -1.
        -11    1    3    3    0    0  0.41513694413E-02  0.86268004271E-02 -0.38801388092E-01  0.39968292342E-01  0.51100000000E-03 0. -1.
         11    1    3    3    0    0 -0.11053163055E-01  0.18139660184E-01 -0.30031845805E-01  0.36788484184E-01  0.51100000000E-03 0.  1.
</event>
<event>
 8    1  0.1128641E+005  0.1043930E+01  0.7957747E-01            NaN
         13   -1    0    0    0    0  0.00000000000E+00  0.00000000000E+00  0.74505805969E-08  0.10566000000E+00  0.10566000000E+00 0. -1.
     999900   -1    0    0    0    0 -0.00000000000E+00 -0.00000000000E+00 -0.74505805969E-08  0.93827000000E+00  0.93827000000E+00 0.  1.
     999902    2    1    2    0    0 -0.20530363839E-01  0.39934109403E-02  0.15927671530E-01  0.10176405745E+01  0.10173009413E+01 0.  0.
     999903    2    3    3    0    0 -0.24593111756E-01  0.12525351058E+00 -0.17663783134E-02  0.12913981648E+00  0.19511766984E-01 0.  0.
         14    1    1    2    0    0  0.20530363839E-01 -0.39934109403E-02 -0.15927671530E-01  0.26289425454E-01  0.00000000000E+00 0.  1.
     999901    1    3    3    0    0  0.40627479173E-02 -0.12126009964E+00  0.17694049844E-01  0.88850075807E+00  0.88000000000E+00 0. -1.
        -11    1    4    4    0    0 -0.24831564932E-01  0.78123808024E-01 -0.21552814267E-02  0.82005136157E-01  0.51100000000E-03 0. -1.
         11    1    4    4    0    0  0.23845317556E-03  0.47129702552E-01  0.38890311326E-03  0.47134680323E-01  0.51100000000E-03 0.  1.
</event>
<event>
 8    1  0.1128641E+005  0.1043930E+01  0.7957747E-01            NaN
         13   -1    0    0    0    0  0.00000000000E+00  0.00000000000E+00  0.74505805969E-08  0.10566000000E+00  0.10566000000E+00 0. -1.
     999900   -1    0    0    0    0 -0.00000000000E+00 -0.00000000000E+00 -0.74505805969E-08  0.93827000000E+00  0.93827000000E+00 0. -1.
     999902    2    1    2    0    0  0.68820395013E-02  0.25305109173E-01 -0.69008843983E-02  0.10168129717E+01  0.10164513201E+01 0.  0.
     999903    2    3    3    0    0  0.98820690970E-01 -0.35528968093E-01 -0.65705271692E-01  0.12798708518E+00  0.32181900318E-01 0.  0.
         14    1    1    2    0    0 -0.68820395013E-02 -0.25305109173E-01  0.69008843983E-02  0.27117028293E-01  0.00000000000E+00 0. -1.
     999901    1    3    3    0    0 -0.91938651468E-01  0.60834077266E-01  0.58804387294E-01  0.88882588652E+00  0.88000000000E+00 0.  1.
        -11    1    4    4    0    0  0.34916133500E-01  0.28224585761E-02 -0.25245308080E-01  0.43182048957E-01  0.51100000000E-03 0. -1.
         11    1    4    4    0    0  0.63904557469E-01 -0.38351426669E-01 -0.40459963612E-01  0.84805036226E-01  0.51100000000E-03 0.  1.
</event>
<event>
 8    1  0.1128641E+005  0.1043930E+01  0.7957747E-01            NaN
         13   -1    0    0    0    0  0.00000000000E+00  0.00000000000E+00  0.74505805969E-08  0.10566000000E+00  0.10566000000E+00 0. -1.
     999900   -1    0    0    0    0 -0.00000000000E+00 -0.00000000000E+00 -0.74505805969E-08  0.93827000000E+00  0.93827000000E+00 0. -1.
     999902    2    1    2    0    0  0.10104527105E-01  0.11073922826E-01 -0.16603289200E-01  0.10215603230E+01  0.10213153730E+01 0.  0.
     999903    2    3    3    0    0 -0.82137837533E-01  0.10129817908E+00 -0.45006367170E-02  0.13206858927E+00  0.20344805284E-01 0.  0.
         14    1    1    2    0    0 -0.10104527105E-01 -0.11073922826E-01  0.16603289200E-01  0.22369676954E-01  0.00000000000E+00 0. -1.
     999901    1    3    3    0    0  0.92242364638E-01 -0.90224256256E-01 -0.12102652483E-01  0.88949173377E+00  0.88000000000E+00 0.  1.
        -11    1    4    4    0    0 -0.16548888578E-01  0.26322720306E-01 -0.89294239474E-02  0.32353470455E-01  0.51100000000E-03 0. -1.
         11    1    4    4    0    0 -0.65588948955E-01  0.74975458777E-01  0.44287872303E-02  0.99715118819E-01  0.51100000000E-03 0.  1.
</event>
<event>
 8    1  0.1128641E+005  0.1043930E+01  0.7957747E-01            NaN
         13   -1    0    0    0    0  0.00000000000E+00  0.00000000000E+00  0.74505805969E-08  0.10566000000E+00  0.10566000000E+00 0. -1.
     999900   -1    0    0    0    0 -0.00000000000E+00 -0.00000000000E+00 -0.74505805969E-08  0.93827000000E+00  0.93827000000E+00 0.  1.
     999902    2    1    2    0    0  0.12462666687E-01 -0.11922182429E-01 -0.15006124467E-01  0.10210686731E+01  0.10208127130E+01 0.  0.
     999903    2    3    3    0    0 -0.71895371801E-01 -0.92226238767E-01  0.54763093580E-01  0.13065710317E+00  0.19941378780E-01 0.  0.
         14    1    1    2    0    0 -0.12462666687E-01  0.11922182429E-01  0.15006124467E-01  0.22861326872E-01  0.00000000000E+00 0. -1.
     999901    1    3    3    0    0  0.84358038488E-01  0.80304056339E-01 -0.69769218047E-01  0.89041156995E+00  0.88000000000E+00 0.  1.
        -11    1    4    4    0    0 -0.62124695192E-01 -0.75024420520E-01  0.52725820540E-01  0.11076287600E+00  0.51100000000E-03 0.  1.
         11    1    4    4    0    0 -0.97706766092E-02 -0.17201818247E-01  0.20372730401E-02  0.19894227174E-01  0.51100000000E-03 0. -1.
</event>
<event>
 8    1  0.1128641E+005  0.1043930E+01  0.7957747E-01            NaN
         13   -1    0    0    0    0  0.00000000000E+00  0.00000000000E+00  0.74505805969E-08  0.10566000000E+00  0.10566000000E+00 0.  1.
     999900   -1    0    0    0    0 -0.00000000000E+00 -0.00000000000E+00 -0.74505805969E-08  0.93827000000E+00  0.93827000000E+00 0. -1.
     999902    2    1    2    0    0  0.20429420240E-02 -0.19361460930E-01 -0.92603319613E-02  0.10223709293E+01  0.10221435924E+01 0.  0.
     999903    2    3    3    0    0 -0.40928402989E-01 -0.35671767318E-01 -0.12103731132E+00  0.13411046316E+00  0.19697117672E-01 0.  0.
         14    1    1    2    0    0 -0.20429420240E-02  0.19361460930E-01  0.92603319613E-02  0.21559070701E-01  0.00000000000E+00 0.  1.
     999901    1    3    3    0    0  0.42971345013E-01  0.16310306389E-01  0.11177697935E+00  0.88826046614E+00  0.88000000000E+00 0.  1.
        -11    1    4    4    0    0 -0.95914720655E-02 -0.18971333766E-01 -0.33936703139E-01  0.40048330580E-01  0.51100000000E-03 0.  1.
         11    1    4    4    0    0 -0.31336930923E-01 -0.16700433552E-01 -0.87100608176E-01  0.94062132584E-01  0.51100000000E-03 0. -1.
</event>
<event>
 8    1  0.1128641E+005  0.1043930E+01  0.7957747E-01            NaN
         13   -1    0    0    0    0  0.00000000000E+00  0.00000000000E+00  0.74505805969E-08  0.10566000000E+00  0.10566000000E+00 0. -1.
     999900   -1    0    0    0    0 -0.00000000000E+00 -0.00000000000E+00 -0.74505805969E-08  0.93827000000E+00  0.93827000000E+00 0.  1.
     999902    2    1    2    0    0  0.19001964119E-01 -0.92693305012E-02  0.91838003596E-02  0.10208792448E+01  0.10206189764E+01 0.  0.
     999903    2    3    3    0    0 -0.82266863054E-01  0.30174705988E-01 -0.91728928569E-01  0.12846981729E+00  0.20296501661E-01 0.  0.
         14    1    1    2    0    0 -0.19001964119E-01  0.92693305012E-02 -0.91838003596E-02  0.23050755245E-01  0.00000000000E+00 0. -1.
     999901    1    3    3    0    0  0.10126882717E+00 -0.39444036489E-01  0.10091272893E+00  0.89240942747E+00  0.88000000000E+00 0. -1.
        -11    1    4    4    0    0 -0.15152634654E-01  0.14571999837E-01 -0.20586593413E-01  0.29428123718E-01  0.51100000000E-03 0. -1.
         11    1    4    4    0    0 -0.67114228400E-01  0.15602706150E-01 -0.71142335156E-01  0.99041693571E-01  0.51100000000E-03 0.  1.
</event>
<event>
 8    1  0.1128641E+005  0.1043930E+01  0.7957747E-01            NaN
         13   -1    0    0    0    0  0.00000000000E+00  0.00000000000E+00  0.74505805969E-08  0.10566000000E+00  0.10566000000E+00 0. -1.
     999900   -1    0    0    0    0 -0.00000000000E+00 -0.00000000000E+00 -0.74505805969E-08  0.93827000000E+00  0.93827000000E+00 0. -1.
     999902    2    1    2    0    0 -0.16698687439E-02 -0.23388624197E-01 -0.33658795266E-02  0.10202414933E+01  0.10199664501E+01 0.  0.
     999903    2    3    3    0    0  0.81044563134E-01 -0.67855762951E-01 -0.76878096785E-01  0.13219698444E+00  0.19828644722E-01 0.  0.
         14    1    1    2    0    0  0.16698687439E-02  0.23388624197E-01  0.33658795266E-02  0.23688506674E-01  0.00000000000E+00 0. -1.
     999901    1    3    3    0    0 -0.82714431878E-01  0.44467138754E-01  0.73512217258E-01  0.88804450888E+00  0.88000000000E+00 0.  1.
        -11    1    4    4    0    0  0.53235620117E-01 -0.50833993645E-01 -0.43347544624E-01  0.85424802634E-01  0.51100000000E-03 0. -1.
         11    1    4    4    0    0  0.27808943018E-01 -0.17021769306E-01 -0.33530552161E-01  0.46772181810E-01  0.51100000000E-03 0.  1.
</event>
<event>
 8    1  0.1128641E+005  0.1043930E+01  0.7957747E-01            NaN
         13   -1    0    0    0    0  0.00000000000E+00  0.00000000000E+00  0.74505805969E-08  0.10566000000E+00  0.10566000000E+00 0. -1.
     999900   -1    0    0    0    0 -0.00000000000E+00 -0.00000000000E+00 -0.74505805969E-08  0.93827000000E+00  0.93827000000E+00 0. -1.
     999902    2    1    2    0    0 -0.83812120451E-02  0.20774872027E-01 -0.45674876222E-02  0.10210673237E+01  0.10208113330E+01 0.  0.
     999903    2    3    3    0    0  0.45727834433E-01  0.99572638673E-01  0.71903877897E-01  0.13259405644E+00  0.20131342059E-01 0.  0.
         14    1    1    2    0    0  0.83812120451E-02 -0.20774872027E-01  0.45674876222E-02  0.22862676270E-01  0.00000000000E+00 0. -1.
     999901    1    3    3    0    0 -0.54109046478E-01 -0.78797766646E-01 -0.76471365519E-01  0.88847326729E+00  0.88000000000E+00 0. -1.
        -11    1    4    4    0    0  0.22027233929E-01  0.29702334817E-01  0.30842511285E-01  0.48155470629E-01  0.51100000000E-03 0. -1.
         11    1    4    4    0    0  0.23700600505E-01  0.69870303856E-01  0.41061366612E-01  0.84438585813E-01  0.51100000000E-03 0.  1.
</event>
<event>
 8    1  0.1128641E+005  0.1043930E+01  0.7957747E-01            NaN
         13   -1    0    0    0    0  0.00000000000E+00  0.00000000000E+00  0.74505805969E-08  0.10566000000E+00  0.10566000000E+00 0.  1.
     999900   -1    0    0    0    0 -0.00000000000E+00 -0.00000000000E+00 -0.74505805969E-08  0.93827000000E+00  0.93827000000E+00 0. -1.
     999902    2    1    2    0    0  0.14059611538E-01  0.16522413332E-01  0.91292751669E-02  0.10203926577E+01  0.10201211542E+01 0.  0.
     999903    2    3    3    0    0  0.26462806403E-01 -0.12422267859E+00 -0.66363716027E-02  0.12898277677E+00  0.21470008766E-01 0.  0.
         14    1    1    2    0    0 -0.14059611538E-01 -0.16522413332E-01 -0.91292751669E-02  0.23537342331E-01  0.00000000000E+00 0.  1.
     999901    1    3    3    0    0 -0.12403194865E-01  0.14074509192E+00  0.15765646770E-01  0.89140988090E+00  0.88000000000E+00 0. -1.
        -11    1    4    4    0    0 -0.13760501803E-02 -0.76000706614E-02 -0.47219987134E-02  0.90671374207E-02  0.51100000000E-03 0. -1.
         11    1    4    4    0    0  0.27838856583E-01 -0.11662260793E+00 -0.19143728893E-02  0.11991563935E+00  0.51100000000E-03 0.  1.
</event>
<event>
 8    1  0.1128641E+005  0.1043930E+01  0.7957747E-01            NaN
         13   -1    0    0    0    0  0.00000000000E+00  0.00000000000E+00  0.74505805969E-08  0.10566000000E+00  0.10566000000E+00 0. -1.
     999900   -1    0    0    0    0 -0.00000000000E+00 -0.00000000000E+00 -0.74505805969E-08  0.93827000000E+00  0.93827000000E+00 0.  1.
     999902    2    1    2    0    0 -0.12820960360E-01  0.30341189736E-02  0.19240357551E-01  0.10206110322E+01  0.10203446010E+01 0.  0.
     999903    2    3    3    0    0 -0.54997768691E-01 -0.11528942395E+00 -0.20048326415E-01  0.13082288622E+00  0.19906941759E-01 0.  0.
         14    1    1    2    0    0  0.12820960360E-01 -0.30341189736E-02 -0.19240357551E-01  0.23318967841E-01  0.00000000000E+00 0.  1.
     999901    1    3    3    0    0  0.42176808330E-01  0.11832354292E+00  0.39288683966E-01  0.88978814594E+00  0.88000000000E+00 0. -1.
        -11    1    4    4    0    0 -0.48597406504E-01 -0.86329190504E-01 -0.10321444291E-01  0.99605373276E-01  0.51100000000E-03 0. -1.
         11    1    4    4    0    0 -0.64003621862E-02 -0.28960233446E-01 -0.97268821242E-02  0.31217512941E-01  0.51100000000E-03 0.  1.
</event>
<event>
 8    1  0.1128641E+005  0.1043930E+01  0.7957747E-01            NaN
         13   -1    0    0    0    0  0.00000000000E+00  0.00000000000E+00  0.74505805969E-08  0.10566000000E+00  0.10566000000E+00 0.  1.
     999900   -1    0    0    0    0 -0.00000000000E+00 -0.00000000000E+00 -0.74505805969E-08  0.93827000000E+00  0.93827000000E+00 0.  1.
     999902    2    1    2    0    0 -0.24896183545E-01  0.35769875695E-02  0.10815858992E-01  0.10165512199E+01  0.10161824566E+01 0.  0.
     999903    2    3    3    0    0  0.64056215370E-01 -0.94511416029E-01 -0.46127002690E-01  0.12482460612E+00  0.20442001569E-01 0.  0.
         14    1    1    2    0    0  0.24896183545E-01 -0.35769875695E-02 -0.10815858992E-01  0.27378780120E-01  0.00000000000E+00 0. -1.
     999901    1    3    3    0    0 -0.88952398915E-01  0.98088403598E-01  0.56942861682E-01  0.89172661376E+00  0.88000000000E+00 0. -1.
        -11    1    4    4    0    0  0.31058358099E-01 -0.55852403574E-01 -0.34718017710E-01  0.72730423259E-01  0.51100000000E-03 0. -1.
         11    1    4    4    0    0  0.32997857271E-01 -0.38659012455E-01 -0.11408984980E-01  0.52094182859E-01  0.51100000000E-03 0.  1.
</event>
<event>
 8    1  0.1128641E+005  0.1043930E+01  0.7957747E-01            NaN
         13   -1    0    0    0    0  0.00000000000E+00  0.00000000000E+00  0.74505805969E-08  0.10566000000E+00  0.10566000000E+00 0. -1.
     999900   -1    0    0    0    0 -0.00000000000E+00 -0.00000000000E+00 -0.74505805969E-08  0.93827000000E+00  0.93827000000E+00 0. -1.
     999902    2    1    2    0    0  0.84680959443E-02 -0.15710768294E-01 -0.15499529307E-01  0.10202916350E+01  0.10200177686E+01 0.  0.
     999903    2    3    3    0    0 -0.10671612960E+00  0.62763474156E-01 -0.30287340517E-01  0.12920000569E+00  0.21159689699E-01 0.  0.
         14    1    1    2    0    0 -0.84680959443E-02  0.15710768294E-01  0.15499529307E-01  0.23638364961E-01  0.00000000000E+00 0. -1.
     999901    1    3    3    0    0  0.11518422555E+00 -0.78474242450E-01  0.14787811210E-01  0.89109162935E+00  0.88000000000E+00 0.  1.
        -11    1    4    4    0    0 -0.40909432302E-01  0.25219688706E-01 -0.22402567714E-01  0.53025941867E-01  0.51100000000E-03 0.  1.
         11    1    4    4    0    0 -0.65806697301E-01  0.37543785450E-01 -0.78847728026E-02  0.76174063819E-01  0.51100000000E-03 0. -1.
</event>
<event>
 8    1  0.1128641E+005  0.1043930E+01  0.7957747E-01            NaN
         13   -1    0    0    0    0  0.00000000000E+00  0.00000000000E+00  0.74505805969E-08  0.10566000000E+00  0.10566000000E+00 0. -1.
     999900   -1    0    0    0    0 -0.00000000000E+00 -0.00000000000E+00 -0.74505805969E-08  0.93827000000E+00  0.93827000000E+00 0.  1.
     999902    2    1    2    0    0  0.17124732166E-01  0.93409999099E-02  0.91230742505E-02  0.10223953485E+01  0.10221685318E+01 0.  0.
     999903    2    3    3    0    0  0.12157282428E+00 -0.42432748800E-02 -0.52637858567E-01  0.13396507590E+00  0.19440689794E-01 0.  0.
         14    1    1    2    0    0 -0.17124732166E-01 -0.93409999099E-02 -0.91230742505E-02  0.21534651491E-01  0.00000000000E+00 0.  1.
     999901    1    3    3    0    0 -0.10444809212E+00  0.13584274790E-01  0.61760932817E-01  0.88843027261E+00  0.88000000000E+00 0.  1.
        -11    1    4    4    0    0  0.98617860369E-02 -0.55890476199E-02 -0.31596714450E-02  0.11778663837E-01  0.51100000000E-03 0.  1.
         11    1    4    4    0    0  0.11171103825E+00  0.13457727398E-02 -0.49478187122E-01  0.12218641206E+00  0.51100000000E-03 0. -1.
</event>
<event>
 8    1  0.1128641E+005  0.1043930E+01  0.7957747E-01            NaN
         13   -1    0    0    0    0  0.00000000000E+00  0.00000000000E+00  0.74505805969E-08  0.10566000000E+00  0.10566000000E+00 0.  1.
     999900   -1    0    0    0    0 -0.00000000000E+00 -0.00000000000E+00 -0.74505805969E-08  0.93827000000E+00  0.93827000000E+00 0.  1.
     999902    2    1    2    0    0  0.22049335568E-01 -0.70993695688E-02  0.59495214993E-02  0.10200140837E+01  0.10197336710E+01 0.  0.
     999903    2    3    3    0    0  0.33827070889E-01 -0.41558577949E-01  0.11906408497E+00  0.13202700238E+00  0.19582821593E-01 0.  0.
         14    1    1    2    0    0 -0.22049335568E-01  0.70993695688E-02 -0.59495214993E-02  0.23915916318E-01  0.00000000000E+00 0. -1.
     999901    1    3    3    0    0 -0.11777735321E-01  0.34459208381E-01 -0.11311456347E+00  0.88798708130E+00  0.88000000000E+00 0.  1.
        -11    1    4    4    0    0  0.54877701127E-02  0.20428583716E-03  0.56841731830E-02  0.79201199036E-02  0.51100000000E-03 0. -1.
         11    1    4    4    0    0  0.28339300777E-01 -0.41762863787E-01  0.11337991179E+00  0.12410688248E+00  0.51100000000E-03 0.  1.
</event>
<event>
 8    1  0.1128641E+005  0.1043930E+01  0.7957747E-01            NaN
         13   -1    0    0    0    0  0.00000000000E+00  0.00000000000E+00  0.74505805969E-08  0.10566000000E+00  0.10566000000E+00 0. -1.
     999900   -1    0    0    0    0 -0.00000000000E+00 -0.00000000000E+00 -0.74505805969E-08  0.93827000000E+00  0.93827000000E+00 0. -1.
     999902    2    1    2    0    0  0.33132699489E-02  0.12547123206E-01 -0.19332897567E-01  0.10206454775E+01  0.10203798419E+01 0.  0.
     999903    2    3    3    0    0 -0.35350755293E-01  0.12433731643E+00 -0.22038653930E-01  0.13272697042E+00  0.20525648624E-01 0.  0.
         14    1    1    2    0    0 -0.33132699489E-02 -0.12547123206E-01  0.19332897567E-01  0.23284522474E-01  0.00000000000E+00 0. -1.
     999901    1    3    3    0    0  0.38664025242E-01 -0.11179019323E+00  0.27057563631E-02  0.88791850711E+00  0.88000000000E+00 0. -1.
        -11    1    4    4    0    0 -0.22749463690E-01  0.45724556061E-01 -0.12132909186E-01  0.52495159124E-01  0.51100000000E-03 0.  1.
         11    1    4    4    0    0 -0.12601291603E-01  0.78612760372E-01 -0.99057447445E-02  0.80231811292E-01  0.51100000000E-03 0. -1.
</event>
<event>
 8    1  0.1128641E+005  0.1043930E+01  0.7957747E-01            NaN
         13   -1    0    0    0    0  0.00000000000E+00  0.00000000000E+00  0.74505805969E-08  0.10566000000E+00  0.10566000000E+00 0. -1.
     999900   -1    0    0    0    0 -0.00000000000E+00 -0.00000000000E+00 -0.74505805969E-08  0.93827000000E+00  0.93827000000E+00 0.  1.
     999902    2    1    2    0    0  0.82101024280E-02  0.81684242892E-02 -0.21436627597E-01  0.10195649032E+01  0.10192737287E+01 0.  0.
     999903    2    3    3    0    0  0.87784142255E-01 -0.50110985002E-01  0.76995575412E-01  0.12860058524E+00  0.19814778380E-01 0.  0.
         14    1    1    2    0    0 -0.82101024280E-02 -0.81684242892E-02  0.21436627597E-01  0.24365096757E-01  0.00000000000E+00 0. -1.
     999901    1    3    3    0    0 -0.79574039827E-01  0.58279409292E-01 -0.98432203009E-01  0.89096431800E+00  0.88000000000E+00 0.  1.
        -11    1    4    4    0    0  0.32907409418E-01 -0.19124342745E-01  0.17364966133E-01  0.41838274939E-01  0.51100000000E-03 0. -1.
         11    1    4    4    0    0  0.54876732837E-01 -0.30986642257E-01  0.59630609278E-01  0.86762310303E-01  0.51100000000E-03 0.  1.
</event>
<event>
 8    1  0.1176521E+005  0.1043930E+01  0.7957747E-01            NaN
         13   -1    0    0    0    0  0.00000000000E+00  0.00000000000E+00  0.74505805969E-08  0.10566000000E+00  0.10566000000E+00 0. -1.
     999900   -1    0    0    0    0 -0.00000000000E+00 -0.00000000000E+00 -0.74505805969E-08  0.93827000000E+00  0.93827000000E+00 0.  1.
     999902    2    1    2    0    0  0.34403666462E-02  0.23405860538E-01  0.22581769894E-02  0.10201651143E+01  0.10198882736E+01 0.  0.
     999903    2    3    3    0    0 -0.27954100145E-01  0.12782586351E+00  0.17448655361E-01  0.13330554242E+00  0.18574955358E-01 0.  0.
         14    1    1    2    0    0 -0.34403666462E-02 -0.23405860538E-01 -0.22581769894E-02  0.23764885724E-01  0.00000000000E+00 0. -1.
     999901    1    3    3    0    0  0.31394466791E-01 -0.10442000298E+00 -0.15190478372E-01  0.88685957186E+00  0.88000000000E+00 0.  1.
        -11    1    4    4    0    0 -0.75857184912E-03  0.43403591166E-01  0.74489483628E-02  0.44047645908E-01  0.51100000000E-03 0.  1.
         11    1    4    4    0    0 -0.27195528296E-01  0.84422272349E-01  0.99997069985E-02  0.89257896507E-01  0.51100000000E-03 0. -1.
</event>
<event>
 8    1  0.1128641E+005  0.1043930E+01  0.7957747E-01            NaN
         13   -1    0    0    0    0  0.00000000000E+00  0.00000000000E+00  0.74505805969E-08  0.10566000000E+00  0.10566000000E+00 0. -1.
     999900   -1    0    0    0    0 -0.00000000000E+00 -0.00000000000E+00 -0.74505805969E-08  0.93827000000E+00  0.93827000000E+00 0.  1.
     999902    2    1    2    0    0  0.17557403966E-01  0.14115634797E-01 -0.56030002803E-02  0.10207156253E+01  0.10204516062E+01 0.  0.
     999903    2    3    3    0    0 -0.11078042670E+00  0.63474109354E-01  0.12892290006E-01  0.12984586292E+00  0.19810892937E-01 0.  0.
         14    1    1    2    0    0 -0.17557403966E-01 -0.14115634797E-01  0.56030002803E-02  0.23214374682E-01  0.00000000000E+00 0. -1.
     999901    1    3    3    0    0  0.12833783066E+00 -0.49358474557E-01 -0.18495290287E-01  0.89086976240E+00  0.88000000000E+00 0. -1.
        -11    1    4    4    0    0 -0.70622499712E-01  0.51008389965E-01  0.72922485802E-02  0.87423288217E-01  0.51100000000E-03 0. -1.
         11    1    4    4    0    0 -0.40157926984E-01  0.12465719389E-01  0.56000414263E-02  0.42422574704E-01  0.51100000000E-03 0.  1.
</event>
<event>
 8    1  0.1128641E+005  0.1043930E+01  0.7957747E-01            NaN
         13   -1    0    0    0    0  0.00000000000E+00  0.00000000000E+00  0.74505805969E-08  0.10566000000E+00  0.10566000000E+00 0. -1.
     999900   -1    0    0    0    0 -0.00000000000E+00 -0.00000000000E+00 -0.74505805969E-08  0.93827000000E+00  0.93827000000E+00 0.  1.
     999902    2    1    2    0    0  0.21352988222E-01  0.17251378960E-02  0.10791218875E-01  0.10199429908E+01  0.10196608886E+01 0.  0.
     999903    2    3    3    0    0 -0.83670076982E-01 -0.22945129985E-01 -0.90289233225E-01  0.12761136848E+00  0.24603962242E-01 0.  0.
         14    1    1    2    0    0 -0.21352988222E-01 -0.17251378960E-02 -0.10791218875E-01  0.23987009225E-01  0.00000000000E+00 0.  1.
     999901    1    3    3    0    0  0.10502306520E+00  0.24670267881E-01  0.10108045210E+00  0.89233162229E+00  0.88000000000E+00 0. -1.
        -11    1    4    4    0    0 -0.35472995600E-01 -0.71098360804E-02 -0.54911324168E-01  0.65760153808E-01  0.51100000000E-03 0.  1.
         11    1    4    4    0    0 -0.48197081382E-01 -0.15835293904E-01 -0.35377909056E-01  0.61851214677E-01  0.51100000000E-03 0. -1.
</event>
<event>
 8    1  0.1128641E+005  0.1043930E+01  0.7957747E-01            NaN
         13   -1    0    0    0    0  0.00000000000E+00  0.00000000000E+00  0.74505805969E-08  0.10566000000E+00  0.10566000000E+00 0. -1.
     999900   -1    0    0    0    0 -0.00000000000E+00 -0.00000000000E+00 -0.74505805969E-08  0.93827000000E+00  0.93827000000E+00 0. -1.
     999902    2    1    2    0    0 -0.18736989336E-01 -0.82501450065E-02  0.10280420732E-02  0.10234313041E+01  0.10232259954E+01 0.  0.
     999903    2    3    3    0    0  0.35730147461E-01 -0.64873253491E-01 -0.10878349516E+00  0.13313280412E+00  0.20132368385E-01 0.  0.
         14    1    1    2    0    0  0.18736989336E-01  0.82501450065E-02 -0.10280420732E-02  0.20498695873E-01  0.00000000000E+00 0.  1.
     999901    1    3    3    0    0 -0.54467136797E-01  0.56623108485E-01  0.10981153724E+00  0.89029850001E+00  0.88000000000E+00 0.  1.
        -11    1    4    4    0    0  0.20507408948E-01 -0.46203759056E-01 -0.58104810545E-01  0.77017993367E-01  0.51100000000E-03 0.  1.
         11    1    4    4    0    0  0.15222738512E-01 -0.18669494435E-01 -0.50678684617E-01  0.56114810753E-01  0.51100000000E-03 0. -1.
</event>
<event>
 8    1  0.1170141E+005  0.1043930E+01  0.7957747E-01            NaN
         13   -1    0    0    0    0  0.00000000000E+00  0.00000000000E+00  0.74505805969E-08  0.10566000000E+00  0.10566000000E+00 0.  1.
     999900   -1    0    0    0    0 -0.00000000000E+00 -0.00000000000E+00 -0.74505805969E-08  0.93827000000E+00  0.93827000000E+00 0.  1.
     999902    2    1    2    0    0 -0.14408125131E-02 -0.17415875935E-01 -0.15693045659E-01  0.10204425489E+01  0.10201722087E+01 0.  0.
     999903    2    3    3    0    0  0.41402808252E-01  0.88017003189E-01 -0.83432805860E-01  0.13053224843E+00  0.24828399162E-01 0.  0.
         14    1    1    2    0    0  0.14408125131E-02  0.17415875935E-01  0.15693045659E-01  0.23487451061E-01  0.00000000000E+00 0. -1.
     999901    1    3    3    0    0 -0.42843620765E-01 -0.10543287912E+00  0.67739760201E-01  0.88991030051E+00  0.88000000000E+00 0. -1.
        -11    1    4    4    0    0  0.29636879132E-02  0.29481699390E-01 -0.32207159858E-01  0.43766611841E-01  0.51100000000E-03 0. -1.
         11    1    4    4    0    0  0.38439120339E-01  0.58535303799E-01 -0.51225646002E-01  0.86765636588E-01  0.51100000000E-03 0.  1.
</event>
<event>
 8    1  0.1128641E+005  0.1043930E+01  0.7957747E-01            NaN
         13   -1    0    0    0    0  0.00000000000E+00  0.00000000000E+00  0.74505805969E-08  0.10566000000E+00  0.10566000000E+00 0.  1.
     999900   -1    0    0    0    0 -0.00000000000E+00 -0.00000000000E+00 -0.74505805969E-08  0.93827000000E+00  0.93827000000E+00 0.  1.
     999902    2    1    2    0    0  0.23063126511E-01 -0.47816201551E-02  0.34483440963E-02  0.10201253204E+01  0.10198475408E+01 0.  0.
     999903    2    3    3    0    0  0.97198526988E-01 -0.15161643662E-01  0.86843948511E-01  0.13301843315E+00  0.21785386817E-01 0.  0.
         14    1    1    2    0    0 -0.23063126511E-01  0.47816201551E-02 -0.34483440963E-02  0.23804679640E-01  0.00000000000E+00 0. -1.
     999901    1    3    3    0    0 -0.74135400476E-01  0.10380023507E-01 -0.83395604414E-01  0.88710688721E+00  0.88000000000E+00 0.  1.
        -11    1    4    4    0    0  0.60223190472E-01 -0.17249895388E-01  0.63701255313E-01  0.89344852179E-01  0.51100000000E-03 0.  1.
         11    1    4    4    0    0  0.36975336516E-01  0.20882517256E-02  0.23142693197E-01  0.43673580975E-01  0.51100000000E-03 0. -1.
</event>
<event>
 8    1  0.1128641E+005  0.1043930E+01  0.7957747E-01            NaN
         13   -1    0    0    0    0  0.00000000000E+00  0.00000000000E+00  0.74505805969E-08  0.10566000000E+00  0.10566000000E+00 0. -1.
     999900   -1    0    0    0    0 -0.00000000000E+00 -0.00000000000E+00 -0.74505805969E-08  0.93827000000E+00  0.93827000000E+00 0.  1.
     999902    2    1    2    0    0 -0.79309420608E-02  0.10544326745E-01  0.19272371395E-01  0.10205739094E+01  0.10203066194E+01 0.  0.
     999903    2    3    3    0    0  0.65412577481E-01 -0.93248816566E-01 -0.55742906910E-01  0.12828495373E+00  0.19380675887E-01 0.  0.
         14    1    1    2    0    0  0.79309420608E-02 -0.10544326745E-01 -0.19272371395E-01  0.23356090590E-01  0.00000000000E+00 0.  1.
     999901    1    3    3    0    0 -0.73343519542E-01  0.10379314331E+00  0.75015278305E-01  0.89228895568E+00  0.88000000000E+00 0.  1.
        -11    1    4    4    0    0  0.45338795381E-01 -0.71093019463E-01 -0.32325897113E-01  0.90305307309E-01  0.51100000000E-03 0.  1.
         11    1    4    4    0    0  0.20073782100E-01 -0.22155797102E-01 -0.23417009798E-01  0.37979646416E-01  0.51100000000E-03 0. -1.
</event>
<event>
 8    1  0.1128641E+005  0.1043930E+01  0.7957747E-01            NaN
         13   -1    0    0    0    0  0.00000000000E+00  0.00000000000E+00  0.74505805969E-08  0.10566000000E+00  0.10566000000E+00 0.  1.
     999900   -1    0    0    0    0 -0.00000000000E+00 -0.00000000000E+00 -0.74505805969E-08  0.93827000000E+00  0.93827000000E+00 0. -1.
     999902    2    1    2    0    0  0.17014478750E-01  0.23500198068E-01  0.11713562453E-02  0.10148934046E+01  0.10144779440E+01 0.  0.
     999903    2    3    3    0    0 -0.12113197330E+00 -0.72973945052E-02  0.11904071359E-01  0.12351911448E+00  0.19724548288E-01 0.  0.
         14    1    1    2    0    0 -0.17014478750E-01 -0.23500198068E-01 -0.11713562453E-02  0.29036595390E-01  0.00000000000E+00 0. -1.
     999901    1    3    3    0    0  0.13814645205E+00  0.30797592573E-01 -0.10732715114E-01  0.89137429013E+00  0.88000000000E+00 0. -1.
        -11    1    4    4    0    0 -0.22890419492E-01 -0.88953721871E-02  0.46156698976E-02  0.24993288708E-01  0.51100000000E-03 0. -1.
         11    1    4    4    0    0 -0.98241553812E-01  0.15979776818E-02  0.72884014619E-02  0.98525825776E-01  0.51100000000E-03 0.  1.
</event>
<event>
 8    1  0.1128641E+005  0.1043930E+01  0.7957747E-01            NaN
         13   -1    0    0    0    0  0.00000000000E+00  0.00000000000E+00  0.74505805969E-08  0.10566000000E+00  0.10566000000E+00 0.  1.
     999900   -1    0    0    0    0 -0.00000000000E+00 -0.00000000000E+00 -0.74505805969E-08  0.93827000000E+00  0.93827000000E+00 0.  1.
     999902    2    1    2    0    0  0.85696195867E-02  0.15732217259E-01 -0.14999651552E-01  0.10205648425E+01  0.10202973425E+01 0.  0.
     999903    2    3    3    0    0  0.57658359926E-01 -0.85457414177E-01 -0.78661337830E-01  0.13112577416E+00  0.19465520086E-01 0.  0.
         14    1    1    2    0    0 -0.85696195867E-02 -0.15732217259E-01  0.14999651552E-01  0.23365157530E-01  0.00000000000E+00 0. -1.
     999901    1    3    3    0    0 -0.49088740340E-01  0.10118963144E+00  0.63661686278E-01  0.88943906831E+00  0.88000000000E+00 0. -1.
        -11    1    4    4    0    0  0.24925026742E-01 -0.44408399682E-01 -0.27779695729E-01  0.58011512101E-01  0.51100000000E-03 0.  1.
         11    1    4    4    0    0  0.32733333185E-01 -0.41049014495E-01 -0.50881642101E-01  0.73114262058E-01  0.51100000000E-03 0. -1.
</event>
<event>
 8    1  0.1128641E+005  0.1043930E+01  0.7957747E-01            NaN
         13   -1    0    0    0    0  0.00000000000E+00  0.00000000000E+00  0.74505805969E-08  0.10566000000E+00  0.10566000000E+00 0. -1.
     999900   -1    0    0    0    0 -0.00000000000E+00 -0.00000000000E+00 -0.74505805969E-08  0.93827000000E+00  0.93827000000E+00 0.  1.
     999902    2    1    2    0    0 -0.16579410184E-01  0.99691800670E-02  0.13093478052E-01  0.10205697654E+01  0.10203023794E+01 0.  0.
     999903    2    3    3    0    0 -0.74187557751E-01 -0.85975206073E-01  0.64212000253E-01  0.13201074810E+00  0.20202149747E-01 0.  0.
         14    1    1    2    0    0  0.16579410184E-01 -0.99691800670E-02 -0.13093478052E-01  0.23360234604E-01  0.00000000000E+00 0. -1.
     999901    1    3    3    0    0  0.57608147567E-01  0.95944386140E-01 -0.51118522201E-01  0.88855901729E+00  0.88000000000E+00 0.  1.
        -11    1    4    4    0    0 -0.48199613801E-01 -0.65390011389E-01  0.53056956113E-01  0.97027615002E-01  0.51100000000E-03 0.  1.
         11    1    4    4    0    0 -0.25987943950E-01 -0.20585194683E-01  0.11155044140E-01  0.34983133102E-01  0.51100000000E-03 0. -1.
</event>
<event>
 8    1  0.1128641E+005  0.1043930E+01  0.7957747E-01            NaN
         13   -1    0    0    0    0  0.00000000000E+00  0.00000000000E+00  0.74505805969E-08  0.10566000000E+00  0.10566000000E+00 0.  1.
     999900   -1    0    0    0    0 -0.00000000000E+00 -0.00000000000E+00 -0.74505805969E-08  0.93827000000E+00  0.93827000000E+00 0.  1.
     999902    2    1    2    0    0  0.16268979653E-01  0.15947948907E-01 -0.62713420855E-02  0.10203006432E+01  0.10200269878E+01 0.  0.
     999903    2    3    3    0    0 -0.32575229525E-01 -0.11196812869E+00 -0.50285306086E-01  0.12862496854E+00  0.20439253979E-01 0.  0.
         14    1    1    2    0    0 -0.16268979653E-01 -0.15947948907E-01  0.62713420855E-02  0.23629356843E-01  0.00000000000E+00 0.  1.
     999901    1    3    3    0    0  0.48844209178E-01  0.12791607759E+00  0.44013964000E-01  0.89167567462E+00  0.88000000000E+00 0.  1.
        -11    1    4    4    0    0 -0.25631700040E-01 -0.51844827368E-01 -0.25920167548E-01  0.63379700050E-01  0.51100000000E-03 0. -1.
         11    1    4    4    0    0 -0.69435294858E-02 -0.60123301319E-01 -0.24365138538E-01  0.65245268489E-01  0.51100000000E-03 0.  1.
</event>
<event>
 8    1  0.1128641E+005  0.1043930E+01  0.7957747E-01            NaN
         13   -1    0    0    0    0  0.00000000000E+00  0.00000000000E+00  0.74505805969E-08  0.10566000000E+00  0.10566000000E+00 0. -1.
     999900   -1    0    0    0    0 -0.00000000000E+00 -0.00000000000E+00 -0.74505805969E-08  0.93827000000E+00  0.93827000000E+00 0. -1.
     999902    2    1    2    0    0 -0.34215360453E-02  0.16618648423E-01 -0.16158106317E-01  0.10204998744E+01  0.10202308675E+01 0.  0.
     999903    2    3    3    0    0 -0.25225871404E-01  0.23185621802E-01  0.12336070976E+00  0.12921762160E+00  0.17476022798E-01 0.  0.
         14    1    1    2    0    0  0.34215360453E-02 -0.16618648423E-01  0.16158106317E-01  0.23430125567E-01  0.00000000000E+00 0. -1.
     999901    1    3    3    0    0  0.21804335359E-01 -0.65669733791E-02 -0.13951881608E+00  0.89128225284E+00  0.88000000000E+00 0. -1.
        -11    1    4    4    0    0 -0.13483850577E-01  0.33300780478E-02  0.64833562198E-01  0.66306527238E-01  0.51100000000E-03 0.  1.
         11    1    4    4    0    0 -0.11742020827E-01  0.19855543755E-01  0.58527147561E-01  0.62911094360E-01  0.51100000000E-03 0. -1.
</event>
<event>
 8    1  0.1128641E+005  0.1043930E+01  0.7957747E-01            NaN
         13   -1    0    0    0    0  0.00000000000E+00  0.00000000000E+00  0.74505805969E-08  0.10566000000E+00  0.10566000000E+00 0. -1.
     999900   -1    0    0    0    0 -0.00000000000E+00 -0.00000000000E+00 -0.74505805969E-08  0.93827000000E+00  0.93827000000E+00 0.  1.
     999902    2    1    2    0    0  0.10136127525E-01  0.19930464995E-01 -0.64761219827E-02  0.10206511540E+01  0.10203856494E+01 0.  0.
     999903    2    3    3    0    0  0.75891485858E-01  0.41822525216E-01  0.97514186931E-01  0.13182214129E+00  0.18958350150E-01 0.  0.
         14    1    1    2    0    0 -0.10136127525E-01 -0.19930464995E-01  0.64761219827E-02  0.23278846020E-01  0.00000000000E+00 0.  1.
     999901    1    3    3    0    0 -0.65755358333E-01 -0.21892060221E-01 -0.10399030891E+00  0.88882901269E+00  0.88000000000E+00 0.  1.
        -11    1    4    4    0    0  0.66092325516E-01  0.32830211385E-01  0.72312230653E-01  0.10332152774E+00  0.51100000000E-03 0. -1.
         11    1    4    4    0    0  0.97991603412E-02  0.89923138306E-02  0.25201956279E-01  0.28500613549E-01  0.51100000000E-03 0.  1.
</event>
<event>
 7    1  0.1128641E+005  0.1043930E+01  0.7957747E-01            NaN
         13   -1    0    0    0    0  0.00000000000E+00  0.00000000000E+00  0.74505805969E-08  0.10566000000E+00  0.10566000000E+00 0.  1.
     999900   -1    0    0    0    0 -0.00000000000E+00 -0.00000000000E+00 -0.74505805969E-08  0.93827000000E+00  0.93827000000E+00 0.  1.
     999902    2    1    2    0    0  0.12554850783E-01 -0.29706452599E-02  0.73200836892E-02  0.10290965029E+01  0.10289895916E+01 0.  0.
         14    1    1    2    0    0 -0.12554850783E-01  0.29706452599E-02 -0.73200836892E-02  0.14833497115E-01  0.00000000000E+00 0. -1.
     999901    1    3    3    0    0  0.45089519115E-01  0.10966549980E+00  0.55629875059E-01  0.88969335705E+00  0.88000000000E+00 0. -1.
        -11    1    3    3    0    0 -0.18502739989E-01 -0.63166699957E-01 -0.57215818055E-01  0.87214071842E-01  0.51100000000E-03 0.  1.
         11    1    3    3    0    0 -0.14031928343E-01 -0.49469445104E-01  0.89060266848E-02  0.52189073993E-01  0.51100000000E-03 0. -1.
</event>
<event>
 8    1  0.1128641E+005  0.1043930E+01  0.7957747E-01            NaN
         13   -1    0    0    0    0  0.00000000000E+00  0.00000000000E+00  0.74505805969E-08  0.10566000000E+00  0.10566000000E+00 0.  1.
     999900   -1    0    0    0    0 -0.00000000000E+00 -0.00000000000E+00 -0.74505805969E-08  0.93827000000E+00  0.93827000000E+00 0. -1.
     999902    2    1    2    0    0 -0.13002755555E-01  0.61048962383E-02  0.18784239766E-01  0.10202828210E+01  0.10200087479E+01 0.  0.
     999903    2    3    3    0    0 -0.11262617392E+00  0.40881127841E-02 -0.63380976471E-01  0.13085603052E+00  0.20119265047E-01 0.  0.
         14    1    1    2    0    0  0.13002755555E-01 -0.61048962383E-02 -0.18784239766E-01  0.23647178979E-01  0.00000000000E+00 0. -1.
     999901    1    3    3    0    0  0.99623418369E-01  0.20167834542E-02  0.82165216237E-01  0.88942679050E+00  0.88000000000E+00 0. -1.
        -11    1    4    4    0    0 -0.49395594719E-01 -0.77559045512E-02 -0.24447483667E-01  0.55659854578E-01  0.51100000000E-03 0.  1.
         11    1    4    4    0    0 -0.63230579204E-01  0.11844017335E-01 -0.38933492805E-01  0.75196175941E-01  0.51100000000E-03 0. -1.
</event>
<event>
 8    1  0.1128641E+005  0.1043930E+01  0.7957747E-01            NaN
         13   -1    0    0    0    0  0.00000000000E+00  0.00000000000E+00  0.74505805969E-08  0.10566000000E+00  0.10566000000E+00 0.  1.
     999900   -1    0    0    0    0 -0.00000000000E+00 -0.00000000000E+00 -0.74505805969E-08  0.93827000000E+00  0.93827000000E+00 0.  1.
     999902    2    1    2    0    0  0.13984975155E-01 -0.12764783992E-01  0.14494037870E-01  0.10200847411E+01  0.10198060024E+01 0.  0.
     999903    2    3    3    0    0 -0.74085916182E-01 -0.87899038145E-01  0.60381631169E-01  0.13131744346E+00  0.19579726551E-01 0.  0.
         14    1    1    2    0    0 -0.13984975155E-01  0.12764783992E-01 -0.14494037870E-01  0.23845258946E-01  0.00000000000E+00 0. -1.
     999901    1    3    3    0    0  0.88070891336E-01  0.75134254153E-01 -0.45887593299E-01  0.88876729759E+00  0.88000000000E+00 0.  1.
        -11    1    4    4    0    0 -0.45085767086E-01 -0.45184471976E-01  0.24179988221E-01  0.68259034954E-01  0.51100000000E-03 0. -1.
         11    1    4    4    0    0 -0.29000149096E-01 -0.42714566169E-01  0.36201642949E-01  0.63058408509E-01  0.51100000000E-03 0.  1.
</event>
<event>
 8    1  0.1128641E+005  0.1043930E+01  0.7957747E-01            NaN
         13   -1    0    0    0    0  0.00000000000E+00  0.00000000000E+00  0.74505805969E-08  0.10566000000E+00  0.10566000000E+00 0.  1.
     999900   -1    0    0    0    0 -0.00000000000E+00 -0.00000000000E+00 -0.74505805969E-08  0.93827000000E+00  0.93827000000E+00 0. -1.
     999902    2    1    2    0    0 -0.15161243904E-02 -0.82586206314E-02 -0.22694171435E-01  0.10197322963E+01  0.10194451566E+01 0.  0.
     999903    2    3    3    0    0 -0.21781741049E-01  0.25993289746E-01 -0.12685157702E+00  0.13269641555E+00  0.19155175591E-01 0.  0.
         14    1    1    2    0    0  0.15161243904E-02  0.82586206314E-02  0.22694171435E-01  0.24197703714E-01  0.00000000000E+00 0.  1.
     999901    1    3    3    0    0  0.20265616659E-01 -0.34251910377E-01  0.10415740558E+00  0.88703588074E+00  0.88000000000E+00 0.  1.
        -11    1    4    4    0    0 -0.22262977176E-01  0.25183787378E-01 -0.94053730369E-01  0.99881072365E-01  0.51100000000E-03 0.  1.
         11    1    4    4    0    0  0.48123612665E-03  0.80950236773E-03 -0.32797846649E-01  0.32815343182E-01  0.51100000000E-03 0. -1.
</event>
<event>
 8    1  0.1128641E+005  0.1043930E+01  0.7957747E-01            NaN
         13   -1    0    0    0    0  0.00000000000E+00  0.00000000000E+00  0.74505805969E-08  0.10566000000E+00  0.10566000000E+00 0. -1.
     999900   -1    0    0    0    0 -0.00000000000E+00 -0.00000000000E+00 -0.74505805969E-08  0.93827000000E+00  0.93827000000E+00 0.  1.
     999902    2    1    2    0    0  0.89846975532E-02 -0.17083366210E-01 -0.13523390196E-01  0.10203620499E+01  0.10200898316E+01 0.  0.
     999903    2    3    3    0    0  0.22421135353E-01  0.11146655760E+00  0.55750432410E-01  0.12822726001E+00  0.20164789157E-01 0.  0.
         14    1    1    2    0    0 -0.89846975532E-02  0.17083366210E-01  0.13523390196E-01  0.23567950135E-01  0.00000000000E+00 0.  1.
     999901    1    3    3    0    0 -0.13436437800E-01 -0.12854992381E+00 -0.69273822605E-01  0.89213478986E+00  0.88000000000E+00 0.  1.
        -11    1    4    4    0    0  0.76152849033E-02  0.51679456401E-01  0.14923024732E-01  0.54329702430E-01  0.51100000000E-03 0. -1.
         11    1    4    4    0    0  0.14805850449E-01  0.59787101200E-01  0.40827407677E-01  0.73897557579E-01  0.51100000000E-03 0.  1.
</event>
<event>
 8    1  0.1128641E+005  0.1043930E+01  0.7957747E-01            NaN
         13   -1    0    0    0    0  0.00000000000E+00  0.00000000000E+00  0.74505805969E-08  0.10566000000E+00  0.10566000000E+00 0.  1.
     999900   -1    0    0    0    0 -0.00000000000E+00 -0.00000000000E+00 -0.74505805969E-08  0.93827000000E+00  0.93827000000E+00 0.  1.
     999902    2    1    2    0    0 -0.67104113103E-02  0.19505534403E-02  0.22670782222E-01  0.10202066224E+01  0.10199307593E+01 0.  0.
     999903    2    3    3    0    0  0.10562402104E+00 -0.70048002190E-01  0.21959487925E-01  0.13014857785E+00  0.19831207102E-01 0.  0.
         14    1    1    2    0    0  0.67104113103E-02 -0.19505534403E-02 -0.22670782222E-01  0.23723377611E-01  0.00000000000E+00 0. -1.
     999901    1    3    3    0    0 -0.11233443235E+00  0.71998555631E-01  0.71129429784E-03  0.89005804454E+00  0.88000000000E+00 0.  1.
        -11    1    4    4    0    0  0.49763641628E-01 -0.42886615762E-01  0.57165369654E-02  0.65944080519E-01  0.51100000000E-03 0.  1.
         11    1    4    4    0    0  0.55860379414E-01 -0.27161386429E-01  0.16242950959E-01  0.64204497334E-01  0.51100000000E-03 0. -1.
</event>
<event>
 8    1  0.1166659E+005  0.1043930E+01  0.7957747E-01            NaN
         13   -1    0    0    0    0  0.00000000000E+00  0.00000000000E+00  0.74505805969E-08  0.10566000000E+00  0.10566000000E+00 0.  1.
     999900   -1    0    0    0    0 -0.00000000000E+00 -0.00000000000E+00 -0.74505805969E-08  0.93827000000E+00  0.93827000000E+00 0. -1.
     999902    2    1    2    0    0 -0.18480992783E-01 -0.84491107206E-03 -0.15681716195E-01  0.10196776353E+01  0.10193891812E+01 0.  0.
     999903    2    3    3    0    0  0.60073020229E-01 -0.28071821847E-01 -0.11075389115E+00  0.13066089979E+00  0.20225018869E-01 0.  0.
         14    1    1    2    0    0  0.18480992783E-01  0.84491107206E-03  0.15681716195E-01  0.24252364664E-01  0.00000000000E+00 0.  1.
     999901    1    3    3    0    0 -0.78554013012E-01  0.27226910775E-01  0.95072174953E-01  0.88901673555E+00  0.88000000000E+00 0. -1.
        -11    1    4    4    0    0  0.36827192285E-01 -0.10448775450E-01 -0.47537597081E-01  0.61036900783E-01  0.51100000000E-03 0.  1.
         11    1    4    4    0    0  0.23245827944E-01 -0.17623046397E-01 -0.63216294067E-01  0.69623999007E-01  0.51100000000E-03 0. -1.
</event>
<event>
 8    1  0.1128641E+005  0.1043930E+01  0.7957747E-01            NaN
         13   -1    0    0    0    0  0.00000000000E+00  0.00000000000E+00  0.74505805969E-08  0.10566000000E+00  0.10566000000E+00 0. -1.
     999900   -1    0    0    0    0 -0.00000000000E+00 -0.00000000000E+00 -0.74505805969E-08  0.93827000000E+00  0.93827000000E+00 0. -1.
     999902    2    1    2    0    0  0.18187393986E-01 -0.92437069756E-02 -0.12145806248E-01  0.10201866214E+01  0.10199102874E+01 0.  0.
     999903    2    3    3    0    0  0.64163973949E-01 -0.86153102835E-01  0.73281838700E-01  0.13152088918E+00  0.19701363554E-01 0.  0.
         14    1    1    2    0    0 -0.18187393986E-01  0.92437069756E-02  0.12145806248E-01  0.23743378615E-01  0.00000000000E+00 0. -1.
     999901    1    3    3    0    0 -0.45976579963E-01  0.76909395860E-01 -0.85427644948E-01  0.88866573221E+00  0.88000000000E+00 0. -1.
        -11    1    4    4    0    0  0.42274213048E-02 -0.17372160274E-01  0.14072109945E-01  0.22758480678E-01  0.51100000000E-03 0.  1.
         11    1    4    4    0    0  0.59936552644E-01 -0.68780942561E-01  0.59209728755E-01  0.10876240850E+00  0.51100000000E-03 0. -1.
</event>
<event>
 8    1  0.1128641E+005  0.1043930E+01  0.7957747E-01            NaN
         13   -1    0    0    0    0  0.00000000000E+00  0.00000000000E+00  0.74505805969E-08  0.10566000000E+00  0.10566000000E+00 0. -1.
     999900   -1    0    0    0    0 -0.00000000000E+00 -0.00000000000E+00 -0.74505805969E-08  0.93827000000E+00  0.93827000000E+00 0.  1.
     999902    2    1    2    0    0  0.10138769411E-02  0.23794816693E-01 -0.27257145512E-02  0.10199581255E+01  0.10196763835E+01 0.  0.
     999903    2    3    3    0    0 -0.42191456608E-01 -0.69370629448E-01 -0.97933396171E-01  0.12888517458E+00  0.20689004314E-01 0.  0.
         14    1    1    2    0    0 -0.10138769411E-02 -0.23794816693E-01  0.27257145512E-02  0.23971874514E-01  0.00000000000E+00 0.  1.
     999901    1    3    3    0    0  0.43205333549E-01  0.93165446141E-01  0.95207681620E-01  0.89107295091E+00  0.88000000000E+00 0. -1.
        -11    1    4    4    0    0 -0.17095293005E-01 -0.22611081744E-01 -0.49457630840E-01  0.57007266465E-01  0.51100000000E-03 0.  1.
         11    1    4    4    0    0 -0.25096163604E-01 -0.46759547705E-01 -0.48475765331E-01  0.71877908112E-01  0.51100000000E-03 0. -1.
</event>
<event>
 8    1  0.1128641E+005  0.1043930E+01  0.7957747E-01            NaN
         13   -1    0    0    0    0  0.00000000000E+00  0.00000000000E+00  0.74505805969E-08  0.10566000000E+00  0.10566000000E+00 0. -1.
     999900   -1    0    0    0    0 -0.00000000000E+00 -0.00000000000E+00 -0.74505805969E-08  0.93827000000E+00  0.93827000000E+00 0. -1.
     999902    2    1    2    0    0 -0.23333092914E-01  0.27899745521E-02 -0.40009127073E-02  0.10200925403E+01  0.10198139861E+01 0.  0.
     999903    2    3    3    0    0  0.98442263841E-01  0.71446036817E-01  0.35074159493E-01  0.12820142941E+00  0.20248317260E-01 0.  0.
         14    1    1    2    0    0  0.23333092914E-01 -0.27899745521E-02  0.40009127073E-02  0.23837459710E-01  0.00000000000E+00 0. -1.
     999901    1    3    3    0    0 -0.12177535675E+00 -0.68656062265E-01 -0.39075072200E-01  0.89189111088E+00  0.88000000000E+00 0. -1.
        -11    1    4    4    0    0  0.36299466839E-01  0.33029069588E-01  0.55187273265E-02  0.49389150661E-01  0.51100000000E-03 0. -1.
         11    1    4    4    0    0  0.62142797002E-01  0.38416967229E-01  0.29555432166E-01  0.78812278750E-01  0.51100000000E-03 0.  1.
</event>
<event>
 8    1  0.1128641E+005  0.1043930E+01  0.7957747E-01            NaN
         13   -1    0    0    0    0  0.00000000000E+00  0.00000000000E+00  0.74505805969E-08  0.10566000000E+00  0.10566000000E+00 0. -1.
     999900   -1    0    0    0    0 -0.00000000000E+00 -0.00000000000E+00 -0.74505805969E-08  0.93827000000E+00  0.93827000000E+00 0. -1.
     999902    2    1    2    0    0  0.16443384819E-01  0.10370410524E-01 -0.12977723713E-01  0.10205558341E+01  0.10202881254E+01 0.  0.
     999903    2    3    3    0    0 -0.74835735898E-01 -0.81365611778E-01 -0.66385138264E-01  0.12948921056E+00  0.11820275819E-01 0.  0.
         14    1    1    2    0    0 -0.16443384819E-01 -0.10370410524E-01  0.12977723713E-01  0.23374165900E-01  0.00000000000E+00 0. -1.
     999901    1    3    3    0    0  0.91279120717E-01  0.91736022302E-01  0.53407414552E-01  0.89106662354E+00  0.88000000000E+00 0. -1.
        -11    1    4    4    0    0 -0.19849676783E-01 -0.27704733544E-01 -0.24543046494E-01  0.42002192578E-01  0.51100000000E-03 0.  1.
         11    1    4    4    0    0 -0.54986059116E-01 -0.53660878234E-01 -0.41842091770E-01  0.87487017977E-01  0.51100000000E-03 0. -1.
</event>
<event>
 8    1  0.1128641E+005  0.1043930E+01  0.7957747E-01            NaN
         13   -1    0    0    0    0  0.00000000000E+00  0.00000000000E+00  0.74505805969E-08  0.10566000000E+00  0.10566000000E+00 0.  1.
     999900   -1    0    0    0    0 -0.00000000000E+00 -0.00000000000E+00 -0.74505805969E-08  0.93827000000E+00  0.93827000000E+00 0. -1.
     999902    2    1    2    0    0  0.97903020460E-02 -0.16382350672E-01 -0.11975976342E-01  0.10213987897E+01  0.10211502496E+01 0.  0.
     999903    2    3    3    0    0 -0.67932891908E-01  0.89384158800E-01  0.59822059048E-01  0.12877209994E+00  0.19979222389E-01 0.  0.
         14    1    1    2    0    0 -0.97903020460E-02  0.16382350672E-01  0.11975976342E-01  0.22531210288E-01  0.00000000000E+00 0.  1.
     999901    1    3    3    0    0  0.77723193954E-01 -0.10576650947E+00 -0.71798035390E-01  0.89262668977E+00  0.88000000000E+00 0. -1.
        -11    1    4    4    0    0 -0.22227815556E-01  0.25908470701E-01  0.28651373387E-01  0.44570023069E-01  0.51100000000E-03 0. -1.
         11    1    4    4    0    0 -0.45705076352E-01  0.63475688100E-01  0.31170685661E-01  0.84202076872E-01  0.51100000000E-03 0.  1.
</event>
<event>
 8    1  0.1128641E+005  0.1043930E+01  0.7957747E-01            NaN
         13   -1    0    0    0    0  0.00000000000E+00  0.00000000000E+00  0.74505805969E-08  0.10566000000E+00  0.10566000000E+00 0.  1.
     999900   -1    0    0    0    0 -0.00000000000E+00 -0.00000000000E+00 -0.74505805969E-08  0.93827000000E+00  0.93827000000E+00 0.  1.
     999902    2    1    2    0    0  0.22249641155E-01 -0.37133377009E-02 -0.73557262634E-02  0.10202035987E+01  0.10199276645E+01 0.  0.
     999903    2    3    3    0    0  0.12310334842E+00 -0.47097778051E-01 -0.67999439695E-02  0.13338118763E+00  0.19278664020E-01 0.  0.
         14    1    1    2    0    0 -0.22249641155E-01  0.37133377009E-02  0.73557262634E-02  0.23726401271E-01  0.00000000000E+00 0.  1.
     999901    1    3    3    0    0 -0.10085370726E+00  0.43384440350E-01 -0.55578229386E-03  0.88682241110E+00  0.88000000000E+00 0.  1.
        -11    1    4    4    0    0  0.27486490614E-02 -0.16166970427E-02 -0.33776547513E-02  0.46731631268E-02  0.51100000000E-03 0. -1.
         11    1    4    4    0    0  0.12035469936E+00 -0.45481081008E-01 -0.34222892182E-02  0.12870802450E+00  0.51100000000E-03 0.  1.
</event>
<event>
 7    1  0.1183680E+005  0.1043930E+01  0.7957747E-01            NaN
         13   -1    0    0    0    0  0.00000000000E+00  0.00000000000E+00  0.74505805969E-08  0.10566000000E+00  0.10566000000E+00 0.  1.
     999900   -1    0    0    0    0 -0.00000000000E+00 -0.00000000000E+00 -0.74505805969E-08  0.93827000000E+00  0.93827000000E+00 0. -1.
     999902    2    1    2    0    0 -0.43008276108E-02  0.14860461989E-02  0.24236011424E-01  0.10192705251E+01  0.10189721849E+01 0.  0.
         14    1    1    2    0    0  0.43008276108E-02 -0.14860461989E-02 -0.24236011424E-01  0.24659474877E-01  0.00000000000E+00 0. -1.
     999901    1    3    3    0    0  0.52689330076E-01  0.70570201525E-01  0.10879606348E+00  0.89106279368E+00  0.88000000000E+00 0. -1.
        -11    1    3    3    0    0 -0.28930092102E-01 -0.41746375899E-01 -0.24240577220E-01  0.56281229862E-01  0.51100000000E-03 0. -1.
         11    1    3    3    0    0 -0.28060065585E-01 -0.27337779427E-01 -0.60319474836E-01  0.71926501584E-01  0.51100000000E-03 0.  1.
</event>
<event>
 8    1  0.1128641E+005  0.1043930E+01  0.7957747E-01            NaN
         13   -1    0    0    0    0  0.00000000000E+00  0.00000000000E+00  0.74505805969E-08  0.10566000000E+00  0.10566000000E+00 0. -1.
     999900   -1    0    0    0    0 -0.00000000000E+00 -0.00000000000E+00 -0.74505805969E-08  0.93827000000E+00  0.93827000000E+00 0.  1.
     999902    2    1    2    0    0  0.19720305599E-01  0.13104763944E-01  0.18778696324E-02  0.10201781225E+01  0.10199015884E+01 0.  0.
     999903    2    3    3    0    0  0.12378631024E+00 -0.28706958165E-01 -0.31196535359E-01  0.13244400143E+00  0.20519494265E-01 0.  0.
         14    1    1    2    0    0 -0.19720305599E-01 -0.13104763944E-01 -0.18778696324E-02  0.23751877511E-01  0.00000000000E+00 0. -1.
     999901    1    3    3    0    0 -0.10406600465E+00  0.41811722109E-01  0.33074404991E-01  0.88773412106E+00  0.88000000000E+00 0.  1.
        -11    1    4    4    0    0  0.67192217078E-02  0.29142208018E-02 -0.51883170650E-03  0.73600903921E-02  0.51100000000E-03 0.  1.
         11    1    4    4    0    0  0.11706708854E+00 -0.31621178967E-01 -0.30677703652E-01  0.12508391104E+00  0.51100000000E-03 0. -1.
</event>
<event>
 8    1  0.1128641E+005  0.1043930E+01  0.7957747E-01            NaN
         13   -1    0    0    0    0  0.00000000000E+00  0.00000000000E+00  0.74505805969E-08  0.10566000000E+00  0.10566000000E+00 0.  1.
     999900   -1    0    0    0    0 -0.00000000000E+00 -0.00000000000E+00 -0.74505805969E-08  0.93827000000E+00  0.93827000000E+00 0.  1.
     999902    2    1    2    0    0 -0.18667947955E-01  0.14339649534E-01  0.19813655369E-02  0.10203070527E+01  0.10200335476E+01 0.  0.
     999903    2    3    3    0    0 -0.12187030260E+00 -0.40495360852E-01 -0.24562826261E-01  0.13218420169E+00  0.19418698143E-01 0.  0.
         14    1    1    2    0    0  0.18667947955E-01 -0.14339649534E-01 -0.19813655369E-02  0.23622947297E-01  0.00000000000E+00 0. -1.
     999901    1    3    3    0    0  0.10320235464E+00  0.54835010386E-01  0.26544191798E-01  0.88812285101E+00  0.88000000000E+00 0.  1.
        -11    1    4    4    0    0 -0.99774072925E-01 -0.31994080096E-01 -0.12248434885E-01  0.10549299535E+00  0.51100000000E-03 0.  1.
         11    1    4    4    0    0 -0.22096229673E-01 -0.85012807552E-02 -0.12314391376E-01  0.26691206346E-01  0.51100000000E-03 0. -1.
</event>
<event>
 8    1  0.1128641E+005  0.1043930E+01  0.7957747E-01            NaN
         13   -1    0    0    0    0  0.00000000000E+00  0.00000000000E+00  0.74505805969E-08  0.10566000000E+00  0.10566000000E+00 0. -1.
     999900   -1    0    0    0    0 -0.00000000000E+00 -0.00000000000E+00 -0.74505805969E-08  0.93827000000E+00  0.93827000000E+00 0.  1.
     999902    2    1    2    0    0 -0.20521430371E-01 -0.11932149789E-01  0.30600998197E-02  0.10199953073E+01  0.10197144490E+01 0.  0.
     999903    2    3    3    0    0 -0.35581178385E-01  0.12633880586E-01  0.12427375794E+00  0.13121916183E+00  0.18677963641E-01 0.  0.
         14    1    1    2    0    0  0.20521430371E-01  0.11932149789E-01 -0.30600998197E-02  0.23934692686E-01  0.00000000000E+00 0.  1.
     999901    1    3    3    0    0  0.15059748014E-01 -0.24566030375E-01 -0.12121365812E+00  0.88877614548E+00  0.88000000000E+00 0.  1.
        -11    1    4    4    0    0 -0.29731390663E-01  0.24443399499E-02  0.79108869268E-01  0.84548238932E-01  0.51100000000E-03 0. -1.
         11    1    4    4    0    0 -0.58497877224E-02  0.10189540636E-01  0.45164888673E-01  0.46670922903E-01  0.51100000000E-03 0.  1.
</event>
<event>
 8    1  0.1128641E+005  0.1043930E+01  0.7957747E-01            NaN
         13   -1    0    0    0    0  0.00000000000E+00  0.00000000000E+00  0.74505805969E-08  0.10566000000E+00  0.10566000000E+00 0.  1.
     999900   -1    0    0    0    0 -0.00000000000E+00 -0.00000000000E+00 -0.74505805969E-08  0.93827000000E+00  0.93827000000E+00 0. -1.
     999902    2    1    2    0    0 -0.10141733916E-01  0.33900009549E-01 -0.91708733007E-02  0.10073763363E+01  0.10067129246E+01 0.  0.
     999903    2    3    3    0    0 -0.36976999533E-01 -0.20782766148E-01  0.10764603354E+00  0.11756931947E+00  0.20872337704E-01 0.  0.
         14    1    1    2    0    0  0.10141733916E-01 -0.33900009549E-01  0.91708733007E-02  0.36553663720E-01  0.00000000000E+00 0.  1.
     999901    1    3    3    0    0  0.26835265617E-01  0.54682775697E-01 -0.11681690684E+00  0.88980701681E+00  0.88000000000E+00 0. -1.
        -11    1    4    4    0    0 -0.29187802353E-01 -0.18310538964E-01  0.59719890754E-01  0.68948749924E-01  0.51100000000E-03 0. -1.
         11    1    4    4    0    0 -0.77891971795E-02 -0.24722271833E-02  0.47926142784E-01  0.48620569547E-01  0.51100000000E-03 0.  1.
</event>
<event>
 8    1  0.1128641E+005  0.1043930E+01  0.7957747E-01            NaN
         13   -1    0    0    0    0  0.00000000000E+00  0.00000000000E+00  0.74505805969E-08  0.10566000000E+00  0.10566000000E+00 0.  1.
     999900   -1    0    0    0    0 -0.00000000000E+00 -0.00000000000E+00 -0.74505805969E-08  0.93827000000E+00  0.93827000000E+00 0.  1.
     999902    2    1    2    0    0 -0.44361307010E-03  0.24036614021E-01 -0.78618443487E-03  0.10198764412E+01  0.10195927528E+01 0.  0.
     999903    2    3    3    0    0 -0.12468403710E+00 -0.29187122710E-01 -0.33419473976E-02  0.12955347672E+00  0.19363302382E-01 0.  0.
         14    1    1    2    0    0  0.44361307010E-03 -0.24036614021E-01  0.78618443487E-03  0.24053558824E-01  0.00000000000E+00 0.  1.
     999901    1    3    3    0    0  0.12424042403E+00  0.53223736731E-01  0.25557629627E-02  0.89032296446E+00  0.88000000000E+00 0.  1.
        -11    1    4    4    0    0 -0.61724873187E-01 -0.21313183696E-01  0.52922933605E-02  0.65517030299E-01  0.51100000000E-03 0. -1.
         11    1    4    4    0    0 -0.62959163909E-01 -0.78739390137E-02 -0.86342407581E-02  0.64036446421E-01  0.51100000000E-03 0.  1.
</event>
<event>
 8    1  0.1128641E+005  0.1043930E+01  0.7957747E-01            NaN
         13   -1    0    0    0    0  0.00000000000E+00  0.00000000000E+00  0.74505805969E-08  0.10566000000E+00  0.10566000000E+00 0. -1.
     999900   -1    0    0    0    0 -0.00000000000E+00 -0.00000000000E+00 -0.74505805969E-08  0.93827000000E+00  0.93827000000E+00 0. -1.
     999902    2    1    2    0    0 -0.95506206806E-02 -0.22679306694E-01  0.18039269993E-01  0.10134180258E+01  0.10129585946E+01 0.  0.
     999903    2    3    3    0    0  0.17810560689E-01 -0.12193856385E+00  0.25251935106E-01  0.12738582723E+00  0.20081317841E-01 0.  0.
         14    1    1    2    0    0  0.95506206806E-02  0.22679306694E-01 -0.18039269993E-01  0.30511974197E-01  0.00000000000E+00 0. -1.
     999901    1    3    3    0    0 -0.27361181370E-01  0.99259257154E-01 -0.72126651128E-02  0.88603219858E+00  0.88000000000E+00 0.  1.
        -11    1    4    4    0    0  0.56132091680E-02 -0.65997903787E-02 -0.30652718823E-04  0.86791365236E-02  0.51100000000E-03 0.  1.
         11    1    4    4    0    0  0.12197351521E-01 -0.11533877347E+00  0.25282587824E-01  0.11870669070E+00  0.51100000000E-03 0. -1.
</event>
<event>
 8    1  0.1128641E+005  0.1043930E+01  0.7957747E-01            NaN
         13   -1    0    0    0    0  0.00000000000E+00  0.00000000000E+00  0.74505805969E-08  0.10566000000E+00  0.10566000000E+00 0.  1.
     999900   -1    0    0    0    0 -0.00000000000E+00 -0.00000000000E+00 -0.74505805969E-08  0.93827000000E+00  0.93827000000E+00 0. -1.
     999902    2    1    2    0    0 -0.52472673614E-02 -0.17355237874E-01 -0.15261528361E-01  0.10202307944E+01  0.10199554998E+01 0.  0.
     999903    2    3    3    0    0 -0.11300394919E+00  0.57455001610E-01  0.19746569857E-01  0.12981873176E+00  0.19799150296E-01 0.  0.
         14    1    1    2    0    0  0.52472673614E-02  0.17355237874E-01  0.15261528361E-01  0.23699205564E-01  0.00000000000E+00 0.  1.
     999901    1    3    3    0    0  0.10775668183E+00 -0.74810239484E-01 -0.35008098219E-01  0.89041206267E+00  0.88000000000E+00 0. -1.
        -11    1    4    4    0    0 -0.89797856309E-01  0.38149488296E-01  0.20146694696E-01  0.99625242199E-01  0.51100000000E-03 0. -1.
         11    1    4    4    0    0 -0.23206092884E-01  0.19305513313E-01 -0.40012483874E-03  0.30193489565E-01  0.51100000000E-03 0.  1.
</event>
<event>
 8    1  0.1128641E+005  0.1043930E+01  0.7957747E-01            NaN
         13   -1    0    0    0    0  0.00000000000E+00  0.00000000000E+00  0.74505805969E-08  0.10566000000E+00  0.10566000000E+00 0.  1.
     999900   -1    0    0    0    0 -0.00000000000E+00 -0.00000000000E+00 -0.74505805969E-08  0.93827000000E+00  0.93827000000E+00 0. -1.
     999902    2    1    2    0    0 -0.67247554416E-02 -0.22613382898E-01  0.44952626588E-02  0.10199134472E+01  0.10196306414E+01 0.  0.
     999903    2    3    3    0    0  0.46770196354E-01  0.11683705294E+00  0.45696567159E-02  0.12732835913E+00  0.18795772599E-01 0.  0.
         14    1    1    2    0    0  0.67247554416E-02  0.22613382898E-01 -0.44952626588E-02  0.24016552796E-01  0.00000000000E+00 0. -1.
     999901    1    3    3    0    0 -0.53494951796E-01 -0.13945043584E+00 -0.74394057092E-04  0.89258508808E+00  0.88000000000E+00 0. -1.
        -11    1    4    4    0    0  0.33569739131E-01  0.89507358729E-01  0.11221175690E-01  0.96253158685E-01  0.51100000000E-03 0.  1.
         11    1    4    4    0    0  0.13200457223E-01  0.27329694215E-01 -0.66515189746E-02  0.31075200441E-01  0.51100000000E-03 0. -1.
</event>
<event>
 8    1  0.1128641E+005  0.1043930E+01  0.7957747E-01            NaN
         13   -1    0    0    0    0  0.00000000000E+00  0.00000000000E+00  0.74505805969E-08  0.10566000000E+00  0.10566000000E+00 0.  1.
     999900   -1    0    0    0    0 -0.00000000000E+00 -0.00000000000E+00 -0.74505805969E-08  0.93827000000E+00  0.93827000000E+00 0.  1.
     999902    2    1    2    0    0  0.22908425322E-02  0.10004578634E-02 -0.24032591049E-01  0.10197677504E+01  0.10194814615E+01 0.  0.
     999903    2    3    3    0    0 -0.82822094324E-01  0.74762850883E-01 -0.66459911938E-01  0.13157566516E+00  0.21124691404E-01 0.  0.
         14    1    1    2    0    0 -0.22908425322E-02 -0.10004578634E-02  0.24032591049E-01  0.24162249646E-01  0.00000000000E+00 0.  1.
     999901    1    3    3    0    0  0.85112936856E-01 -0.73762393020E-01  0.42427320890E-01  0.88819208519E+00  0.88000000000E+00 0. -1.
        -11    1    4    4    0    0 -0.14356564042E-01  0.66561027712E-02 -0.16414280054E-01  0.22805796322E-01  0.51100000000E-03 0.  1.
         11    1    4    4    0    0 -0.68465530282E-01  0.68106748112E-01 -0.50045631884E-01  0.10876986884E+00  0.51100000000E-03 0. -1.
</event>
<event>
 8    1  0.1128641E+005  0.1043930E+01  0.7957747E-01            NaN
         13   -1    0    0    0    0  0.00000000000E+00  0.00000000000E+00  0.74505805969E-08  0.10566000000E+00  0.10566000000E+00 0. -1.
     999900   -1    0    0    0    0 -0.00000000000E+00 -0.00000000000E+00 -0.74505805969E-08  0.93827000000E+00  0.93827000000E+00 0.  1.
     999902    2    1    2    0    0  0.15196784344E-01 -0.18409569017E-02  0.20464078297E-01  0.10183739855E+01  0.10180532719E+01 0.  0.
     999903    2    3    3    0    0 -0.10256252477E+00  0.38669669055E-01 -0.59000654765E-01  0.12606069438E+00  0.19894889157E-01 0.  0.
         14    1    1    2    0    0 -0.15196784344E-01  0.18409569017E-02 -0.20464078297E-01  0.25556014503E-01  0.00000000000E+00 0. -1.
     999901    1    3    3    0    0  0.11775930911E+00 -0.40510625956E-01  0.79464733062E-01  0.89231329111E+00  0.88000000000E+00 0. -1.
        -11    1    4    4    0    0 -0.71789358741E-01  0.22338613140E-01 -0.30856650154E-01  0.81271887176E-01  0.51100000000E-03 0.  1.
         11    1    4    4    0    0 -0.30773166025E-01  0.16331055915E-01 -0.28144004612E-01  0.44788807208E-01  0.51100000000E-03 0. -1.
</event>
<event>
 8    1  0.1128641E+005  0.1043930E+01  0.7957747E-01            NaN
         13   -1    0    0    0    0  0.00000000000E+00  0.00000000000E+00  0.74505805969E-08  0.10566000000E+00  0.10566000000E+00 0.  1.
     999900   -1    0    0    0    0 -0.00000000000E+00 -0.00000000000E+00 -0.74505805969E-08  0.93827000000E+00  0.93827000000E+00 0.  1.
     999902    2    1    2    0    0  0.10982851055E-01  0.12084888094E-01 -0.17653625647E-01  0.10198817561E+01  0.10195981946E+01 0.  0.
     999903    2    3    3    0    0 -0.11707238348E-03  0.76234457250E-01  0.10245656903E+00  0.12933987924E+00  0.20487792649E-01 0.  0.
         14    1    1    2    0    0 -0.10982851055E-01 -0.12084888094E-01  0.17653625647E-01  0.24048243928E-01  0.00000000000E+00 0.  1.
     999901    1    3    3    0    0  0.11099923438E-01 -0.64149569156E-01 -0.12011019467E+00  0.89054187683E+00  0.88000000000E+00 0.  1.
        -11    1    4    4    0    0  0.89976087154E-03  0.46324115912E-01  0.45194366839E-01  0.64726541694E-01  0.51100000000E-03 0.  1.
         11    1    4    4    0    0 -0.10168332550E-02  0.29910341338E-01  0.57262202187E-01  0.64613337548E-01  0.51100000000E-03 0. -1.
</event>
<event>
 8    1  0.1128641E+005  0.1043930E+01  0.7957747E-01            NaN
         13   -1    0    0    0    0  0.00000000000E+00  0.00000000000E+00  0.74505805969E-08  0.10566000000E+00  0.10566000000E+00 0.  1.
     999900   -1    0    0    0    0 -0.00000000000E+00 -0.00000000000E+00 -0.74505805969E-08  0.93827000000E+00  0.93827000000E+00 0.  1.
     999902    2    1    2    0    0  0.60624834822E-02  0.12135416878E-01 -0.20550535292E-01  0.10193058949E+01  0.10190084204E+01 0.  0.
     999903    2    3    3    0    0  0.66940744161E-01  0.10860703768E+00  0.22010006398E-01  0.13092290549E+00  0.19488841378E-01 0.  0.
         14    1    1    2    0    0 -0.60624834822E-02 -0.12135416878E-01  0.20550535292E-01  0.24624105051E-01  0.00000000000E+00 0.  1.
     999901    1    3    3    0    0 -0.60878260678E-01 -0.96471620804E-01 -0.42560541691E-01  0.88838298945E+00  0.88000000000E+00 0.  1.
        -11    1    4    4    0    0  0.33924202152E-01  0.44865521632E-01  0.17857202713E-01  0.59016161623E-01  0.51100000000E-03 0. -1.
         11    1    4    4    0    0  0.33016542008E-01  0.63741516050E-01  0.41528036852E-02  0.71906743870E-01  0.51100000000E-03 0.  1.
</event>
<event>
 8    1  0.1128641E+005  0.1043930E+01  0.7957747E-01            NaN
         13   -1    0    0    0    0  0.00000000000E+00  0.00000000000E+00  0.74505805969E-08  0.10566000000E+00  0.10566000000E+00 0. -1.
     999900   -1    0    0    0    0 -0.00000000000E+00 -0.00000000000E+00 -0.74505805969E-08  0.93827000000E+00  0.93827000000E+00 0.  1.
     999902    2    1    2    0    0 -0.74879482498E-02 -0.12662546966E-01 -0.18430639665E-01  0.10203482710E+01  0.10200757306E+01 0.  0.
     999903    2    3    3    0    0 -0.31786139723E-01 -0.10672748266E+00  0.66152301794E-01  0.13097046138E+00  0.19391247742E-01 0.  0.
         14    1    1    2    0    0  0.74879482498E-02  0.12662546966E-01  0.18430639665E-01  0.23581729010E-01  0.00000000000E+00 0. -1.
     999901    1    3    3    0    0  0.24298191473E-01  0.94064935692E-01 -0.84582941459E-01  0.88937780961E+00  0.88000000000E+00 0.  1.
        -11    1    4    4    0    0 -0.19870852015E-01 -0.77756396524E-01  0.37786724156E-01  0.88707415720E-01  0.51100000000E-03 0.  1.
         11    1    4    4    0    0 -0.11915287708E-01 -0.28971086135E-01  0.28365577638E-01  0.42263045663E-01  0.51100000000E-03 0. -1.
</event>
<event>
 8    1  0.1128641E+005  0.1043930E+01  0.7957747E-01            NaN
         13   -1    0    0    0    0  0.00000000000E+00  0.00000000000E+00  0.74505805969E-08  0.10566000000E+00  0.10566000000E+00 0.  1.
     999900   -1    0    0    0    0 -0.00000000000E+00 -0.00000000000E+00 -0.74505805969E-08  0.93827000000E+00  0.93827000000E+00 0.  1.
     999902    2    1    2    0    0 -0.37311686391E-02 -0.17513162366E-01 -0.15114239834E-01  0.10204976992E+01  0.10202286417E+01 0.  0.
     999903    2    3    3    0    0 -0.87755322135E-01  0.11441375446E-01 -0.96305413989E-01  0.13230265845E+00  0.19933866531E-01 0.  0.
         14    1    1    2    0    0  0.37311686391E-02  0.17513162366E-01  0.15114239834E-01  0.23432300810E-01  0.00000000000E+00 0.  1.
     999901    1    3    3    0    0  0.84024153496E-01 -0.28954537812E-01  0.81191174155E-01  0.88819504074E+00  0.88000000000E+00 0. -1.
        -11    1    4    4    0    0 -0.81315897268E-01  0.62197550721E-02 -0.81325629905E-01  0.11517412775E+00  0.51100000000E-03 0.  1.
         11    1    4    4    0    0 -0.64394248666E-02  0.52216203739E-02 -0.14979784084E-01  0.17128530706E-01  0.51100000000E-03 0. -1.
</event>
<event>
 8    1  0.1128641E+005  0.1043930E+01  0.7957747E-01            NaN
         13   -1    0    0    0    0  0.00000000000E+00  0.00000000000E+00  0.74505805969E-08  0.10566000000E+00  0.10566000000E+00 0. -1.
     999900   -1    0    0    0    0 -0.00000000000E+00 -0.00000000000E+00 -0.74505805969E-08  0.93827000000E+00  0.93827000000E+00 0.  1.
     999902    2    1    2    0    0 -0.21653564506E-01  0.26401587177E-03 -0.14448232185E-01  0.10178973671E+01  0.10175644216E+01 0.  0.
     999903    2    3    3    0    0 -0.84336263592E-01  0.70878705131E-01 -0.69123243572E-01  0.13115901116E+00  0.16978433628E-01 0.  0.
         14    1    1    2    0    0  0.21653564506E-01 -0.26401587177E-03  0.14448232185E-01  0.26032632857E-01  0.00000000000E+00 0.  1.
     999901    1    3    3    0    0  0.62682699086E-01 -0.70614689260E-01  0.54675011386E-01  0.88673835598E+00  0.88000000000E+00 0.  1.
        -11    1    4    4    0    0 -0.72922250969E-01  0.53507984429E-01 -0.59371696297E-01  0.10819435533E+00  0.51100000000E-03 0. -1.
         11    1    4    4    0    0 -0.11414012623E-01  0.17370720702E-01 -0.97515472744E-02  0.22964655824E-01  0.51100000000E-03 0.  1.
</event>
<event>
 8    1  0.1128641E+005  0.1043930E+01  0.7957747E-01            NaN
         13   -1    0    0    0    0  0.00000000000E+00  0.00000000000E+00  0.74505805969E-08  0.10566000000E+00  0.10566000000E+00 0. -1.
     999900   -1    0    0    0    0 -0.00000000000E+00 -0.00000000000E+00 -0.74505805969E-08  0.93827000000E+00  0.93827000000E+00 0.  1.
     999902    2    1    2    0    0 -0.26378340769E-02  0.16373056934E-01  0.21000726778E-01  0.10171705963E+01  0.10168185464E+01 0.  0.
     999903    2    3    3    0    0  0.71446151246E-01  0.76320590851E-01 -0.69998963260E-01  0.12735989322E+00  0.19781365660E-01 0.  0.
         14    1    1    2    0    0  0.26378340769E-02 -0.16373056934E-01 -0.21000726778E-01  0.26759403715E-01  0.00000000000E+00 0.  1.
     999901    1    3    3    0    0 -0.74083985323E-01 -0.59947533918E-01  0.90999690039E-01  0.88981070307E+00  0.88000000000E+00 0. -1.
        -11    1    4    4    0    0  0.38272850778E-01  0.40147579070E-01 -0.48850352356E-01  0.73913850245E-01  0.51100000000E-03 0.  1.
         11    1    4    4    0    0  0.33173300468E-01  0.36173011782E-01 -0.21148610904E-01  0.53446042973E-01  0.51100000000E-03 0. -1.
</event>
<event>
 8    1  0.1128641E+005  0.1043930E+01  0.7957747E-01            NaN
         13   -1    0    0    0    0  0.00000000000E+00  0.00000000000E+00  0.74505805969E-08  0.10566000000E+00  0.10566000000E+00 0.  1.
     999900   -1    0    0    0    0 -0.00000000000E+00 -0.00000000000E+00 -0.74505805969E-08  0.93827000000E+00  0.93827000000E+00 0. -1.
     999902    2    1    2    0    0 -0.24516510887E-02 -0.14293123062E-01  0.18393306032E-01  0.10205074112E+01  0.10202385793E+01 0.  0.
     999903    2    3    3    0    0 -0.39785839849E-01 -0.35369032739E-01  0.12086597876E+00  0.13352450026E+00  0.19655172850E-01 0.  0.
         14    1    1    2    0    0  0.24516510887E-02  0.14293123062E-01 -0.18393306032E-01  0.23422588814E-01  0.00000000000E+00 0. -1.
     999901    1    3    3    0    0  0.37334188760E-01  0.21075909677E-01 -0.10247267272E+00  0.88698291093E+00  0.88000000000E+00 0. -1.
        -11    1    4    4    0    0 -0.78726609151E-03 -0.10221248573E-01  0.19329237603E-01  0.21885480520E-01  0.51100000000E-03 0. -1.
         11    1    4    4    0    0 -0.38998573757E-01 -0.25147784166E-01  0.10153674115E+00  0.11163901974E+00  0.51100000000E-03 0.  1.
</event>
<event>
 8    1  0.1128641E+005  0.1043930E+01  0.7957747E-01            NaN
         13   -1    0    0    0    0  0.00000000000E+00  0.00000000000E+00  0.74505805969E-08  0.10566000000E+00  0.10566000000E+00 0.  1.
     999900   -1    0    0    0    0 -0.00000000000E+00 -0.00000000000E+00 -0.74505805969E-08  0.93827000000E+00  0.93827000000E+00 0.  1.
     999902    2    1    2    0    0 -0.63788030425E-02  0.14948676883E-01 -0.22320825078E-01  0.10163189279E+01  0.10159437937E+01 0.  0.
     999903    2    3    3    0    0  0.43544666867E-01  0.58734180172E-01  0.10014712959E+00  0.12535993725E+00  0.18434325874E-01 0.  0.
         14    1    1    2    0    0  0.63788030425E-02 -0.14948676883E-01  0.22320825078E-01  0.27611072072E-01  0.00000000000E+00 0.  1.
     999901    1    3    3    0    0 -0.49923469910E-01 -0.43785503289E-01 -0.12246795466E+00  0.89095899068E+00  0.88000000000E+00 0.  1.
        -11    1    4    4    0    0  0.24329190613E-01  0.17889207454E-01  0.37736133505E-01  0.48334357885E-01  0.51100000000E-03 0.  1.
         11    1    4    4    0    0  0.19215476254E-01  0.40844972718E-01  0.62410996082E-01  0.77025579368E-01  0.51100000000E-03 0. -1.
</event>
<event>
 8    1  0.1130863E+005  0.1043930E+01  0.7957747E-01            NaN
         13   -1    0    0    0    0  0.00000000000E+00  0.00000000000E+00  0.74505805969E-08  0.10566000000E+00  0.10566000000E+00 0.  1.
     999900   -1    0    0    0    0 -0.00000000000E+00 -0.00000000000E+00 -0.74505805969E-08  0.93827000000E+00  0.93827000000E+00 0. -1.
     999902    2    1    2    0    0 -0.17508884618E-01 -0.65220351455E-02  0.14964416999E-01  0.10199919182E+01  0.10197109794E+01 0.  0.
     999903    2    3    3    0    0  0.62133756147E-01 -0.61614828107E-01  0.95744432858E-01  0.13100171748E+00  0.18370162294E-01 0.  0.
         14    1    1    2    0    0  0.17508884618E-01  0.65220351455E-02 -0.14964416999E-01  0.23938081776E-01  0.00000000000E+00 0.  1.
     999901    1    3    3    0    0 -0.79642640765E-01  0.55092792961E-01 -0.80780015858E-01  0.88899020075E+00  0.88000000000E+00 0. -1.
        -11    1    4    4    0    0  0.30375697320E-01 -0.42307291178E-01  0.59664229178E-01  0.79200197215E-01  0.51100000000E-03 0.  1.
         11    1    4    4    0    0  0.31758058827E-01 -0.19307536929E-01  0.36080203679E-01  0.51801520260E-01  0.51100000000E-03 0. -1.
</event>
<event>
 8    1  0.1128641E+005  0.1043930E+01  0.7957747E-01            NaN
         13   -1    0    0    0    0  0.00000000000E+00  0.00000000000E+00  0.74505805969E-08  0.10566000000E+00  0.10566000000E+00 0. -1.
     999900   -1    0    0    0    0 -0.00000000000E+00 -0.00000000000E+00 -0.74505805969E-08  0.93827000000E+00  0.93827000000E+00 0. -1.
     999902    2    1    2    0    0 -0.20666760063E-02 -0.23640601793E-01 -0.18348337348E-03  0.10201985258E+01  0.10199224721E+01 0.  0.
     999903    2    3    3    0    0  0.38888845567E-01 -0.64381218445E-01  0.10650134363E+00  0.13187493332E+00  0.19778226579E-01 0.  0.
         14    1    1    2    0    0  0.20666760063E-02  0.23640601793E-01  0.18348337348E-03  0.23731474227E-01  0.00000000000E+00 0. -1.
     999901    1    3    3    0    0 -0.40955521574E-01  0.40740616652E-01 -0.10668482700E+00  0.88832359245E+00  0.88000000000E+00 0. -1.
        -11    1    4    4    0    0  0.12288331674E-01 -0.80307277258E-02  0.28268217331E-01  0.31856693413E-01  0.51100000000E-03 0.  1.
         11    1    4    4    0    0  0.26600513894E-01 -0.56350490719E-01  0.78233126295E-01  0.10001823991E+00  0.51100000000E-03 0. -1.
</event>
<event>
 8    1  0.1128641E+005  0.1043930E+01  0.7957747E-01            NaN
         13   -1    0    0    0    0  0.00000000000E+00  0.00000000000E+00  0.74505805969E-08  0.10566000000E+00  0.10566000000E+00 0.  1.
     999900   -1    0    0    0    0 -0.00000000000E+00 -0.00000000000E+00 -0.74505805969E-08  0.93827000000E+00  0.93827000000E+00 0.  1.
     999902    2    1    2    0    0 -0.32168172669E-02 -0.17619970786E-01  0.14708700141E-01  0.10207533492E+01  0.10204901973E+01 0.  0.
     999903    2    3    3    0    0 -0.80603751672E-01  0.62500443574E-01  0.79649576020E-01  0.13135729804E+00  0.22525864170E-01 0.  0.
         14    1    1    2    0    0  0.32168172669E-02  0.17619970786E-01 -0.14708700141E-01  0.23176650830E-01  0.00000000000E+00 0.  1.
     999901    1    3    3    0    0  0.77386934405E-01 -0.80120414361E-01 -0.64940875879E-01  0.88939605113E+00  0.88000000000E+00 0.  1.
        -11    1    4    4    0    0 -0.54822834511E-01  0.39615779664E-01  0.65287909456E-01  0.94009177341E-01  0.51100000000E-03 0. -1.
         11    1    4    4    0    0 -0.25780917161E-01  0.22884663910E-01  0.14361666563E-01  0.37348120694E-01  0.51100000000E-03 0.  1.
</event>
<event>
 8    1  0.1128641E+005  0.1043930E+01  0.7957747E-01            NaN
         13   -1    0    0    0    0  0.00000000000E+00  0.00000000000E+00  0.74505805969E-08  0.10566000000E+00  0.10566000000E+00 0. -1.
     999900   -1    0    0    0    0 -0.00000000000E+00 -0.00000000000E+00 -0.74505805969E-08  0.93827000000E+00  0.93827000000E+00 0.  1.
     999902    2    1    2    0    0 -0.11024359317E-01  0.25484970218E-02  0.19840281725E-01  0.10210899450E+01  0.10208344663E+01 0.  0.
     999903    2    3    3    0    0  0.12036798847E+00  0.21789492813E-01  0.42189534643E-01  0.13084635240E+00  0.19431326722E-01 0.  0.
         14    1    1    2    0    0  0.11024359317E-01 -0.25484970218E-02 -0.19840281725E-01  0.22840055042E-01  0.00000000000E+00 0.  1.
     999901    1    3    3    0    0 -0.13139234779E+00 -0.19240995791E-01 -0.22349252918E-01  0.89024359255E+00  0.88000000000E+00 0. -1.
        -11    1    4    4    0    0  0.79562053792E-01  0.50500222479E-02  0.25892174081E-01  0.83822961818E-01  0.51100000000E-03 0.  1.
         11    1    4    4    0    0  0.40805934680E-01  0.16739470565E-01  0.16297360562E-01  0.47023390586E-01  0.51100000000E-03 0. -1.
</event>
<event>
 8    1  0.1128641E+005  0.1043930E+01  0.7957747E-01            NaN
         13   -1    0    0    0    0  0.00000000000E+00  0.00000000000E+00  0.74505805969E-08  0.10566000000E+00  0.10566000000E+00 0.  1.
     999900   -1    0    0    0    0 -0.00000000000E+00 -0.00000000000E+00 -0.74505805969E-08  0.93827000000E+00  0.93827000000E+00 0. -1.
     999902    2    1    2    0    0 -0.11859487628E-01  0.11249944141E-02  0.21979475153E-01  0.10189297923E+01  0.10186230466E+01 0.  0.
     999903    2    3    3    0    0 -0.74032154308E-01  0.15090669271E-02  0.10802634226E+00  0.13254970937E+00  0.20413174127E-01 0.  0.
         14    1    1    2    0    0  0.11859487628E-01 -0.11249944141E-02 -0.21979475153E-01  0.25000207744E-01  0.00000000000E+00 0. -1.
     999901    1    3    3    0    0  0.62172666680E-01 -0.38407251302E-03 -0.86046867108E-01  0.88638008288E+00  0.88000000000E+00 0. -1.
        -11    1    4    4    0    0 -0.16005934889E-01 -0.81657654100E-02  0.24683519511E-01  0.30535339082E-01  0.51100000000E-03 0. -1.
         11    1    4    4    0    0 -0.58026219419E-01  0.96748323371E-02  0.83342822750E-01  0.10201437029E+00  0.51100000000E-03 0.  1.
</event>
<event>
 8    1  0.1128641E+005  0.1043930E+01  0.7957747E-01            NaN
         13   -1    0    0    0    0  0.00000000000E+00  0.00000000000E+00  0.74505805969E-08  0.10566000000E+00  0.10566000000E+00 0.  1.
     999900   -1    0    0    0    0 -0.00000000000E+00 -0.00000000000E+00 -0.74505805969E-08  0.93827000000E+00  0.93827000000E+00 0.  1.
     999902    2    1    2    0    0 -0.60799423794E-02  0.80703475271E-03 -0.21240354248E-01  0.10218218646E+01  0.10215826708E+01 0.  0.
     999903    2    3    3    0    0 -0.12112541630E+00  0.36694428151E-01 -0.37511784411E-01  0.13345925530E+00  0.19656839144E-01 0.  0.
         14    1    1    2    0    0  0.60799423794E-02 -0.80703475271E-03  0.21240354248E-01  0.22108135448E-01  0.00000000000E+00 0.  1.
     999901    1    3    3    0    0  0.11504547392E+00 -0.35887393399E-01  0.16271430164E-01  0.88836260925E+00  0.88000000000E+00 0. -1.
        -11    1    4    4    0    0 -0.26492223896E-01  0.92823531722E-02 -0.17001090212E-01  0.32822221083E-01  0.51100000000E-03 0.  1.
         11    1    4    4    0    0 -0.94633192402E-01  0.27412074979E-01 -0.20510694199E-01  0.10063703422E+00  0.51100000000E-03 0. -1.
</event>
<event>
 8    1  0.1128641E+005  0.1043930E+01  0.7957747E-01            NaN
         13   -1    0    0    0    0  0.00000000000E+00  0.00000000000E+00  0.74505805969E-08  0.10566000000E+00  0.10566000000E+00 0.  1.
     999900   -1    0    0    0    0 -0.00000000000E+00 -0.00000000000E+00 -0.74505805969E-08  0.93827000000E+00  0.93827000000E+00 0. -1.
     999902    2    1    2    0    0  0.17043653511E-01 -0.14611765034E-01 -0.13008915768E-01  0.10179834840E+01  0.10176527659E+01 0.  0.
     999903    2    3    3    0    0 -0.35961569444E-01  0.83773446394E-01 -0.87347174747E-01  0.12780632174E+00  0.19841928896E-01 0.  0.
         14    1    1    2    0    0 -0.17043653511E-01  0.14611765034E-01  0.13008915768E-01  0.25946515987E-01  0.00000000000E+00 0.  1.
     999901    1    3    3    0    0  0.53005222955E-01 -0.98385211428E-01  0.74338258979E-01  0.89017716228E+00  0.88000000000E+00 0. -1.
        -11    1    4    4    0    0 -0.41279506023E-02  0.21899833363E-01 -0.12284817230E-01  0.25452318812E-01  0.51100000000E-03 0.  1.
         11    1    4    4    0    0 -0.31833618842E-01  0.61873613031E-01 -0.75062357517E-01  0.10235400293E+00  0.51100000000E-03 0. -1.
</event>
<event>
 8    1  0.1128641E+005  0.1043930E+01  0.7957747E-01            NaN
         13   -1    0    0    0    0  0.00000000000E+00  0.00000000000E+00  0.74505805969E-08  0.10566000000E+00  0.10566000000E+00 0. -1.
     999900   -1    0    0    0    0 -0.00000000000E+00 -0.00000000000E+00 -0.74505805969E-08  0.93827000000E+00  0.93827000000E+00 0. -1.
     999902    2    1    2    0    0 -0.10438628423E-01 -0.20034810667E-01 -0.51453876503E-02  0.10207603298E+01  0.10204973382E+01 0.  0.
     999903    2    3    3    0    0 -0.70294990117E-01 -0.10713382269E+00 -0.35767959135E-01  0.13390816412E+00  0.15264596933E-01 0.  0.
         14    1    1    2    0    0  0.10438628423E-01  0.20034810667E-01  0.51453876503E-02  0.23169670172E-01  0.00000000000E+00 0. -1.
     999901    1    3    3    0    0  0.59856361694E-01  0.87099012019E-01  0.30622571484E-01  0.88685216570E+00  0.88000000000E+00 0.  1.
        -11    1    4    4    0    0 -0.70017933635E-02 -0.19991326509E-01 -0.35065086044E-02  0.21476381666E-01  0.51100000000E-03 0. -1.
         11    1    4    4    0    0 -0.63293196754E-01 -0.87142496177E-01 -0.32261450530E-01  0.11243178246E+00  0.51100000000E-03 0.  1.
</event>
<event>
 8    1  0.1128641E+005  0.1043930E+01  0.7957747E-01            NaN
         13   -1    0    0    0    0  0.00000000000E+00  0.00000000000E+00  0.74505805969E-08  0.10566000000E+00  0.10566000000E+00 0.  1.
     999900   -1    0    0    0    0 -0.00000000000E+00 -0.00000000000E+00 -0.74505805969E-08  0.93827000000E+00  0.93827000000E+00 0.  1.
     999902    2    1    2    0    0  0.13262696351E-01  0.11295084074E-01 -0.15969545230E-01  0.10202973020E+01  0.10200235684E+01 0.  0.
     999903    2    3    3    0    0  0.49627725766E-01  0.10840112279E-01 -0.12078481187E+00  0.13333120206E+00  0.24653994923E-01 0.  0.
         14    1    1    2    0    0 -0.13262696351E-01 -0.11295084074E-01  0.15969545230E-01  0.23632697975E-01  0.00000000000E+00 0.  1.
     999901    1    3    3    0    0 -0.36365029415E-01  0.45497179501E-03  0.10481526664E+00  0.88696609996E+00  0.88000000000E+00 0. -1.
        -11    1    4    4    0    0  0.15531480589E-01 -0.78384277977E-02 -0.42401143640E-01  0.45834331485E-01  0.51100000000E-03 0.  1.
         11    1    4    4    0    0  0.34096245177E-01  0.18678540076E-01 -0.78383668230E-01  0.87496870577E-01  0.51100000000E-03 0. -1.
</event>
<event>
 7    1  0.1128641E+005  0.1043930E+01  0.7957747E-01            NaN
         13   -1    0    0    0    0  0.00000000000E+00  0.00000000000E+00  0.74505805969E-08  0.10566000000E+00  0.10566000000E+00 0. -1.
     999900   -1    0    0    0    0 -0.00000000000E+00 -0.00000000000E+00 -0.74505805969E-08  0.93827000000E+00  0.93827000000E+00 0. -1.
     999903    2    1    2    0    0 -0.28494682266E-01 -0.27458556039E-01  0.79162421017E-01  0.90684210605E-01  0.19774173421E-01 0.  0.
         14    1    1    2    0    0  0.43753530750E-01  0.51552222624E-01  0.97083784862E-02  0.68309997244E-01  0.00000000000E+00 0.  1.
     999901    1    1    2    0    0 -0.15258848485E-01 -0.24093666585E-01 -0.88870799504E-01  0.88493579215E+00  0.88000000000E+00 0. -1.
        -11    1    3    3    0    0 -0.88567236601E-02 -0.21875039039E-01  0.46807387063E-01  0.52422814610E-01  0.51100000000E-03 0.  1.
         11    1    3    3    0    0 -0.19637958606E-01 -0.55835169998E-02  0.32355033954E-01  0.38261395995E-01  0.51100000000E-03 0. -1.
</event>
<event>
 8    1  0.1128641E+005  0.1043930E+01  0.7957747E-01            NaN
         13   -1    0    0    0    0  0.00000000000E+00  0.00000000000E+00  0.74505805969E-08  0.10566000000E+00  0.10566000000E+00 0. -1.
     999900   -1    0    0    0    0 -0.00000000000E+00 -0.00000000000E+00 -0.74505805969E-08  0.93827000000E+00  0.93827000000E+00 0.  1.
     999902    2    1    2    0    0  0.21485202246E-01  0.11056860638E-01 -0.38511546409E-03  0.10197635688E+01  0.10194771797E+01 0.  0.
     999903    2    3    3    0    0  0.97917335943E-01  0.23846446063E-01  0.83549099048E-01  0.13237954995E+00  0.19683384490E-01 0.  0.
         14    1    1    2    0    0 -0.21485202246E-01 -0.11056860638E-01  0.38511546409E-03  0.24166431194E-01  0.00000000000E+00 0.  1.
     999901    1    3    3    0    0 -0.76432133697E-01 -0.12789585425E-01 -0.83934214512E-01  0.88738401886E+00  0.88000000000E+00 0.  1.
        -11    1    4    4    0    0  0.91569898183E-01  0.21863899364E-01  0.83297660734E-01  0.12570536088E+00  0.51100000000E-03 0. -1.
         11    1    4    4    0    0  0.63474377609E-02  0.19825466990E-02  0.25143831389E-03  0.66741890719E-02  0.51100000000E-03 0.  1.
</event>
<event>
 8    1  0.1128641E+005  0.1043930E+01  0.7957747E-01            NaN
         13   -1    0    0    0    0  0.00000000000E+00  0.00000000000E+00  0.74505805969E-08  0.10566000000E+00  0.10566000000E+00 0.  1.
     999900   -1    0    0    0    0 -0.00000000000E+00 -0.00000000000E+00 -0.74505805969E-08  0.93827000000E+00  0.93827000000E+00 0. -1.
     999902    2    1    2    0    0 -0.29006700870E-02  0.18420356052E-01  0.14449505022E-01  0.10203395019E+01  0.10200667564E+01 0.  0.
     999903    2    3    3    0    0  0.86004273213E-01 -0.40234761050E-01  0.87614978122E-01  0.13090277109E+00  0.21061340895E-01 0.  0.
         14    1    1    2    0    0  0.29006700870E-02 -0.18420356052E-01 -0.14449505022E-01  0.23590498074E-01  0.00000000000E+00 0. -1.
     999901    1    3    3    0    0 -0.88904943300E-01  0.58655117101E-01 -0.73165473100E-01  0.88943673084E+00  0.88000000000E+00 0. -1.
        -11    1    4    4    0    0  0.77038931193E-01 -0.28705576319E-01  0.69703791465E-01  0.10778630106E+00  0.51100000000E-03 0.  1.
         11    1    4    4    0    0  0.89653420194E-02 -0.11529184731E-01  0.17911186657E-01  0.23116470028E-01  0.51100000000E-03 0. -1.
</event>
<event>
 8    1  0.1128641E+005  0.1043930E+01  0.7957747E-01            NaN
         13   -1    0    0    0    0  0.00000000000E+00  0.00000000000E+00  0.74505805969E-08  0.10566000000E+00  0.10566000000E+00 0.  1.
     999900   -1    0    0    0    0 -0.00000000000E+00 -0.00000000000E+00 -0.74505805969E-08  0.93827000000E+00  0.93827000000E+00 0.  1.
     999902    2    1    2    0    0  0.20522837396E-01  0.92385193097E-02  0.10985383576E-01  0.10188857243E+01  0.10185778828E+01 0.  0.
     999903    2    3    3    0    0  0.83720433346E-03 -0.11794852581E+00 -0.44990182030E-01  0.12776433382E+00  0.19673659179E-01 0.  0.
         14    1    1    2    0    0 -0.20522837396E-01 -0.92385193097E-02 -0.10985383576E-01  0.25044275716E-01  0.00000000000E+00 0. -1.
     999901    1    3    3    0    0  0.19685633062E-01  0.12718704512E+00  0.55975565607E-01  0.89112139046E+00  0.88000000000E+00 0. -1.
        -11    1    4    4    0    0 -0.65018327003E-02 -0.74959242241E-01 -0.35179305322E-01  0.83060258065E-01  0.51100000000E-03 0. -1.
         11    1    4    4    0    0  0.73390370338E-02 -0.42989283570E-01 -0.98108767086E-02  0.44704075757E-01  0.51100000000E-03 0.  1.
</event>
<event>
 8    1  0.1128641E+005  0.1043930E+01  0.7957747E-01            NaN
         13   -1    0    0    0    0  0.00000000000E+00  0.00000000000E+00  0.74505805969E-08  0.10566000000E+00  0.10566000000E+00 0.  1.
     999900   -1    0    0    0    0 -0.00000000000E+00 -0.00000000000E+00 -0.74505805969E-08  0.93827000000E+00  0.93827000000E+00 0.  1.
     999902    2    1    2    0    0  0.77735322436E-02  0.43808247594E-02  0.22923989245E-01  0.10193306359E+01  0.10190337662E+01 0.  0.
     999903    2    3    3    0    0 -0.16592493941E-02  0.11011805761E-01 -0.12492937079E+00  0.12692178158E+00  0.19436511493E-01 0.  0.
         14    1    1    2    0    0 -0.77735322436E-02 -0.43808247594E-02 -0.22923989245E-01  0.24599364057E-01  0.00000000000E+00 0. -1.
     999901    1    3    3    0    0  0.94327816377E-02 -0.66309810020E-02  0.14785336003E+00  0.89240885437E+00  0.88000000000E+00 0. -1.
        -11    1    4    4    0    0 -0.54130967178E-02  0.18954671969E-02 -0.99145693892E-01  0.99312759252E-01  0.51100000000E-03 0.  1.
         11    1    4    4    0    0  0.37538473237E-02  0.91163385644E-02 -0.25783676894E-01  0.27609022325E-01  0.51100000000E-03 0. -1.
</event>
<event>
 8    1  0.1128641E+005  0.1043930E+01  0.7957747E-01            NaN
         13   -1    0    0    0    0  0.00000000000E+00  0.00000000000E+00  0.74505805969E-08  0.10566000000E+00  0.10566000000E+00 0. -1.
     999900   -1    0    0    0    0 -0.00000000000E+00 -0.00000000000E+00 -0.74505805969E-08  0.93827000000E+00  0.93827000000E+00 0.  1.
     999902    2    1    2    0    0  0.22806600382E-01  0.15079759212E-02 -0.64610119187E-02  0.10201779540E+01  0.10199014159E+01 0.  0.
     999903    2    3    3    0    0  0.49767487751E-01  0.11984542698E+00 -0.11967208449E-01  0.13183063459E+00  0.19909116852E-01 0.  0.
         14    1    1    2    0    0 -0.22806600382E-01 -0.15079759212E-02  0.64610119187E-02  0.23752045961E-01  0.00000000000E+00 0. -1.
     999901    1    3    3    0    0 -0.26960887369E-01 -0.11833745106E+00  0.55061965308E-02  0.88834731945E+00  0.88000000000E+00 0.  1.
        -11    1    4    4    0    0  0.12251275408E-01  0.55163902770E-01 -0.50320440590E-02  0.56733874417E-01  0.51100000000E-03 0. -1.
         11    1    4    4    0    0  0.37516212343E-01  0.64681524208E-01 -0.69351643904E-02  0.75096760173E-01  0.51100000000E-03 0.  1.
</event>
<event>
 8    1  0.1128641E+005  0.1043930E+01  0.7957747E-01            NaN
         13   -1    0    0    0    0  0.00000000000E+00  0.00000000000E+00  0.74505805969E-08  0.10566000000E+00  0.10566000000E+00 0.  1.
     999900   -1    0    0    0    0 -0.00000000000E+00 -0.00000000000E+00 -0.74505805969E-08  0.93827000000E+00  0.93827000000E+00 0. -1.
     999902    2    1    2    0    0 -0.13733661668E-02 -0.24540044028E-01 -0.49336943313E-03  0.10193466050E+01  0.10190501253E+01 0.  0.
     999903    2    3    3    0    0  0.49944920885E-02  0.29003664578E-01  0.12409638848E+00  0.12893653874E+00  0.18935677383E-01 0.  0.
         14    1    1    2    0    0  0.13733661668E-02  0.24540044028E-01  0.49336943313E-03  0.24583394984E-01  0.00000000000E+00 0. -1.
     999901    1    3    3    0    0 -0.63678582553E-02 -0.53543708606E-01 -0.12458975791E+00  0.89041006628E+00  0.88000000000E+00 0. -1.
        -11    1    4    4    0    0  0.16956725680E-02  0.18087818496E-01  0.38405190869E-01  0.42488401830E-01  0.51100000000E-03 0. -1.
         11    1    4    4    0    0  0.32988195204E-02  0.10915846081E-01  0.85691197612E-01  0.86448136909E-01  0.51100000000E-03 0.  1.
</event>
<event>
 8    1  0.1128641E+005  0.1043930E+01  0.7957747E-01            NaN
         13   -1    0    0    0    0  0.00000000000E+00  0.00000000000E+00  0.74505805969E-08  0.10566000000E+00  0.10566000000E+00 0. -1.
     999900   -1    0    0    0    0 -0.00000000000E+00 -0.00000000000E+00 -0.74505805969E-08  0.93827000000E+00  0.93827000000E+00 0.  1.
     999902    2    1    2    0    0 -0.27739633076E-02  0.23601833621E-01  0.48228177658E-02  0.10196812682E+01  0.10193929015E+01 0.  0.
     999903    2    3    3    0    0  0.80509203742E-01 -0.15227617995E-01 -0.97570630962E-01  0.12899151830E+00  0.20128873072E-01 0.  0.
         14    1    1    2    0    0  0.27739633076E-02 -0.23601833621E-01 -0.48228177658E-02  0.24248731800E-01  0.00000000000E+00 0.  1.
     999901    1    3    3    0    0 -0.83283167049E-01  0.38829451616E-01  0.10239344873E+00  0.89068974990E+00  0.88000000000E+00 0. -1.
        -11    1    4    4    0    0  0.60514094401E-01 -0.89650850184E-02 -0.58453712280E-01  0.84613391204E-01  0.51100000000E-03 0.  1.
         11    1    4    4    0    0  0.19995109340E-01 -0.62625329765E-02 -0.39116918681E-01  0.44378127100E-01  0.51100000000E-03 0. -1.
</event>
<event>
 8    1  0.1128641E+005  0.1043930E+01  0.7957747E-01            NaN
         13   -1    0    0    0    0  0.00000000000E+00  0.00000000000E+00  0.74505805969E-08  0.10566000000E+00  0.10566000000E+00 0. -1.
     999900   -1    0    0    0    0 -0.00000000000E+00 -0.00000000000E+00 -0.74505805969E-08  0.93827000000E+00  0.93827000000E+00 0.  1.
     999902    2    1    2    0    0  0.19737917344E-01 -0.60316633473E-03  0.14229144975E-01  0.10195903665E+01  0.10192998076E+01 0.  0.
     999903    2    3    3    0    0  0.11725318138E+00 -0.56475921146E-01  0.13831598745E-01  0.13244260573E+00  0.20295134278E-01 0.  0.
         14    1    1    2    0    0 -0.19737917344E-01  0.60316633473E-03 -0.14229144975E-01  0.24339633470E-01  0.00000000000E+00 0.  1.
     999901    1    3    3    0    0 -0.97515264037E-01  0.55872754811E-01  0.39754623028E-03  0.88714776080E+00  0.88000000000E+00 0.  1.
        -11    1    4    4    0    0  0.28489690102E-01 -0.16366293655E-01  0.12111778457E-01  0.35021055216E-01  0.51100000000E-03 0.  1.
         11    1    4    4    0    0  0.88763491280E-01 -0.40109627491E-01  0.17198202881E-02  0.97421550513E-01  0.51100000000E-03 0. -1.
</event>
<event>
 8    1  0.1128641E+005  0.1043930E+01  0.7957747E-01            NaN
         13   -1    0    0    0    0  0.00000000000E+00  0.00000000000E+00  0.74505805969E-08  0.10566000000E+00  0.10566000000E+00 0. -1.
     999900   -1    0    0    0    0 -0.00000000000E+00 -0.00000000000E+00 -0.74505805969E-08  0.93827000000E+00  0.93827000000E+00 0. -1.
     999902    2    1    2    0    0 -0.15572432119E-01  0.51991776965E-02  0.17014518157E-01  0.10202862710E+01  0.10200122788E+01 0.  0.
     999903    2    3    3    0    0 -0.31169912731E-01 -0.12363463554E+00  0.21296531832E-01  0.13075843647E+00  0.19675870393E-01 0.  0.
         14    1    1    2    0    0  0.15572432119E-01 -0.51991776965E-02 -0.17014518157E-01  0.23643728955E-01  0.00000000000E+00 0.  1.
     999901    1    3    3    0    0  0.15597480612E-01  0.12883381324E+00 -0.42820136754E-02  0.88952783457E+00  0.88000000000E+00 0.  1.
        -11    1    4    4    0    0 -0.21454822815E-01 -0.45889865324E-01  0.80794887985E-02  0.51300374480E-01  0.51100000000E-03 0. -1.
         11    1    4    4    0    0 -0.97150899153E-02 -0.77744770218E-01  0.13217043033E-01  0.79458061994E-01  0.51100000000E-03 0.  1.
</event>
<event>
 8    1  0.1128641E+005  0.1043930E+01  0.7957747E-01            NaN
         13   -1    0    0    0    0  0.00000000000E+00  0.00000000000E+00  0.74505805969E-08  0.10566000000E+00  0.10566000000E+00 0.  1.
     999900   -1    0    0    0    0 -0.00000000000E+00 -0.00000000000E+00 -0.74505805969E-08  0.93827000000E+00  0.93827000000E+00 0.  1.
     999902    2    1    2    0    0  0.49938139380E-02 -0.17244546774E-01  0.15599359659E-01  0.10201465479E+01  0.10198692694E+01 0.  0.
     999903    2    3    3    0    0  0.12660059324E+00 -0.26220595732E-01 -0.11380062184E-01  0.13132898091E+00  0.20064036510E-01 0.  0.
         14    1    1    2    0    0 -0.49938139380E-02  0.17244546774E-01 -0.15599359659E-01  0.23783452081E-01  0.00000000000E+00 0. -1.
     999901    1    3    3    0    0 -0.12160677930E+00  0.89760489575E-02  0.26979421844E-01  0.88881756701E+00  0.88000000000E+00 0.  1.
        -11    1    4    4    0    0  0.50273765934E-01 -0.17140161955E-01  0.26867632886E-02  0.53185679567E-01  0.51100000000E-03 0.  1.
         11    1    4    4    0    0  0.76326827307E-01 -0.90804337762E-02 -0.14066825473E-01  0.78143301340E-01  0.51100000000E-03 0. -1.
</event>
<event>
 7    1  0.1128641E+005  0.1043930E+01  0.7957747E-01            NaN
         13   -1    0    0    0    0  0.00000000000E+00  0.00000000000E+00  0.74505805969E-08  0.10566000000E+00  0.10566000000E+00 0.  1.
     999900   -1    0    0    0    0 -0.00000000000E+00 -0.00000000000E+00 -0.74505805969E-08  0.93827000000E+00  0.93827000000E+00 0.  1.
     999903    2    1    2    0    0  0.61541966914E-01 -0.23701392664E-01 -0.88467980308E-01  0.11166784433E+00  0.17145092959E-01 0.  0.
         14    1    1    2    0    0  0.30684254501E-01  0.13582835603E-01 -0.22577096715E-01  0.40444309778E-01  0.00000000000E+00 0. -1.
     999901    1    1    2    0    0 -0.92226221415E-01  0.10118557062E-01  0.11104507702E+00  0.89181784589E+00  0.88000000000E+00 0. -1.
        -11    1    3    3    0    0  0.70808875359E-02 -0.93280626966E-02 -0.13147566164E-01  0.17614520686E-01  0.51100000000E-03 0. -1.
         11    1    3    3    0    0  0.54461079378E-01 -0.14373329968E-01 -0.75320414144E-01  0.94053323648E-01  0.51100000000E-03 0.  1.
</event>
<event>
 8    1  0.1128641E+005  0.1043930E+01  0.7957747E-01            NaN
         13   -1    0    0    0    0  0.00000000000E+00  0.00000000000E+00  0.74505805969E-08  0.10566000000E+00  0.10566000000E+00 0.  1.
     999900   -1    0    0    0    0 -0.00000000000E+00 -0.00000000000E+00 -0.74505805969E-08  0.93827000000E+00  0.93827000000E+00 0. -1.
     999902    2    1    2    0    0 -0.49531542601E-02 -0.18556828947E-01 -0.13351080159E-01  0.10205389552E+01  0.10202708552E+01 0.  0.
     999903    2    3    3    0    0 -0.89478225298E-01 -0.56703473159E-01  0.74855262571E-01  0.13128083009E+00  0.20241278179E-01 0.  0.
         14    1    1    2    0    0  0.49531542601E-02  0.18556828947E-01  0.13351080159E-01  0.23391044848E-01  0.00000000000E+00 0.  1.
     999901    1    3    3    0    0  0.84525071038E-01  0.38146644212E-01 -0.88206342730E-01  0.88925812507E+00  0.88000000000E+00 0. -1.
        -11    1    4    4    0    0 -0.26408486344E-01 -0.15140023917E-01  0.10998971514E-01  0.32370773400E-01  0.51100000000E-03 0. -1.
         11    1    4    4    0    0 -0.63069738955E-01 -0.41563449242E-01  0.63856291058E-01  0.98910056685E-01  0.51100000000E-03 0.  1.
</event>
<event>
 8    1  0.1128641E+005  0.1043930E+01  0.7957747E-01            NaN
         13   -1    0    0    0    0  0.00000000000E+00  0.00000000000E+00  0.74505805969E-08  0.10566000000E+00  0.10566000000E+00 0.  1.
     999900   -1    0    0    0    0 -0.00000000000E+00 -0.00000000000E+00 -0.74505805969E-08  0.93827000000E+00  0.93827000000E+00 0. -1.
     999902    2    1    2    0    0 -0.19099521250E-01 -0.88943381302E-02  0.11055408480E-01  0.10201366602E+01  0.10198591483E+01 0.  0.
     999903    2    3    3    0    0  0.10750227400E+00  0.63400491308E-01 -0.18580292344E-01  0.12764977979E+00  0.19310044114E-01 0.  0.
         14    1    1    2    0    0  0.19099521250E-01  0.88943381302E-02 -0.11055408480E-01  0.23793339812E-01  0.00000000000E+00 0.  1.
     999901    1    3    3    0    0 -0.12660179525E+00 -0.72294829439E-01  0.29635700824E-01  0.89248688040E+00  0.88000000000E+00 0.  1.
        -11    1    4    4    0    0  0.24718326910E-01  0.59224904324E-02 -0.18773683673E-02  0.25492297094E-01  0.51100000000E-03 0. -1.
         11    1    4    4    0    0  0.82783947087E-01  0.57478000876E-01 -0.16702923977E-01  0.10215748269E+00  0.51100000000E-03 0.  1.
</event>
<event>
 8    1  0.1128641E+005  0.1043930E+01  0.7957747E-01            NaN
         13   -1    0    0    0    0  0.00000000000E+00  0.00000000000E+00  0.74505805969E-08  0.10566000000E+00  0.10566000000E+00 0. -1.
     999900   -1    0    0    0    0 -0.00000000000E+00 -0.00000000000E+00 -0.74505805969E-08  0.93827000000E+00  0.93827000000E+00 0. -1.
     999902    2    1    2    0    0  0.38393034633E-02 -0.21883732114E-01 -0.46631088027E-02  0.10212279612E+01  0.10209755953E+01 0.  0.
     999903    2    3    3    0    0  0.10059195761E+00 -0.22019494758E-01 -0.81189575596E-01  0.13262377786E+00  0.19842358320E-01 0.  0.
         14    1    1    2    0    0 -0.38393034633E-02  0.21883732114E-01  0.46631088027E-02  0.22702038808E-01  0.00000000000E+00 0. -1.
     999901    1    3    3    0    0 -0.96752654145E-01  0.13576264365E-03  0.76526466793E-01  0.88860418333E+00  0.88000000000E+00 0.  1.
        -11    1    4    4    0    0  0.48341642920E-01 -0.15232642239E-01 -0.50962794080E-01  0.71877780511E-01  0.51100000000E-03 0.  1.
         11    1    4    4    0    0  0.52250314688E-01 -0.67868525187E-02 -0.30226781516E-01  0.60745997349E-01  0.51100000000E-03 0. -1.
</event>
<event>
 8    1  0.1128641E+005  0.1043930E+01  0.7957747E-01            NaN
         13   -1    0    0    0    0  0.00000000000E+00  0.00000000000E+00  0.74505805969E-08  0.10566000000E+00  0.10566000000E+00 0. -1.
     999900   -1    0    0    0    0 -0.00000000000E+00 -0.00000000000E+00 -0.74505805969E-08  0.93827000000E+00  0.93827000000E+00 0. -1.
     999902    2    1    2    0    0  0.17893122033E-01 -0.18599807976E-01  0.65110348404E-02  0.10173121442E+01  0.10169638580E+01 0.  0.
     999903    2    3    3    0    0  0.14746584285E-01  0.42658086693E-01  0.11816155730E+00  0.12813934349E+00  0.20502770984E-01 0.  0.
         14    1    1    2    0    0 -0.17893122033E-01  0.18599807976E-01 -0.65110348404E-02  0.26617855803E-01  0.00000000000E+00 0.  1.
     999901    1    3    3    0    0  0.31465377482E-02 -0.61257894669E-01 -0.11165052246E+00  0.88917280071E+00  0.88000000000E+00 0. -1.
        -11    1    4    4    0    0  0.15388781103E-01  0.32609524291E-01  0.67957463735E-01  0.76932916600E-01  0.51100000000E-03 0. -1.
         11    1    4    4    0    0 -0.64219681850E-03  0.10048562402E-01  0.50204093561E-01  0.51206426886E-01  0.51100000000E-03 0.  1.
</event>
<event>
 8    1  0.1128641E+005  0.1043930E+01  0.7957747E-01            NaN
         13   -1    0    0    0    0  0.00000000000E+00  0.00000000000E+00  0.74505805969E-08  0.10566000000E+00  0.10566000000E+00 0. -1.
     999900   -1    0    0    0    0 -0.00000000000E+00 -0.00000000000E+00 -0.74505805969E-08  0.93827000000E+00  0.93827000000E+00 0.  1.
     999902    2    1    2    0    0  0.21631610899E-01  0.69657423322E-02  0.49166999127E-02  0.10206787184E+01  0.10204138495E+01 0.  0.
     999903    2    3    3    0    0 -0.42691590145E-01 -0.11498816376E+00 -0.34896688595E-01  0.12905360926E+00  0.19804179228E-01 0.  0.
         14    1    1    2    0    0 -0.21631610899E-01 -0.69657423322E-02 -0.49166999127E-02  0.23251281563E-01  0.00000000000E+00 0. -1.
     999901    1    3    3    0    0  0.64323201044E-01  0.12195390609E+00  0.39813388507E-01  0.89162510917E+00  0.88000000000E+00 0. -1.
        -11    1    4    4    0    0 -0.38435217930E-01 -0.78939174087E-01 -0.27483658613E-01  0.92001477133E-01  0.51100000000E-03 0. -1.
         11    1    4    4    0    0 -0.42563722156E-02 -0.36048989673E-01 -0.74130299812E-02  0.37052132130E-01  0.51100000000E-03 0.  1.
</event>
<event>
 8    1  0.1196662E+005  0.1043930E+01  0.7957747E-01            NaN
         13   -1    0    0    0    0  0.00000000000E+00  0.00000000000E+00  0.74505805969E-08  0.10566000000E+00  0.10566000000E+00 0.  1.
     999900   -1    0    0    0    0 -0.00000000000E+00 -0.00000000000E+00 -0.74505805969E-08  0.93827000000E+00  0.93827000000E+00 0. -1.
     999902    2    1    2    0    0 -0.12618996315E-02 -0.24183877166E-01 -0.62531550115E-02  0.10189189174E+01  0.10186119015E+01 0.  0.
     999903    2    3    3    0    0 -0.81157042176E-01 -0.84145361037E-01  0.55802969575E-01  0.13109597562E+00  0.20131471151E-01 0.  0.
         14    1    1    2    0    0  0.12618996315E-02  0.24183877166E-01  0.62531550115E-02  0.25011082605E-01  0.00000000000E+00 0.  1.
     999901    1    3    3    0    0  0.79895142544E-01  0.59961483871E-01 -0.62056124587E-01  0.88782294178E+00  0.88000000000E+00 0. -1.
        -11    1    4    4    0    0 -0.52721572589E-01 -0.57179804376E-01  0.47174372600E-01  0.90965800144E-01  0.51100000000E-03 0. -1.
         11    1    4    4    0    0 -0.28435469587E-01 -0.26965556661E-01  0.86285969750E-02  0.40130175472E-01  0.51100000000E-03 0.  1.
</event>
<event>
 8    1  0.1128641E+005  0.1043930E+01  0.7957747E-01            NaN
         13   -1    0    0    0    0  0.00000000000E+00  0.00000000000E+00  0.74505805969E-08  0.10566000000E+00  0.10566000000E+00 0. -1.
     999900   -1    0    0    0    0 -0.00000000000E+00 -0.00000000000E+00 -0.74505805969E-08  0.93827000000E+00  0.93827000000E+00 0. -1.
     999902    2    1    2    0    0 -0.22474240648E-02 -0.12622325460E-01 -0.17877370835E-01  0.10219305818E+01  0.10216937602E+01 0.  0.
     999903    2    3    3    0    0 -0.73351449220E-01 -0.59861331328E-01  0.89046715145E-01  0.13135769522E+00  0.19018741433E-01 0.  0.
         14    1    1    2    0    0  0.22474240648E-02  0.12622325460E-01  0.17877370835E-01  0.21999418240E-01  0.00000000000E+00 0. -1.
     999901    1    3    3    0    0  0.71104025155E-01  0.47239005868E-01 -0.10692408598E+00  0.89057288653E+00  0.88000000000E+00 0. -1.
        -11    1    4    4    0    0 -0.47520610272E-01 -0.30351610937E-01  0.43275435669E-01  0.71080610158E-01  0.51100000000E-03 0.  1.
         11    1    4    4    0    0 -0.25830838948E-01 -0.29509720391E-01  0.45771279476E-01  0.60277085066E-01  0.51100000000E-03 0. -1.
</event>
<event>
 8    1  0.1128641E+005  0.1043930E+01  0.7957747E-01            NaN
         13   -1    0    0    0    0  0.00000000000E+00  0.00000000000E+00  0.74505805969E-08  0.10566000000E+00  0.10566000000E+00 0.  1.
     999900   -1    0    0    0    0 -0.00000000000E+00 -0.00000000000E+00 -0.74505805969E-08  0.93827000000E+00  0.93827000000E+00 0.  1.
     999902    2    1    2    0    0 -0.10502024712E-01 -0.16146120574E-01  0.13805653994E-01  0.10202321981E+01  0.10199569365E+01 0.  0.
     999903    2    3    3    0    0  0.17640664121E-01 -0.41451855952E-01 -0.11957252297E+00  0.12937747972E+00  0.20285330037E-01 0.  0.
         14    1    1    2    0    0  0.10502024712E-01  0.16146120574E-01 -0.13805653994E-01  0.23697801899E-01  0.00000000000E+00 0. -1.
     999901    1    3    3    0    0 -0.28142688833E-01  0.25305735379E-01  0.13337817697E+00  0.89085471839E+00  0.88000000000E+00 0. -1.
        -11    1    4    4    0    0  0.17732323529E-01 -0.28018243557E-01 -0.10198006700E+00  0.10723643251E+00  0.51100000000E-03 0. -1.
         11    1    4    4    0    0 -0.91659407941E-04 -0.13433612396E-01 -0.17592455972E-01  0.22141047210E-01  0.51100000000E-03 0.  1.
</event>
<event>
 8    1  0.1128641E+005  0.1043930E+01  0.7957747E-01            NaN
         13   -1    0    0    0    0  0.00000000000E+00  0.00000000000E+00  0.74505805969E-08  0.10566000000E+00  0.10566000000E+00 0. -1.
     999900   -1    0    0    0    0 -0.00000000000E+00 -0.00000000000E+00 -0.74505805969E-08  0.93827000000E+00  0.93827000000E+00 0.  1.
     999902    2    1    2    0    0 -0.12486530641E-01  0.11532893250E-01  0.17091075334E-01  0.10198255205E+01  0.10195406154E+01 0.  0.
     999903    2    3    3    0    0  0.47649716415E-01 -0.11261609450E-01  0.12039093313E+00  0.13145239049E+00  0.19708750940E-01 0.  0.
         14    1    1    2    0    0  0.12486530641E-01 -0.11532893250E-01 -0.17091075334E-01  0.24104479464E-01  0.00000000000E+00 0.  1.
     999901    1    3    3    0    0 -0.60136247056E-01  0.22794502701E-01 -0.10329985780E+00  0.88837313004E+00  0.88000000000E+00 0.  1.
        -11    1    4    4    0    0  0.42437105620E-01 -0.76429252639E-02  0.83106575079E-01  0.93628447506E-01  0.51100000000E-03 0.  1.
         11    1    4    4    0    0  0.52126107954E-02 -0.36186841866E-02  0.37284358053E-01  0.37823942985E-01  0.51100000000E-03 0. -1.
</event>
<event>
 8    1  0.1128641E+005  0.1043930E+01  0.7957747E-01            NaN
         13   -1    0    0    0    0  0.00000000000E+00  0.00000000000E+00  0.74505805969E-08  0.10566000000E+00  0.10566000000E+00 0.  1.
     999900   -1    0    0    0    0 -0.00000000000E+00 -0.00000000000E+00 -0.74505805969E-08  0.93827000000E+00  0.93827000000E+00 0. -1.
     999902    2    1    2    0    0  0.13952463743E-01 -0.32542703522E-02 -0.18706729272E-01  0.10203672489E+01  0.10200951521E+01 0.  0.
     999903    2    3    3    0    0  0.98504602309E-01  0.84932555122E-01 -0.77885086931E-02  0.13185996818E+00  0.20240917611E-01 0.  0.
         14    1    1    2    0    0 -0.13952463743E-01  0.32542703522E-02  0.18706729272E-01  0.23562751114E-01  0.00000000000E+00 0.  1.
     999901    1    3    3    0    0 -0.84552138566E-01 -0.88186825474E-01 -0.10918220579E-01  0.88850728070E+00  0.88000000000E+00 0. -1.
        -11    1    4    4    0    0  0.15094126438E-01  0.17960863676E-01 -0.82897677498E-02  0.24887881534E-01  0.51100000000E-03 0.  1.
         11    1    4    4    0    0  0.83410475871E-01  0.66971691446E-01  0.50125905665E-03  0.10697208665E+00  0.51100000000E-03 0. -1.
</event>
<event>
 8    1  0.1128641E+005  0.1043930E+01  0.7957747E-01            NaN
         13   -1    0    0    0    0  0.00000000000E+00  0.00000000000E+00  0.74505805969E-08  0.10566000000E+00  0.10566000000E+00 0.  1.
     999900   -1    0    0    0    0 -0.00000000000E+00 -0.00000000000E+00 -0.74505805969E-08  0.93827000000E+00  0.93827000000E+00 0.  1.
     999902    2    1    2    0    0  0.72873028678E-02 -0.43292823430E-02 -0.25282631078E-01  0.10172643123E+01  0.10169147565E+01 0.  0.
     999903    2    3    3    0    0  0.94526988666E-01 -0.84699630159E-01 -0.91559831883E-02  0.12915946239E+00  0.22112344079E-01 0.  0.
         14    1    1    2    0    0 -0.72873028678E-02  0.43292823430E-02  0.25282631078E-01  0.26665687746E-01  0.00000000000E+00 0.  1.
     999901    1    3    3    0    0 -0.87239685798E-01  0.80370347816E-01 -0.16126647890E-01  0.88810484987E+00  0.88000000000E+00 0.  1.
        -11    1    4    4    0    0  0.74105317721E-01 -0.74168949815E-01 -0.12481452757E-02  0.10485442393E+00  0.51100000000E-03 0.  1.
         11    1    4    4    0    0  0.20421670945E-01 -0.10530680344E-01 -0.79078379126E-02  0.24305038452E-01  0.51100000000E-03 0. -1.
</event>
<event>
 8    1  0.1128641E+005  0.1043930E+01  0.7957747E-01            NaN
         13   -1    0    0    0    0  0.00000000000E+00  0.00000000000E+00  0.74505805969E-08  0.10566000000E+00  0.10566000000E+00 0.  1.
     999900   -1    0    0    0    0 -0.00000000000E+00 -0.00000000000E+00 -0.74505805969E-08  0.93827000000E+00  0.93827000000E+00 0.  1.
     999902    2    1    2    0    0  0.16487950439E-01  0.12669061365E-01  0.10500666836E-01  0.10206357597E+01  0.10203698998E+01 0.  0.
     999903    2    3    3    0    0 -0.48853675438E-01 -0.90447482145E-01 -0.73835044704E-01  0.12821486024E+00  0.20494094980E-01 0.  0.
         14    1    1    2    0    0 -0.16487950439E-01 -0.12669061365E-01 -0.10500666836E-01  0.23294240266E-01  0.00000000000E+00 0. -1.
     999901    1    3    3    0    0  0.65341625877E-01  0.10311654351E+00  0.84335711540E-01  0.89242089950E+00  0.88000000000E+00 0. -1.
        -11    1    4    4    0    0 -0.28916521277E-01 -0.32419365862E-01 -0.31732058938E-01  0.53799304560E-01  0.51100000000E-03 0. -1.
         11    1    4    4    0    0 -0.19937154161E-01 -0.58028116283E-01 -0.42102985767E-01  0.74415555678E-01  0.51100000000E-03 0.  1.
</event>
<event>
 8    1  0.1128641E+005  0.1043930E+01  0.7957747E-01            NaN
         13   -1    0    0    0    0  0.00000000000E+00  0.00000000000E+00  0.74505805969E-08  0.10566000000E+00  0.10566000000E+00 0. -1.
     999900   -1    0    0    0    0 -0.00000000000E+00 -0.00000000000E+00 -0.74505805969E-08  0.93827000000E+00  0.93827000000E+00 0. -1.
     999902    2    1    2    0    0  0.21898430397E-01 -0.38069565185E-02  0.83230507725E-02  0.10201959033E+01  0.10199197879E+01 0.  0.
     999903    2    3    3    0    0 -0.10171880800E+00 -0.53753038455E-01 -0.52641646694E-01  0.12806781437E+00  0.19852381869E-01 0.  0.
         14    1    1    2    0    0 -0.21898430397E-01  0.38069565185E-02 -0.83230507725E-02  0.23734096695E-01  0.00000000000E+00 0. -1.
     999901    1    3    3    0    0  0.12361723840E+00  0.49946081937E-01  0.60964697466E-01  0.89212808894E+00  0.88000000000E+00 0.  1.
        -11    1    4    4    0    0 -0.32313496855E-01 -0.71789287887E-02 -0.16764486101E-01  0.37108061291E-01  0.51100000000E-03 0.  1.
         11    1    4    4    0    0 -0.69405311148E-01 -0.46574109666E-01 -0.35877160593E-01  0.90959753078E-01  0.51100000000E-03 0. -1.
</event>
<event>
 8    1  0.1128641E+005  0.1043930E+01  0.7957747E-01            NaN
         13   -1    0    0    0    0  0.00000000000E+00  0.00000000000E+00  0.74505805969E-08  0.10566000000E+00  0.10566000000E+00 0. -1.
     999900   -1    0    0    0    0 -0.00000000000E+00 -0.00000000000E+00 -0.74505805969E-08  0.93827000000E+00  0.93827000000E+00 0. -1.
     999902    2    1    2    0    0  0.38054673877E-02 -0.21724660885E-01  0.92657463946E-02  0.10200072801E+01  0.10197267060E+01 0.  0.
     999903    2    3    3    0    0 -0.11853877716E+00 -0.50872790683E-01  0.14428660029E-01  0.13105037261E+00  0.18070180063E-01 0.  0.
         14    1    1    2    0    0 -0.38054673877E-02  0.21724660885E-01 -0.92657463946E-02  0.23922719930E-01  0.00000000000E+00 0. -1.
     999901    1    3    3    0    0  0.12234424455E+00  0.29148129798E-01 -0.51629136341E-02  0.88895690746E+00  0.88000000000E+00 0. -1.
        -11    1    4    4    0    0 -0.47245392471E-01 -0.11089327130E-01  0.75694142044E-02  0.49118809415E-01  0.51100000000E-03 0.  1.
         11    1    4    4    0    0 -0.71293384691E-01 -0.39783463553E-01  0.68592458243E-02  0.81931563193E-01  0.51100000000E-03 0. -1.
</event>
<event>
 8    1  0.1128641E+005  0.1043930E+01  0.7957747E-01            NaN
         13   -1    0    0    0    0  0.00000000000E+00  0.00000000000E+00  0.74505805969E-08  0.10566000000E+00  0.10566000000E+00 0. -1.
     999900   -1    0    0    0    0 -0.00000000000E+00 -0.00000000000E+00 -0.74505805969E-08  0.93827000000E+00  0.93827000000E+00 0. -1.
     999902    2    1    2    0    0 -0.36977183554E-02  0.13524721668E-01 -0.18609975311E-01  0.10206293048E+01  0.10203632958E+01 0.  0.
     999903    2    3    3    0    0 -0.24524537276E-01  0.12296621979E+00 -0.41043179785E-01  0.13332189098E+00  0.19184365249E-01 0.  0.
         14    1    1    2    0    0  0.36977183554E-02 -0.13524721668E-01  0.18609975311E-01  0.23300695233E-01  0.00000000000E+00 0. -1.
     999901    1    3    3    0    0  0.20826818921E-01 -0.10944149812E+00  0.22433204474E-01  0.88730741379E+00  0.88000000000E+00 0.  1.
        -11    1    4    4    0    0  0.14680941300E-02  0.29257446940E-01 -0.56843636952E-02  0.29845043364E-01  0.51100000000E-03 0.  1.
         11    1    4    4    0    0 -0.25992631406E-01  0.93708772850E-01 -0.35358816090E-01  0.10347684762E+00  0.51100000000E-03 0. -1.
</event>
<event>
 8    1  0.1128641E+005  0.1043930E+01  0.7957747E-01            NaN
         13   -1    0    0    0    0  0.00000000000E+00  0.00000000000E+00  0.74505805969E-08  0.10566000000E+00  0.10566000000E+00 0. -1.
     999900   -1    0    0    0    0 -0.00000000000E+00 -0.00000000000E+00 -0.74505805969E-08  0.93827000000E+00  0.93827000000E+00 0. -1.
     999902    2    1    2    0    0 -0.22750578155E-01  0.96880323413E-02  0.21522396895E-02  0.10191090630E+01  0.10188067547E+01 0.  0.
     999903    2    3    3    0    0  0.24482073423E-01 -0.12350101857E+00 -0.13564283016E-01  0.12769599617E+00  0.16443970229E-01 0.  0.
         14    1    1    2    0    0  0.22750578155E-01 -0.96880323413E-02 -0.21522396895E-02  0.24820936983E-01  0.00000000000E+00 0.  1.
     999901    1    3    3    0    0 -0.47232651578E-01  0.13318905091E+00  0.15716522705E-01  0.89141306685E+00  0.88000000000E+00 0. -1.
        -11    1    4    4    0    0  0.17366033991E-01 -0.83217205932E-01 -0.16807323171E-01  0.86656965865E-01  0.51100000000E-03 0. -1.
         11    1    4    4    0    0  0.71160394321E-02 -0.40283812640E-01  0.32430401552E-02  0.41039030306E-01  0.51100000000E-03 0.  1.
</event>
<event>
 8    1  0.1128641E+005  0.1043930E+01  0.7957747E-01            NaN
         13   -1    0    0    0    0  0.00000000000E+00  0.00000000000E+00  0.74505805969E-08  0.10566000000E+00  0.10566000000E+00 0.  1.
     999900   -1    0    0    0    0 -0.00000000000E+00 -0.00000000000E+00 -0.74505805969E-08  0.93827000000E+00  0.93827000000E+00 0. -1.
     999902    2    1    2    0    0 -0.21654716350E-03 -0.16383113805E-01  0.16794765964E-01  0.10204668912E+01  0.10201971175E+01 0.  0.
     999903    2    3    3    0    0 -0.28963254720E-01  0.81137897870E-01 -0.92261635232E-01  0.12792556468E+00  0.20748787140E-01 0.  0.
         14    1    1    2    0    0  0.21654716350E-03  0.16383113805E-01 -0.16794765964E-01  0.23463108797E-01  0.00000000000E+00 0. -1.
     999901    1    3    3    0    0  0.28746707556E-01 -0.97521011675E-01  0.10905640120E+00  0.89254132653E+00  0.88000000000E+00 0.  1.
        -11    1    4    4    0    0 -0.28634679150E-01  0.58436889432E-01 -0.75646985401E-01  0.99787486279E-01  0.51100000000E-03 0. -1.
         11    1    4    4    0    0 -0.32857556929E-03  0.22701008438E-01 -0.16614649831E-01  0.28138078399E-01  0.51100000000E-03 0.  1.
</event>
<event>
 8    1  0.1128641E+005  0.1043930E+01  0.7957747E-01            NaN
         13   -1    0    0    0    0  0.00000000000E+00  0.00000000000E+00  0.74505805969E-08  0.10566000000E+00  0.10566000000E+00 0. -1.
     999900   -1    0    0    0    0 -0.00000000000E+00 -0.00000000000E+00 -0.74505805969E-08  0.93827000000E+00  0.93827000000E+00 0.  1.
     999902    2    1    2    0    0 -0.22060191204E-01  0.25210940107E-02 -0.10928881460E-01  0.10191823051E+01  0.10188818002E+01 0.  0.
     999903    2    3    3    0    0  0.28999857188E-01  0.12453212422E+00 -0.48022747785E-02  0.12927705437E+00  0.18445955217E-01 0.  0.
         14    1    1    2    0    0  0.22060191204E-01 -0.25210940107E-02  0.10928881460E-01  0.24747694861E-01  0.00000000000E+00 0. -1.
     999901    1    3    3    0    0 -0.51060048392E-01 -0.12201103021E+00 -0.61266066811E-02  0.88990525077E+00  0.88000000000E+00 0.  1.
        -11    1    4    4    0    0  0.91010002169E-02  0.32170887513E-01  0.66862138269E-02  0.34099278360E-01  0.51100000000E-03 0.  1.
         11    1    4    4    0    0  0.19898856972E-01  0.92361236708E-01 -0.11488488605E-01  0.95177776011E-01  0.51100000000E-03 0. -1.
</event>
<event>
 8    1  0.1128641E+005  0.1043930E+01  0.7957747E-01            NaN
         13   -1    0    0    0    0  0.00000000000E+00  0.00000000000E+00  0.74505805969E-08  0.10566000000E+00  0.10566000000E+00 0. -1.
     999900   -1    0    0    0    0 -0.00000000000E+00 -0.00000000000E+00 -0.74505805969E-08  0.93827000000E+00  0.93827000000E+00 0.  1.
     999902    2    1    2    0    0 -0.13632784215E-02 -0.19520029227E-01 -0.10390934827E-01  0.10217746035E+01  0.10215343747E+01 0.  0.
     999903    2    3    3    0    0  0.10238585865E+00  0.48465643350E-01 -0.63698701255E-01  0.13147821850E+00  0.19930247385E-01 0.  0.
         14    1    1    2    0    0  0.13632784215E-02  0.19520029227E-01  0.10390934827E-01  0.22155396536E-01  0.00000000000E+00 0. -1.
     999901    1    3    3    0    0 -0.10374913707E+00 -0.67985672577E-01  0.53307766429E-01  0.89029638496E+00  0.88000000000E+00 0. -1.
        -11    1    4    4    0    0  0.57704228221E-01  0.23921153961E-01 -0.24224403676E-01  0.67000615041E-01  0.51100000000E-03 0. -1.
         11    1    4    4    0    0  0.44681630432E-01  0.24544489388E-01 -0.39474297580E-01  0.64477603459E-01  0.51100000000E-03 0.  1.
</event>
<event>
 8    1  0.1128641E+005  0.1043930E+01  0.7957747E-01            NaN
         13   -1    0    0    0    0  0.00000000000E+00  0.00000000000E+00  0.74505805969E-08  0.10566000000E+00  0.10566000000E+00 0.  1.
     999900   -1    0    0    0    0 -0.00000000000E+00 -0.00000000000E+00 -0.74505805969E-08  0.93827000000E+00  0.93827000000E+00 0.  1.
     999902    2    1    2    0    0 -0.18292534658E-01  0.13335052830E-01 -0.10008254057E-01  0.10191791292E+01  0.10188785461E+01 0.  0.
     999903    2    3    3    0    0 -0.42586281374E-01  0.11826060634E+00 -0.35749554077E-01  0.13223934967E+00  0.20249755848E-01 0.  0.
         14    1    1    2    0    0  0.18292534658E-01 -0.13335052830E-01  0.10008254057E-01  0.24750870843E-01  0.00000000000E+00 0.  1.
     999901    1    3    3    0    0  0.24293746716E-01 -0.10492555351E+00  0.25741300020E-01  0.88693977949E+00  0.88000000000E+00 0.  1.
        -11    1    4    4    0    0 -0.39882256738E-01  0.84646780896E-01 -0.25351173151E-01  0.96946454395E-01  0.51100000000E-03 0.  1.
         11    1    4    4    0    0 -0.27040246359E-02  0.33613825442E-01 -0.10398380926E-01  0.35292895276E-01  0.51100000000E-03 0. -1.
</event>
<event>
 8    1  0.1128641E+005  0.1043930E+01  0.7957747E-01            NaN
         13   -1    0    0    0    0  0.00000000000E+00  0.00000000000E+00  0.74505805969E-08  0.10566000000E+00  0.10566000000E+00 0.  1.
     999900   -1    0    0    0    0 -0.00000000000E+00 -0.00000000000E+00 -0.74505805969E-08  0.93827000000E+00  0.93827000000E+00 0.  1.
     999902    2    1    2    0    0 -0.15843962894E-01  0.17766443932E-01 -0.33861557464E-02  0.10198853802E+01  0.10196019052E+01 0.  0.
     999903    2    3    3    0    0  0.81169744922E-01 -0.92083726270E-01 -0.27617724708E-01  0.12743600443E+00  0.20230085810E-01 0.  0.
         14    1    1    2    0    0  0.15843962894E-01 -0.17766443932E-01  0.33861557464E-02  0.24044619792E-01  0.00000000000E+00 0.  1.
     999901    1    3    3    0    0 -0.97013707816E-01  0.10985017020E+00  0.24231568961E-01  0.89244937578E+00  0.88000000000E+00 0.  1.
        -11    1    4    4    0    0  0.19455176660E-01 -0.36402260298E-01 -0.85494412091E-02  0.42154270479E-01  0.51100000000E-03 0. -1.
         11    1    4    4    0    0  0.61714568262E-01 -0.55681465972E-01 -0.19068283499E-01  0.85281733948E-01  0.51100000000E-03 0.  1.
</event>
<event>
 8    1  0.1128641E+005  0.1043930E+01  0.7957747E-01            NaN
         13   -1    0    0    0    0  0.00000000000E+00  0.00000000000E+00  0.74505805969E-08  0.10566000000E+00  0.10566000000E+00 0. -1.
     999900   -1    0    0    0    0 -0.00000000000E+00 -0.00000000000E+00 -0.74505805969E-08  0.93827000000E+00  0.93827000000E+00 0. -1.
     999902    2    1    2    0    0  0.20869484583E-01 -0.68129858236E-02 -0.58601114513E-02  0.10212079167E+01  0.10209550999E+01 0.  0.
     999903    2    3    3    0    0 -0.11078054639E+00  0.39518781816E-01  0.47077310416E-01  0.12863818051E+00  0.22303469603E-01 0.  0.
         14    1    1    2    0    0 -0.20869484583E-01  0.68129858236E-02  0.58601114513E-02  0.22722083285E-01  0.00000000000E+00 0.  1.
     999901    1    3    3    0    0  0.13165003097E+00 -0.46331767640E-01 -0.52937421867E-01  0.89256973620E+00  0.88000000000E+00 0. -1.
        -11    1    4    4    0    0 -0.42603384164E-01  0.40780212142E-02  0.14699678331E-01  0.45255057875E-01  0.51100000000E-03 0. -1.
         11    1    4    4    0    0 -0.68177162222E-01  0.35440760602E-01  0.32377632084E-01  0.83383122639E-01  0.51100000000E-03 0.  1.
</event>
<event>
 8    1  0.1128641E+005  0.1043930E+01  0.7957747E-01            NaN
         13   -1    0    0    0    0  0.00000000000E+00  0.00000000000E+00  0.74505805969E-08  0.10566000000E+00  0.10566000000E+00 0.  1.
     999900   -1    0    0    0    0 -0.00000000000E+00 -0.00000000000E+00 -0.74505805969E-08  0.93827000000E+00  0.93827000000E+00 0.  1.
     999902    2    1    2    0    0 -0.10119771974E-01  0.41295033086E-02  0.20989901684E-01  0.10202648663E+01  0.10199903719E+01 0.  0.
     999903    2    3    3    0    0  0.89394497088E-02  0.11800909679E+00 -0.49303829291E-01  0.12994300066E+00  0.21172037011E-01 0.  0.
         14    1    1    2    0    0  0.10119771974E-01 -0.41295033086E-02 -0.20989901684E-01  0.23665133743E-01  0.00000000000E+00 0. -1.
     999901    1    3    3    0    0 -0.19059221683E-01 -0.11387959348E+00  0.70293730975E-01  0.89032186560E+00  0.88000000000E+00 0. -1.
        -11    1    4    4    0    0  0.95624060479E-02  0.88808009103E-01 -0.27399692138E-01  0.93430756930E-01  0.51100000000E-03 0. -1.
         11    1    4    4    0    0 -0.62295633913E-03  0.29201087689E-01 -0.21904137153E-01  0.36512243731E-01  0.51100000000E-03 0.  1.
</event>
<event>
 8    1  0.1128641E+005  0.1043930E+01  0.7957747E-01            NaN
         13   -1    0    0    0    0  0.00000000000E+00  0.00000000000E+00  0.74505805969E-08  0.10566000000E+00  0.10566000000E+00 0.  1.
     999900   -1    0    0    0    0 -0.00000000000E+00 -0.00000000000E+00 -0.74505805969E-08  0.93827000000E+00  0.93827000000E+00 0. -1.
     999902    2    1    2    0    0 -0.33180308917E-02  0.23711238600E-01  0.90914897086E-02  0.10183197023E+01  0.10179976074E+01 0.  0.
     999903    2    3    3    0    0 -0.10463969548E+00  0.40574604175E-01 -0.61640170448E-01  0.12952646390E+00  0.19540467349E-01 0.  0.
         14    1    1    2    0    0  0.33180308917E-02 -0.23711238600E-01 -0.90914897086E-02  0.25610297734E-01  0.00000000000E+00 0. -1.
     999901    1    3    3    0    0  0.10132166459E+00 -0.16863365576E-01  0.70731660156E-01  0.88879323836E+00  0.88000000000E+00 0. -1.
        -11    1    4    4    0    0 -0.40133591511E-01  0.13638316156E-01 -0.34050859803E-01  0.54373072467E-01  0.51100000000E-03 0.  1.
         11    1    4    4    0    0 -0.64506103967E-01  0.26936288019E-01 -0.27589310645E-01  0.75153391435E-01  0.51100000000E-03 0. -1.
</event>
<event>
 8    1  0.1128641E+005  0.1043930E+01  0.7957747E-01            NaN
         13   -1    0    0    0    0  0.00000000000E+00  0.00000000000E+00  0.74505805969E-08  0.10566000000E+00  0.10566000000E+00 0. -1.
     999900   -1    0    0    0    0 -0.00000000000E+00 -0.00000000000E+00 -0.74505805969E-08  0.93827000000E+00  0.93827000000E+00 0.  1.
     999902    2    1    2    0    0  0.77312153692E-02 -0.11433331350E-01 -0.18956510469E-01  0.10204812890E+01  0.10202118502E+01 0.  0.
     999903    2    3    3    0    0  0.12077748078E+00 -0.18671971431E-01  0.42741512564E-01  0.13107783610E+00  0.20462644991E-01 0.  0.
         14    1    1    2    0    0 -0.77312153692E-02  0.11433331350E-01  0.18956510469E-01  0.23448710967E-01  0.00000000000E+00 0.  1.
     999901    1    3    3    0    0 -0.11304626541E+00  0.72386400809E-02 -0.61698023033E-01  0.88940345293E+00  0.88000000000E+00 0.  1.
        -11    1    4    4    0    0  0.10528637886E+00 -0.23077159221E-01  0.37821808137E-01  0.11423014989E+00  0.51100000000E-03 0.  1.
         11    1    4    4    0    0  0.15491101921E-01  0.44051877904E-02  0.49197044266E-02  0.16847686216E-01  0.51100000000E-03 0. -1.
</event>
<event>
 8    1  0.1128641E+005  0.1043930E+01  0.7957747E-01            NaN
         13   -1    0    0    0    0  0.00000000000E+00  0.00000000000E+00  0.74505805969E-08  0.10566000000E+00  0.10566000000E+00 0.  1.
     999900   -1    0    0    0    0 -0.00000000000E+00 -0.00000000000E+00 -0.74505805969E-08  0.93827000000E+00  0.93827000000E+00 0. -1.
     999902    2    1    2    0    0 -0.17077544512E-02 -0.27376983149E-01 -0.31690033996E-02  0.10163173541E+01  0.10159421765E+01 0.  0.
     999903    2    3    3    0    0 -0.10844092938E-01  0.10392931606E+00 -0.64441978072E-01  0.12442095073E+00  0.20221457766E-01 0.  0.
         14    1    1    2    0    0  0.17077544512E-02  0.27376983149E-01  0.31690033996E-02  0.27612645910E-01  0.00000000000E+00 0.  1.
     999901    1    3    3    0    0  0.91363384873E-02 -0.13130629921E+00  0.61272974673E-01  0.89189640336E+00  0.88000000000E+00 0.  1.
        -11    1    4    4    0    0 -0.28016141600E-02  0.85066870368E-01 -0.57702796161E-01  0.10283042002E+00  0.51100000000E-03 0. -1.
         11    1    4    4    0    0 -0.80424787785E-02  0.18862445696E-01 -0.67391819114E-02  0.21590530711E-01  0.51100000000E-03 0.  1.
</event>
<event>
 8    1  0.1128641E+005  0.1043930E+01  0.7957747E-01            NaN
         13   -1    0    0    0    0  0.00000000000E+00  0.00000000000E+00  0.74505805969E-08  0.10566000000E+00  0.10566000000E+00 0.  1.
     999900   -1    0    0    0    0 -0.00000000000E+00 -0.00000000000E+00 -0.74505805969E-08  0.93827000000E+00  0.93827000000E+00 0. -1.
     999902    2    1    2    0    0 -0.16791572242E-01 -0.16078753781E-01 -0.33866321548E-02  0.10204363307E+01  0.10201658456E+01 0.  0.
     999903    2    3    3    0    0  0.65694243660E-01  0.73025357074E-01  0.79942809280E-01  0.12819911545E+00  0.19892813321E-01 0.  0.
         14    1    1    2    0    0  0.16791572242E-01  0.16078753781E-01  0.33866321548E-02  0.23493669336E-01  0.00000000000E+00 0. -1.
     999901    1    3    3    0    0 -0.82485815902E-01 -0.89104110855E-01 -0.83329441435E-01  0.89223721521E+00  0.88000000000E+00 0. -1.
        -11    1    4    4    0    0  0.65816377956E-01  0.66122384738E-01  0.74262145092E-01  0.11924383710E+00  0.51100000000E-03 0. -1.
         11    1    4    4    0    0 -0.12213429601E-03  0.69029723361E-02  0.56806641883E-02  0.89552783585E-02  0.51100000000E-03 0.  1.
</event>
<event>
 8    1  0.1128641E+005  0.1043930E+01  0.7957747E-01            NaN
         13   -1    0    0    0    0  0.00000000000E+00  0.00000000000E+00  0.74505805969E-08  0.10566000000E+00  0.10566000000E+00 0.  1.
     999900   -1    0    0    0    0 -0.00000000000E+00 -0.00000000000E+00 -0.74505805969E-08  0.93827000000E+00  0.93827000000E+00 0. -1.
     999902    2    1    2    0    0  0.75965118426E-02 -0.14942839633E-01 -0.18117014938E-01  0.10192475836E+01  0.10189486812E+01 0.  0.
     999903    2    3    3    0    0  0.52472599521E-01  0.45079982055E-01 -0.10973059965E+00  0.13132323364E+00  0.20479470474E-01 0.  0.
         14    1    1    2    0    0 -0.75965118426E-02  0.14942839633E-01  0.18117014938E-01  0.24682416388E-01  0.00000000000E+00 0.  1.
     999901    1    3    3    0    0 -0.44876087679E-01 -0.60022821688E-01  0.91613584714E-01  0.88792434997E+00  0.88000000000E+00 0.  1.
        -11    1    4    4    0    0  0.17954132510E-01  0.43555650029E-02 -0.33441145819E-01  0.38208548459E-01  0.51100000000E-03 0. -1.
         11    1    4    4    0    0  0.34518467012E-01  0.40724417052E-01 -0.76289453833E-01  0.93114685180E-01  0.51100000000E-03 0.  1.
</event>
<event>
 8    1  0.1128641E+005  0.1043930E+01  0.7957747E-01            NaN
         13   -1    0    0    0    0  0.00000000000E+00  0.00000000000E+00  0.74505805969E-08  0.10566000000E+00  0.10566000000E+00 0. -1.
     999900   -1    0    0    0    0 -0.00000000000E+00 -0.00000000000E+00 -0.74505805969E-08  0.93827000000E+00  0.93827000000E+00 0.  1.
     999902    2    1    2    0    0  0.30118067455E-02  0.13045116683E-01 -0.14918991562E-01  0.10238844928E+01  0.10236882495E+01 0.  0.
     999903    2    3    3    0    0 -0.89661511061E-01 -0.31037800886E-01 -0.93131963813E-01  0.13447518519E+00  0.20186161079E-01 0.  0.
         14    1    1    2    0    0 -0.30118067455E-02 -0.13045116683E-01  0.14918991562E-01  0.20045507187E-01  0.00000000000E+00 0. -1.
     999901    1    3    3    0    0  0.92673317806E-01  0.44082917569E-01  0.78212972251E-01  0.88940930762E+00  0.88000000000E+00 0. -1.
        -11    1    4    4    0    0 -0.61737656969E-01 -0.21970739844E-01 -0.76490210109E-01  0.10072370655E+00  0.51100000000E-03 0. -1.
         11    1    4    4    0    0 -0.27923854091E-01 -0.90670610419E-02 -0.16641753704E-01  0.33751478643E-01  0.51100000000E-03 0.  1.
</event>
<event>
 8    1  0.1128641E+005  0.1043930E+01  0.7957747E-01            NaN
         13   -1    0    0    0    0  0.00000000000E+00  0.00000000000E+00  0.74505805969E-08  0.10566000000E+00  0.10566000000E+00 0.  1.
     999900   -1    0    0    0    0 -0.00000000000E+00 -0.00000000000E+00 -0.74505805969E-08  0.93827000000E+00  0.93827000000E+00 0.  1.
     999902    2    1    2    0    0 -0.21159915398E-01 -0.59099498523E-02  0.31693841078E-02  0.10217328262E+01  0.10214916807E+01 0.  0.
     999903    2    3    3    0    0 -0.29785997559E-01  0.70011455944E-01 -0.10546325547E+00  0.13176680469E+00  0.21241067548E-01 0.  0.
         14    1    1    2    0    0  0.21159915398E-01  0.59099498523E-02 -0.31693841078E-02  0.22197173751E-01  0.00000000000E+00 0.  1.
     999901    1    3    3    0    0  0.86260821614E-02 -0.75921405797E-01  0.10863263957E+00  0.88996602156E+00  0.88000000000E+00 0. -1.
        -11    1    4    4    0    0  0.43267750856E-05  0.18797971886E-01 -0.34753075057E-01  0.39514568360E-01  0.51100000000E-03 0. -1.
         11    1    4    4    0    0 -0.29790324334E-01  0.51213484059E-01 -0.70710180408E-01  0.92252236329E-01  0.51100000000E-03 0.  1.
</event>
<event>
 8    1  0.1128641E+005  0.1043930E+01  0.7957747E-01            NaN
         13   -1    0    0    0    0  0.00000000000E+00  0.00000000000E+00  0.74505805969E-08  0.10566000000E+00  0.10566000000E+00 0.  1.
     999900   -1    0    0    0    0 -0.00000000000E+00 -0.00000000000E+00 -0.74505805969E-08  0.93827000000E+00  0.93827000000E+00 0.  1.
     999902    2    1    2    0    0  0.19937374275E-01  0.12303213424E-01  0.29835818345E-02  0.10203128513E+01  0.10200394820E+01 0.  0.
     999903    2    3    3    0    0  0.74279646083E-01  0.93336385175E-01 -0.55339184388E-01  0.13300174321E+00  0.19947224077E-01 0.  0.
         14    1    1    2    0    0 -0.19937374275E-01 -0.12303213424E-01 -0.29835818345E-02  0.23617148729E-01  0.00000000000E+00 0.  1.
     999901    1    3    3    0    0 -0.54342271808E-01 -0.81033171752E-01  0.58322766222E-01  0.88731110806E+00  0.88000000000E+00 0. -1.
        -11    1    4    4    0    0  0.33421682136E-01  0.56919707795E-01 -0.26440401936E-01  0.71107087887E-01  0.51100000000E-03 0. -1.
         11    1    4    4    0    0  0.40857963947E-01  0.36416677380E-01 -0.28898782452E-01  0.61894655322E-01  0.51100000000E-03 0.  1.
</event>
<event>
 8    1  0.1128641E+005  0.1043930E+01  0.7957747E-01            NaN
         13   -1    0    0    0    0  0.00000000000E+00  0.00000000000E+00  0.74505805969E-08  0.10566000000E+00  0.10566000000E+00 0. -1.
     999900   -1    0    0    0    0 -0.00000000000E+00 -0.00000000000E+00 -0.74505805969E-08  0.93827000000E+00  0.93827000000E+00 0.  1.
     999902    2    1    2    0    0 -0.52866563425E-02 -0.67028963565E-02  0.21573603898E-01  0.10207287513E+01  0.10204650341E+01 0.  0.
     999903    2    3    3    0    0  0.11353253568E+00  0.38939072696E-01  0.49074536680E-01  0.13114598900E+00  0.19623257607E-01 0.  0.
         14    1    1    2    0    0  0.52866563425E-02  0.67028963565E-02 -0.21573603898E-01  0.23201248673E-01  0.00000000000E+00 0.  1.
     999901    1    3    3    0    0 -0.11881919202E+00 -0.45641969052E-01 -0.27500932782E-01  0.88958276233E+00  0.88000000000E+00 0.  1.
        -11    1    4    4    0    0  0.40143575973E-01  0.42688966849E-02  0.14112880472E-01  0.42768734924E-01  0.51100000000E-03 0.  1.
         11    1    4    4    0    0  0.73388959708E-01  0.34670176011E-01  0.34961656208E-01  0.88377254072E-01  0.51100000000E-03 0. -1.
</event>
<event>
 8    1  0.1128641E+005  0.1043930E+01  0.7957747E-01            NaN
         13   -1    0    0    0    0  0.00000000000E+00  0.00000000000E+00  0.74505805969E-08  0.10566000000E+00  0.10566000000E+00 0.  1.
     999900   -1    0    0    0    0 -0.00000000000E+00 -0.00000000000E+00 -0.74505805969E-08  0.93827000000E+00  0.93827000000E+00 0. -1.
     999902    2    1    2    0    0  0.61909789181E-02  0.15028943520E-03 -0.22298648552E-01  0.10207873871E+01  0.10205250164E+01 0.  0.
     999903    2    3    3    0    0 -0.69481671841E-01 -0.23177797749E-02 -0.11144761642E+00  0.13304869807E+00  0.21173332946E-01 0.  0.
         14    1    1    2    0    0 -0.61909789181E-02 -0.15028943520E-03  0.22298648552E-01  0.23142612950E-01  0.00000000000E+00 0.  1.
     999901    1    3    3    0    0  0.75672650760E-01  0.24680692101E-02  0.89148967866E-01  0.88773868898E+00  0.88000000000E+00 0.  1.
        -11    1    4    4    0    0 -0.65525955657E-01 -0.71231505812E-02 -0.96643497943E-01  0.11698126754E+00  0.51100000000E-03 0.  1.
         11    1    4    4    0    0 -0.39557161845E-02  0.48053708064E-02 -0.14804118476E-01  0.16067430534E-01  0.51100000000E-03 0. -1.
</event>
<event>
 8    1  0.1128641E+005  0.1043930E+01  0.7957747E-01            NaN
         13   -1    0    0    0    0  0.00000000000E+00  0.00000000000E+00  0.74505805969E-08  0.10566000000E+00  0.10566000000E+00 0. -1.
     999900   -1    0    0    0    0 -0.00000000000E+00 -0.00000000000E+00 -0.74505805969E-08  0.93827000000E+00  0.93827000000E+00 0. -1.
     999902    2    1    2    0    0  0.68997984658E-02 -0.14356989849E-01  0.14873849197E-01  0.10221363824E+01  0.10219040183E+01 0.  0.
     999903    2    3    3    0    0 -0.11221938372E+00 -0.31718030535E-01  0.61373409519E-01  0.13272478233E+00  0.15809772504E-01 0.  0.
         14    1    1    2    0    0 -0.68997984658E-02  0.14356989849E-01 -0.14873849197E-01  0.21793617559E-01  0.00000000000E+00 0.  1.
     999901    1    3    3    0    0  0.11911918218E+00  0.17361040686E-01 -0.46499560322E-01  0.88941160011E+00  0.88000000000E+00 0. -1.
        -11    1    4    4    0    0 -0.66031725555E-01 -0.13854554217E-01  0.42413929931E-01  0.79695294876E-01  0.51100000000E-03 0. -1.
         11    1    4    4    0    0 -0.46187658161E-01 -0.17863476318E-01  0.18959479588E-01  0.53029487456E-01  0.51100000000E-03 0.  1.
</event>
<event>
 8    1  0.1128641E+005  0.1043930E+01  0.7957747E-01            NaN
         13   -1    0    0    0    0  0.00000000000E+00  0.00000000000E+00  0.74505805969E-08  0.10566000000E+00  0.10566000000E+00 0.  1.
     999900   -1    0    0    0    0 -0.00000000000E+00 -0.00000000000E+00 -0.74505805969E-08  0.93827000000E+00  0.93827000000E+00 0. -1.
     999902    2    1    2    0    0  0.21690759607E-01 -0.81553426437E-02 -0.56395663401E-02  0.10200804010E+01  0.10198015596E+01 0.  0.
     999903    2    3    3    0    0  0.67020426435E-01  0.93577392819E-01 -0.59559175381E-01  0.13142318223E+00  0.21824102474E-01 0.  0.
         14    1    1    2    0    0 -0.21690759607E-01  0.81553426437E-02  0.56395663401E-02  0.23849599042E-01  0.00000000000E+00 0. -1.
     999901    1    3    3    0    0 -0.45329666828E-01 -0.10173273546E+00  0.53919609041E-01  0.88865721873E+00  0.88000000000E+00 0.  1.
        -11    1    4    4    0    0  0.27611136917E-01  0.52138483671E-01 -0.38646189142E-01  0.70530740940E-01  0.51100000000E-03 0. -1.
         11    1    4    4    0    0  0.39409289518E-01  0.41438909148E-01 -0.20912986239E-01  0.60892441289E-01  0.51100000000E-03 0.  1.
</event>
<event>
 8    1  0.1128641E+005  0.1043930E+01  0.7957747E-01            NaN
         13   -1    0    0    0    0  0.00000000000E+00  0.00000000000E+00  0.74505805969E-08  0.10566000000E+00  0.10566000000E+00 0.  1.
     999900   -1    0    0    0    0 -0.00000000000E+00 -0.00000000000E+00 -0.74505805969E-08  0.93827000000E+00  0.93827000000E+00 0.  1.
     999902    2    1    2    0    0 -0.61960838480E-02  0.22423901840E-01  0.30544227834E-02  0.10204661485E+01  0.10201963575E+01 0.  0.
     999903    2    3    3    0    0 -0.76097184830E-01 -0.10183837520E+00  0.55119974843E-02  0.12898798439E+00  0.21111177079E-01 0.  0.
         14    1    1    2    0    0  0.61960838480E-02 -0.22423901840E-01 -0.30544227834E-02  0.23463851502E-01  0.00000000000E+00 0. -1.
     999901    1    3    3    0    0  0.69901100982E-01  0.12426227704E+00 -0.24575747009E-02  0.89147816411E+00  0.88000000000E+00 0.  1.
        -11    1    4    4    0    0 -0.10134177957E-01 -0.23790323546E-01  0.69720511042E-02  0.26787155036E-01  0.51100000000E-03 0.  1.
         11    1    4    4    0    0 -0.65963006872E-01 -0.78048051653E-01 -0.14600536199E-02  0.10220082935E+00  0.51100000000E-03 0. -1.
</event>
<event>
 8    1  0.1128641E+005  0.1043930E+01  0.7957747E-01            NaN
         13   -1    0    0    0    0  0.00000000000E+00  0.00000000000E+00  0.74505805969E-08  0.10566000000E+00  0.10566000000E+00 0. -1.
     999900   -1    0    0    0    0 -0.00000000000E+00 -0.00000000000E+00 -0.74505805969E-08  0.93827000000E+00  0.93827000000E+00 0.  1.
     999902    2    1    2    0    0 -0.71558668687E-02  0.49960017899E-02 -0.22857692690E-01  0.10194628674E+01  0.10191692192E+01 0.  0.
     999903    2    3    3    0    0 -0.25027497225E-01  0.29732210263E-01  0.11967879299E+00  0.12747187809E+00  0.20388385664E-01 0.  0.
         14    1    1    2    0    0  0.71558668687E-02 -0.49960017899E-02  0.22857692690E-01  0.24467132641E-01  0.00000000000E+00 0. -1.
     999901    1    3    3    0    0  0.17871630356E-01 -0.24736208473E-01 -0.14253648568E+00  0.89199098927E+00  0.88000000000E+00 0.  1.
        -11    1    4    4    0    0 -0.26570445622E-01  0.27607973717E-01  0.91965793005E-01  0.99630100859E-01  0.51100000000E-03 0.  1.
         11    1    4    4    0    0  0.15429483973E-02  0.21242365463E-02  0.27712999981E-01  0.27841777235E-01  0.51100000000E-03 0. -1.
</event>
<event>
 8    1  0.1128641E+005  0.1043930E+01  0.7957747E-01            NaN
         13   -1    0    0    0    0  0.00000000000E+00  0.00000000000E+00  0.74505805969E-08  0.10566000000E+00  0.10566000000E+00 0. -1.
     999900   -1    0    0    0    0 -0.00000000000E+00 -0.00000000000E+00 -0.74505805969E-08  0.93827000000E+00  0.93827000000E+00 0.  1.
     999902    2    1    2    0    0 -0.22229653857E-01 -0.70434882739E-02  0.36973932814E-02  0.10203198548E+01  0.10200466495E+01 0.  0.
     999903    2    3    3    0    0 -0.10650283837E-01  0.92783680266E-02 -0.12797152752E+00  0.13029896210E+00  0.20039735784E-01 0.  0.
         14    1    1    2    0    0  0.22229653857E-01  0.70434882739E-02 -0.36973932814E-02  0.23610145165E-01  0.00000000000E+00 0. -1.
     999901    1    3    3    0    0 -0.11579370019E-01 -0.16321856300E-01  0.13166892080E+00  0.89002089274E+00  0.88000000000E+00 0. -1.
        -11    1    4    4    0    0  0.12760244203E-02  0.83070943981E-02 -0.92031863845E-01  0.92416238505E-01  0.51100000000E-03 0.  1.
         11    1    4    4    0    0 -0.11926308258E-01  0.97127362848E-03 -0.35939663671E-01  0.37882723594E-01  0.51100000000E-03 0. -1.
</event>
<event>
 8    1  0.1128641E+005  0.1043930E+01  0.7957747E-01            NaN
         13   -1    0    0    0    0  0.00000000000E+00  0.00000000000E+00  0.74505805969E-08  0.10566000000E+00  0.10566000000E+00 0. -1.
     999900   -1    0    0    0    0 -0.00000000000E+00 -0.00000000000E+00 -0.74505805969E-08  0.93827000000E+00  0.93827000000E+00 0. -1.
     999902    2    1    2    0    0  0.19263226851E-01 -0.96248201476E-02 -0.10644902633E-01  0.10199086965E+01  0.10196257775E+01 0.  0.
     999903    2    3    3    0    0  0.29861537900E-01 -0.10602308665E+00  0.68300820966E-01  0.13106822863E+00  0.19526189180E-01 0.  0.
         14    1    1    2    0    0 -0.19263226851E-01  0.96248201476E-02  0.10644902633E-01  0.24021303538E-01  0.00000000000E+00 0.  1.
     999901    1    3    3    0    0 -0.10598311048E-01  0.96398266499E-01 -0.78945723598E-01  0.88884046783E+00  0.88000000000E+00 0.  1.
        -11    1    4    4    0    0  0.20860633368E-01 -0.54299382809E-01  0.26336690156E-01  0.63855080983E-01  0.51100000000E-03 0. -1.
         11    1    4    4    0    0  0.90009045315E-02 -0.51723703837E-01  0.41964130809E-01  0.67213147647E-01  0.51100000000E-03 0.  1.
</event>
<event>
 8    1  0.1128641E+005  0.1043930E+01  0.7957747E-01            NaN
         13   -1    0    0    0    0  0.00000000000E+00  0.00000000000E+00  0.74505805969E-08  0.10566000000E+00  0.10566000000E+00 0.  1.
     999900   -1    0    0    0    0 -0.00000000000E+00 -0.00000000000E+00 -0.74505805969E-08  0.93827000000E+00  0.93827000000E+00 0.  1.
     999902    2    1    2    0    0 -0.87732725445E-02  0.17373462534E-01  0.11633085659E-01  0.10212554285E+01  0.10210036797E+01 0.  0.
     999903    2    3    3    0    0  0.74031568467E-01  0.96533524024E-01  0.49924634379E-01  0.13300478833E+00  0.19960215688E-01 0.  0.
         14    1    1    2    0    0  0.87732725445E-02 -0.17373462534E-01 -0.11633085659E-01  0.22674571518E-01  0.00000000000E+00 0. -1.
     999901    1    3    3    0    0 -0.82804841012E-01 -0.79160061489E-01 -0.38291548720E-01  0.88825064015E+00  0.88000000000E+00 0.  1.
        -11    1    4    4    0    0  0.37371934047E-01  0.60883118007E-01  0.36034417413E-01  0.80013473065E-01  0.51100000000E-03 0.  1.
         11    1    4    4    0    0  0.36659634420E-01  0.35650406016E-01  0.13890216966E-01  0.52991315263E-01  0.51100000000E-03 0. -1.
</event>
<event>
 8    1  0.1128641E+005  0.1043930E+01  0.7957747E-01            NaN
         13   -1    0    0    0    0  0.00000000000E+00  0.00000000000E+00  0.74505805969E-08  0.10566000000E+00  0.10566000000E+00 0.  1.
     999900   -1    0    0    0    0 -0.00000000000E+00 -0.00000000000E+00 -0.74505805969E-08  0.93827000000E+00  0.93827000000E+00 0.  1.
     999902    2    1    2    0    0 -0.10796847902E-01 -0.20732496223E-01 -0.38900864503E-02  0.10202331416E+01  0.10199579022E+01 0.  0.
     999903    2    3    3    0    0  0.17458565749E-01 -0.13026311991E+00 -0.19028547914E-02  0.13299062967E+00  0.20238695584E-01 0.  0.
         14    1    1    2    0    0  0.10796847902E-01  0.20732496223E-01  0.38900864503E-02  0.23696858375E-01  0.00000000000E+00 0.  1.
     999901    1    3    3    0    0 -0.28255413650E-01  0.10953062368E+00 -0.19872316589E-02  0.88724251195E+00  0.88000000000E+00 0.  1.
        -11    1    4    4    0    0  0.13646894412E-01 -0.58863487619E-01 -0.91717328567E-02  0.61118979919E-01  0.51100000000E-03 0. -1.
         11    1    4    4    0    0  0.38116713370E-02 -0.71399632287E-01  0.72688780653E-02  0.71871649754E-01  0.51100000000E-03 0.  1.
</event>
<event>
 8    1  0.1128641E+005  0.1043930E+01  0.7957747E-01            NaN
         13   -1    0    0    0    0  0.00000000000E+00  0.00000000000E+00  0.74505805969E-08  0.10566000000E+00  0.10566000000E+00 0.  1.
     999900   -1    0    0    0    0 -0.00000000000E+00 -0.00000000000E+00 -0.74505805969E-08  0.93827000000E+00  0.93827000000E+00 0.  1.
     999902    2    1    2    0    0 -0.22657938975E-01  0.34715468903E-02  0.95833574973E-03  0.10209876321E+01  0.10207298334E+01 0.  0.
     999903    2    3    3    0    0  0.93023385464E-01 -0.56192126555E-01 -0.66555542438E-01  0.12885532887E+00  0.19056500723E-01 0.  0.
         14    1    1    2    0    0  0.22657938975E-01 -0.34715468903E-02 -0.95833574973E-03  0.22942367878E-01  0.00000000000E+00 0.  1.
     999901    1    3    3    0    0 -0.11568132444E+00  0.59663673446E-01  0.67513878188E-01  0.89213230325E+00  0.88000000000E+00 0. -1.
        -11    1    4    4    0    0  0.13521542588E-01 -0.66120119147E-02 -0.17520255042E-01  0.23103490499E-01  0.51100000000E-03 0.  1.
         11    1    4    4    0    0  0.79501842876E-01 -0.49580114641E-01 -0.49035287397E-01  0.10575183837E+00  0.51100000000E-03 0. -1.
</event>
<event>
 8    1  0.1128641E+005  0.1043930E+01  0.7957747E-01            NaN
         13   -1    0    0    0    0  0.00000000000E+00  0.00000000000E+00  0.74505805969E-08  0.10566000000E+00  0.10566000000E+00 0. -1.
     999900   -1    0    0    0    0 -0.00000000000E+00 -0.00000000000E+00 -0.74505805969E-08  0.93827000000E+00  0.93827000000E+00 0.  1.
     999902    2    1    2    0    0  0.50225056479E-02 -0.27006187102E-01  0.45040094568E-02  0.10160939477E+01  0.10157125897E+01 0.  0.
     999903    2    3    3    0    0  0.94482627456E-01 -0.74713320815E-02  0.83533490730E-01  0.12782012572E+00  0.19425570055E-01 0.  0.
         14    1    1    2    0    0 -0.50225056479E-02  0.27006187102E-01 -0.45040094568E-02  0.27836052269E-01  0.00000000000E+00 0. -1.
     999901    1    3    3    0    0 -0.89460121809E-01 -0.19534855020E-01 -0.79029481274E-01  0.88827382201E+00  0.88000000000E+00 0.  1.
        -11    1    4    4    0    0  0.73773353692E-01  0.21976791594E-02  0.65937787902E-01  0.98971665153E-01  0.51100000000E-03 0. -1.
         11    1    4    4    0    0  0.20709273765E-01 -0.96690112410E-02  0.17595702828E-01  0.28848460570E-01  0.51100000000E-03 0.  1.
</event>
<event>
 8    1  0.1128641E+005  0.1043930E+01  0.7957747E-01            NaN
         13   -1    0    0    0    0  0.00000000000E+00  0.00000000000E+00  0.74505805969E-08  0.10566000000E+00  0.10566000000E+00 0.  1.
     999900   -1    0    0    0    0 -0.00000000000E+00 -0.00000000000E+00 -0.74505805969E-08  0.93827000000E+00  0.93827000000E+00 0.  1.
     999902    2    1    2    0    0  0.22394835073E-01  0.26405291141E-02  0.80010482547E-02  0.10200026557E+01  0.10197219718E+01 0.  0.
     999903    2    3    3    0    0 -0.72389040250E-01 -0.94266194212E-01  0.45877783783E-01  0.12881830713E+00  0.19055096097E-01 0.  0.
         14    1    1    2    0    0 -0.22394835073E-01 -0.26405291141E-02 -0.80010482547E-02  0.23927344297E-01  0.00000000000E+00 0. -1.
     999901    1    3    3    0    0  0.94783875323E-01  0.96906723326E-01 -0.37876735529E-01  0.89118434857E+00  0.88000000000E+00 0.  1.
        -11    1    4    4    0    0 -0.59802142998E-01 -0.77798145837E-01  0.29713158476E-01  0.10252795087E+00  0.51100000000E-03 0. -1.
         11    1    4    4    0    0 -0.12586897252E-01 -0.16468048376E-01  0.16164625307E-01  0.26290356256E-01  0.51100000000E-03 0.  1.
</event>
<event>
 8    1  0.1128641E+005  0.1043930E+01  0.7957747E-01            NaN
         13   -1    0    0    0    0  0.00000000000E+00  0.00000000000E+00  0.74505805969E-08  0.10566000000E+00  0.10566000000E+00 0.  1.
     999900   -1    0    0    0    0 -0.00000000000E+00 -0.00000000000E+00 -0.74505805969E-08  0.93827000000E+00  0.93827000000E+00 0. -1.
     999902    2    1    2    0    0  0.17213463628E-01  0.36193710168E-02  0.16120910535E-01  0.10200702654E+01  0.10197911843E+01 0.  0.
     999903    2    3    3    0    0  0.99291024620E-01 -0.57070442748E-01 -0.59942962241E-01  0.13091016048E+00  0.20701893385E-01 0.  0.
         14    1    1    2    0    0 -0.17213463628E-01 -0.36193710168E-02 -0.16120910535E-01  0.23859734557E-01  0.00000000000E+00 0. -1.
     999901    1    3    3    0    0 -0.82077560992E-01  0.60689813764E-01  0.76063872777E-01  0.88916010496E+00  0.88000000000E+00 0.  1.
        -11    1    4    4    0    0  0.56291082187E-01 -0.41175096444E-01 -0.43528937887E-01  0.82213770473E-01  0.51100000000E-03 0.  1.
         11    1    4    4    0    0  0.42999942433E-01 -0.15895346304E-01 -0.16414024355E-01  0.48696390008E-01  0.51100000000E-03 0. -1.
</event>
<event>
 8    1  0.1128641E+005  0.1043930E+01  0.7957747E-01            NaN
         13   -1    0    0    0    0  0.00000000000E+00  0.00000000000E+00  0.74505805969E-08  0.10566000000E+00  0.10566000000E+00 0.  1.
     999900   -1    0    0    0    0 -0.00000000000E+00 -0.00000000000E+00 -0.74505805969E-08  0.93827000000E+00  0.93827000000E+00 0.  1.
     999902    2    1    2    0    0  0.13729171451E-01  0.18064615568E-01  0.53964232904E-02  0.10206074386E+01  0.10203409244E+01 0.  0.
     999903    2    3    3    0    0 -0.56148606923E-01  0.77630835879E-02  0.11659120384E+00  0.13080223260E+00  0.17400681420E-01 0.  0.
         14    1    1    2    0    0 -0.13729171451E-01 -0.18064615568E-01 -0.53964232904E-02  0.23322561366E-01  0.00000000000E+00 0. -1.
     999901    1    3    3    0    0  0.69877778374E-01  0.10301531980E-01 -0.11119478055E+00  0.88980520604E+00  0.88000000000E+00 0.  1.
        -11    1    4    4    0    0 -0.54573979500E-02  0.41123271211E-02  0.26414228592E-01  0.27288587721E-01  0.51100000000E-03 0. -1.
         11    1    4    4    0    0 -0.50691208973E-01  0.36507564668E-02  0.90176975244E-01  0.10351364487E+00  0.51100000000E-03 0.  1.
</event>
<event>
 8    1  0.1128641E+005  0.1043930E+01  0.7957747E-01            NaN
         13   -1    0    0    0    0  0.00000000000E+00  0.00000000000E+00  0.74505805969E-08  0.10566000000E+00  0.10566000000E+00 0.  1.
     999900   -1    0    0    0    0 -0.00000000000E+00 -0.00000000000E+00 -0.74505805969E-08  0.93827000000E+00  0.93827000000E+00 0. -1.
     999902    2    1    2    0    0 -0.46902875302E-02  0.21736344463E-01 -0.74677899112E-02  0.10204729040E+01  0.10202032701E+01 0.  0.
     999903    2    3    3    0    0  0.19089772091E-01 -0.79650480950E-01  0.96224851983E-01  0.12828629592E+00  0.22125394206E-01 0.  0.
         14    1    1    2    0    0  0.46902875302E-02 -0.21736344463E-01  0.74677899112E-02  0.23457096025E-01  0.00000000000E+00 0. -1.
     999901    1    3    3    0    0 -0.23780059622E-01  0.10138682541E+00 -0.10369264189E+00  0.89218660805E+00  0.88000000000E+00 0. -1.
        -11    1    4    4    0    0  0.78943780882E-02 -0.79042899737E-02  0.20617359264E-01  0.23454970249E-01  0.51100000000E-03 0. -1.
         11    1    4    4    0    0  0.11195394003E-01 -0.71746190976E-01  0.75607492720E-01  0.10483132567E+00  0.51100000000E-03 0.  1.
</event>
<event>
 8    1  0.1128641E+005  0.1043930E+01  0.7957747E-01            NaN
         13   -1    0    0    0    0  0.00000000000E+00  0.00000000000E+00  0.74505805969E-08  0.10566000000E+00  0.10566000000E+00 0.  1.
     999900   -1    0    0    0    0 -0.00000000000E+00 -0.00000000000E+00 -0.74505805969E-08  0.93827000000E+00  0.93827000000E+00 0. -1.
     999902    2    1    2    0    0  0.22358631173E-01 -0.19418610537E-02  0.67050397405E-02  0.10205070034E+01  0.10202381620E+01 0.  0.
     999903    2    3    3    0    0 -0.98369581077E-01 -0.65079893612E-01  0.46046741595E-01  0.12915438972E+00  0.25467370087E-01 0.  0.
         14    1    1    2    0    0 -0.22358631173E-01  0.19418610537E-02 -0.67050397405E-02  0.23422996610E-01  0.00000000000E+00 0. -1.
     999901    1    3    3    0    0  0.12072821225E+00  0.63138032559E-01 -0.39341701855E-01  0.89135261367E+00  0.88000000000E+00 0. -1.
        -11    1    4    4    0    0 -0.48457366266E-01 -0.38351653635E-01  0.11601327411E-01  0.62879389315E-01  0.51100000000E-03 0.  1.
         11    1    4    4    0    0 -0.49912214811E-01 -0.26728239978E-01  0.34445414184E-01  0.66275000407E-01  0.51100000000E-03 0. -1.
</event>
<event>
 8    1  0.1128641E+005  0.1043930E+01  0.7957747E-01            NaN
         13   -1    0    0    0    0  0.00000000000E+00  0.00000000000E+00  0.74505805969E-08  0.10566000000E+00  0.10566000000E+00 0.  1.
     999900   -1    0    0    0    0 -0.00000000000E+00 -0.00000000000E+00 -0.74505805969E-08  0.93827000000E+00  0.93827000000E+00 0. -1.
     999902    2    1    2    0    0 -0.47484825386E-02  0.25940350018E-01 -0.12553783320E-01  0.10147230262E+01  0.10143026040E+01 0.  0.
     999903    2    3    3    0    0  0.49296346976E-01 -0.51563322178E-01 -0.10107827721E+00  0.12524888442E+00  0.19533532820E-01 0.  0.
         14    1    1    2    0    0  0.47484825386E-02 -0.25940350018E-01  0.12553783320E-01  0.29206973844E-01  0.00000000000E+00 0.  1.
     999901    1    3    3    0    0 -0.54044829515E-01  0.77503672196E-01  0.88524493893E-01  0.88947414174E+00  0.88000000000E+00 0.  1.
        -11    1    4    4    0    0  0.29196314657E-01 -0.18389564977E-01 -0.55987282072E-01  0.65768060367E-01  0.51100000000E-03 0. -1.
         11    1    4    4    0    0  0.20100032320E-01 -0.33173757201E-01 -0.45090995141E-01  0.59480824051E-01  0.51100000000E-03 0.  1.
</event>
<event>
 8    1  0.1128641E+005  0.1043930E+01  0.7957747E-01            NaN
         13   -1    0    0    0    0  0.00000000000E+00  0.00000000000E+00  0.74505805969E-08  0.10566000000E+00  0.10566000000E+00 0.  1.
     999900   -1    0    0    0    0 -0.00000000000E+00 -0.00000000000E+00 -0.74505805969E-08  0.93827000000E+00  0.93827000000E+00 0. -1.
     999902    2    1    2    0    0 -0.37878663744E-02 -0.23942818798E-01  0.18083358342E-02  0.10196220469E+01  0.10193322530E+01 0.  0.
     999903    2    3    3    0    0  0.15252587968E-01 -0.21343772210E-01  0.12640390440E+00  0.13063759845E+00  0.20000925696E-01 0.  0.
         14    1    1    2    0    0  0.37878663744E-02  0.23942818798E-01 -0.18083358342E-02  0.24307953064E-01  0.00000000000E+00 0. -1.
     999901    1    3    3    0    0 -0.19040454343E-01 -0.25990465882E-02 -0.12459556857E+00  0.88898444849E+00  0.88000000000E+00 0. -1.
        -11    1    4    4    0    0  0.12837131480E-01 -0.11280619215E-01  0.38504464183E-01  0.42129552543E-01  0.51100000000E-03 0. -1.
         11    1    4    4    0    0  0.24154564886E-02 -0.10063152994E-01  0.87899440219E-01  0.88508045906E-01  0.51100000000E-03 0.  1.
</event>
<event>
 8    1  0.1128641E+005  0.1043930E+01  0.7957747E-01            NaN
         13   -1    0    0    0    0  0.00000000000E+00  0.00000000000E+00  0.74505805969E-08  0.10566000000E+00  0.10566000000E+00 0.  1.
     999900   -1    0    0    0    0 -0.00000000000E+00 -0.00000000000E+00 -0.74505805969E-08  0.93827000000E+00  0.93827000000E+00 0.  1.
     999902    2    1    2    0    0  0.19842993769E-01  0.85074341739E-02  0.97036391805E-02  0.10202597349E+01  0.10199851201E+01 0.  0.
     999903    2    3    3    0    0  0.11492213795E+00 -0.19876953969E-01 -0.58560956834E-01  0.13205605766E+00  0.20179831709E-01 0.  0.
         14    1    1    2    0    0 -0.19842993769E-01 -0.85074341739E-02 -0.97036391805E-02  0.23670265129E-01  0.00000000000E+00 0. -1.
     999901    1    3    3    0    0 -0.95079144183E-01  0.28384388143E-01  0.68264596014E-01  0.88820367721E+00  0.88000000000E+00 0. -1.
        -11    1    4    4    0    0  0.60148294987E-01 -0.19663984981E-02 -0.23559897903E-01  0.64629823016E-01  0.51100000000E-03 0. -1.
         11    1    4    4    0    0  0.54773842965E-01 -0.17910555471E-01 -0.35001058931E-01  0.67426234640E-01  0.51100000000E-03 0.  1.
</event>
<event>
 8    1  0.1128641E+005  0.1043930E+01  0.7957747E-01            NaN
         13   -1    0    0    0    0  0.00000000000E+00  0.00000000000E+00  0.74505805969E-08  0.10566000000E+00  0.10566000000E+00 0.  1.
     999900   -1    0    0    0    0 -0.00000000000E+00 -0.00000000000E+00 -0.74505805969E-08  0.93827000000E+00  0.93827000000E+00 0. -1.
     999902    2    1    2    0    0  0.19619376340E-01 -0.27384859660E-02 -0.12343303337E-01  0.10205895550E+01  0.10203226272E+01 0.  0.
     999903    2    3    3    0    0 -0.13334764790E-01  0.92044271445E-01 -0.90687068773E-01  0.13142843798E+00  0.19983143130E-01 0.  0.
         14    1    1    2    0    0 -0.19619376340E-01  0.27384859660E-02  0.12343303337E-01  0.23340444954E-01  0.00000000000E+00 0.  1.
     999901    1    3    3    0    0  0.32954141130E-01 -0.94782757411E-01  0.78343765436E-01  0.88916111707E+00  0.88000000000E+00 0.  1.
        -11    1    4    4    0    0 -0.96296681698E-02  0.45346261568E-01 -0.31980193910E-01  0.56320581236E-01  0.51100000000E-03 0. -1.
         11    1    4    4    0    0 -0.37050966203E-02  0.46698009877E-01 -0.58706874864E-01  0.75107856744E-01  0.51100000000E-03 0.  1.
</event>
<event>
 8    1  0.1128641E+005  0.1043930E+01  0.7957747E-01            NaN
         13   -1    0    0    0    0  0.00000000000E+00  0.00000000000E+00  0.74505805969E-08  0.10566000000E+00  0.10566000000E+00 0. -1.
     999900   -1    0    0    0    0 -0.00000000000E+00 -0.00000000000E+00 -0.74505805969E-08  0.93827000000E+00  0.93827000000E+00 0. -1.
     999902    2    1    2    0    0 -0.56867852743E-03  0.22841262829E-01  0.59981685863E-02  0.10203074534E+01  0.10200339576E+01 0.  0.
     999903    2    3    3    0    0 -0.75743884004E-01  0.19525558381E-01  0.10414356548E+00  0.13165970294E+00  0.19235689573E-01 0.  0.
         14    1    1    2    0    0  0.56867852743E-03 -0.22841262829E-01 -0.59981685863E-02  0.23622546630E-01  0.00000000000E+00 0.  1.
     999901    1    3    3    0    0  0.75175205477E-01  0.33157044478E-02 -0.98145396892E-01  0.88864775043E+00  0.88000000000E+00 0. -1.
        -11    1    4    4    0    0 -0.56440663949E-01  0.65933212787E-02  0.67108215983E-01  0.87936307666E-01  0.51100000000E-03 0. -1.
         11    1    4    4    0    0 -0.19303220055E-01  0.12932237103E-01  0.37035349495E-01  0.43723395273E-01  0.51100000000E-03 0.  1.
</event>
<event>
 8    1  0.1128641E+005  0.1043930E+01  0.7957747E-01            NaN
         13   -1    0    0    0    0  0.00000000000E+00  0.00000000000E+00  0.74505805969E-08  0.10566000000E+00  0.10566000000E+00 0. -1.
     999900   -1    0    0    0    0 -0.00000000000E+00 -0.00000000000E+00 -0.74505805969E-08  0.93827000000E+00  0.93827000000E+00 0.  1.
     999902    2    1    2    0    0 -0.21230699616E-01  0.48671120282E-02 -0.85400070465E-02  0.10205342075E+01  0.10202659975E+01 0.  0.
     999903    2    3    3    0    0  0.83905833081E-01  0.84897444437E-01 -0.47029718935E-01  0.12983784930E+00  0.19957648935E-01 0.  0.
         14    1    1    2    0    0  0.21230699616E-01 -0.48671120282E-02  0.85400070465E-02  0.23395792486E-01  0.00000000000E+00 0.  1.
     999901    1    3    3    0    0 -0.10513653270E+00 -0.80030332409E-01  0.38489711889E-01  0.89069635821E+00  0.88000000000E+00 0. -1.
        -11    1    4    4    0    0  0.24163414344E-01  0.35073692138E-01 -0.10367152132E-01  0.43838036421E-01  0.51100000000E-03 0.  1.
         11    1    4    4    0    0  0.59742418738E-01  0.49823752299E-01 -0.36662566803E-01  0.85999812880E-01  0.51100000000E-03 0. -1.
</event>
<event>
 8    1  0.1128641E+005  0.1043930E+01  0.7957747E-01            NaN
         13   -1    0    0    0    0  0.00000000000E+00  0.00000000000E+00  0.74505805969E-08  0.10566000000E+00  0.10566000000E+00 0. -1.
     999900   -1    0    0    0    0 -0.00000000000E+00 -0.00000000000E+00 -0.74505805969E-08  0.93827000000E+00  0.93827000000E+00 0. -1.
     999902    2    1    2    0    0 -0.13966755057E-01 -0.15043854696E-01  0.13634417564E-01  0.10192868437E+01  0.10189889031E+01 0.  0.
     999903    2    3    3    0    0  0.36085808104E-01 -0.62225485790E-01  0.10819441588E+00  0.13155210928E+00  0.20633206203E-01 0.  0.
         14    1    1    2    0    0  0.13966755057E-01  0.15043854696E-01 -0.13634417564E-01  0.24643156316E-01  0.00000000000E+00 0. -1.
     999901    1    3    3    0    0 -0.50052563161E-01  0.47181631095E-01 -0.94559998319E-01  0.88773473441E+00  0.88000000000E+00 0. -1.
        -11    1    4    4    0    0  0.19838145344E-01 -0.49478407507E-01  0.86403336279E-01  0.10152567390E+00  0.51100000000E-03 0. -1.
         11    1    4    4    0    0  0.16247662761E-01 -0.12747078283E-01  0.21791079604E-01  0.30026435374E-01  0.51100000000E-03 0.  1.
</event>
<event>
 8    1  0.1128641E+005  0.1043930E+01  0.7957747E-01            NaN
         13   -1    0    0    0    0  0.00000000000E+00  0.00000000000E+00  0.74505805969E-08  0.10566000000E+00  0.10566000000E+00 0. -1.
     999900   -1    0    0    0    0 -0.00000000000E+00 -0.00000000000E+00 -0.74505805969E-08  0.93827000000E+00  0.93827000000E+00 0. -1.
     999902    2    1    2    0    0 -0.73904073338E-02  0.20845302650E-01  0.88160688348E-02  0.10201210136E+01  0.10198431323E+01 0.  0.
     999903    2    3    3    0    0 -0.33186954711E-01  0.82250677728E-01 -0.95211474207E-01  0.13149408871E+00  0.18945252597E-01 0.  0.
         14    1    1    2    0    0  0.73904073338E-02 -0.20845302650E-01 -0.88160688348E-02  0.23808986388E-01  0.00000000000E+00 0. -1.
     999901    1    3    3    0    0  0.25796547377E-01 -0.61405375078E-01  0.10402754304E+00  0.88862692490E+00  0.88000000000E+00 0.  1.
        -11    1    4    4    0    0 -0.18236577207E-01  0.61589620731E-01 -0.59130638765E-01  0.87307202977E-01  0.51100000000E-03 0. -1.
         11    1    4    4    0    0 -0.14950377504E-01  0.20661056996E-01 -0.36080835443E-01  0.44186885735E-01  0.51100000000E-03 0.  1.
</event>
<event>
 8    1  0.1128641E+005  0.1043930E+01  0.7957747E-01            NaN
         13   -1    0    0    0    0  0.00000000000E+00  0.00000000000E+00  0.74505805969E-08  0.10566000000E+00  0.10566000000E+00 0. -1.
     999900   -1    0    0    0    0 -0.00000000000E+00 -0.00000000000E+00 -0.74505805969E-08  0.93827000000E+00  0.93827000000E+00 0. -1.
     999902    2    1    2    0    0 -0.14106016176E-01  0.15322614259E-01  0.11135212325E-01  0.10203131595E+01  0.10200397974E+01 0.  0.
     999903    2    3    3    0    0  0.39003690201E-01 -0.24803479927E-01  0.12193288611E+00  0.13087127337E+00  0.11097793174E-01 0.  0.
         14    1    1    2    0    0  0.14106016176E-01 -0.15322614259E-01 -0.11135212325E-01  0.23616840466E-01  0.00000000000E+00 0. -1.
     999901    1    3    3    0    0 -0.53109706376E-01  0.40126094186E-01 -0.11079767378E+00  0.88944188616E+00  0.88000000000E+00 0.  1.
        -11    1    4    4    0    0  0.81266926972E-02 -0.96133409438E-02  0.41889568931E-01  0.43743074475E-01  0.51100000000E-03 0.  1.
         11    1    4    4    0    0  0.30876997503E-01 -0.15190138983E-01  0.80043317177E-01  0.87128198896E-01  0.51100000000E-03 0. -1.
</event>
<event>
 8    1  0.1128641E+005  0.1043930E+01  0.7957747E-01            NaN
         13   -1    0    0    0    0  0.00000000000E+00  0.00000000000E+00  0.74505805969E-08  0.10566000000E+00  0.10566000000E+00 0. -1.
     999900   -1    0    0    0    0 -0.00000000000E+00 -0.00000000000E+00 -0.74505805969E-08  0.93827000000E+00  0.93827000000E+00 0.  1.
     999902    2    1    2    0    0  0.68191125470E-02  0.20825569230E-01 -0.90330016258E-02  0.10202276848E+01  0.10199523170E+01 0.  0.
     999903    2    3    3    0    0 -0.40954858127E-01  0.11787924018E+00  0.38612719072E-01  0.13232460332E+00  0.21119727709E-01 0.  0.
         14    1    1    2    0    0 -0.68191125470E-02 -0.20825569230E-01  0.90330016258E-02  0.23702315247E-01  0.00000000000E+00 0. -1.
     999901    1    3    3    0    0  0.47773970674E-01 -0.97053670954E-01 -0.47645720698E-01  0.88790308143E+00  0.88000000000E+00 0.  1.
        -11    1    4    4    0    0 -0.41418849750E-01  0.95439850668E-01  0.30009285765E-01  0.10828252197E+00  0.51100000000E-03 0. -1.
         11    1    4    4    0    0  0.46399162251E-03  0.22439389517E-01  0.86034333069E-02  0.24042081353E-01  0.51100000000E-03 0.  1.
</event>
<event>
 8    1  0.1128641E+005  0.1043930E+01  0.7957747E-01            NaN
         13   -1    0    0    0    0  0.00000000000E+00  0.00000000000E+00  0.74505805969E-08  0.10566000000E+00  0.10566000000E+00 0.  1.
     999900   -1    0    0    0    0 -0.00000000000E+00 -0.00000000000E+00 -0.74505805969E-08  0.93827000000E+00  0.93827000000E+00 0. -1.
     999902    2    1    2    0    0  0.95261944431E-02 -0.49574907335E-02 -0.17783266571E-01  0.10231557451E+01  0.10229448221E+01 0.  0.
     999903    2    3    3    0    0  0.29093469717E-01  0.19595078741E-01  0.12481266498E+00  0.13112474421E+00  0.19623967863E-01 0.  0.
         14    1    1    2    0    0 -0.95261944431E-02  0.49574907335E-02  0.17783266571E-01  0.20774254857E-01  0.00000000000E+00 0.  1.
     999901    1    3    3    0    0 -0.19567275274E-01 -0.24552569474E-01 -0.14259593155E+00  0.89203100093E+00  0.88000000000E+00 0. -1.
        -11    1    4    4    0    0  0.20026711020E-01  0.20093137466E-02  0.70483451772E-01  0.73302691565E-01  0.51100000000E-03 0.  1.
         11    1    4    4    0    0  0.90667586976E-02  0.17585764994E-01  0.54329213204E-01  0.57822052645E-01  0.51100000000E-03 0. -1.
</event>
<event>
 8    1  0.1128641E+005  0.1043930E+01  0.7957747E-01            NaN
         13   -1    0    0    0    0  0.00000000000E+00  0.00000000000E+00  0.74505805969E-08  0.10566000000E+00  0.10566000000E+00 0. -1.
     999900   -1    0    0    0    0 -0.00000000000E+00 -0.00000000000E+00 -0.74505805969E-08  0.93827000000E+00  0.93827000000E+00 0. -1.
     999902    2    1    2    0    0  0.16776822003E-01 -0.19779168152E-01 -0.63919528169E-02  0.10172179370E+01  0.10168671482E+01 0.  0.
     999903    2    3    3    0    0  0.83222935760E-01  0.91032632646E-01 -0.26113648638E-01  0.12756447271E+00  0.19436429937E-01 0.  0.
         14    1    1    2    0    0 -0.16776822003E-01  0.19779168152E-01  0.63919528169E-02  0.26712063008E-01  0.00000000000E+00 0. -1.
     999901    1    3    3    0    0 -0.66446113756E-01 -0.11081180080E+00  0.19721695821E-01  0.88965346429E+00  0.88000000000E+00 0.  1.
        -11    1    4    4    0    0  0.11003928194E-01  0.47771177126E-02  0.28492687966E-03  0.12010395233E-01  0.51100000000E-03 0. -1.
         11    1    4    4    0    0  0.72219007566E-01  0.86255514933E-01 -0.26398575518E-01  0.11555407747E+00  0.51100000000E-03 0.  1.
</event>
<event>
 8    1  0.1128641E+005  0.1043930E+01  0.7957747E-01            NaN
         13   -1    0    0    0    0  0.00000000000E+00  0.00000000000E+00  0.74505805969E-08  0.10566000000E+00  0.10566000000E+00 0. -1.
     999900   -1    0    0    0    0 -0.00000000000E+00 -0.00000000000E+00 -0.74505805969E-08  0.93827000000E+00  0.93827000000E+00 0.  1.
     999902    2    1    2    0    0  0.21705615513E-01  0.20951052634E-02 -0.11228389099E-01  0.10194024658E+01  0.10191073483E+01 0.  0.
     999903    2    3    3    0    0  0.10396971987E+00 -0.19542969904E-02  0.77363774597E-01  0.13112753542E+00  0.19893591904E-01 0.  0.
         14    1    1    2    0    0 -0.21705615513E-01 -0.20951052634E-02  0.11228389099E-01  0.24527534174E-01  0.00000000000E+00 0. -1.
     999901    1    3    3    0    0 -0.82264104354E-01  0.40494022539E-02 -0.88592163696E-01  0.88827493041E+00  0.88000000000E+00 0.  1.
        -11    1    4    4    0    0  0.61609637153E-02  0.11329346311E-02 -0.15287837899E-03  0.62869314915E-02  0.51100000000E-03 0. -1.
         11    1    4    4    0    0  0.97808756152E-01 -0.30872316216E-02  0.77516652976E-01  0.12484060393E+00  0.51100000000E-03 0.  1.
</event>
<event>
 8    1  0.1128641E+005  0.1043930E+01  0.7957747E-01            NaN
         13   -1    0    0    0    0  0.00000000000E+00  0.00000000000E+00  0.74505805969E-08  0.10566000000E+00  0.10566000000E+00 0. -1.
     999900   -1    0    0    0    0 -0.00000000000E+00 -0.00000000000E+00 -0.74505805969E-08  0.93827000000E+00  0.93827000000E+00 0. -1.
     999902    2    1    2    0    0 -0.48403877415E-02  0.22834699949E-01 -0.31989855891E-02  0.10203697287E+01  0.10200976899E+01 0.  0.
     999903    2    3    3    0    0 -0.60974477514E-01  0.86025882711E-01 -0.78659881047E-01  0.13310510731E+00  0.20279381191E-01 0.  0.
         14    1    1    2    0    0  0.48403877415E-02 -0.22834699949E-01  0.31989855891E-02  0.23560271307E-01  0.00000000000E+00 0.  1.
     999901    1    3    3    0    0  0.56134089772E-01 -0.63191182762E-01  0.75460895458E-01  0.88726462138E+00  0.88000000000E+00 0.  1.
        -11    1    4    4    0    0 -0.92235042701E-02  0.24341688206E-01 -0.26604347559E-01  0.37224229284E-01  0.51100000000E-03 0. -1.
         11    1    4    4    0    0 -0.51750973244E-01  0.61684194505E-01 -0.52055533488E-01  0.95880878027E-01  0.51100000000E-03 0.  1.
</event>
<event>
 8    1  0.1128641E+005  0.1043930E+01  0.7957747E-01            NaN
         13   -1    0    0    0    0  0.00000000000E+00  0.00000000000E+00  0.74505805969E-08  0.10566000000E+00  0.10566000000E+00 0. -1.
     999900   -1    0    0    0    0 -0.00000000000E+00 -0.00000000000E+00 -0.74505805969E-08  0.93827000000E+00  0.93827000000E+00 0. -1.
     999902    2    1    2    0    0 -0.87088801488E-02  0.20268372424E-01 -0.53596369277E-02  0.10212280789E+01  0.10209757156E+01 0.  0.
     999903    2    3    3    0    0 -0.39274481030E-01  0.12012137655E+00  0.39059126702E-01  0.13394125663E+00  0.21047918798E-01 0.  0.
         14    1    1    2    0    0  0.87088801488E-02 -0.20268372424E-01  0.53596369277E-02  0.22701921112E-01  0.00000000000E+00 0. -1.
     999901    1    3    3    0    0  0.30565600882E-01 -0.99853004121E-01 -0.44418763630E-01  0.88728682226E+00  0.88000000000E+00 0. -1.
        -11    1    4    4    0    0 -0.13744801117E-01  0.61072044579E-01  0.28350970719E-01  0.68722287858E-01  0.51100000000E-03 0.  1.
         11    1    4    4    0    0 -0.25529679913E-01  0.59049331966E-01  0.10708155983E-01  0.65218968772E-01  0.51100000000E-03 0. -1.
</event>
<event>
 8    1  0.1128641E+005  0.1043930E+01  0.7957747E-01            NaN
         13   -1    0    0    0    0  0.00000000000E+00  0.00000000000E+00  0.74505805969E-08  0.10566000000E+00  0.10566000000E+00 0.  1.
     999900   -1    0    0    0    0 -0.00000000000E+00 -0.00000000000E+00 -0.74505805969E-08  0.93827000000E+00  0.93827000000E+00 0. -1.
     999902    2    1    2    0    0 -0.67074514823E-02 -0.22532725653E-01 -0.31756163817E-02  0.10202066324E+01  0.10199307695E+01 0.  0.
     999903    2    3    3    0    0 -0.12855947760E-01  0.12450636943E+00 -0.15878909055E-01  0.12789521079E+00  0.20926867161E-01 0.  0.
         14    1    1    2    0    0  0.67074514823E-02  0.22532725653E-01  0.31756163817E-02  0.23723367597E-01  0.00000000000E+00 0.  1.
     999901    1    3    3    0    0  0.61484962778E-02 -0.14703909509E+00  0.12703292674E-01  0.89231142161E+00  0.88000000000E+00 0. -1.
        -11    1    4    4    0    0 -0.52800191386E-02  0.11149024644E+00 -0.11524972824E-01  0.11220980248E+00  0.51100000000E-03 0.  1.
         11    1    4    4    0    0 -0.75759286215E-02  0.13016122995E-01 -0.43539362315E-02  0.15685408315E-01  0.51100000000E-03 0. -1.
</event>
<event>
 8    1  0.1156337E+005  0.1043930E+01  0.7957747E-01            NaN
         13   -1    0    0    0    0  0.00000000000E+00  0.00000000000E+00  0.74505805969E-08  0.10566000000E+00  0.10566000000E+00 0. -1.
     999900   -1    0    0    0    0 -0.00000000000E+00 -0.00000000000E+00 -0.74505805969E-08  0.93827000000E+00  0.93827000000E+00 0. -1.
     999902    2    1    2    0    0 -0.24547804488E-03 -0.94312985416E-02  0.21950203136E-01  0.10200381380E+01  0.10197582958E+01 0.  0.
     999903    2    3    3    0    0 -0.12432333306E-01  0.11367250608E+00  0.59830392155E-01  0.13057876576E+00  0.19878045480E-01 0.  0.
         14    1    1    2    0    0  0.24547804488E-03  0.94312985416E-02 -0.21950203136E-01  0.23891861991E-01  0.00000000000E+00 0.  1.
     999901    1    3    3    0    0  0.12186855261E-01 -0.12310380463E+00 -0.37880189019E-01  0.88945937225E+00  0.88000000000E+00 0. -1.
        -11    1    4    4    0    0  0.52955881025E-02  0.35918817667E-01  0.18227034931E-01  0.40628692316E-01  0.51100000000E-03 0.  1.
         11    1    4    4    0    0 -0.17727921408E-01  0.77753688418E-01  0.41603357224E-01  0.89950073448E-01  0.51100000000E-03 0. -1.
</event>
<event>
 8    1  0.1128641E+005  0.1043930E+01  0.7957747E-01            NaN
         13   -1    0    0    0    0  0.00000000000E+00  0.00000000000E+00  0.74505805969E-08  0.10566000000E+00  0.10566000000E+00 0. -1.
     999900   -1    0    0    0    0 -0.00000000000E+00 -0.00000000000E+00 -0.74505805969E-08  0.93827000000E+00  0.93827000000E+00 0. -1.
     999902    2    1    2    0    0 -0.84854248208E-02  0.24277215673E-02  0.21719643893E-01  0.10204856148E+01  0.10202162765E+01 0.  0.
     999903    2    3    3    0    0  0.74806658108E-01  0.58978464354E-02 -0.10187959544E+00  0.12794632446E+00  0.18973383625E-01 0.  0.
         14    1    1    2    0    0  0.84854248208E-02 -0.24277215673E-02 -0.21719643893E-01  0.23444385197E-01  0.00000000000E+00 0.  1.
     999901    1    3    3    0    0 -0.83292082929E-01 -0.34701248682E-02  0.12359923933E+00  0.89253929034E+00  0.88000000000E+00 0.  1.
        -11    1    4    4    0    0  0.33641591612E-01  0.15936665386E-02 -0.61501349904E-01  0.70121135332E-01  0.51100000000E-03 0. -1.
         11    1    4    4    0    0  0.41165066496E-01  0.43041798968E-02 -0.40378245533E-01  0.57825189126E-01  0.51100000000E-03 0.  1.
</event>
<event>
 8    1  0.1128641E+005  0.1043930E+01  0.7957747E-01            NaN
         13   -1    0    0    0    0  0.00000000000E+00  0.00000000000E+00  0.74505805969E-08  0.10566000000E+00  0.10566000000E+00 0.  1.
     999900   -1    0    0    0    0 -0.00000000000E+00 -0.00000000000E+00 -0.74505805969E-08  0.93827000000E+00  0.93827000000E+00 0.  1.
     999902    2    1    2    0    0 -0.12414029454E-01 -0.38964688756E-02 -0.19360507944E-01  0.10206036230E+01  0.10203370205E+01 0.  0.
     999903    2    3    3    0    0  0.67899635294E-01  0.76195549586E-01  0.75356843409E-01  0.12828283267E+00  0.19018650333E-01 0.  0.
         14    1    1    2    0    0  0.12414029454E-01  0.38964688756E-02  0.19360507944E-01  0.23326377019E-01  0.00000000000E+00 0.  1.
     999901    1    3    3    0    0 -0.80313664747E-01 -0.80092018462E-01 -0.94717351354E-01  0.89232079031E+00  0.88000000000E+00 0.  1.
        -11    1    4    4    0    0  0.32805519542E-01  0.31119998519E-01  0.44091936577E-01  0.63158660628E-01  0.51100000000E-03 0.  1.
         11    1    4    4    0    0  0.35094115752E-01  0.45075551067E-01  0.31264906832E-01  0.65124172046E-01  0.51100000000E-03 0. -1.
</event>
<event>
 8    1  0.1128641E+005  0.1043930E+01  0.7957747E-01            NaN
         13   -1    0    0    0    0  0.00000000000E+00  0.00000000000E+00  0.74505805969E-08  0.10566000000E+00  0.10566000000E+00 0. -1.
     999900   -1    0    0    0    0 -0.00000000000E+00 -0.00000000000E+00 -0.74505805969E-08  0.93827000000E+00  0.93827000000E+00 0.  1.
     999902    2    1    2    0    0 -0.18506099438E-03  0.22830260488E-01 -0.35087806072E-02  0.10208309398E+01  0.10205695670E+01 0.  0.
     999903    2    3    3    0    0  0.72835385683E-01 -0.56398916398E-01  0.90205615542E-01  0.12932006708E+00  0.10039696002E-01 0.  0.
         14    1    1    2    0    0  0.18506099438E-03 -0.22830260488E-01  0.35087806072E-02  0.23099060216E-01  0.00000000000E+00 0.  1.
     999901    1    3    3    0    0 -0.73020446677E-01  0.79229176886E-01 -0.93714396150E-01  0.89151087270E+00  0.88000000000E+00 0.  1.
        -11    1    4    4    0    0  0.42188814608E-01 -0.38647614845E-01  0.57222774343E-01  0.80921203870E-01  0.51100000000E-03 0. -1.
         11    1    4    4    0    0  0.30646571075E-01 -0.17751301553E-01  0.32982841200E-01  0.48398863211E-01  0.51100000000E-03 0.  1.
</event>
<event>
 8    1  0.1128641E+005  0.1043930E+01  0.7957747E-01            NaN
         13   -1    0    0    0    0  0.00000000000E+00  0.00000000000E+00  0.74505805969E-08  0.10566000000E+00  0.10566000000E+00 0.  1.
     999900   -1    0    0    0    0 -0.00000000000E+00 -0.00000000000E+00 -0.74505805969E-08  0.93827000000E+00  0.93827000000E+00 0. -1.
     999902    2    1    2    0    0 -0.29142967924E-02 -0.23300464831E-01  0.35656088411E-03  0.10204452832E+01  0.10201750066E+01 0.  0.
     999903    2    3    3    0    0  0.98239779701E-01 -0.63745245777E-02 -0.83406524430E-01  0.13053804697E+00  0.19795062779E-01 0.  0.
         14    1    1    2    0    0  0.29142967924E-02  0.23300464831E-01 -0.35656088411E-03  0.23484716792E-01  0.00000000000E+00 0.  1.
     999901    1    3    3    0    0 -0.10115407649E+00 -0.16925940253E-01  0.83763085314E-01  0.88990723624E+00  0.88000000000E+00 0.  1.
        -11    1    4    4    0    0  0.31154598672E-01 -0.88073623960E-02 -0.35608158746E-01  0.48128793264E-01  0.51100000000E-03 0.  1.
         11    1    4    4    0    0  0.67085181029E-01  0.24328378183E-02 -0.47798365683E-01  0.82409253707E-01  0.51100000000E-03 0. -1.
</event>
<event>
 8    1  0.1128641E+005  0.1043930E+01  0.7957747E-01            NaN
         13   -1    0    0    0    0  0.00000000000E+00  0.00000000000E+00  0.74505805969E-08  0.10566000000E+00  0.10566000000E+00 0.  1.
     999900   -1    0    0    0    0 -0.00000000000E+00 -0.00000000000E+00 -0.74505805969E-08  0.93827000000E+00  0.93827000000E+00 0.  1.
     999902    2    1    2    0    0  0.49176952022E-02 -0.83002405811E-02 -0.20712029987E-01  0.10210812384E+01  0.10208255627E+01 0.  0.
     999903    2    3    3    0    0 -0.10344258379E+00 -0.90513963130E-02 -0.79523825029E-01  0.13248608789E+00  0.21124128892E-01 0.  0.
         14    1    1    2    0    0 -0.49176952022E-02  0.83002405811E-02  0.20712029987E-01  0.22848761585E-01  0.00000000000E+00 0.  1.
     999901    1    3    3    0    0  0.10836027899E+00  0.75115573185E-03  0.58811795042E-01  0.88859515052E+00  0.88000000000E+00 0. -1.
        -11    1    4    4    0    0 -0.52992792928E-01 -0.10575745755E-01 -0.30169571300E-01  0.61891410180E-01  0.51100000000E-03 0.  1.
         11    1    4    4    0    0 -0.50449790861E-01  0.15243494420E-02 -0.49354253728E-01  0.70594677712E-01  0.51100000000E-03 0. -1.
</event>
<event>
 8    1  0.1128641E+005  0.1043930E+01  0.7957747E-01            NaN
         13   -1    0    0    0    0  0.00000000000E+00  0.00000000000E+00  0.74505805969E-08  0.10566000000E+00  0.10566000000E+00 0. -1.
     999900   -1    0    0    0    0 -0.00000000000E+00 -0.00000000000E+00 -0.74505805969E-08  0.93827000000E+00  0.93827000000E+00 0. -1.
     999902    2    1    2    0    0  0.44061217401E-02  0.21808779821E-01 -0.52920515838E-02  0.10210598755E+01  0.10208037160E+01 0.  0.
     999903    2    3    3    0    0 -0.11636013275E+00 -0.46734407017E-01 -0.27734089928E-01  0.12988856659E+00  0.19444142923E-01 0.  0.
         14    1    1    2    0    0 -0.44061217401E-02 -0.21808779821E-01  0.52920515838E-02  0.22870124530E-01  0.00000000000E+00 0. -1.
     999901    1    3    3    0    0  0.12076625449E+00  0.68543186838E-01  0.22442038345E-01  0.89117130888E+00  0.88000000000E+00 0.  1.
        -11    1    4    4    0    0 -0.69135829393E-01 -0.37907177556E-01 -0.17084882423E-01  0.80677576467E-01  0.51100000000E-03 0.  1.
         11    1    4    4    0    0 -0.47224303356E-01 -0.88272294613E-02 -0.10649207505E-01  0.49210990123E-01  0.51100000000E-03 0. -1.
</event>
<event>
 8    1  0.1128641E+005  0.1043930E+01  0.7957747E-01            NaN
         13   -1    0    0    0    0  0.00000000000E+00  0.00000000000E+00  0.74505805969E-08  0.10566000000E+00  0.10566000000E+00 0.  1.
     999900   -1    0    0    0    0 -0.00000000000E+00 -0.00000000000E+00 -0.74505805969E-08  0.93827000000E+00  0.93827000000E+00 0. -1.
     999902    2    1    2    0    0  0.17712057551E-01 -0.11851149250E-01 -0.86710396552E-02  0.10209223132E+01  0.10206630277E+01 0.  0.
     999903    2    3    3    0    0 -0.71745749916E-01  0.10009752430E+00 -0.32484002255E-01  0.12901297816E+00  0.20546803350E-01 0.  0.
         14    1    1    2    0    0 -0.17712057551E-01  0.11851149250E-01  0.86710396552E-02  0.23007686758E-01  0.00000000000E+00 0.  1.
     999901    1    3    3    0    0  0.89457807467E-01 -0.11194867355E+00  0.23812962600E-01  0.89190933509E+00  0.88000000000E+00 0.  1.
        -11    1    4    4    0    0 -0.66143847858E-01  0.79672631598E-01 -0.24828416803E-01  0.10648684537E+00  0.51100000000E-03 0. -1.
         11    1    4    4    0    0 -0.56019020578E-02  0.20424892703E-01 -0.76555854522E-02  0.22526132784E-01  0.51100000000E-03 0.  1.
</event>
<event>
 8    1  0.1128641E+005  0.1043930E+01  0.7957747E-01            NaN
         13   -1    0    0    0    0  0.00000000000E+00  0.00000000000E+00  0.74505805969E-08  0.10566000000E+00  0.10566000000E+00 0.  1.
     999900   -1    0    0    0    0 -0.00000000000E+00 -0.00000000000E+00 -0.74505805969E-08  0.93827000000E+00  0.93827000000E+00 0. -1.
     999902    2    1    2    0    0 -0.93077481538E-02  0.21089645478E-01  0.61511355815E-02  0.10200711695E+01  0.10197921098E+01 0.  0.
     999903    2    3    3    0    0 -0.10342374796E+00  0.51629563791E-01 -0.60388837408E-01  0.13202946104E+00  0.20564128958E-01 0.  0.
         14    1    1    2    0    0  0.93077481538E-02 -0.21089645478E-01 -0.61511355815E-02  0.23858830462E-01  0.00000000000E+00 0. -1.
     999901    1    3    3    0    0  0.94115999803E-01 -0.30539918313E-01  0.66539972990E-01  0.88804170850E+00  0.88000000000E+00 0.  1.
        -11    1    4    4    0    0 -0.38858384526E-01  0.10112495650E-01 -0.15094084781E-01  0.42899057479E-01  0.51100000000E-03 0. -1.
         11    1    4    4    0    0 -0.64565363431E-01  0.41517068141E-01 -0.45294752628E-01  0.89130403559E-01  0.51100000000E-03 0.  1.
</event>
<event>
 8    1  0.1128641E+005  0.1043930E+01  0.7957747E-01            NaN
         13   -1    0    0    0    0  0.00000000000E+00  0.00000000000E+00  0.74505805969E-08  0.10566000000E+00  0.10566000000E+00 0.  1.
     999900   -1    0    0    0    0 -0.00000000000E+00 -0.00000000000E+00 -0.74505805969E-08  0.93827000000E+00  0.93827000000E+00 0.  1.
     999902    2    1    2    0    0  0.19022849802E-01  0.15238366077E-01 -0.38863536964E-02  0.10192484206E+01  0.10189495388E+01 0.  0.
     999903    2    3    3    0    0 -0.12249427031E+00  0.39045241572E-02  0.27966151117E-01  0.12730103803E+00  0.20083752364E-01 0.  0.
         14    1    1    2    0    0 -0.19022849802E-01 -0.15238366077E-01  0.38863536964E-02  0.24681579373E-01  0.00000000000E+00 0. -1.
     999901    1    3    3    0    0  0.14151712011E+00  0.11333841919E-01 -0.31852504814E-01  0.89194738260E+00  0.88000000000E+00 0. -1.
        -11    1    4    4    0    0 -0.63415144973E-01  0.11617519469E-01  0.11557714239E-01  0.65500299618E-01  0.51100000000E-03 0. -1.
         11    1    4    4    0    0 -0.59079125333E-01 -0.77129953114E-02  0.16408436878E-01  0.61800738414E-01  0.51100000000E-03 0.  1.
</event>
<event>
 8    1  0.1128641E+005  0.1043930E+01  0.7957747E-01            NaN
         13   -1    0    0    0    0  0.00000000000E+00  0.00000000000E+00  0.74505805969E-08  0.10566000000E+00  0.10566000000E+00 0. -1.
     999900   -1    0    0    0    0 -0.00000000000E+00 -0.00000000000E+00 -0.74505805969E-08  0.93827000000E+00  0.93827000000E+00 0.  1.
     999902    2    1    2    0    0  0.10252745018E-01 -0.19520336159E-01  0.74971705784E-02  0.10206411642E+01  0.10203754291E+01 0.  0.
     999903    2    3    3    0    0  0.72405928272E-01  0.90774174147E-01  0.55488884162E-01  0.13028668329E+00  0.20323248630E-01 0.  0.
         14    1    1    2    0    0 -0.10252745018E-01  0.19520336159E-01 -0.74971705784E-02  0.23288835755E-01  0.00000000000E+00 0.  1.
     999901    1    3    3    0    0 -0.62153183253E-01 -0.11029451031E+00 -0.47991713584E-01  0.89035448096E+00  0.88000000000E+00 0. -1.
        -11    1    4    4    0    0  0.61704969504E-01  0.73541062602E-01  0.53490871243E-01  0.10989688611E+00  0.51100000000E-03 0. -1.
         11    1    4    4    0    0  0.10700958767E-01  0.17233111545E-01  0.19980129194E-02  0.20389797171E-01  0.51100000000E-03 0.  1.
</event>
<event>
 8    1  0.1128641E+005  0.1043930E+01  0.7957747E-01            NaN
         13   -1    0    0    0    0  0.00000000000E+00  0.00000000000E+00  0.74505805969E-08  0.10566000000E+00  0.10566000000E+00 0. -1.
     999900   -1    0    0    0    0 -0.00000000000E+00 -0.00000000000E+00 -0.74505805969E-08  0.93827000000E+00  0.93827000000E+00 0.  1.
     999902    2    1    2    0    0  0.51958783256E-02 -0.19596124956E-01 -0.84807549629E-02  0.10219543665E+01  0.10217180622E+01 0.  0.
     999903    2    3    3    0    0  0.69180577888E-01 -0.42293875616E-01 -0.10498485866E+00  0.13407922225E+00  0.19511356232E-01 0.  0.
         14    1    1    2    0    0 -0.51958783256E-02  0.19596124956E-01  0.84807549629E-02  0.21975633543E-01  0.00000000000E+00 0.  1.
     999901    1    3    3    0    0 -0.63984699562E-01  0.22697750660E-01  0.96504103693E-01  0.88787514420E+00  0.88000000000E+00 0. -1.
        -11    1    4    4    0    0  0.43225986785E-01 -0.15082999109E-01 -0.58488208282E-01  0.74277280677E-01  0.51100000000E-03 0. -1.
         11    1    4    4    0    0  0.25954591103E-01 -0.27210876506E-01 -0.46496650374E-01  0.59801941578E-01  0.51100000000E-03 0.  1.
</event>
<event>
 8    1  0.1128641E+005  0.1043930E+01  0.7957747E-01            NaN
         13   -1    0    0    0    0  0.00000000000E+00  0.00000000000E+00  0.74505805969E-08  0.10566000000E+00  0.10566000000E+00 0.  1.
     999900   -1    0    0    0    0 -0.00000000000E+00 -0.00000000000E+00 -0.74505805969E-08  0.93827000000E+00  0.93827000000E+00 0.  1.
     999902    2    1    2    0    0 -0.55177478727E-02  0.96843659397E-02 -0.20348781074E-01  0.10207285911E+01  0.10204648702E+01 0.  0.
     999903    2    3    3    0    0 -0.23513555276E-01 -0.38575061817E-01 -0.12377051126E+00  0.13317640909E+00  0.19387980937E-01 0.  0.
         14    1    1    2    0    0  0.55177478727E-02 -0.96843659397E-02  0.20348781074E-01  0.23201408932E-01  0.00000000000E+00 0.  1.
     999901    1    3    3    0    0  0.17995807403E-01  0.48259427757E-01  0.10342173019E+00  0.88755218197E+00  0.88000000000E+00 0. -1.
        -11    1    4    4    0    0  0.13657944422E-02 -0.69243508027E-02 -0.34914476621E-01  0.35624343183E-01  0.51100000000E-03 0.  1.
         11    1    4    4    0    0 -0.24879349718E-01 -0.31650711014E-01 -0.88856034642E-01  0.97552065911E-01  0.51100000000E-03 0. -1.
</event>
<event>
 8    1  0.1128641E+005  0.1043930E+01  0.7957747E-01            NaN
         13   -1    0    0    0    0  0.00000000000E+00  0.00000000000E+00  0.74505805969E-08  0.10566000000E+00  0.10566000000E+00 0. -1.
     999900   -1    0    0    0    0 -0.00000000000E+00 -0.00000000000E+00 -0.74505805969E-08  0.93827000000E+00  0.93827000000E+00 0. -1.
     999902    2    1    2    0    0 -0.21514158678E-01  0.93292041944E-02 -0.19483613165E-02  0.10203993989E+01  0.10201280528E+01 0.  0.
     999903    2    3    3    0    0  0.10662234891E+00 -0.38859114513E-01 -0.56186914855E-01  0.12816462080E+00  0.19769788923E-01 0.  0.
         14    1    1    2    0    0  0.21514158678E-01 -0.93292041944E-02  0.19483613165E-02  0.23530601062E-01  0.00000000000E+00 0.  1.
     999901    1    3    3    0    0 -0.12813650759E+00  0.48188318707E-01  0.54238553539E-01  0.89223477814E+00  0.88000000000E+00 0.  1.
        -11    1    4    4    0    0  0.72592863252E-01 -0.17189036524E-01 -0.40404947576E-01  0.84841073080E-01  0.51100000000E-03 0. -1.
         11    1    4    4    0    0  0.34029485662E-01 -0.21670077988E-01 -0.15781967279E-01  0.43323547715E-01  0.51100000000E-03 0.  1.
</event>
<event>
 8    1  0.1128641E+005  0.1043930E+01  0.7957747E-01            NaN
         13   -1    0    0    0    0  0.00000000000E+00  0.00000000000E+00  0.74505805969E-08  0.10566000000E+00  0.10566000000E+00 0.  1.
     999900   -1    0    0    0    0 -0.00000000000E+00 -0.00000000000E+00 -0.74505805969E-08  0.93827000000E+00  0.93827000000E+00 0.  1.
     999902    2    1    2    0    0 -0.45119419282E-02  0.96472568858E-02  0.21096743060E-01  0.10202974006E+01  0.10200236693E+01 0.  0.
     999903    2    3    3    0    0 -0.59910927065E-01 -0.83961292636E-01 -0.74311457138E-01  0.12848221082E+00  0.18619022353E-01 0.  0.
         14    1    1    2    0    0  0.45119419282E-02 -0.96472568858E-02 -0.21096743060E-01  0.23632599373E-01  0.00000000000E+00 0. -1.
     999901    1    3    3    0    0  0.55398985137E-01  0.93608549522E-01  0.95408200198E-01  0.89181518980E+00  0.88000000000E+00 0. -1.
        -11    1    4    4    0    0 -0.36839885504E-01 -0.61988656560E-01 -0.43831876673E-01  0.84387589370E-01  0.51100000000E-03 0.  1.
         11    1    4    4    0    0 -0.23071041561E-01 -0.21972636076E-01 -0.30479580465E-01  0.44094621454E-01  0.51100000000E-03 0. -1.
</event>
<event>
 8    1  0.1128641E+005  0.1043930E+01  0.7957747E-01            NaN
         13   -1    0    0    0    0  0.00000000000E+00  0.00000000000E+00  0.74505805969E-08  0.10566000000E+00  0.10566000000E+00 0.  1.
     999900   -1    0    0    0    0 -0.00000000000E+00 -0.00000000000E+00 -0.74505805969E-08  0.93827000000E+00  0.93827000000E+00 0.  1.
     999902    2    1    2    0    0  0.76559294005E-02  0.69207934515E-02  0.21670986738E-01  0.10199270355E+01  0.10196445535E+01 0.  0.
     999903    2    3    3    0    0 -0.21580005305E-01  0.76185662756E-01 -0.99251910899E-01  0.12848174323E+00  0.19663791287E-01 0.  0.
         14    1    1    2    0    0 -0.76559294005E-02 -0.69207934515E-02 -0.21670986738E-01  0.24002964466E-01  0.00000000000E+00 0. -1.
     999901    1    3    3    0    0  0.29235934705E-01 -0.69264869305E-01  0.12092289764E+00  0.89144529230E+00  0.88000000000E+00 0. -1.
        -11    1    4    4    0    0 -0.31420620342E-02  0.42837889522E-02 -0.16372157085E-01  0.17220105988E-01  0.51100000000E-03 0.  1.
         11    1    4    4    0    0 -0.18437943270E-01  0.71901873804E-01 -0.82879753814E-01  0.11126163724E+00  0.51100000000E-03 0. -1.
</event>
<event>
 8    1  0.1128641E+005  0.1043930E+01  0.7957747E-01            NaN
         13   -1    0    0    0    0  0.00000000000E+00  0.00000000000E+00  0.74505805969E-08  0.10566000000E+00  0.10566000000E+00 0. -1.
     999900   -1    0    0    0    0 -0.00000000000E+00 -0.00000000000E+00 -0.74505805969E-08  0.93827000000E+00  0.93827000000E+00 0.  1.
     999902    2    1    2    0    0  0.17959455573E-02  0.11343480595E-02 -0.18495475801E-01  0.10253129435E+01  0.10251439106E+01 0.  0.
     999903    2    3    3    0    0  0.40035531462E-02  0.57709667126E-01  0.11814837323E+00  0.13296929800E+00  0.19374261218E-01 0.  0.
         14    1    1    2    0    0 -0.17959455573E-02 -0.11343480595E-02  0.18495475801E-01  0.18617056456E-01  0.00000000000E+00 0. -1.
     999901    1    3    3    0    0 -0.22076075889E-02 -0.56575319067E-01 -0.13664384903E+00  0.89234364554E+00  0.88000000000E+00 0.  1.
        -11    1    4    4    0    0 -0.66301270773E-02  0.32610954746E-01  0.56737666516E-01  0.65778848250E-01  0.51100000000E-03 0. -1.
         11    1    4    4    0    0  0.10633680224E-01  0.25098712380E-01  0.61410706712E-01  0.67190449754E-01  0.51100000000E-03 0.  1.
</event>
<event>
 8    1  0.1128641E+005  0.1043930E+01  0.7957747E-01            NaN
         13   -1    0    0    0    0  0.00000000000E+00  0.00000000000E+00  0.74505805969E-08  0.10566000000E+00  0.10566000000E+00 0. -1.
     999900   -1    0    0    0    0 -0.00000000000E+00 -0.00000000000E+00 -0.74505805969E-08  0.93827000000E+00  0.93827000000E+00 0.  1.
     999902    2    1    2    0    0  0.20309383015E-01  0.10851494751E-02  0.10411706895E-01  0.10210815377E+01  0.10208258688E+01 0.  0.
     999903    2    3    3    0    0  0.16300422378E-01 -0.75126309237E-01 -0.10187336155E+00  0.13067028735E+00  0.28051311780E-01 0.  0.
         14    1    1    2    0    0 -0.20309383015E-01 -0.10851494751E-02 -0.10411706895E-01  0.22848462274E-01  0.00000000000E+00 0.  1.
     999901    1    3    3    0    0  0.40089606365E-02  0.76211458712E-01  0.11228506845E+00  0.89041125038E+00  0.88000000000E+00 0. -1.
        -11    1    4    4    0    0  0.21873918866E-01 -0.63693886973E-01 -0.74178428499E-01  0.10019021878E+00  0.51100000000E-03 0. -1.
         11    1    4    4    0    0 -0.55734964880E-02 -0.11432422264E-01 -0.27694933052E-01  0.30480068564E-01  0.51100000000E-03 0.  1.
</event>
<event>
 8    1  0.1128641E+005  0.1043930E+01  0.7957747E-01            NaN
         13   -1    0    0    0    0  0.00000000000E+00  0.00000000000E+00  0.74505805969E-08  0.10566000000E+00  0.10566000000E+00 0. -1.
     999900   -1    0    0    0    0 -0.00000000000E+00 -0.00000000000E+00 -0.74505805969E-08  0.93827000000E+00  0.93827000000E+00 0. -1.
     999902    2    1    2    0    0 -0.18395569496E-01 -0.10669244287E-01 -0.11247375966E-01  0.10198731254E+01  0.10195893578E+01 0.  0.
     999903    2    3    3    0    0 -0.19884668203E-01  0.97886353534E-01 -0.81101209516E-01  0.13045416150E+00  0.21534712214E-01 0.  0.
         14    1    1    2    0    0  0.18395569496E-01  0.10669244287E-01  0.11247375966E-01  0.24056874628E-01  0.00000000000E+00 0. -1.
     999901    1    3    3    0    0  0.14890987069E-02 -0.10855559782E+00  0.69853833550E-01  0.88941896387E+00  0.88000000000E+00 0.  1.
        -11    1    4    4    0    0 -0.22058357333E-01  0.55424658138E-01 -0.48000007578E-01  0.76568438056E-01  0.51100000000E-03 0.  1.
         11    1    4    4    0    0  0.21736891303E-02  0.42461695396E-01 -0.33101201938E-01  0.53885723444E-01  0.51100000000E-03 0. -1.
</event>
<event>
 8    1  0.1128641E+005  0.1043930E+01  0.7957747E-01            NaN
         13   -1    0    0    0    0  0.00000000000E+00  0.00000000000E+00  0.74505805969E-08  0.10566000000E+00  0.10566000000E+00 0. -1.
     999900   -1    0    0    0    0 -0.00000000000E+00 -0.00000000000E+00 -0.74505805969E-08  0.93827000000E+00  0.93827000000E+00 0.  1.
     999902    2    1    2    0    0  0.43562875110E-02  0.22813396232E-01  0.57538038399E-02  0.10200023059E+01  0.10197216137E+01 0.  0.
     999903    2    3    3    0    0 -0.10068319739E+00 -0.70652020738E-01 -0.29696233512E-01  0.12813584572E+00  0.20201841576E-01 0.  0.
         14    1    1    2    0    0 -0.43562875110E-02 -0.22813396232E-01 -0.57538038399E-02  0.23927694146E-01  0.00000000000E+00 0.  1.
     999901    1    3    3    0    0  0.10503948490E+00  0.93465416970E-01  0.35450037352E-01  0.89186646013E+00  0.88000000000E+00 0. -1.
        -11    1    4    4    0    0 -0.37569574672E-01 -0.37472935136E-01 -0.84620815190E-02  0.53736037753E-01  0.51100000000E-03 0.  1.
         11    1    4    4    0    0 -0.63113622720E-01 -0.33179085602E-01 -0.21234151993E-01  0.74399807971E-01  0.51100000000E-03 0. -1.
</event>
<event>
 8    1  0.1128641E+005  0.1043930E+01  0.7957747E-01            NaN
         13   -1    0    0    0    0  0.00000000000E+00  0.00000000000E+00  0.74505805969E-08  0.10566000000E+00  0.10566000000E+00 0.  1.
     999900   -1    0    0    0    0 -0.00000000000E+00 -0.00000000000E+00 -0.74505805969E-08  0.93827000000E+00  0.93827000000E+00 0. -1.
     999902    2    1    2    0    0 -0.20658398480E-01  0.49262430035E-02 -0.83746746870E-02  0.10211007978E+01  0.10208455646E+01 0.  0.
     999903    2    3    3    0    0  0.27031539385E-01 -0.20957749615E-01  0.12343536037E+00  0.12963111429E+00  0.19950093026E-01 0.  0.
         14    1    1    2    0    0  0.20658398480E-01 -0.49262430035E-02  0.83746746870E-02  0.22829202220E-01  0.00000000000E+00 0. -1.
     999901    1    3    3    0    0 -0.47689937865E-01  0.25883992618E-01 -0.13181003505E+00  0.89146968349E+00  0.88000000000E+00 0. -1.
        -11    1    4    4    0    0  0.99659265580E-02 -0.19421678917E-01  0.80259006015E-01  0.83176261467E-01  0.51100000000E-03 0.  1.
         11    1    4    4    0    0  0.17065612827E-01 -0.15360706982E-02  0.43176354352E-01  0.46454852820E-01  0.51100000000E-03 0. -1.
</event>
<event>
 8    1  0.1128641E+005  0.1043930E+01  0.7957747E-01            NaN
         13   -1    0    0    0    0  0.00000000000E+00  0.00000000000E+00  0.74505805969E-08  0.10566000000E+00  0.10566000000E+00 0.  1.
     999900   -1    0    0    0    0 -0.00000000000E+00 -0.00000000000E+00 -0.74505805969E-08  0.93827000000E+00  0.93827000000E+00 0.  1.
     999902    2    1    2    0    0  0.21445548321E-01 -0.44528896763E-02  0.10425133484E-01  0.10196725645E+01  0.10193839883E+01 0.  0.
     999903    2    3    3    0    0 -0.27673260271E-01 -0.64933716719E-01 -0.10546972767E+00  0.12866066410E+00  0.21154340740E-01 0.  0.
         14    1    1    2    0    0 -0.21445548321E-01  0.44528896763E-02 -0.10425133484E-01  0.24257435507E-01  0.00000000000E+00 0.  1.
     999901    1    3    3    0    0  0.49118808592E-01  0.60480827043E-01  0.11589486115E+00  0.89101190039E+00  0.88000000000E+00 0. -1.
        -11    1    4    4    0    0 -0.23119787565E-01 -0.40043055997E-01 -0.52535471770E-01  0.69987197585E-01  0.51100000000E-03 0.  1.
         11    1    4    4    0    0 -0.45534727059E-02 -0.24890660722E-01 -0.52934255896E-01  0.58673466517E-01  0.51100000000E-03 0. -1.
</event>
<event>
 8    1  0.1128641E+005  0.1043930E+01  0.7957747E-01            NaN
         13   -1    0    0    0    0  0.00000000000E+00  0.00000000000E+00  0.74505805969E-08  0.10566000000E+00  0.10566000000E+00 0. -1.
     999900   -1    0    0    0    0 -0.00000000000E+00 -0.00000000000E+00 -0.74505805969E-08  0.93827000000E+00  0.93827000000E+00 0.  1.
     999902    2    1    2    0    0 -0.14877268925E-01 -0.19900955769E-01 -0.94818160983E-04  0.10190826629E+01  0.10187797032E+01 0.  0.
     999903    2    3    3    0    0  0.46056099963E-02  0.80661316332E-01 -0.97097409357E-01  0.12784652367E+00  0.19732387471E-01 0.  0.
         14    1    1    2    0    0  0.14877268925E-01  0.19900955769E-01  0.94818160983E-04  0.24847337115E-01  0.00000000000E+00 0. -1.
     999901    1    3    3    0    0 -0.19482878921E-01 -0.10056227210E+00  0.97002591196E-01  0.89123613921E+00  0.88000000000E+00 0. -1.
        -11    1    4    4    0    0 -0.43238594527E-02  0.60297575080E-01 -0.76766324584E-01  0.97712962458E-01  0.51100000000E-03 0.  1.
         11    1    4    4    0    0  0.89294694489E-02  0.20363741252E-01 -0.20331084773E-01  0.30133561214E-01  0.51100000000E-03 0. -1.
</event>
<event>
 8    1  0.1128641E+005  0.1043930E+01  0.7957747E-01            NaN
         13   -1    0    0    0    0  0.00000000000E+00  0.00000000000E+00  0.74505805969E-08  0.10566000000E+00  0.10566000000E+00 0. -1.
     999900   -1    0    0    0    0 -0.00000000000E+00 -0.00000000000E+00 -0.74505805969E-08  0.93827000000E+00  0.93827000000E+00 0. -1.
     999902    2    1    2    0    0 -0.74846601687E-02  0.13728774824E-01 -0.16754858210E-01  0.10210122194E+01  0.10207549791E+01 0.  0.
     999903    2    3    3    0    0  0.60562820728E-01 -0.20057743579E-01 -0.11336608991E+00  0.13247087616E+00  0.25029869273E-01 0.  0.
         14    1    1    2    0    0  0.74846601687E-02 -0.13728774824E-01  0.16754858210E-01  0.22917780644E-01  0.00000000000E+00 0. -1.
     999901    1    3    3    0    0 -0.68047480896E-01  0.33786518403E-01  0.96611231704E-01  0.88854134320E+00  0.88000000000E+00 0.  1.
        -11    1    4    4    0    0  0.11789172550E-02 -0.77593647736E-02 -0.11995518873E-01  0.14344029476E-01  0.51100000000E-03 0. -1.
         11    1    4    4    0    0  0.59383903473E-01 -0.12298378806E-01 -0.10137057104E+00  0.11812684668E+00  0.51100000000E-03 0.  1.
</event>
<event>
 8    1  0.1128641E+005  0.1043930E+01  0.7957747E-01            NaN
         13   -1    0    0    0    0  0.00000000000E+00  0.00000000000E+00  0.74505805969E-08  0.10566000000E+00  0.10566000000E+00 0.  1.
     999900   -1    0    0    0    0 -0.00000000000E+00 -0.00000000000E+00 -0.74505805969E-08  0.93827000000E+00  0.93827000000E+00 0.  1.
     999902    2    1    2    0    0  0.29335390788E-03  0.23084306346E-01  0.15452389370E-01  0.10161496546E+01  0.10157698425E+01 0.  0.
     999903    2    3    3    0    0  0.10218952925E+00  0.13300432311E-01 -0.70162524959E-01  0.12608871939E+00  0.18867534601E-01 0.  0.
         14    1    1    2    0    0 -0.29335390788E-03 -0.23084306346E-01 -0.15452389370E-01  0.27780345449E-01  0.00000000000E+00 0. -1.
     999901    1    3    3    0    0 -0.10189617534E+00  0.97838740352E-02  0.85614914329E-01  0.89006093516E+00  0.88000000000E+00 0. -1.
        -11    1    4    4    0    0  0.66300798353E-01  0.17418233754E-01 -0.48331453623E-01  0.83877179612E-01  0.51100000000E-03 0. -1.
         11    1    4    4    0    0  0.35888730895E-01 -0.41178014434E-02 -0.21831071336E-01  0.42211539780E-01  0.51100000000E-03 0.  1.
</event>
<event>
 8    1  0.1128641E+005  0.1043930E+01  0.7957747E-01            NaN
         13   -1    0    0    0    0  0.00000000000E+00  0.00000000000E+00  0.74505805969E-08  0.10566000000E+00  0.10566000000E+00 0.  1.
     999900   -1    0    0    0    0 -0.00000000000E+00 -0.00000000000E+00 -0.74505805969E-08  0.93827000000E+00  0.93827000000E+00 0.  1.
     999902    2    1    2    0    0  0.64668625357E-02 -0.19404928479E-01  0.11222371110E-01  0.10205994798E+01  0.10203327815E+01 0.  0.
     999903    2    3    3    0    0 -0.84904011315E-01  0.87637377434E-01 -0.33837899526E-01  0.12827828210E+00  0.20525914189E-01 0.  0.
         14    1    1    2    0    0 -0.64668625357E-02  0.19404928479E-01 -0.11222371110E-01  0.23330520218E-01  0.00000000000E+00 0. -1.
     999901    1    3    3    0    0  0.91370873851E-01 -0.10704230591E+00  0.45060270636E-01  0.89232119768E+00  0.88000000000E+00 0. -1.
        -11    1    4    4    0    0 -0.65820002464E-01  0.60523040420E-01 -0.32329832818E-01  0.95083070823E-01  0.51100000000E-03 0.  1.
         11    1    4    4    0    0 -0.19084008851E-01  0.27114337014E-01 -0.15080667077E-02  0.33195211277E-01  0.51100000000E-03 0. -1.
</event>
<event>
 8    1  0.1128641E+005  0.1043930E+01  0.7957747E-01            NaN
         13   -1    0    0    0    0  0.00000000000E+00  0.00000000000E+00  0.74505805969E-08  0.10566000000E+00  0.10566000000E+00 0. -1.
     999900   -1    0    0    0    0 -0.00000000000E+00 -0.00000000000E+00 -0.74505805969E-08  0.93827000000E+00  0.93827000000E+00 0. -1.
     999902    2    1    2    0    0  0.85446806797E-02 -0.18569191443E-01  0.11551214429E-01  0.10204511373E+01  0.10201809970E+01 0.  0.
     999903    2    3    3    0    0  0.10720660148E+00 -0.76552080864E-01  0.25062756317E-02  0.13299522234E+00  0.18109976844E-01 0.  0.
         14    1    1    2    0    0 -0.85446806797E-02  0.18569191443E-01 -0.11551214429E-01  0.23478862698E-01  0.00000000000E+00 0.  1.
     999901    1    3    3    0    0 -0.98661920805E-01  0.57982889421E-01  0.90449387977E-02  0.88745591496E+00  0.88000000000E+00 0.  1.
        -11    1    4    4    0    0  0.18586775365E-01 -0.92553583841E-02  0.61411129704E-02  0.21658814991E-01  0.51100000000E-03 0. -1.
         11    1    4    4    0    0  0.88619826120E-01 -0.67296722480E-01 -0.36348373387E-02  0.11133640735E+00  0.51100000000E-03 0.  1.
</event>
<event>
 8    1  0.1128641E+005  0.1043930E+01  0.7957747E-01            NaN
         13   -1    0    0    0    0  0.00000000000E+00  0.00000000000E+00  0.74505805969E-08  0.10566000000E+00  0.10566000000E+00 0.  1.
     999900   -1    0    0    0    0 -0.00000000000E+00 -0.00000000000E+00 -0.74505805969E-08  0.93827000000E+00  0.93827000000E+00 0. -1.
     999902    2    1    2    0    0 -0.10490221170E-01 -0.17585038258E-01 -0.11781822146E-01  0.10203060790E+01  0.10200325510E+01 0.  0.
     999903    2    3    3    0    0 -0.21768450386E-01  0.11982013200E+00  0.34912306741E-01  0.12834883734E+00  0.20587020638E-01 0.  0.
         14    1    1    2    0    0  0.10490221170E-01  0.17585038258E-01  0.11781822146E-01  0.23623921008E-01  0.00000000000E+00 0. -1.
     999901    1    3    3    0    0  0.11278229216E-01 -0.13740517026E+00 -0.46694128887E-01  0.89195724165E+00  0.88000000000E+00 0. -1.
        -11    1    4    4    0    0 -0.22308114675E-01  0.88122781506E-01  0.32546199791E-01  0.96554610674E-01  0.51100000000E-03 0. -1.
         11    1    4    4    0    0  0.53966428837E-03  0.31697350495E-01  0.23661069504E-02  0.31794226662E-01  0.51100000000E-03 0.  1.
</event>
<event>
 8    1  0.1128641E+005  0.1043930E+01  0.7957747E-01            NaN
         13   -1    0    0    0    0  0.00000000000E+00  0.00000000000E+00  0.74505805969E-08  0.10566000000E+00  0.10566000000E+00 0. -1.
     999900   -1    0    0    0    0 -0.00000000000E+00 -0.00000000000E+00 -0.74505805969E-08  0.93827000000E+00  0.93827000000E+00 0.  1.
     999902    2    1    2    0    0 -0.23156165829E-01 -0.52418550431E-02  0.19931687391E-02  0.10201044301E+01  0.10198261570E+01 0.  0.
     999903    2    3    3    0    0 -0.11395534095E+00 -0.34899427941E-01  0.55864472134E-01  0.13329769851E+00  0.21062938518E-01 0.  0.
         14    1    1    2    0    0  0.23156165829E-01  0.52418550431E-02 -0.19931687391E-02  0.23825569916E-01  0.00000000000E+00 0.  1.
     999901    1    3    3    0    0  0.90799175125E-01  0.29657572898E-01 -0.53871303395E-01  0.88680673157E+00  0.88000000000E+00 0.  1.
        -11    1    4    4    0    0 -0.48016902881E-01 -0.80984724603E-02  0.31799562464E-01  0.58160824550E-01  0.51100000000E-03 0. -1.
         11    1    4    4    0    0 -0.65938438073E-01 -0.26800955481E-01  0.24064909670E-01  0.75136873961E-01  0.51100000000E-03 0.  1.
</event>
<event>
 8    1  0.1128641E+005  0.1043930E+01  0.7957747E-01            NaN
         13   -1    0    0    0    0  0.00000000000E+00  0.00000000000E+00  0.74505805969E-08  0.10566000000E+00  0.10566000000E+00 0. -1.
     999900   -1    0    0    0    0 -0.00000000000E+00 -0.00000000000E+00 -0.74505805969E-08  0.93827000000E+00  0.93827000000E+00 0. -1.
     999902    2    1    2    0    0 -0.11185986019E-01 -0.19295376396E-01  0.99372567667E-02  0.10195130611E+01  0.10192206311E+01 0.  0.
     999903    2    3    3    0    0  0.10098545028E+00 -0.10907844613E-01 -0.75731104299E-01  0.12822643498E+00  0.19742751219E-01 0.  0.
         14    1    1    2    0    0  0.11185986019E-01  0.19295376396E-01 -0.99372567667E-02  0.24416938906E-01  0.00000000000E+00 0. -1.
     999901    1    3    3    0    0 -0.11217143630E+00 -0.83875317835E-02  0.85668361066E-01  0.89128662612E+00  0.88000000000E+00 0.  1.
        -11    1    4    4    0    0  0.31847886614E-01  0.10100523330E-02 -0.14124159617E-01  0.34857726452E-01  0.51100000000E-03 0.  1.
         11    1    4    4    0    0  0.69137563667E-01 -0.11917896946E-01 -0.61606944682E-01  0.93368708524E-01  0.51100000000E-03 0. -1.
</event>
<event>
 8    1  0.1128641E+005  0.1043930E+01  0.7957747E-01            NaN
         13   -1    0    0    0    0  0.00000000000E+00  0.00000000000E+00  0.74505805969E-08  0.10566000000E+00  0.10566000000E+00 0.  1.
     999900   -1    0    0    0    0 -0.00000000000E+00 -0.00000000000E+00 -0.74505805969E-08  0.93827000000E+00  0.93827000000E+00 0.  1.
     999902    2    1    2    0    0  0.10019034678E-01  0.30427134716E-02 -0.21760776813E-01  0.10197810752E+01  0.10194951058E+01 0.  0.
     999903    2    3    3    0    0  0.81342369658E-01  0.88668425433E-01 -0.50749209499E-01  0.13227946400E+00  0.21064272159E-01 0.  0.
         14    1    1    2    0    0 -0.10019034678E-01 -0.30427134716E-02  0.21760776813E-01  0.24148924793E-01  0.00000000000E+00 0.  1.
     999901    1    3    3    0    0 -0.71323334980E-01 -0.85625711962E-01  0.28988432686E-01  0.88750161120E+00  0.88000000000E+00 0. -1.
        -11    1    4    4    0    0  0.50810520053E-01  0.67596489331E-01 -0.29735018749E-01  0.89640542049E-01  0.51100000000E-03 0. -1.
         11    1    4    4    0    0  0.30531849605E-01  0.21071936102E-01 -0.21014190750E-01  0.42638921953E-01  0.51100000000E-03 0.  1.
</event>
<event>
 8    1  0.1128641E+005  0.1043930E+01  0.7957747E-01            NaN
         13   -1    0    0    0    0  0.00000000000E+00  0.00000000000E+00  0.74505805969E-08  0.10566000000E+00  0.10566000000E+00 0. -1.
     999900   -1    0    0    0    0 -0.00000000000E+00 -0.00000000000E+00 -0.74505805969E-08  0.93827000000E+00  0.93827000000E+00 0.  1.
     999902    2    1    2    0    0 -0.19178989142E-02  0.23819811856E-01 -0.27283898486E-02  0.10198778507E+01  0.10195941960E+01 0.  0.
     999903    2    3    3    0    0  0.18412652732E-01  0.10782119825E+00 -0.72784796519E-01  0.13287307941E+00  0.19829070944E-01 0.  0.
         14    1    1    2    0    0  0.19178989142E-02 -0.23819811856E-01  0.27283898486E-02  0.24052149265E-01  0.00000000000E+00 0.  1.
     999901    1    3    3    0    0 -0.20330551646E-01 -0.84001386391E-01  0.70056406670E-01  0.88700477133E+00  0.88000000000E+00 0. -1.
        -11    1    4    4    0    0  0.14475298483E-01  0.74454213297E-01 -0.60754887575E-01  0.97182208398E-01  0.51100000000E-03 0.  1.
         11    1    4    4    0    0  0.39373542483E-02  0.33366984949E-01 -0.12029908944E-01  0.35690871008E-01  0.51100000000E-03 0. -1.
</event>
<event>
 8    1  0.1128641E+005  0.1043930E+01  0.7957747E-01            NaN
         13   -1    0    0    0    0  0.00000000000E+00  0.00000000000E+00  0.74505805969E-08  0.10566000000E+00  0.10566000000E+00 0.  1.
     999900   -1    0    0    0    0 -0.00000000000E+00 -0.00000000000E+00 -0.74505805969E-08  0.93827000000E+00  0.93827000000E+00 0.  1.
     999902    2    1    2    0    0  0.66617070483E-02  0.26200254512E-02  0.22717484616E-01  0.10201113732E+01  0.10198332642E+01 0.  0.
     999903    2    3    3    0    0 -0.93181861964E-03  0.15526781430E-01 -0.12511436952E+00  0.12765492999E+00  0.20005660755E-01 0.  0.
         14    1    1    2    0    0 -0.66617070483E-02 -0.26200254512E-02 -0.22717484616E-01  0.23818626775E-01  0.00000000000E+00 0. -1.
     999901    1    3    3    0    0  0.75935256679E-02 -0.12906755979E-01  0.14783185413E+00  0.89245644324E+00  0.88000000000E+00 0. -1.
        -11    1    4    4    0    0  0.86797882584E-02  0.10657430615E-01 -0.53848862364E-01  0.55577699219E-01  0.51100000000E-03 0.  1.
         11    1    4    4    0    0 -0.96116068781E-02  0.48693508146E-02 -0.71265507154E-01  0.72077230767E-01  0.51100000000E-03 0. -1.
</event>
<event>
 8    1  0.1128641E+005  0.1043930E+01  0.7957747E-01            NaN
         13   -1    0    0    0    0  0.00000000000E+00  0.00000000000E+00  0.74505805969E-08  0.10566000000E+00  0.10566000000E+00 0.  1.
     999900   -1    0    0    0    0 -0.00000000000E+00 -0.00000000000E+00 -0.74505805969E-08  0.93827000000E+00  0.93827000000E+00 0.  1.
     999902    2    1    2    0    0  0.59894339613E-02 -0.19744349284E-01 -0.12708470099E-01  0.10196974215E+01  0.10194094435E+01 0.  0.
     999903    2    3    3    0    0  0.38972749733E-01  0.87942212065E-01  0.81332270263E-01  0.12754947669E+00  0.20030549971E-01 0.  0.
         14    1    1    2    0    0 -0.59894339613E-02  0.19744349284E-01  0.12708470099E-01  0.24232578486E-01  0.00000000000E+00 0. -1.
     999901    1    3    3    0    0 -0.32983315771E-01 -0.10768656135E+00 -0.94040740362E-01  0.89214794483E+00  0.88000000000E+00 0.  1.
        -11    1    4    4    0    0  0.21170450364E-01  0.49471825336E-01  0.32429412910E-01  0.62829749429E-01  0.51100000000E-03 0.  1.
         11    1    4    4    0    0  0.17802299369E-01  0.38470386729E-01  0.48902857353E-01  0.64719727257E-01  0.51100000000E-03 0. -1.
</event>
<event>
 8    1  0.1128641E+005  0.1043930E+01  0.7957747E-01            NaN
         13   -1    0    0    0    0  0.00000000000E+00  0.00000000000E+00  0.74505805969E-08  0.10566000000E+00  0.10566000000E+00 0.  1.
     999900   -1    0    0    0    0 -0.00000000000E+00 -0.00000000000E+00 -0.74505805969E-08  0.93827000000E+00  0.93827000000E+00 0.  1.
     999902    2    1    2    0    0  0.11301016376E-01 -0.17783020671E-01 -0.11086045250E-01  0.10201214050E+01  0.10198435330E+01 0.  0.
     999903    2    3    3    0    0 -0.11581909846E+00 -0.31393772907E-01  0.43519715471E-01  0.12920807295E+00  0.20028178520E-01 0.  0.
         14    1    1    2    0    0 -0.11301016376E-01  0.17783020671E-01  0.11086045250E-01  0.23808594973E-01  0.00000000000E+00 0.  1.
     999901    1    3    3    0    0  0.12712011484E+00  0.13610752236E-01 -0.54605760720E-01  0.89091333208E+00  0.88000000000E+00 0. -1.
        -11    1    4    4    0    0 -0.47612886274E-01 -0.41667221193E-02  0.11950668453E-01  0.49268936563E-01  0.51100000000E-03 0. -1.
         11    1    4    4    0    0 -0.68206212186E-01 -0.27227050788E-01  0.31569047018E-01  0.79939136385E-01  0.51100000000E-03 0.  1.
</event>
<event>
 8    1  0.1128641E+005  0.1043930E+01  0.7957747E-01            NaN
         13   -1    0    0    0    0  0.00000000000E+00  0.00000000000E+00  0.74505805969E-08  0.10566000000E+00  0.10566000000E+00 0.  1.
     999900   -1    0    0    0    0 -0.00000000000E+00 -0.00000000000E+00 -0.74505805969E-08  0.93827000000E+00  0.93827000000E+00 0.  1.
     999902    2    1    2    0    0 -0.47757082559E-02  0.22351371264E-02  0.22642916125E-01  0.10206812392E+01  0.10204164283E+01 0.  0.
     999903    2    3    3    0    0  0.59047903471E-01 -0.10240835272E+00  0.54535451701E-01  0.13161383614E+00  0.19338065096E-01 0.  0.
         14    1    1    2    0    0  0.47757082559E-02 -0.22351371264E-02 -0.22642916125E-01  0.23248760784E-01  0.00000000000E+00 0. -1.
     999901    1    3    3    0    0 -0.63823611726E-01  0.10464348984E+00 -0.31892535576E-01  0.88906740307E+00  0.88000000000E+00 0.  1.
        -11    1    4    4    0    0  0.37563982707E-01 -0.81134331007E-01  0.38009653754E-01  0.97153627644E-01  0.51100000000E-03 0. -1.
         11    1    4    4    0    0  0.21483920763E-01 -0.21274021711E-01  0.16525797947E-01  0.34460208500E-01  0.51100000000E-03 0.  1.
</event>
<event>
 8    1  0.1128641E+005  0.1043930E+01  0.7957747E-01            NaN
         13   -1    0    0    0    0  0.00000000000E+00  0.00000000000E+00  0.74505805969E-08  0.10566000000E+00  0.10566000000E+00 0.  1.
     999900   -1    0    0    0    0 -0.00000000000E+00 -0.00000000000E+00 -0.74505805969E-08  0.93827000000E+00  0.93827000000E+00 0. -1.
     999902    2    1    2    0    0  0.15237245218E-01  0.11598795874E-01  0.15101803861E-01  0.10195420893E+01  0.10192503626E+01 0.  0.
     999903    2    3    3    0    0 -0.93265315632E-01  0.62214813262E-01 -0.59326293866E-01  0.12832139350E+00  0.19433702585E-01 0.  0.
         14    1    1    2    0    0 -0.15237245218E-01 -0.11598795874E-01 -0.15101803861E-01  0.24387910682E-01  0.00000000000E+00 0. -1.
     999901    1    3    3    0    0  0.10850256085E+00 -0.50616017387E-01  0.74428097727E-01  0.89122069582E+00  0.88000000000E+00 0.  1.
        -11    1    4    4    0    0 -0.64555020993E-02  0.96534450504E-02 -0.10660590814E-01  0.15772502218E-01  0.51100000000E-03 0. -1.
         11    1    4    4    0    0 -0.86809813533E-01  0.52561368211E-01 -0.48665703052E-01  0.11254889128E+00  0.51100000000E-03 0.  1.
</event>
<event>
 8    1  0.1128641E+005  0.1043930E+01  0.7957747E-01            NaN
         13   -1    0    0    0    0  0.00000000000E+00  0.00000000000E+00  0.74505805969E-08  0.10566000000E+00  0.10566000000E+00 0.  1.
     999900   -1    0    0    0    0 -0.00000000000E+00 -0.00000000000E+00 -0.74505805969E-08  0.93827000000E+00  0.93827000000E+00 0.  1.
     999902    2    1    2    0    0 -0.16390319575E-02  0.10729702828E-01 -0.19117219641E-01  0.10219463462E+01  0.10217098675E+01 0.  0.
     999903    2    3    3    0    0 -0.69659152279E-01  0.96553504774E-01  0.53797035652E-01  0.13216606410E+00  0.19969243215E-01 0.  0.
         14    1    1    2    0    0  0.16390319575E-02 -0.10729702828E-01  0.19117219641E-01  0.21983653822E-01  0.00000000000E+00 0.  1.
     999901    1    3    3    0    0  0.68020120321E-01 -0.85823801945E-01 -0.72914255294E-01  0.88978028208E+00  0.88000000000E+00 0.  1.
        -11    1    4    4    0    0 -0.23410290712E-01  0.48712774449E-01  0.21063014419E-01  0.58007652970E-01  0.51100000000E-03 0.  1.
         11    1    4    4    0    0 -0.46248861567E-01  0.47840730325E-01  0.32734021233E-01  0.74158411130E-01  0.51100000000E-03 0. -1.
</event>
<event>
 8    1  0.1128641E+005  0.1043930E+01  0.7957747E-01            NaN
         13   -1    0    0    0    0  0.00000000000E+00  0.00000000000E+00  0.74505805969E-08  0.10566000000E+00  0.10566000000E+00 0.  1.
     999900   -1    0    0    0    0 -0.00000000000E+00 -0.00000000000E+00 -0.74505805969E-08  0.93827000000E+00  0.93827000000E+00 0. -1.
     999902    2    1    2    0    0  0.23692787852E-01  0.35589904731E-02 -0.90357674085E-02  0.10183241471E+01  0.10180021655E+01 0.  0.
     999903    2    3    3    0    0  0.96048721469E-01  0.72083489808E-01 -0.50298493624E-01  0.13173878703E+00  0.20094356143E-01 0.  0.
         14    1    1    2    0    0 -0.23692787852E-01 -0.35589904731E-02  0.90357674085E-02  0.25605852887E-01  0.00000000000E+00 0.  1.
     999901    1    3    3    0    0 -0.72355933617E-01 -0.68524499334E-01  0.41262726215E-01  0.88658536008E+00  0.88000000000E+00 0.  1.
        -11    1    4    4    0    0  0.44054750917E-01  0.36285659902E-01 -0.34393621617E-01  0.66638221179E-01  0.51100000000E-03 0. -1.
         11    1    4    4    0    0  0.51993970552E-01  0.35797829905E-01 -0.15904872006E-01  0.65100565852E-01  0.51100000000E-03 0.  1.
</event>
<event>
 8    1  0.1128641E+005  0.1043930E+01  0.7957747E-01            NaN
         13   -1    0    0    0    0  0.00000000000E+00  0.00000000000E+00  0.74505805969E-08  0.10566000000E+00  0.10566000000E+00 0. -1.
     999900   -1    0    0    0    0 -0.00000000000E+00 -0.00000000000E+00 -0.74505805969E-08  0.93827000000E+00  0.93827000000E+00 0. -1.
     999902    2    1    2    0    0  0.11887793161E-01  0.16669412654E-01  0.11499565511E-01  0.10204474756E+01  0.10201772501E+01 0.  0.
     999903    2    3    3    0    0 -0.61256250879E-01  0.86222055875E-01 -0.74092507643E-01  0.13055218720E+00  0.19172968034E-01 0.  0.
         14    1    1    2    0    0 -0.11887793161E-01 -0.16669412654E-01 -0.11499565511E-01  0.23482524383E-01  0.00000000000E+00 0. -1.
     999901    1    3    3    0    0  0.73144044040E-01 -0.69552643221E-01  0.85592073154E-01  0.88989528842E+00  0.88000000000E+00 0.  1.
        -11    1    4    4    0    0 -0.45679410319E-01  0.64821661290E-01 -0.65076671832E-01  0.10258504100E+00  0.51100000000E-03 0.  1.
         11    1    4    4    0    0 -0.15576840560E-01  0.21400394585E-01 -0.90158358110E-02  0.27967146200E-01  0.51100000000E-03 0. -1.
</event>
<event>
 8    1  0.1128641E+005  0.1043930E+01  0.7957747E-01            NaN
         13   -1    0    0    0    0  0.00000000000E+00  0.00000000000E+00  0.74505805969E-08  0.10566000000E+00  0.10566000000E+00 0.  1.
     999900   -1    0    0    0    0 -0.00000000000E+00 -0.00000000000E+00 -0.74505805969E-08  0.93827000000E+00  0.93827000000E+00 0.  1.
     999902    2    1    2    0    0 -0.23891008550E-01 -0.26433048950E-01 -0.11578273609E-01  0.10064661136E+01  0.10057686091E+01 0.  0.
     999903    2    3    3    0    0  0.10095224081E+00  0.49490626241E-01 -0.53261321506E-02  0.11439586374E+00  0.20429609591E-01 0.  0.
         14    1    1    2    0    0  0.23891008550E-01  0.26433048950E-01  0.11578273609E-01  0.37463886425E-01  0.00000000000E+00 0. -1.
     999901    1    3    3    0    0 -0.12484324936E+00 -0.75923675191E-01 -0.62521414586E-02  0.89207024983E+00  0.88000000000E+00 0. -1.
        -11    1    4    4    0    0  0.23204563452E-01  0.20147370137E-01  0.29828471485E-02  0.30879229047E-01  0.51100000000E-03 0.  1.
         11    1    4    4    0    0  0.77747677353E-01  0.29343256104E-01 -0.83089792991E-02  0.83516634694E-01  0.51100000000E-03 0. -1.
</event>
<event>
 8    1  0.1128641E+005  0.1043930E+01  0.7957747E-01            NaN
         13   -1    0    0    0    0  0.00000000000E+00  0.00000000000E+00  0.74505805969E-08  0.10566000000E+00  0.10566000000E+00 0.  1.
     999900   -1    0    0    0    0 -0.00000000000E+00 -0.00000000000E+00 -0.74505805969E-08  0.93827000000E+00  0.93827000000E+00 0.  1.
     999902    2    1    2    0    0 -0.14645779372E-01 -0.13406149239E-01 -0.12896752893E-01  0.10202540644E+01  0.10199793165E+01 0.  0.
     999903    2    3    3    0    0  0.19716910906E-01 -0.60868017689E-01  0.11100077714E+00  0.12964527185E+00  0.19825534894E-01 0.  0.
         14    1    1    2    0    0  0.14645779372E-01  0.13406149239E-01  0.12896752893E-01  0.23675935590E-01  0.00000000000E+00 0.  1.
     999901    1    3    3    0    0 -0.34362690278E-01  0.47461868450E-01 -0.12389753003E+00  0.89060879256E+00  0.88000000000E+00 0.  1.
        -11    1    4    4    0    0  0.11960509836E-01 -0.54468372907E-01  0.10144694388E+00  0.11576528403E+00  0.51100000000E-03 0. -1.
         11    1    4    4    0    0  0.77564010696E-02 -0.63996447825E-02  0.95538332567E-02  0.13879987817E-01  0.51100000000E-03 0.  1.
</event>
<event>
 8    1  0.1128641E+005  0.1043930E+01  0.7957747E-01            NaN
         13   -1    0    0    0    0  0.00000000000E+00  0.00000000000E+00  0.74505805969E-08  0.10566000000E+00  0.10566000000E+00 0. -1.
     999900   -1    0    0    0    0 -0.00000000000E+00 -0.00000000000E+00 -0.74505805969E-08  0.93827000000E+00  0.93827000000E+00 0. -1.
     999902    2    1    2    0    0  0.12907327761E-01  0.20351058654E-03 -0.19402598034E-01  0.10206254653E+01  0.10203593676E+01 0.  0.
     999903    2    3    3    0    0  0.44771501724E-01  0.59454305719E-02 -0.12433410032E+00  0.13380027657E+00  0.20092535827E-01 0.  0.
         14    1    1    2    0    0 -0.12907327761E-01 -0.20351058654E-03  0.19402598034E-01  0.23304534686E-01  0.00000000000E+00 0. -1.
     999901    1    3    3    0    0 -0.31864173963E-01 -0.57419199854E-02  0.10493150228E+00  0.88682518875E+00  0.88000000000E+00 0.  1.
        -11    1    4    4    0    0  0.24394812643E-01  0.99171450374E-03 -0.92555289983E-01  0.95722689089E-01  0.51100000000E-03 0.  1.
         11    1    4    4    0    0  0.20376689080E-01  0.49537160682E-02 -0.31778810335E-01  0.38077587477E-01  0.51100000000E-03 0. -1.
</event>
<event>
 8    1  0.1128641E+005  0.1043930E+01  0.7957747E-01            NaN
         13   -1    0    0    0    0  0.00000000000E+00  0.00000000000E+00  0.74505805969E-08  0.10566000000E+00  0.10566000000E+00 0. -1.
     999900   -1    0    0    0    0 -0.00000000000E+00 -0.00000000000E+00 -0.74505805969E-08  0.93827000000E+00  0.93827000000E+00 0.  1.
     999902    2    1    2    0    0  0.41195727247E-02  0.83880966489E-03  0.22705864857E-01  0.10208382097E+01  0.10205770033E+01 0.  0.
     999903    2    3    3    0    0  0.28055572536E-01 -0.12434511125E+00 -0.21538392593E-01  0.13055651243E+00  0.18228514474E-01 0.  0.
         14    1    1    2    0    0 -0.41195727247E-02 -0.83880966489E-03 -0.22705864857E-01  0.23091790315E-01  0.00000000000E+00 0.  1.
     999901    1    3    3    0    0 -0.23935999812E-01  0.12518392092E+00  0.44244257450E-01  0.89028169725E+00  0.88000000000E+00 0. -1.
        -11    1    4    4    0    0  0.18551815043E-01 -0.47997125537E-01 -0.13481713344E-01  0.53196913603E-01  0.51100000000E-03 0. -1.
         11    1    4    4    0    0  0.95037574934E-02 -0.76347985717E-01 -0.80566792494E-02  0.77359598830E-01  0.51100000000E-03 0.  1.
</event>
<event>
 8    1  0.1128641E+005  0.1043930E+01  0.7957747E-01            NaN
         13   -1    0    0    0    0  0.00000000000E+00  0.00000000000E+00  0.74505805969E-08  0.10566000000E+00  0.10566000000E+00 0.  1.
     999900   -1    0    0    0    0 -0.00000000000E+00 -0.00000000000E+00 -0.74505805969E-08  0.93827000000E+00  0.93827000000E+00 0. -1.
     999902    2    1    2    0    0 -0.27642594881E-02  0.72196900501E-02  0.22772896002E-01  0.10198806789E+01  0.10195970916E+01 0.  0.
     999903    2    3    3    0    0 -0.38613448730E-01 -0.12079110629E+00  0.19958868107E-01  0.12989200079E+00  0.19801153232E-01 0.  0.
         14    1    1    2    0    0  0.27642594881E-02 -0.72196900501E-02 -0.22772896002E-01  0.24049321139E-01  0.00000000000E+00 0. -1.
     999901    1    3    3    0    0  0.35849189242E-01  0.12801079634E+00  0.28140278946E-02  0.88998867808E+00  0.88000000000E+00 0. -1.
        -11    1    4    4    0    0 -0.44857811774E-02 -0.33568170934E-01  0.11829018872E-01  0.35876609944E-01  0.51100000000E-03 0. -1.
         11    1    4    4    0    0 -0.34127667553E-01 -0.87222935360E-01  0.81298492356E-02  0.94015390841E-01  0.51100000000E-03 0.  1.
</event>
<event>
 8    1  0.1128641E+005  0.1043930E+01  0.7957747E-01            NaN
         13   -1    0    0    0    0  0.00000000000E+00  0.00000000000E+00  0.74505805969E-08  0.10566000000E+00  0.10566000000E+00 0. -1.
     999900   -1    0    0    0    0 -0.00000000000E+00 -0.00000000000E+00 -0.74505805969E-08  0.93827000000E+00  0.93827000000E+00 0.  1.
     999902    2    1    2    0    0  0.93152668517E-02  0.21839901687E-01  0.42165371290E-02  0.10198149697E+01  0.10195298121E+01 0.  0.
     999903    2    3    3    0    0 -0.88572842704E-01  0.83930818691E-01  0.44563516280E-01  0.13129640336E+00  0.19060633779E-01 0.  0.
         14    1    1    2    0    0 -0.93152668517E-02 -0.21839901687E-01 -0.42165371290E-02  0.24115030325E-01  0.00000000000E+00 0.  1.
     999901    1    3    3    0    0  0.97888109556E-01 -0.62090917004E-01 -0.40346979151E-01  0.88851856632E+00  0.88000000000E+00 0. -1.
        -11    1    4    4    0    0 -0.42187086452E-01  0.51994642830E-01  0.28142938258E-01  0.72632494389E-01  0.51100000000E-03 0.  1.
         11    1    4    4    0    0 -0.46385756252E-01  0.31936175861E-01  0.16420578022E-01  0.58663908967E-01  0.51100000000E-03 0. -1.
</event>
<event>
 8    1  0.1128641E+005  0.1043930E+01  0.7957747E-01            NaN
         13   -1    0    0    0    0  0.00000000000E+00  0.00000000000E+00  0.74505805969E-08  0.10566000000E+00  0.10566000000E+00 0. -1.
     999900   -1    0    0    0    0 -0.00000000000E+00 -0.00000000000E+00 -0.74505805969E-08  0.93827000000E+00  0.93827000000E+00 0. -1.
     999902    2    1    2    0    0  0.23043219416E-01  0.46418005138E-02  0.27434745873E-02  0.10202643514E+01  0.10199898449E+01 0.  0.
     999903    2    3    3    0    0  0.10425854573E+00 -0.77927278312E-01 -0.15736851587E-01  0.13248335107E+00  0.19018011221E-01 0.  0.
         14    1    1    2    0    0 -0.23043219416E-01 -0.46418005138E-02 -0.27434745873E-02  0.23665648647E-01  0.00000000000E+00 0. -1.
     999901    1    3    3    0    0 -0.81215326311E-01  0.82569078826E-01  0.18480326174E-01  0.88778100028E+00  0.88000000000E+00 0.  1.
        -11    1    4    4    0    0  0.91841142292E-01 -0.71617960841E-01 -0.84906035006E-02  0.11677448009E+00  0.51100000000E-03 0.  1.
         11    1    4    4    0    0  0.12417403436E-01 -0.63093174710E-02 -0.72462480863E-02  0.15708870977E-01  0.51100000000E-03 0. -1.
</event>
<event>
 8    1  0.1128641E+005  0.1043930E+01  0.7957747E-01            NaN
         13   -1    0    0    0    0  0.00000000000E+00  0.00000000000E+00  0.74505805969E-08  0.10566000000E+00  0.10566000000E+00 0.  1.
     999900   -1    0    0    0    0 -0.00000000000E+00 -0.00000000000E+00 -0.74505805969E-08  0.93827000000E+00  0.93827000000E+00 0. -1.
     999902    2    1    2    0    0  0.21283046159E-02  0.23195822438E-01  0.96142523177E-02  0.10187306011E+01  0.10184188862E+01 0.  0.
     999903    2    3    3    0    0  0.12216201344E+00 -0.21642426436E-01  0.30151982291E-01  0.12921367702E+00  0.19876622972E-01 0.  0.
         14    1    1    2    0    0 -0.21283046159E-02 -0.23195822438E-01 -0.96142523177E-02  0.25199398936E-01  0.00000000000E+00 0. -1.
     999901    1    3    3    0    0 -0.12003370883E+00  0.44838248874E-01 -0.20537729974E-01  0.88951692405E+00  0.88000000000E+00 0. -1.
        -11    1    4    4    0    0  0.61829741438E-01 -0.23592129605E-02  0.95695969691E-02  0.62612467762E-01  0.51100000000E-03 0. -1.
         11    1    4    4    0    0  0.60332272007E-01 -0.19283213475E-01  0.20582385322E-01  0.66601209253E-01  0.51100000000E-03 0.  1.
</event>
<event>
 8    1  0.1128641E+005  0.1043930E+01  0.7957747E-01            NaN
         13   -1    0    0    0    0  0.00000000000E+00  0.00000000000E+00  0.74505805969E-08  0.10566000000E+00  0.10566000000E+00 0. -1.
     999900   -1    0    0    0    0 -0.00000000000E+00 -0.00000000000E+00 -0.74505805969E-08  0.93827000000E+00  0.93827000000E+00 0.  1.
     999902    2    1    2    0    0 -0.14425169916E-01 -0.16999123457E-01  0.75733263897E-03  0.10216223942E+01  0.10213788166E+01 0.  0.
     999903    2    3    3    0    0  0.33777813010E-01  0.10737461311E+00  0.60879135591E-01  0.12954224917E+00  0.20116584640E-01 0.  0.
         14    1    1    2    0    0  0.14425169916E-01  0.16999123457E-01 -0.75733263897E-03  0.22307605836E-01  0.00000000000E+00 0. -1.
     999901    1    3    3    0    0 -0.48202982925E-01 -0.12437373656E+00 -0.60121802952E-01  0.89208014500E+00  0.88000000000E+00 0.  1.
        -11    1    4    4    0    0  0.32867512930E-01  0.10012381671E+00  0.61788805290E-01  0.12216042591E+00  0.51100000000E-03 0. -1.
         11    1    4    4    0    0  0.91030008006E-03  0.72507963962E-02 -0.90966969899E-03  0.73818232555E-02  0.51100000000E-03 0.  1.
</event>
<event>
 8    1  0.1128641E+005  0.1043930E+01  0.7957747E-01            NaN
         13   -1    0    0    0    0  0.00000000000E+00  0.00000000000E+00  0.74505805969E-08  0.10566000000E+00  0.10566000000E+00 0.  1.
     999900   -1    0    0    0    0 -0.00000000000E+00 -0.00000000000E+00 -0.74505805969E-08  0.93827000000E+00  0.93827000000E+00 0. -1.
     999902    2    1    2    0    0 -0.15547334541E-02  0.16556355937E-01 -0.16059765101E-01  0.10208119081E+01  0.10205500995E+01 0.  0.
     999903    2    3    3    0    0  0.62102387326E-01  0.10461643056E+00  0.46564318051E-01  0.13192013653E+00  0.20817844547E-01 0.  0.
         14    1    1    2    0    0  0.15547334541E-02 -0.16556355937E-01  0.16059765101E-01  0.23118091901E-01  0.00000000000E+00 0.  1.
     999901    1    3    3    0    0 -0.63657120780E-01 -0.88060074627E-01 -0.62624083152E-01  0.88889177157E+00  0.88000000000E+00 0. -1.
        -11    1    4    4    0    0  0.10482799053E-01  0.20902384485E-01  0.17974430541E-01  0.29498136000E-01  0.51100000000E-03 0. -1.
         11    1    4    4    0    0  0.51619588272E-01  0.83714046079E-01  0.28589887509E-01  0.10242200053E+00  0.51100000000E-03 0.  1.
</event>
<event>
 8    1  0.1128641E+005  0.1043930E+01  0.7957747E-01            NaN
         13   -1    0    0    0    0  0.00000000000E+00  0.00000000000E+00  0.74505805969E-08  0.10566000000E+00  0.10566000000E+00 0.  1.
     999900   -1    0    0    0    0 -0.00000000000E+00 -0.00000000000E+00 -0.74505805969E-08  0.93827000000E+00  0.93827000000E+00 0.  1.
     999902    2    1    2    0    0 -0.64195469524E-02 -0.14007998126E-01  0.19017750698E-01  0.10194532879E+01  0.10191594069E+01 0.  0.
     999903    2    3    3    0    0  0.12741386824E-01 -0.12922108616E+00 -0.44492255673E-02  0.13142631981E+00  0.19815395124E-01 0.  0.
         14    1    1    2    0    0  0.64195469524E-02  0.14007998126E-01 -0.19017750698E-01  0.24476712119E-01  0.00000000000E+00 0. -1.
     999901    1    3    3    0    0 -0.19160933777E-01  0.11521308804E+00  0.23466976265E-01  0.88802696807E+00  0.88000000000E+00 0.  1.
        -11    1    4    4    0    0  0.13838333313E-01 -0.55123844266E-01  0.31928399674E-02  0.56926206826E-01  0.51100000000E-03 0.  1.
         11    1    4    4    0    0 -0.10969464884E-02 -0.74097241899E-01 -0.76420655346E-02  0.74500112988E-01  0.51100000000E-03 0. -1.
</event>
<event>
 8    1  0.1128641E+005  0.1043930E+01  0.7957747E-01            NaN
         13   -1    0    0    0    0  0.00000000000E+00  0.00000000000E+00  0.74505805969E-08  0.10566000000E+00  0.10566000000E+00 0.  1.
     999900   -1    0    0    0    0 -0.00000000000E+00 -0.00000000000E+00 -0.74505805969E-08  0.93827000000E+00  0.93827000000E+00 0. -1.
     999902    2    1    2    0    0 -0.30681045642E-02 -0.21937768812E-01 -0.83999428550E-02  0.10202395377E+01  0.10199644485E+01 0.  0.
     999903    2    3    3    0    0 -0.13788963531E-01  0.85955205405E-01 -0.93705264108E-01  0.12949107230E+00  0.20219506226E-01 0.  0.
         14    1    1    2    0    0  0.30681045642E-02  0.21937768812E-01  0.83999428550E-02  0.23690462343E-01  0.00000000000E+00 0.  1.
     999901    1    3    3    0    0  0.10720858967E-01 -0.10789297422E+00  0.85305321253E-01  0.89074846536E+00  0.88000000000E+00 0. -1.
        -11    1    4    4    0    0  0.43564629454E-02  0.74112323838E-02 -0.69819539114E-02  0.11086655775E-01  0.51100000000E-03 0. -1.
         11    1    4    4    0    0 -0.18145426477E-01  0.78543973022E-01 -0.86723310197E-01  0.11840441652E+00  0.51100000000E-03 0.  1.
</event>
<event>
 8    1  0.1128641E+005  0.1043930E+01  0.7957747E-01            NaN
         13   -1    0    0    0    0  0.00000000000E+00  0.00000000000E+00  0.74505805969E-08  0.10566000000E+00  0.10566000000E+00 0. -1.
     999900   -1    0    0    0    0 -0.00000000000E+00 -0.00000000000E+00 -0.74505805969E-08  0.93827000000E+00  0.93827000000E+00 0. -1.
     999902    2    1    2    0    0  0.59620085470E-02 -0.91913294714E-02  0.17446977572E-01  0.10233284683E+01  0.10231210734E+01 0.  0.
     999903    2    3    3    0    0 -0.10545190694E+00 -0.66025103244E-02 -0.75708153480E-01  0.13142172371E+00  0.19397090965E-01 0.  0.
         14    1    1    2    0    0 -0.59620085470E-02  0.91913294714E-02 -0.17446977572E-01  0.20601531734E-01  0.00000000000E+00 0.  1.
     999901    1    3    3    0    0  0.11141391549E+00 -0.25888191470E-02  0.93155131052E-01  0.89190674456E+00  0.88000000000E+00 0.  1.
        -11    1    4    4    0    0 -0.63816638149E-02 -0.53134001313E-02 -0.51302075034E-02  0.97743544048E-02  0.51100000000E-03 0. -1.
         11    1    4    4    0    0 -0.99070243129E-01 -0.12891101931E-02 -0.70577945977E-01  0.12164736930E+00  0.51100000000E-03 0.  1.
</event>
<event>
 8    1  0.1128641E+005  0.1043930E+01  0.7957747E-01            NaN
         13   -1    0    0    0    0  0.00000000000E+00  0.00000000000E+00  0.74505805969E-08  0.10566000000E+00  0.10566000000E+00 0.  1.
     999900   -1    0    0    0    0 -0.00000000000E+00 -0.00000000000E+00 -0.74505805969E-08  0.93827000000E+00  0.93827000000E+00 0. -1.
     999902    2    1    2    0    0 -0.13326485391E-01  0.52458519507E-02  0.18375071268E-01  0.10206328452E+01  0.10203669180E+01 0.  0.
     999903    2    3    3    0    0 -0.16483131661E-01  0.12370453336E+00  0.28305139722E-01  0.13263451761E+00  0.34874476716E-01 0.  0.
         14    1    1    2    0    0  0.13326485391E-01 -0.52458519507E-02 -0.18375071268E-01  0.23297154754E-01  0.00000000000E+00 0. -1.
     999901    1    3    3    0    0  0.31566462705E-02 -0.11845868140E+00 -0.99300684542E-02  0.88799832763E+00  0.88000000000E+00 0. -1.
        -11    1    4    4    0    0 -0.23597458657E-01  0.86986791858E-01  0.30534969602E-01  0.95164003186E-01  0.51100000000E-03 0.  1.
         11    1    4    4    0    0  0.71143269961E-02  0.36717741498E-01 -0.22298298796E-02  0.37470514429E-01  0.51100000000E-03 0. -1.
</event>
<event>
 8    1  0.1128641E+005  0.1043930E+01  0.7957747E-01            NaN
         13   -1    0    0    0    0  0.00000000000E+00  0.00000000000E+00  0.74505805969E-08  0.10566000000E+00  0.10566000000E+00 0.  1.
     999900   -1    0    0    0    0 -0.00000000000E+00 -0.00000000000E+00 -0.74505805969E-08  0.93827000000E+00  0.93827000000E+00 0.  1.
     999902    2    1    2    0    0 -0.22540409328E-01 -0.31864486291E-02  0.73944334571E-02  0.10199946464E+01  0.10197137723E+01 0.  0.
     999903    2    3    3    0    0 -0.80886496035E-01 -0.24295502735E-01  0.10079359754E+00  0.13287951187E+00  0.19097609155E-01 0.  0.
         14    1    1    2    0    0  0.22540409328E-01  0.31864486291E-02 -0.73944334571E-02  0.23935353637E-01  0.00000000000E+00 0. -1.
     999901    1    3    3    0    0  0.58346086706E-01  0.21109054106E-01 -0.93399164083E-01  0.88711513450E+00  0.88000000000E+00 0.  1.
        -11    1    4    4    0    0 -0.40023925650E-01 -0.95757094286E-02  0.63279624424E-01  0.75486295602E-01  0.51100000000E-03 0. -1.
         11    1    4    4    0    0 -0.40862570385E-01 -0.14719793306E-01  0.37513973116E-01  0.57393216266E-01  0.51100000000E-03 0.  1.
</event>
<event>
 8    1  0.1128641E+005  0.1043930E+01  0.7957747E-01            NaN
         13   -1    0    0    0    0  0.00000000000E+00  0.00000000000E+00  0.74505805969E-08  0.10566000000E+00  0.10566000000E+00 0.  1.
     999900   -1    0    0    0    0 -0.00000000000E+00 -0.00000000000E+00 -0.74505805969E-08  0.93827000000E+00  0.93827000000E+00 0. -1.
     999902    2    1    2    0    0 -0.52991410579E-02 -0.19941494839E-01  0.74419508708E-02  0.10219953985E+01  0.10217599854E+01 0.  0.
     999903    2    3    3    0    0 -0.62758469011E-01 -0.87107254511E-01 -0.76780426942E-01  0.13356632274E+00  0.20455546637E-01 0.  0.
         14    1    1    2    0    0  0.52991410579E-02  0.19941494839E-01 -0.74419508708E-02  0.21934601549E-01  0.00000000000E+00 0. -1.
     999901    1    3    3    0    0  0.57459327953E-01  0.67165759672E-01  0.84222377813E-01  0.88842907571E+00  0.88000000000E+00 0.  1.
        -11    1    4    4    0    0 -0.29257330244E-01 -0.45314182697E-01 -0.26497407124E-01  0.60097755631E-01  0.51100000000E-03 0.  1.
         11    1    4    4    0    0 -0.33501138767E-01 -0.41793071813E-01 -0.50283019818E-01  0.73468567111E-01  0.51100000000E-03 0. -1.
</event>
<event>
 8    1  0.1128641E+005  0.1043930E+01  0.7957747E-01            NaN
         13   -1    0    0    0    0  0.00000000000E+00  0.00000000000E+00  0.74505805969E-08  0.10566000000E+00  0.10566000000E+00 0.  1.
     999900   -1    0    0    0    0 -0.00000000000E+00 -0.00000000000E+00 -0.74505805969E-08  0.93827000000E+00  0.93827000000E+00 0.  1.
     999902    2    1    2    0    0  0.15169945622E-01  0.15011728265E-01  0.16963890417E-01  0.10166673366E+01  0.10163017370E+01 0.  0.
     999903    2    3    3    0    0  0.84195630222E-01 -0.92807677648E-01  0.10502400110E-01  0.12738036367E+00  0.20329472747E-01 0.  0.
         14    1    1    2    0    0 -0.15169945622E-01 -0.15011728265E-01 -0.16963890417E-01  0.27262663365E-01  0.00000000000E+00 0. -1.
     999901    1    3    3    0    0 -0.69025684600E-01  0.10781940591E+00  0.64614903071E-02  0.88928697296E+00  0.88000000000E+00 0.  1.
        -11    1    4    4    0    0  0.60250165075E-01 -0.52884670018E-01  0.10261070728E-01  0.80823396414E-01  0.51100000000E-03 0.  1.
         11    1    4    4    0    0  0.23945465147E-01 -0.39923007630E-01  0.24132938181E-03  0.46556967257E-01  0.51100000000E-03 0. -1.
</event>
<event>
 8    1  0.1128641E+005  0.1043930E+01  0.7957747E-01            NaN
         13   -1    0    0    0    0  0.00000000000E+00  0.00000000000E+00  0.74505805969E-08  0.10566000000E+00  0.10566000000E+00 0.  1.
     999900   -1    0    0    0    0 -0.00000000000E+00 -0.00000000000E+00 -0.74505805969E-08  0.93827000000E+00  0.93827000000E+00 0.  1.
     999902    2    1    2    0    0  0.17734242047E-01  0.90597797404E-02  0.13593796254E-01  0.10198182965E+01  0.10195332185E+01 0.  0.
     999903    2    3    3    0    0 -0.27809205064E-01  0.33194599823E-01  0.12273299993E+00  0.13157955555E+00  0.19353470606E-01 0.  0.
         14    1    1    2    0    0 -0.17734242047E-01 -0.90597797404E-02 -0.13593796254E-01  0.24111703517E-01  0.00000000000E+00 0. -1.
     999901    1    3    3    0    0  0.45543447111E-01 -0.24134820083E-01 -0.10913920367E+00  0.88823874093E+00  0.88000000000E+00 0.  1.
        -11    1    4    4    0    0 -0.15081566274E-01  0.30370627435E-01  0.79781185182E-01  0.86689833788E-01  0.51100000000E-03 0.  1.
         11    1    4    4    0    0 -0.12727638790E-01  0.28239723886E-02  0.42951814743E-01  0.44889721763E-01  0.51100000000E-03 0. -1.
</event>
<event>
 8    1  0.1128641E+005  0.1043930E+01  0.7957747E-01            NaN
         13   -1    0    0    0    0  0.00000000000E+00  0.00000000000E+00  0.74505805969E-08  0.10566000000E+00  0.10566000000E+00 0. -1.
     999900   -1    0    0    0    0 -0.00000000000E+00 -0.00000000000E+00 -0.74505805969E-08  0.93827000000E+00  0.93827000000E+00 0. -1.
     999902    2    1    2    0    0 -0.22545278235E-01 -0.46876729798E-02 -0.58321481873E-03  0.10208951571E+01  0.10206352521E+01 0.  0.
     999903    2    3    3    0    0  0.88814650012E-01 -0.89851977146E-01 -0.19884762560E-01  0.12958906933E+00  0.20892660280E-01 0.  0.
         14    1    1    2    0    0  0.22545278235E-01  0.46876729798E-02  0.58321481873E-03  0.23034842917E-01  0.00000000000E+00 0.  1.
     999901    1    3    3    0    0 -0.11135992825E+00  0.85164304166E-01  0.19301547741E-01  0.89130608775E+00  0.88000000000E+00 0.  1.
        -11    1    4    4    0    0  0.86096557654E-02 -0.19522139854E-01 -0.21470160655E-02  0.21450196173E-01  0.51100000000E-03 0. -1.
         11    1    4    4    0    0  0.80204994247E-01 -0.70329837292E-01 -0.17737746495E-01  0.10813887316E+00  0.51100000000E-03 0.  1.
</event>
<event>
 8    1  0.1128641E+005  0.1043930E+01  0.7957747E-01            NaN
         13   -1    0    0    0    0  0.00000000000E+00  0.00000000000E+00  0.74505805969E-08  0.10566000000E+00  0.10566000000E+00 0. -1.
     999900   -1    0    0    0    0 -0.00000000000E+00 -0.00000000000E+00 -0.74505805969E-08  0.93827000000E+00  0.93827000000E+00 0.  1.
     999902    2    1    2    0    0  0.18510570343E-02 -0.22537322209E-01 -0.56540371057E-02  0.10206206577E+01  0.10203544489E+01 0.  0.
     999903    2    3    3    0    0 -0.16544385444E-01 -0.12814589852E+00  0.28918461750E-01  0.13344152053E+00  0.16591382479E-01 0.  0.
         14    1    1    2    0    0 -0.18510570343E-02  0.22537322209E-01  0.56540371057E-02  0.23309342335E-01  0.00000000000E+00 0.  1.
     999901    1    3    3    0    0  0.18395442479E-01  0.10560857631E+00 -0.34572498855E-01  0.88717913714E+00  0.88000000000E+00 0.  1.
        -11    1    4    4    0    0 -0.69238080484E-04 -0.61817189937E-01  0.11061680028E-01  0.62801207406E-01  0.51100000000E-03 0. -1.
         11    1    4    4    0    0 -0.16475147364E-01 -0.66328708587E-01  0.17856781722E-01  0.70640313121E-01  0.51100000000E-03 0.  1.
</event>
<event>
 8    1  0.1128641E+005  0.1043930E+01  0.7957747E-01            NaN
         13   -1    0    0    0    0  0.00000000000E+00  0.00000000000E+00  0.74505805969E-08  0.10566000000E+00  0.10566000000E+00 0. -1.
     999900   -1    0    0    0    0 -0.00000000000E+00 -0.00000000000E+00 -0.74505805969E-08  0.93827000000E+00  0.93827000000E+00 0. -1.
     999902    2    1    2    0    0  0.16299743616E-01 -0.86187686357E-02  0.14807527087E-01  0.10202820049E+01  0.10200079126E+01 0.  0.
     999903    2    3    3    0    0 -0.79631549734E-01  0.98671323666E-01 -0.32479961078E-02  0.12840758610E+00  0.20018612924E-01 0.  0.
         14    1    1    2    0    0 -0.16299743616E-01  0.86187686357E-02 -0.14807527087E-01  0.23647995119E-01  0.00000000000E+00 0.  1.
     999901    1    3    3    0    0  0.95931293350E-01 -0.10729009230E+00  0.18055523195E-01  0.89187441878E+00  0.88000000000E+00 0.  1.
        -11    1    4    4    0    0 -0.11114002190E-01  0.27034055404E-01 -0.41799401268E-03  0.29236912221E-01  0.51100000000E-03 0. -1.
         11    1    4    4    0    0 -0.68517547544E-01  0.71637268262E-01 -0.28300020951E-02  0.99170673883E-01  0.51100000000E-03 0.  1.
</event>
<event>
 8    1  0.1128641E+005  0.1043930E+01  0.7957747E-01            NaN
         13   -1    0    0    0    0  0.00000000000E+00  0.00000000000E+00  0.74505805969E-08  0.10566000000E+00  0.10566000000E+00 0. -1.
     999900   -1    0    0    0    0 -0.00000000000E+00 -0.00000000000E+00 -0.74505805969E-08  0.93827000000E+00  0.93827000000E+00 0.  1.
     999902    2    1    2    0    0 -0.81462578020E-02 -0.53747679752E-02 -0.20660814583E-01  0.10210800786E+01  0.10208243767E+01 0.  0.
     999903    2    3    3    0    0  0.11718190753E+00 -0.42244556231E-01 -0.37879390039E-01  0.13126941920E+00  0.16751425119E-01 0.  0.
         14    1    1    2    0    0  0.81462578020E-02  0.53747679752E-02  0.20660814583E-01  0.22849921361E-01  0.00000000000E+00 0. -1.
     999901    1    3    3    0    0 -0.12532816533E+00  0.36869788255E-01  0.17218575456E-01  0.88981065944E+00  0.88000000000E+00 0. -1.
        -11    1    4    4    0    0  0.59733722026E-01 -0.30350089687E-01 -0.21128144168E-01  0.70255996812E-01  0.51100000000E-03 0.  1.
         11    1    4    4    0    0  0.57448185505E-01 -0.11894466543E-01 -0.16751245871E-01  0.61013422387E-01  0.51100000000E-03 0. -1.
</event>
<event>
 8    1  0.1128641E+005  0.1043930E+01  0.7957747E-01            NaN
         13   -1    0    0    0    0  0.00000000000E+00  0.00000000000E+00  0.74505805969E-08  0.10566000000E+00  0.10566000000E+00 0. -1.
     999900   -1    0    0    0    0 -0.00000000000E+00 -0.00000000000E+00 -0.74505805969E-08  0.93827000000E+00  0.93827000000E+00 0.  1.
     999902    2    1    2    0    0 -0.38074993639E-02  0.49659676338E-02 -0.22518138896E-01  0.10205585545E+01  0.10202909088E+01 0.  0.
     999903    2    3    3    0    0  0.12799610052E+00 -0.12668659427E-01 -0.84231048528E-03  0.13030409056E+00  0.20855451268E-01 0.  0.
         14    1    1    2    0    0  0.38074993639E-02 -0.49659676338E-02  0.22518138896E-01  0.23371445512E-01  0.00000000000E+00 0. -1.
     999901    1    3    3    0    0 -0.13180359989E+00  0.17634627061E-01 -0.21675828411E-01  0.89025446393E+00  0.88000000000E+00 0.  1.
        -11    1    4    4    0    0  0.55874616490E-01  0.15241568242E-02  0.71975192480E-02  0.56359215983E-01  0.51100000000E-03 0. -1.
         11    1    4    4    0    0  0.72121484034E-01 -0.14192816251E-01 -0.80398297333E-02  0.73944874572E-01  0.51100000000E-03 0.  1.
</event>
<event>
 8    1  0.1128641E+005  0.1043930E+01  0.7957747E-01            NaN
         13   -1    0    0    0    0  0.00000000000E+00  0.00000000000E+00  0.74505805969E-08  0.10566000000E+00  0.10566000000E+00 0.  1.
     999900   -1    0    0    0    0 -0.00000000000E+00 -0.00000000000E+00 -0.74505805969E-08  0.93827000000E+00  0.93827000000E+00 0. -1.
     999902    2    1    2    0    0 -0.17295845548E-01  0.14534728636E-01 -0.81456391517E-02  0.10199142542E+01  0.10196314677E+01 0.  0.
     999903    2    3    3    0    0 -0.13008069678E+00 -0.12941739211E-01 -0.39717195971E-02  0.13228099627E+00  0.19849713576E-01 0.  0.
         14    1    1    2    0    0  0.17295845548E-01 -0.14534728636E-01  0.81456391517E-02  0.24015745812E-01  0.00000000000E+00 0.  1.
     999901    1    3    3    0    0  0.11278485123E+00  0.27476467847E-01 -0.41739195546E-02  0.88763325792E+00  0.88000000000E+00 0.  1.
        -11    1    4    4    0    0 -0.77243190831E-01 -0.14668279436E-01  0.44273573109E-02  0.78749803588E-01  0.51100000000E-03 0. -1.
         11    1    4    4    0    0 -0.52837505952E-01  0.17265402253E-02 -0.83990769080E-02  0.53531192685E-01  0.51100000000E-03 0.  1.
</event>
<event>
 8    1  0.1128641E+005  0.1043930E+01  0.7957747E-01            NaN
         13   -1    0    0    0    0  0.00000000000E+00  0.00000000000E+00  0.74505805969E-08  0.10566000000E+00  0.10566000000E+00 0. -1.
     999900   -1    0    0    0    0 -0.00000000000E+00 -0.00000000000E+00 -0.74505805969E-08  0.93827000000E+00  0.93827000000E+00 0.  1.
     999902    2    1    2    0    0  0.16659171312E-01  0.16573124366E-01 -0.32083897556E-02  0.10202131240E+01  0.10199374139E+01 0.  0.
     999903    2    3    3    0    0  0.39029911214E-01 -0.11919597705E+00 -0.24017290974E-01  0.12927726257E+00  0.20118783203E-01 0.  0.
         14    1    1    2    0    0 -0.16659171312E-01 -0.16573124366E-01  0.32083897556E-02  0.23716875951E-01  0.00000000000E+00 0. -1.
     999901    1    3    3    0    0 -0.22370739903E-01  0.13576910141E+00  0.20808901218E-01  0.89093586148E+00  0.88000000000E+00 0. -1.
        -11    1    4    4    0    0  0.14317674879E-01 -0.74211210270E-01 -0.11576727694E-01  0.76462940623E-01  0.51100000000E-03 0.  1.
         11    1    4    4    0    0  0.24712236335E-01 -0.44984766778E-01 -0.12440563280E-01  0.52814321945E-01  0.51100000000E-03 0. -1.
</event>
<event>
 8    1  0.1128641E+005  0.1043930E+01  0.7957747E-01            NaN
         13   -1    0    0    0    0  0.00000000000E+00  0.00000000000E+00  0.74505805969E-08  0.10566000000E+00  0.10566000000E+00 0. -1.
     999900   -1    0    0    0    0 -0.00000000000E+00 -0.00000000000E+00 -0.74505805969E-08  0.93827000000E+00  0.93827000000E+00 0.  1.
     999902    2    1    2    0    0 -0.23680016769E-01  0.72571430777E-02  0.48628210693E-02  0.10186900248E+01  0.10183772927E+01 0.  0.
     999903    2    3    3    0    0 -0.52985089142E-01  0.94980255198E-01  0.70908606777E-01  0.13138163563E+00  0.20110572262E-01 0.  0.
         14    1    1    2    0    0  0.23680016769E-01 -0.72571430777E-02 -0.48628210693E-02  0.25239975209E-01  0.00000000000E+00 0.  1.
     999901    1    3    3    0    0  0.29305072374E-01 -0.87723112120E-01 -0.66045785708E-01  0.88730838916E+00  0.88000000000E+00 0.  1.
        -11    1    4    4    0    0 -0.29112761248E-01  0.37854663476E-01  0.39387994243E-01  0.61904794854E-01  0.51100000000E-03 0. -1.
         11    1    4    4    0    0 -0.23872327894E-01  0.57125591722E-01  0.31520612534E-01  0.69476840775E-01  0.51100000000E-03 0.  1.
</event>
<event>
 8    1  0.1128641E+005  0.1043930E+01  0.7957747E-01            NaN
         13   -1    0    0    0    0  0.00000000000E+00  0.00000000000E+00  0.74505805969E-08  0.10566000000E+00  0.10566000000E+00 0. -1.
     999900   -1    0    0    0    0 -0.00000000000E+00 -0.00000000000E+00 -0.74505805969E-08  0.93827000000E+00  0.93827000000E+00 0. -1.
     999902    2    1    2    0    0 -0.15272257175E-02  0.18823167525E-01  0.14378899146E-01  0.10201940190E+01  0.10199178592E+01 0.  0.
     999903    2    3    3    0    0 -0.21115725491E-01  0.10520163022E+00  0.76893950225E-01  0.13354127989E+00  0.20182591246E-01 0.  0.
         14    1    1    2    0    0  0.15272257175E-02 -0.18823167525E-01 -0.14378899146E-01  0.23735981015E-01  0.00000000000E+00 0.  1.
     999901    1    3    3    0    0  0.19588499773E-01 -0.86378462690E-01 -0.62515051079E-01  0.88665273910E+00  0.88000000000E+00 0. -1.
        -11    1    4    4    0    0 -0.12079627977E-01  0.47328571429E-01  0.46957955037E-01  0.67758554795E-01  0.51100000000E-03 0. -1.
         11    1    4    4    0    0 -0.90360975135E-02  0.57873058787E-01  0.29935995188E-01  0.65782725092E-01  0.51100000000E-03 0.  1.
</event>
<event>
 8    1  0.1128641E+005  0.1043930E+01  0.7957747E-01            NaN
         13   -1    0    0    0    0  0.00000000000E+00  0.00000000000E+00  0.74505805969E-08  0.10566000000E+00  0.10566000000E+00 0.  1.
     999900   -1    0    0    0    0 -0.00000000000E+00 -0.00000000000E+00 -0.74505805969E-08  0.93827000000E+00  0.93827000000E+00 0.  1.
     999902    2    1    2    0    0  0.40077440794E-02  0.22085890007E-01  0.35770248517E-02  0.10212002033E+01  0.10209472129E+01 0.  0.
     999903    2    3    3    0    0 -0.30349528871E-01  0.23099798568E-01 -0.12400297824E+00  0.13133610842E+00  0.20438692865E-01 0.  0.
         14    1    1    2    0    0 -0.40077440794E-02 -0.22085890007E-01 -0.35770248517E-02  0.22729796673E-01  0.00000000000E+00 0.  1.
     999901    1    3    3    0    0  0.34357272951E-01 -0.10139085604E-02  0.12758000309E+00  0.88986409491E+00  0.88000000000E+00 0. -1.
        -11    1    4    4    0    0 -0.13730646080E-01  0.22416084958E-01 -0.83716620178E-01  0.87748191558E-01  0.51100000000E-03 0.  1.
         11    1    4    4    0    0 -0.16618882791E-01  0.68371360976E-03 -0.40286358062E-01  0.43587916862E-01  0.51100000000E-03 0. -1.
</event>
<event>
 8    1  0.1128641E+005  0.1043930E+01  0.7957747E-01            NaN
         13   -1    0    0    0    0  0.00000000000E+00  0.00000000000E+00  0.74505805969E-08  0.10566000000E+00  0.10566000000E+00 0. -1.
     999900   -1    0    0    0    0 -0.00000000000E+00 -0.00000000000E+00 -0.74505805969E-08  0.93827000000E+00  0.93827000000E+00 0. -1.
     999902    2    1    2    0    0 -0.14401780303E-01  0.15129848079E-01  0.10800127054E-01  0.10204147640E+01  0.10201437763E+01 0.  0.
     999903    2    3    3    0    0  0.93199862830E-01  0.42417677495E-01  0.77249139395E-01  0.13095525933E+00  0.26388948707E-01 0.  0.
         14    1    1    2    0    0  0.14401780303E-01 -0.15129848079E-01 -0.10800127054E-01  0.23515235979E-01  0.00000000000E+00 0.  1.
     999901    1    3    3    0    0 -0.10760164313E+00 -0.27287829416E-01 -0.66449012342E-01  0.88945950469E+00  0.88000000000E+00 0. -1.
        -11    1    4    4    0    0  0.14448847836E-01 -0.30444905561E-02  0.12008451937E-01  0.19039489632E-01  0.51100000000E-03 0. -1.
         11    1    4    4    0    0  0.78751014994E-01  0.45462168051E-01  0.65240687459E-01  0.11191576970E+00  0.51100000000E-03 0.  1.
</event>
<event>
 8    1  0.1128641E+005  0.1043930E+01  0.7957747E-01            NaN
         13   -1    0    0    0    0  0.00000000000E+00  0.00000000000E+00  0.74505805969E-08  0.10566000000E+00  0.10566000000E+00 0. -1.
     999900   -1    0    0    0    0 -0.00000000000E+00 -0.00000000000E+00 -0.74505805969E-08  0.93827000000E+00  0.93827000000E+00 0.  1.
     999902    2    1    2    0    0  0.13458827026E-01 -0.58885569434E-02  0.19250749064E-01  0.10197141691E+01  0.10194265938E+01 0.  0.
     999903    2    3    3    0    0 -0.50834710010E-01  0.11426335239E+00 -0.21422586056E-01  0.12829706109E+00  0.18998085446E-01 0.  0.
         14    1    1    2    0    0 -0.13458827026E-01  0.58885569434E-02 -0.19250749064E-01  0.24215830923E-01  0.00000000000E+00 0.  1.
     999901    1    3    3    0    0  0.64293537036E-01 -0.12015190933E+00  0.40673335120E-01  0.89141710799E+00  0.88000000000E+00 0. -1.
        -11    1    4    4    0    0 -0.13526635858E-01  0.52981004437E-01 -0.11314909499E-01  0.55841248256E-01  0.51100000000E-03 0. -1.
         11    1    4    4    0    0 -0.37308074151E-01  0.61282347950E-01 -0.10107676558E-01  0.72455812834E-01  0.51100000000E-03 0.  1.
</event>
<event>
 7    1  0.1128641E+005  0.1043930E+01  0.7957747E-01            NaN
         13   -1    0    0    0    0  0.00000000000E+00  0.00000000000E+00  0.74505805969E-08  0.10566000000E+00  0.10566000000E+00 0.  1.
     999900   -1    0    0    0    0 -0.00000000000E+00 -0.00000000000E+00 -0.74505805969E-08  0.93827000000E+00  0.93827000000E+00 0. -1.
     999902    2    1    2    0    0  0.18946315619E-01 -0.37813503212E-02 -0.13607328474E-01  0.10202990695E+01  0.10200253774E+01 0.  0.
         14    1    1    2    0    0 -0.18946315619E-01  0.37813503212E-02  0.13607328474E-01  0.23630930451E-01  0.00000000000E+00 0.  1.
     999901    1    3    3    0    0  0.10940968134E-01  0.11851906946E+00 -0.12241969873E-02  0.88801349836E+00  0.88000000000E+00 0.  1.
        -11    1    3    3    0    0 -0.10087964670E-01 -0.87489103385E-01 -0.24153300820E-01  0.91322249774E-01  0.51100000000E-03 0. -1.
         11    1    3    3    0    0  0.18093312155E-01 -0.34811316400E-01  0.11770169333E-01  0.40963321416E-01  0.51100000000E-03 0.  1.
</event>
<event>
 8    1  0.1128641E+005  0.1043930E+01  0.7957747E-01            NaN
         13   -1    0    0    0    0  0.00000000000E+00  0.00000000000E+00  0.74505805969E-08  0.10566000000E+00  0.10566000000E+00 0. -1.
     999900   -1    0    0    0    0 -0.00000000000E+00 -0.00000000000E+00 -0.74505805969E-08  0.93827000000E+00  0.93827000000E+00 0.  1.
     999902    2    1    2    0    0 -0.11077657167E-01 -0.18613871844E-01 -0.74949929554E-02  0.10210091442E+01  0.10207518341E+01 0.  0.
     999903    2    3    3    0    0 -0.11044853629E+00 -0.56367777192E-01 -0.45901042345E-01  0.13378033848E+00  0.20348656002E-01 0.  0.
         14    1    1    2    0    0  0.11077657167E-01  0.18613871844E-01  0.74949929554E-02  0.22920855846E-01  0.00000000000E+00 0. -1.
     999901    1    3    3    0    0  0.99370879125E-01  0.37753905348E-01  0.38406049389E-01  0.88722880567E+00  0.88000000000E+00 0.  1.
        -11    1    4    4    0    0 -0.83680840642E-01 -0.40456712537E-01 -0.24929749833E-01  0.96233997254E-01  0.51100000000E-03 0. -1.
         11    1    4    4    0    0 -0.26767695650E-01 -0.15911064655E-01 -0.20971292512E-01  0.37546341226E-01  0.51100000000E-03 0.  1.
</event>
<event>
 8    1  0.1128641E+005  0.1043930E+01  0.7957747E-01            NaN
         13   -1    0    0    0    0  0.00000000000E+00  0.00000000000E+00  0.74505805969E-08  0.10566000000E+00  0.10566000000E+00 0. -1.
     999900   -1    0    0    0    0 -0.00000000000E+00 -0.00000000000E+00 -0.74505805969E-08  0.93827000000E+00  0.93827000000E+00 0. -1.
     999902    2    1    2    0    0  0.14879612517E-01 -0.30546794971E-02  0.17122796334E-01  0.10210406119E+01  0.10207840158E+01 0.  0.
     999903    2    3    3    0    0 -0.75559058745E-01 -0.94068081311E-01 -0.43103175400E-01  0.12969906102E+00  0.20149129506E-01 0.  0.
         14    1    1    2    0    0 -0.14879612517E-01  0.30546794971E-02 -0.17122796334E-01  0.22889388148E-01  0.00000000000E+00 0.  1.
     999901    1    3    3    0    0  0.90438671263E-01  0.91013401813E-01  0.60225971734E-01  0.89134155083E+00  0.88000000000E+00 0.  1.
        -11    1    4    4    0    0 -0.33408643754E-01 -0.57413460692E-01 -0.25019429093E-01  0.70983631207E-01  0.51100000000E-03 0. -1.
         11    1    4    4    0    0 -0.42150414991E-01 -0.36654620618E-01 -0.18083746307E-01  0.58715429813E-01  0.51100000000E-03 0.  1.
</event>
<event>
 8    1  0.1128641E+005  0.1043930E+01  0.7957747E-01            NaN
         13   -1    0    0    0    0  0.00000000000E+00  0.00000000000E+00  0.74505805969E-08  0.10566000000E+00  0.10566000000E+00 0.  1.
     999900   -1    0    0    0    0 -0.00000000000E+00 -0.00000000000E+00 -0.74505805969E-08  0.93827000000E+00  0.93827000000E+00 0.  1.
     999902    2    1    2    0    0  0.19306800210E-01 -0.13303261208E-01 -0.67086177717E-02  0.10195428139E+01  0.10192511048E+01 0.  0.
     999903    2    3    3    0    0 -0.10148272641E+00 -0.48358137090E-01  0.57733905704E-01  0.12826743957E+00  0.21956297600E-01 0.  0.
         14    1    1    2    0    0 -0.19306800210E-01  0.13303261208E-01  0.67086177717E-02  0.24387186093E-01  0.00000000000E+00 0. -1.
     999901    1    3    3    0    0  0.12078952662E+00  0.35054875882E-01 -0.64442523476E-01  0.89127537434E+00  0.88000000000E+00 0.  1.
        -11    1    4    4    0    0 -0.53288201660E-01 -0.27474031701E-01  0.18632907276E-01  0.62784561866E-01  0.51100000000E-03 0. -1.
         11    1    4    4    0    0 -0.48194524749E-01 -0.20884105389E-01  0.39100998428E-01  0.65482877707E-01  0.51100000000E-03 0.  1.
</event>
<event>
 8    1  0.1128641E+005  0.1043930E+01  0.7957747E-01            NaN
         13   -1    0    0    0    0  0.00000000000E+00  0.00000000000E+00  0.74505805969E-08  0.10566000000E+00  0.10566000000E+00 0.  1.
     999900   -1    0    0    0    0 -0.00000000000E+00 -0.00000000000E+00 -0.74505805969E-08  0.93827000000E+00  0.93827000000E+00 0. -1.
     999902    2    1    2    0    0 -0.13627940343E-01 -0.15597666216E-01  0.13138392453E-01  0.10194019486E+01  0.10191068185E+01 0.  0.
     999903    2    3    3    0    0 -0.11897994518E+00  0.99848266007E-02 -0.48863641650E-01  0.13058376635E+00  0.20212383362E-01 0.  0.
         14    1    1    2    0    0  0.13627940343E-01  0.15597666216E-01 -0.13138392453E-01  0.24528051403E-01  0.00000000000E+00 0. -1.
     999901    1    3    3    0    0  0.10535200484E+00 -0.25582492817E-01  0.62002034102E-01  0.88881818225E+00  0.88000000000E+00 0.  1.
        -11    1    4    4    0    0 -0.95553915251E-01  0.11980138089E-01 -0.31403454337E-01  0.10129418786E+00  0.51100000000E-03 0.  1.
         11    1    4    4    0    0 -0.23426029930E-01 -0.19953114886E-02 -0.17460187313E-01  0.29289578492E-01  0.51100000000E-03 0. -1.
</event>
<event>
 8    1  0.1128641E+005  0.1043930E+01  0.7957747E-01            NaN
         13   -1    0    0    0    0  0.00000000000E+00  0.00000000000E+00  0.74505805969E-08  0.10566000000E+00  0.10566000000E+00 0. -1.
     999900   -1    0    0    0    0 -0.00000000000E+00 -0.00000000000E+00 -0.74505805969E-08  0.93827000000E+00  0.93827000000E+00 0. -1.
     999902    2    1    2    0    0 -0.44652598388E-02 -0.19432485528E-01 -0.11831513015E-01  0.10207449889E+01  0.10204816449E+01 0.  0.
     999903    2    3    3    0    0 -0.34638377597E-01  0.10418929341E+00 -0.66945503936E-01  0.12988567720E+00  0.18258219501E-01 0.  0.
         14    1    1    2    0    0  0.44652598388E-02  0.19432485528E-01  0.11831513015E-01  0.23185011095E-01  0.00000000000E+00 0.  1.
     999901    1    3    3    0    0  0.30173117758E-01 -0.12362177894E+00  0.55113990921E-01  0.89085931171E+00  0.88000000000E+00 0.  1.
        -11    1    4    4    0    0 -0.76342907088E-02  0.34477432114E-01 -0.12750026353E-01  0.37547303669E-01  0.51100000000E-03 0.  1.
         11    1    4    4    0    0 -0.27004086888E-01  0.69711861297E-01 -0.54195477583E-01  0.92338373527E-01  0.51100000000E-03 0. -1.
</event>
<event>
 8    1  0.1128641E+005  0.1043930E+01  0.7957747E-01            NaN
         13   -1    0    0    0    0  0.00000000000E+00  0.00000000000E+00  0.74505805969E-08  0.10566000000E+00  0.10566000000E+00 0. -1.
     999900   -1    0    0    0    0 -0.00000000000E+00 -0.00000000000E+00 -0.74505805969E-08  0.93827000000E+00  0.93827000000E+00 0. -1.
     999902    2    1    2    0    0  0.21598839967E-01  0.27539828280E-02  0.96294564339E-02  0.10201220026E+01  0.10198441447E+01 0.  0.
     999903    2    3    3    0    0 -0.85859297571E-01  0.59782246372E-01 -0.71671093251E-01  0.12804058616E+00  0.17660977763E-01 0.  0.
         14    1    1    2    0    0 -0.21598839967E-01 -0.27539828280E-02 -0.96294564339E-02  0.23807997408E-01  0.00000000000E+00 0.  1.
     999901    1    3    3    0    0  0.10745813754E+00 -0.57028263544E-01  0.81300549685E-01  0.89208141643E+00  0.88000000000E+00 0.  1.
        -11    1    4    4    0    0 -0.27921351068E-01  0.24658091809E-01 -0.34416711049E-01  0.50718778155E-01  0.51100000000E-03 0. -1.
         11    1    4    4    0    0 -0.57937946504E-01  0.35124154563E-01 -0.37254382202E-01  0.77321808004E-01  0.51100000000E-03 0.  1.
</event>
<event>
 8    1  0.1128641E+005  0.1043930E+01  0.7957747E-01            NaN
         13   -1    0    0    0    0  0.00000000000E+00  0.00000000000E+00  0.74505805969E-08  0.10566000000E+00  0.10566000000E+00 0. -1.
     999900   -1    0    0    0    0 -0.00000000000E+00 -0.00000000000E+00 -0.74505805969E-08  0.93827000000E+00  0.93827000000E+00 0.  1.
     999902    2    1    2    0    0  0.31527638736E-02  0.44713620880E-02  0.22741046303E-01  0.10205400837E+01  0.10202720099E+01 0.  0.
     999903    2    3    3    0    0 -0.10632118014E+00 -0.67611155348E-01 -0.22481476706E-01  0.12968346764E+00  0.20902710629E-01 0.  0.
         14    1    1    2    0    0 -0.31527638736E-02 -0.44713620880E-02 -0.22741046303E-01  0.23389916330E-01  0.00000000000E+00 0.  1.
     999901    1    3    3    0    0  0.10947394401E+00  0.72082517436E-01  0.45222523009E-01  0.89085661603E+00  0.88000000000E+00 0. -1.
        -11    1    4    4    0    0 -0.29695780322E-01 -0.10317421032E-01 -0.11042964672E-01  0.33324116424E-01  0.51100000000E-03 0. -1.
         11    1    4    4    0    0 -0.76625399813E-01 -0.57293734316E-01 -0.11438512034E-01  0.96359351217E-01  0.51100000000E-03 0.  1.
</event>
<event>
 8    1  0.1128641E+005  0.1043930E+01  0.7957747E-01            NaN
         13   -1    0    0    0    0  0.00000000000E+00  0.00000000000E+00  0.74505805969E-08  0.10566000000E+00  0.10566000000E+00 0. -1.
     999900   -1    0    0    0    0 -0.00000000000E+00 -0.00000000000E+00 -0.74505805969E-08  0.93827000000E+00  0.93827000000E+00 0.  1.
     999902    2    1    2    0    0  0.61789506385E-02 -0.15052081916E-01  0.19683692973E-01  0.10183919427E+01  0.10180716854E+01 0.  0.
     999903    2    3    3    0    0  0.10360931158E+00 -0.49113667336E-01  0.60965383347E-01  0.13139868186E+00  0.20044796385E-01 0.  0.
         14    1    1    2    0    0 -0.61789506385E-02  0.15052081916E-01 -0.19683692973E-01  0.25538057288E-01  0.00000000000E+00 0.  1.
     999901    1    3    3    0    0 -0.97430360945E-01  0.34061585420E-01 -0.41281690374E-01  0.88699326085E+00  0.88000000000E+00 0.  1.
        -11    1    4    4    0    0  0.73249573366E-01 -0.36090110689E-01  0.32861883649E-01  0.88023636631E-01  0.51100000000E-03 0. -1.
         11    1    4    4    0    0  0.30359738218E-01 -0.13023556647E-01  0.28103499699E-01  0.43375045230E-01  0.51100000000E-03 0.  1.
</event>
<event>
 8    1  0.1128641E+005  0.1043930E+01  0.7957747E-01            NaN
         13   -1    0    0    0    0  0.00000000000E+00  0.00000000000E+00  0.74505805969E-08  0.10566000000E+00  0.10566000000E+00 0.  1.
     999900   -1    0    0    0    0 -0.00000000000E+00 -0.00000000000E+00 -0.74505805969E-08  0.93827000000E+00  0.93827000000E+00 0.  1.
     999902    2    1    2    0    0 -0.68748324604E-02  0.20280434901E-01  0.11382629471E-01  0.10196787399E+01  0.10193903124E+01 0.  0.
     999903    2    3    3    0    0 -0.97606235356E-01 -0.82127620181E-01 -0.28984898213E-03  0.12902962610E+00  0.19407143590E-01 0.  0.
         14    1    1    2    0    0  0.68748324604E-02 -0.20280434901E-01 -0.11382629471E-01  0.24251260067E-01  0.00000000000E+00 0. -1.
     999901    1    3    3    0    0  0.90731402896E-01  0.10240805508E+00  0.11672478453E-01  0.89064911383E+00  0.88000000000E+00 0. -1.
        -11    1    4    4    0    0 -0.10326605200E-01 -0.17847164751E-01 -0.51261123244E-03  0.20632109826E-01  0.51100000000E-03 0.  1.
         11    1    4    4    0    0 -0.87279630156E-01 -0.64280455429E-01  0.22276225032E-03  0.10839751627E+00  0.51100000000E-03 0. -1.
</event>
<event>
 8    1  0.1128641E+005  0.1043930E+01  0.7957747E-01            NaN
         13   -1    0    0    0    0  0.00000000000E+00  0.00000000000E+00  0.74505805969E-08  0.10566000000E+00  0.10566000000E+00 0. -1.
     999900   -1    0    0    0    0 -0.00000000000E+00 -0.00000000000E+00 -0.74505805969E-08  0.93827000000E+00  0.93827000000E+00 0. -1.
     999902    2    1    2    0    0 -0.27521390343E-02  0.12622119399E-01  0.20543773007E-01  0.10196619392E+01  0.10193731071E+01 0.  0.
     999903    2    3    3    0    0  0.58139559455E-01  0.67601342846E-01  0.96192698095E-01  0.13261443546E+00  0.19580689421E-01 0.  0.
         14    1    1    2    0    0  0.27521390343E-02 -0.12622119399E-01 -0.20543773007E-01  0.24268060836E-01  0.00000000000E+00 0.  1.
     999901    1    3    3    0    0 -0.60891698489E-01 -0.54979223447E-01 -0.75648925088E-01  0.88704750370E+00  0.88000000000E+00 0. -1.
        -11    1    4    4    0    0  0.30101473382E-01  0.23936046054E-01  0.50439418545E-01  0.63430505788E-01  0.51100000000E-03 0. -1.
         11    1    4    4    0    0  0.28038086073E-01  0.43665296793E-01  0.45753279550E-01  0.69183929675E-01  0.51100000000E-03 0.  1.
</event>
<event>
 8    1  0.1128641E+005  0.1043930E+01  0.7957747E-01            NaN
         13   -1    0    0    0    0  0.00000000000E+00  0.00000000000E+00  0.74505805969E-08  0.10566000000E+00  0.10566000000E+00 0. -1.
     999900   -1    0    0    0    0 -0.00000000000E+00 -0.00000000000E+00 -0.74505805969E-08  0.93827000000E+00  0.93827000000E+00 0.  1.
     999902    2    1    2    0    0  0.38906204659E-02 -0.10752298381E-01 -0.22010437542E-01  0.10191266089E+01  0.10188247331E+01 0.  0.
     999903    2    3    3    0    0 -0.24461702893E-01  0.60495385830E-01 -0.11134411576E+00  0.13128619939E+00  0.24093306547E-01 0.  0.
         14    1    1    2    0    0 -0.38906204659E-02  0.10752298381E-01  0.22010437542E-01  0.24803391077E-01  0.00000000000E+00 0. -1.
     999901    1    3    3    0    0  0.28352323359E-01 -0.71247684212E-01  0.89333678214E-01  0.88784040954E+00  0.88000000000E+00 0. -1.
        -11    1    4    4    0    0 -0.19970216758E-02  0.31167623742E-01 -0.38236663619E-01  0.49373195471E-01  0.51100000000E-03 0.  1.
         11    1    4    4    0    0 -0.22464681217E-01  0.29327762088E-01 -0.73107452137E-01  0.81913003914E-01  0.51100000000E-03 0. -1.
</event>
<event>
 8    1  0.1128641E+005  0.1043930E+01  0.7957747E-01            NaN
         13   -1    0    0    0    0  0.00000000000E+00  0.00000000000E+00  0.74505805969E-08  0.10566000000E+00  0.10566000000E+00 0.  1.
     999900   -1    0    0    0    0 -0.00000000000E+00 -0.00000000000E+00 -0.74505805969E-08  0.93827000000E+00  0.93827000000E+00 0. -1.
     999902    2    1    2    0    0 -0.12940993484E-01 -0.56407979251E-02 -0.19127197850E-01  0.10201573769E+01  0.10198803537E+01 0.  0.
     999903    2    3    3    0    0 -0.54649231257E-01  0.11538180672E+00 -0.24429296549E-01  0.13088005218E+00  0.15274086870E-01 0.  0.
         14    1    1    2    0    0  0.12940993484E-01  0.56407979251E-02  0.19127197850E-01  0.23772623145E-01  0.00000000000E+00 0. -1.
     999901    1    3    3    0    0  0.41708237773E-01 -0.12102260464E+00  0.53020986989E-02  0.88927732468E+00  0.88000000000E+00 0.  1.
        -11    1    4    4    0    0 -0.38452055988E-01  0.92018115537E-01 -0.23342162518E-01  0.10242564068E+00  0.51100000000E-03 0. -1.
         11    1    4    4    0    0 -0.16197175269E-01  0.23363691182E-01 -0.10871340315E-02  0.28454411499E-01  0.51100000000E-03 0.  1.
</event>
<event>
 8    1  0.1128641E+005  0.1043930E+01  0.7957747E-01            NaN
         13   -1    0    0    0    0  0.00000000000E+00  0.00000000000E+00  0.74505805969E-08  0.10566000000E+00  0.10566000000E+00 0. -1.
     999900   -1    0    0    0    0 -0.00000000000E+00 -0.00000000000E+00 -0.74505805969E-08  0.93827000000E+00  0.93827000000E+00 0.  1.
     999902    2    1    2    0    0  0.11369304146E-01  0.16404689008E-01 -0.12330031740E-01  0.10204692971E+01  0.10201995794E+01 0.  0.
     999903    2    3    3    0    0 -0.43384119643E-01 -0.89573054822E-01  0.77615210542E-01  0.12787792014E+00  0.20570064755E-01 0.  0.
         14    1    1    2    0    0 -0.11369304146E-01 -0.16404689008E-01  0.12330031740E-01  0.23460702908E-01  0.00000000000E+00 0.  1.
     999901    1    3    3    0    0  0.54753423789E-01  0.10597774383E+00 -0.89945242282E-01  0.89259137695E+00  0.88000000000E+00 0.  1.
        -11    1    4    4    0    0 -0.27994439416E-01 -0.72021344320E-01  0.51577067050E-01  0.92904346736E-01  0.51100000000E-03 0.  1.
         11    1    4    4    0    0 -0.15389680227E-01 -0.17551710502E-01  0.26038143492E-01  0.34973573403E-01  0.51100000000E-03 0. -1.
</event>
<event>
 8    1  0.1128641E+005  0.1043930E+01  0.7957747E-01            NaN
         13   -1    0    0    0    0  0.00000000000E+00  0.00000000000E+00  0.74505805969E-08  0.10566000000E+00  0.10566000000E+00 0. -1.
     999900   -1    0    0    0    0 -0.00000000000E+00 -0.00000000000E+00 -0.74505805969E-08  0.93827000000E+00  0.93827000000E+00 0. -1.
     999902    2    1    2    0    0  0.15623643813E-01 -0.12825802183E-01 -0.11792931340E-01  0.10205275925E+01  0.10202592290E+01 0.  0.
     999903    2    3    3    0    0  0.74762335532E-01 -0.47685885534E-01  0.94930796572E-01  0.13142548116E+00  0.19936159797E-01 0.  0.
         14    1    1    2    0    0 -0.15623643813E-01  0.12825802183E-01  0.11792931340E-01  0.23402407509E-01  0.00000000000E+00 0.  1.
     999901    1    3    3    0    0 -0.59138691719E-01  0.34860083350E-01 -0.10672372791E+00  0.88910211133E+00  0.88000000000E+00 0. -1.
        -11    1    4    4    0    0  0.32634803208E-01 -0.29908122592E-01  0.37530739080E-01  0.58037433389E-01  0.51100000000E-03 0. -1.
         11    1    4    4    0    0  0.42127532324E-01 -0.17777762942E-01  0.57400057492E-01  0.73388047774E-01  0.51100000000E-03 0.  1.
</event>
<event>
 8    1  0.1128641E+005  0.1043930E+01  0.7957747E-01            NaN
         13   -1    0    0    0    0  0.00000000000E+00  0.00000000000E+00  0.74505805969E-08  0.10566000000E+00  0.10566000000E+00 0.  1.
     999900   -1    0    0    0    0 -0.00000000000E+00 -0.00000000000E+00 -0.74505805969E-08  0.93827000000E+00  0.93827000000E+00 0.  1.
     999902    2    1    2    0    0  0.18649784928E-02  0.15824855080E-01  0.18140664274E-01  0.10197848580E+01  0.10194989792E+01 0.  0.
     999903    2    3    3    0    0  0.10348490921E+00 -0.73995075602E-01  0.11605873207E-01  0.12937094649E+00  0.20438881014E-01 0.  0.
         14    1    1    2    0    0 -0.18649784928E-02 -0.15824855080E-01 -0.18140664274E-01  0.24145142024E-01  0.00000000000E+00 0. -1.
     999901    1    3    3    0    0 -0.10161993071E+00  0.89819930681E-01  0.65347910663E-02  0.89041391148E+00  0.88000000000E+00 0.  1.
        -11    1    4    4    0    0  0.82274167441E-01 -0.54462245085E-01  0.10894921567E-02  0.98674327370E-01  0.51100000000E-03 0. -1.
         11    1    4    4    0    0  0.21210741766E-01 -0.19532830517E-01  0.10516381051E-01  0.30696619124E-01  0.51100000000E-03 0.  1.
</event>
<event>
 8    1  0.1128641E+005  0.1043930E+01  0.7957747E-01            NaN
         13   -1    0    0    0    0  0.00000000000E+00  0.00000000000E+00  0.74505805969E-08  0.10566000000E+00  0.10566000000E+00 0. -1.
     999900   -1    0    0    0    0 -0.00000000000E+00 -0.00000000000E+00 -0.74505805969E-08  0.93827000000E+00  0.93827000000E+00 0. -1.
     999902    2    1    2    0    0  0.63482304680E-02  0.13945365176E-01  0.12882948625E-02  0.10285536238E+01  0.10284386828E+01 0.  0.
     999903    2    3    3    0    0 -0.43355847819E-01 -0.96814972063E-01 -0.82898309521E-01  0.13623880717E+00  0.20880960266E-01 0.  0.
         14    1    1    2    0    0 -0.63482304680E-02 -0.13945365176E-01 -0.12882948625E-02  0.15376376154E-01  0.00000000000E+00 0.  1.
     999901    1    3    3    0    0  0.49704078287E-01  0.11076033724E+00  0.84186604383E-01  0.89231481668E+00  0.88000000000E+00 0.  1.
        -11    1    4    4    0    0 -0.23023359752E-01 -0.39452847518E-01 -0.47172907739E-01  0.65666937016E-01  0.51100000000E-03 0.  1.
         11    1    4    4    0    0 -0.20332488067E-01 -0.57362124546E-01 -0.35725401782E-01  0.70571870153E-01  0.51100000000E-03 0. -1.
</event>
<event>
 8    1  0.1128641E+005  0.1043930E+01  0.7957747E-01            NaN
         13   -1    0    0    0    0  0.00000000000E+00  0.00000000000E+00  0.74505805969E-08  0.10566000000E+00  0.10566000000E+00 0. -1.
     999900   -1    0    0    0    0 -0.00000000000E+00 -0.00000000000E+00 -0.74505805969E-08  0.93827000000E+00  0.93827000000E+00 0. -1.
     999902    2    1    2    0    0  0.11048895218E-01 -0.21580607183E-01 -0.63255015021E-02  0.10188738099E+01  0.10185656719E+01 0.  0.
     999903    2    3    3    0    0  0.29667246268E-01 -0.12545266933E+00 -0.23378348939E-01  0.13240505813E+00  0.19132027503E-01 0.  0.
         14    1    1    2    0    0 -0.11048895218E-01  0.21580607183E-01  0.63255015021E-02  0.25056190077E-01  0.00000000000E+00 0. -1.
     999901    1    3    3    0    0 -0.18618351050E-01  0.10387206215E+00  0.17052847437E-01  0.88646875179E+00  0.88000000000E+00 0.  1.
        -11    1    4    4    0    0 -0.16030943416E-02 -0.26339647284E-01 -0.45006143162E-02  0.26774308222E-01  0.51100000000E-03 0. -1.
         11    1    4    4    0    0  0.31270340610E-01 -0.99113022050E-01 -0.18877734623E-01  0.10563074991E+00  0.51100000000E-03 0.  1.
</event>
<event>
 8    1  0.1128641E+005  0.1043930E+01  0.7957747E-01            NaN
         13   -1    0    0    0    0  0.00000000000E+00  0.00000000000E+00  0.74505805969E-08  0.10566000000E+00  0.10566000000E+00 0. -1.
     999900   -1    0    0    0    0 -0.00000000000E+00 -0.00000000000E+00 -0.74505805969E-08  0.93827000000E+00  0.93827000000E+00 0.  1.
     999902    2    1    2    0    0  0.21264779423E-01 -0.68998101287E-02  0.69585035765E-02  0.10205159231E+01  0.10202472888E+01 0.  0.
     999903    2    3    3    0    0 -0.53240471106E-01  0.14317289341E-01 -0.11465826228E+00  0.12878062866E+00  0.19959976732E-01 0.  0.
         14    1    1    2    0    0 -0.21264779423E-01  0.68998101287E-02 -0.69585035765E-02  0.23414076872E-01  0.00000000000E+00 0.  1.
     999901    1    3    3    0    0  0.74505250529E-01 -0.21217099470E-01  0.12161676586E+00  0.89173529447E+00  0.88000000000E+00 0. -1.
        -11    1    4    4    0    0 -0.27105915939E-01 -0.24164931439E-02 -0.46328758027E-01  0.53732532598E-01  0.51100000000E-03 0.  1.
         11    1    4    4    0    0 -0.26134555167E-01  0.16733782485E-01 -0.68329504252E-01  0.75048096061E-01  0.51100000000E-03 0. -1.
</event>
<event>
 8    1  0.1128641E+005  0.1043930E+01  0.7957747E-01            NaN
         13   -1    0    0    0    0  0.00000000000E+00  0.00000000000E+00  0.74505805969E-08  0.10566000000E+00  0.10566000000E+00 0.  1.
     999900   -1    0    0    0    0 -0.00000000000E+00 -0.00000000000E+00 -0.74505805969E-08  0.93827000000E+00  0.93827000000E+00 0.  1.
     999902    2    1    2    0    0  0.46761088363E-02 -0.20770053395E-01  0.11145465894E-01  0.10198991340E+01  0.10196159870E+01 0.  0.
     999903    2    3    3    0    0 -0.63059092703E-01  0.84857418402E-01 -0.63392060910E-01  0.12787835887E+00  0.34016035179E-01 0.  0.
         14    1    1    2    0    0 -0.46761088363E-02  0.20770053395E-01 -0.11145465894E-01  0.24030866024E-01  0.00000000000E+00 0.  1.
     999901    1    3    3    0    0  0.67735201539E-01 -0.10562747180E+00  0.74537526805E-01  0.89202077511E+00  0.88000000000E+00 0.  1.
        -11    1    4    4    0    0 -0.48881607086E-01  0.56933712481E-01 -0.60560571894E-01  0.96429783352E-01  0.51100000000E-03 0.  1.
         11    1    4    4    0    0 -0.14177485617E-01  0.27923705921E-01 -0.28314890163E-02  0.31448575513E-01  0.51100000000E-03 0. -1.
</event>
<event>
 8    1  0.1128641E+005  0.1043930E+01  0.7957747E-01            NaN
         13   -1    0    0    0    0  0.00000000000E+00  0.00000000000E+00  0.74505805969E-08  0.10566000000E+00  0.10566000000E+00 0.  1.
     999900   -1    0    0    0    0 -0.00000000000E+00 -0.00000000000E+00 -0.74505805969E-08  0.93827000000E+00  0.93827000000E+00 0.  1.
     999902    2    1    2    0    0  0.17106266751E-01  0.11128185464E-01 -0.14720646208E-01  0.10187673630E+01  0.10184565684E+01 0.  0.
     999903    2    3    3    0    0  0.12215436078E+00  0.37844225877E-01 -0.29215568441E-01  0.13199853655E+00  0.14703432261E-01 0.  0.
         14    1    1    2    0    0 -0.17106266751E-01 -0.11128185464E-01  0.14720646208E-01  0.25162636958E-01  0.00000000000E+00 0.  1.
     999901    1    3    3    0    0 -0.10504809403E+00 -0.26716040413E-01  0.14494922233E-01  0.88676882650E+00  0.88000000000E+00 0. -1.
        -11    1    4    4    0    0  0.87768153958E-01  0.22589660779E-01 -0.15448500625E-01  0.91937255320E-01  0.51100000000E-03 0. -1.
         11    1    4    4    0    0  0.34386206826E-01  0.15254565098E-01 -0.13767067816E-01  0.40061281226E-01  0.51100000000E-03 0.  1.
</event>
<event>
 8    1  0.1128641E+005  0.1043930E+01  0.7957747E-01            NaN
         13   -1    0    0    0    0  0.00000000000E+00  0.00000000000E+00  0.74505805969E-08  0.10566000000E+00  0.10566000000E+00 0.  1.
     999900   -1    0    0    0    0 -0.00000000000E+00 -0.00000000000E+00 -0.74505805969E-08  0.93827000000E+00  0.93827000000E+00 0. -1.
     999902    2    1    2    0    0  0.15201937240E-01  0.11778879691E-01 -0.14995867982E-01  0.10195431806E+01  0.10192514804E+01 0.  0.
     999903    2    3    3    0    0  0.34394135193E-02 -0.12707177069E+00  0.83913895725E-03  0.12843790765E+00  0.18344685767E-01 0.  0.
         14    1    1    2    0    0 -0.15201937240E-01 -0.11778879691E-01  0.14995867982E-01  0.24386819374E-01  0.00000000000E+00 0.  1.
     999901    1    3    3    0    0  0.11762523721E-01  0.13885065038E+00 -0.15835006939E-01  0.89110527297E+00  0.88000000000E+00 0.  1.
        -11    1    4    4    0    0  0.63622473314E-02 -0.10408682790E+00 -0.54480861599E-02  0.10442455983E+00  0.51100000000E-03 0.  1.
         11    1    4    4    0    0 -0.29228338121E-02 -0.22984942795E-01  0.62872251171E-02  0.24013347818E-01  0.51100000000E-03 0. -1.
</event>
<event>
 8    1  0.1128641E+005  0.1043930E+01  0.7957747E-01            NaN
         13   -1    0    0    0    0  0.00000000000E+00  0.00000000000E+00  0.74505805969E-08  0.10566000000E+00  0.10566000000E+00 0. -1.
     999900   -1    0    0    0    0 -0.00000000000E+00 -0.00000000000E+00 -0.74505805969E-08  0.93827000000E+00  0.93827000000E+00 0. -1.
     999902    2    1    2    0    0 -0.22761213329E-02  0.21062679973E-01  0.12103175987E-01  0.10195311458E+01  0.10192391541E+01 0.  0.
     999903    2    3    3    0    0  0.13555264768E-01  0.12295405191E-01  0.12886029660E+00  0.13163491140E+00  0.19693950065E-01 0.  0.
         14    1    1    2    0    0  0.22761213329E-02 -0.21062679973E-01 -0.12103175987E-01  0.24398854173E-01  0.00000000000E+00 0.  1.
     999901    1    3    3    0    0 -0.15831386101E-01  0.87672747821E-02 -0.11675712061E+00  0.88789623442E+00  0.88000000000E+00 0. -1.
        -11    1    4    4    0    0  0.86841937121E-02  0.13943375866E-01  0.12169976830E+00  0.12280442857E+00  0.51100000000E-03 0.  1.
         11    1    4    4    0    0  0.48710710556E-02 -0.16479706751E-02  0.71605282971E-02  0.88304828332E-02  0.51100000000E-03 0. -1.
</event>
<event>
 8    1  0.1128641E+005  0.1043930E+01  0.7957747E-01            NaN
         13   -1    0    0    0    0  0.00000000000E+00  0.00000000000E+00  0.74505805969E-08  0.10566000000E+00  0.10566000000E+00 0.  1.
     999900   -1    0    0    0    0 -0.00000000000E+00 -0.00000000000E+00 -0.74505805969E-08  0.93827000000E+00  0.93827000000E+00 0. -1.
     999902    2    1    2    0    0  0.22652976484E-01 -0.85875120944E-02  0.74796227008E-02  0.10185755632E+01  0.10182599524E+01 0.  0.
     999903    2    3    3    0    0 -0.41163004007E-01 -0.95866630200E-01 -0.71982659908E-01  0.12840458069E+00  0.20528743982E-01 0.  0.
         14    1    1    2    0    0 -0.22652976484E-01  0.85875120944E-02 -0.74796227008E-02  0.25354436758E-01  0.00000000000E+00 0.  1.
     999901    1    3    3    0    0  0.63815980491E-01  0.87279118106E-01  0.79462282609E-01  0.89017098255E+00  0.88000000000E+00 0.  1.
        -11    1    4    4    0    0 -0.37989718002E-01 -0.66877750892E-01 -0.56031628732E-01  0.95161214670E-01  0.51100000000E-03 0.  1.
         11    1    4    4    0    0 -0.31732860060E-02 -0.28988879308E-01 -0.15951031176E-01  0.33243366018E-01  0.51100000000E-03 0. -1.
</event>
<event>
 8    1  0.1128641E+005  0.1043930E+01  0.7957747E-01            NaN
         13   -1    0    0    0    0  0.00000000000E+00  0.00000000000E+00  0.74505805969E-08  0.10566000000E+00  0.10566000000E+00 0. -1.
     999900   -1    0    0    0    0 -0.00000000000E+00 -0.00000000000E+00 -0.74505805969E-08  0.93827000000E+00  0.93827000000E+00 0.  1.
     999902    2    1    2    0    0  0.18819884147E-01  0.12108286060E-01  0.70742000365E-02  0.10204599566E+01  0.10201900216E+01 0.  0.
     999903    2    3    3    0    0  0.24312242774E-01  0.12656723181E+00  0.25448650435E-01  0.13284031020E+00  0.19712049306E-01 0.  0.
         14    1    1    2    0    0 -0.18819884147E-01 -0.12108286060E-01 -0.70742000365E-02  0.23470043391E-01  0.00000000000E+00 0.  1.
     999901    1    3    3    0    0 -0.54923586266E-02 -0.11445894575E+00 -0.18374450399E-01  0.88761964641E+00  0.88000000000E+00 0.  1.
        -11    1    4    4    0    0  0.17287932435E-01  0.94946302956E-01  0.10234528927E-01  0.97049882825E-01  0.51100000000E-03 0.  1.
         11    1    4    4    0    0  0.70243103387E-02  0.31620928855E-01  0.15214121508E-01  0.35790427374E-01  0.51100000000E-03 0. -1.
</event>
<event>
 8    1  0.1128641E+005  0.1043930E+01  0.7957747E-01            NaN
         13   -1    0    0    0    0  0.00000000000E+00  0.00000000000E+00  0.74505805969E-08  0.10566000000E+00  0.10566000000E+00 0. -1.
     999900   -1    0    0    0    0 -0.00000000000E+00 -0.00000000000E+00 -0.74505805969E-08  0.93827000000E+00  0.93827000000E+00 0.  1.
     999902    2    1    2    0    0 -0.55381265230E-03 -0.74495089660E-03  0.29067005260E-01  0.10148481766E+01  0.10144314018E+01 0.  0.
     999903    2    3    3    0    0 -0.19253808393E-01 -0.12110669476E+00 -0.17084623348E-01  0.12526028767E+00  0.18992489538E-01 0.  0.
         14    1    1    2    0    0  0.55381265230E-03  0.74495089660E-03 -0.29067005260E-01  0.29081823448E-01  0.00000000000E+00 0.  1.
     999901    1    3    3    0    0  0.18699995741E-01  0.12036174386E+00  0.46151628608E-01  0.88958788888E+00  0.88000000000E+00 0. -1.
        -11    1    4    4    0    0 -0.13355283286E-01 -0.67727534123E-01 -0.18727181995E-01  0.71528672129E-01  0.51100000000E-03 0. -1.
         11    1    4    4    0    0 -0.58985251072E-02 -0.53379160635E-01  0.16425586466E-02  0.53731615539E-01  0.51100000000E-03 0.  1.
</event>
<event>
 8    1  0.1128641E+005  0.1043930E+01  0.7957747E-01            NaN
         13   -1    0    0    0    0  0.00000000000E+00  0.00000000000E+00  0.74505805969E-08  0.10566000000E+00  0.10566000000E+00 0.  1.
     999900   -1    0    0    0    0 -0.00000000000E+00 -0.00000000000E+00 -0.74505805969E-08  0.93827000000E+00  0.93827000000E+00 0. -1.
     999902    2    1    2    0    0 -0.13034538040E-01  0.14618554437E-01 -0.12712162447E-01  0.10205804735E+01  0.10203133354E+01 0.  0.
     999903    2    3    3    0    0  0.49607896964E-01 -0.94993079982E-01 -0.70546346992E-01  0.12969126712E+00  0.18931693210E-01 0.  0.
         14    1    1    2    0    0  0.13034538040E-01 -0.14618554437E-01  0.12712162447E-01  0.23349526544E-01  0.00000000000E+00 0.  1.
     999901    1    3    3    0    0 -0.62642435004E-01  0.10961163442E+00  0.57834184544E-01  0.89088920634E+00  0.88000000000E+00 0.  1.
        -11    1    4    4    0    0  0.33648692261E-01 -0.44018224039E-01 -0.35840541428E-01  0.65989726998E-01  0.51100000000E-03 0. -1.
         11    1    4    4    0    0  0.15959204703E-01 -0.50974855942E-01 -0.34705805564E-01  0.63701540122E-01  0.51100000000E-03 0.  1.
</event>
<event>
 8    1  0.1128641E+005  0.1043930E+01  0.7957747E-01            NaN
         13   -1    0    0    0    0  0.00000000000E+00  0.00000000000E+00  0.74505805969E-08  0.10566000000E+00  0.10566000000E+00 0.  1.
     999900   -1    0    0    0    0 -0.00000000000E+00 -0.00000000000E+00 -0.74505805969E-08  0.93827000000E+00  0.93827000000E+00 0. -1.
     999902    2    1    2    0    0 -0.96331333960E-02  0.20182175807E-01 -0.54431945166E-02  0.10209137917E+01  0.10206543118E+01 0.  0.
     999903    2    3    3    0    0 -0.58361960401E-01 -0.10142824681E+00  0.51354716298E-01  0.12940406310E+00  0.20354286689E-01 0.  0.
         14    1    1    2    0    0  0.96331333960E-02 -0.20182175807E-01  0.54431945166E-02  0.23016208330E-01  0.00000000000E+00 0. -1.
     999901    1    3    3    0    0  0.48728827005E-01  0.12161042262E+00 -0.56797910814E-01  0.89150972857E+00  0.88000000000E+00 0. -1.
        -11    1    4    4    0    0 -0.37119257361E-01 -0.62148290081E-01  0.20895466939E-01  0.75346737730E-01  0.51100000000E-03 0. -1.
         11    1    4    4    0    0 -0.21242703040E-01 -0.39279956730E-01  0.30459249358E-01  0.54057325365E-01  0.51100000000E-03 0.  1.
</event>
<event>
 8    1  0.1128641E+005  0.1043930E+01  0.7957747E-01            NaN
         13   -1    0    0    0    0  0.00000000000E+00  0.00000000000E+00  0.74505805969E-08  0.10566000000E+00  0.10566000000E+00 0. -1.
     999900   -1    0    0    0    0 -0.00000000000E+00 -0.00000000000E+00 -0.74505805969E-08  0.93827000000E+00  0.93827000000E+00 0. -1.
     999902    2    1    2    0    0 -0.85541281175E-02  0.78447721057E-02 -0.21619614747E-01  0.10193918399E+01  0.10190964636E+01 0.  0.
     999903    2    3    3    0    0  0.58582099487E-01 -0.79431619714E-01 -0.82881825037E-01  0.13041630595E+00  0.19944205809E-01 0.  0.
         14    1    1    2    0    0  0.85541281175E-02 -0.78447721057E-02  0.21619614747E-01  0.24538160059E-01  0.00000000000E+00 0. -1.
     999901    1    3    3    0    0 -0.67136227605E-01  0.87276391820E-01  0.61262210290E-01  0.88897553399E+00  0.88000000000E+00 0.  1.
        -11    1    4    4    0    0  0.29660310536E-01 -0.24231339713E-01 -0.29217906566E-01  0.48175087239E-01  0.51100000000E-03 0.  1.
         11    1    4    4    0    0  0.28921788951E-01 -0.55200280002E-01 -0.53663918471E-01  0.82241218711E-01  0.51100000000E-03 0. -1.
</event>
<event>
 8    1  0.1128641E+005  0.1043930E+01  0.7957747E-01            NaN
         13   -1    0    0    0    0  0.00000000000E+00  0.00000000000E+00  0.74505805969E-08  0.10566000000E+00  0.10566000000E+00 0.  1.
     999900   -1    0    0    0    0 -0.00000000000E+00 -0.00000000000E+00 -0.74505805969E-08  0.93827000000E+00  0.93827000000E+00 0. -1.
     999902    2    1    2    0    0 -0.97735950042E-02  0.77845285072E-03 -0.21599393627E-01  0.10202094824E+01  0.10199336866E+01 0.  0.
     999903    2    3    3    0    0 -0.33837226103E-01  0.62299694913E-01  0.10546835138E+00  0.12863215355E+00  0.19911000201E-01 0.  0.
         14    1    1    2    0    0  0.97735950042E-02 -0.77845285072E-03  0.21599393627E-01  0.23720517557E-01  0.00000000000E+00 0.  1.
     999901    1    3    3    0    0  0.24063631099E-01 -0.61521242062E-01 -0.12706774501E+00  0.89157732889E+00  0.88000000000E+00 0. -1.
        -11    1    4    4    0    0 -0.11706588781E-01  0.31751282905E-01  0.65148574574E-01  0.73415162447E-01  0.51100000000E-03 0. -1.
         11    1    4    4    0    0 -0.22130637322E-01  0.30548412007E-01  0.40319776804E-01  0.55216991108E-01  0.51100000000E-03 0.  1.
</event>
<event>
 8    1  0.1128641E+005  0.1043930E+01  0.7957747E-01            NaN
         13   -1    0    0    0    0  0.00000000000E+00  0.00000000000E+00  0.74505805969E-08  0.10566000000E+00  0.10566000000E+00 0. -1.
     999900   -1    0    0    0    0 -0.00000000000E+00 -0.00000000000E+00 -0.74505805969E-08  0.93827000000E+00  0.93827000000E+00 0.  1.
     999902    2    1    2    0    0 -0.22042438956E-01 -0.79811811177E-02  0.44302806887E-03  0.10204829396E+01  0.10202135391E+01 0.  0.
     999903    2    3    3    0    0 -0.50685337887E-01  0.95659801068E-01 -0.71010358748E-01  0.13106321005E+00  0.20378737959E-01 0.  0.
         14    1    1    2    0    0  0.22042438956E-01  0.79811811177E-02 -0.44302806887E-03  0.23447060392E-01  0.00000000000E+00 0. -1.
     999901    1    3    3    0    0  0.28642898931E-01 -0.10364098219E+00  0.71453386817E-01  0.88941972956E+00  0.88000000000E+00 0. -1.
        -11    1    4    4    0    0 -0.37236044293E-01  0.82335023461E-01 -0.52143259809E-01  0.10433005199E+00  0.51100000000E-03 0.  1.
         11    1    4    4    0    0 -0.13449293594E-01  0.13324777607E-01 -0.18867098939E-01  0.26733158060E-01  0.51100000000E-03 0. -1.
</event>
<event>
 8    1  0.1128641E+005  0.1043930E+01  0.7957747E-01            NaN
         13   -1    0    0    0    0  0.00000000000E+00  0.00000000000E+00  0.74505805969E-08  0.10566000000E+00  0.10566000000E+00 0.  1.
     999900   -1    0    0    0    0 -0.00000000000E+00 -0.00000000000E+00 -0.74505805969E-08  0.93827000000E+00  0.93827000000E+00 0.  1.
     999902    2    1    2    0    0  0.20273855406E-01 -0.41305074402E-02 -0.11665043801E-01  0.10201778727E+01  0.10199013327E+01 0.  0.
     999903    2    3    3    0    0 -0.10470653001E-01 -0.11437381548E+00 -0.60696413468E-01  0.13141306298E+00  0.19857851650E-01 0.  0.
         14    1    1    2    0    0 -0.20273855406E-01  0.41305074402E-02  0.11665043801E-01  0.23752127307E-01  0.00000000000E+00 0.  1.
     999901    1    3    3    0    0  0.30744508407E-01  0.11024330804E+00  0.49031369666E-01  0.88876480971E+00  0.88000000000E+00 0.  1.
        -11    1    4    4    0    0  0.29296454601E-02 -0.50151653754E-02 -0.47157279283E-03  0.58496331649E-02  0.51100000000E-03 0.  1.
         11    1    4    4    0    0 -0.13400298461E-01 -0.10935865011E+00 -0.60224840675E-01  0.12556342982E+00  0.51100000000E-03 0. -1.
</event>
<event>
 8    1  0.1128641E+005  0.1043930E+01  0.7957747E-01            NaN
         13   -1    0    0    0    0  0.00000000000E+00  0.00000000000E+00  0.74505805969E-08  0.10566000000E+00  0.10566000000E+00 0. -1.
     999900   -1    0    0    0    0 -0.00000000000E+00 -0.00000000000E+00 -0.74505805969E-08  0.93827000000E+00  0.93827000000E+00 0. -1.
     999902    2    1    2    0    0 -0.27297279299E-02 -0.17065880929E-01 -0.16072288576E-01  0.10203288524E+01  0.10200558578E+01 0.  0.
     999903    2    3    3    0    0  0.12092696725E+00  0.16157587337E-01  0.40962436231E-01  0.12923529004E+00  0.11808470349E-01 0.  0.
         14    1    1    2    0    0  0.27297279299E-02  0.17065880929E-01  0.16072288576E-01  0.23601147568E-01  0.00000000000E+00 0. -1.
     999901    1    3    3    0    0 -0.12365669518E+00 -0.33223468266E-01 -0.57034724806E-01  0.89109356239E+00  0.88000000000E+00 0.  1.
        -11    1    4    4    0    0  0.80449086686E-01  0.59229428669E-02  0.29990666602E-01  0.86062988590E-01  0.51100000000E-03 0. -1.
         11    1    4    4    0    0  0.40477880565E-01  0.10234644470E-01  0.10971769629E-01  0.43172301448E-01  0.51100000000E-03 0.  1.
</event>
<event>
 8    1  0.1128641E+005  0.1043930E+01  0.7957747E-01            NaN
         13   -1    0    0    0    0  0.00000000000E+00  0.00000000000E+00  0.74505805969E-08  0.10566000000E+00  0.10566000000E+00 0.  1.
     999900   -1    0    0    0    0 -0.00000000000E+00 -0.00000000000E+00 -0.74505805969E-08  0.93827000000E+00  0.93827000000E+00 0.  1.
     999902    2    1    2    0    0  0.50623496077E-02  0.19594141639E-01  0.17159387740E-01  0.10173969572E+01  0.10170509163E+01 0.  0.
     999903    2    3    3    0    0 -0.97836708586E-01  0.78615365791E-01  0.23573679765E-01  0.12941448883E+00  0.20976040033E-01 0.  0.
         14    1    1    2    0    0 -0.50623496077E-02 -0.19594141639E-01 -0.17159387740E-01  0.26533042754E-01  0.00000000000E+00 0. -1.
     999901    1    3    3    0    0  0.10289905819E+00 -0.59021224152E-01 -0.64142920241E-02  0.88798246842E+00  0.88000000000E+00 0. -1.
        -11    1    4    4    0    0 -0.78564891773E-01  0.72761245826E-01  0.20630539584E-01  0.10905283764E+00  0.51100000000E-03 0.  1.
         11    1    4    4    0    0 -0.19271816813E-01  0.58541199647E-02  0.29431401801E-02  0.20361651184E-01  0.51100000000E-03 0. -1.
</event>
<event>
 8    1  0.1128641E+005  0.1043930E+01  0.7957747E-01            NaN
         13   -1    0    0    0    0  0.00000000000E+00  0.00000000000E+00  0.74505805969E-08  0.10566000000E+00  0.10566000000E+00 0.  1.
     999900   -1    0    0    0    0 -0.00000000000E+00 -0.00000000000E+00 -0.74505805969E-08  0.93827000000E+00  0.93827000000E+00 0. -1.
     999902    2    1    2    0    0 -0.87796679642E-02  0.72331188609E-02 -0.18670887614E-01  0.10220667289E+01  0.10218328610E+01 0.  0.
     999903    2    3    3    0    0  0.81675161110E-02 -0.12755752871E+00  0.19308770698E-01  0.13083265183E+00  0.20167367455E-01 0.  0.
         14    1    1    2    0    0  0.87796679642E-02 -0.72331188609E-02  0.18670887614E-01  0.21863271080E-01  0.00000000000E+00 0.  1.
     999901    1    3    3    0    0 -0.16947184075E-01  0.13479064757E+00 -0.37979658312E-01  0.89123407709E+00  0.88000000000E+00 0.  1.
        -11    1    4    4    0    0  0.41458157649E-02 -0.21718370366E-01  0.10693760770E-01  0.24566095338E-01  0.51100000000E-03 0. -1.
         11    1    4    4    0    0  0.40217003461E-02 -0.10583915834E+00  0.86150099276E-02  0.10626655649E+00  0.51100000000E-03 0.  1.
</event>
<event>
 8    1  0.1128641E+005  0.1043930E+01  0.7957747E-01            NaN
         13   -1    0    0    0    0  0.00000000000E+00  0.00000000000E+00  0.74505805969E-08  0.10566000000E+00  0.10566000000E+00 0.  1.
     999900   -1    0    0    0    0 -0.00000000000E+00 -0.00000000000E+00 -0.74505805969E-08  0.93827000000E+00  0.93827000000E+00 0. -1.
     999902    2    1    2    0    0  0.16726893864E-01  0.14193596912E-02 -0.57464263766E-02  0.10261866921E+01  0.10260332850E+01 0.  0.
     999903    2    3    3    0    0  0.10394090223E+00 -0.80714671494E-01 -0.34398421961E-01  0.13760736574E+00  0.20831858329E-01 0.  0.
         14    1    1    2    0    0 -0.16726893864E-01 -0.14193596912E-02  0.57464263766E-02  0.17743307932E-01  0.00000000000E+00 0.  1.
     999901    1    3    3    0    0 -0.87214008361E-01  0.82134031186E-01  0.28651995584E-01  0.88857932633E+00  0.88000000000E+00 0. -1.
        -11    1    4    4    0    0  0.25067760074E-01 -0.22766480988E-01 -0.18053848335E-01  0.38378481111E-01  0.51100000000E-03 0.  1.
         11    1    4    4    0    0  0.78873142152E-01 -0.57948190506E-01 -0.16344573626E-01  0.99228884625E-01  0.51100000000E-03 0. -1.
</event>
<event>
 8    1  0.1128641E+005  0.1043930E+01  0.7957747E-01            NaN
         13   -1    0    0    0    0  0.00000000000E+00  0.00000000000E+00  0.74505805969E-08  0.10566000000E+00  0.10566000000E+00 0. -1.
     999900   -1    0    0    0    0 -0.00000000000E+00 -0.00000000000E+00 -0.74505805969E-08  0.93827000000E+00  0.93827000000E+00 0. -1.
     999902    2    1    2    0    0 -0.60532655011E-03  0.17956556470E-01 -0.16239203717E-01  0.10197119060E+01  0.10194242763E+01 0.  0.
     999903    2    3    3    0    0 -0.46850046042E-01 -0.60242840500E-01 -0.10415425849E+00  0.13067716165E+00  0.20106823955E-01 0.  0.
         14    1    1    2    0    0  0.60532655011E-03 -0.17956556470E-01  0.16239203717E-01  0.24218094018E-01  0.00000000000E+00 0. -1.
     999901    1    3    3    0    0  0.46244719492E-01  0.78199396970E-01  0.87915054778E-01  0.88903474433E+00  0.88000000000E+00 0. -1.
        -11    1    4    4    0    0 -0.21035385848E-01 -0.12085952117E-01 -0.30952621028E-01  0.39330440702E-01  0.51100000000E-03 0. -1.
         11    1    4    4    0    0 -0.25814660194E-01 -0.48156888383E-01 -0.73201637467E-01  0.91346720951E-01  0.51100000000E-03 0.  1.
</event>
<event>
 8    1  0.1128641E+005  0.1043930E+01  0.7957747E-01            NaN
         13   -1    0    0    0    0  0.00000000000E+00  0.00000000000E+00  0.74505805969E-08  0.10566000000E+00  0.10566000000E+00 0. -1.
     999900   -1    0    0    0    0 -0.00000000000E+00 -0.00000000000E+00 -0.74505805969E-08  0.93827000000E+00  0.93827000000E+00 0.  1.
     999902    2    1    2    0    0  0.21649065220E-01  0.31373206295E-02 -0.81777231490E-02  0.10205762003E+01  0.10203089633E+01 0.  0.
     999903    2    3    3    0    0  0.25063245124E-01  0.27947977820E-01 -0.12518553248E+00  0.13247820299E+00  0.21674893457E-01 0.  0.
         14    1    1    2    0    0 -0.21649065220E-01 -0.31373206295E-02  0.81777231490E-02  0.23353799724E-01  0.00000000000E+00 0. -1.
     999901    1    3    3    0    0 -0.34141799032E-02 -0.24810657191E-01  0.11700780933E+00  0.88809799728E+00  0.88000000000E+00 0. -1.
        -11    1    4    4    0    0 -0.35649446821E-02  0.45808048957E-02 -0.10817323415E-01  0.12286912181E-01  0.51100000000E-03 0.  1.
         11    1    4    4    0    0  0.28628189806E-01  0.23367172925E-01 -0.11436820906E+00  0.12019129081E+00  0.51100000000E-03 0. -1.
</event>
<event>
 8    1  0.1128641E+005  0.1043930E+01  0.7957747E-01            NaN
         13   -1    0    0    0    0  0.00000000000E+00  0.00000000000E+00  0.74505805969E-08  0.10566000000E+00  0.10566000000E+00 0.  1.
     999900   -1    0    0    0    0 -0.00000000000E+00 -0.00000000000E+00 -0.74505805969E-08  0.93827000000E+00  0.93827000000E+00 0. -1.
     999902    2    1    2    0    0 -0.17357481569E-01 -0.17259071435E-01 -0.32805759370E-02  0.10192334437E+01  0.10189341946E+01 0.  0.
     999903    2    3    3    0    0  0.11216383992E+00  0.52357120183E-01 -0.19595699035E-01  0.12688352912E+00  0.19835410836E-01 0.  0.
         14    1    1    2    0    0  0.17357481569E-01  0.17259071435E-01  0.32805759370E-02  0.24696556272E-01  0.00000000000E+00 0.  1.
     999901    1    3    3    0    0 -0.12952132149E+00 -0.69616191618E-01  0.16315123098E-01  0.89234991461E+00  0.88000000000E+00 0. -1.
        -11    1    4    4    0    0  0.76321779788E-01  0.45393863935E-01 -0.15393068274E-01  0.90126714269E-01  0.51100000000E-03 0. -1.
         11    1    4    4    0    0  0.35842060129E-01  0.69632562478E-02 -0.42026307609E-02  0.36756814854E-01  0.51100000000E-03 0.  1.
</event>
<event>
 8    1  0.1128641E+005  0.1043930E+01  0.7957747E-01            NaN
         13   -1    0    0    0    0  0.00000000000E+00  0.00000000000E+00  0.74505805969E-08  0.10566000000E+00  0.10566000000E+00 0. -1.
     999900   -1    0    0    0    0 -0.00000000000E+00 -0.00000000000E+00 -0.74505805969E-08  0.93827000000E+00  0.93827000000E+00 0.  1.
     999902    2    1    2    0    0 -0.18028195132E-01 -0.11385993390E-01 -0.37307541194E-02  0.10222834023E+01  0.10220541959E+01 0.  0.
     999903    2    3    3    0    0  0.12469253393E+00 -0.29757264879E-01  0.13112343611E-01  0.13043677869E+00  0.20201407107E-01 0.  0.
         14    1    1    2    0    0  0.18028195132E-01  0.11385993390E-01  0.37307541194E-02  0.21646597689E-01  0.00000000000E+00 0.  1.
     999901    1    3    3    0    0 -0.14272072906E+00  0.18371271489E-01 -0.16843097730E-01  0.89184662362E+00  0.88000000000E+00 0. -1.
        -11    1    4    4    0    0  0.65607464369E-01 -0.15569948523E-01  0.17014144514E-01  0.69544984812E-01  0.51100000000E-03 0.  1.
         11    1    4    4    0    0  0.59085069562E-01 -0.14187316356E-01 -0.39018009031E-02  0.60891793879E-01  0.51100000000E-03 0. -1.
</event>
<event>
 8    1  0.1128641E+005  0.1043930E+01  0.7957747E-01            NaN
         13   -1    0    0    0    0  0.00000000000E+00  0.00000000000E+00  0.74505805969E-08  0.10566000000E+00  0.10566000000E+00 0. -1.
     999900   -1    0    0    0    0 -0.00000000000E+00 -0.00000000000E+00 -0.74505805969E-08  0.93827000000E+00  0.93827000000E+00 0.  1.
     999902    2    1    2    0    0  0.69784909855E-02 -0.14487665096E-01  0.18085042249E-01  0.10197295758E+01  0.10194423708E+01 0.  0.
     999903    2    3    3    0    0  0.50228970957E-01 -0.28374254208E-01 -0.11364732469E+00  0.12876557103E+00  0.18352385354E-01 0.  0.
         14    1    1    2    0    0 -0.69784909855E-02  0.14487665096E-01 -0.18085042249E-01  0.24200424159E-01  0.00000000000E+00 0.  1.
     999901    1    3    3    0    0 -0.43250479972E-01  0.13886589112E-01  0.13173236694E+00  0.89096400481E+00  0.88000000000E+00 0. -1.
        -11    1    4    4    0    0  0.15274650751E-01 -0.16218135997E-02 -0.19443166562E-01  0.24783927895E-01  0.51100000000E-03 0. -1.
         11    1    4    4    0    0  0.34954320206E-01 -0.26752440608E-01 -0.94204158124E-01  0.10398164313E+00  0.51100000000E-03 0.  1.
</event>
<event>
 8    1  0.1128641E+005  0.1043930E+01  0.7957747E-01            NaN
         13   -1    0    0    0    0  0.00000000000E+00  0.00000000000E+00  0.74505805969E-08  0.10566000000E+00  0.10566000000E+00 0. -1.
     999900   -1    0    0    0    0 -0.00000000000E+00 -0.00000000000E+00 -0.74505805969E-08  0.93827000000E+00  0.93827000000E+00 0.  1.
     999902    2    1    2    0    0 -0.24130970563E-02  0.22336855623E-01 -0.34577313941E-02  0.10211986546E+01  0.10209456294E+01 0.  0.
     999903    2    3    3    0    0 -0.31369565706E-02  0.96970315635E-01 -0.89685070128E-01  0.13383974681E+00  0.21367812488E-01 0.  0.
         14    1    1    2    0    0  0.24130970563E-02 -0.22336855623E-01  0.34577313941E-02  0.22731345383E-01  0.00000000000E+00 0.  1.
     999901    1    3    3    0    0  0.72385951429E-03 -0.74633460012E-01  0.86227338734E-01  0.88735890781E+00  0.88000000000E+00 0. -1.
        -11    1    4    4    0    0 -0.86920247169E-02  0.18694930499E-01 -0.22646168179E-01  0.30629426606E-01  0.51100000000E-03 0.  1.
         11    1    4    4    0    0  0.55550681463E-02  0.78275385136E-01 -0.67038901949E-01  0.10321032020E+00  0.51100000000E-03 0. -1.
</event>
<event>
 8    1  0.1128641E+005  0.1043930E+01  0.7957747E-01            NaN
         13   -1    0    0    0    0  0.00000000000E+00  0.00000000000E+00  0.74505805969E-08  0.10566000000E+00  0.10566000000E+00 0. -1.
     999900   -1    0    0    0    0 -0.00000000000E+00 -0.00000000000E+00 -0.74505805969E-08  0.93827000000E+00  0.93827000000E+00 0. -1.
     999902    2    1    2    0    0  0.20609370005E-01  0.65242787699E-02  0.59120861655E-02  0.10215187281E+01  0.10212728562E+01 0.  0.
     999903    2    3    3    0    0  0.13132421994E+00 -0.16416526174E-01  0.10018627089E-01  0.13427528788E+00  0.20345195282E-01 0.  0.
         14    1    1    2    0    0 -0.20609370005E-01 -0.65242787699E-02 -0.59120861655E-02  0.22411271903E-01  0.00000000000E+00 0.  1.
     999901    1    3    3    0    0 -0.11071484994E+00  0.22940804944E-01 -0.41065409235E-02  0.88724344022E+00  0.88000000000E+00 0. -1.
        -11    1    4    4    0    0  0.54893073848E-01 -0.83748485161E-02 -0.57238406172E-02  0.55824825271E-01  0.51100000000E-03 0.  1.
         11    1    4    4    0    0  0.76431146097E-01 -0.80416776579E-02  0.15742467706E-01  0.78450462610E-01  0.51100000000E-03 0. -1.
</event>
<event>
 8    1  0.1128641E+005  0.1043930E+01  0.7957747E-01            NaN
         13   -1    0    0    0    0  0.00000000000E+00  0.00000000000E+00  0.74505805969E-08  0.10566000000E+00  0.10566000000E+00 0. -1.
     999900   -1    0    0    0    0 -0.00000000000E+00 -0.00000000000E+00 -0.74505805969E-08  0.93827000000E+00  0.93827000000E+00 0.  1.
     999902    2    1    2    0    0 -0.16465930232E-01 -0.10927951966E-04  0.16503266510E-01  0.10206172399E+01  0.10203509522E+01 0.  0.
     999903    2    3    3    0    0 -0.50323848281E-01 -0.88190540174E-01 -0.78717890256E-01  0.13045485510E+00  0.22625248957E-01 0.  0.
         14    1    1    2    0    0  0.16465930232E-01  0.10927951966E-04 -0.16503266510E-01  0.23312760096E-01  0.00000000000E+00 0.  1.
     999901    1    3    3    0    0  0.33857918049E-01  0.88179612223E-01  0.95221156765E-01  0.89016238481E+00  0.88000000000E+00 0. -1.
        -11    1    4    4    0    0 -0.36386315355E-01 -0.43425075483E-01 -0.49297034504E-01  0.75100997715E-01  0.51100000000E-03 0.  1.
         11    1    4    4    0    0 -0.13937532926E-01 -0.44765464692E-01 -0.29420855751E-01  0.55353857384E-01  0.51100000000E-03 0. -1.
</event>
<event>
 8    1  0.1128641E+005  0.1043930E+01  0.7957747E-01            NaN
         13   -1    0    0    0    0  0.00000000000E+00  0.00000000000E+00  0.74505805969E-08  0.10566000000E+00  0.10566000000E+00 0. -1.
     999900   -1    0    0    0    0 -0.00000000000E+00 -0.00000000000E+00 -0.74505805969E-08  0.93827000000E+00  0.93827000000E+00 0.  1.
     999902    2    1    2    0    0 -0.18617262487E-01  0.42816864627E-02  0.13544792808E-01  0.10205121283E+01  0.10202434059E+01 0.  0.
     999903    2    3    3    0    0  0.32842646467E-01 -0.11983262821E+00 -0.30145748921E-01  0.12924261310E+00  0.18878258706E-01 0.  0.
         14    1    1    2    0    0  0.18617262487E-01 -0.42816864627E-02 -0.13544792808E-01  0.23417871673E-01  0.00000000000E+00 0.  1.
     999901    1    3    3    0    0 -0.51459908955E-01  0.12411431467E+00  0.43690541729E-01  0.89126951523E+00  0.88000000000E+00 0. -1.
        -11    1    4    4    0    0  0.22310769262E-01 -0.61951636489E-01 -0.78025858458E-02  0.66309253921E-01  0.51100000000E-03 0.  1.
         11    1    4    4    0    0  0.10531877205E-01 -0.57880991723E-01 -0.22343163076E-01  0.62933359178E-01  0.51100000000E-03 0. -1.
</event>
<event>
 8    1  0.1128641E+005  0.1043930E+01  0.7957747E-01            NaN
         13   -1    0    0    0    0  0.00000000000E+00  0.00000000000E+00  0.74505805969E-08  0.10566000000E+00  0.10566000000E+00 0.  1.
     999900   -1    0    0    0    0 -0.00000000000E+00 -0.00000000000E+00 -0.74505805969E-08  0.93827000000E+00  0.93827000000E+00 0. -1.
     999902    2    1    2    0    0 -0.81015253670E-02  0.13574216917E-01  0.17282151105E-01  0.10205084965E+01  0.10202396898E+01 0.  0.
     999903    2    3    3    0    0  0.16607858168E-01  0.43232270957E-01  0.12276128211E+00  0.13336927358E+00  0.23920295690E-01 0.  0.
         14    1    1    2    0    0  0.81015253670E-02 -0.13574216917E-01 -0.17282151105E-01  0.23421503474E-01  0.00000000000E+00 0. -1.
     999901    1    3    3    0    0 -0.24709383535E-01 -0.29658054039E-01 -0.10547913101E+00  0.88713922294E+00  0.88000000000E+00 0. -1.
        -11    1    4    4    0    0  0.66631855923E-02  0.40719262040E-01  0.89412253464E-01  0.98474710124E-01  0.51100000000E-03 0. -1.
         11    1    4    4    0    0  0.99446725755E-02  0.25130089163E-02  0.33349028646E-01  0.34894563461E-01  0.51100000000E-03 0.  1.
</event>
<event>
 8    1  0.1128641E+005  0.1043930E+01  0.7957747E-01            NaN
         13   -1    0    0    0    0  0.00000000000E+00  0.00000000000E+00  0.74505805969E-08  0.10566000000E+00  0.10566000000E+00 0.  1.
     999900   -1    0    0    0    0 -0.00000000000E+00 -0.00000000000E+00 -0.74505805969E-08  0.93827000000E+00  0.93827000000E+00 0.  1.
     999902    2    1    2    0    0 -0.16379972417E-01 -0.12668713379E-01 -0.14088760323E-01  0.10188841827E+01  0.10185763029E+01 0.  0.
     999903    2    3    3    0    0 -0.73928933195E-01 -0.77247357352E-01  0.71719695306E-01  0.13048935204E+00  0.21239466100E-01 0.  0.
         14    1    1    2    0    0  0.16379972417E-01  0.12668713379E-01  0.14088760323E-01  0.25045817266E-01  0.00000000000E+00 0.  1.
     999901    1    3    3    0    0  0.57548960778E-01  0.64578643973E-01 -0.85808455629E-01  0.88839483069E+00  0.88000000000E+00 0.  1.
        -11    1    4    4    0    0 -0.47430818678E-01 -0.34522728492E-01  0.36306575746E-01  0.68992245263E-01  0.51100000000E-03 0. -1.
         11    1    4    4    0    0 -0.26498114517E-01 -0.42724628860E-01  0.35413119560E-01  0.61497106779E-01  0.51100000000E-03 0.  1.
</event>
<event>
 8    1  0.1128641E+005  0.1043930E+01  0.7957747E-01            NaN
         13   -1    0    0    0    0  0.00000000000E+00  0.00000000000E+00  0.74505805969E-08  0.10566000000E+00  0.10566000000E+00 0.  1.
     999900   -1    0    0    0    0 -0.00000000000E+00 -0.00000000000E+00 -0.74505805969E-08  0.93827000000E+00  0.93827000000E+00 0. -1.
     999902    2    1    2    0    0  0.12558177055E-01 -0.80516863655E-02  0.18876225103E-01  0.10198707120E+01  0.10195868869E+01 0.  0.
     999903    2    3    3    0    0  0.50125072389E-01  0.11133954318E+00 -0.38304397341E-01  0.12917707170E+00  0.17620222431E-01 0.  0.
         14    1    1    2    0    0 -0.12558177055E-01  0.80516863655E-02 -0.18876225103E-01  0.24059287986E-01  0.00000000000E+00 0. -1.
     999901    1    3    3    0    0 -0.37566895334E-01 -0.11939122955E+00  0.57180622444E-01  0.89069364032E+00  0.88000000000E+00 0.  1.
        -11    1    4    4    0    0  0.40995721089E-01  0.72715086632E-01 -0.29361741639E-01  0.88490146145E-01  0.51100000000E-03 0.  1.
         11    1    4    4    0    0  0.91293513001E-02  0.38624456549E-01 -0.89426557018E-02  0.40686925552E-01  0.51100000000E-03 0. -1.
</event>
<event>
 8    1  0.1128641E+005  0.1043930E+01  0.7957747E-01            NaN
         13   -1    0    0    0    0  0.00000000000E+00  0.00000000000E+00  0.74505805969E-08  0.10566000000E+00  0.10566000000E+00 0. -1.
     999900   -1    0    0    0    0 -0.00000000000E+00 -0.00000000000E+00 -0.74505805969E-08  0.93827000000E+00  0.93827000000E+00 0.  1.
     999902    2    1    2    0    0 -0.16488333054E-01  0.11991093832E-01 -0.22718310211E-01  0.10134050417E+01  0.10129452135E+01 0.  0.
     999903    2    3    3    0    0 -0.60574550375E-01 -0.10442976726E+00  0.19179055168E-01  0.12365631278E+00  0.18659986349E-01 0.  0.
         14    1    1    2    0    0  0.16488333054E-01 -0.11991093832E-01  0.22718310211E-01  0.30524958264E-01  0.00000000000E+00 0. -1.
     999901    1    3    3    0    0  0.44086217321E-01  0.11642086109E+00 -0.41897365379E-01  0.88974872896E+00  0.88000000000E+00 0. -1.
        -11    1    4    4    0    0 -0.33230812285E-01 -0.55412197652E-01  0.88898875899E-03  0.64620816737E-01  0.51100000000E-03 0. -1.
         11    1    4    4    0    0 -0.27343738089E-01 -0.49017569604E-01  0.18290066409E-01  0.59035496041E-01  0.51100000000E-03 0.  1.
</event>
<event>
 8    1  0.1128641E+005  0.1043930E+01  0.7957747E-01            NaN
         13   -1    0    0    0    0  0.00000000000E+00  0.00000000000E+00  0.74505805969E-08  0.10566000000E+00  0.10566000000E+00 0.  1.
     999900   -1    0    0    0    0 -0.00000000000E+00 -0.00000000000E+00 -0.74505805969E-08  0.93827000000E+00  0.93827000000E+00 0.  1.
     999902    2    1    2    0    0 -0.75826471736E-02  0.19841169124E-01 -0.11531349860E-01  0.10197610000E+01  0.10194745493E+01 0.  0.
     999903    2    3    3    0    0 -0.11074469926E+00  0.69707761277E-01  0.53062203871E-02  0.13217292565E+00  0.17831598447E-01 0.  0.
         14    1    1    2    0    0  0.75826471736E-02 -0.19841169124E-01  0.11531349860E-01  0.24168999979E-01  0.00000000000E+00 0.  1.
     999901    1    3    3    0    0  0.10316205208E+00 -0.49866592153E-01 -0.16837570247E-01  0.88758807438E+00  0.88000000000E+00 0.  1.
        -11    1    4    4    0    0 -0.39887809325E-01  0.34628921381E-01 -0.12087071289E-02  0.52838637593E-01  0.51100000000E-03 0.  1.
         11    1    4    4    0    0 -0.70856889931E-01  0.35078839896E-01  0.65149275160E-02  0.79334288052E-01  0.51100000000E-03 0. -1.
</event>
<event>
 8    1  0.1128641E+005  0.1043930E+01  0.7957747E-01            NaN
         13   -1    0    0    0    0  0.00000000000E+00  0.00000000000E+00  0.74505805969E-08  0.10566000000E+00  0.10566000000E+00 0. -1.
     999900   -1    0    0    0    0 -0.00000000000E+00 -0.00000000000E+00 -0.74505805969E-08  0.93827000000E+00  0.93827000000E+00 0. -1.
     999902    2    1    2    0    0  0.19890058264E-01 -0.13030046013E-01 -0.27805302791E-02  0.10199899109E+01  0.10197089244E+01 0.  0.
     999903    2    3    3    0    0  0.11737437891E+00 -0.34206454212E-02 -0.58598148418E-01  0.13279706838E+00  0.20319269938E-01 0.  0.
         14    1    1    2    0    0 -0.19890058264E-01  0.13030046013E-01  0.27805302791E-02  0.23940089087E-01  0.00000000000E+00 0.  1.
     999901    1    3    3    0    0 -0.97484320651E-01 -0.96094005918E-02  0.55817618139E-01  0.88719284254E+00  0.88000000000E+00 0. -1.
        -11    1    4    4    0    0  0.39807424732E-01  0.50230006599E-02 -0.28263343967E-01  0.49080946737E-01  0.51100000000E-03 0. -1.
         11    1    4    4    0    0  0.77566954183E-01 -0.84436460811E-02 -0.30334804451E-01  0.83716121640E-01  0.51100000000E-03 0.  1.
</event>
<event>
 8    1  0.1128641E+005  0.1043930E+01  0.7957747E-01            NaN
         13   -1    0    0    0    0  0.00000000000E+00  0.00000000000E+00  0.74505805969E-08  0.10566000000E+00  0.10566000000E+00 0.  1.
     999900   -1    0    0    0    0 -0.00000000000E+00 -0.00000000000E+00 -0.74505805969E-08  0.93827000000E+00  0.93827000000E+00 0.  1.
     999902    2    1    2    0    0 -0.21894372955E-01  0.48701364499E-02  0.71492322529E-02  0.10203886891E+01  0.10201170931E+01 0.  0.
     999903    2    3    3    0    0 -0.10435533618E+00  0.51343632579E-01  0.62544018573E-01  0.13358083020E+00  0.20146442362E-01 0.  0.
         14    1    1    2    0    0  0.21894372955E-01 -0.48701364499E-02 -0.71492322529E-02  0.23541310880E-01  0.00000000000E+00 0. -1.
     999901    1    3    3    0    0  0.82460963230E-01 -0.46473496129E-01 -0.55394786320E-01  0.88680785892E+00  0.88000000000E+00 0.  1.
        -11    1    4    4    0    0 -0.80445733066E-01  0.32094571133E-01  0.39500819804E-01  0.95195343116E-01  0.51100000000E-03 0. -1.
         11    1    4    4    0    0 -0.23909603119E-01  0.19249061445E-01  0.23043198769E-01  0.38385487080E-01  0.51100000000E-03 0.  1.
</event>
<event>
 8    1  0.1128641E+005  0.1043930E+01  0.7957747E-01            NaN
         13   -1    0    0    0    0  0.00000000000E+00  0.00000000000E+00  0.74505805969E-08  0.10566000000E+00  0.10566000000E+00 0.  1.
     999900   -1    0    0    0    0 -0.00000000000E+00 -0.00000000000E+00 -0.74505805969E-08  0.93827000000E+00  0.93827000000E+00 0.  1.
     999902    2    1    2    0    0 -0.11534727925E-01  0.10927516966E-01 -0.13885704665E-01  0.10228284984E+01  0.10226108076E+01 0.  0.
     999903    2    3    3    0    0  0.12642575888E+00  0.66311369747E-02 -0.32467377981E-01  0.13187573121E+00  0.17596401952E-01 0.  0.
         14    1    1    2    0    0  0.11534727925E-01 -0.10927516966E-01  0.13885704665E-01  0.21101501591E-01  0.00000000000E+00 0.  1.
     999901    1    3    3    0    0 -0.13796048681E+00  0.42963799913E-02  0.18581673316E-01  0.89095276720E+00  0.88000000000E+00 0. -1.
        -11    1    4    4    0    0  0.62534252374E-01  0.25827254775E-02 -0.25086719863E-01  0.67430021692E-01  0.51100000000E-03 0. -1.
         11    1    4    4    0    0  0.63891506509E-01  0.40484114972E-02 -0.73806581179E-02  0.64445709515E-01  0.51100000000E-03 0.  1.
</event>
<event>
 8    1  0.1128641E+005  0.1043930E+01  0.7957747E-01            NaN
         13   -1    0    0    0    0  0.00000000000E+00  0.00000000000E+00  0.74505805969E-08  0.10566000000E+00  0.10566000000E+00 0.  1.
     999900   -1    0    0    0    0 -0.00000000000E+00 -0.00000000000E+00 -0.74505805969E-08  0.93827000000E+00  0.93827000000E+00 0.  1.
     999902    2    1    2    0    0  0.64247907807E-02  0.29551721341E-02 -0.22592939615E-01  0.10202561347E+01  0.10199814353E+01 0.  0.
     999903    2    3    3    0    0 -0.10859481760E+00 -0.50293238099E-01  0.42910538336E-01  0.12876546780E+00  0.20420264201E-01 0.  0.
         14    1    1    2    0    0 -0.64247907807E-02 -0.29551721341E-02  0.22592939615E-01  0.23673865323E-01  0.00000000000E+00 0.  1.
     999901    1    3    3    0    0  0.11501960838E+00  0.53248410233E-01 -0.65503477951E-01  0.89149066688E+00  0.88000000000E+00 0. -1.
        -11    1    4    4    0    0 -0.82883780326E-01 -0.44567542163E-01  0.40012675270E-01  0.10226075571E+00  0.51100000000E-03 0.  1.
         11    1    4    4    0    0 -0.25711037271E-01 -0.57256959358E-02  0.28978630665E-02  0.26504712088E-01  0.51100000000E-03 0. -1.
</event>
<event>
 8    1  0.1128641E+005  0.1043930E+01  0.7957747E-01            NaN
         13   -1    0    0    0    0  0.00000000000E+00  0.00000000000E+00  0.74505805969E-08  0.10566000000E+00  0.10566000000E+00 0.  1.
     999900   -1    0    0    0    0 -0.00000000000E+00 -0.00000000000E+00 -0.74505805969E-08  0.93827000000E+00  0.93827000000E+00 0. -1.
     999902    2    1    2    0    0 -0.17283235370E-01  0.16293568329E-01  0.53848298270E-02  0.10195745697E+01  0.10192836289E+01 0.  0.
     999903    2    3    3    0    0 -0.40878510514E-01  0.87614345986E-01 -0.86970576555E-01  0.13155829088E+00  0.19909205594E-01 0.  0.
         14    1    1    2    0    0  0.17283235370E-01 -0.16293568329E-01 -0.53848298270E-02  0.24355430319E-01  0.00000000000E+00 0. -1.
     999901    1    3    3    0    0  0.23595275144E-01 -0.71320777657E-01  0.92355406382E-01  0.88801627881E+00  0.88000000000E+00 0.  1.
        -11    1    4    4    0    0 -0.15964684683E-01  0.57206998035E-01 -0.52679848981E-01  0.79391053595E-01  0.51100000000E-03 0.  1.
         11    1    4    4    0    0 -0.24913825832E-01  0.30407347951E-01 -0.34290727575E-01  0.52167237281E-01  0.51100000000E-03 0. -1.
</event>
<event>
 8    1  0.1128641E+005  0.1043930E+01  0.7957747E-01            NaN
         13   -1    0    0    0    0  0.00000000000E+00  0.00000000000E+00  0.74505805969E-08  0.10566000000E+00  0.10566000000E+00 0. -1.
     999900   -1    0    0    0    0 -0.00000000000E+00 -0.00000000000E+00 -0.74505805969E-08  0.93827000000E+00  0.93827000000E+00 0. -1.
     999902    2    1    2    0    0  0.22940602777E-01  0.18407488387E-02  0.90167156056E-02  0.10192123793E+01  0.10189126132E+01 0.  0.
     999903    2    3    3    0    0 -0.82413010170E-01  0.58355129631E-01  0.77000240907E-01  0.12853004609E+00  0.19842133192E-01 0.  0.
         14    1    1    2    0    0 -0.22940602777E-01 -0.18407488387E-02 -0.90167156056E-02  0.24717620686E-01  0.00000000000E+00 0.  1.
     999901    1    3    3    0    0  0.10535361295E+00 -0.56514380792E-01 -0.67983525302E-01  0.89068233322E+00  0.88000000000E+00 0. -1.
        -11    1    4    4    0    0 -0.36818659943E-01  0.33420668566E-01  0.47516131465E-01  0.68779347757E-01  0.51100000000E-03 0. -1.
         11    1    4    4    0    0 -0.45594350226E-01  0.24934461065E-01  0.29484109442E-01  0.59750698337E-01  0.51100000000E-03 0.  1.
</event>
<event>
 7    1  0.1128641E+005  0.1043930E+01  0.7957747E-01            NaN
         13   -1    0    0    0    0  0.00000000000E+00  0.00000000000E+00  0.74505805969E-08  0.10566000000E+00  0.10566000000E+00 0. -1.
     999900   -1    0    0    0    0 -0.00000000000E+00 -0.00000000000E+00 -0.74505805969E-08  0.93827000000E+00  0.93827000000E+00 0. -1.
     999903    2    1    2    0    0  0.32074454635E-01 -0.69981909922E-03 -0.85071685584E-01  0.93025605822E-01  0.19680225191E-01 0.  0.
         14    1    1    2    0    0  0.27621354935E-01  0.70908209123E-02 -0.50993580784E-01  0.58425715835E-01  0.00000000000E+00 0.  1.
     999901    1    1    2    0    0 -0.59695809570E-01 -0.63910018130E-02  0.13606526637E+00  0.89247867834E+00  0.88000000000E+00 0.  1.
        -11    1    3    3    0    0  0.26844362315E-01 -0.16138519555E-02 -0.43721253695E-01  0.51332576906E-01  0.51100000000E-03 0. -1.
         11    1    3    3    0    0  0.52300923205E-02  0.91403285628E-03 -0.41350431890E-01  0.41693028916E-01  0.51100000000E-03 0.  1.
</event>
<event>
 8    1  0.1128641E+005  0.1043930E+01  0.7957747E-01            NaN
         13   -1    0    0    0    0  0.00000000000E+00  0.00000000000E+00  0.74505805969E-08  0.10566000000E+00  0.10566000000E+00 0. -1.
     999900   -1    0    0    0    0 -0.00000000000E+00 -0.00000000000E+00 -0.74505805969E-08  0.93827000000E+00  0.93827000000E+00 0.  1.
     999902    2    1    2    0    0  0.10939863023E-01 -0.21371991406E-01 -0.55974698230E-02  0.10192769213E+01  0.10189787378E+01 0.  0.
     999903    2    3    3    0    0  0.17329282670E-01  0.10159205951E+00  0.72084230100E-01  0.12731535881E+00  0.19794286251E-01 0.  0.
         14    1    1    2    0    0 -0.10939863023E-01  0.21371991406E-01  0.55974698230E-02  0.24653078673E-01  0.00000000000E+00 0. -1.
     999901    1    3    3    0    0 -0.63894196467E-02 -0.12296405091E+00 -0.77681699923E-01  0.89196156251E+00  0.88000000000E+00 0.  1.
        -11    1    4    4    0    0  0.11957467264E-01  0.75570407672E-01  0.42407191880E-01  0.87478560707E-01  0.51100000000E-03 0. -1.
         11    1    4    4    0    0  0.53718154058E-02  0.26021651833E-01  0.29677038220E-01  0.39836798106E-01  0.51100000000E-03 0.  1.
</event>
<event>
 8    1  0.1128641E+005  0.1043930E+01  0.7957747E-01            NaN
         13   -1    0    0    0    0  0.00000000000E+00  0.00000000000E+00  0.74505805969E-08  0.10566000000E+00  0.10566000000E+00 0. -1.
     999900   -1    0    0    0    0 -0.00000000000E+00 -0.00000000000E+00 -0.74505805969E-08  0.93827000000E+00  0.93827000000E+00 0.  1.
     999902    2    1    2    0    0  0.18219118581E-01 -0.15250892673E-01 -0.96039365720E-02  0.10183026395E+01  0.10179801098E+01 0.  0.
     999903    2    3    3    0    0 -0.75905858565E-01  0.98525703845E-01  0.45990752363E-03  0.12594289914E+00  0.19808802226E-01 0.  0.
         14    1    1    2    0    0 -0.18219118581E-01  0.15250892673E-01  0.96039365720E-02  0.25627360513E-01  0.00000000000E+00 0.  1.
     999901    1    3    3    0    0  0.94124977147E-01 -0.11377659652E+00 -0.10063844096E-01  0.89235974035E+00  0.88000000000E+00 0.  1.
        -11    1    4    4    0    0 -0.30669829131E-01  0.48521601715E-01 -0.80911654780E-02  0.57971651104E-01  0.51100000000E-03 0.  1.
         11    1    4    4    0    0 -0.45236029434E-01  0.50004102129E-01  0.85510730016E-02  0.67971248033E-01  0.51100000000E-03 0. -1.
</event>
<event>
 7    1  0.1128641E+005  0.1043930E+01  0.7957747E-01            NaN
         13   -1    0    0    0    0  0.00000000000E+00  0.00000000000E+00  0.74505805969E-08  0.10566000000E+00  0.10566000000E+00 0. -1.
     999900   -1    0    0    0    0 -0.00000000000E+00 -0.00000000000E+00 -0.74505805969E-08  0.93827000000E+00  0.93827000000E+00 0. -1.
     999903    2    1    2    0    0 -0.10563821692E+00 -0.20456021889E-01  0.33671296085E-01  0.11437328870E+00  0.19225277153E-01 0.  0.
         14    1    1    2    0    0 -0.28116783318E-01  0.53290136919E-02 -0.26929532563E-01  0.39295694613E-01  0.00000000000E+00 0.  1.
     999901    1    1    2    0    0  0.13375500024E+00  0.15127008197E-01 -0.67417635216E-02  0.89026101669E+00  0.88000000000E+00 0.  1.
        -11    1    3    3    0    0 -0.73864615612E-01 -0.21614792107E-01  0.28936651093E-01  0.82223911211E-01  0.51100000000E-03 0.  1.
         11    1    3    3    0    0 -0.31773601307E-01  0.11587702179E-02  0.47346449913E-02  0.32149377484E-01  0.51100000000E-03 0. -1.
</event>
<event>
 7    1  0.1128641E+005  0.1043930E+01  0.7957747E-01            NaN
         13   -1    0    0    0    0  0.00000000000E+00  0.00000000000E+00  0.74505805969E-08  0.10566000000E+00  0.10566000000E+00 0.  1.
     999900   -1    0    0    0    0 -0.00000000000E+00 -0.00000000000E+00 -0.74505805969E-08  0.93827000000E+00  0.93827000000E+00 0. -1.
     999903    2    1    2    0    0 -0.62491130050E-01 -0.27276055938E-01 -0.42793284140E-01  0.82715463209E-01  0.19012052070E-01 0.  0.
         14    1    1    2    0    0 -0.58634245460E-01  0.31377296033E-01  0.29646558402E-01  0.72810904898E-01  0.00000000000E+00 0.  1.
     999901    1    1    2    0    0  0.12112537551E+00 -0.41012400944E-02  0.13146725738E-01  0.88840363189E+00  0.88000000000E+00 0. -1.
        -11    1    3    3    0    0 -0.43576652170E-01 -0.13778995576E-01 -0.19132717364E-01  0.49549039629E-01  0.51100000000E-03 0.  1.
         11    1    3    3    0    0 -0.18914477879E-01 -0.13497060363E-01 -0.23660566776E-01  0.33166423580E-01  0.51100000000E-03 0. -1.
</event>
<event>
 8    1  0.1128641E+005  0.1043930E+01  0.7957747E-01            NaN
         13   -1    0    0    0    0  0.00000000000E+00  0.00000000000E+00  0.74505805969E-08  0.10566000000E+00  0.10566000000E+00 0.  1.
     999900   -1    0    0    0    0 -0.00000000000E+00 -0.00000000000E+00 -0.74505805969E-08  0.93827000000E+00  0.93827000000E+00 0.  1.
     999902    2    1    2    0    0  0.18391452520E-01 -0.81591040638E-02  0.11055119786E-01  0.10209728186E+01  0.10207146830E+01 0.  0.
     999903    2    3    3    0    0 -0.88476838557E-01  0.88497954028E-01  0.25460342419E-01  0.12913711121E+00  0.19186600196E-01 0.  0.
         14    1    1    2    0    0 -0.18391452520E-01  0.81591040638E-02 -0.11055119786E-01  0.22957181412E-01  0.00000000000E+00 0.  1.
     999901    1    3    3    0    0  0.10686829108E+00 -0.96657058092E-01 -0.14405222633E-01  0.89183570738E+00  0.88000000000E+00 0.  1.
        -11    1    4    4    0    0 -0.40992131187E-01  0.27796799259E-01  0.95702784022E-02  0.50446686888E-01  0.51100000000E-03 0. -1.
         11    1    4    4    0    0 -0.47484707370E-01  0.60701154769E-01  0.15890064016E-01  0.78690424320E-01  0.51100000000E-03 0.  1.
</event>
<event>
 8    1  0.1128641E+005  0.1043930E+01  0.7957747E-01            NaN
         13   -1    0    0    0    0  0.00000000000E+00  0.00000000000E+00  0.74505805969E-08  0.10566000000E+00  0.10566000000E+00 0.  1.
     999900   -1    0    0    0    0 -0.00000000000E+00 -0.00000000000E+00 -0.74505805969E-08  0.93827000000E+00  0.93827000000E+00 0.  1.
     999902    2    1    2    0    0  0.76259663475E-02  0.15960939208E-01  0.15167357542E-01  0.10206285906E+01  0.10203625652E+01 0.  0.
     999903    2    3    3    0    0  0.26541623916E-01  0.90642620880E-01 -0.88721371519E-01  0.13117481236E+00  0.20366814024E-01 0.  0.
         14    1    1    2    0    0 -0.76259663475E-02 -0.15960939208E-01 -0.15167357542E-01  0.23301409355E-01  0.00000000000E+00 0.  1.
     999901    1    3    3    0    0 -0.18915657568E-01 -0.74681681671E-01  0.10388872906E+00  0.88945377828E+00  0.88000000000E+00 0. -1.
        -11    1    4    4    0    0 -0.53512883904E-03  0.30977734747E-01 -0.31439810235E-01  0.44143280367E-01  0.51100000000E-03 0.  1.
         11    1    4    4    0    0  0.27076752755E-01  0.59664886133E-01 -0.57281561284E-01  0.87031531994E-01  0.51100000000E-03 0. -1.
</event>
<event>
 8    1  0.1128641E+005  0.1043930E+01  0.7957747E-01            NaN
         13   -1    0    0    0    0  0.00000000000E+00  0.00000000000E+00  0.74505805969E-08  0.10566000000E+00  0.10566000000E+00 0.  1.
     999900   -1    0    0    0    0 -0.00000000000E+00 -0.00000000000E+00 -0.74505805969E-08  0.93827000000E+00  0.93827000000E+00 0.  1.
     999902    2    1    2    0    0 -0.24137301579E-01 -0.35793285174E-02  0.34282233214E-02  0.10192891064E+01  0.10189912212E+01 0.  0.
     999903    2    3    3    0    0  0.10030435001E+00  0.47650666427E-01  0.59133834346E-01  0.12731749695E+00  0.19529107101E-01 0.  0.
         14    1    1    2    0    0  0.24137301579E-01  0.35793285174E-02 -0.34282233214E-02  0.24640893557E-01  0.00000000000E+00 0. -1.
     999901    1    3    3    0    0 -0.12444165159E+00 -0.51229994945E-01 -0.55705611024E-01  0.89197160949E+00  0.88000000000E+00 0.  1.
        -11    1    4    4    0    0  0.75200670613E-01  0.41847982812E-01  0.52102605843E-01  0.10060485666E+00  0.51100000000E-03 0.  1.
         11    1    4    4    0    0  0.25103679399E-01  0.58026836151E-02  0.70312285030E-02  0.26712640299E-01  0.51100000000E-03 0. -1.
</event>
<event>
 8    1  0.1128641E+005  0.1043930E+01  0.7957747E-01            NaN
         13   -1    0    0    0    0  0.00000000000E+00  0.00000000000E+00  0.74505805969E-08  0.10566000000E+00  0.10566000000E+00 0.  1.
     999900   -1    0    0    0    0 -0.00000000000E+00 -0.00000000000E+00 -0.74505805969E-08  0.93827000000E+00  0.93827000000E+00 0.  1.
     999902    2    1    2    0    0 -0.23169239788E-01  0.58183274355E-02 -0.13678090184E-03  0.10200409792E+01  0.10197612044E+01 0.  0.
     999903    2    3    3    0    0  0.11553086653E+00  0.51183006506E-01 -0.70993640259E-02  0.12799605253E+00  0.19118243090E-01 0.  0.
         14    1    1    2    0    0  0.23169239788E-01 -0.58183274355E-02  0.13678090184E-03  0.23889020815E-01  0.00000000000E+00 0. -1.
     999901    1    3    3    0    0 -0.13870010632E+00 -0.45364679070E-01  0.69625831240E-02  0.89204492665E+00  0.88000000000E+00 0. -1.
        -11    1    4    4    0    0  0.10020575682E+00  0.48846125942E-01 -0.10949438751E-01  0.11201468229E+00  0.51100000000E-03 0.  1.
         11    1    4    4    0    0  0.15325109712E-01  0.23368805636E-02  0.38500747254E-02  0.15981370243E-01  0.51100000000E-03 0. -1.
</event>
<event>
 8    1  0.1128641E+005  0.1043930E+01  0.7957747E-01            NaN
         13   -1    0    0    0    0  0.00000000000E+00  0.00000000000E+00  0.74505805969E-08  0.10566000000E+00  0.10566000000E+00 0.  1.
     999900   -1    0    0    0    0 -0.00000000000E+00 -0.00000000000E+00 -0.74505805969E-08  0.93827000000E+00  0.93827000000E+00 0.  1.
     999902    2    1    2    0    0  0.12820894271E-02 -0.52210960180E-02 -0.28223700633E-01  0.10151988170E+01  0.10147921744E+01 0.  0.
     999903    2    3    3    0    0 -0.15003507257E-01 -0.10032389307E+00 -0.76441960285E-01  0.12861280134E+00  0.20196302290E-01 0.  0.
         14    1    1    2    0    0 -0.12820894271E-02  0.52210960180E-02  0.28223700633E-01  0.28731182961E-01  0.00000000000E+00 0.  1.
     999901    1    3    3    0    0  0.16285596684E-01  0.95102797051E-01  0.48218259652E-01  0.88658601570E+00  0.88000000000E+00 0. -1.
        -11    1    4    4    0    0 -0.18953638815E-01 -0.63417001574E-01 -0.51905256271E-01  0.84115237992E-01  0.51100000000E-03 0.  1.
         11    1    4    4    0    0  0.39501315579E-02 -0.36906891495E-01 -0.24536704013E-01  0.44497563349E-01  0.51100000000E-03 0. -1.
</event>
<event>
 8    1  0.1128641E+005  0.1043930E+01  0.7957747E-01            NaN
         13   -1    0    0    0    0  0.00000000000E+00  0.00000000000E+00  0.74505805969E-08  0.10566000000E+00  0.10566000000E+00 0.  1.
     999900   -1    0    0    0    0 -0.00000000000E+00 -0.00000000000E+00 -0.74505805969E-08  0.93827000000E+00  0.93827000000E+00 0.  1.
     999902    2    1    2    0    0 -0.11780376292E-01  0.20434588242E-01 -0.65903129852E-02  0.10194395552E+01  0.10191453404E+01 0.  0.
     999903    2    3    3    0    0  0.95499074202E-02 -0.12498455521E+00  0.70569487100E-02  0.12714590618E+00  0.20098287511E-01 0.  0.
         14    1    1    2    0    0  0.11780376292E-01 -0.20434588242E-01  0.65903129852E-02  0.24490444819E-01  0.00000000000E+00 0. -1.
     999901    1    3    3    0    0 -0.21330283712E-01  0.14541914346E+00 -0.13647261695E-01  0.89229364900E+00  0.88000000000E+00 0.  1.
        -11    1    4    4    0    0  0.11071305716E-02 -0.88744320009E-01 -0.22662366380E-02  0.88781625472E-01  0.51100000000E-03 0. -1.
         11    1    4    4    0    0  0.84427768485E-02 -0.36240235205E-01  0.93231853481E-02  0.38364280713E-01  0.51100000000E-03 0.  1.
</event>
<event>
 8    1  0.1128641E+005  0.1043930E+01  0.7957747E-01            NaN
         13   -1    0    0    0    0  0.00000000000E+00  0.00000000000E+00  0.74505805969E-08  0.10566000000E+00  0.10566000000E+00 0.  1.
     999900   -1    0    0    0    0 -0.00000000000E+00 -0.00000000000E+00 -0.74505805969E-08  0.93827000000E+00  0.93827000000E+00 0. -1.
     999902    2    1    2    0    0 -0.12897730198E-01 -0.68634927222E-02  0.19957003121E-01  0.10191966025E+01  0.10188964489E+01 0.  0.
     999903    2    3    3    0    0  0.74672228102E-02  0.12111789953E+00  0.40235859947E-01  0.12947462343E+00  0.20480446355E-01 0.  0.
         14    1    1    2    0    0  0.12897730198E-01  0.68634927222E-02 -0.19957003121E-01  0.24733397465E-01  0.00000000000E+00 0. -1.
     999901    1    3    3    0    0 -0.20364953008E-01 -0.12798139225E+00 -0.20278856826E-01  0.88972197911E+00  0.88000000000E+00 0.  1.
        -11    1    4    4    0    0  0.90763011931E-02  0.32934600752E-01  0.17522640791E-01  0.38397541996E-01  0.51100000000E-03 0. -1.
         11    1    4    4    0    0 -0.16090783829E-02  0.88183298778E-01  0.22713219156E-01  0.91077081431E-01  0.51100000000E-03 0.  1.
</event>
<event>
 8    1  0.1128641E+005  0.1043930E+01  0.7957747E-01            NaN
         13   -1    0    0    0    0  0.00000000000E+00  0.00000000000E+00  0.74505805969E-08  0.10566000000E+00  0.10566000000E+00 0. -1.
     999900   -1    0    0    0    0 -0.00000000000E+00 -0.00000000000E+00 -0.74505805969E-08  0.93827000000E+00  0.93827000000E+00 0.  1.
     999902    2    1    2    0    0  0.85084984257E-02 -0.23506953366E-01 -0.20463613364E-02  0.10188469580E+01  0.10185381509E+01 0.  0.
     999903    2    3    3    0    0 -0.10940865641E+00  0.53073472812E-01  0.30359517329E-01  0.12709634372E+00  0.21088686062E-01 0.  0.
         14    1    1    2    0    0 -0.85084984257E-02  0.23506953366E-01  0.20463613364E-02  0.25083042015E-01  0.00000000000E+00 0. -1.
     999901    1    3    3    0    0  0.11791715483E+00 -0.76580426178E-01 -0.32405878666E-01  0.89175061427E+00  0.88000000000E+00 0.  1.
        -11    1    4    4    0    0 -0.47103113716E-01  0.12635660504E-01  0.72644447594E-02  0.49309193025E-01  0.51100000000E-03 0.  1.
         11    1    4    4    0    0 -0.62305542693E-01  0.40437812308E-01  0.23095072570E-01  0.77787150691E-01  0.51100000000E-03 0. -1.
</event>
<event>
 8    1  0.1128641E+005  0.1043930E+01  0.7957747E-01            NaN
         13   -1    0    0    0    0  0.00000000000E+00  0.00000000000E+00  0.74505805969E-08  0.10566000000E+00  0.10566000000E+00 0. -1.
     999900   -1    0    0    0    0 -0.00000000000E+00 -0.00000000000E+00 -0.74505805969E-08  0.93827000000E+00  0.93827000000E+00 0. -1.
     999902    2    1    2    0    0  0.18204033434E-01  0.10804445270E-01  0.10617230192E-01  0.10202477609E+01  0.10199728649E+01 0.  0.
     999903    2    3    3    0    0 -0.61633093646E-03 -0.10235267393E+00  0.78135080809E-01  0.13023798575E+00  0.19503649779E-01 0.  0.
         14    1    1    2    0    0 -0.18204033434E-01 -0.10804445270E-01 -0.10617230192E-01  0.23682239080E-01  0.00000000000E+00 0.  1.
     999901    1    3    3    0    0  0.18820364371E-01  0.11315711920E+00 -0.67517850616E-01  0.89000977517E+00  0.88000000000E+00 0. -1.
        -11    1    4    4    0    0  0.23204614889E-02 -0.21780435124E-01  0.78406747433E-02  0.23270350172E-01  0.51100000000E-03 0. -1.
         11    1    4    4    0    0 -0.29367924253E-02 -0.80572238811E-01  0.70294406065E-01  0.10696763558E+00  0.51100000000E-03 0.  1.
</event>
<event>
 7    1  0.1128641E+005  0.1043930E+01  0.7957747E-01            NaN
         13   -1    0    0    0    0  0.00000000000E+00  0.00000000000E+00  0.74505805969E-08  0.10566000000E+00  0.10566000000E+00 0.  1.
     999900   -1    0    0    0    0 -0.00000000000E+00 -0.00000000000E+00 -0.74505805969E-08  0.93827000000E+00  0.93827000000E+00 0. -1.
     999902    2    1    2    0    0  0.21442506833E-01  0.11583856084E-01  0.68105999083E-02  0.10186248406E+01  0.10183104707E+01 0.  0.
         14    1    1    2    0    0 -0.21442506833E-01 -0.11583856084E-01 -0.68105999083E-02  0.25305159399E-01  0.00000000000E+00 0.  1.
     999901    1    3    3    0    0  0.89669179902E-01 -0.58968803933E-01 -0.33613413436E-01  0.88715711304E+00  0.88000000000E+00 0.  1.
        -11    1    3    3    0    0 -0.55010610602E-01  0.80504764303E-01  0.11552528297E-01  0.98188117333E-01  0.51100000000E-03 0. -1.
         11    1    3    3    0    0 -0.13216062467E-01 -0.99521042859E-02  0.28871485048E-01  0.33279610225E-01  0.51100000000E-03 0.  1.
</event>
<event>
 8    1  0.1128641E+005  0.1043930E+01  0.7957747E-01            NaN
         13   -1    0    0    0    0  0.00000000000E+00  0.00000000000E+00  0.74505805969E-08  0.10566000000E+00  0.10566000000E+00 0.  1.
     999900   -1    0    0    0    0 -0.00000000000E+00 -0.00000000000E+00 -0.74505805969E-08  0.93827000000E+00  0.93827000000E+00 0. -1.
     999902    2    1    2    0    0  0.21285489790E-02  0.13211361650E-01  0.19844719497E-01  0.10199950112E+01  0.10197141458E+01 0.  0.
     999903    2    3    3    0    0  0.88725956476E-01 -0.31157781029E-02 -0.90823134021E-01  0.12869648641E+00  0.20783178642E-01 0.  0.
         14    1    1    2    0    0 -0.21285489790E-02 -0.13211361650E-01 -0.19844719497E-01  0.23934988810E-01  0.00000000000E+00 0. -1.
     999901    1    3    3    0    0 -0.86597407497E-01  0.16327139753E-01  0.11066785352E+00  0.89129852478E+00  0.88000000000E+00 0. -1.
        -11    1    4    4    0    0  0.43959885147E-01 -0.71766754820E-02 -0.57519280774E-01  0.72750979064E-01  0.51100000000E-03 0. -1.
         11    1    4    4    0    0  0.44766071329E-01  0.40608973791E-02 -0.33303853247E-01  0.55945507343E-01  0.51100000000E-03 0.  1.
</event>
<event>
 8    1  0.1128641E+005  0.1043930E+01  0.7957747E-01            NaN
         13   -1    0    0    0    0  0.00000000000E+00  0.00000000000E+00  0.74505805969E-08  0.10566000000E+00  0.10566000000E+00 0.  1.
     999900   -1    0    0    0    0 -0.00000000000E+00 -0.00000000000E+00 -0.74505805969E-08  0.93827000000E+00  0.93827000000E+00 0. -1.
     999902    2    1    2    0    0  0.16733280562E-01  0.53071494754E-02  0.15343459471E-01  0.10206149778E+01  0.10203486377E+01 0.  0.
     999903    2    3    3    0    0  0.10042362393E+00  0.31449869035E-01  0.80502325939E-01  0.13386067512E+00  0.19080287125E-01 0.  0.
         14    1    1    2    0    0 -0.16733280562E-01 -0.53071494754E-02 -0.15343459471E-01  0.23315022248E-01  0.00000000000E+00 0. -1.
     999901    1    3    3    0    0 -0.83690343365E-01 -0.26142719559E-01 -0.65158866468E-01  0.88675430263E+00  0.88000000000E+00 0. -1.
        -11    1    4    4    0    0  0.48951784789E-01  0.23031681993E-01  0.33394510511E-01  0.63578220034E-01  0.51100000000E-03 0.  1.
         11    1    4    4    0    0  0.51471839138E-01  0.84181870412E-02  0.47107815428E-01  0.70282455085E-01  0.51100000000E-03 0. -1.
</event>
<event>
 8    1  0.1341105E+005  0.1043930E+01  0.7957747E-01            NaN
         13   -1    0    0    0    0  0.00000000000E+00  0.00000000000E+00  0.74505805969E-08  0.10566000000E+00  0.10566000000E+00 0.  1.
     999900   -1    0    0    0    0 -0.00000000000E+00 -0.00000000000E+00 -0.74505805969E-08  0.93827000000E+00  0.93827000000E+00 0. -1.
     999902    2    1    2    0    0  0.19509535691E-01  0.70547713471E-02 -0.12015088833E-01  0.10199559694E+01  0.10196741761E+01 0.  0.
     999903    2    3    3    0    0 -0.87941028392E-01 -0.32073857879E-01 -0.87119915335E-01  0.12938457516E+00  0.19701061068E-01 0.  0.
         14    1    1    2    0    0 -0.19509535691E-01 -0.70547713471E-02  0.12015088833E-01  0.23974030560E-01  0.00000000000E+00 0.  1.
     999901    1    3    3    0    0  0.10745056408E+00  0.39128629226E-01  0.75104826502E-01  0.89057139428E+00  0.88000000000E+00 0.  1.
        -11    1    4    4    0    0 -0.47340358994E-01 -0.16898999343E-01 -0.33382235862E-01  0.60343355563E-01  0.51100000000E-03 0. -1.
         11    1    4    4    0    0 -0.40600669399E-01 -0.15174858536E-01 -0.53737679473E-01  0.69041219596E-01  0.51100000000E-03 0.  1.
</event>
<event>
 8    1  0.1128641E+005  0.1043930E+01  0.7957747E-01            NaN
         13   -1    0    0    0    0  0.00000000000E+00  0.00000000000E+00  0.74505805969E-08  0.10566000000E+00  0.10566000000E+00 0. -1.
     999900   -1    0    0    0    0 -0.00000000000E+00 -0.00000000000E+00 -0.74505805969E-08  0.93827000000E+00  0.93827000000E+00 0.  1.
     999902    2    1    2    0    0  0.25431251091E-02  0.20633305844E-01  0.10571202802E-01  0.10206072402E+01  0.10203407214E+01 0.  0.
     999903    2    3    3    0    0 -0.12537528326E+00  0.30142033045E-01  0.10678521819E-01  0.13130777063E+00  0.22365061835E-01 0.  0.
         14    1    1    2    0    0 -0.25431251091E-02 -0.20633305844E-01 -0.10571202802E-01  0.23322759787E-01  0.00000000000E+00 0.  1.
     999901    1    3    3    0    0  0.12791840836E+00 -0.95087272004E-02 -0.10731901628E-03  0.88929946959E+00  0.88000000000E+00 0. -1.
        -11    1    4    4    0    0 -0.11129679907E+00  0.19051473758E-01  0.10124451510E-01  0.11336975688E+00  0.51100000000E-03 0. -1.
         11    1    4    4    0    0 -0.14078484188E-01  0.11090559286E-01  0.55407030908E-03  0.17938013748E-01  0.51100000000E-03 0.  1.
</event>
<event>
 8    1  0.1128641E+005  0.1043930E+01  0.7957747E-01            NaN
         13   -1    0    0    0    0  0.00000000000E+00  0.00000000000E+00  0.74505805969E-08  0.10566000000E+00  0.10566000000E+00 0. -1.
     999900   -1    0    0    0    0 -0.00000000000E+00 -0.00000000000E+00 -0.74505805969E-08  0.93827000000E+00  0.93827000000E+00 0. -1.
     999902    2    1    2    0    0 -0.11465826693E-01 -0.23413206331E-01 -0.46319077953E-02  0.10174517451E+01  0.10171071505E+01 0.  0.
     999903    2    3    3    0    0 -0.48856267913E-01  0.63076732916E-01  0.96247959796E-01  0.12669066470E+00  0.20524268722E-01 0.  0.
         14    1    1    2    0    0  0.11465826693E-01  0.23413206331E-01  0.46319077953E-02  0.26478254895E-01  0.00000000000E+00 0. -1.
     999901    1    3    3    0    0  0.37390441220E-01 -0.86489939247E-01 -0.10087986759E+00  0.89076108041E+00  0.88000000000E+00 0. -1.
        -11    1    4    4    0    0 -0.15583399946E-01  0.36670557802E-01  0.44299057153E-01  0.59583888334E-01  0.51100000000E-03 0. -1.
         11    1    4    4    0    0 -0.33272867967E-01  0.26406175114E-01  0.51948902643E-01  0.67106776362E-01  0.51100000000E-03 0.  1.
</event>
<event>
 8    1  0.1128641E+005  0.1043930E+01  0.7957747E-01            NaN
         13   -1    0    0    0    0  0.00000000000E+00  0.00000000000E+00  0.74505805969E-08  0.10566000000E+00  0.10566000000E+00 0. -1.
     999900   -1    0    0    0    0 -0.00000000000E+00 -0.00000000000E+00 -0.74505805969E-08  0.93827000000E+00  0.93827000000E+00 0.  1.
     999902    2    1    2    0    0  0.63273860477E-02 -0.18582048249E-01 -0.13967253972E-01  0.10198382480E+01  0.10195536472E+01 0.  0.
     999903    2    3    3    0    0  0.64237556442E-02  0.50934281567E-01  0.11522763966E+00  0.12769260409E+00  0.19809758254E-01 0.  0.
         14    1    1    2    0    0 -0.63273860477E-02  0.18582048249E-01  0.13967253972E-01  0.24091752009E-01  0.00000000000E+00 0. -1.
     999901    1    3    3    0    0 -0.96369596450E-04 -0.69516329816E-01 -0.12919489363E+00  0.89214564390E+00  0.88000000000E+00 0.  1.
        -11    1    4    4    0    0 -0.37897088361E-02  0.32602193226E-01  0.82735915635E-01  0.89009874470E-01  0.51100000000E-03 0.  1.
         11    1    4    4    0    0  0.10213464480E-01  0.18332088342E-01  0.32491724022E-01  0.38682729617E-01  0.51100000000E-03 0. -1.
</event>
<event>
 8    1  0.1128641E+005  0.1043930E+01  0.7957747E-01            NaN
         13   -1    0    0    0    0  0.00000000000E+00  0.00000000000E+00  0.74505805969E-08  0.10566000000E+00  0.10566000000E+00 0. -1.
     999900   -1    0    0    0    0 -0.00000000000E+00 -0.00000000000E+00 -0.74505805969E-08  0.93827000000E+00  0.93827000000E+00 0.  1.
     999902    2    1    2    0    0 -0.11136753645E-01  0.36868620895E-02 -0.20565035707E-01  0.10202542544E+01  0.10199795110E+01 0.  0.
     999903    2    3    3    0    0 -0.82850486940E-03  0.28727855627E-01  0.12330119778E+00  0.12816075907E+00  0.19900218199E-01 0.  0.
         14    1    1    2    0    0  0.11136753645E-01 -0.36868620895E-02  0.20565035707E-01  0.23675745552E-01  0.00000000000E+00 0. -1.
     999901    1    3    3    0    0 -0.10308248775E-01 -0.25040993537E-01 -0.14386623348E+00  0.89209349537E+00  0.88000000000E+00 0.  1.
        -11    1    4    4    0    0  0.79406766328E-02  0.56698594678E-02  0.25866059898E-01  0.27649879338E-01  0.51100000000E-03 0. -1.
         11    1    4    4    0    0 -0.87691815022E-02  0.23057996159E-01  0.97435137878E-01  0.10051087974E+00  0.51100000000E-03 0.  1.
</event>
<event>
 8    1  0.1128641E+005  0.1043930E+01  0.7957747E-01            NaN
         13   -1    0    0    0    0  0.00000000000E+00  0.00000000000E+00  0.74505805969E-08  0.10566000000E+00  0.10566000000E+00 0. -1.
     999900   -1    0    0    0    0 -0.00000000000E+00 -0.00000000000E+00 -0.74505805969E-08  0.93827000000E+00  0.93827000000E+00 0. -1.
     999902    2    1    2    0    0 -0.23957347438E-01 -0.63489245346E-03  0.20150991228E-02  0.10198796734E+01  0.10195960622E+01 0.  0.
     999903    2    3    3    0    0  0.33204455564E-01  0.11078814596E+00  0.54668100867E-01  0.12945567115E+00  0.19839868558E-01 0.  0.
         14    1    1    2    0    0  0.23957347438E-01  0.63489245346E-03 -0.20150991228E-02  0.24050326592E-01  0.00000000000E+00 0.  1.
     999901    1    3    3    0    0 -0.57161803002E-01 -0.11142303842E+00 -0.52653001744E-01  0.89042400226E+00  0.88000000000E+00 0.  1.
        -11    1    4    4    0    0  0.18364042482E-01  0.30604706106E-01  0.14150935393E-01  0.38397866940E-01  0.51100000000E-03 0. -1.
         11    1    4    4    0    0  0.14840413083E-01  0.80183439857E-01  0.40517165474E-01  0.91057804205E-01  0.51100000000E-03 0.  1.
</event>
<event>
 8    1  0.1128641E+005  0.1043930E+01  0.7957747E-01            NaN
         13   -1    0    0    0    0  0.00000000000E+00  0.00000000000E+00  0.74505805969E-08  0.10566000000E+00  0.10566000000E+00 0. -1.
     999900   -1    0    0    0    0 -0.00000000000E+00 -0.00000000000E+00 -0.74505805969E-08  0.93827000000E+00  0.93827000000E+00 0.  1.
     999902    2    1    2    0    0  0.23358042270E-01 -0.13278912753E-02  0.27257220255E-02  0.10203759983E+01  0.10201041060E+01 0.  0.
     999903    2    3    3    0    0  0.15829205427E-01 -0.96346396697E-01 -0.84814305736E-01  0.13091073413E+00  0.20272196556E-01 0.  0.
         14    1    1    2    0    0 -0.23358042270E-01  0.13278912753E-02 -0.27257220255E-02  0.23554001666E-01  0.00000000000E+00 0.  1.
     999901    1    3    3    0    0  0.75288368429E-02  0.95018505422E-01  0.87540027762E-01  0.88946526420E+00  0.88000000000E+00 0. -1.
        -11    1    4    4    0    0 -0.25085972733E-02 -0.17372741769E-01 -0.23108711306E-01  0.29023763989E-01  0.51100000000E-03 0. -1.
         11    1    4    4    0    0  0.18337802700E-01 -0.78973654928E-01 -0.61705594431E-01  0.10188697015E+00  0.51100000000E-03 0.  1.
</event>
<event>
 8    1  0.1128641E+005  0.1043930E+01  0.7957747E-01            NaN
         13   -1    0    0    0    0  0.00000000000E+00  0.00000000000E+00  0.74505805969E-08  0.10566000000E+00  0.10566000000E+00 0. -1.
     999900   -1    0    0    0    0 -0.00000000000E+00 -0.00000000000E+00 -0.74505805969E-08  0.93827000000E+00  0.93827000000E+00 0. -1.
     999902    2    1    2    0    0  0.19069956627E-01 -0.12429965348E-01 -0.87979041867E-02  0.10195256889E+01  0.10192335649E+01 0.  0.
     999903    2    3    3    0    0  0.72634942401E-01 -0.10598448134E+00 -0.22152013551E-01  0.13284649805E+00  0.25474206515E-01 0.  0.
         14    1    1    2    0    0 -0.19069956627E-01  0.12429965348E-01  0.87979041867E-02  0.24404311143E-01  0.00000000000E+00 0.  1.
     999901    1    3    3    0    0 -0.53564985774E-01  0.93554515997E-01  0.13354109364E-01  0.88667919080E+00  0.88000000000E+00 0.  1.
        -11    1    4    4    0    0  0.29556830112E-01 -0.34052946430E-01 -0.19022991441E-01  0.48942258746E-01  0.51100000000E-03 0.  1.
         11    1    4    4    0    0  0.43078112290E-01 -0.71931534914E-01 -0.31290221095E-02  0.83904239308E-01  0.51100000000E-03 0. -1.
</event>
<event>
 8    1  0.1128641E+005  0.1043930E+01  0.7957747E-01            NaN
         13   -1    0    0    0    0  0.00000000000E+00  0.00000000000E+00  0.74505805969E-08  0.10566000000E+00  0.10566000000E+00 0. -1.
     999900   -1    0    0    0    0 -0.00000000000E+00 -0.00000000000E+00 -0.74505805969E-08  0.93827000000E+00  0.93827000000E+00 0.  1.
     999902    2    1    2    0    0  0.46984941658E-02  0.21894495226E-01 -0.67357463185E-02  0.10205459232E+01  0.10202779848E+01 0.  0.
     999903    2    3    3    0    0  0.93517917934E-01 -0.20211217125E-01 -0.87882440356E-01  0.13136283352E+00  0.19462179591E-01 0.  0.
         14    1    1    2    0    0 -0.46984941658E-02 -0.21894495226E-01  0.67357463185E-02  0.23384076785E-01  0.00000000000E+00 0. -1.
     999901    1    3    3    0    0 -0.88819423768E-01  0.42105712351E-01  0.81146694038E-01  0.88918308970E+00  0.88000000000E+00 0. -1.
        -11    1    4    4    0    0  0.76276136273E-01 -0.84364727033E-02 -0.68370857722E-01  0.10278160508E+00  0.51100000000E-03 0. -1.
         11    1    4    4    0    0  0.17241781660E-01 -0.11774744422E-01 -0.19511582635E-01  0.28581228436E-01  0.51100000000E-03 0.  1.
</event>
<event>
 8    1  0.1128641E+005  0.1043930E+01  0.7957747E-01            NaN
         13   -1    0    0    0    0  0.00000000000E+00  0.00000000000E+00  0.74505805969E-08  0.10566000000E+00  0.10566000000E+00 0.  1.
     999900   -1    0    0    0    0 -0.00000000000E+00 -0.00000000000E+00 -0.74505805969E-08  0.93827000000E+00  0.93827000000E+00 0.  1.
     999902    2    1    2    0    0 -0.14351360831E-01  0.11652789357E-01  0.14780896347E-01  0.10202609494E+01  0.10199863631E+01 0.  0.
     999903    2    3    3    0    0  0.11262268583E+00  0.30156044197E-01 -0.50637468632E-01  0.12855228545E+00  0.19190635724E-01 0.  0.
         14    1    1    2    0    0  0.14351360831E-01 -0.11652789357E-01 -0.14780896347E-01  0.23669050558E-01  0.00000000000E+00 0.  1.
     999901    1    3    3    0    0 -0.12697404666E+00 -0.18503254840E-01  0.65418364979E-01  0.89170866399E+00  0.88000000000E+00 0. -1.
        -11    1    4    4    0    0  0.66114320635E-01  0.19093922051E-01 -0.39915346169E-01  0.79556126308E-01  0.51100000000E-03 0. -1.
         11    1    4    4    0    0  0.46508365194E-01  0.11062122146E-01 -0.10722122464E-01  0.48996159141E-01  0.51100000000E-03 0.  1.
</event>
<event>
 8    1  0.1128641E+005  0.1043930E+01  0.7957747E-01            NaN
         13   -1    0    0    0    0  0.00000000000E+00  0.00000000000E+00  0.74505805969E-08  0.10566000000E+00  0.10566000000E+00 0. -1.
     999900   -1    0    0    0    0 -0.00000000000E+00 -0.00000000000E+00 -0.74505805969E-08  0.93827000000E+00  0.93827000000E+00 0.  1.
     999902    2    1    2    0    0  0.11526614418E-01  0.21395815049E-01 -0.25190986261E-02  0.10194966294E+01  0.10192038009E+01 0.  0.
     999903    2    3    3    0    0  0.12435021591E+00  0.23024602156E-01  0.30595788869E-01  0.13167434212E+00  0.20221809374E-01 0.  0.
         14    1    1    2    0    0 -0.11526614418E-01 -0.21395815049E-01  0.25190986261E-02  0.24433370611E-01  0.00000000000E+00 0.  1.
     999901    1    3    3    0    0 -0.11282360149E+00 -0.16287871070E-02 -0.33114887495E-01  0.88782228727E+00  0.88000000000E+00 0. -1.
        -11    1    4    4    0    0  0.86405629955E-01  0.25037615270E-01  0.19034213497E-01  0.91953126487E-01  0.51100000000E-03 0. -1.
         11    1    4    4    0    0  0.37944585955E-01 -0.20130131144E-02  0.11561575372E-01  0.39721215631E-01  0.51100000000E-03 0.  1.
</event>
<event>
 8    1  0.1128641E+005  0.1043930E+01  0.7957747E-01            NaN
         13   -1    0    0    0    0  0.00000000000E+00  0.00000000000E+00  0.74505805969E-08  0.10566000000E+00  0.10566000000E+00 0.  1.
     999900   -1    0    0    0    0 -0.00000000000E+00 -0.00000000000E+00 -0.74505805969E-08  0.93827000000E+00  0.93827000000E+00 0. -1.
     999902    2    1    2    0    0  0.11469318455E-01  0.18019502425E-01  0.10025490624E-01  0.10203342759E+01  0.10200614081E+01 0.  0.
     999903    2    3    3    0    0  0.66779818518E-01  0.27890382029E-01 -0.10735191210E+00  0.13076463818E+00  0.18372261617E-01 0.  0.
         14    1    1    2    0    0 -0.11469318455E-01 -0.18019502425E-01 -0.10025490624E-01  0.23595724098E-01  0.00000000000E+00 0. -1.
     999901    1    3    3    0    0 -0.55310500064E-01 -0.98708796046E-02  0.11737740272E+00  0.88956963772E+00  0.88000000000E+00 0.  1.
        -11    1    4    4    0    0  0.49296099240E-01  0.27733921532E-01 -0.74432107379E-01  0.93486231787E-01  0.51100000000E-03 0. -1.
         11    1    4    4    0    0  0.17483719279E-01  0.15646049703E-03 -0.32919804719E-01  0.37278406396E-01  0.51100000000E-03 0.  1.
</event>
<event>
 8    1  0.1128641E+005  0.1043930E+01  0.7957747E-01            NaN
         13   -1    0    0    0    0  0.00000000000E+00  0.00000000000E+00  0.74505805969E-08  0.10566000000E+00  0.10566000000E+00 0. -1.
     999900   -1    0    0    0    0 -0.00000000000E+00 -0.00000000000E+00 -0.74505805969E-08  0.93827000000E+00  0.93827000000E+00 0. -1.
     999902    2    1    2    0    0 -0.20456708237E-01  0.96441567333E-02 -0.80172858721E-02  0.10199349267E+01  0.10196526326E+01 0.  0.
     999903    2    3    3    0    0  0.26795244056E-01  0.12184221127E+00 -0.35033227192E-01  0.13114304355E+00  0.20190624346E-01 0.  0.
         14    1    1    2    0    0  0.20456708237E-01 -0.96441567333E-02  0.80172858721E-02  0.23995073322E-01  0.00000000000E+00 0. -1.
     999901    1    3    3    0    0 -0.47251952293E-01 -0.11219805454E+00  0.27015941320E-01  0.88879188313E+00  0.88000000000E+00 0.  1.
        -11    1    4    4    0    0  0.51149349938E-02  0.32496938909E-01 -0.41961724924E-03  0.32903659342E-01  0.51100000000E-03 0. -1.
         11    1    4    4    0    0  0.21680309063E-01  0.89345272362E-01 -0.34613609943E-01  0.98239384203E-01  0.51100000000E-03 0.  1.
</event>
<event>
 7    1  0.1128641E+005  0.1043930E+01  0.7957747E-01            NaN
         13   -1    0    0    0    0  0.00000000000E+00  0.00000000000E+00  0.74505805969E-08  0.10566000000E+00  0.10566000000E+00 0. -1.
     999900   -1    0    0    0    0 -0.00000000000E+00 -0.00000000000E+00 -0.74505805969E-08  0.93827000000E+00  0.93827000000E+00 0.  1.
     999902    2    1    2    0    0  0.11754116960E-01 -0.17612553911E-01 -0.10067508683E-01  0.10204839758E+01  0.10202145994E+01 0.  0.
         14    1    1    2    0    0 -0.11754116960E-01  0.17612553911E-01  0.10067508683E-01  0.23446024223E-01  0.00000000000E+00 0.  1.
     999901    1    3    3    0    0 -0.11171641200E+00  0.58332298119E-02 -0.19256175432E-01  0.88729103657E+00  0.88000000000E+00 0. -1.
        -11    1    3    3    0    0  0.57870092573E-01 -0.82223890251E-02 -0.17091955827E-01  0.60901160668E-01  0.51100000000E-03 0. -1.
         11    1    3    3    0    0  0.65600436390E-01 -0.15223394698E-01  0.26280622576E-01  0.72291778541E-01  0.51100000000E-03 0.  1.
</event>
<event>
 8    1  0.1128641E+005  0.1043930E+01  0.7957747E-01            NaN
         13   -1    0    0    0    0  0.00000000000E+00  0.00000000000E+00  0.74505805969E-08  0.10566000000E+00  0.10566000000E+00 0. -1.
     999900   -1    0    0    0    0 -0.00000000000E+00 -0.00000000000E+00 -0.74505805969E-08  0.93827000000E+00  0.93827000000E+00 0. -1.
     999902    2    1    2    0    0  0.36718191790E-02  0.21103133088E-02  0.22215008507E-01  0.10213149103E+01  0.10210644954E+01 0.  0.
     999903    2    3    3    0    0 -0.10854133827E-02 -0.35442142278E-01 -0.12223254346E+00  0.12873555057E+00  0.19357782081E-01 0.  0.
         14    1    1    2    0    0 -0.36718191790E-02 -0.21103133088E-02 -0.22215008507E-01  0.22615089682E-01  0.00000000000E+00 0.  1.
     999901    1    3    3    0    0  0.47572325616E-02  0.37552455586E-01  0.14444755197E+00  0.89257935975E+00  0.88000000000E+00 0.  1.
        -11    1    4    4    0    0  0.64613270258E-02 -0.14948415115E-01 -0.32159212816E-01  0.36051074205E-01  0.51100000000E-03 0.  1.
         11    1    4    4    0    0 -0.75467404085E-02 -0.20493727163E-01 -0.90073330647E-01  0.92684476363E-01  0.51100000000E-03 0. -1.
</event>
<event>
 8    1  0.1128641E+005  0.1043930E+01  0.7957747E-01            NaN
         13   -1    0    0    0    0  0.00000000000E+00  0.00000000000E+00  0.74505805969E-08  0.10566000000E+00  0.10566000000E+00 0. -1.
     999900   -1    0    0    0    0 -0.00000000000E+00 -0.00000000000E+00 -0.74505805969E-08  0.93827000000E+00  0.93827000000E+00 0.  1.
     999902    2    1    2    0    0 -0.20659260991E-01 -0.65269489664E-03 -0.12458160205E-01  0.10197962719E+01  0.10195106666E+01 0.  0.
     999903    2    3    3    0    0 -0.40546102070E-01 -0.12234903944E+00  0.11411890454E-01  0.13087824081E+00  0.19636925111E-01 0.  0.
         14    1    1    2    0    0  0.20659260991E-01  0.65269489664E-03  0.12458160205E-01  0.24133728080E-01  0.00000000000E+00 0. -1.
     999901    1    3    3    0    0  0.19886841079E-01  0.12169634454E+00 -0.23870050658E-01  0.88891803112E+00  0.88000000000E+00 0.  1.
        -11    1    4    4    0    0 -0.23845489451E-01 -0.53633060182E-01 -0.27265993457E-02  0.58760598845E-01  0.51100000000E-03 0.  1.
         11    1    4    4    0    0 -0.16700612620E-01 -0.68715979257E-01  0.14138489799E-01  0.72117641960E-01  0.51100000000E-03 0. -1.
</event>
<event>
 8    1  0.1128641E+005  0.1043930E+01  0.7957747E-01            NaN
         13   -1    0    0    0    0  0.00000000000E+00  0.00000000000E+00  0.74505805969E-08  0.10566000000E+00  0.10566000000E+00 0.  1.
     999900   -1    0    0    0    0 -0.00000000000E+00 -0.00000000000E+00 -0.74505805969E-08  0.93827000000E+00  0.93827000000E+00 0. -1.
     999902    2    1    2    0    0 -0.50522308946E-02  0.43329655981E-02  0.22783053294E-01  0.10201946436E+01  0.10199184985E+01 0.  0.
     999903    2    3    3    0    0 -0.61413058794E-01  0.87073659468E-01 -0.71230749186E-01  0.12954254515E+00  0.18816625928E-01 0.  0.
         14    1    1    2    0    0  0.50522308946E-02 -0.43329655981E-02 -0.22783053294E-01  0.23735356439E-01  0.00000000000E+00 0. -1.
     999901    1    3    3    0    0  0.56360827900E-01 -0.82740693869E-01  0.94013802480E-01  0.89065209841E+00  0.88000000000E+00 0.  1.
        -11    1    4    4    0    0 -0.33375664610E-01  0.62744149026E-01 -0.47391315785E-01  0.85422252124E-01  0.51100000000E-03 0.  1.
         11    1    4    4    0    0 -0.28037394184E-01  0.24329510442E-01 -0.23839433401E-01  0.44120293028E-01  0.51100000000E-03 0. -1.
</event>
<event>
 8    1  0.1128641E+005  0.1043930E+01  0.7957747E-01            NaN
         13   -1    0    0    0    0  0.00000000000E+00  0.00000000000E+00  0.74505805969E-08  0.10566000000E+00  0.10566000000E+00 0. -1.
     999900   -1    0    0    0    0 -0.00000000000E+00 -0.00000000000E+00 -0.74505805969E-08  0.93827000000E+00  0.93827000000E+00 0. -1.
     999902    2    1    2    0    0  0.11181168730E-02 -0.15486201937E-01  0.17636784997E-01  0.10204325784E+01  0.10201620059E+01 0.  0.
     999903    2    3    3    0    0 -0.12508914835E-01  0.11143344270E+00  0.62549871009E-01  0.13008911802E+00  0.20899932122E-01 0.  0.
         14    1    1    2    0    0 -0.11181168730E-02  0.15486201937E-01 -0.17636784997E-01  0.23497421577E-01  0.00000000000E+00 0.  1.
     999901    1    3    3    0    0  0.13627031708E-01 -0.12691964463E+00 -0.44913086013E-01  0.89034346040E+00  0.88000000000E+00 0. -1.
        -11    1    4    4    0    0 -0.81426437991E-02  0.10796725580E+00  0.57740994655E-01  0.12270906469E+00  0.51100000000E-03 0. -1.
         11    1    4    4    0    0 -0.43662710357E-02  0.34661868999E-02  0.48088763547E-02  0.73800533316E-02  0.51100000000E-03 0.  1.
</event>
<event>
 8    1  0.1128641E+005  0.1043930E+01  0.7957747E-01            NaN
         13   -1    0    0    0    0  0.00000000000E+00  0.00000000000E+00  0.74505805969E-08  0.10566000000E+00  0.10566000000E+00 0. -1.
     999900   -1    0    0    0    0 -0.00000000000E+00 -0.00000000000E+00 -0.74505805969E-08  0.93827000000E+00  0.93827000000E+00 0.  1.
     999902    2    1    2    0    0 -0.18589828177E-01  0.25096199054E-02 -0.10682066647E-01  0.10223432807E+01  0.10221153541E+01 0.  0.
     999903    2    3    3    0    0 -0.10069478473E+00  0.85274109321E-01 -0.13668236840E-01  0.13464958247E+00  0.23077607527E-01 0.  0.
         14    1    1    2    0    0  0.18589828177E-01 -0.25096199054E-02  0.10682066647E-01  0.21586719333E-01  0.00000000000E+00 0. -1.
     999901    1    3    3    0    0  0.82104956555E-01 -0.82764489416E-01  0.29861701930E-02  0.88769369819E+00  0.88000000000E+00 0. -1.
        -11    1    4    4    0    0 -0.80094575051E-01  0.71425102921E-01 -0.19674253945E-01  0.10910556205E+00  0.51100000000E-03 0.  1.
         11    1    4    4    0    0 -0.20600209681E-01  0.13849006401E-01  0.60060171048E-02  0.25544020428E-01  0.51100000000E-03 0. -1.
</event>
<event>
 8    1  0.1128641E+005  0.1043930E+01  0.7957747E-01            NaN
         13   -1    0    0    0    0  0.00000000000E+00  0.00000000000E+00  0.74505805969E-08  0.10566000000E+00  0.10566000000E+00 0. -1.
     999900   -1    0    0    0    0 -0.00000000000E+00 -0.00000000000E+00 -0.74505805969E-08  0.93827000000E+00  0.93827000000E+00 0.  1.
     999902    2    1    2    0    0  0.12383571456E-01 -0.10286646553E-01  0.17907987497E-01  0.10198496355E+01  0.10195653069E+01 0.  0.
     999903    2    3    3    0    0  0.45303451153E-01 -0.11247387488E+00  0.49822648048E-01  0.13275071559E+00  0.20920827279E-01 0.  0.
         14    1    1    2    0    0 -0.12383571456E-01  0.10286646553E-01 -0.17907987497E-01  0.24080364522E-01  0.00000000000E+00 0.  1.
     999901    1    3    3    0    0 -0.32919879697E-01  0.10218722833E+00 -0.31914660551E-01  0.88709891989E+00  0.88000000000E+00 0.  1.
        -11    1    4    4    0    0  0.17132018915E-01 -0.30577411478E-01  0.23609334355E-01  0.42262820002E-01  0.51100000000E-03 0. -1.
         11    1    4    4    0    0  0.28171432238E-01 -0.81896463401E-01  0.26213313693E-01  0.90487895586E-01  0.51100000000E-03 0.  1.
</event>
<event>
 8    1  0.1128641E+005  0.1043930E+01  0.7957747E-01            NaN
         13   -1    0    0    0    0  0.00000000000E+00  0.00000000000E+00  0.74505805969E-08  0.10566000000E+00  0.10566000000E+00 0. -1.
     999900   -1    0    0    0    0 -0.00000000000E+00 -0.00000000000E+00 -0.74505805969E-08  0.93827000000E+00  0.93827000000E+00 0. -1.
     999902    2    1    2    0    0  0.51586425132E-02 -0.18075571971E-01 -0.14481773699E-01  0.10202011217E+01  0.10199251292E+01 0.  0.
     999903    2    3    3    0    0  0.98689342261E-01  0.12423056605E-01 -0.83977782629E-01  0.13199627295E+00  0.21836425642E-01 0.  0.
         14    1    1    2    0    0 -0.51586425132E-02  0.18075571971E-01  0.14481773699E-01  0.23728878274E-01  0.00000000000E+00 0. -1.
     999901    1    3    3    0    0 -0.93530699748E-01 -0.30498628576E-01  0.69496008930E-01  0.88820484878E+00  0.88000000000E+00 0.  1.
        -11    1    4    4    0    0  0.43675978028E-01  0.10357183531E-01 -0.50476120919E-01  0.67549701787E-01  0.51100000000E-03 0.  1.
         11    1    4    4    0    0  0.55013364234E-01  0.20658730741E-02 -0.33501661710E-01  0.64446571159E-01  0.51100000000E-03 0. -1.
</event>
<event>
 8    1  0.1128641E+005  0.1043930E+01  0.7957747E-01            NaN
         13   -1    0    0    0    0  0.00000000000E+00  0.00000000000E+00  0.74505805969E-08  0.10566000000E+00  0.10566000000E+00 0. -1.
     999900   -1    0    0    0    0 -0.00000000000E+00 -0.00000000000E+00 -0.74505805969E-08  0.93827000000E+00  0.93827000000E+00 0.  1.
     999902    2    1    2    0    0 -0.24693321697E-02  0.22538193003E-01 -0.46979088989E-02  0.10207753440E+01  0.10205126971E+01 0.  0.
     999903    2    3    3    0    0 -0.36678299795E-01  0.12290017454E+00 -0.32616231371E-01  0.13397084836E+00  0.20847519875E-01 0.  0.
         14    1    1    2    0    0  0.24693321697E-02 -0.22538193003E-01  0.46979088989E-02  0.23154655973E-01  0.00000000000E+00 0.  1.
     999901    1    3    3    0    0  0.34208967626E-01 -0.10036198153E+00  0.27918322472E-01  0.88680449567E+00  0.88000000000E+00 0. -1.
        -11    1    4    4    0    0 -0.28510773426E-01  0.11511755658E+00 -0.30816562718E-01  0.12253504679E+00  0.51100000000E-03 0.  1.
         11    1    4    4    0    0 -0.81675263687E-02  0.77826179615E-02 -0.17996686529E-02  0.11435801571E-01  0.51100000000E-03 0. -1.
</event>
<event>
 8    1  0.1128641E+005  0.1043930E+01  0.7957747E-01            NaN
         13   -1    0    0    0    0  0.00000000000E+00  0.00000000000E+00  0.74505805969E-08  0.10566000000E+00  0.10566000000E+00 0. -1.
     999900   -1    0    0    0    0 -0.00000000000E+00 -0.00000000000E+00 -0.74505805969E-08  0.93827000000E+00  0.93827000000E+00 0. -1.
     999902    2    1    2    0    0 -0.15657316598E-01  0.89244929851E-02 -0.10989555854E-01  0.10228215070E+01  0.10226036704E+01 0.  0.
     999903    2    3    3    0    0 -0.11241265385E+00 -0.67273111180E-01  0.18508972243E-01  0.13375579891E+00  0.19640658216E-01 0.  0.
         14    1    1    2    0    0  0.15657316598E-01 -0.89244929851E-02  0.10989555854E-01  0.21108492982E-01  0.00000000000E+00 0. -1.
     999901    1    3    3    0    0  0.96755337256E-01  0.76197604165E-01 -0.29498528097E-01  0.88906570810E+00  0.88000000000E+00 0. -1.
        -11    1    4    4    0    0 -0.57551178458E-01 -0.32588320376E-01  0.19110397038E-01  0.68844790382E-01  0.51100000000E-03 0. -1.
         11    1    4    4    0    0 -0.54861475396E-01 -0.34684790804E-01 -0.60142479514E-03  0.64911008531E-01  0.51100000000E-03 0.  1.
</event>
<event>
 8    1  0.1128641E+005  0.1043930E+01  0.7957747E-01            NaN
         13   -1    0    0    0    0  0.00000000000E+00  0.00000000000E+00  0.74505805969E-08  0.10566000000E+00  0.10566000000E+00 0. -1.
     999900   -1    0    0    0    0 -0.00000000000E+00 -0.00000000000E+00 -0.74505805969E-08  0.93827000000E+00  0.93827000000E+00 0. -1.
     999902    2    1    2    0    0  0.15084210019E-01  0.12560912705E-01  0.11403247547E-01  0.10212288112E+01  0.10209764644E+01 0.  0.
     999903    2    3    3    0    0  0.11481866050E-01  0.11389162593E+00  0.66412194615E-01  0.13370029073E+00  0.19027675700E-01 0.  0.
         14    1    1    2    0    0 -0.15084210019E-01 -0.12560912705E-01 -0.11403247547E-01  0.22701188834E-01  0.00000000000E+00 0.  1.
     999901    1    3    3    0    0  0.36023439683E-02 -0.10133071323E+00 -0.55008947069E-01  0.88752852043E+00  0.88000000000E+00 0. -1.
        -11    1    4    4    0    0 -0.49878800885E-02  0.39374347393E-01  0.24168885529E-01  0.46471650811E-01  0.51100000000E-03 0.  1.
         11    1    4    4    0    0  0.16469746139E-01  0.74517278541E-01  0.42243309086E-01  0.87228639921E-01  0.51100000000E-03 0. -1.
</event>
<event>
 8    1  0.1128641E+005  0.1043930E+01  0.7957747E-01            NaN
         13   -1    0    0    0    0  0.00000000000E+00  0.00000000000E+00  0.74505805969E-08  0.10566000000E+00  0.10566000000E+00 0.  1.
     999900   -1    0    0    0    0 -0.00000000000E+00 -0.00000000000E+00 -0.74505805969E-08  0.93827000000E+00  0.93827000000E+00 0. -1.
     999902    2    1    2    0    0  0.19403942464E-01  0.51379106406E-02  0.12299090488E-01  0.10203889988E+01  0.10201174100E+01 0.  0.
     999903    2    3    3    0    0  0.17818479199E-01 -0.21878742622E-01  0.12785370214E+00  0.13242206166E+00  0.19820587365E-01 0.  0.
         14    1    1    2    0    0 -0.19403942464E-01 -0.51379106406E-02 -0.12299090488E-01  0.23541001163E-01  0.00000000000E+00 0. -1.
     999901    1    3    3    0    0  0.15854632652E-02  0.27016653262E-01 -0.11555461165E+00  0.88796693718E+00  0.88000000000E+00 0. -1.
        -11    1    4    4    0    0 -0.13257425185E-02 -0.11222295676E-02  0.42072340671E-01  0.42111280709E-01  0.51100000000E-03 0.  1.
         11    1    4    4    0    0  0.19144221718E-01 -0.20756513054E-01  0.85781361469E-01  0.90310780950E-01  0.51100000000E-03 0. -1.
</event>
<event>
 8    1  0.1128641E+005  0.1043930E+01  0.7957747E-01            NaN
         13   -1    0    0    0    0  0.00000000000E+00  0.00000000000E+00  0.74505805969E-08  0.10566000000E+00  0.10566000000E+00 0. -1.
     999900   -1    0    0    0    0 -0.00000000000E+00 -0.00000000000E+00 -0.74505805969E-08  0.93827000000E+00  0.93827000000E+00 0. -1.
     999902    2    1    2    0    0 -0.94663575725E-02  0.20711206985E-01 -0.14999074790E-01  0.10166621019E+01  0.10162963599E+01 0.  0.
     999903    2    3    3    0    0 -0.79611191000E-01 -0.80925065335E-01  0.48465261769E-01  0.12577605337E+00  0.24164562302E-01 0.  0.
         14    1    1    2    0    0  0.94663575725E-02 -0.20711206985E-01  0.14999074790E-01  0.27267898067E-01  0.00000000000E+00 0. -1.
     999901    1    3    3    0    0  0.70144833427E-01  0.10163627232E+00 -0.63464336559E-01  0.89088604856E+00  0.88000000000E+00 0.  1.
        -11    1    4    4    0    0 -0.63536143568E-01 -0.51330064644E-01  0.27918703556E-01  0.86321099420E-01  0.51100000000E-03 0.  1.
         11    1    4    4    0    0 -0.16075047432E-01 -0.29595000691E-01  0.20546558213E-01  0.39454953951E-01  0.51100000000E-03 0. -1.
</event>
<event>
 8    1  0.1128641E+005  0.1043930E+01  0.7957747E-01            NaN
         13   -1    0    0    0    0  0.00000000000E+00  0.00000000000E+00  0.74505805969E-08  0.10566000000E+00  0.10566000000E+00 0.  1.
     999900   -1    0    0    0    0 -0.00000000000E+00 -0.00000000000E+00 -0.74505805969E-08  0.93827000000E+00  0.93827000000E+00 0. -1.
     999902    2    1    2    0    0 -0.55316361811E-02  0.22840543427E-01 -0.41634304959E-02  0.10200632119E+01  0.10197839637E+01 0.  0.
     999903    2    3    3    0    0  0.12039411023E+00  0.25496419574E-01  0.37333250718E-01  0.13012707828E+00  0.19861412409E-01 0.  0.
         14    1    1    2    0    0  0.55316361811E-02 -0.22840543427E-01  0.41634304959E-02  0.23866788145E-01  0.00000000000E+00 0. -1.
     999901    1    3    3    0    0 -0.12592574641E+00 -0.26558761473E-02 -0.41496681214E-01  0.88993613357E+00  0.88000000000E+00 0. -1.
        -11    1    4    4    0    0  0.12698949007E-01  0.54524178547E-02 -0.14804011560E-02  0.13908446173E-01  0.51100000000E-03 0.  1.
         11    1    4    4    0    0  0.10769516123E+00  0.20044001720E-01  0.38813651874E-01  0.11621863211E+00  0.51100000000E-03 0. -1.
</event>
<event>
 8    1  0.1128641E+005  0.1043930E+01  0.7957747E-01            NaN
         13   -1    0    0    0    0  0.00000000000E+00  0.00000000000E+00  0.74505805969E-08  0.10566000000E+00  0.10566000000E+00 0. -1.
     999900   -1    0    0    0    0 -0.00000000000E+00 -0.00000000000E+00 -0.74505805969E-08  0.93827000000E+00  0.93827000000E+00 0.  1.
     999902    2    1    2    0    0  0.52225207800E-02 -0.16629204415E-01 -0.24665878012E-02  0.10263263294E+01  0.10261753482E+01 0.  0.
     999903    2    3    3    0    0  0.11412611846E+00  0.25683112542E-02 -0.72501662534E-01  0.13664467293E+00  0.19593581396E-01 0.  0.
         14    1    1    2    0    0 -0.52225207800E-02  0.16629204415E-01  0.24665878012E-02  0.17603670588E-01  0.00000000000E+00 0.  1.
     999901    1    3    3    0    0 -0.10890359768E+00 -0.19197515669E-01  0.70035074733E-01  0.88968165649E+00  0.88000000000E+00 0.  1.
        -11    1    4    4    0    0  0.69874442677E-01 -0.15864802966E-02 -0.33488821133E-01  0.77503012335E-01  0.51100000000E-03 0. -1.
         11    1    4    4    0    0  0.44251675781E-01  0.41547915507E-02 -0.39012841401E-01  0.59141660591E-01  0.51100000000E-03 0.  1.
</event>
<event>
 8    1  0.1128641E+005  0.1043930E+01  0.7957747E-01            NaN
         13   -1    0    0    0    0  0.00000000000E+00  0.00000000000E+00  0.74505805969E-08  0.10566000000E+00  0.10566000000E+00 0. -1.
     999900   -1    0    0    0    0 -0.00000000000E+00 -0.00000000000E+00 -0.74505805969E-08  0.93827000000E+00  0.93827000000E+00 0. -1.
     999902    2    1    2    0    0  0.17546957498E-01 -0.57927886217E-02  0.14611704867E-01  0.10203725376E+01  0.10201005643E+01 0.  0.
     999903    2    3    3    0    0 -0.40514552026E-01 -0.50476885343E-02  0.12313876383E+00  0.13180637987E+00  0.23299324738E-01 0.  0.
         14    1    1    2    0    0 -0.17546957498E-01  0.57927886217E-02 -0.14611704867E-01  0.23557462439E-01  0.00000000000E+00 0. -1.
     999901    1    3    3    0    0  0.58061509524E-01 -0.74510008742E-03 -0.10852705896E+00  0.88856615769E+00  0.88000000000E+00 0. -1.
        -11    1    4    4    0    0 -0.33713247893E-01  0.25560359845E-02  0.70549616895E-01  0.78234429559E-01  0.51100000000E-03 0. -1.
         11    1    4    4    0    0 -0.68013041326E-02 -0.76037245188E-02  0.52589146931E-01  0.53571950314E-01  0.51100000000E-03 0.  1.
</event>
<event>
 8    1  0.1128641E+005  0.1043930E+01  0.7957747E-01            NaN
         13   -1    0    0    0    0  0.00000000000E+00  0.00000000000E+00  0.74505805969E-08  0.10566000000E+00  0.10566000000E+00 0. -1.
     999900   -1    0    0    0    0 -0.00000000000E+00 -0.00000000000E+00 -0.74505805969E-08  0.93827000000E+00  0.93827000000E+00 0.  1.
     999902    2    1    2    0    0  0.39273254849E-02  0.17115624463E-01 -0.14891055698E-01  0.10209058382E+01  0.10206461769E+01 0.  0.
     999903    2    3    3    0    0  0.97134091520E-01 -0.79317616371E-01 -0.30444490814E-01  0.13060882007E+00  0.20136555233E-01 0.  0.
         14    1    1    2    0    0 -0.39273254849E-02 -0.17115624463E-01  0.14891055698E-01  0.23024161787E-01  0.00000000000E+00 0. -1.
     999901    1    3    3    0    0 -0.93206766035E-01  0.96433240834E-01  0.15553435117E-01  0.89029701814E+00  0.88000000000E+00 0. -1.
        -11    1    4    4    0    0  0.27705858277E-01 -0.22253703937E-01 -0.18131558851E-01  0.39898076008E-01  0.51100000000E-03 0.  1.
         11    1    4    4    0    0  0.69428233242E-01 -0.57063912434E-01 -0.12312931963E-01  0.90710744060E-01  0.51100000000E-03 0. -1.
</event>
<event>
 8    1  0.1128641E+005  0.1043930E+01  0.7957747E-01            NaN
         13   -1    0    0    0    0  0.00000000000E+00  0.00000000000E+00  0.74505805969E-08  0.10566000000E+00  0.10566000000E+00 0. -1.
     999900   -1    0    0    0    0 -0.00000000000E+00 -0.00000000000E+00 -0.74505805969E-08  0.93827000000E+00  0.93827000000E+00 0.  1.
     999902    2    1    2    0    0  0.79727135156E-02 -0.20990649516E-01 -0.70366146403E-02  0.10203994778E+01  0.10201281336E+01 0.  0.
     999903    2    3    3    0    0  0.52409887967E-01  0.78466336321E-01 -0.87156008695E-01  0.13007062184E+00  0.20455672130E-01 0.  0.
         14    1    1    2    0    0 -0.79727135156E-02  0.20990649516E-01  0.70366146403E-02  0.23530522168E-01  0.00000000000E+00 0.  1.
     999901    1    3    3    0    0 -0.44437174452E-01 -0.99456985837E-01  0.80119394055E-01  0.89032885599E+00  0.88000000000E+00 0.  1.
        -11    1    4    4    0    0  0.36957992788E-01  0.69169679891E-01 -0.68672942319E-01  0.10424285095E+00  0.51100000000E-03 0. -1.
         11    1    4    4    0    0  0.15451895179E-01  0.92966564303E-02 -0.18483066377E-01  0.25827770889E-01  0.51100000000E-03 0.  1.
</event>
<event>
 8    1  0.1128641E+005  0.1043930E+01  0.7957747E-01            NaN
         13   -1    0    0    0    0  0.00000000000E+00  0.00000000000E+00  0.74505805969E-08  0.10566000000E+00  0.10566000000E+00 0. -1.
     999900   -1    0    0    0    0 -0.00000000000E+00 -0.00000000000E+00 -0.74505805969E-08  0.93827000000E+00  0.93827000000E+00 0.  1.
     999902    2    1    2    0    0 -0.20233130520E-01 -0.10722088444E-01 -0.73460221244E-02  0.10198819898E+01  0.10195984339E+01 0.  0.
     999903    2    3    3    0    0 -0.12972687565E+00  0.16365976317E-01  0.83165998694E-02  0.13254442094E+00  0.20048696761E-01 0.  0.
         14    1    1    2    0    0  0.20233130520E-01  0.10722088444E-01  0.73460221244E-02  0.24048010152E-01  0.00000000000E+00 0. -1.
     999901    1    3    3    0    0  0.10949374513E+00 -0.27088064761E-01 -0.15662621994E-01  0.88733756891E+00  0.88000000000E+00 0.  1.
        -11    1    4    4    0    0 -0.53305763807E-01  0.75616082251E-03  0.11253852122E-01  0.54488407417E-01  0.51100000000E-03 0.  1.
         11    1    4    4    0    0 -0.76421111841E-01  0.15609815494E-01 -0.29372522528E-02  0.78056013519E-01  0.51100000000E-03 0. -1.
</event>
<event>
 8    1  0.1128641E+005  0.1043930E+01  0.7957747E-01            NaN
         13   -1    0    0    0    0  0.00000000000E+00  0.00000000000E+00  0.74505805969E-08  0.10566000000E+00  0.10566000000E+00 0. -1.
     999900   -1    0    0    0    0 -0.00000000000E+00 -0.00000000000E+00 -0.74505805969E-08  0.93827000000E+00  0.93827000000E+00 0. -1.
     999902    2    1    2    0    0 -0.65356190050E-02 -0.82034122143E-02  0.21055302409E-01  0.10204069040E+01  0.10201357329E+01 0.  0.
     999903    2    3    3    0    0  0.49414838468E-01  0.11485822454E+00  0.29243357804E-01  0.13004649133E+00  0.20559132392E-01 0.  0.
         14    1    1    2    0    0  0.65356190050E-02  0.82034122143E-02 -0.21055302409E-01  0.23523096040E-01  0.00000000000E+00 0.  1.
     999901    1    3    3    0    0 -0.55950457473E-01 -0.12306163676E+00 -0.81880553943E-02  0.89036041263E+00  0.88000000000E+00 0. -1.
        -11    1    4    4    0    0  0.47747170736E-01  0.11302415290E+00  0.25171657880E-01  0.12525224522E+00  0.51100000000E-03 0.  1.
         11    1    4    4    0    0  0.16676677324E-02  0.18340716487E-02  0.40716999239E-02  0.47942461085E-02  0.51100000000E-03 0. -1.
</event>
<event>
 8    1  0.1128641E+005  0.1043930E+01  0.7957747E-01            NaN
         13   -1    0    0    0    0  0.00000000000E+00  0.00000000000E+00  0.74505805969E-08  0.10566000000E+00  0.10566000000E+00 0. -1.
     999900   -1    0    0    0    0 -0.00000000000E+00 -0.00000000000E+00 -0.74505805969E-08  0.93827000000E+00  0.93827000000E+00 0. -1.
     999902    2    1    2    0    0 -0.22811220837E-01  0.67232298802E-02  0.50987037203E-02  0.10196081909E+01  0.10193180626E+01 0.  0.
     999903    2    3    3    0    0  0.59152857514E-01  0.76360844263E-01  0.83837643031E-01  0.12957036701E+00  0.20728977997E-01 0.  0.
         14    1    1    2    0    0  0.22811220837E-01 -0.67232298802E-02 -0.50987037203E-02  0.24321809055E-01  0.00000000000E+00 0.  1.
     999901    1    3    3    0    0 -0.81964078351E-01 -0.69637614383E-01 -0.78738939310E-01  0.89003782394E+00  0.88000000000E+00 0. -1.
        -11    1    4    4    0    0  0.49892738014E-01  0.70668626918E-01  0.66555737975E-01  0.10914791576E+00  0.51100000000E-03 0.  1.
         11    1    4    4    0    0  0.92601195000E-02  0.56922173446E-02  0.17281905056E-01  0.20422451244E-01  0.51100000000E-03 0. -1.
</event>
<event>
 8    1  0.1128641E+005  0.1043930E+01  0.7957747E-01            NaN
         13   -1    0    0    0    0  0.00000000000E+00  0.00000000000E+00  0.74505805969E-08  0.10566000000E+00  0.10566000000E+00 0. -1.
     999900   -1    0    0    0    0 -0.00000000000E+00 -0.00000000000E+00 -0.74505805969E-08  0.93827000000E+00  0.93827000000E+00 0.  1.
     999902    2    1    2    0    0 -0.14085375351E-01 -0.11014604663E-01  0.16022680723E-01  0.10199207182E+01  0.10196380857E+01 0.  0.
     999903    2    3    3    0    0  0.24611592868E-01 -0.41642655258E-01 -0.11735590335E+00  0.12850309469E+00  0.20019891421E-01 0.  0.
         14    1    1    2    0    0  0.14085375351E-01  0.11014604663E-01 -0.16022680723E-01  0.24009281794E-01  0.00000000000E+00 0.  1.
     999901    1    3    3    0    0 -0.38696968219E-01  0.30628050594E-01  0.13337858407E+00  0.89141762352E+00  0.88000000000E+00 0. -1.
        -11    1    4    4    0    0  0.24548663303E-01 -0.30339535582E-01 -0.73609743240E-01  0.83317343393E-01  0.51100000000E-03 0. -1.
         11    1    4    4    0    0  0.62929564624E-04 -0.11303119676E-01 -0.43746160110E-01  0.45185751293E-01  0.51100000000E-03 0.  1.
</event>
<event>
 7    1  0.1128641E+005  0.1043930E+01  0.7957747E-01            NaN
         13   -1    0    0    0    0  0.00000000000E+00  0.00000000000E+00  0.74505805969E-08  0.10566000000E+00  0.10566000000E+00 0. -1.
     999900   -1    0    0    0    0 -0.00000000000E+00 -0.00000000000E+00 -0.74505805969E-08  0.93827000000E+00  0.93827000000E+00 0. -1.
     999903    2    1    2    0    0  0.60538384543E-01 -0.13186709079E-02 -0.95008087870E-01  0.11408406871E+00  0.17944444176E-01 0.  0.
         14    1    1    2    0    0  0.33385831982E-01 -0.21431430900E-01  0.29606153222E-02  0.39782976896E-01  0.00000000000E+00 0. -1.
     999901    1    1    2    0    0 -0.93924216525E-01  0.22750101808E-01  0.92047472548E-01  0.89006295439E+00  0.88000000000E+00 0. -1.
        -11    1    3    3    0    0  0.45587097887E-01  0.54388032694E-02 -0.61265240686E-01  0.76560139185E-01  0.51100000000E-03 0. -1.
         11    1    3    3    0    0  0.14951286656E-01 -0.67574741773E-02 -0.33742847184E-01  0.37523929526E-01  0.51100000000E-03 0.  1.
</event>
<event>
 8    1  0.1128641E+005  0.1043930E+01  0.7957747E-01            NaN
         13   -1    0    0    0    0  0.00000000000E+00  0.00000000000E+00  0.74505805969E-08  0.10566000000E+00  0.10566000000E+00 0.  1.
     999900   -1    0    0    0    0 -0.00000000000E+00 -0.00000000000E+00 -0.74505805969E-08  0.93827000000E+00  0.93827000000E+00 0.  1.
     999902    2    1    2    0    0 -0.14436661732E-01 -0.46508584921E-02 -0.17434394083E-01  0.10208214348E+01  0.10205598444E+01 0.  0.
     999903    2    3    3    0    0 -0.78086058877E-01  0.31075520353E-01 -0.10175481733E+00  0.13378279212E+00  0.21924234590E-01 0.  0.
         14    1    1    2    0    0  0.14436661732E-01  0.46508584921E-02  0.17434394083E-01  0.23108565160E-01  0.00000000000E+00 0.  1.
     999901    1    3    3    0    0  0.63649397145E-01 -0.35726378845E-01  0.84320423243E-01  0.88703864272E+00  0.88000000000E+00 0. -1.
        -11    1    4    4    0    0 -0.20674448207E-01  0.16586648271E-01 -0.22004072459E-01  0.34452721740E-01  0.51100000000E-03 0. -1.
         11    1    4    4    0    0 -0.57411610670E-01  0.14488872082E-01 -0.79750744867E-01  0.99330070381E-01  0.51100000000E-03 0.  1.
</event>
<event>
 8    1  0.1128641E+005  0.1043930E+01  0.7957747E-01            NaN
         13   -1    0    0    0    0  0.00000000000E+00  0.00000000000E+00  0.74505805969E-08  0.10566000000E+00  0.10566000000E+00 0.  1.
     999900   -1    0    0    0    0 -0.00000000000E+00 -0.00000000000E+00 -0.74505805969E-08  0.93827000000E+00  0.93827000000E+00 0. -1.
     999902    2    1    2    0    0 -0.66961298068E-02  0.71192974038E-02  0.12786394561E-01  0.10278360746E+01  0.10277100670E+01 0.  0.
     999903    2    3    3    0    0 -0.11585096127E-01  0.20638983430E-01  0.13569701418E+00  0.13917770134E+00  0.19914085520E-01 0.  0.
         14    1    1    2    0    0  0.66961298068E-02 -0.71192974038E-02 -0.12786394561E-01  0.16093925431E-01  0.00000000000E+00 0. -1.
     999901    1    3    3    0    0  0.48889663198E-02 -0.13519686026E-01 -0.12291061962E+00  0.88865837323E+00  0.88000000000E+00 0. -1.
        -11    1    4    4    0    0  0.47078188277E-02  0.67872919766E-02  0.58088469823E-01  0.58675057204E-01  0.51100000000E-03 0. -1.
         11    1    4    4    0    0 -0.16292914954E-01  0.13851691453E-01  0.77608544358E-01  0.80502644132E-01  0.51100000000E-03 0.  1.
</event>
<event>
 8    1  0.1128641E+005  0.1043930E+01  0.7957747E-01            NaN
         13   -1    0    0    0    0  0.00000000000E+00  0.00000000000E+00  0.74505805969E-08  0.10566000000E+00  0.10566000000E+00 0. -1.
     999900   -1    0    0    0    0 -0.00000000000E+00 -0.00000000000E+00 -0.74505805969E-08  0.93827000000E+00  0.93827000000E+00 0. -1.
     999902    2    1    2    0    0  0.88540741165E-02 -0.45354226723E-02 -0.20576376380E-01  0.10210749797E+01  0.10208191624E+01 0.  0.
     999903    2    3    3    0    0 -0.65564637384E-01 -0.12682822454E-02  0.10821550726E+00  0.12858623014E+00  0.22879955300E-01 0.  0.
         14    1    1    2    0    0 -0.88540741165E-02  0.45354226723E-02  0.20576376380E-01  0.22855020285E-01  0.00000000000E+00 0. -1.
     999901    1    3    3    0    0  0.74418711501E-01 -0.32671404269E-02 -0.12879188364E+00  0.89248874958E+00  0.88000000000E+00 0. -1.
        -11    1    4    4    0    0 -0.77181081348E-02  0.30172617685E-02  0.30495757805E-01  0.31605781542E-01  0.51100000000E-03 0. -1.
         11    1    4    4    0    0 -0.57846529250E-01 -0.42855440139E-02  0.77719749456E-01  0.96980448598E-01  0.51100000000E-03 0.  1.
</event>
<event>
 8    1  0.1128641E+005  0.1043930E+01  0.7957747E-01            NaN
         13   -1    0    0    0    0  0.00000000000E+00  0.00000000000E+00  0.74505805969E-08  0.10566000000E+00  0.10566000000E+00 0. -1.
     999900   -1    0    0    0    0 -0.00000000000E+00 -0.00000000000E+00 -0.74505805969E-08  0.93827000000E+00  0.93827000000E+00 0.  1.
     999902    2    1    2    0    0  0.17924116193E-02  0.22167174592E-01  0.70800837468E-02  0.10205906779E+01  0.10203237760E+01 0.  0.
     999903    2    3    3    0    0 -0.38622864210E-01 -0.42319305357E-01  0.11524509025E+00  0.13070778156E+00  0.22813243724E-01 0.  0.
         14    1    1    2    0    0 -0.17924116193E-02 -0.22167174592E-01 -0.70800837468E-02  0.23339322070E-01  0.00000000000E+00 0.  1.
     999901    1    3    3    0    0  0.40415275830E-01  0.64486479949E-01 -0.10816500650E+00  0.88988289637E+00  0.88000000000E+00 0.  1.
        -11    1    4    4    0    0 -0.39952271617E-01 -0.35236017894E-01  0.10826339917E+00  0.12066062193E+00  0.51100000000E-03 0.  1.
         11    1    4    4    0    0  0.13294074070E-02 -0.70832874634E-02  0.69816910810E-02  0.10047159633E-01  0.51100000000E-03 0. -1.
</event>
<event>
 8    1  0.1128641E+005  0.1043930E+01  0.7957747E-01            NaN
         13   -1    0    0    0    0  0.00000000000E+00  0.00000000000E+00  0.74505805969E-08  0.10566000000E+00  0.10566000000E+00 0. -1.
     999900   -1    0    0    0    0 -0.00000000000E+00 -0.00000000000E+00 -0.74505805969E-08  0.93827000000E+00  0.93827000000E+00 0. -1.
     999902    2    1    2    0    0 -0.79547135577E-03  0.19378641226E-01 -0.13318947560E-01  0.10204021681E+01  0.10201308866E+01 0.  0.
     999903    2    3    3    0    0 -0.10004844709E+00 -0.53483443722E-01 -0.61351399503E-01  0.13053299059E+00  0.20117079667E-01 0.  0.
         14    1    1    2    0    0  0.79547135577E-03 -0.19378641226E-01  0.13318947560E-01  0.23527831913E-01  0.00000000000E+00 0. -1.
     999901    1    3    3    0    0  0.99252975735E-01  0.72862084948E-01  0.48032451943E-01  0.88986917749E+00  0.88000000000E+00 0. -1.
        -11    1    4    4    0    0 -0.27180303760E-01 -0.68839373805E-02 -0.91139208253E-02  0.29486983233E-01  0.51100000000E-03 0.  1.
         11    1    4    4    0    0 -0.72868143331E-01 -0.46599506341E-01 -0.52237478677E-01  0.10104600736E+00  0.51100000000E-03 0. -1.
</event>
<event>
 8    1  0.1128641E+005  0.1043930E+01  0.7957747E-01            NaN
         13   -1    0    0    0    0  0.00000000000E+00  0.00000000000E+00  0.74505805969E-08  0.10566000000E+00  0.10566000000E+00 0.  1.
     999900   -1    0    0    0    0 -0.00000000000E+00 -0.00000000000E+00 -0.74505805969E-08  0.93827000000E+00  0.93827000000E+00 0. -1.
     999902    2    1    2    0    0 -0.17071100008E-01 -0.25230284482E-03  0.15435120415E-01  0.10209141564E+01  0.10206546849E+01 0.  0.
     999903    2    3    3    0    0 -0.59346682614E-01  0.11618325874E+00  0.76217175964E-02  0.13220412829E+00  0.19981556724E-01 0.  0.
         14    1    1    2    0    0  0.17071100008E-01  0.25230284482E-03 -0.15435120415E-01  0.23015843553E-01  0.00000000000E+00 0. -1.
     999901    1    3    3    0    0  0.42275582606E-01 -0.11643556158E+00  0.78134028188E-02  0.88871002816E+00  0.88000000000E+00 0.  1.
        -11    1    4    4    0    0 -0.21809994413E-01  0.48138863591E-01  0.12597075293E-01  0.54332066692E-01  0.51100000000E-03 0.  1.
         11    1    4    4    0    0 -0.37536688201E-01  0.68044395147E-01 -0.49753576962E-02  0.77872061597E-01  0.51100000000E-03 0. -1.
</event>
<event>
 8    1  0.1128641E+005  0.1043930E+01  0.7957747E-01            NaN
         13   -1    0    0    0    0  0.00000000000E+00  0.00000000000E+00  0.74505805969E-08  0.10566000000E+00  0.10566000000E+00 0.  1.
     999900   -1    0    0    0    0 -0.00000000000E+00 -0.00000000000E+00 -0.74505805969E-08  0.93827000000E+00  0.93827000000E+00 0.  1.
     999902    2    1    2    0    0  0.21187801385E-01 -0.54376010523E-02 -0.67396088265E-02  0.10210408593E+01  0.10207842689E+01 0.  0.
     999903    2    3    3    0    0  0.11451698288E+00 -0.31082429344E-01 -0.59369476001E-01  0.13417114160E+00  0.19922444041E-01 0.  0.
         14    1    1    2    0    0 -0.21187801385E-01  0.54376010523E-02  0.67396088265E-02  0.22889140653E-01  0.00000000000E+00 0. -1.
     999901    1    3    3    0    0 -0.93329181493E-01  0.25644828292E-01  0.52629867174E-01  0.88686971775E+00  0.88000000000E+00 0. -1.
        -11    1    4    4    0    0  0.81289407213E-01 -0.31138924492E-01 -0.41438564489E-01  0.96410663786E-01  0.51100000000E-03 0.  1.
         11    1    4    4    0    0  0.33227575664E-01  0.56495147656E-04 -0.17930911511E-01  0.37760477815E-01  0.51100000000E-03 0. -1.
</event>
<event>
 8    1  0.1128641E+005  0.1043930E+01  0.7957747E-01            NaN
         13   -1    0    0    0    0  0.00000000000E+00  0.00000000000E+00  0.74505805969E-08  0.10566000000E+00  0.10566000000E+00 0.  1.
     999900   -1    0    0    0    0 -0.00000000000E+00 -0.00000000000E+00 -0.74505805969E-08  0.93827000000E+00  0.93827000000E+00 0. -1.
     999902    2    1    2    0    0 -0.23062209714E-01  0.49768377790E-02  0.12533309919E-02  0.10203036319E+01  0.10200300466E+01 0.  0.
     999903    2    3    3    0    0 -0.28196936312E-01 -0.65717408125E-01 -0.10739077069E+00  0.13079388903E+00  0.21457372385E-01 0.  0.
         14    1    1    2    0    0  0.23062209714E-01 -0.49768377790E-02 -0.12533309919E-02  0.23626368103E-01  0.00000000000E+00 0.  1.
     999901    1    3    3    0    0  0.51347265985E-02  0.70694245904E-01  0.10864410169E+00  0.88950974287E+00  0.88000000000E+00 0.  1.
        -11    1    4    4    0    0 -0.14154313115E-01 -0.14295472303E-01 -0.40812701006E-01  0.45504316197E-01  0.51100000000E-03 0. -1.
         11    1    4    4    0    0 -0.14042623198E-01 -0.51421935822E-01 -0.66578069688E-01  0.85289572835E-01  0.51100000000E-03 0.  1.
</event>
<event>
 8    1  0.1128641E+005  0.1043930E+01  0.7957747E-01            NaN
         13   -1    0    0    0    0  0.00000000000E+00  0.00000000000E+00  0.74505805969E-08  0.10566000000E+00  0.10566000000E+00 0.  1.
     999900   -1    0    0    0    0 -0.00000000000E+00 -0.00000000000E+00 -0.74505805969E-08  0.93827000000E+00  0.93827000000E+00 0. -1.
     999902    2    1    2    0    0 -0.75051996666E-03 -0.11093010024E-02 -0.23961453842E-01  0.10199311438E+01  0.10196487596E+01 0.  0.
     999903    2    3    3    0    0  0.28517821280E-01  0.84445507392E-01 -0.95965022407E-01  0.13237225847E+00  0.19204672266E-01 0.  0.
         14    1    1    2    0    0  0.75051996666E-03  0.11093010024E-02  0.23961453842E-01  0.23998856205E-01  0.00000000000E+00 0.  1.
     999901    1    3    3    0    0 -0.29268341247E-01 -0.85554808394E-01  0.72003568564E-01  0.88755888533E+00  0.88000000000E+00 0.  1.
        -11    1    4    4    0    0  0.28179002890E-01  0.57165415112E-01 -0.70655788417E-01  0.95154834069E-01  0.51100000000E-03 0. -1.
         11    1    4    4    0    0  0.33881839046E-03  0.27280092279E-01 -0.25309233989E-01  0.37217424398E-01  0.51100000000E-03 0.  1.
</event>
<event>
 8    1  0.1128641E+005  0.1043930E+01  0.7957747E-01            NaN
         13   -1    0    0    0    0  0.00000000000E+00  0.00000000000E+00  0.74505805969E-08  0.10566000000E+00  0.10566000000E+00 0.  1.
     999900   -1    0    0    0    0 -0.00000000000E+00 -0.00000000000E+00 -0.74505805969E-08  0.93827000000E+00  0.93827000000E+00 0.  1.
     999902    2    1    2    0    0 -0.20463317131E-01  0.66554667246E-02 -0.12154359325E-01  0.10192162177E+01  0.10189165458E+01 0.  0.
     999903    2    3    3    0    0  0.75733896517E-01  0.97530366507E-01  0.28933646469E-01  0.12837370886E+00  0.19871028044E-01 0.  0.
         14    1    1    2    0    0  0.20463317131E-01 -0.66554667246E-02  0.12154359325E-01  0.24713782307E-01  0.00000000000E+00 0. -1.
     999901    1    3    3    0    0 -0.96197213648E-01 -0.90874899783E-01 -0.41088005794E-01  0.89084250883E+00  0.88000000000E+00 0.  1.
        -11    1    4    4    0    0  0.44640054409E-01  0.41336413997E-01  0.13558742753E-01  0.62334053340E-01  0.51100000000E-03 0. -1.
         11    1    4    4    0    0  0.31093842108E-01  0.56193952511E-01  0.15374903716E-01  0.66039655519E-01  0.51100000000E-03 0.  1.
</event>
<event>
 8    1  0.1128641E+005  0.1043930E+01  0.7957747E-01            NaN
         13   -1    0    0    0    0  0.00000000000E+00  0.00000000000E+00  0.74505805969E-08  0.10566000000E+00  0.10566000000E+00 0. -1.
     999900   -1    0    0    0    0 -0.00000000000E+00 -0.00000000000E+00 -0.74505805969E-08  0.93827000000E+00  0.93827000000E+00 0. -1.
     999902    2    1    2    0    0 -0.74345308135E-02  0.16468312525E-01 -0.15580815563E-01  0.10200712620E+01  0.10197922044E+01 0.  0.
     999903    2    3    3    0    0  0.83346785355E-01  0.89290303725E-01  0.41572479192E-01  0.13057095908E+00  0.20026466531E-01 0.  0.
         14    1    1    2    0    0  0.74345308135E-02 -0.16468312525E-01  0.15580815563E-01  0.23858738010E-01  0.00000000000E+00 0.  1.
     999901    1    3    3    0    0 -0.90781316169E-01 -0.72821991200E-01 -0.57153294755E-01  0.88950030291E+00  0.88000000000E+00 0.  1.
        -11    1    4    4    0    0  0.69795587278E-01  0.83819849323E-01  0.35141117236E-01  0.11459646760E+00  0.51100000000E-03 0. -1.
         11    1    4    4    0    0  0.13551198077E-01  0.54704544021E-02  0.64313619561E-02  0.15974491488E-01  0.51100000000E-03 0.  1.
</event>
<event>
 8    1  0.1128641E+005  0.1043930E+01  0.7957747E-01            NaN
         13   -1    0    0    0    0  0.00000000000E+00  0.00000000000E+00  0.74505805969E-08  0.10566000000E+00  0.10566000000E+00 0. -1.
     999900   -1    0    0    0    0 -0.00000000000E+00 -0.00000000000E+00 -0.74505805969E-08  0.93827000000E+00  0.93827000000E+00 0.  1.
     999902    2    1    2    0    0  0.17873237778E-02 -0.99429350921E-02  0.26273534272E-01  0.10157811974E+01  0.10153911000E+01 0.  0.
     999903    2    3    3    0    0  0.21396126212E-01  0.12055280232E+00 -0.14939199676E-01  0.12498821805E+00  0.20201549463E-01 0.  0.
         14    1    1    2    0    0 -0.17873237778E-02  0.99429350921E-02 -0.26273534272E-01  0.28148802597E-01  0.00000000000E+00 0.  1.
     999901    1    3    3    0    0 -0.19608802434E-01 -0.13049573742E+00  0.41212733948E-01  0.89079297935E+00  0.88000000000E+00 0.  1.
        -11    1    4    4    0    0  0.13426645199E-01  0.30042793746E-01 -0.24210578048E-04  0.32910575268E-01  0.51100000000E-03 0.  1.
         11    1    4    4    0    0  0.79694810131E-02  0.90510008577E-01 -0.14914989098E-01  0.92077642786E-01  0.51100000000E-03 0. -1.
</event>
<event>
 8    1  0.1128641E+005  0.1043930E+01  0.7957747E-01            NaN
         13   -1    0    0    0    0  0.00000000000E+00  0.00000000000E+00  0.74505805969E-08  0.10566000000E+00  0.10566000000E+00 0. -1.
     999900   -1    0    0    0    0 -0.00000000000E+00 -0.00000000000E+00 -0.74505805969E-08  0.93827000000E+00  0.93827000000E+00 0. -1.
     999902    2    1    2    0    0  0.17121206454E-01 -0.14031716709E-02 -0.84090708231E-02  0.10248036550E+01  0.10246251579E+01 0.  0.
     999903    2    3    3    0    0  0.93839695883E-01 -0.96711499738E-01 -0.72009728533E-02  0.13633820067E+00  0.19422879499E-01 0.  0.
         14    1    1    2    0    0 -0.17121206454E-01  0.14031716709E-02  0.84090708231E-02  0.19126345006E-01  0.00000000000E+00 0. -1.
     999901    1    3    3    0    0 -0.76718489428E-01  0.95308328067E-01 -0.12080979697E-02  0.88846545432E+00  0.88000000000E+00 0.  1.
        -11    1    4    4    0    0  0.21690930609E-01 -0.11715902061E-01 -0.13747856449E-02  0.24696355770E-01  0.51100000000E-03 0. -1.
         11    1    4    4    0    0  0.72148765274E-01 -0.84995597677E-01 -0.58261872084E-02  0.11164184490E+00  0.51100000000E-03 0.  1.
</event>
<event>
 8    1  0.1128641E+005  0.1043930E+01  0.7957747E-01            NaN
         13   -1    0    0    0    0  0.00000000000E+00  0.00000000000E+00  0.74505805969E-08  0.10566000000E+00  0.10566000000E+00 0.  1.
     999900   -1    0    0    0    0 -0.00000000000E+00 -0.00000000000E+00 -0.74505805969E-08  0.93827000000E+00  0.93827000000E+00 0.  1.
     999902    2    1    2    0    0 -0.57120201350E-02 -0.22396490635E-01  0.29338117103E-02  0.10206311327E+01  0.10203651659E+01 0.  0.
     999903    2    3    3    0    0 -0.79590427097E-01  0.96426025372E-01  0.26068092910E-01  0.12927710409E+00  0.20010240395E-01 0.  0.
         14    1    1    2    0    0  0.57120201350E-02  0.22396490635E-01 -0.29338117103E-02  0.23298867310E-01  0.00000000000E+00 0. -1.
     999901    1    3    3    0    0  0.73878406962E-01 -0.11882251601E+00 -0.23134281199E-01  0.89135402859E+00  0.88000000000E+00 0.  1.
        -11    1    4    4    0    0 -0.73664814735E-01  0.79958248663E-01  0.25921138425E-01  0.11176758473E+00  0.51100000000E-03 0. -1.
         11    1    4    4    0    0 -0.59256123626E-02  0.16467776709E-01  0.14695448432E-03  0.17509519360E-01  0.51100000000E-03 0.  1.
</event>
<event>
 8    1  0.1128641E+005  0.1043930E+01  0.7957747E-01            NaN
         13   -1    0    0    0    0  0.00000000000E+00  0.00000000000E+00  0.74505805969E-08  0.10566000000E+00  0.10566000000E+00 0.  1.
     999900   -1    0    0    0    0 -0.00000000000E+00 -0.00000000000E+00 -0.74505805969E-08  0.93827000000E+00  0.93827000000E+00 0. -1.
     999902    2    1    2    0    0 -0.24287008107E-01 -0.46212008804E-02 -0.29989465616E-02  0.10190260256E+01  0.10187216661E+01 0.  0.
     999903    2    3    3    0    0 -0.86162270578E-01 -0.86131687189E-02  0.96415869241E-01  0.13126040929E+00  0.20860289014E-01 0.  0.
         14    1    1    2    0    0  0.24287008107E-01  0.46212008804E-02  0.29989465616E-02  0.24903974398E-01  0.00000000000E+00 0.  1.
     999901    1    3    3    0    0  0.61875262471E-01  0.39919678385E-02 -0.99414815802E-01  0.88776561632E+00  0.88000000000E+00 0. -1.
        -11    1    4    4    0    0 -0.58866798188E-01 -0.21658814295E-02  0.77831649782E-01  0.97611565914E-01  0.51100000000E-03 0. -1.
         11    1    4    4    0    0 -0.27295472389E-01 -0.64472872894E-02  0.18584219459E-01  0.33648843371E-01  0.51100000000E-03 0.  1.
</event>
<event>
 8    1  0.1128641E+005  0.1043930E+01  0.7957747E-01            NaN
         13   -1    0    0    0    0  0.00000000000E+00  0.00000000000E+00  0.74505805969E-08  0.10566000000E+00  0.10566000000E+00 0. -1.
     999900   -1    0    0    0    0 -0.00000000000E+00 -0.00000000000E+00 -0.74505805969E-08  0.93827000000E+00  0.93827000000E+00 0. -1.
     999902    2    1    2    0    0 -0.16091092875E-01  0.14726117812E-01  0.12767960138E-01  0.10186554551E+01  0.10183418549E+01 0.  0.
     999903    2    3    3    0    0 -0.81430496673E-01 -0.84638375510E-01  0.51711097936E-01  0.12980276299E+00  0.19497159602E-01 0.  0.
         14    1    1    2    0    0  0.16091092875E-01 -0.14726117812E-01 -0.12767960138E-01  0.25274544938E-01  0.00000000000E+00 0.  1.
     999901    1    3    3    0    0  0.65339403798E-01  0.99364493322E-01 -0.38943137798E-01  0.88885269207E+00  0.88000000000E+00 0. -1.
        -11    1    4    4    0    0 -0.39285447173E-01 -0.37270496155E-01  0.34105071697E-01  0.63998853737E-01  0.51100000000E-03 0. -1.
         11    1    4    4    0    0 -0.42145049501E-01 -0.47367879355E-01  0.17606026240E-01  0.65803909253E-01  0.51100000000E-03 0.  1.
</event>
<event>
 8    1  0.1128641E+005  0.1043930E+01  0.7957747E-01            NaN
         13   -1    0    0    0    0  0.00000000000E+00  0.00000000000E+00  0.74505805969E-08  0.10566000000E+00  0.10566000000E+00 0.  1.
     999900   -1    0    0    0    0 -0.00000000000E+00 -0.00000000000E+00 -0.74505805969E-08  0.93827000000E+00  0.93827000000E+00 0.  1.
     999902    2    1    2    0    0 -0.15086792400E-01 -0.18839998249E-01  0.19547827702E-02  0.10197147566E+01  0.10194271954E+01 0.  0.
     999903    2    3    3    0    0  0.11056957263E+00 -0.64381738911E-01  0.40336442081E-02  0.12962043916E+00  0.20360482906E-01 0.  0.
         14    1    1    2    0    0  0.15086792400E-01  0.18839998249E-01 -0.19547827702E-02  0.24215243435E-01  0.00000000000E+00 0.  1.
     999901    1    3    3    0    0 -0.12565636503E+00  0.45541740661E-01 -0.20788614379E-02  0.89009431741E+00  0.88000000000E+00 0.  1.
        -11    1    4    4    0    0  0.58608282884E-01 -0.22381660127E-01  0.24674088195E-02  0.62787090711E-01  0.51100000000E-03 0.  1.
         11    1    4    4    0    0  0.51961289750E-01 -0.42000078783E-01  0.15662353886E-02  0.66833348446E-01  0.51100000000E-03 0. -1.
</event>
<event>
 8    1  0.1128641E+005  0.1043930E+01  0.7957747E-01            NaN
         13   -1    0    0    0    0  0.00000000000E+00  0.00000000000E+00  0.74505805969E-08  0.10566000000E+00  0.10566000000E+00 0. -1.
     999900   -1    0    0    0    0 -0.00000000000E+00 -0.00000000000E+00 -0.74505805969E-08  0.93827000000E+00  0.93827000000E+00 0. -1.
     999902    2    1    2    0    0 -0.11823989785E-01 -0.13204492461E-01  0.15824279696E-01  0.10201692512E+01  0.10198925080E+01 0.  0.
     999903    2    3    3    0    0  0.81553771502E-01  0.95389636006E-01 -0.15558133209E-01  0.12803868515E+00  0.20041184672E-01 0.  0.
         14    1    1    2    0    0  0.11823989785E-01  0.13204492461E-01 -0.15824279696E-01  0.23760748798E-01  0.00000000000E+00 0.  1.
     999901    1    3    3    0    0 -0.93377761286E-01 -0.10859412847E+00  0.31382412905E-01  0.89213056605E+00  0.88000000000E+00 0.  1.
        -11    1    4    4    0    0  0.25441978809E-01  0.33258278614E-01 -0.14485717932E-01  0.44311449165E-01  0.51100000000E-03 0. -1.
         11    1    4    4    0    0  0.56111792692E-01  0.62131357392E-01 -0.10724152773E-02  0.83727235987E-01  0.51100000000E-03 0.  1.
</event>
<event>
 8    1  0.1128641E+005  0.1043930E+01  0.7957747E-01            NaN
         13   -1    0    0    0    0  0.00000000000E+00  0.00000000000E+00  0.74505805969E-08  0.10566000000E+00  0.10566000000E+00 0.  1.
     999900   -1    0    0    0    0 -0.00000000000E+00 -0.00000000000E+00 -0.74505805969E-08  0.93827000000E+00  0.93827000000E+00 0. -1.
     999902    2    1    2    0    0  0.15234744661E-01  0.34598938384E-02 -0.17577616551E-01  0.10204131781E+01  0.10201421534E+01 0.  0.
     999903    2    3    3    0    0  0.16053360042E-01 -0.75858505768E-01  0.10106990649E+00  0.12891482508E+00  0.19790979331E-01 0.  0.
         14    1    1    2    0    0 -0.15234744661E-01 -0.34598938384E-02  0.17577616551E-01  0.23516821934E-01  0.00000000000E+00 0.  1.
     999901    1    3    3    0    0 -0.81861538162E-03  0.79318399606E-01 -0.11864752304E+00  0.89149835298E+00  0.88000000000E+00 0. -1.
        -11    1    4    4    0    0  0.20191511669E-01 -0.52781205188E-01  0.69133044346E-01  0.89292730421E-01  0.51100000000E-03 0. -1.
         11    1    4    4    0    0 -0.41381516266E-02 -0.23077300579E-01  0.31936862142E-01  0.39622094662E-01  0.51100000000E-03 0.  1.
</event>
<event>
 8    1  0.1128641E+005  0.1043930E+01  0.7957747E-01            NaN
         13   -1    0    0    0    0  0.00000000000E+00  0.00000000000E+00  0.74505805969E-08  0.10566000000E+00  0.10566000000E+00 0.  1.
     999900   -1    0    0    0    0 -0.00000000000E+00 -0.00000000000E+00 -0.74505805969E-08  0.93827000000E+00  0.93827000000E+00 0.  1.
     999902    2    1    2    0    0  0.13461948929E-01  0.88818304538E-02  0.17735695368E-01  0.10199578105E+01  0.10196760609E+01 0.  0.
     999903    2    3    3    0    0  0.63986635074E-01 -0.10245437380E+00 -0.42461468778E-01  0.12946794928E+00  0.19177731383E-01 0.  0.
         14    1    1    2    0    0 -0.13461948929E-01 -0.88818304538E-02 -0.17735695368E-01  0.23972189541E-01  0.00000000000E+00 0. -1.
     999901    1    3    3    0    0 -0.50524686144E-01  0.11133620426E+00  0.60197164147E-01  0.89048986118E+00  0.88000000000E+00 0.  1.
        -11    1    4    4    0    0  0.37517249767E-01 -0.73777805370E-01 -0.23290002601E-01  0.85984847138E-01  0.51100000000E-03 0. -1.
         11    1    4    4    0    0  0.26469385307E-01 -0.28676568434E-01 -0.19171466178E-01  0.43483102144E-01  0.51100000000E-03 0.  1.
</event>
<event>
 8    1  0.1128641E+005  0.1043930E+01  0.7957747E-01            NaN
         13   -1    0    0    0    0  0.00000000000E+00  0.00000000000E+00  0.74505805969E-08  0.10566000000E+00  0.10566000000E+00 0.  1.
     999900   -1    0    0    0    0 -0.00000000000E+00 -0.00000000000E+00 -0.74505805969E-08  0.93827000000E+00  0.93827000000E+00 0. -1.
     999902    2    1    2    0    0  0.37096680301E-02 -0.23106276031E-01  0.47603896477E-02  0.10200485650E+01  0.10197689699E+01 0.  0.
     999903    2    3    3    0    0  0.92885437370E-01 -0.36603192989E-02 -0.89180137078E-01  0.13035463692E+00  0.19953247964E-01 0.  0.
         14    1    1    2    0    0 -0.37096680301E-02  0.23106276031E-01 -0.47603896477E-02  0.23881435018E-01  0.00000000000E+00 0. -1.
     999901    1    3    3    0    0 -0.89175769340E-01 -0.19445956732E-01  0.93940526725E-01  0.88969392806E+00  0.88000000000E+00 0.  1.
        -11    1    4    4    0    0  0.50565247955E-01 -0.11296312376E-01 -0.53451121070E-01  0.74442826643E-01  0.51100000000E-03 0.  1.
         11    1    4    4    0    0  0.42320189415E-01  0.76359930775E-02 -0.35729016008E-01  0.55911810276E-01  0.51100000000E-03 0. -1.
</event>
<event>
 8    1  0.1128641E+005  0.1043930E+01  0.7957747E-01            NaN
         13   -1    0    0    0    0  0.00000000000E+00  0.00000000000E+00  0.74505805969E-08  0.10566000000E+00  0.10566000000E+00 0.  1.
     999900   -1    0    0    0    0 -0.00000000000E+00 -0.00000000000E+00 -0.74505805969E-08  0.93827000000E+00  0.93827000000E+00 0.  1.
     999902    2    1    2    0    0  0.22459082737E-01  0.63874631100E-02 -0.13172150655E-01  0.10171211277E+01  0.10167677575E+01 0.  0.
     999903    2    3    3    0    0 -0.94078860768E-01  0.35346944192E-01 -0.74658836330E-01  0.12684007299E+00  0.20352487976E-01 0.  0.
         14    1    1    2    0    0 -0.22459082737E-01 -0.63874631100E-02  0.13172150655E-01  0.26808872323E-01  0.00000000000E+00 0. -1.
     999901    1    3    3    0    0  0.11653794350E+00 -0.28959481082E-01  0.61486685675E-01  0.89028105469E+00  0.88000000000E+00 0. -1.
        -11    1    4    4    0    0 -0.38536093615E-01  0.24339717726E-01 -0.38398373368E-01  0.59599904097E-01  0.51100000000E-03 0.  1.
         11    1    4    4    0    0 -0.55542767153E-01  0.11007226466E-01 -0.36260462962E-01  0.67240168892E-01  0.51100000000E-03 0. -1.
</event>
<event>
 8    1  0.1128641E+005  0.1043930E+01  0.7957747E-01            NaN
         13   -1    0    0    0    0  0.00000000000E+00  0.00000000000E+00  0.74505805969E-08  0.10566000000E+00  0.10566000000E+00 0. -1.
     999900   -1    0    0    0    0 -0.00000000000E+00 -0.00000000000E+00 -0.74505805969E-08  0.93827000000E+00  0.93827000000E+00 0. -1.
     999902    2    1    2    0    0  0.17141370708E-01 -0.65552783319E-02  0.15686421946E-01  0.10197874629E+01  0.10195016466E+01 0.  0.
     999903    2    3    3    0    0  0.92676275146E-01  0.80805086036E-01  0.42156645160E-01  0.13184713396E+00  0.22093666481E-01 0.  0.
         14    1    1    2    0    0 -0.17141370708E-01  0.65552783319E-02 -0.15686421946E-01  0.24142537092E-01  0.00000000000E+00 0. -1.
     999901    1    3    3    0    0 -0.75534904438E-01 -0.87360364368E-01 -0.26470223214E-01  0.88794032895E+00  0.88000000000E+00 0. -1.
        -11    1    4    4    0    0  0.39782696161E-01  0.49235238233E-01  0.22659350632E-01  0.67234506689E-01  0.51100000000E-03 0.  1.
         11    1    4    4    0    0  0.52893578985E-01  0.31569847803E-01  0.19497294528E-01  0.64612627273E-01  0.51100000000E-03 0. -1.
</event>
<event>
 7    1  0.1128641E+005  0.1043930E+01  0.7957747E-01            NaN
         13   -1    0    0    0    0  0.00000000000E+00  0.00000000000E+00  0.74505805969E-08  0.10566000000E+00  0.10566000000E+00 0.  1.
     999900   -1    0    0    0    0 -0.00000000000E+00 -0.00000000000E+00 -0.74505805969E-08  0.93827000000E+00  0.93827000000E+00 0. -1.
     999903    2    1    2    0    0  0.10601973209E+00  0.42236006699E-01  0.16625901274E-01  0.11720384663E+00  0.20886771336E-01 0.  0.
         14    1    1    2    0    0 -0.30976122165E-01 -0.29988204412E-01 -0.46725892838E-02  0.43366411413E-01  0.00000000000E+00 0.  1.
     999901    1    1    2    0    0 -0.75043609922E-01 -0.12247802287E-01 -0.11953311991E-01  0.88335974196E+00  0.88000000000E+00 0.  1.
        -11    1    3    3    0    0  0.39329958734E-01  0.77879221787E-02  0.12612040125E-01  0.42033582562E-01  0.51100000000E-03 0.  1.
         11    1    3    3    0    0  0.66689773353E-01  0.34448084520E-01  0.40138611496E-02  0.75170264063E-01  0.51100000000E-03 0. -1.
</event>
<event>
 8    1  0.1128641E+005  0.1043930E+01  0.7957747E-01            NaN
         13   -1    0    0    0    0  0.00000000000E+00  0.00000000000E+00  0.74505805969E-08  0.10566000000E+00  0.10566000000E+00 0. -1.
     999900   -1    0    0    0    0 -0.00000000000E+00 -0.00000000000E+00 -0.74505805969E-08  0.93827000000E+00  0.93827000000E+00 0. -1.
     999902    2    1    2    0    0  0.20775240736E-02 -0.59362568562E-02  0.22555602446E-01  0.10205139702E+01  0.10202452905E+01 0.  0.
     999903    2    3    3    0    0  0.11077402241E+00 -0.51191192393E-01  0.47172793968E-01  0.13233102501E+00  0.19869712346E-01 0.  0.
         14    1    1    2    0    0 -0.20775240736E-02  0.59362568562E-02 -0.22555602446E-01  0.23416029839E-01  0.00000000000E+00 0.  1.
     999901    1    3    3    0    0 -0.10869649834E+00  0.45254935536E-01 -0.24617191522E-01  0.88818294515E+00  0.88000000000E+00 0. -1.
        -11    1    4    4    0    0  0.62444262796E-01 -0.27977204705E-01  0.36883088125E-01  0.77734376243E-01  0.51100000000E-03 0. -1.
         11    1    4    4    0    0  0.48329759617E-01 -0.23213987688E-01  0.10289705843E-01  0.54596648765E-01  0.51100000000E-03 0.  1.
</event>
<event>
 8    1  0.1128641E+005  0.1043930E+01  0.7957747E-01            NaN
         13   -1    0    0    0    0  0.00000000000E+00  0.00000000000E+00  0.74505805969E-08  0.10566000000E+00  0.10566000000E+00 0.  1.
     999900   -1    0    0    0    0 -0.00000000000E+00 -0.00000000000E+00 -0.74505805969E-08  0.93827000000E+00  0.93827000000E+00 0. -1.
     999902    2    1    2    0    0 -0.72886047882E-02  0.18799313130E-01 -0.14569709450E-01  0.10190540203E+01  0.10187503531E+01 0.  0.
     999903    2    3    3    0    0 -0.54657714958E-01  0.11701370863E+00  0.18706360366E-01  0.13169997768E+00  0.17756193057E-01 0.  0.
         14    1    1    2    0    0  0.72886047882E-02 -0.18799313130E-01  0.14569709450E-01  0.24875979727E-01  0.00000000000E+00 0.  1.
     999901    1    3    3    0    0  0.47369110170E-01 -0.98214395497E-01 -0.33276069816E-01  0.88735404259E+00  0.88000000000E+00 0. -1.
        -11    1    4    4    0    0 -0.28914611566E-01  0.44650448201E-01  0.28574408311E-02  0.53274228063E-01  0.51100000000E-03 0.  1.
         11    1    4    4    0    0 -0.25743103392E-01  0.72363260427E-01  0.15848919535E-01  0.78425749619E-01  0.51100000000E-03 0. -1.
</event>
<event>
 8    1  0.1128641E+005  0.1043930E+01  0.7957747E-01            NaN
         13   -1    0    0    0    0  0.00000000000E+00  0.00000000000E+00  0.74505805969E-08  0.10566000000E+00  0.10566000000E+00 0.  1.
     999900   -1    0    0    0    0 -0.00000000000E+00 -0.00000000000E+00 -0.74505805969E-08  0.93827000000E+00  0.93827000000E+00 0.  1.
     999902    2    1    2    0    0  0.11566945332E-01 -0.26386949026E-01 -0.11237524819E-01  0.10130051351E+01  0.10125329903E+01 0.  0.
     999903    2    3    3    0    0  0.19483716852E-01  0.10136756569E+00  0.59356621150E-01  0.12094716350E+00  0.21213422355E-01 0.  0.
         14    1    1    2    0    0 -0.11566945332E-01  0.26386949026E-01  0.11237524819E-01  0.30924864871E-01  0.00000000000E+00 0. -1.
     999901    1    3    3    0    0 -0.79167715201E-02 -0.12775451472E+00 -0.70594145969E-01  0.89205797163E+00  0.88000000000E+00 0.  1.
        -11    1    4    4    0    0  0.22457875242E-01  0.63216636900E-01  0.38954493621E-01  0.77578431511E-01  0.51100000000E-03 0.  1.
         11    1    4    4    0    0 -0.29741583897E-02  0.38150928790E-01  0.20402127529E-01  0.43368731990E-01  0.51100000000E-03 0. -1.
</event>
<event>
 8    1  0.1128641E+005  0.1043930E+01  0.7957747E-01            NaN
         13   -1    0    0    0    0  0.00000000000E+00  0.00000000000E+00  0.74505805969E-08  0.10566000000E+00  0.10566000000E+00 0. -1.
     999900   -1    0    0    0    0 -0.00000000000E+00 -0.00000000000E+00 -0.74505805969E-08  0.93827000000E+00  0.93827000000E+00 0.  1.
     999902    2    1    2    0    0  0.63087103040E-02 -0.42853767661E-02 -0.21611519205E-01  0.10210122767E+01  0.10207550378E+01 0.  0.
     999903    2    3    3    0    0 -0.10633128711E+00  0.25490092398E-01 -0.71177895559E-01  0.13195031414E+00  0.19710534133E-01 0.  0.
         14    1    1    2    0    0 -0.63087103040E-02  0.42853767661E-02  0.21611519205E-01  0.22917723318E-01  0.00000000000E+00 0. -1.
     999901    1    3    3    0    0  0.11263999741E+00 -0.29775469164E-01  0.49566376354E-01  0.88906196255E+00  0.88000000000E+00 0. -1.
        -11    1    4    4    0    0 -0.78349738743E-01  0.11762098961E-01 -0.57575171159E-01  0.97939726302E-01  0.51100000000E-03 0.  1.
         11    1    4    4    0    0 -0.27981548366E-01  0.13727993437E-01 -0.13602724399E-01  0.34010587834E-01  0.51100000000E-03 0. -1.
</event>
<event>
 7    1  0.1128641E+005  0.1043930E+01  0.7957747E-01            NaN
         13   -1    0    0    0    0  0.00000000000E+00  0.00000000000E+00  0.74505805969E-08  0.10566000000E+00  0.10566000000E+00 0. -1.
     999900   -1    0    0    0    0 -0.00000000000E+00 -0.00000000000E+00 -0.74505805969E-08  0.93827000000E+00  0.93827000000E+00 0. -1.
     999903    2    1    2    0    0 -0.43061985653E-01  0.32358445080E-01 -0.94970463836E-01  0.11103856952E+00  0.20218094434E-01 0.  0.
         14    1    1    2    0    0  0.37416504799E-01 -0.13536500654E-01 -0.21123322981E-01  0.45049155987E-01  0.00000000000E+00 0. -1.
     999901    1    1    2    0    0  0.56454808539E-02 -0.18821944425E-01  0.11609378682E+00  0.88784227450E+00  0.88000000000E+00 0.  1.
        -11    1    3    3    0    0 -0.16728064108E-01  0.18689517971E-01 -0.60853158396E-01  0.65821685018E-01  0.51100000000E-03 0. -1.
         11    1    3    3    0    0 -0.26333921545E-01  0.13668927109E-01 -0.34117305440E-01  0.45216884498E-01  0.51100000000E-03 0.  1.
</event>
<event>
 8    1  0.1128641E+005  0.1043930E+01  0.7957747E-01            NaN
         13   -1    0    0    0    0  0.00000000000E+00  0.00000000000E+00  0.74505805969E-08  0.10566000000E+00  0.10566000000E+00 0. -1.
     999900   -1    0    0    0    0 -0.00000000000E+00 -0.00000000000E+00 -0.74505805969E-08  0.93827000000E+00  0.93827000000E+00 0.  1.
     999902    2    1    2    0    0 -0.24440922696E-01 -0.22043007740E-02  0.25178787458E-02  0.10192610447E+01  0.10189624722E+01 0.  0.
     999903    2    3    3    0    0 -0.68129976397E-01 -0.23365442420E-02 -0.11001541518E+00  0.13101980877E+00  0.20387388021E-01 0.  0.
         14    1    1    2    0    0  0.24440922696E-01  0.22043007740E-02 -0.25178787458E-02  0.24668955339E-01  0.00000000000E+00 0. -1.
     999901    1    3    3    0    0  0.43689053701E-01  0.13224346803E-03  0.11253329392E+00  0.88824123589E+00  0.88000000000E+00 0. -1.
        -11    1    4    4    0    0 -0.21737085802E-01  0.86053936920E-02 -0.39536119861E-01  0.45933861087E-01  0.51100000000E-03 0. -1.
         11    1    4    4    0    0 -0.46392890595E-01 -0.10941937934E-01 -0.70479295315E-01  0.85085947679E-01  0.51100000000E-03 0.  1.
</event>
<event>
 8    1  0.1128641E+005  0.1043930E+01  0.7957747E-01            NaN
         13   -1    0    0    0    0  0.00000000000E+00  0.00000000000E+00  0.74505805969E-08  0.10566000000E+00  0.10566000000E+00 0. -1.
     999900   -1    0    0    0    0 -0.00000000000E+00 -0.00000000000E+00 -0.74505805969E-08  0.93827000000E+00  0.93827000000E+00 0.  1.
     999902    2    1    2    0    0  0.39962137291E-02 -0.18628501582E-01 -0.14405352726E-01  0.10200447539E+01  0.10197650685E+01 0.  0.
     999903    2    3    3    0    0  0.10014636995E+00  0.73748222429E-01  0.25778486116E-01  0.12909410845E+00  0.23079487958E-01 0.  0.
         14    1    1    2    0    0 -0.39962137291E-02  0.18628501582E-01  0.14405352726E-01  0.23885246127E-01  0.00000000000E+00 0. -1.
     999901    1    3    3    0    0 -0.96150156218E-01 -0.92376724011E-01 -0.40183838842E-01  0.89095064543E+00  0.88000000000E+00 0.  1.
        -11    1    4    4    0    0  0.35064201245E-01  0.38788334309E-01  0.15246868495E-01  0.54467983324E-01  0.51100000000E-03 0.  1.
         11    1    4    4    0    0  0.65082168702E-01  0.34959888120E-01  0.10531617621E-01  0.74626125124E-01  0.51100000000E-03 0. -1.
</event>
<event>
 8    1  0.1128641E+005  0.1043930E+01  0.7957747E-01            NaN
         13   -1    0    0    0    0  0.00000000000E+00  0.00000000000E+00  0.74505805969E-08  0.10566000000E+00  0.10566000000E+00 0. -1.
     999900   -1    0    0    0    0 -0.00000000000E+00 -0.00000000000E+00 -0.74505805969E-08  0.93827000000E+00  0.93827000000E+00 0.  1.
     999902    2    1    2    0    0  0.42305543135E-02 -0.20457195169E-01 -0.68962649286E-02  0.10219310706E+01  0.10216942596E+01 0.  0.
     999903    2    3    3    0    0  0.58520073319E-01  0.37735437892E-01  0.10880040817E+00  0.13079726777E+00  0.20538602279E-01 0.  0.
         14    1    1    2    0    0 -0.42305543135E-02  0.20457195169E-01  0.68962649286E-02  0.21998929382E-01  0.00000000000E+00 0. -1.
     999901    1    3    3    0    0 -0.54289519005E-01 -0.58192633061E-01 -0.11569667310E+00  0.89113380285E+00  0.88000000000E+00 0.  1.
        -11    1    4    4    0    0  0.78728453257E-02 -0.20925719058E-02  0.12526507222E-01  0.14951088752E-01  0.51100000000E-03 0. -1.
         11    1    4    4    0    0  0.50647227993E-01  0.39828009798E-01  0.96273900947E-01  0.11584617902E+00  0.51100000000E-03 0.  1.
</event>
<event>
 8    1  0.1128641E+005  0.1043930E+01  0.7957747E-01            NaN
         13   -1    0    0    0    0  0.00000000000E+00  0.00000000000E+00  0.74505805969E-08  0.10566000000E+00  0.10566000000E+00 0. -1.
     999900   -1    0    0    0    0 -0.00000000000E+00 -0.00000000000E+00 -0.74505805969E-08  0.93827000000E+00  0.93827000000E+00 0.  1.
     999902    2    1    2    0    0  0.77938055728E-02  0.70671607101E-02  0.18068511069E-01  0.10230216462E+01  0.10228079631E+01 0.  0.
     999903    2    3    3    0    0 -0.36187441781E-01 -0.13501867798E-02 -0.12252586139E+00  0.13073694982E+00  0.27716590516E-01 0.  0.
         14    1    1    2    0    0 -0.77938055728E-02 -0.70671607101E-02 -0.18068511069E-01  0.20908353786E-01  0.00000000000E+00 0.  1.
     999901    1    3    3    0    0  0.43981247354E-01  0.84173474899E-02  0.14059437246E+00  0.89228469640E+00  0.88000000000E+00 0. -1.
        -11    1    4    4    0    0 -0.13424717120E-02  0.92881050277E-03  0.12564683606E-02  0.21224403381E-02  0.51100000000E-03 0.  1.
         11    1    4    4    0    0 -0.34844970070E-01 -0.22789972826E-02 -0.12378232975E+00  0.12861450948E+00  0.51100000000E-03 0. -1.
</event>
<event>
 8    1  0.1128641E+005  0.1043930E+01  0.7957747E-01            NaN
         13   -1    0    0    0    0  0.00000000000E+00  0.00000000000E+00  0.74505805969E-08  0.10566000000E+00  0.10566000000E+00 0.  1.
     999900   -1    0    0    0    0 -0.00000000000E+00 -0.00000000000E+00 -0.74505805969E-08  0.93827000000E+00  0.93827000000E+00 0.  1.
     999902    2    1    2    0    0  0.54868348696E-02  0.99399442308E-02  0.20521977150E-01  0.10204766549E+01  0.10202071083E+01 0.  0.
     999903    2    3    3    0    0  0.11976744743E+00 -0.26504158743E-01  0.44512970138E-01  0.13201517643E+00  0.19997259889E-01 0.  0.
         14    1    1    2    0    0 -0.54868348696E-02 -0.99399442308E-02 -0.20521977150E-01  0.23453345056E-01  0.00000000000E+00 0. -1.
     999901    1    3    3    0    0 -0.11428061256E+00  0.36444102974E-01 -0.23990992988E-01  0.88846147851E+00  0.88000000000E+00 0. -1.
        -11    1    4    4    0    0  0.54410247424E-01 -0.76162713229E-02  0.29433646791E-01  0.62330436370E-01  0.51100000000E-03 0. -1.
         11    1    4    4    0    0  0.65357200010E-01 -0.18887887420E-01  0.15079323347E-01  0.69684740065E-01  0.51100000000E-03 0.  1.
</event>
<event>
 8    1  0.1128641E+005  0.1043930E+01  0.7957747E-01            NaN
         13   -1    0    0    0    0  0.00000000000E+00  0.00000000000E+00  0.74505805969E-08  0.10566000000E+00  0.10566000000E+00 0.  1.
     999900   -1    0    0    0    0 -0.00000000000E+00 -0.00000000000E+00 -0.74505805969E-08  0.93827000000E+00  0.93827000000E+00 0. -1.
     999902    2    1    2    0    0 -0.12266751591E-01  0.20668780520E-01 -0.42118922101E-02  0.10195289402E+01  0.10192368950E+01 0.  0.
     999903    2    3    3    0    0 -0.71001431824E-01 -0.23443751627E-01 -0.10525331276E+00  0.13070665943E+00  0.20375430310E-01 0.  0.
         14    1    1    2    0    0  0.12266751591E-01 -0.20668780520E-01  0.42118922101E-02  0.24401059788E-01  0.00000000000E+00 0. -1.
     999901    1    3    3    0    0  0.58734680233E-01  0.44112532147E-01  0.10104142055E+00  0.88882228079E+00  0.88000000000E+00 0. -1.
        -11    1    4    4    0    0 -0.19653933985E-01 -0.15710232148E-02 -0.15811809127E-01  0.25278838262E-01  0.51100000000E-03 0.  1.
         11    1    4    4    0    0 -0.51347497839E-01 -0.21872728412E-01 -0.89441503631E-01  0.10542782116E+00  0.51100000000E-03 0. -1.
</event>
<event>
 8    1  0.1128641E+005  0.1043930E+01  0.7957747E-01            NaN
         13   -1    0    0    0    0  0.00000000000E+00  0.00000000000E+00  0.74505805969E-08  0.10566000000E+00  0.10566000000E+00 0. -1.
     999900   -1    0    0    0    0 -0.00000000000E+00 -0.00000000000E+00 -0.74505805969E-08  0.93827000000E+00  0.93827000000E+00 0.  1.
     999902    2    1    2    0    0 -0.10758218228E-01  0.18383953379E-01 -0.11692194772E-01  0.10196315140E+01  0.10193419485E+01 0.  0.
     999903    2    3    3    0    0 -0.85198583831E-02 -0.71101903394E-01 -0.10666769928E+00  0.13000626975E+00  0.19888777057E-01 0.  0.
         14    1    1    2    0    0  0.10758218228E-01 -0.18383953379E-01  0.11692194772E-01  0.24298485959E-01  0.00000000000E+00 0. -1.
     999901    1    3    3    0    0 -0.22383598453E-02  0.89485856774E-01  0.94975504506E-01  0.88962524429E+00  0.88000000000E+00 0. -1.
        -11    1    4    4    0    0 -0.24107387761E-03 -0.29300183520E-01 -0.27973171746E-01  0.40513187105E-01  0.51100000000E-03 0. -1.
         11    1    4    4    0    0 -0.82787845055E-02 -0.41801719874E-01 -0.78694527532E-01  0.89493082648E-01  0.51100000000E-03 0.  1.
</event>
<event>
 8    1  0.1128641E+005  0.1043930E+01  0.7957747E-01            NaN
         13   -1    0    0    0    0  0.00000000000E+00  0.00000000000E+00  0.74505805969E-08  0.10566000000E+00  0.10566000000E+00 0. -1.
     999900   -1    0    0    0    0 -0.00000000000E+00 -0.00000000000E+00 -0.74505805969E-08  0.93827000000E+00  0.93827000000E+00 0. -1.
     999902    2    1    2    0    0  0.20314091166E-01 -0.41058677593E-02  0.11566007984E-01  0.10201962057E+01  0.10199200975E+01 0.  0.
     999903    2    3    3    0    0 -0.12119100834E+00 -0.23977537434E-01 -0.26736577521E-01  0.12784780712E+00  0.19184222780E-01 0.  0.
         14    1    1    2    0    0 -0.20314091166E-01  0.41058677593E-02 -0.11566007984E-01  0.23733794274E-01  0.00000000000E+00 0.  1.
     999901    1    3    3    0    0  0.14150509951E+00  0.19871669675E-01  0.38302585505E-01  0.89234839861E+00  0.88000000000E+00 0. -1.
        -11    1    4    4    0    0 -0.52194589528E-01 -0.16710838992E-01 -0.19142031962E-01  0.58053473836E-01  0.51100000000E-03 0. -1.
         11    1    4    4    0    0 -0.68996418812E-01 -0.72666984423E-02 -0.75945455596E-02  0.69794333283E-01  0.51100000000E-03 0.  1.
</event>
<event>
 8    1  0.1128641E+005  0.1043930E+01  0.7957747E-01            NaN
         13   -1    0    0    0    0  0.00000000000E+00  0.00000000000E+00  0.74505805969E-08  0.10566000000E+00  0.10566000000E+00 0.  1.
     999900   -1    0    0    0    0 -0.00000000000E+00 -0.00000000000E+00 -0.74505805969E-08  0.93827000000E+00  0.93827000000E+00 0.  1.
     999902    2    1    2    0    0  0.17953639741E-01  0.13229290047E-01  0.38517265527E-02  0.10212985376E+01  0.10210477558E+01 0.  0.
     999903    2    3    3    0    0  0.69394832005E-01 -0.81529988388E-01 -0.74661132855E-01  0.13124809729E+00  0.13747602286E-01 0.  0.
         14    1    1    2    0    0 -0.17953639741E-01 -0.13229290047E-01 -0.38517265527E-02  0.22631462448E-01  0.00000000000E+00 0. -1.
     999901    1    3    3    0    0 -0.51441192264E-01  0.94759278435E-01  0.78512859407E-01  0.89005044026E+00  0.88000000000E+00 0. -1.
        -11    1    4    4    0    0  0.53849641160E-01 -0.53636402190E-01 -0.52756244425E-01  0.92520970270E-01  0.51100000000E-03 0. -1.
         11    1    4    4    0    0  0.15545190845E-01 -0.27893586197E-01 -0.21904888430E-01  0.38727127023E-01  0.51100000000E-03 0.  1.
</event>
<event>
 8    1  0.1128641E+005  0.1043930E+01  0.7957747E-01            NaN
         13   -1    0    0    0    0  0.00000000000E+00  0.00000000000E+00  0.74505805969E-08  0.10566000000E+00  0.10566000000E+00 0.  1.
     999900   -1    0    0    0    0 -0.00000000000E+00 -0.00000000000E+00 -0.74505805969E-08  0.93827000000E+00  0.93827000000E+00 0. -1.
     999902    2    1    2    0    0  0.13913895109E-01  0.15027520625E-01  0.71121930194E-02  0.10222503749E+01  0.10220204611E+01 0.  0.
     999903    2    3    3    0    0  0.82523829220E-01 -0.49816068639E-02 -0.10184464137E+00  0.13265536596E+00  0.19751363117E-01 0.  0.
         14    1    1    2    0    0 -0.13913895109E-01 -0.15027520625E-01 -0.71121930194E-02  0.21679625061E-01  0.00000000000E+00 0.  1.
     999901    1    3    3    0    0 -0.68609934111E-01  0.20009127489E-01  0.10895683439E+00  0.88959500898E+00  0.88000000000E+00 0. -1.
        -11    1    4    4    0    0  0.62397472800E-01 -0.12039140208E-01 -0.79189406062E-01  0.10153624310E+00  0.51100000000E-03 0.  1.
         11    1    4    4    0    0  0.20126356420E-01  0.70575333442E-02 -0.22655235312E-01  0.31119122862E-01  0.51100000000E-03 0. -1.
</event>
<event>
 8    1  0.1588160E+005  0.1043930E+01  0.7957747E-01            NaN
         13   -1    0    0    0    0  0.00000000000E+00  0.00000000000E+00  0.74505805969E-08  0.10566000000E+00  0.10566000000E+00 0. -1.
     999900   -1    0    0    0    0 -0.00000000000E+00 -0.00000000000E+00 -0.74505805969E-08  0.93827000000E+00  0.93827000000E+00 0.  1.
     999902    2    1    2    0    0 -0.18144782372E-01 -0.14361867217E-01 -0.56339749619E-02  0.10201132405E+01  0.10198351757E+01 0.  0.
     999903    2    3    3    0    0 -0.71377739103E-01 -0.58859272371E-01  0.91889891350E-01  0.13201151706E+00  0.20593516473E-01 0.  0.
         14    1    1    2    0    0  0.18144782372E-01  0.14361867217E-01  0.56339749619E-02  0.23816759459E-01  0.00000000000E+00 0.  1.
     999901    1    3    3    0    0  0.53232956732E-01  0.44497405154E-01 -0.97523866312E-01  0.88810172348E+00  0.88000000000E+00 0.  1.
        -11    1    4    4    0    0 -0.26317531655E-01 -0.34202013988E-01  0.46785455957E-01  0.63651631898E-01  0.51100000000E-03 0. -1.
         11    1    4    4    0    0 -0.45060207448E-01 -0.24657258384E-01  0.45104435393E-01  0.68359885162E-01  0.51100000000E-03 0.  1.
</event>
<event>
 8    1  0.1128641E+005  0.1043930E+01  0.7957747E-01            NaN
         13   -1    0    0    0    0  0.00000000000E+00  0.00000000000E+00  0.74505805969E-08  0.10566000000E+00  0.10566000000E+00 0.  1.
     999900   -1    0    0    0    0 -0.00000000000E+00 -0.00000000000E+00 -0.74505805969E-08  0.93827000000E+00  0.93827000000E+00 0.  1.
     999902    2    1    2    0    0  0.30193804179E-02  0.24641098336E-01 -0.34164043206E-02  0.10188706264E+01  0.10185624091E+01 0.  0.
     999903    2    3    3    0    0 -0.55090206073E-01  0.11624894170E+00  0.20744548673E-01  0.13187994291E+00  0.20328201853E-01 0.  0.
         14    1    1    2    0    0 -0.30193804179E-02 -0.24641098336E-01  0.34164043206E-02  0.25059373572E-01  0.00000000000E+00 0.  1.
     999901    1    3    3    0    0  0.58109586491E-01 -0.91607843359E-01 -0.24160952994E-01  0.88699068352E+00  0.88000000000E+00 0.  1.
        -11    1    4    4    0    0 -0.41681667335E-01  0.68795644008E-01  0.73210011333E-02  0.80771654712E-01  0.51100000000E-03 0.  1.
         11    1    4    4    0    0 -0.13408538738E-01  0.47453297687E-01  0.13423547540E-01  0.51108288193E-01  0.51100000000E-03 0. -1.
</event>
<event>
 8    1  0.1128641E+005  0.1043930E+01  0.7957747E-01            NaN
         13   -1    0    0    0    0  0.00000000000E+00  0.00000000000E+00  0.74505805969E-08  0.10566000000E+00  0.10566000000E+00 0.  1.
     999900   -1    0    0    0    0 -0.00000000000E+00 -0.00000000000E+00 -0.74505805969E-08  0.93827000000E+00  0.93827000000E+00 0. -1.
     999902    2    1    2    0    0 -0.18779337273E-01  0.10386154208E-01 -0.11754885659E-01  0.10194613865E+01  0.10191677024E+01 0.  0.
     999903    2    3    3    0    0  0.12198717798E+00 -0.26421238709E-01  0.14007434881E-01  0.12714210896E+00  0.19747257862E-01 0.  0.
         14    1    1    2    0    0  0.18779337273E-01 -0.10386154208E-01  0.11754885659E-01  0.24468613457E-01  0.00000000000E+00 0. -1.
     999901    1    3    3    0    0 -0.14076651525E+00  0.36807392917E-01 -0.25762320540E-01  0.89231927758E+00  0.88000000000E+00 0. -1.
        -11    1    4    4    0    0  0.10567251908E+00 -0.28167290280E-01  0.16284715197E-01  0.11056912137E+00  0.51100000000E-03 0. -1.
         11    1    4    4    0    0  0.16314658894E-01  0.17460515714E-02 -0.22772803163E-02  0.16572987587E-01  0.51100000000E-03 0.  1.
</event>
<event>
 8    1  0.1128641E+005  0.1043930E+01  0.7957747E-01            NaN
         13   -1    0    0    0    0  0.00000000000E+00  0.00000000000E+00  0.74505805969E-08  0.10566000000E+00  0.10566000000E+00 0.  1.
     999900   -1    0    0    0    0 -0.00000000000E+00 -0.00000000000E+00 -0.74505805969E-08  0.93827000000E+00  0.93827000000E+00 0. -1.
     999902    2    1    2    0    0 -0.20051003643E-01 -0.21136704379E-02 -0.11732655358E-01  0.10206026437E+01  0.10203360186E+01 0.  0.
     999903    2    3    3    0    0 -0.55690349246E-01  0.41190157025E-01 -0.11171604285E+00  0.13316697719E+00  0.21328983829E-01 0.  0.
         14    1    1    2    0    0  0.20051003643E-01  0.21136704379E-02  0.11732655358E-01  0.23327356292E-01  0.00000000000E+00 0.  1.
     999901    1    3    3    0    0  0.35639345603E-01 -0.43303827463E-01  0.99983387487E-01  0.88743566651E+00  0.88000000000E+00 0.  1.
        -11    1    4    4    0    0 -0.53346955937E-02  0.14515567861E-01 -0.22675961674E-01  0.27452159228E-01  0.51100000000E-03 0.  1.
         11    1    4    4    0    0 -0.50355653652E-01  0.26674589164E-01 -0.89040081171E-01  0.10571481797E+00  0.51100000000E-03 0. -1.
</event>
<event>
 8    1  0.1128641E+005  0.1043930E+01  0.7957747E-01            NaN
         13   -1    0    0    0    0  0.00000000000E+00  0.00000000000E+00  0.74505805969E-08  0.10566000000E+00  0.10566000000E+00 0.  1.
     999900   -1    0    0    0    0 -0.00000000000E+00 -0.00000000000E+00 -0.74505805969E-08  0.93827000000E+00  0.93827000000E+00 0. -1.
     999902    2    1    2    0    0 -0.36750255805E-02  0.11058503222E-01 -0.28541813886E-01  0.10131009318E+01  0.10126317527E+01 0.  0.
     999903    2    3    3    0    0  0.96775444760E-01 -0.71351758955E-01 -0.19633946730E-01  0.12351614191E+00  0.20351541287E-01 0.  0.
         14    1    1    2    0    0  0.36750255805E-02 -0.11058503222E-01  0.28541813886E-01  0.30829068205E-01  0.00000000000E+00 0.  1.
     999901    1    3    3    0    0 -0.10045047034E+00  0.82410262177E-01 -0.89078671552E-02  0.88958478989E+00  0.88000000000E+00 0.  1.
        -11    1    4    4    0    0  0.32863525808E-01 -0.36238511070E-01 -0.10314205304E-01  0.49998849638E-01  0.51100000000E-03 0. -1.
         11    1    4    4    0    0  0.63911918952E-01 -0.35113247885E-01 -0.93197414265E-02  0.73517292268E-01  0.51100000000E-03 0.  1.
</event>
<event>
 8    1  0.1128641E+005  0.1043930E+01  0.7957747E-01            NaN
         13   -1    0    0    0    0  0.00000000000E+00  0.00000000000E+00  0.74505805969E-08  0.10566000000E+00  0.10566000000E+00 0. -1.
     999900   -1    0    0    0    0 -0.00000000000E+00 -0.00000000000E+00 -0.74505805969E-08  0.93827000000E+00  0.93827000000E+00 0.  1.
     999902    2    1    2    0    0 -0.71721965614E-02 -0.78342479523E-03  0.21137301418E-01  0.10215952811E+01  0.10213511045E+01 0.  0.
     999903    2    3    3    0    0  0.15715136542E-01 -0.97312384820E-01  0.88519470677E-01  0.13346126705E+00  0.16110473576E-01 0.  0.
         14    1    1    2    0    0  0.71721965614E-02  0.78342479523E-03 -0.21137301418E-01  0.22334718918E-01  0.00000000000E+00 0.  1.
     999901    1    3    3    0    0 -0.22887333103E-01  0.96528960024E-01 -0.67382169259E-01  0.88813401403E+00  0.88000000000E+00 0.  1.
        -11    1    4    4    0    0  0.11958280304E-01 -0.93198902787E-01  0.85789073084E-01  0.12723624535E+00  0.51100000000E-03 0. -1.
         11    1    4    4    0    0  0.37568562381E-02 -0.41134820322E-02  0.27303975928E-02  0.62250217058E-02  0.51100000000E-03 0.  1.
</event>
<event>
 8    1  0.1128641E+005  0.1043930E+01  0.7957747E-01            NaN
         13   -1    0    0    0    0  0.00000000000E+00  0.00000000000E+00  0.74505805969E-08  0.10566000000E+00  0.10566000000E+00 0.  1.
     999900   -1    0    0    0    0 -0.00000000000E+00 -0.00000000000E+00 -0.74505805969E-08  0.93827000000E+00  0.93827000000E+00 0. -1.
     999902    2    1    2    0    0 -0.20326184761E-01  0.18140030724E-02 -0.12995965546E-01  0.10197362092E+01  0.10194491634E+01 0.  0.
     999903    2    3    3    0    0 -0.68203619813E-01 -0.58840013441E-01 -0.95477137979E-01  0.13250777054E+00  0.18125794895E-01 0.  0.
         14    1    1    2    0    0  0.20326184761E-01 -0.18140030724E-02  0.12995965546E-01  0.24193790826E-01  0.00000000000E+00 0.  1.
     999901    1    3    3    0    0  0.47877435053E-01  0.60654016514E-01  0.82481172433E-01  0.88722843863E+00  0.88000000000E+00 0.  1.
        -11    1    4    4    0    0 -0.31386421831E-01 -0.34811676137E-01 -0.39292967034E-01  0.61165011651E-01  0.51100000000E-03 0. -1.
         11    1    4    4    0    0 -0.36817197982E-01 -0.24028337304E-01 -0.56184170945E-01  0.71342758894E-01  0.51100000000E-03 0.  1.
</event>
<event>
 8    1  0.1128641E+005  0.1043930E+01  0.7957747E-01            NaN
         13   -1    0    0    0    0  0.00000000000E+00  0.00000000000E+00  0.74505805969E-08  0.10566000000E+00  0.10566000000E+00 0.  1.
     999900   -1    0    0    0    0 -0.00000000000E+00 -0.00000000000E+00 -0.74505805969E-08  0.93827000000E+00  0.93827000000E+00 0. -1.
     999902    2    1    2    0    0 -0.13043265770E-01  0.14713952340E-01 -0.13950573623E-01  0.10198209627E+01  0.10195359485E+01 0.  0.
     999903    2    3    3    0    0 -0.89141776866E-01  0.76342465914E-01 -0.58828251942E-01  0.13325282482E+00  0.22828132036E-01 0.  0.
         14    1    1    2    0    0  0.13043265770E-01 -0.14713952340E-01  0.13950573623E-01  0.24109037306E-01  0.00000000000E+00 0.  1.
     999901    1    3    3    0    0  0.76098511095E-01 -0.61628513574E-01  0.44877678319E-01  0.88656813787E+00  0.88000000000E+00 0.  1.
        -11    1    4    4    0    0 -0.52183082617E-01  0.56276357697E-01 -0.45060495779E-01  0.88998943522E-01  0.51100000000E-03 0. -1.
         11    1    4    4    0    0 -0.36958694248E-01  0.20066108217E-01 -0.13767756163E-01  0.44253881302E-01  0.51100000000E-03 0.  1.
</event>
<event>
 8    1  0.1128641E+005  0.1043930E+01  0.7957747E-01            NaN
         13   -1    0    0    0    0  0.00000000000E+00  0.00000000000E+00  0.74505805969E-08  0.10566000000E+00  0.10566000000E+00 0.  1.
     999900   -1    0    0    0    0 -0.00000000000E+00 -0.00000000000E+00 -0.74505805969E-08  0.93827000000E+00  0.93827000000E+00 0. -1.
     999902    2    1    2    0    0 -0.41381578648E-02  0.15028911083E-01 -0.16839370635E-01  0.10209831718E+01  0.10207252717E+01 0.  0.
     999903    2    3    3    0    0  0.16985578569E-01  0.47401768700E-01 -0.12261911031E+00  0.13380586856E+00  0.18251758624E-01 0.  0.
         14    1    1    2    0    0  0.41381578648E-02 -0.15028911083E-01  0.16839370635E-01  0.22946828152E-01  0.00000000000E+00 0.  1.
     999901    1    3    3    0    0 -0.21123736434E-01 -0.32372857617E-01  0.10577973967E+00  0.88717730329E+00  0.88000000000E+00 0.  1.
        -11    1    4    4    0    0  0.15264501996E-01  0.35867542323E-01 -0.10956542766E+00  0.11629415150E+00  0.51100000000E-03 0. -1.
         11    1    4    4    0    0  0.17210765729E-02  0.11534226377E-01 -0.13053682643E-01  0.17511717056E-01  0.51100000000E-03 0.  1.
</event>
<event>
 8    1  0.1128641E+005  0.1043930E+01  0.7957747E-01            NaN
         13   -1    0    0    0    0  0.00000000000E+00  0.00000000000E+00  0.74505805969E-08  0.10566000000E+00  0.10566000000E+00 0.  1.
     999900   -1    0    0    0    0 -0.00000000000E+00 -0.00000000000E+00 -0.74505805969E-08  0.93827000000E+00  0.93827000000E+00 0.  1.
     999902    2    1    2    0    0  0.11389042496E-01 -0.84291249170E-02 -0.18634825618E-01  0.10205202336E+01  0.10202516994E+01 0.  0.
     999903    2    3    3    0    0 -0.90756763395E-01 -0.39800503820E-01  0.79567755381E-01  0.12863365116E+00  0.19867518898E-01 0.  0.
         14    1    1    2    0    0 -0.11389042496E-01  0.84291249170E-02  0.18634825618E-01  0.23409766373E-01  0.00000000000E+00 0.  1.
     999901    1    3    3    0    0  0.10214580589E+00  0.31371378903E-01 -0.98202580999E-01  0.89188658247E+00  0.88000000000E+00 0.  1.
        -11    1    4    4    0    0 -0.70541113788E-01 -0.26602933228E-01  0.69264832798E-01  0.10237989536E+00  0.51100000000E-03 0.  1.
         11    1    4    4    0    0 -0.20215649608E-01 -0.13197570592E-01  0.10302922583E-01  0.26253755795E-01  0.51100000000E-03 0. -1.
</event>
<event>
 8    1  0.1128641E+005  0.1043930E+01  0.7957747E-01            NaN
         13   -1    0    0    0    0  0.00000000000E+00  0.00000000000E+00  0.74505805969E-08  0.10566000000E+00  0.10566000000E+00 0. -1.
     999900   -1    0    0    0    0 -0.00000000000E+00 -0.00000000000E+00 -0.74505805969E-08  0.93827000000E+00  0.93827000000E+00 0.  1.
     999902    2    1    2    0    0  0.17315200283E-01  0.42283922331E-02 -0.15003422185E-01  0.10206319713E+01  0.10203660239E+01 0.  0.
     999903    2    3    3    0    0 -0.83026165630E-01 -0.51799578205E-01  0.80172893910E-01  0.12807045844E+00  0.19945147915E-01 0.  0.
         14    1    1    2    0    0 -0.17315200283E-01 -0.42283922331E-02  0.15003422185E-01  0.23298028650E-01  0.00000000000E+00 0. -1.
     999901    1    3    3    0    0  0.10034136591E+00  0.56027970439E-01 -0.95176316095E-01  0.89256151291E+00  0.88000000000E+00 0. -1.
        -11    1    4    4    0    0 -0.35503955306E-01 -0.19918552810E-01  0.21227269725E-01  0.45914460570E-01  0.51100000000E-03 0. -1.
         11    1    4    4    0    0 -0.47522210324E-01 -0.31881025396E-01  0.58945624185E-01  0.82155997869E-01  0.51100000000E-03 0.  1.
</event>
<event>
 8    1  0.1128641E+005  0.1043930E+01  0.7957747E-01            NaN
         13   -1    0    0    0    0  0.00000000000E+00  0.00000000000E+00  0.74505805969E-08  0.10566000000E+00  0.10566000000E+00 0.  1.
     999900   -1    0    0    0    0 -0.00000000000E+00 -0.00000000000E+00 -0.74505805969E-08  0.93827000000E+00  0.93827000000E+00 0. -1.
     999902    2    1    2    0    0 -0.21122524424E-01  0.78023973909E-02 -0.37204203547E-02  0.10211072050E+01  0.10208521167E+01 0.  0.
     999903    2    3    3    0    0  0.43286724104E-01  0.14045570271E-01  0.12014799183E+00  0.13007919646E+00  0.20347945395E-01 0.  0.
         14    1    1    2    0    0  0.21122524424E-01 -0.78023973909E-02  0.37204203547E-02  0.22822794980E-01  0.00000000000E+00 0.  1.
     999901    1    3    3    0    0 -0.64409248528E-01 -0.62431728805E-02 -0.12386841219E+00  0.89102800856E+00  0.88000000000E+00 0. -1.
        -11    1    4    4    0    0  0.32688762106E-01  0.10866721439E-02  0.86861867406E-01  0.92816922781E-01  0.51100000000E-03 0.  1.
         11    1    4    4    0    0  0.10597961999E-01  0.12958898127E-01  0.33286124427E-01  0.37262273677E-01  0.51100000000E-03 0. -1.
</event>
<event>
 8    1  0.1128641E+005  0.1043930E+01  0.7957747E-01            NaN
         13   -1    0    0    0    0  0.00000000000E+00  0.00000000000E+00  0.74505805969E-08  0.10566000000E+00  0.10566000000E+00 0. -1.
     999900   -1    0    0    0    0 -0.00000000000E+00 -0.00000000000E+00 -0.74505805969E-08  0.93827000000E+00  0.93827000000E+00 0.  1.
     999902    2    1    2    0    0 -0.22108434647E-01 -0.12207811831E-01 -0.13075665316E-01  0.10154908267E+01  0.10150925242E+01 0.  0.
     999903    2    3    3    0    0 -0.99375167741E-01  0.33332640807E-01  0.68812381536E-01  0.12714982629E+00  0.21105581381E-01 0.  0.
         14    1    1    2    0    0  0.22108434647E-01  0.12207811831E-01  0.13075665316E-01  0.28439173260E-01  0.00000000000E+00 0.  1.
     999901    1    3    3    0    0  0.77266733093E-01 -0.45540452637E-01 -0.81888046852E-01  0.88834100045E+00  0.88000000000E+00 0.  1.
        -11    1    4    4    0    0 -0.32964721213E-01  0.11195319813E-02  0.18500857631E-01  0.37821542150E-01  0.51100000000E-03 0. -1.
         11    1    4    4    0    0 -0.66410446528E-01  0.32213108825E-01  0.50311523905E-01  0.89328284137E-01  0.51100000000E-03 0.  1.
</event>
<event>
 8    1  0.1128641E+005  0.1043930E+01  0.7957747E-01            NaN
         13   -1    0    0    0    0  0.00000000000E+00  0.00000000000E+00  0.74505805969E-08  0.10566000000E+00  0.10566000000E+00 0. -1.
     999900   -1    0    0    0    0 -0.00000000000E+00 -0.00000000000E+00 -0.74505805969E-08  0.93827000000E+00  0.93827000000E+00 0.  1.
     999902    2    1    2    0    0 -0.57199719182E-02  0.13551061799E-01 -0.18608513594E-01  0.10202102586E+01  0.10199344810E+01 0.  0.
     999903    2    3    3    0    0 -0.14108868691E-01 -0.18320336715E-01  0.12425200529E+00  0.12808062255E+00  0.20769933563E-01 0.  0.
         14    1    1    2    0    0  0.57199719182E-02 -0.13551061799E-01  0.18608513594E-01  0.23719741415E-01  0.00000000000E+00 0. -1.
     999901    1    3    3    0    0  0.83888967729E-02  0.31871398513E-01 -0.14286051889E+00  0.89212963603E+00  0.88000000000E+00 0.  1.
        -11    1    4    4    0    0 -0.24246751708E-02  0.38152144727E-02  0.37920057998E-01  0.38191973381E-01  0.51100000000E-03 0.  1.
         11    1    4    4    0    0 -0.11684193520E-01 -0.22135551187E-01  0.86331947297E-01  0.89888649170E-01  0.51100000000E-03 0. -1.
</event>
<event>
 8    1  0.1128641E+005  0.1043930E+01  0.7957747E-01            NaN
         13   -1    0    0    0    0  0.00000000000E+00  0.00000000000E+00  0.74505805969E-08  0.10566000000E+00  0.10566000000E+00 0. -1.
     999900   -1    0    0    0    0 -0.00000000000E+00 -0.00000000000E+00 -0.74505805969E-08  0.93827000000E+00  0.93827000000E+00 0. -1.
     999902    2    1    2    0    0 -0.16127924853E-01 -0.14928846604E-01  0.11461472393E-01  0.10191440005E+01  0.10188425531E+01 0.  0.
     999903    2    3    3    0    0  0.66172603192E-02 -0.89705467601E-01  0.94166704500E-01  0.13181709237E+00  0.20433270750E-01 0.  0.
         14    1    1    2    0    0  0.16127924853E-01  0.14928846604E-01 -0.11461472393E-01  0.24785999484E-01  0.00000000000E+00 0.  1.
     999901    1    3    3    0    0 -0.22745185172E-01  0.74776620997E-01 -0.82705232107E-01  0.88732690814E+00  0.88000000000E+00 0. -1.
        -11    1    4    4    0    0 -0.61412021813E-02 -0.45932927764E-01  0.42156712749E-01  0.62649802618E-01  0.51100000000E-03 0. -1.
         11    1    4    4    0    0  0.12758462500E-01 -0.43772539838E-01  0.52009991751E-01  0.69167289756E-01  0.51100000000E-03 0.  1.
</event>
<event>
 8    1  0.1128641E+005  0.1043930E+01  0.7957747E-01            NaN
         13   -1    0    0    0    0  0.00000000000E+00  0.00000000000E+00  0.74505805969E-08  0.10566000000E+00  0.10566000000E+00 0.  1.
     999900   -1    0    0    0    0 -0.00000000000E+00 -0.00000000000E+00 -0.74505805969E-08  0.93827000000E+00  0.93827000000E+00 0.  1.
     999902    2    1    2    0    0 -0.45782886254E-02  0.93635552574E-02 -0.20054474368E-01  0.10213286984E+01  0.10210785921E+01 0.  0.
     999903    2    3    3    0    0  0.20638420343E-01 -0.12625594019E+00  0.11492030294E-01  0.13002419825E+00  0.20192041555E-01 0.  0.
         14    1    1    2    0    0  0.45782886254E-02 -0.93635552574E-02  0.20054474368E-01  0.22601301643E-01  0.00000000000E+00 0.  1.
     999901    1    3    3    0    0 -0.25216708969E-01  0.13561949545E+00 -0.31546504662E-01  0.89130450011E+00  0.88000000000E+00 0.  1.
        -11    1    4    4    0    0  0.17203311522E-01 -0.49661344108E-01  0.88981448507E-02  0.53307045770E-01  0.51100000000E-03 0.  1.
         11    1    4    4    0    0  0.34351088210E-02 -0.76594596083E-01  0.25938854436E-02  0.76717152478E-01  0.51100000000E-03 0. -1.
</event>
<event>
 8    1  0.1128641E+005  0.1043930E+01  0.7957747E-01            NaN
         13   -1    0    0    0    0  0.00000000000E+00  0.00000000000E+00  0.74505805969E-08  0.10566000000E+00  0.10566000000E+00 0.  1.
     999900   -1    0    0    0    0 -0.00000000000E+00 -0.00000000000E+00 -0.74505805969E-08  0.93827000000E+00  0.93827000000E+00 0. -1.
     999902    2    1    2    0    0 -0.11964910703E-01 -0.50011228358E-02 -0.19077088371E-01  0.10208625854E+01  0.10206019364E+01 0.  0.
     999903    2    3    3    0    0  0.12063229806E+00 -0.25811536294E-01 -0.37713572839E-01  0.13049052176E+00  0.19674245856E-01 0.  0.
         14    1    1    2    0    0  0.11964910703E-01  0.50011228358E-02  0.19077088371E-01  0.23067414646E-01  0.00000000000E+00 0.  1.
     999901    1    3    3    0    0 -0.13259720877E+00  0.20810413458E-01  0.18636484469E-01  0.89037206360E+00  0.88000000000E+00 0.  1.
        -11    1    4    4    0    0  0.72476430126E-01 -0.89018993326E-02 -0.14637609590E-01  0.74475482348E-01  0.51100000000E-03 0. -1.
         11    1    4    4    0    0  0.48155867938E-01 -0.16909636961E-01 -0.23075963249E-01  0.56015039408E-01  0.51100000000E-03 0.  1.
</event>
<event>
 8    1  0.1128641E+005  0.1043930E+01  0.7957747E-01            NaN
         13   -1    0    0    0    0  0.00000000000E+00  0.00000000000E+00  0.74505805969E-08  0.10566000000E+00  0.10566000000E+00 0. -1.
     999900   -1    0    0    0    0 -0.00000000000E+00 -0.00000000000E+00 -0.74505805969E-08  0.93827000000E+00  0.93827000000E+00 0. -1.
     999902    2    1    2    0    0  0.11752495998E-01  0.47024304269E-03  0.21067806570E-01  0.10198012876E+01  0.10195158024E+01 0.  0.
     999903    2    3    3    0    0 -0.10047306608E+00  0.69436473245E-01 -0.33508061665E-01  0.12832529624E+00  0.20696150246E-01 0.  0.
         14    1    1    2    0    0 -0.11752495998E-01 -0.47024304269E-03 -0.21067806570E-01  0.24128712447E-01  0.00000000000E+00 0.  1.
     999901    1    3    3    0    0  0.11222556208E+00 -0.68966230202E-01  0.54575868235E-01  0.89147599131E+00  0.88000000000E+00 0.  1.
        -11    1    4    4    0    0 -0.33182309992E-01  0.15998049353E-01 -0.23327978585E-02  0.36914852652E-01  0.51100000000E-03 0.  1.
         11    1    4    4    0    0 -0.67290756086E-01  0.53438423892E-01 -0.31175263807E-01  0.91410443589E-01  0.51100000000E-03 0. -1.
</event>
<event>
 8    1  0.1128641E+005  0.1043930E+01  0.7957747E-01            NaN
         13   -1    0    0    0    0  0.00000000000E+00  0.00000000000E+00  0.74505805969E-08  0.10566000000E+00  0.10566000000E+00 0. -1.
     999900   -1    0    0    0    0 -0.00000000000E+00 -0.00000000000E+00 -0.74505805969E-08  0.93827000000E+00  0.93827000000E+00 0.  1.
     999902    2    1    2    0    0  0.12800079113E-02 -0.10712794706E-01 -0.20678914502E-01  0.10206057659E+01  0.10203392130E+01 0.  0.
     999903    2    3    3    0    0 -0.84684352074E-01  0.68655806281E-01 -0.70695115073E-01  0.13145399803E+00  0.19932262314E-01 0.  0.
         14    1    1    2    0    0 -0.12800079113E-02  0.10712794706E-01  0.20678914502E-01  0.23324234085E-01  0.00000000000E+00 0. -1.
     999901    1    3    3    0    0  0.85964359985E-01 -0.79368600987E-01  0.50016200571E-01  0.88915176788E+00  0.88000000000E+00 0. -1.
        -11    1    4    4    0    0 -0.10469864984E-01  0.14622979921E-01 -0.53503050485E-02  0.18770628643E-01  0.51100000000E-03 0. -1.
         11    1    4    4    0    0 -0.74214487090E-01  0.54032826360E-01 -0.65344810025E-01  0.11268336939E+00  0.51100000000E-03 0.  1.
</event>
<event>
 8    1  0.1128641E+005  0.1043930E+01  0.7957747E-01            NaN
         13   -1    0    0    0    0  0.00000000000E+00  0.00000000000E+00  0.74505805969E-08  0.10566000000E+00  0.10566000000E+00 0.  1.
     999900   -1    0    0    0    0 -0.00000000000E+00 -0.00000000000E+00 -0.74505805969E-08  0.93827000000E+00  0.93827000000E+00 0. -1.
     999902    2    1    2    0    0  0.22690981119E-01 -0.39577868441E-02  0.67765561675E-02  0.10199202850E+01  0.10196376422E+01 0.  0.
     999903    2    3    3    0    0  0.12820551483E+00 -0.21512025437E-01  0.24519535888E-01  0.13326574041E+00  0.16097473612E-01 0.  0.
         14    1    1    2    0    0 -0.22690981119E-01  0.39577868441E-02 -0.67765561675E-02  0.24009714999E-01  0.00000000000E+00 0. -1.
     999901    1    3    3    0    0 -0.10551453371E+00  0.17554238593E-01 -0.17742979720E-01  0.88665454459E+00  0.88000000000E+00 0. -1.
        -11    1    4    4    0    0  0.47841342472E-01 -0.12500976386E-01  0.15873238326E-01  0.51935433724E-01  0.51100000000E-03 0. -1.
         11    1    4    4    0    0  0.80364172353E-01 -0.90110490511E-02  0.86462975611E-02  0.81330306686E-01  0.51100000000E-03 0.  1.
</event>
<event>
 8    1  0.1128641E+005  0.1043930E+01  0.7957747E-01            NaN
         13   -1    0    0    0    0  0.00000000000E+00  0.00000000000E+00  0.74505805969E-08  0.10566000000E+00  0.10566000000E+00 0.  1.
     999900   -1    0    0    0    0 -0.00000000000E+00 -0.00000000000E+00 -0.74505805969E-08  0.93827000000E+00  0.93827000000E+00 0.  1.
     999902    2    1    2    0    0  0.19119276620E-01  0.58295788961E-02 -0.12753925621E-01  0.10202193832E+01  0.10199438203E+01 0.  0.
     999903    2    3    3    0    0  0.72800151708E-01  0.39173475965E-01 -0.10354088685E+00  0.13329451373E+00  0.14570134932E-01 0.  0.
         14    1    1    2    0    0 -0.19119276620E-01 -0.58295788961E-02  0.12753925621E-01  0.23710616764E-01  0.00000000000E+00 0.  1.
     999901    1    3    3    0    0 -0.53680875087E-01 -0.33343897069E-01  0.90786961231E-01  0.88692486951E+00  0.88000000000E+00 0.  1.
        -11    1    4    4    0    0  0.37225293741E-01  0.27551619196E-01 -0.61822877800E-01  0.77247288334E-01  0.51100000000E-03 0.  1.
         11    1    4    4    0    0  0.35574857967E-01  0.11621856770E-01 -0.41718009052E-01  0.56047225394E-01  0.51100000000E-03 0. -1.
</event>
<event>
 8    1  0.1128641E+005  0.1043930E+01  0.7957747E-01            NaN
         13   -1    0    0    0    0  0.00000000000E+00  0.00000000000E+00  0.74505805969E-08  0.10566000000E+00  0.10566000000E+00 0. -1.
     999900   -1    0    0    0    0 -0.00000000000E+00 -0.00000000000E+00 -0.74505805969E-08  0.93827000000E+00  0.93827000000E+00 0.  1.
     999902    2    1    2    0    0  0.51061136118E-02  0.22302142297E-01  0.69438243854E-02  0.10200202814E+01  0.10197400158E+01 0.  0.
     999903    2    3    3    0    0 -0.75326164426E-01  0.41524384748E-02  0.10515758644E+00  0.13072578227E+00  0.18434705635E-01 0.  0.
         14    1    1    2    0    0 -0.51061136118E-02 -0.22302142297E-01 -0.69438243854E-02  0.23909718617E-01  0.00000000000E+00 0.  1.
     999901    1    3    3    0    0  0.80432278038E-01  0.18149703822E-01 -0.98213762052E-01  0.88929449911E+00  0.88000000000E+00 0. -1.
        -11    1    4    4    0    0 -0.28694386477E-01  0.31814461631E-02  0.55716495690E-01  0.62754110845E-01  0.51100000000E-03 0.  1.
         11    1    4    4    0    0 -0.46631777949E-01  0.97099231169E-03  0.49441090748E-01  0.67971671424E-01  0.51100000000E-03 0. -1.
</event>
<event>
 8    1  0.1128641E+005  0.1043930E+01  0.7957747E-01            NaN
         13   -1    0    0    0    0  0.00000000000E+00  0.00000000000E+00  0.74505805969E-08  0.10566000000E+00  0.10566000000E+00 0. -1.
     999900   -1    0    0    0    0 -0.00000000000E+00 -0.00000000000E+00 -0.74505805969E-08  0.93827000000E+00  0.93827000000E+00 0. -1.
     999902    2    1    2    0    0 -0.13221117351E-01 -0.17455966630E-01 -0.46701567617E-02  0.10215398441E+01  0.10212944405E+01 0.  0.
     999903    2    3    3    0    0  0.26334466524E-01 -0.92859907089E-01 -0.89902097113E-01  0.13333103868E+00  0.19450252909E-01 0.  0.
         14    1    1    2    0    0  0.13221117351E-01  0.17455966630E-01  0.46701567617E-02  0.22390155854E-01  0.00000000000E+00 0. -1.
     999901    1    3    3    0    0 -0.39555583875E-01  0.75403940459E-01  0.85231940351E-01  0.88820880547E+00  0.88000000000E+00 0. -1.
        -11    1    4    4    0    0  0.25813513651E-01 -0.56814495864E-01 -0.57519888296E-01  0.84870625648E-01  0.51100000000E-03 0.  1.
         11    1    4    4    0    0  0.52095287326E-03 -0.36045411225E-01 -0.32382208817E-01  0.48460413031E-01  0.51100000000E-03 0. -1.
</event>
<event>
 8    1  0.1128641E+005  0.1043930E+01  0.7957747E-01            NaN
         13   -1    0    0    0    0  0.00000000000E+00  0.00000000000E+00  0.74505805969E-08  0.10566000000E+00  0.10566000000E+00 0. -1.
     999900   -1    0    0    0    0 -0.00000000000E+00 -0.00000000000E+00 -0.74505805969E-08  0.93827000000E+00  0.93827000000E+00 0. -1.
     999902    2    1    2    0    0 -0.75795745647E-02 -0.21412260632E-01  0.45548669385E-02  0.10207636091E+01  0.10205006928E+01 0.  0.
     999903    2    3    3    0    0  0.89202800495E-01 -0.54934611513E-01 -0.76299137397E-01  0.13114124753E+00  0.20037896053E-01 0.  0.
         14    1    1    2    0    0  0.75795745647E-02  0.21412260632E-01 -0.45548669385E-02  0.23166390932E-01  0.00000000000E+00 0.  1.
     999901    1    3    3    0    0 -0.96782375059E-01  0.33522350881E-01  0.80854004336E-01  0.88962236154E+00  0.88000000000E+00 0.  1.
        -11    1    4    4    0    0  0.50513567660E-01 -0.39675498991E-01 -0.54179882786E-01  0.84032651735E-01  0.51100000000E-03 0. -1.
         11    1    4    4    0    0  0.38689232835E-01 -0.15259112522E-01 -0.22119254611E-01  0.47108595796E-01  0.51100000000E-03 0.  1.
</event>
<event>
 8    1  0.1128641E+005  0.1043930E+01  0.7957747E-01            NaN
         13   -1    0    0    0    0  0.00000000000E+00  0.00000000000E+00  0.74505805969E-08  0.10566000000E+00  0.10566000000E+00 0. -1.
     999900   -1    0    0    0    0 -0.00000000000E+00 -0.00000000000E+00 -0.74505805969E-08  0.93827000000E+00  0.93827000000E+00 0.  1.
     999902    2    1    2    0    0  0.14424540193E-01 -0.16740900759E-01 -0.83191673346E-02  0.10203178492E+01  0.10200445970E+01 0.  0.
     999903    2    3    3    0    0 -0.52441112621E-01  0.42214224980E-02 -0.11809709027E+00  0.13073276232E+00  0.19396951118E-01 0.  0.
         14    1    1    2    0    0 -0.14424540193E-01  0.16740900759E-01  0.83191673346E-02  0.23612150752E-01  0.00000000000E+00 0. -1.
     999901    1    3    3    0    0  0.66865652813E-01 -0.20962323257E-01  0.10977792293E+00  0.88958508693E+00  0.88000000000E+00 0. -1.
        -11    1    4    4    0    0 -0.32655717660E-01  0.11526895001E-01 -0.80203921541E-01  0.87362436755E-01  0.51100000000E-03 0.  1.
         11    1    4    4    0    0 -0.19785394960E-01 -0.73054725029E-02 -0.37893168728E-01  0.43370325564E-01  0.51100000000E-03 0. -1.
</event>
<event>
 8    1  0.1128641E+005  0.1043930E+01  0.7957747E-01            NaN
         13   -1    0    0    0    0  0.00000000000E+00  0.00000000000E+00  0.74505805969E-08  0.10566000000E+00  0.10566000000E+00 0.  1.
     999900   -1    0    0    0    0 -0.00000000000E+00 -0.00000000000E+00 -0.74505805969E-08  0.93827000000E+00  0.93827000000E+00 0. -1.
     999902    2    1    2    0    0  0.34461732740E-01  0.48557682959E-02 -0.15255810064E-01  0.10059309309E+01  0.10052129668E+01 0.  0.
     999903    2    3    3    0    0  0.69097913931E-01 -0.36818062499E-02  0.93950499856E-01  0.11846342541E+00  0.20464831562E-01 0.  0.
         14    1    1    2    0    0 -0.34461732740E-01 -0.48557682959E-02  0.15255810064E-01  0.37999069066E-01  0.00000000000E+00 0. -1.
     999901    1    3    3    0    0 -0.34636181191E-01  0.85375745458E-02 -0.10920630992E+00  0.88746750552E+00  0.88000000000E+00 0. -1.
        -11    1    4    4    0    0  0.90874531762E-02  0.40707677144E-03  0.26824039670E-01  0.28329097090E-01  0.51100000000E-03 0.  1.
         11    1    4    4    0    0  0.60010460755E-01 -0.40888830213E-02  0.67126460186E-01  0.90134328324E-01  0.51100000000E-03 0. -1.
</event>
<event>
 8    1  0.1128641E+005  0.1043930E+01  0.7957747E-01            NaN
         13   -1    0    0    0    0  0.00000000000E+00  0.00000000000E+00  0.74505805969E-08  0.10566000000E+00  0.10566000000E+00 0. -1.
     999900   -1    0    0    0    0 -0.00000000000E+00 -0.00000000000E+00 -0.74505805969E-08  0.93827000000E+00  0.93827000000E+00 0.  1.
     999902    2    1    2    0    0  0.18704767185E-01 -0.13606503984E-01 -0.13954278250E-02  0.10207577648E+01  0.10204947143E+01 0.  0.
     999903    2    3    3    0    0 -0.82520989332E-01 -0.91975056529E-01  0.36890728558E-01  0.13067118833E+00  0.21092863776E-01 0.  0.
         14    1    1    2    0    0 -0.18704767185E-01  0.13606503984E-01  0.13954278250E-02  0.23172235217E-01  0.00000000000E+00 0. -1.
     999901    1    3    3    0    0  0.10122575652E+00  0.78368552545E-01 -0.38286156383E-01  0.89008657645E+00  0.88000000000E+00 0.  1.
        -11    1    4    4    0    0 -0.13158522829E-01 -0.27376366976E-01  0.58919608572E-02  0.30944927138E-01  0.51100000000E-03 0.  1.
         11    1    4    4    0    0 -0.69362466504E-01 -0.64598689553E-01  0.30998767701E-01  0.99726261192E-01  0.51100000000E-03 0. -1.
</event>
<event>
 8    1  0.1128641E+005  0.1043930E+01  0.7957747E-01            NaN
         13   -1    0    0    0    0  0.00000000000E+00  0.00000000000E+00  0.74505805969E-08  0.10566000000E+00  0.10566000000E+00 0. -1.
     999900   -1    0    0    0    0 -0.00000000000E+00 -0.00000000000E+00 -0.74505805969E-08  0.93827000000E+00  0.93827000000E+00 0. -1.
     999902    2    1    2    0    0  0.11023466107E-02 -0.20702954863E-01  0.29706330900E-02  0.10229859753E+01  0.10227715549E+01 0.  0.
     999903    2    3    3    0    0 -0.72216847121E-01 -0.10820296101E+00  0.33333244009E-01  0.13509305196E+00  0.14692642788E-01 0.  0.
         14    1    1    2    0    0 -0.11023466107E-02  0.20702954863E-01 -0.29706330900E-02  0.20944024663E-01  0.00000000000E+00 0.  1.
     999901    1    3    3    0    0  0.73319193732E-01  0.87500006145E-01 -0.30362610919E-01  0.88789292338E+00  0.88000000000E+00 0.  1.
        -11    1    4    4    0    0 -0.56070383359E-01 -0.91990812973E-01  0.30901505764E-01  0.11207748097E+00  0.51100000000E-03 0. -1.
         11    1    4    4    0    0 -0.16146463762E-01 -0.16212148036E-01  0.24317382442E-02  0.23015570986E-01  0.51100000000E-03 0.  1.
</event>
<event>
 8    1  0.1128641E+005  0.1043930E+01  0.7957747E-01            NaN
         13   -1    0    0    0    0  0.00000000000E+00  0.00000000000E+00  0.74505805969E-08  0.10566000000E+00  0.10566000000E+00 0.  1.
     999900   -1    0    0    0    0 -0.00000000000E+00 -0.00000000000E+00 -0.74505805969E-08  0.93827000000E+00  0.93827000000E+00 0.  1.
     999902    2    1    2    0    0  0.15557068586E-01 -0.16094286830E-01 -0.66829540699E-02  0.10205695564E+01  0.10203021656E+01 0.  0.
     999903    2    3    3    0    0 -0.11689336442E+00  0.31795799236E-01 -0.38852625865E-01  0.12878961416E+00  0.20055091247E-01 0.  0.
         14    1    1    2    0    0 -0.15557068586E-01  0.16094286830E-01  0.66829540699E-02  0.23360443631E-01  0.00000000000E+00 0. -1.
     999901    1    3    3    0    0  0.13245043300E+00 -0.47890086065E-01  0.32169671795E-01  0.89177994221E+00  0.88000000000E+00 0.  1.
        -11    1    4    4    0    0 -0.70747364203E-01  0.29262863216E-01 -0.24979871632E-01  0.80534215170E-01  0.51100000000E-03 0. -1.
         11    1    4    4    0    0 -0.46146000213E-01  0.25329360200E-02 -0.13872754234E-01  0.48255398989E-01  0.51100000000E-03 0.  1.
</event>
<event>
 8    1  0.1128641E+005  0.1043930E+01  0.7957747E-01            NaN
         13   -1    0    0    0    0  0.00000000000E+00  0.00000000000E+00  0.74505805969E-08  0.10566000000E+00  0.10566000000E+00 0. -1.
     999900   -1    0    0    0    0 -0.00000000000E+00 -0.00000000000E+00 -0.74505805969E-08  0.93827000000E+00  0.93827000000E+00 0.  1.
     999902    2    1    2    0    0 -0.30680728980E-02  0.23897279563E-01  0.24834742572E-02  0.10197089206E+01  0.10194212192E+01 0.  0.
     999903    2    3    3    0    0 -0.16357542123E-01  0.12904041060E+00  0.19565771203E-01  0.13318565930E+00  0.20895063742E-01 0.  0.
         14    1    1    2    0    0  0.30680728980E-02 -0.23897279563E-01 -0.24834742572E-02  0.24221079377E-01  0.00000000000E+00 0.  1.
     999901    1    3    3    0    0  0.13289469225E-01 -0.10514313104E+00 -0.17082296946E-01  0.88652326132E+00  0.88000000000E+00 0. -1.
        -11    1    4    4    0    0 -0.30922836313E-02  0.55970670330E-02 -0.28564629859E-02  0.70220993455E-02  0.51100000000E-03 0.  1.
         11    1    4    4    0    0 -0.13265258491E-01  0.12344334357E+00  0.22422234189E-01  0.12616355995E+00  0.51100000000E-03 0. -1.
</event>
<event>
 8    1  0.1128641E+005  0.1043930E+01  0.7957747E-01            NaN
         13   -1    0    0    0    0  0.00000000000E+00  0.00000000000E+00  0.74505805969E-08  0.10566000000E+00  0.10566000000E+00 0. -1.
     999900   -1    0    0    0    0 -0.00000000000E+00 -0.00000000000E+00 -0.74505805969E-08  0.93827000000E+00  0.93827000000E+00 0.  1.
     999902    2    1    2    0    0  0.10399911722E-01 -0.85171211554E-02 -0.19618076237E-01  0.10201483173E+01  0.10198710805E+01 0.  0.
     999903    2    3    3    0    0  0.95429498880E-01  0.49763655435E-01  0.69231808642E-01  0.12968721110E+00  0.21036129334E-01 0.  0.
         14    1    1    2    0    0 -0.10399911722E-01  0.85171211554E-02  0.19618076237E-01  0.23781682696E-01  0.00000000000E+00 0. -1.
     999901    1    3    3    0    0 -0.85029587158E-01 -0.58280776591E-01 -0.88849884879E-01  0.89046110620E+00  0.88000000000E+00 0.  1.
        -11    1    4    4    0    0  0.86404005965E-01  0.38980426120E-01  0.54620174211E-01  0.10940178435E+00  0.51100000000E-03 0. -1.
         11    1    4    4    0    0  0.90254929150E-02  0.10783229316E-01  0.14611634431E-01  0.20285426753E-01  0.51100000000E-03 0.  1.
</event>
<event>
 8    1  0.1128641E+005  0.1043930E+01  0.7957747E-01            NaN
         13   -1    0    0    0    0  0.00000000000E+00  0.00000000000E+00  0.74505805969E-08  0.10566000000E+00  0.10566000000E+00 0. -1.
     999900   -1    0    0    0    0 -0.00000000000E+00 -0.00000000000E+00 -0.74505805969E-08  0.93827000000E+00  0.93827000000E+00 0.  1.
     999902    2    1    2    0    0  0.24355736213E-01  0.64391124952E-03  0.42950078364E-02  0.10191900808E+01  0.10188897670E+01 0.  0.
     999903    2    3    3    0    0 -0.94099413798E-01 -0.78914242027E-01 -0.25728758853E-01  0.12719089424E+00  0.20818195725E-01 0.  0.
         14    1    1    2    0    0 -0.24355736213E-01 -0.64391124952E-03 -0.42950078364E-02  0.24739919169E-01  0.00000000000E+00 0.  1.
     999901    1    3    3    0    0  0.11845515001E+00  0.79558153276E-01  0.30023766689E-01  0.89199918659E+00  0.88000000000E+00 0. -1.
        -11    1    4    4    0    0 -0.25993021499E-01 -0.25519947692E-01 -0.17022419076E-01  0.40211052822E-01  0.51100000000E-03 0. -1.
         11    1    4    4    0    0 -0.68106392299E-01 -0.53394294335E-01 -0.87063397764E-02  0.86979841416E-01  0.51100000000E-03 0.  1.
</event>
<event>
 8    1  0.1128641E+005  0.1043930E+01  0.7957747E-01            NaN
         13   -1    0    0    0    0  0.00000000000E+00  0.00000000000E+00  0.74505805969E-08  0.10566000000E+00  0.10566000000E+00 0.  1.
     999900   -1    0    0    0    0 -0.00000000000E+00 -0.00000000000E+00 -0.74505805969E-08  0.93827000000E+00  0.93827000000E+00 0.  1.
     999902    2    1    2    0    0  0.19538190039E-01  0.12913190716E-01  0.29309598039E-02  0.10203274177E+01  0.10200543895E+01 0.  0.
     999903    2    3    3    0    0  0.12525013548E+00 -0.29895142114E-01 -0.25052919912E-01  0.13252638918E+00  0.18822302575E-01 0.  0.
         14    1    1    2    0    0 -0.19538190039E-01 -0.12913190716E-01 -0.29309598039E-02  0.23602582271E-01  0.00000000000E+00 0. -1.
     999901    1    3    3    0    0 -0.10571194544E+00  0.42808332830E-01  0.27983879716E-01  0.88780102855E+00  0.88000000000E+00 0.  1.
        -11    1    4    4    0    0  0.21575151228E-01 -0.90751668024E-02  0.16218374029E-02  0.23467792409E-01  0.51100000000E-03 0. -1.
         11    1    4    4    0    0  0.10367498425E+00 -0.20819975311E-01 -0.26674757315E-01  0.10905859677E+00  0.51100000000E-03 0.  1.
</event>
<event>
 8    1  0.1128641E+005  0.1043930E+01  0.7957747E-01            NaN
         13   -1    0    0    0    0  0.00000000000E+00  0.00000000000E+00  0.74505805969E-08  0.10566000000E+00  0.10566000000E+00 0.  1.
     999900   -1    0    0    0    0 -0.00000000000E+00 -0.00000000000E+00 -0.74505805969E-08  0.93827000000E+00  0.93827000000E+00 0. -1.
     999902    2    1    2    0    0  0.71446484918E-02  0.32320129451E-01 -0.95925654320E-02  0.10094676425E+01  0.10088792134E+01 0.  0.
     999903    2    3    3    0    0 -0.54600522507E-01  0.95895240934E-01 -0.52761589502E-01  0.12396336498E+00  0.20149844644E-01 0.  0.
         14    1    1    2    0    0 -0.71446484918E-02 -0.32320129451E-01  0.95925654320E-02  0.34462357455E-01  0.00000000000E+00 0.  1.
     999901    1    3    3    0    0  0.61745170999E-01 -0.63575111482E-01  0.43169024070E-01  0.88550427756E+00  0.88000000000E+00 0. -1.
        -11    1    4    4    0    0 -0.65432692116E-02  0.21716224172E-01 -0.40595535201E-02  0.23046688700E-01  0.51100000000E-03 0. -1.
         11    1    4    4    0    0 -0.48057253296E-01  0.74179016761E-01 -0.48702035982E-01  0.10091667628E+00  0.51100000000E-03 0.  1.
</event>
<event>
 8    1  0.1128641E+005  0.1043930E+01  0.7957747E-01            NaN
         13   -1    0    0    0    0  0.00000000000E+00  0.00000000000E+00  0.74505805969E-08  0.10566000000E+00  0.10566000000E+00 0. -1.
     999900   -1    0    0    0    0 -0.00000000000E+00 -0.00000000000E+00 -0.74505805969E-08  0.93827000000E+00  0.93827000000E+00 0. -1.
     999902    2    1    2    0    0 -0.16670025053E-01  0.12106167460E-01  0.11192754288E-01  0.10204837471E+01  0.10202143654E+01 0.  0.
     999903    2    3    3    0    0  0.44236198823E-01  0.10963054024E+00  0.55125470281E-01  0.13191711769E+00  0.19687859840E-01 0.  0.
         14    1    1    2    0    0  0.16670025053E-01 -0.12106167460E-01 -0.11192754288E-01  0.23446252886E-01  0.00000000000E+00 0.  1.
     999901    1    3    3    0    0 -0.60906223876E-01 -0.97524372784E-01 -0.43932715993E-01  0.88856662943E+00  0.88000000000E+00 0. -1.
        -11    1    4    4    0    0  0.34997146995E-01  0.99385426477E-01  0.53007159944E-01  0.11795034303E+00  0.51100000000E-03 0.  1.
         11    1    4    4    0    0  0.92390518278E-02  0.10245113767E-01  0.21183103375E-02  0.13966774662E-01  0.51100000000E-03 0. -1.
</event>
<event>
 8    1  0.1128641E+005  0.1043930E+01  0.7957747E-01            NaN
         13   -1    0    0    0    0  0.00000000000E+00  0.00000000000E+00  0.74505805969E-08  0.10566000000E+00  0.10566000000E+00 0. -1.
     999900   -1    0    0    0    0 -0.00000000000E+00 -0.00000000000E+00 -0.74505805969E-08  0.93827000000E+00  0.93827000000E+00 0. -1.
     999902    2    1    2    0    0  0.11485225393E-01 -0.13102811451E-01  0.15583015730E-01  0.10205542765E+01  0.10202865317E+01 0.  0.
     999903    2    3    3    0    0  0.50231769894E-01  0.65186785438E-01  0.10119821537E+00  0.13209464426E+00  0.20865486996E-01 0.  0.
         14    1    1    2    0    0 -0.11485225393E-01  0.13102811451E-01 -0.15583015730E-01  0.23375723507E-01  0.00000000000E+00 0.  1.
     999901    1    3    3    0    0 -0.38746544501E-01 -0.78289596889E-01 -0.85615199636E-01  0.88845963223E+00  0.88000000000E+00 0. -1.
        -11    1    4    4    0    0  0.27038976595E-01  0.19001271501E-01  0.35519513024E-01  0.48518568615E-01  0.51100000000E-03 0. -1.
         11    1    4    4    0    0  0.23192793299E-01  0.46185513937E-01  0.65678702341E-01  0.83576075649E-01  0.51100000000E-03 0.  1.
</event>
<event>
 8    1  0.1128641E+005  0.1043930E+01  0.7957747E-01            NaN
         13   -1    0    0    0    0  0.00000000000E+00  0.00000000000E+00  0.74505805969E-08  0.10566000000E+00  0.10566000000E+00 0. -1.
     999900   -1    0    0    0    0 -0.00000000000E+00 -0.00000000000E+00 -0.74505805969E-08  0.93827000000E+00  0.93827000000E+00 0. -1.
     999902    2    1    2    0    0 -0.81653290503E-02  0.21769174803E-01 -0.72950146153E-02  0.10195622589E+01  0.10192710203E+01 0.  0.
     999903    2    3    3    0    0 -0.17260578640E-01 -0.11793899054E+00 -0.41430213873E-01  0.12784127847E+00  0.20479179573E-01 0.  0.
         14    1    1    2    0    0  0.81653290503E-02 -0.21769174803E-01  0.72950146153E-02  0.24367741141E-01  0.00000000000E+00 0. -1.
     999901    1    3    3    0    0  0.90952495897E-02  0.13970816534E+00  0.34135199258E-01  0.89172098038E+00  0.88000000000E+00 0.  1.
        -11    1    4    4    0    0  0.17678500034E-02 -0.13002382109E-01 -0.10453329155E-01  0.16784529948E-01  0.51100000000E-03 0.  1.
         11    1    4    4    0    0 -0.19028428643E-01 -0.10493660843E+00 -0.30976884718E-01  0.11105674853E+00  0.51100000000E-03 0. -1.
</event>
<event>
 8    1  0.1128641E+005  0.1043930E+01  0.7957747E-01            NaN
         13   -1    0    0    0    0  0.00000000000E+00  0.00000000000E+00  0.74505805969E-08  0.10566000000E+00  0.10566000000E+00 0.  1.
     999900   -1    0    0    0    0 -0.00000000000E+00 -0.00000000000E+00 -0.74505805969E-08  0.93827000000E+00  0.93827000000E+00 0. -1.
     999902    2    1    2    0    0 -0.14868316959E-01 -0.22286174401E-02 -0.14729330180E-01  0.10228827495E+01  0.10226661882E+01 0.  0.
     999903    2    3    3    0    0 -0.56514389436E-01 -0.54918113256E-01 -0.10906639525E+00  0.13529610014E+00  0.14130844376E-01 0.  0.
         14    1    1    2    0    0  0.14868316959E-01  0.22286174401E-02  0.14729330180E-01  0.21047250473E-01  0.00000000000E+00 0.  1.
     999901    1    3    3    0    0  0.41646072476E-01  0.52689495816E-01  0.94337065073E-01  0.88758664939E+00  0.88000000000E+00 0.  1.
        -11    1    4    4    0    0 -0.52172586648E-01 -0.44099391236E-01 -0.91004437094E-01  0.11379281083E+00  0.51100000000E-03 0.  1.
         11    1    4    4    0    0 -0.43418027877E-02 -0.10818722020E-01 -0.18061958160E-01  0.21503289310E-01  0.51100000000E-03 0. -1.
</event>
<event>
 8    1  0.1128641E+005  0.1043930E+01  0.7957747E-01            NaN
         13   -1    0    0    0    0  0.00000000000E+00  0.00000000000E+00  0.74505805969E-08  0.10566000000E+00  0.10566000000E+00 0.  1.
     999900   -1    0    0    0    0 -0.00000000000E+00 -0.00000000000E+00 -0.74505805969E-08  0.93827000000E+00  0.93827000000E+00 0.  1.
     999902    2    1    2    0    0  0.18243251800E-01  0.15289861284E-01  0.40819212389E-02  0.10197792614E+01  0.10194932485E+01 0.  0.
     999903    2    3    3    0    0  0.52175733093E-01 -0.91234793335E-01 -0.72240646470E-01  0.12942874071E+00  0.22067924280E-01 0.  0.
         14    1    1    2    0    0 -0.18243251800E-01 -0.15289861284E-01 -0.40819212389E-02  0.24150738608E-01  0.00000000000E+00 0. -1.
     999901    1    3    3    0    0 -0.33932481293E-01  0.10652465462E+00  0.76322567709E-01  0.89035052068E+00  0.88000000000E+00 0. -1.
        -11    1    4    4    0    0  0.76869687638E-02 -0.33710337118E-01 -0.25780843847E-01  0.43132230963E-01  0.51100000000E-03 0. -1.
         11    1    4    4    0    0  0.44488764330E-01 -0.57524456216E-01 -0.46459802623E-01  0.86296509752E-01  0.51100000000E-03 0.  1.
</event>
<event>
 8    1  0.1128641E+005  0.1043930E+01  0.7957747E-01            NaN
         13   -1    0    0    0    0  0.00000000000E+00  0.00000000000E+00  0.74505805969E-08  0.10566000000E+00  0.10566000000E+00 0.  1.
     999900   -1    0    0    0    0 -0.00000000000E+00 -0.00000000000E+00 -0.74505805969E-08  0.93827000000E+00  0.93827000000E+00 0. -1.
     999902    2    1    2    0    0  0.11647479413E-01  0.19956923250E-01 -0.96417103658E-04  0.10208226016E+01  0.10205610379E+01 0.  0.
     999903    2    3    3    0    0  0.71518586275E-01 -0.58704814256E-01  0.90116840127E-01  0.13070426673E+00  0.20034896216E-01 0.  0.
         14    1    1    2    0    0 -0.11647479413E-01 -0.19956923250E-01  0.96417103658E-04  0.23107398351E-01  0.00000000000E+00 0. -1.
     999901    1    3    3    0    0 -0.59871106862E-01  0.78661737507E-01 -0.90213257231E-01  0.89011833492E+00  0.88000000000E+00 0. -1.
        -11    1    4    4    0    0  0.33548531788E-01 -0.15053026987E-01  0.36858917238E-01  0.52066673674E-01  0.51100000000E-03 0.  1.
         11    1    4    4    0    0  0.37970054487E-01 -0.43651787269E-01  0.53257922890E-01  0.78637593052E-01  0.51100000000E-03 0. -1.
</event>
<event>
 8    1  0.1128641E+005  0.1043930E+01  0.7957747E-01            NaN
         13   -1    0    0    0    0  0.00000000000E+00  0.00000000000E+00  0.74505805969E-08  0.10566000000E+00  0.10566000000E+00 0.  1.
     999900   -1    0    0    0    0 -0.00000000000E+00 -0.00000000000E+00 -0.74505805969E-08  0.93827000000E+00  0.93827000000E+00 0.  1.
     999902    2    1    2    0    0 -0.11588871617E-01 -0.14798771799E-01 -0.16200406587E-01  0.10191155130E+01  0.10188133637E+01 0.  0.
     999903    2    3    3    0    0 -0.48160998234E-01  0.37020766054E-01 -0.11502856877E+00  0.13131497763E+00  0.17945273609E-01 0.  0.
         14    1    1    2    0    0  0.11588871617E-01  0.14798771799E-01  0.16200406587E-01  0.24814487013E-01  0.00000000000E+00 0.  1.
     999901    1    3    3    0    0  0.36572126616E-01 -0.51819537854E-01  0.98828162185E-01  0.88780053536E+00  0.88000000000E+00 0. -1.
        -11    1    4    4    0    0 -0.30076022931E-01  0.30623687079E-01 -0.90563943715E-01  0.10022208533E+00  0.51100000000E-03 0. -1.
         11    1    4    4    0    0 -0.18084975303E-01  0.63970789759E-02 -0.24464625057E-01  0.31092892296E-01  0.51100000000E-03 0.  1.
</event>
<event>
 8    1  0.1128641E+005  0.1043930E+01  0.7957747E-01            NaN
         13   -1    0    0    0    0  0.00000000000E+00  0.00000000000E+00  0.74505805969E-08  0.10566000000E+00  0.10566000000E+00 0.  1.
     999900   -1    0    0    0    0 -0.00000000000E+00 -0.00000000000E+00 -0.74505805969E-08  0.93827000000E+00  0.93827000000E+00 0.  1.
     999902    2    1    2    0    0  0.21981078051E-02 -0.20391172071E-01 -0.11279558473E-01  0.10205235903E+01  0.10202551339E+01 0.  0.
     999903    2    3    3    0    0  0.12157747129E+00 -0.61724847412E-02  0.43245228507E-01  0.13067722383E+00  0.19677549284E-01 0.  0.
         14    1    1    2    0    0 -0.21981078051E-02  0.20391172071E-01  0.11279558473E-01  0.23406409714E-01  0.00000000000E+00 0.  1.
     999901    1    3    3    0    0 -0.11937936349E+00 -0.14218687330E-01 -0.54524786980E-01  0.88984636645E+00  0.88000000000E+00 0. -1.
        -11    1    4    4    0    0  0.83292324580E-01  0.31161195482E-02  0.35120655185E-01  0.90449118717E-01  0.51100000000E-03 0. -1.
         11    1    4    4    0    0  0.38285146713E-01 -0.92886042894E-02  0.81245733217E-02  0.40228105115E-01  0.51100000000E-03 0.  1.
</event>
<event>
 8    1  0.1128641E+005  0.1043930E+01  0.7957747E-01            NaN
         13   -1    0    0    0    0  0.00000000000E+00  0.00000000000E+00  0.74505805969E-08  0.10566000000E+00  0.10566000000E+00 0. -1.
     999900   -1    0    0    0    0 -0.00000000000E+00 -0.00000000000E+00 -0.74505805969E-08  0.93827000000E+00  0.93827000000E+00 0.  1.
     999902    2    1    2    0    0  0.38345458730E-02 -0.18250224693E-01 -0.15611279438E-01  0.10196095048E+01  0.10193194081E+01 0.  0.
     999903    2    3    3    0    0  0.38011047567E-01  0.76897319352E-01  0.92102710013E-01  0.12729599935E+00  0.19061080697E-01 0.  0.
         14    1    1    2    0    0 -0.38345458730E-02  0.18250224693E-01  0.15611279438E-01  0.24320495248E-01  0.00000000000E+00 0. -1.
     999901    1    3    3    0    0 -0.34176501694E-01 -0.95147544045E-01 -0.10771398945E+00  0.89231350541E+00  0.88000000000E+00 0.  1.
        -11    1    4    4    0    0  0.33651274057E-01  0.60401283183E-01  0.62920249771E-01  0.93487658052E-01  0.51100000000E-03 0. -1.
         11    1    4    4    0    0  0.43597735101E-02  0.16496036169E-01  0.29182460241E-01  0.33808341295E-01  0.51100000000E-03 0.  1.
</event>
<event>
 8    1  0.1128641E+005  0.1043930E+01  0.7957747E-01            NaN
         13   -1    0    0    0    0  0.00000000000E+00  0.00000000000E+00  0.74505805969E-08  0.10566000000E+00  0.10566000000E+00 0.  1.
     999900   -1    0    0    0    0 -0.00000000000E+00 -0.00000000000E+00 -0.74505805969E-08  0.93827000000E+00  0.93827000000E+00 0.  1.
     999902    2    1    2    0    0  0.11153419330E-01 -0.19102948863E-01  0.54234594576E-02  0.10211542381E+01  0.10209002119E+01 0.  0.
     999903    2    3    3    0    0  0.52155343737E-01  0.49392859880E-02  0.11996482561E+00  0.13245917710E+00  0.20231109430E-01 0.  0.
         14    1    1    2    0    0 -0.11153419330E-01  0.19102948863E-01 -0.54234594576E-02  0.22775761908E-01  0.00000000000E+00 0. -1.
     999901    1    3    3    0    0 -0.41001924407E-01 -0.24042234851E-01 -0.11454136615E+00  0.88869506099E+00  0.88000000000E+00 0.  1.
        -11    1    4    4    0    0  0.51262904379E-01  0.33357486076E-02  0.10019712887E+00  0.11259990381E+00  0.51100000000E-03 0. -1.
         11    1    4    4    0    0  0.89243935741E-03  0.16035373804E-02  0.19767696744E-01  0.19859273292E-01  0.51100000000E-03 0.  1.
</event>
<event>
 8    1  0.1128641E+005  0.1043930E+01  0.7957747E-01            NaN
         13   -1    0    0    0    0  0.00000000000E+00  0.00000000000E+00  0.74505805969E-08  0.10566000000E+00  0.10566000000E+00 0. -1.
     999900   -1    0    0    0    0 -0.00000000000E+00 -0.00000000000E+00 -0.74505805969E-08  0.93827000000E+00  0.93827000000E+00 0. -1.
     999902    2    1    2    0    0 -0.24456044541E-01  0.22433452548E-02  0.47185490006E-02  0.10189220929E+01  0.10186151560E+01 0.  0.
     999903    2    3    3    0    0 -0.72583176874E-01 -0.87824825026E-01  0.61754995143E-01  0.13118246196E+00  0.20338177031E-01 0.  0.
         14    1    1    2    0    0  0.24456044541E-01 -0.22433452548E-02 -0.47185490006E-02  0.25007907093E-01  0.00000000000E+00 0.  1.
     999901    1    3    3    0    0  0.48127132333E-01  0.90068170280E-01 -0.57036446142E-01  0.88773963095E+00  0.88000000000E+00 0. -1.
        -11    1    4    4    0    0 -0.18206994579E-01 -0.35057071569E-01  0.15700880452E-01  0.42512018142E-01  0.51100000000E-03 0.  1.
         11    1    4    4    0    0 -0.54376182295E-01 -0.52767753457E-01  0.46054114691E-01  0.88670443818E-01  0.51100000000E-03 0. -1.
</event>
<event>
 8    1  0.1128641E+005  0.1043930E+01  0.7957747E-01            NaN
         13   -1    0    0    0    0  0.00000000000E+00  0.00000000000E+00  0.74505805969E-08  0.10566000000E+00  0.10566000000E+00 0.  1.
     999900   -1    0    0    0    0 -0.00000000000E+00 -0.00000000000E+00 -0.74505805969E-08  0.93827000000E+00  0.93827000000E+00 0.  1.
     999902    2    1    2    0    0  0.75327851416E-02  0.20244235564E-01  0.65192989050E-02  0.10213673498E+01  0.10211181078E+01 0.  0.
     999903    2    3    3    0    0 -0.52824363344E-01 -0.71652724147E-01  0.92976130793E-01  0.13032143609E+00  0.20361472582E-01 0.  0.
         14    1    1    2    0    0 -0.75327851416E-02 -0.20244235564E-01 -0.65192989050E-02  0.22562650194E-01  0.00000000000E+00 0.  1.
     999901    1    3    3    0    0  0.60357148486E-01  0.91896959711E-01 -0.86456831888E-01  0.89104591372E+00  0.88000000000E+00 0.  1.
        -11    1    4    4    0    0 -0.35483805270E-02 -0.18335648399E-01  0.20476205265E-01  0.27718641916E-01  0.51100000000E-03 0.  1.
         11    1    4    4    0    0 -0.49275982817E-01 -0.53317075748E-01  0.72499925528E-01  0.10260279417E+00  0.51100000000E-03 0. -1.
</event>
<event>
 8    1  0.1128641E+005  0.1043930E+01  0.7957747E-01            NaN
         13   -1    0    0    0    0  0.00000000000E+00  0.00000000000E+00  0.74505805969E-08  0.10566000000E+00  0.10566000000E+00 0. -1.
     999900   -1    0    0    0    0 -0.00000000000E+00 -0.00000000000E+00 -0.74505805969E-08  0.93827000000E+00  0.93827000000E+00 0.  1.
     999902    2    1    2    0    0  0.20739667349E-01 -0.52396952829E-02 -0.98201858529E-02  0.10203922801E+01  0.10201207679E+01 0.  0.
     999903    2    3    3    0    0 -0.72740998093E-01  0.10422568294E+00 -0.12906284789E-04  0.12864260301E+00  0.19866387550E-01 0.  0.
         14    1    1    2    0    0 -0.20739667349E-01  0.52396952829E-02  0.98201858529E-02  0.23537719911E-01  0.00000000000E+00 0.  1.
     999901    1    3    3    0    0  0.93480665443E-01 -0.10946537822E+00 -0.98072795681E-02  0.89174967708E+00  0.88000000000E+00 0. -1.
        -11    1    4    4    0    0 -0.20933252871E-01  0.16480303825E-01  0.20109945796E-02  0.26722775120E-01  0.51100000000E-03 0.  1.
         11    1    4    4    0    0 -0.51807745222E-01  0.87745379115E-01 -0.20239008644E-02  0.10191982789E+00  0.51100000000E-03 0. -1.
</event>
<event>
 8    1  0.1128641E+005  0.1043930E+01  0.7957747E-01            NaN
         13   -1    0    0    0    0  0.00000000000E+00  0.00000000000E+00  0.74505805969E-08  0.10566000000E+00  0.10566000000E+00 0. -1.
     999900   -1    0    0    0    0 -0.00000000000E+00 -0.00000000000E+00 -0.74505805969E-08  0.93827000000E+00  0.93827000000E+00 0.  1.
     999902    2    1    2    0    0  0.18299296604E-01 -0.13978962331E-01  0.52225582307E-02  0.10203174872E+01  0.10200442265E+01 0.  0.
     999903    2    3    3    0    0 -0.10239372125E-01  0.12476976112E+00 -0.15525090539E-01  0.12874801222E+00  0.25742653000E-01 0.  0.
         14    1    1    2    0    0 -0.18299296604E-01  0.13978962331E-01 -0.52225582307E-02  0.23612512753E-01  0.00000000000E+00 0.  1.
     999901    1    3    3    0    0  0.28538668730E-01 -0.13874872345E+00  0.20747648769E-01  0.89156947503E+00  0.88000000000E+00 0. -1.
        -11    1    4    4    0    0  0.78440883895E-03  0.46701125394E-01  0.58026877723E-02  0.47069551906E-01  0.51100000000E-03 0.  1.
         11    1    4    4    0    0 -0.11023780964E-01  0.78068635723E-01 -0.21327778311E-01  0.81678460313E-01  0.51100000000E-03 0. -1.
</event>
<event>
 8    1  0.1128641E+005  0.1043930E+01  0.7957747E-01            NaN
         13   -1    0    0    0    0  0.00000000000E+00  0.00000000000E+00  0.74505805969E-08  0.10566000000E+00  0.10566000000E+00 0. -1.
     999900   -1    0    0    0    0 -0.00000000000E+00 -0.00000000000E+00 -0.74505805969E-08  0.93827000000E+00  0.93827000000E+00 0.  1.
     999902    2    1    2    0    0 -0.15405380983E-01  0.17300754020E-01  0.78302158624E-02  0.10194768993E+01  0.10191835919E+01 0.  0.
     999903    2    3    3    0    0  0.99233873246E-01 -0.57145214764E-01 -0.50962171585E-01  0.12698549560E+00  0.20377340109E-01 0.  0.
         14    1    1    2    0    0  0.15405380983E-01 -0.17300754020E-01 -0.78302158624E-02  0.24453100689E-01  0.00000000000E+00 0.  1.
     999901    1    3    3    0    0 -0.11463925423E+00  0.74445968783E-01  0.58792387447E-01  0.89249140371E+00  0.88000000000E+00 0. -1.
        -11    1    4    4    0    0  0.60479340240E-01 -0.27921254275E-01 -0.38216606028E-01  0.76799200083E-01  0.51100000000E-03 0. -1.
         11    1    4    4    0    0  0.38754533006E-01 -0.29223960488E-01 -0.12745565557E-01  0.50186295515E-01  0.51100000000E-03 0.  1.
</event>
<event>
 8    1  0.1128641E+005  0.1043930E+01  0.7957747E-01            NaN
         13   -1    0    0    0    0  0.00000000000E+00  0.00000000000E+00  0.74505805969E-08  0.10566000000E+00  0.10566000000E+00 0.  1.
     999900   -1    0    0    0    0 -0.00000000000E+00 -0.00000000000E+00 -0.74505805969E-08  0.93827000000E+00  0.93827000000E+00 0.  1.
     999902    2    1    2    0    0  0.13326925875E-01 -0.17794628481E-01 -0.54096799261E-02  0.10210494320E+01  0.10207930359E+01 0.  0.
     999903    2    3    3    0    0  0.99585325391E-01  0.59245683483E-01  0.58109107734E-01  0.13121216734E+00  0.20314438508E-01 0.  0.
         14    1    1    2    0    0 -0.13326925875E-01  0.17794628481E-01  0.54096799261E-02  0.22880568021E-01  0.00000000000E+00 0.  1.
     999901    1    3    3    0    0 -0.86258399516E-01 -0.77040311963E-01 -0.63518787660E-01  0.88983726464E+00  0.88000000000E+00 0.  1.
        -11    1    4    4    0    0  0.32342443854E-01  0.25945597323E-01  0.12116935326E-01  0.43200566404E-01  0.51100000000E-03 0. -1.
         11    1    4    4    0    0  0.67242881537E-01  0.33300086160E-01  0.45992172407E-01  0.88011600936E-01  0.51100000000E-03 0.  1.
</event>
<event>
 8    1  0.1128641E+005  0.1043930E+01  0.7957747E-01            NaN
         13   -1    0    0    0    0  0.00000000000E+00  0.00000000000E+00  0.74505805969E-08  0.10566000000E+00  0.10566000000E+00 0.  1.
     999900   -1    0    0    0    0 -0.00000000000E+00 -0.00000000000E+00 -0.74505805969E-08  0.93827000000E+00  0.93827000000E+00 0.  1.
     999902    2    1    2    0    0  0.17224243189E-01  0.11081111205E-01 -0.13575893970E-01  0.10193582586E+01  0.10190620633E+01 0.  0.
     999903    2    3    3    0    0  0.22547210310E-01 -0.12132144470E+00  0.29442011798E-01  0.12839848901E+00  0.19800764757E-01 0.  0.
         14    1    1    2    0    0 -0.17224243189E-01 -0.11081111205E-01  0.13575893970E-01  0.24571741413E-01  0.00000000000E+00 0.  1.
     999901    1    3    3    0    0 -0.53229671216E-02  0.13240255590E+00 -0.43017905768E-01  0.89095976958E+00  0.88000000000E+00 0. -1.
        -11    1    4    4    0    0  0.10798543628E-01 -0.18059389045E-01  0.49774563788E-02  0.21628367256E-01  0.51100000000E-03 0. -1.
         11    1    4    4    0    0  0.11748666683E-01 -0.10326205565E+00  0.24464555419E-01  0.10677012175E+00  0.51100000000E-03 0.  1.
</event>
<event>
 8    1  0.1128641E+005  0.1043930E+01  0.7957747E-01            NaN
         13   -1    0    0    0    0  0.00000000000E+00  0.00000000000E+00  0.74505805969E-08  0.10566000000E+00  0.10566000000E+00 0. -1.
     999900   -1    0    0    0    0 -0.00000000000E+00 -0.00000000000E+00 -0.74505805969E-08  0.93827000000E+00  0.93827000000E+00 0. -1.
     999902    2    1    2    0    0 -0.12959287132E-01  0.15106871517E-01 -0.11781353281E-01  0.10208007766E+01  0.10205387129E+01 0.  0.
     999903    2    3    3    0    0 -0.12154971414E+00 -0.26694652565E-01 -0.41365956170E-01  0.13264848280E+00  0.19938409571E-01 0.  0.
         14    1    1    2    0    0  0.12959287132E-01 -0.15106871517E-01  0.11781353281E-01  0.23129223401E-01  0.00000000000E+00 0. -1.
     999901    1    3    3    0    0  0.10859042701E+00  0.41801524082E-01  0.29584602889E-01  0.88815229380E+00  0.88000000000E+00 0.  1.
        -11    1    4    4    0    0 -0.78753814521E-01 -0.74518929558E-02 -0.26156043585E-01  0.83319227957E-01  0.51100000000E-03 0. -1.
         11    1    4    4    0    0 -0.42795899618E-01 -0.19242759609E-01 -0.15209912585E-01  0.49329254842E-01  0.51100000000E-03 0.  1.
</event>
<event>
 8    1  0.1128641E+005  0.1043930E+01  0.7957747E-01            NaN
         13   -1    0    0    0    0  0.00000000000E+00  0.00000000000E+00  0.74505805969E-08  0.10566000000E+00  0.10566000000E+00 0.  1.
     999900   -1    0    0    0    0 -0.00000000000E+00 -0.00000000000E+00 -0.74505805969E-08  0.93827000000E+00  0.93827000000E+00 0.  1.
     999902    2    1    2    0    0  0.10757941206E-01  0.19955619169E-01  0.10546494239E-02  0.10212347952E+01  0.10209825829E+01 0.  0.
     999903    2    3    3    0    0  0.79514020750E-01 -0.22171039876E-01 -0.10077279820E+00  0.13170071324E+00  0.19387792715E-01 0.  0.
         14    1    1    2    0    0 -0.10757941206E-01 -0.19955619169E-01 -0.10546494239E-02  0.22695204797E-01  0.00000000000E+00 0.  1.
     999901    1    3    3    0    0 -0.68756079545E-01  0.42126659045E-01  0.10182744763E+00  0.88953408196E+00  0.88000000000E+00 0.  1.
        -11    1    4    4    0    0  0.50748259956E-01 -0.93872922539E-02 -0.74849385438E-01  0.90918638166E-01  0.51100000000E-03 0. -1.
         11    1    4    4    0    0  0.28765760794E-01 -0.12783747622E-01 -0.25923412764E-01  0.40782075078E-01  0.51100000000E-03 0.  1.
</event>
<event>
 8    1  0.1128641E+005  0.1043930E+01  0.7957747E-01            NaN
         13   -1    0    0    0    0  0.00000000000E+00  0.00000000000E+00  0.74505805969E-08  0.10566000000E+00  0.10566000000E+00 0.  1.
     999900   -1    0    0    0    0 -0.00000000000E+00 -0.00000000000E+00 -0.74505805969E-08  0.93827000000E+00  0.93827000000E+00 0. -1.
     999902    2    1    2    0    0  0.13681807042E-01 -0.19302323841E-01 -0.42724623409E-02  0.10198878394E+01  0.10196044231E+01 0.  0.
     999903    2    3    3    0    0  0.11555546925E+00 -0.51365300577E-01  0.34254917600E-01  0.13259384277E+00  0.20402626880E-01 0.  0.
         14    1    1    2    0    0 -0.13681807042E-01  0.19302323841E-01  0.42724623409E-02  0.24042160553E-01  0.00000000000E+00 0.  1.
     999901    1    3    3    0    0 -0.10187366221E+00  0.32062976736E-01 -0.38527379941E-01  0.88729399667E+00  0.88000000000E+00 0.  1.
        -11    1    4    4    0    0  0.98871348592E-01 -0.44733569421E-01  0.21673381647E-01  0.11066450379E+00  0.51100000000E-03 0.  1.
         11    1    4    4    0    0  0.16684120662E-01 -0.66317311560E-02  0.12581535953E-01  0.21929338985E-01  0.51100000000E-03 0. -1.
</event>
<event>
 8    1  0.1128641E+005  0.1043930E+01  0.7957747E-01            NaN
         13   -1    0    0    0    0  0.00000000000E+00  0.00000000000E+00  0.74505805969E-08  0.10566000000E+00  0.10566000000E+00 0. -1.
     999900   -1    0    0    0    0 -0.00000000000E+00 -0.00000000000E+00 -0.74505805969E-08  0.93827000000E+00  0.93827000000E+00 0.  1.
     999902    2    1    2    0    0 -0.70056816807E-02  0.20479849422E-01  0.56368412365E-02  0.10215631096E+01  0.10213182213E+01 0.  0.
     999903    2    3    3    0    0  0.36872892950E-01  0.63971595204E-01 -0.10774149683E+00  0.13214110130E+00  0.20026614419E-01 0.  0.
         14    1    1    2    0    0  0.70056816807E-02 -0.20479849422E-01 -0.56368412365E-02  0.22366890425E-01  0.00000000000E+00 0.  1.
     999901    1    3    3    0    0 -0.43878574630E-01 -0.43491745782E-01  0.11337833807E+00  0.88942200828E+00  0.88000000000E+00 0. -1.
        -11    1    4    4    0    0  0.13824760240E-01  0.26212061751E-01 -0.60786270626E-01  0.67627124696E-01  0.51100000000E-03 0.  1.
         11    1    4    4    0    0  0.23048132709E-01  0.37759533453E-01 -0.46955226208E-01  0.64513976603E-01  0.51100000000E-03 0. -1.
</event>
<event>
 8    1  0.1128641E+005  0.1043930E+01  0.7957747E-01            NaN
         13   -1    0    0    0    0  0.00000000000E+00  0.00000000000E+00  0.74505805969E-08  0.10566000000E+00  0.10566000000E+00 0.  1.
     999900   -1    0    0    0    0 -0.00000000000E+00 -0.00000000000E+00 -0.74505805969E-08  0.93827000000E+00  0.93827000000E+00 0.  1.
     999902    2    1    2    0    0  0.10877416557E-01  0.13029538033E-01 -0.15556833301E-01  0.10209060535E+01  0.10206463971E+01 0.  0.
     999903    2    3    3    0    0  0.29574196322E-01 -0.12085592879E+00 -0.35454495113E-01  0.13036082454E+00  0.16004210037E-01 0.  0.
         14    1    1    2    0    0 -0.10877416557E-01 -0.13029538033E-01  0.15556833301E-01  0.23023946548E-01  0.00000000000E+00 0.  1.
     999901    1    3    3    0    0 -0.18696779766E-01  0.13388546682E+00  0.19897661811E-01  0.89054522892E+00  0.88000000000E+00 0.  1.
        -11    1    4    4    0    0 -0.17466002724E-02 -0.13226287939E-01 -0.38908088183E-02  0.13906287047E-01  0.51100000000E-03 0. -1.
         11    1    4    4    0    0  0.31320796595E-01 -0.10762964085E+00 -0.31563686294E-01  0.11645453749E+00  0.51100000000E-03 0.  1.
</event>
<event>
 8    1  0.1128641E+005  0.1043930E+01  0.7957747E-01            NaN
         13   -1    0    0    0    0  0.00000000000E+00  0.00000000000E+00  0.74505805969E-08  0.10566000000E+00  0.10566000000E+00 0. -1.
     999900   -1    0    0    0    0 -0.00000000000E+00 -0.00000000000E+00 -0.74505805969E-08  0.93827000000E+00  0.93827000000E+00 0. -1.
     999902    2    1    2    0    0  0.10838474128E-01 -0.18588576933E-01  0.32552637109E-03  0.10224099238E+01  0.10221834173E+01 0.  0.
     999903    2    3    3    0    0  0.53641990373E-02  0.97151144319E-01 -0.84918961241E-01  0.13073045589E+00  0.20300311435E-01 0.  0.
         14    1    1    2    0    0 -0.10838474128E-01  0.18588576933E-01 -0.32552637109E-03  0.21520076237E-01  0.00000000000E+00 0.  1.
     999901    1    3    3    0    0  0.54742750904E-02 -0.11573972125E+00  0.85244487612E-01  0.89167946788E+00  0.88000000000E+00 0.  1.
        -11    1    4    4    0    0 -0.57132489536E-02  0.65839255053E-01 -0.59085369933E-01  0.88649821098E-01  0.51100000000E-03 0. -1.
         11    1    4    4    0    0  0.11077447991E-01  0.31311889266E-01 -0.25833591307E-01  0.42080634789E-01  0.51100000000E-03 0.  1.
</event>
<event>
 8    1  0.1128641E+005  0.1043930E+01  0.7957747E-01            NaN
         13   -1    0    0    0    0  0.00000000000E+00  0.00000000000E+00  0.74505805969E-08  0.10566000000E+00  0.10566000000E+00 0. -1.
     999900   -1    0    0    0    0 -0.00000000000E+00 -0.00000000000E+00 -0.74505805969E-08  0.93827000000E+00  0.93827000000E+00 0.  1.
     999902    2    1    2    0    0 -0.91175673155E-02  0.21338317333E-01  0.80630482237E-02  0.10193644435E+01  0.10190683991E+01 0.  0.
     999903    2    3    3    0    0 -0.14406790348E-01 -0.12449820220E+00  0.90459033716E-02  0.12734581570E+00  0.20682612211E-01 0.  0.
         14    1    1    2    0    0  0.91175673155E-02 -0.21338317333E-01 -0.80630482237E-02  0.24565556518E-01  0.00000000000E+00 0.  1.
     999901    1    3    3    0    0  0.52892230329E-02  0.14583651954E+00 -0.98285514788E-03  0.89201862778E+00  0.88000000000E+00 0.  1.
        -11    1    4    4    0    0 -0.26848584543E-02 -0.67531737962E-01 -0.41185454822E-02  0.67712389081E-01  0.51100000000E-03 0.  1.
         11    1    4    4    0    0 -0.11721931894E-01 -0.56966464241E-01  0.13164448854E-01  0.59633426617E-01  0.51100000000E-03 0. -1.
</event>
<event>
 8    1  0.1128641E+005  0.1043930E+01  0.7957747E-01            NaN
         13   -1    0    0    0    0  0.00000000000E+00  0.00000000000E+00  0.74505805969E-08  0.10566000000E+00  0.10566000000E+00 0. -1.
     999900   -1    0    0    0    0 -0.00000000000E+00 -0.00000000000E+00 -0.74505805969E-08  0.93827000000E+00  0.93827000000E+00 0. -1.
     999902    2    1    2    0    0 -0.18357930842E-01  0.23515439495E-02  0.14139337972E-01  0.10206391378E+01  0.10203733559E+01 0.  0.
     999903    2    3    3    0    0 -0.85204132301E-01  0.86749480488E-01  0.50969549840E-01  0.13331287827E+00  0.19728456002E-01 0.  0.
         14    1    1    2    0    0  0.18357930842E-01 -0.23515439495E-02 -0.14139337972E-01  0.23290862200E-01  0.00000000000E+00 0.  1.
     999901    1    3    3    0    0  0.66846201460E-01 -0.84397936538E-01 -0.36830211868E-01  0.88732625953E+00  0.88000000000E+00 0.  1.
        -11    1    4    4    0    0 -0.40178718686E-01  0.54820337883E-01  0.27085957534E-01  0.73167677956E-01  0.51100000000E-03 0. -1.
         11    1    4    4    0    0 -0.45025413615E-01  0.31929142605E-01  0.23883592305E-01  0.60145200316E-01  0.51100000000E-03 0.  1.
</event>
<event>
 8    1  0.1128641E+005  0.1043930E+01  0.7957747E-01            NaN
         13   -1    0    0    0    0  0.00000000000E+00  0.00000000000E+00  0.74505805969E-08  0.10566000000E+00  0.10566000000E+00 0.  1.
     999900   -1    0    0    0    0 -0.00000000000E+00 -0.00000000000E+00 -0.74505805969E-08  0.93827000000E+00  0.93827000000E+00 0.  1.
     999902    2    1    2    0    0  0.16175304091E-02 -0.22019709005E-01  0.82271374457E-02  0.10203679589E+01  0.10200958787E+01 0.  0.
     999903    2    3    3    0    0 -0.74122148395E-01  0.32217083494E-01  0.10068701046E+00  0.13063375326E+00  0.19881399942E-01 0.  0.
         14    1    1    2    0    0 -0.16175304091E-02  0.22019709005E-01 -0.82271374457E-02  0.23562041079E-01  0.00000000000E+00 0. -1.
     999901    1    3    3    0    0  0.75739678804E-01 -0.54236792498E-01 -0.92459873015E-01  0.88973420566E+00  0.88000000000E+00 0.  1.
        -11    1    4    4    0    0 -0.24583541885E-01  0.34940437847E-02  0.40868184662E-01  0.47822886907E-01  0.51100000000E-03 0.  1.
         11    1    4    4    0    0 -0.49538606510E-01  0.28723039709E-01  0.59818825798E-01  0.82810866352E-01  0.51100000000E-03 0. -1.
</event>
<event>
 8    1  0.1128641E+005  0.1043930E+01  0.7957747E-01            NaN
         13   -1    0    0    0    0  0.00000000000E+00  0.00000000000E+00  0.74505805969E-08  0.10566000000E+00  0.10566000000E+00 0.  1.
     999900   -1    0    0    0    0 -0.00000000000E+00 -0.00000000000E+00 -0.74505805969E-08  0.93827000000E+00  0.93827000000E+00 0.  1.
     999902    2    1    2    0    0  0.48201096736E-02 -0.22646308696E-01 -0.10765973975E-02  0.10207513931E+01  0.10204881963E+01 0.  0.
     999903    2    3    3    0    0  0.59218752243E-02 -0.90589794425E-01  0.94991287577E-01  0.13291888095E+00  0.20062520733E-01 0.  0.
         14    1    1    2    0    0 -0.48201096736E-02  0.22646308696E-01  0.10765973975E-02  0.23178606878E-01  0.00000000000E+00 0. -1.
     999901    1    3    3    0    0 -0.11017655507E-02  0.67943485729E-01 -0.96067884974E-01  0.88783251217E+00  0.88000000000E+00 0. -1.
        -11    1    4    4    0    0 -0.13430127637E-02 -0.53064498248E-01  0.42593166422E-01  0.68059412314E-01  0.51100000000E-03 0.  1.
         11    1    4    4    0    0  0.72648879880E-02 -0.37525296177E-01  0.52398121155E-01  0.64859468640E-01  0.51100000000E-03 0. -1.
</event>
<event>
 8    1  0.1128641E+005  0.1043930E+01  0.7957747E-01            NaN
         13   -1    0    0    0    0  0.00000000000E+00  0.00000000000E+00  0.74505805969E-08  0.10566000000E+00  0.10566000000E+00 0.  1.
     999900   -1    0    0    0    0 -0.00000000000E+00 -0.00000000000E+00 -0.74505805969E-08  0.93827000000E+00  0.93827000000E+00 0. -1.
     999902    2    1    2    0    0  0.50257207709E-02 -0.23301049957E-01  0.30487610004E-02  0.10198989421E+01  0.10196157906E+01 0.  0.
     999903    2    3    3    0    0  0.92374948108E-01 -0.92530437149E-01 -0.86646295558E-02  0.13279139562E+00  0.21528263022E-01 0.  0.
         14    1    1    2    0    0 -0.50257207709E-02  0.23301049957E-01 -0.30487610004E-02  0.24031057862E-01  0.00000000000E+00 0. -1.
     999901    1    3    3    0    0 -0.87349227337E-01  0.69229387193E-01  0.11713390556E-01  0.88710754652E+00  0.88000000000E+00 0.  1.
        -11    1    4    4    0    0  0.17131318449E-01 -0.28349839524E-01 -0.70991253944E-02  0.33879996683E-01  0.51100000000E-03 0.  1.
         11    1    4    4    0    0  0.75243629659E-01 -0.64180597625E-01 -0.15655041614E-02  0.98911398939E-01  0.51100000000E-03 0. -1.
</event>
<event>
 8    1  0.1128641E+005  0.1043930E+01  0.7957747E-01            NaN
         13   -1    0    0    0    0  0.00000000000E+00  0.00000000000E+00  0.74505805969E-08  0.10566000000E+00  0.10566000000E+00 0. -1.
     999900   -1    0    0    0    0 -0.00000000000E+00 -0.00000000000E+00 -0.74505805969E-08  0.93827000000E+00  0.93827000000E+00 0.  1.
     999902    2    1    2    0    0 -0.88149510252E-02 -0.64539843090E-02 -0.21153730456E-01  0.10201216488E+01  0.10198437825E+01 0.  0.
     999903    2    3    3    0    0 -0.12960804439E+00 -0.67218809582E-02 -0.92301727661E-02  0.13178994588E+00  0.20975340055E-01 0.  0.
         14    1    1    2    0    0  0.88149510252E-02  0.64539843090E-02  0.21153730456E-01  0.23808351208E-01  0.00000000000E+00 0. -1.
     999901    1    3    3    0    0  0.12079309337E+00  0.26789664915E-03 -0.11923557689E-01  0.88833170291E+00  0.88000000000E+00 0.  1.
        -11    1    4    4    0    0 -0.37682979788E-01 -0.94467028981E-02 -0.87328587049E-02  0.39821741593E-01  0.51100000000E-03 0. -1.
         11    1    4    4    0    0 -0.91925064605E-01  0.27248219399E-02 -0.49731406122E-03  0.91968204286E-01  0.51100000000E-03 0.  1.
</event>
<event>
 8    1  0.1128641E+005  0.1043930E+01  0.7957747E-01            NaN
         13   -1    0    0    0    0  0.00000000000E+00  0.00000000000E+00  0.74505805969E-08  0.10566000000E+00  0.10566000000E+00 0. -1.
     999900   -1    0    0    0    0 -0.00000000000E+00 -0.00000000000E+00 -0.74505805969E-08  0.93827000000E+00  0.93827000000E+00 0. -1.
     999902    2    1    2    0    0  0.20102846893E-02  0.21394633396E-01  0.36495128288E-03  0.10224380301E+01  0.10222121211E+01 0.  0.
     999903    2    3    3    0    0  0.10818287567E-01 -0.12210671634E+00 -0.38251185348E-01  0.12993513129E+00  0.19821696275E-01 0.  0.
         14    1    1    2    0    0 -0.20102846893E-02 -0.21394633396E-01 -0.36495128288E-03  0.21491969945E-01  0.00000000000E+00 0.  1.
     999901    1    3    3    0    0 -0.88080028781E-02  0.14350134973E+00  0.38616136631E-01  0.89250289876E+00  0.88000000000E+00 0. -1.
        -11    1    4    4    0    0  0.16376592258E-01 -0.78663107272E-01 -0.26003989940E-01  0.84454400913E-01  0.51100000000E-03 0. -1.
         11    1    4    4    0    0 -0.55583046909E-02 -0.43443609065E-01 -0.12247195407E-01  0.45480730381E-01  0.51100000000E-03 0.  1.
</event>
<event>
 8    1  0.1128641E+005  0.1043930E+01  0.7957747E-01            NaN
         13   -1    0    0    0    0  0.00000000000E+00  0.00000000000E+00  0.74505805969E-08  0.10566000000E+00  0.10566000000E+00 0. -1.
     999900   -1    0    0    0    0 -0.00000000000E+00 -0.00000000000E+00 -0.74505805969E-08  0.93827000000E+00  0.93827000000E+00 0. -1.
     999902    2    1    2    0    0  0.14694576197E-01 -0.16053247182E-01  0.10885801005E-01  0.10195961146E+01  0.10193056946E+01 0.  0.
     999903    2    3    3    0    0 -0.12353613566E+00 -0.79098013709E-02  0.28675652407E-01  0.12859076994E+00  0.19737054059E-01 0.  0.
         14    1    1    2    0    0 -0.14694576197E-01  0.16053247182E-01 -0.10885801005E-01  0.24333885392E-01  0.00000000000E+00 0.  1.
     999901    1    3    3    0    0  0.13823071185E+00 -0.81434458114E-02 -0.17789851402E-01  0.89100534467E+00  0.88000000000E+00 0.  1.
        -11    1    4    4    0    0 -0.86890716196E-01 -0.12312391200E-01  0.26235251387E-01  0.91597713260E-01  0.51100000000E-03 0.  1.
         11    1    4    4    0    0 -0.36645419460E-01  0.44025898288E-02  0.24404010207E-02  0.36993056683E-01  0.51100000000E-03 0. -1.
</event>
<event>
 8    1  0.1128641E+005  0.1043930E+01  0.7957747E-01            NaN
         13   -1    0    0    0    0  0.00000000000E+00  0.00000000000E+00  0.74505805969E-08  0.10566000000E+00  0.10566000000E+00 0. -1.
     999900   -1    0    0    0    0 -0.00000000000E+00 -0.00000000000E+00 -0.74505805969E-08  0.93827000000E+00  0.93827000000E+00 0.  1.
     999902    2    1    2    0    0  0.18386609806E-01 -0.87738825080E-02  0.14075784572E-01  0.10191676062E+01  0.10188667398E+01 0.  0.
     999903    2    3    3    0    0 -0.80098964579E-01 -0.25269701071E-01  0.96786543371E-01  0.12966629087E+00  0.19781559359E-01 0.  0.
         14    1    1    2    0    0 -0.18386609806E-01  0.87738825080E-02 -0.14075784572E-01  0.24762393781E-01  0.00000000000E+00 0.  1.
     999901    1    3    3    0    0  0.98485574385E-01  0.16495818563E-01 -0.82710758800E-01  0.88950131535E+00  0.88000000000E+00 0. -1.
        -11    1    4    4    0    0 -0.95017874980E-02 -0.10482769209E-01  0.15960293275E-01  0.21334584560E-01  0.51100000000E-03 0.  1.
         11    1    4    4    0    0 -0.70597177081E-01 -0.14786931862E-01  0.80826250097E-01  0.10833170631E+00  0.51100000000E-03 0. -1.
</event>
<event>
 8    1  0.1128641E+005  0.1043930E+01  0.7957747E-01            NaN
         13   -1    0    0    0    0  0.00000000000E+00  0.00000000000E+00  0.74505805969E-08  0.10566000000E+00  0.10566000000E+00 0. -1.
     999900   -1    0    0    0    0 -0.00000000000E+00 -0.00000000000E+00 -0.74505805969E-08  0.93827000000E+00  0.93827000000E+00 0. -1.
     999902    2    1    2    0    0  0.10285760216E-02  0.22563716559E-02  0.24739264453E-01  0.10190667664E+01  0.10187634141E+01 0.  0.
     999903    2    3    3    0    0 -0.11515773920E+00  0.50518544466E-01  0.28753778718E-01  0.13010972943E+00  0.16980390719E-01 0.  0.
         14    1    1    2    0    0 -0.10285760216E-02 -0.22563716559E-02 -0.24739264453E-01  0.24863233647E-01  0.00000000000E+00 0.  1.
     999901    1    3    3    0    0  0.11618631522E+00 -0.48262172810E-01 -0.40145142646E-02  0.88895703692E+00  0.88000000000E+00 0. -1.
        -11    1    4    4    0    0 -0.64625389785E-01  0.33876068810E-01  0.97666048167E-02  0.73618453756E-01  0.51100000000E-03 0.  1.
         11    1    4    4    0    0 -0.50532349417E-01  0.16642475656E-01  0.18987173901E-01  0.56491275674E-01  0.51100000000E-03 0. -1.
</event>
<event>
 8    1  0.1128641E+005  0.1043930E+01  0.7957747E-01            NaN
         13   -1    0    0    0    0  0.00000000000E+00  0.00000000000E+00  0.74505805969E-08  0.10566000000E+00  0.10566000000E+00 0. -1.
     999900   -1    0    0    0    0 -0.00000000000E+00 -0.00000000000E+00 -0.74505805969E-08  0.93827000000E+00  0.93827000000E+00 0.  1.
     999902    2    1    2    0    0 -0.55316123108E-02 -0.21807462872E-01  0.84255029112E-02  0.10199059855E+01  0.10196230019E+01 0.  0.
     999903    2    3    3    0    0 -0.92938207235E-01  0.30447804593E-01 -0.82404082717E-01  0.12938897871E+00  0.19659496326E-01 0.  0.
         14    1    1    2    0    0  0.55316123108E-02  0.21807462872E-01 -0.84255029112E-02  0.24024014464E-01  0.00000000000E+00 0.  1.
     999901    1    3    3    0    0  0.87406594924E-01 -0.52255267465E-01  0.90829585628E-01  0.89051700682E+00  0.88000000000E+00 0. -1.
        -11    1    4    4    0    0 -0.28281804617E-01  0.44611885837E-02 -0.14529741303E-01  0.32111324783E-01  0.51100000000E-03 0. -1.
         11    1    4    4    0    0 -0.64656402618E-01  0.25986616010E-01 -0.67874341413E-01  0.97277653931E-01  0.51100000000E-03 0.  1.
</event>
<event>
 8    1  0.1158215E+005  0.1043930E+01  0.7957747E-01            NaN
         13   -1    0    0    0    0  0.00000000000E+00  0.00000000000E+00  0.74505805969E-08  0.10566000000E+00  0.10566000000E+00 0. -1.
     999900   -1    0    0    0    0 -0.00000000000E+00 -0.00000000000E+00 -0.74505805969E-08  0.93827000000E+00  0.93827000000E+00 0. -1.
     999902    2    1    2    0    0  0.22418930810E-01  0.74080061379E-02 -0.26297575750E-03  0.10203173727E+01  0.10200441092E+01 0.  0.
     999903    2    3    3    0    0 -0.30476454780E-02  0.89298265284E-01  0.93891808222E-01  0.13114939955E+00  0.20025609275E-01 0.  0.
         14    1    1    2    0    0 -0.22418930810E-01 -0.74080061379E-02  0.26297575750E-03  0.23612627339E-01  0.00000000000E+00 0.  1.
     999901    1    3    3    0    0  0.25466576288E-01 -0.81890259146E-01 -0.94154783979E-01  0.88916797311E+00  0.88000000000E+00 0. -1.
        -11    1    4    4    0    0 -0.10293405860E-01  0.28833552788E-01  0.33419723339E-01  0.45326228606E-01  0.51100000000E-03 0. -1.
         11    1    4    4    0    0  0.72457603816E-02  0.60464712496E-01  0.60472084882E-01  0.85823170949E-01  0.51100000000E-03 0.  1.
</event>
<event>
 8    1  0.1128641E+005  0.1043930E+01  0.7957747E-01            NaN
         13   -1    0    0    0    0  0.00000000000E+00  0.00000000000E+00  0.74505805969E-08  0.10566000000E+00  0.10566000000E+00 0.  1.
     999900   -1    0    0    0    0 -0.00000000000E+00 -0.00000000000E+00 -0.74505805969E-08  0.93827000000E+00  0.93827000000E+00 0.  1.
     999902    2    1    2    0    0  0.65821664515E-02  0.19290212501E-01  0.10694692027E-01  0.10209123187E+01  0.10206528053E+01 0.  0.
     999903    2    3    3    0    0 -0.51272990583E-01  0.34467256855E-01  0.11566096049E+00  0.13265814374E+00  0.20095122792E-01 0.  0.
         14    1    1    2    0    0 -0.65821664515E-02 -0.19290212501E-01 -0.10694692027E-01  0.23017681270E-01  0.00000000000E+00 0. -1.
     999901    1    3    3    0    0  0.57855157034E-01 -0.15177044355E-01 -0.10496626847E+00  0.88825417499E+00  0.88000000000E+00 0.  1.
        -11    1    4    4    0    0 -0.23804394587E-01  0.24892166384E-01  0.76268310871E-01  0.83686232518E-01  0.51100000000E-03 0.  1.
         11    1    4    4    0    0 -0.27468595996E-01  0.95750904710E-02  0.39392649622E-01  0.48971911222E-01  0.51100000000E-03 0. -1.
</event>
<event>
 8    1  0.1128641E+005  0.1043930E+01  0.7957747E-01            NaN
         13   -1    0    0    0    0  0.00000000000E+00  0.00000000000E+00  0.74505805969E-08  0.10566000000E+00  0.10566000000E+00 0. -1.
     999900   -1    0    0    0    0 -0.00000000000E+00 -0.00000000000E+00 -0.74505805969E-08  0.93827000000E+00  0.93827000000E+00 0. -1.
     999902    2    1    2    0    0 -0.22026150658E-01  0.94706607116E-02  0.71439349936E-02  0.10189123955E+01  0.10186052175E+01 0.  0.
     999903    2    3    3    0    0 -0.23570115424E-01 -0.11935448569E+00 -0.36179871267E-01  0.12847696587E+00  0.19907387527E-01 0.  0.
         14    1    1    2    0    0  0.22026150658E-01 -0.94706607116E-02 -0.71439349936E-02  0.25017604488E-01  0.00000000000E+00 0.  1.
     999901    1    3    3    0    0  0.15439647657E-02  0.12882514640E+00  0.43323806260E-01  0.89043542964E+00  0.88000000000E+00 0. -1.
        -11    1    4    4    0    0 -0.74323568100E-02 -0.77851843681E-01 -0.28773518801E-01  0.83332622648E-01  0.51100000000E-03 0.  1.
         11    1    4    4    0    0 -0.16137758614E-01 -0.41502642012E-01 -0.74063524651E-02  0.45144343222E-01  0.51100000000E-03 0. -1.
</event>
<event>
 8    1  0.1128641E+005  0.1043930E+01  0.7957747E-01            NaN
         13   -1    0    0    0    0  0.00000000000E+00  0.00000000000E+00  0.74505805969E-08  0.10566000000E+00  0.10566000000E+00 0. -1.
     999900   -1    0    0    0    0 -0.00000000000E+00 -0.00000000000E+00 -0.74505805969E-08  0.93827000000E+00  0.93827000000E+00 0. -1.
     999902    2    1    2    0    0  0.16596083146E-01 -0.32007274109E-02  0.16302005816E-01  0.10204474528E+01  0.10201772267E+01 0.  0.
     999903    2    3    3    0    0 -0.43205858775E-01  0.58344543889E-02 -0.11867810170E+00  0.12810360860E+00  0.20621726956E-01 0.  0.
         14    1    1    2    0    0 -0.16596083146E-01  0.32007274109E-02 -0.16302005816E-01  0.23482547250E-01  0.00000000000E+00 0.  1.
     999901    1    3    3    0    0  0.59801941921E-01 -0.90351817999E-02  0.13498010752E+00  0.89234384415E+00  0.88000000000E+00 0. -1.
        -11    1    4    4    0    0 -0.11532462051E-01  0.13249418870E-02 -0.61441077571E-01  0.62530155014E-01  0.51100000000E-03 0. -1.
         11    1    4    4    0    0 -0.31673396724E-01  0.45095125019E-02 -0.57237024129E-01  0.65573453586E-01  0.51100000000E-03 0.  1.
</event>
<event>
 8    1  0.1128641E+005  0.1043930E+01  0.7957747E-01            NaN
         13   -1    0    0    0    0  0.00000000000E+00  0.00000000000E+00  0.74505805969E-08  0.10566000000E+00  0.10566000000E+00 0. -1.
     999900   -1    0    0    0    0 -0.00000000000E+00 -0.00000000000E+00 -0.74505805969E-08  0.93827000000E+00  0.93827000000E+00 0. -1.
     999902    2    1    2    0    0 -0.88989608673E-02 -0.49367272933E-02 -0.22848355449E-01  0.10189178004E+01  0.10186107568E+01 0.  0.
     999903    2    3    3    0    0 -0.11838498215E+00 -0.27541764999E-01 -0.45970923914E-01  0.13154367991E+00  0.20417175615E-01 0.  0.
         14    1    1    2    0    0  0.88989608673E-02  0.49367272933E-02  0.22848355449E-01  0.25012199576E-01  0.00000000000E+00 0.  1.
     999901    1    3    3    0    0  0.10948602129E+00  0.22605037706E-01  0.23122568465E-01  0.88737412051E+00  0.88000000000E+00 0. -1.
        -11    1    4    4    0    0 -0.10248591092E+00 -0.24741761500E-01 -0.31980050878E-01  0.11017486770E+00  0.51100000000E-03 0. -1.
         11    1    4    4    0    0 -0.15899071237E-01 -0.28000034988E-02 -0.13990873036E-01  0.21368812206E-01  0.51100000000E-03 0.  1.
</event>
<event>
 8    1  0.1128641E+005  0.1043930E+01  0.7957747E-01            NaN
         13   -1    0    0    0    0  0.00000000000E+00  0.00000000000E+00  0.74505805969E-08  0.10566000000E+00  0.10566000000E+00 0.  1.
     999900   -1    0    0    0    0 -0.00000000000E+00 -0.00000000000E+00 -0.74505805969E-08  0.93827000000E+00  0.93827000000E+00 0.  1.
     999902    2    1    2    0    0 -0.93520896475E-02  0.26537511067E-02 -0.25694237427E-01  0.10164582361E+01  0.10160869293E+01 0.  0.
     999903    2    3    3    0    0 -0.49855936756E-01 -0.33009674728E-02  0.11266446074E+00  0.12470762652E+00  0.19031568052E-01 0.  0.
         14    1    1    2    0    0  0.93520896475E-02 -0.26537511067E-02  0.25694237427E-01  0.27471763916E-01  0.00000000000E+00 0.  1.
     999901    1    3    3    0    0  0.40503847108E-01  0.59547185795E-02 -0.13835869816E+00  0.89175060957E+00  0.88000000000E+00 0.  1.
        -11    1    4    4    0    0 -0.25930279528E-01  0.41386667740E-02  0.40078137156E-01  0.47916867155E-01  0.51100000000E-03 0. -1.
         11    1    4    4    0    0 -0.23925657228E-01 -0.74396342468E-02  0.72586323581E-01  0.76790759363E-01  0.51100000000E-03 0.  1.
</event>
<event>
 8    1  0.1128641E+005  0.1043930E+01  0.7957747E-01            NaN
         13   -1    0    0    0    0  0.00000000000E+00  0.00000000000E+00  0.74505805969E-08  0.10566000000E+00  0.10566000000E+00 0. -1.
     999900   -1    0    0    0    0 -0.00000000000E+00 -0.00000000000E+00 -0.74505805969E-08  0.93827000000E+00  0.93827000000E+00 0. -1.
     999902    2    1    2    0    0 -0.10788859641E-01  0.23775053094E-01 -0.68712449589E-02  0.10169324696E+01  0.10165740411E+01 0.  0.
     999903    2    3    3    0    0 -0.45793657383E-01  0.32307324478E-01 -0.11518993892E+00  0.12955933780E+00  0.19392723202E-01 0.  0.
         14    1    1    2    0    0  0.10788859641E-01 -0.23775053094E-01  0.68712449589E-02  0.26997530429E-01  0.00000000000E+00 0.  1.
     999901    1    3    3    0    0  0.35004797742E-01 -0.85322713837E-02  0.10831869396E+00  0.88737313177E+00  0.88000000000E+00 0.  1.
        -11    1    4    4    0    0 -0.16313924114E-01  0.19869935475E-01 -0.66465989749E-01  0.71266733965E-01  0.51100000000E-03 0.  1.
         11    1    4    4    0    0 -0.29479733269E-01  0.12437389004E-01 -0.48723949168E-01  0.58292603840E-01  0.51100000000E-03 0. -1.
</event>
<event>
 8    1  0.1128641E+005  0.1043930E+01  0.7957747E-01            NaN
         13   -1    0    0    0    0  0.00000000000E+00  0.00000000000E+00  0.74505805969E-08  0.10566000000E+00  0.10566000000E+00 0.  1.
     999900   -1    0    0    0    0 -0.00000000000E+00 -0.00000000000E+00 -0.74505805969E-08  0.93827000000E+00  0.93827000000E+00 0. -1.
     999902    2    1    2    0    0 -0.21147009763E-01 -0.11243134424E-01  0.70457781465E-02  0.10189650830E+01  0.10186592135E+01 0.  0.
     999903    2    3    3    0    0 -0.21445943456E-01  0.10121239173E+00  0.74870641044E-01  0.12921986844E+00  0.19704943014E-01 0.  0.
         14    1    1    2    0    0  0.21147009763E-01  0.11243134424E-01 -0.70457781465E-02  0.24964917049E-01  0.00000000000E+00 0.  1.
     999901    1    3    3    0    0  0.29893369282E-03 -0.11245552615E+00 -0.67824862897E-01  0.88974521451E+00  0.88000000000E+00 0.  1.
        -11    1    4    4    0    0 -0.11976408762E-01  0.75792782569E-01  0.45387252249E-01  0.89152925045E-01  0.51100000000E-03 0.  1.
         11    1    4    4    0    0 -0.94695346939E-02  0.25419609157E-01  0.29483388795E-01  0.40066943393E-01  0.51100000000E-03 0. -1.
</event>
<event>
 8    1  0.1128641E+005  0.1043930E+01  0.7957747E-01            NaN
         13   -1    0    0    0    0  0.00000000000E+00  0.00000000000E+00  0.74505805969E-08  0.10566000000E+00  0.10566000000E+00 0. -1.
     999900   -1    0    0    0    0 -0.00000000000E+00 -0.00000000000E+00 -0.74505805969E-08  0.93827000000E+00  0.93827000000E+00 0. -1.
     999902    2    1    2    0    0 -0.13628257841E-01  0.17880808896E-01 -0.59655793074E-02  0.10206697146E+01  0.10204046381E+01 0.  0.
     999903    2    3    3    0    0  0.72644278215E-01  0.17965189506E-01  0.10402898161E+00  0.12963561819E+00  0.19581248665E-01 0.  0.
         14    1    1    2    0    0  0.13628257841E-01 -0.17880808896E-01  0.59655793074E-02  0.23260285360E-01  0.00000000000E+00 0. -1.
     999901    1    3    3    0    0 -0.86272536056E-01 -0.84380609569E-04 -0.10999456091E+00  0.89103409645E+00  0.88000000000E+00 0. -1.
        -11    1    4    4    0    0  0.40011730436E-01  0.19717124264E-01  0.57512753210E-01  0.72785173384E-01  0.51100000000E-03 0. -1.
         11    1    4    4    0    0  0.32632547779E-01 -0.17519347584E-02  0.46516228396E-01  0.56850444810E-01  0.51100000000E-03 0.  1.
</event>
<event>
 8    1  0.1128641E+005  0.1043930E+01  0.7957747E-01            NaN
         13   -1    0    0    0    0  0.00000000000E+00  0.00000000000E+00  0.74505805969E-08  0.10566000000E+00  0.10566000000E+00 0. -1.
     999900   -1    0    0    0    0 -0.00000000000E+00 -0.00000000000E+00 -0.74505805969E-08  0.93827000000E+00  0.93827000000E+00 0.  1.
     999902    2    1    2    0    0  0.45022140823E-02 -0.23953554564E-01  0.67824184816E-02  0.10186309109E+01  0.10183166938E+01 0.  0.
     999903    2    3    3    0    0  0.21210626659E-01  0.40972682815E-01 -0.11717981649E+00  0.12741756775E+00  0.19377196864E-01 0.  0.
         14    1    1    2    0    0 -0.45022140823E-02  0.23953554564E-01 -0.67824184816E-02  0.25299089082E-01  0.00000000000E+00 0.  1.
     999901    1    3    3    0    0 -0.16708412577E-01 -0.64926237379E-01  0.12396223497E+00  0.89121334317E+00  0.88000000000E+00 0. -1.
        -11    1    4    4    0    0  0.46516058046E-02  0.29059120551E-01 -0.63492645415E-01  0.69983191314E-01  0.51100000000E-03 0.  1.
         11    1    4    4    0    0  0.16559020855E-01  0.11913562263E-01 -0.53687171071E-01  0.57434376431E-01  0.51100000000E-03 0. -1.
</event>
<event>
 8    1  0.1128641E+005  0.1043930E+01  0.7957747E-01            NaN
         13   -1    0    0    0    0  0.00000000000E+00  0.00000000000E+00  0.74505805969E-08  0.10566000000E+00  0.10566000000E+00 0.  1.
     999900   -1    0    0    0    0 -0.00000000000E+00 -0.00000000000E+00 -0.74505805969E-08  0.93827000000E+00  0.93827000000E+00 0. -1.
     999902    2    1    2    0    0 -0.17737335232E-01 -0.16513328171E-01 -0.46621095369E-02  0.10192512980E+01  0.10189524867E+01 0.  0.
     999903    2    3    3    0    0 -0.61872123603E-01  0.10348153268E+00  0.40610050563E-01  0.12886025205E+00  0.20474400304E-01 0.  0.
         14    1    1    2    0    0  0.17737335232E-01  0.16513328171E-01  0.46621095369E-02  0.24678702027E-01  0.00000000000E+00 0.  1.
     999901    1    3    3    0    0  0.44134788370E-01 -0.11999486085E+00 -0.45272160100E-01  0.89039104592E+00  0.88000000000E+00 0.  1.
        -11    1    4    4    0    0 -0.47197040929E-01  0.83682057499E-01  0.23663985901E-01  0.98946918949E-01  0.51100000000E-03 0. -1.
         11    1    4    4    0    0 -0.14675082673E-01  0.19799475179E-01  0.16946064662E-01  0.29913333103E-01  0.51100000000E-03 0.  1.
</event>
<event>
 8    1  0.1128641E+005  0.1043930E+01  0.7957747E-01            NaN
         13   -1    0    0    0    0  0.00000000000E+00  0.00000000000E+00  0.74505805969E-08  0.10566000000E+00  0.10566000000E+00 0.  1.
     999900   -1    0    0    0    0 -0.00000000000E+00 -0.00000000000E+00 -0.74505805969E-08  0.93827000000E+00  0.93827000000E+00 0. -1.
     999902    2    1    2    0    0  0.57946344848E-03  0.51128121157E-03 -0.24138767112E-01  0.10197788662E+01  0.10194928439E+01 0.  0.
     999903    2    3    3    0    0  0.47203196353E-01  0.22426198408E-01  0.11453419462E+00  0.12743127339E+00  0.19737567758E-01 0.  0.
         14    1    1    2    0    0 -0.57946344848E-03 -0.51128121157E-03  0.24138767112E-01  0.24151133805E-01  0.00000000000E+00 0.  1.
     999901    1    3    3    0    0 -0.46623732904E-01 -0.21914917196E-01 -0.13867296173E+00  0.89234759280E+00  0.88000000000E+00 0. -1.
        -11    1    4    4    0    0  0.35897879264E-01  0.24816586964E-01  0.97715658774E-01  0.10701930580E+00  0.51100000000E-03 0. -1.
         11    1    4    4    0    0  0.11305317089E-01 -0.23903885565E-02  0.16818535843E-01  0.20411967588E-01  0.51100000000E-03 0.  1.
</event>
<event>
 8    1  0.1128641E+005  0.1043930E+01  0.7957747E-01            NaN
         13   -1    0    0    0    0  0.00000000000E+00  0.00000000000E+00  0.74505805969E-08  0.10566000000E+00  0.10566000000E+00 0. -1.
     999900   -1    0    0    0    0 -0.00000000000E+00 -0.00000000000E+00 -0.74505805969E-08  0.93827000000E+00  0.93827000000E+00 0.  1.
     999902    2    1    2    0    0 -0.69946602380E-02 -0.25880455531E-02 -0.22632550390E-01  0.10201002793E+01  0.10198219081E+01 0.  0.
     999903    2    3    3    0    0 -0.12316786354E+00 -0.34529359045E-01  0.19436345248E-01  0.13089487409E+00  0.19826681540E-01 0.  0.
         14    1    1    2    0    0  0.69946602380E-02  0.25880455531E-02  0.22632550390E-01  0.23829720703E-01  0.00000000000E+00 0. -1.
     999901    1    3    3    0    0  0.11617320330E+00  0.31941313492E-01 -0.42068895638E-01  0.88920540521E+00  0.88000000000E+00 0. -1.
        -11    1    4    4    0    0 -0.59014326133E-01 -0.26665854663E-01  0.79667613391E-02  0.65249436021E-01  0.51100000000E-03 0.  1.
         11    1    4    4    0    0 -0.64153537406E-01 -0.78635043824E-02  0.11469583909E-01  0.65645438066E-01  0.51100000000E-03 0. -1.
</event>
<event>
 8    1  0.1128641E+005  0.1043930E+01  0.7957747E-01            NaN
         13   -1    0    0    0    0  0.00000000000E+00  0.00000000000E+00  0.74505805969E-08  0.10566000000E+00  0.10566000000E+00 0. -1.
     999900   -1    0    0    0    0 -0.00000000000E+00 -0.00000000000E+00 -0.74505805969E-08  0.93827000000E+00  0.93827000000E+00 0. -1.
     999902    2    1    2    0    0  0.63132657927E-02  0.24276180669E-01 -0.50841012580E-02  0.10183362828E+01  0.10180146102E+01 0.  0.
     999903    2    3    3    0    0 -0.10460328521E-01 -0.43767243485E-01  0.11703564209E+00  0.12714354680E+00  0.21051125862E-01 0.  0.
         14    1    1    2    0    0 -0.63132657927E-02 -0.24276180669E-01  0.50841012580E-02  0.25593717168E-01  0.00000000000E+00 0. -1.
     999901    1    3    3    0    0  0.16773594314E-01  0.68043424155E-01 -0.12211974334E+00  0.89119273603E+00  0.88000000000E+00 0. -1.
        -11    1    4    4    0    0 -0.10755844573E-01 -0.97002020421E-02  0.48284274587E-01  0.50412442963E-01  0.51100000000E-03 0.  1.
         11    1    4    4    0    0  0.29551605253E-03 -0.34067041443E-01  0.68751367500E-01  0.76731103840E-01  0.51100000000E-03 0. -1.
</event>
<event>
 8    1  0.1128641E+005  0.1043930E+01  0.7957747E-01            NaN
         13   -1    0    0    0    0  0.00000000000E+00  0.00000000000E+00  0.74505805969E-08  0.10566000000E+00  0.10566000000E+00 0.  1.
     999900   -1    0    0    0    0 -0.00000000000E+00 -0.00000000000E+00 -0.74505805969E-08  0.93827000000E+00  0.93827000000E+00 0. -1.
     999902    2    1    2    0    0  0.22752387527E-01 -0.17375092419E-02 -0.52259000063E-03  0.10211053822E+01  0.10208502527E+01 0.  0.
     999903    2    3    3    0    0 -0.61616769185E-01  0.11203772788E+00 -0.89367613613E-02  0.12973915139E+00  0.20082404891E-01 0.  0.
         14    1    1    2    0    0 -0.22752387527E-01  0.17375092419E-02  0.52259000063E-03  0.22824617781E-01  0.00000000000E+00 0.  1.
     999901    1    3    3    0    0  0.84369156713E-01 -0.11377523712E+00  0.84141713607E-02  0.89136623083E+00  0.88000000000E+00 0. -1.
        -11    1    4    4    0    0 -0.45556329767E-01  0.64904648168E-01 -0.93850688159E-03  0.79304063275E-01  0.51100000000E-03 0. -1.
         11    1    4    4    0    0 -0.16060439418E-01  0.47133079710E-01 -0.79982544797E-02  0.50435088113E-01  0.51100000000E-03 0.  1.
</event>
<event>
 8    1  0.1128641E+005  0.1043930E+01  0.7957747E-01            NaN
         13   -1    0    0    0    0  0.00000000000E+00  0.00000000000E+00  0.74505805969E-08  0.10566000000E+00  0.10566000000E+00 0.  1.
     999900   -1    0    0    0    0 -0.00000000000E+00 -0.00000000000E+00 -0.74505805969E-08  0.93827000000E+00  0.93827000000E+00 0. -1.
     999902    2    1    2    0    0  0.15758832556E-03 -0.21386239678E-01 -0.13356845071E-01  0.10187148975E+01  0.10184027892E+01 0.  0.
     999903    2    3    3    0    0  0.67126750551E-01 -0.44785398794E-02  0.10723580904E+00  0.12780899498E+00  0.17594388222E-01 0.  0.
         14    1    1    2    0    0 -0.15758832556E-03  0.21386239678E-01  0.13356845071E-01  0.25215102456E-01  0.00000000000E+00 0.  1.
     999901    1    3    3    0    0 -0.66969162226E-01 -0.16907699798E-01 -0.12059265411E+00  0.89090590257E+00  0.88000000000E+00 0. -1.
        -11    1    4    4    0    0  0.44394271438E-02  0.38941766809E-02  0.13357420214E-01  0.14613518439E-01  0.51100000000E-03 0. -1.
         11    1    4    4    0    0  0.62687323407E-01 -0.83727165603E-02  0.93878388829E-01  0.11319547654E+00  0.51100000000E-03 0.  1.
</event>
<event>
 8    1  0.1128641E+005  0.1043930E+01  0.7957747E-01            NaN
         13   -1    0    0    0    0  0.00000000000E+00  0.00000000000E+00  0.74505805969E-08  0.10566000000E+00  0.10566000000E+00 0.  1.
     999900   -1    0    0    0    0 -0.00000000000E+00 -0.00000000000E+00 -0.74505805969E-08  0.93827000000E+00  0.93827000000E+00 0. -1.
     999902    2    1    2    0    0  0.19245330917E-01 -0.98367811974E-02  0.58287337650E-02  0.10215443090E+01  0.10212990042E+01 0.  0.
     999903    2    3    3    0    0  0.12513504452E+00  0.29414383581E-01  0.31926590490E-01  0.13394395772E+00  0.19942198972E-01 0.  0.
         14    1    1    2    0    0 -0.19245330917E-01  0.98367811974E-02 -0.58287337650E-02  0.22385691049E-01  0.00000000000E+00 0. -1.
     999901    1    3    3    0    0 -0.10588971361E+00 -0.39251164779E-01 -0.26097856725E-01  0.88760035123E+00  0.88000000000E+00 0.  1.
        -11    1    4    4    0    0  0.33497893937E-01  0.10987383286E-02  0.24774622416E-02  0.33611234198E-01  0.51100000000E-03 0.  1.
         11    1    4    4    0    0  0.91637150585E-01  0.28315645253E-01  0.29449128249E-01  0.10033272352E+00  0.51100000000E-03 0. -1.
</event>
<event>
 8    1  0.1128641E+005  0.1043930E+01  0.7957747E-01            NaN
         13   -1    0    0    0    0  0.00000000000E+00  0.00000000000E+00  0.74505805969E-08  0.10566000000E+00  0.10566000000E+00 0. -1.
     999900   -1    0    0    0    0 -0.00000000000E+00 -0.00000000000E+00 -0.74505805969E-08  0.93827000000E+00  0.93827000000E+00 0.  1.
     999902    2    1    2    0    0  0.15281736269E-01  0.10632452488E-01  0.15225901097E-01  0.10198798737E+01  0.10195962673E+01 0.  0.
     999903    2    3    3    0    0 -0.10589642152E+00 -0.57110957955E-01 -0.37170422926E-01  0.12745694129E+00  0.19695632306E-01 0.  0.
         14    1    1    2    0    0 -0.15281736269E-01 -0.10632452488E-01 -0.15225901097E-01  0.24050126268E-01  0.00000000000E+00 0.  1.
     999901    1    3    3    0    0  0.12117815779E+00  0.67743410443E-01  0.52396324023E-01  0.89242293245E+00  0.88000000000E+00 0.  1.
        -11    1    4    4    0    0 -0.47370967201E-01 -0.14720367712E-01 -0.16773970678E-01  0.52367212762E-01  0.51100000000E-03 0. -1.
         11    1    4    4    0    0 -0.58525454321E-01 -0.42390590243E-01 -0.20396452248E-01  0.75089728525E-01  0.51100000000E-03 0.  1.
</event>
<event>
 8    1  0.1128641E+005  0.1043930E+01  0.7957747E-01            NaN
         13   -1    0    0    0    0  0.00000000000E+00  0.00000000000E+00  0.74505805969E-08  0.10566000000E+00  0.10566000000E+00 0. -1.
     999900   -1    0    0    0    0 -0.00000000000E+00 -0.00000000000E+00 -0.74505805969E-08  0.93827000000E+00  0.93827000000E+00 0. -1.
     999902    2    1    2    0    0  0.18379550137E-01 -0.13915527078E-01 -0.19802665669E-01  0.10135392888E+01  0.10130835576E+01 0.  0.
     999903    2    3    3    0    0 -0.31830972894E-01 -0.11981396501E+00  0.33772295793E-02  0.12546672237E+00  0.19023556304E-01 0.  0.
         14    1    1    2    0    0 -0.18379550137E-01  0.13915527078E-01  0.19802665669E-01  0.30390711158E-01  0.00000000000E+00 0. -1.
     999901    1    3    3    0    0  0.50210523031E-01  0.10589843794E+00 -0.23179895248E-01  0.88807256647E+00  0.88000000000E+00 0. -1.
        -11    1    4    4    0    0 -0.30474114676E-02 -0.27414669262E-01 -0.60007780372E-02  0.28233336067E-01  0.51100000000E-03 0.  1.
         11    1    4    4    0    0 -0.28783561426E-01 -0.92399295751E-01  0.93780076165E-02  0.97233386301E-01  0.51100000000E-03 0. -1.
</event>
<event>
 8    1  0.1128641E+005  0.1043930E+01  0.7957747E-01            NaN
         13   -1    0    0    0    0  0.00000000000E+00  0.00000000000E+00  0.74505805969E-08  0.10566000000E+00  0.10566000000E+00 0. -1.
     999900   -1    0    0    0    0 -0.00000000000E+00 -0.00000000000E+00 -0.74505805969E-08  0.93827000000E+00  0.93827000000E+00 0.  1.
     999902    2    1    2    0    0  0.12153541755E-01 -0.16073254611E-01 -0.12707287699E-01  0.10201070436E+01  0.10198288323E+01 0.  0.
     999903    2    3    3    0    0  0.18274943470E-01 -0.28214263929E-01  0.12369752171E+00  0.12949425024E+00  0.18375682851E-01 0.  0.
         14    1    1    2    0    0 -0.12153541755E-01  0.16073254611E-01  0.12707287699E-01  0.23822956400E-01  0.00000000000E+00 0.  1.
     999901    1    3    3    0    0 -0.61214017155E-02  0.12141009318E-01 -0.13640480941E+00  0.89061279336E+00  0.88000000000E+00 0.  1.
        -11    1    4    4    0    0  0.12333522178E-01 -0.27957387452E-01  0.84748348808E-01  0.90090371456E-01  0.51100000000E-03 0. -1.
         11    1    4    4    0    0  0.59414212920E-02 -0.25687647731E-03  0.38949172902E-01  0.39403878784E-01  0.51100000000E-03 0.  1.
</event>
<event>
 8    1  0.1211009E+005  0.1043930E+01  0.7957747E-01            NaN
         13   -1    0    0    0    0  0.00000000000E+00  0.00000000000E+00  0.74505805969E-08  0.10566000000E+00  0.10566000000E+00 0.  1.
     999900   -1    0    0    0    0 -0.00000000000E+00 -0.00000000000E+00 -0.74505805969E-08  0.93827000000E+00  0.93827000000E+00 0. -1.
     999902    2    1    2    0    0  0.20794909782E-01  0.68707441011E-02 -0.83300074439E-02  0.10204987298E+01  0.10202296963E+01 0.  0.
     999903    2    3    3    0    0  0.71553227245E-01 -0.10706745916E+00 -0.20321534087E-01  0.13162184429E+00  0.18111874739E-01 0.  0.
         14    1    1    2    0    0 -0.20794909782E-01 -0.68707441011E-02  0.83300074439E-02  0.23431270161E-01  0.00000000000E+00 0.  1.
     999901    1    3    3    0    0 -0.50758317463E-01  0.11393820326E+00  0.11991526643E-01  0.88887688555E+00  0.88000000000E+00 0.  1.
        -11    1    4    4    0    0  0.36934782555E-01 -0.62984973506E-01 -0.35096412064E-02  0.73101735632E-01  0.51100000000E-03 0.  1.
         11    1    4    4    0    0  0.34618444690E-01 -0.44082485652E-01 -0.16811892880E-01  0.58520108657E-01  0.51100000000E-03 0. -1.
</event>
<event>
 8    1  0.1128641E+005  0.1043930E+01  0.7957747E-01            NaN
         13   -1    0    0    0    0  0.00000000000E+00  0.00000000000E+00  0.74505805969E-08  0.10566000000E+00  0.10566000000E+00 0.  1.
     999900   -1    0    0    0    0 -0.00000000000E+00 -0.00000000000E+00 -0.74505805969E-08  0.93827000000E+00  0.93827000000E+00 0. -1.
     999902    2    1    2    0    0 -0.38789835121E-02 -0.17498302838E-02 -0.23252277704E-01  0.10202915390E+01  0.10200176703E+01 0.  0.
     999903    2    3    3    0    0 -0.31644521238E-01  0.81097753039E-01 -0.98168372693E-01  0.13279671175E+00  0.20486971006E-01 0.  0.
         14    1    1    2    0    0  0.38789835121E-02  0.17498302838E-02  0.23252277704E-01  0.23638460981E-01  0.00000000000E+00 0.  1.
     999901    1    3    3    0    0  0.27765537726E-01 -0.82847583323E-01  0.74916094989E-01  0.88749482727E+00  0.88000000000E+00 0.  1.
        -11    1    4    4    0    0 -0.22201334441E-01  0.60148125104E-01 -0.57702890534E-01  0.86258801879E-01  0.51100000000E-03 0. -1.
         11    1    4    4    0    0 -0.94431867966E-02  0.20949627935E-01 -0.40465482159E-01  0.46537909868E-01  0.51100000000E-03 0.  1.
</event>
<event>
 8    1  0.1135026E+005  0.1043930E+01  0.7957747E-01            NaN
         13   -1    0    0    0    0  0.00000000000E+00  0.00000000000E+00  0.74505805969E-08  0.10566000000E+00  0.10566000000E+00 0.  1.
     999900   -1    0    0    0    0 -0.00000000000E+00 -0.00000000000E+00 -0.74505805969E-08  0.93827000000E+00  0.93827000000E+00 0.  1.
     999902    2    1    2    0    0  0.32074760422E-04 -0.10581785538E-01 -0.20990025031E-01  0.10204234825E+01  0.10201526980E+01 0.  0.
     999903    2    3    3    0    0  0.46003231586E-01  0.11923356345E+00 -0.16540571387E-02  0.12950303053E+00  0.20865259205E-01 0.  0.
         14    1    1    2    0    0 -0.32074760422E-04  0.10581785538E-01  0.20990025031E-01  0.23506517496E-01  0.00000000000E+00 0.  1.
     999901    1    3    3    0    0 -0.45971156825E-01 -0.12981534899E+00 -0.19335967893E-01  0.89092045198E+00  0.88000000000E+00 0.  1.
        -11    1    4    4    0    0  0.23331807833E-01  0.48250006932E-01  0.85992960072E-02  0.54283012430E-01  0.51100000000E-03 0.  1.
         11    1    4    4    0    0  0.22671423753E-01  0.70983556519E-01 -0.10253353146E-01  0.75220018099E-01  0.51100000000E-03 0. -1.
</event>
<event>
 8    1  0.1128641E+005  0.1043930E+01  0.7957747E-01            NaN
         13   -1    0    0    0    0  0.00000000000E+00  0.00000000000E+00  0.74505805969E-08  0.10566000000E+00  0.10566000000E+00 0. -1.
     999900   -1    0    0    0    0 -0.00000000000E+00 -0.00000000000E+00 -0.74505805969E-08  0.93827000000E+00  0.93827000000E+00 0.  1.
     999902    2    1    2    0    0 -0.22361114242E-01  0.99134301622E-02 -0.13078484910E-02  0.10194349802E+01  0.10191406541E+01 0.  0.
     999903    2    3    3    0    0 -0.76466290845E-01  0.76500886619E-01 -0.73950582856E-01  0.13228323086E+00  0.18184751083E-01 0.  0.
         14    1    1    2    0    0  0.22361114242E-01 -0.99134301622E-02  0.13078484910E-02  0.24495019808E-01  0.00000000000E+00 0.  1.
     999901    1    3    3    0    0  0.54105176603E-01 -0.66587456457E-01  0.72642734365E-01  0.88715174934E+00  0.88000000000E+00 0. -1.
        -11    1    4    4    0    0 -0.39175474075E-01  0.26774843266E-01 -0.29667111043E-01  0.55964351150E-01  0.51100000000E-03 0.  1.
         11    1    4    4    0    0 -0.37290816770E-01  0.49726043353E-01 -0.44283471813E-01  0.76318879707E-01  0.51100000000E-03 0. -1.
</event>
<event>
 8    1  0.1128641E+005  0.1043930E+01  0.7957747E-01            NaN
         13   -1    0    0    0    0  0.00000000000E+00  0.00000000000E+00  0.74505805969E-08  0.10566000000E+00  0.10566000000E+00 0. -1.
     999900   -1    0    0    0    0 -0.00000000000E+00 -0.00000000000E+00 -0.74505805969E-08  0.93827000000E+00  0.93827000000E+00 0.  1.
     999902    2    1    2    0    0  0.81125552325E-02  0.20096023851E-01 -0.71592163935E-02  0.10211063696E+01  0.10208512624E+01 0.  0.
     999903    2    3    3    0    0  0.38778260403E-01 -0.10456411287E+00  0.62107863411E-01  0.12909826225E+00  0.19276084644E-01 0.  0.
         14    1    1    2    0    0 -0.81125552325E-02 -0.20096023851E-01  0.71592163935E-02  0.22823630438E-01  0.00000000000E+00 0.  1.
     999901    1    3    3    0    0 -0.30665705171E-01  0.12466013672E+00 -0.69267079805E-01  0.89200810731E+00  0.88000000000E+00 0. -1.
        -11    1    4    4    0    0  0.22136184339E-01 -0.68788368487E-01  0.30074648992E-01  0.78272574566E-01  0.51100000000E-03 0. -1.
         11    1    4    4    0    0  0.16642076064E-01 -0.35775744382E-01  0.32033214419E-01  0.50825687687E-01  0.51100000000E-03 0.  1.
</event>
<event>
 8    1  0.1128641E+005  0.1043930E+01  0.7957747E-01            NaN
         13   -1    0    0    0    0  0.00000000000E+00  0.00000000000E+00  0.74505805969E-08  0.10566000000E+00  0.10566000000E+00 0. -1.
     999900   -1    0    0    0    0 -0.00000000000E+00 -0.00000000000E+00 -0.74505805969E-08  0.93827000000E+00  0.93827000000E+00 0. -1.
     999902    2    1    2    0    0 -0.12291860123E-02  0.13011295885E-01  0.20105370473E-01  0.10199502035E+01  0.10196682730E+01 0.  0.
     999903    2    3    3    0    0 -0.68705561826E-01 -0.84124891845E-01 -0.64753456838E-01  0.12799195288E+00  0.19785807426E-01 0.  0.
         14    1    1    2    0    0  0.12291860123E-02 -0.13011295885E-01 -0.20105370473E-01  0.23979796511E-01  0.00000000000E+00 0.  1.
     999901    1    3    3    0    0  0.67476375814E-01  0.97136187729E-01  0.84858827311E-01  0.89195825061E+00  0.88000000000E+00 0. -1.
        -11    1    4    4    0    0 -0.33420902334E-01 -0.39054101141E-01 -0.19336832377E-01  0.54921341354E-01  0.51100000000E-03 0. -1.
         11    1    4    4    0    0 -0.35284659492E-01 -0.45070790704E-01 -0.45416624462E-01  0.73070611525E-01  0.51100000000E-03 0.  1.
</event>
<event>
 7    1  0.1128641E+005  0.1043930E+01  0.7957747E-01            NaN
         13   -1    0    0    0    0  0.00000000000E+00  0.00000000000E+00  0.74505805969E-08  0.10566000000E+00  0.10566000000E+00 0.  1.
     999900   -1    0    0    0    0 -0.00000000000E+00 -0.00000000000E+00 -0.74505805969E-08  0.93827000000E+00  0.93827000000E+00 0. -1.
     999903    2    1    2    0    0  0.96854005461E-01  0.28053013386E-01 -0.10789622118E+00  0.14834200278E+00  0.14003046485E-01 0.  0.
         14    1    1    2    0    0  0.10227140886E-03 -0.32875502250E-02 -0.42750510983E-03  0.33168066784E-02  0.00000000000E+00 0. -1.
     999901    1    1    2    0    0 -0.96956276870E-01 -0.24765463161E-01  0.10832372629E+00  0.89227119054E+00  0.88000000000E+00 0.  1.
        -11    1    3    3    0    0  0.46899234767E-01  0.15902770767E-01 -0.62597356636E-01  0.79819336746E-01  0.51100000000E-03 0. -1.
         11    1    3    3    0    0  0.49954770694E-01  0.12150242620E-01 -0.45298864543E-01  0.68522666036E-01  0.51100000000E-03 0.  1.
</event>
<event>
 8    1  0.1128641E+005  0.1043930E+01  0.7957747E-01            NaN
         13   -1    0    0    0    0  0.00000000000E+00  0.00000000000E+00  0.74505805969E-08  0.10566000000E+00  0.10566000000E+00 0. -1.
     999900   -1    0    0    0    0 -0.00000000000E+00 -0.00000000000E+00 -0.74505805969E-08  0.93827000000E+00  0.93827000000E+00 0. -1.
     999902    2    1    2    0    0 -0.30057975999E-01 -0.67537847091E-02  0.10551424730E-01  0.10113657851E+01  0.10108413937E+01 0.  0.
     999903    2    3    3    0    0 -0.43080960054E-01  0.11039861938E+00 -0.24200654464E-01  0.12282653952E+00  0.21374350412E-01 0.  0.
         14    1    1    2    0    0  0.30057975999E-01  0.67537847091E-02 -0.10551424730E-01  0.32564214913E-01  0.00000000000E+00 0. -1.
     999901    1    3    3    0    0  0.13022984055E-01 -0.11715240409E+00  0.34752079194E-01  0.88853924556E+00  0.88000000000E+00 0.  1.
        -11    1    4    4    0    0 -0.86311901338E-02  0.90273640519E-02  0.18510434400E-02  0.12636385071E-01  0.51100000000E-03 0.  1.
         11    1    4    4    0    0 -0.34449769920E-01  0.10137125532E+00 -0.26051697904E-01  0.11019015445E+00  0.51100000000E-03 0. -1.
</event>
<event>
 8    1  0.1128641E+005  0.1043930E+01  0.7957747E-01            NaN
         13   -1    0    0    0    0  0.00000000000E+00  0.00000000000E+00  0.74505805969E-08  0.10566000000E+00  0.10566000000E+00 0.  1.
     999900   -1    0    0    0    0 -0.00000000000E+00 -0.00000000000E+00 -0.74505805969E-08  0.93827000000E+00  0.93827000000E+00 0.  1.
     999902    2    1    2    0    0  0.19434181640E-01 -0.12263803412E-01  0.46484515971E-02  0.10204843950E+01  0.10202150284E+01 0.  0.
     999903    2    3    3    0    0 -0.50016151283E-01  0.19399630403E-01  0.11681522303E+00  0.13008712055E+00  0.19972519936E-01 0.  0.
         14    1    1    2    0    0 -0.19434181640E-01  0.12263803412E-01 -0.46484515971E-02  0.23445604970E-01  0.00000000000E+00 0.  1.
     999901    1    3    3    0    0  0.69450332922E-01 -0.31663433815E-01 -0.11216677144E+00  0.89039727448E+00  0.88000000000E+00 0.  1.
        -11    1    4    4    0    0 -0.47642233175E-01  0.19441460715E-01  0.94175178131E-01  0.10731718443E+00  0.51100000000E-03 0. -1.
         11    1    4    4    0    0 -0.23739181081E-02 -0.41830312078E-04  0.22640044901E-01  0.22769936124E-01  0.51100000000E-03 0.  1.
</event>
<event>
 8    1  0.1128641E+005  0.1043930E+01  0.7957747E-01            NaN
         13   -1    0    0    0    0  0.00000000000E+00  0.00000000000E+00  0.74505805969E-08  0.10566000000E+00  0.10566000000E+00 0. -1.
     999900   -1    0    0    0    0 -0.00000000000E+00 -0.00000000000E+00 -0.74505805969E-08  0.93827000000E+00  0.93827000000E+00 0.  1.
     999902    2    1    2    0    0 -0.85458107766E-02  0.21200486430E-01 -0.28282325915E-02  0.10208976227E+01  0.10206377739E+01 0.  0.
     999903    2    3    3    0    0 -0.51539445568E-01 -0.87415518824E-01 -0.78738507693E-01  0.12993844340E+00  0.19658562983E-01 0.  0.
         14    1    1    2    0    0  0.85458107766E-02 -0.21200486430E-01  0.28282325915E-02  0.23032377348E-01  0.00000000000E+00 0. -1.
     999901    1    3    3    0    0  0.42993634791E-01  0.10861600525E+00  0.75910275101E-01  0.89095917925E+00  0.88000000000E+00 0. -1.
        -11    1    4    4    0    0 -0.43602496140E-01 -0.75306120696E-01 -0.75233600341E-01  0.11503280065E+00  0.51100000000E-03 0.  1.
         11    1    4    4    0    0 -0.79369494273E-02 -0.12109398128E-01 -0.35049073519E-02  0.14905642750E-01  0.51100000000E-03 0. -1.
</event>
<event>
 8    1  0.1128641E+005  0.1043930E+01  0.7957747E-01            NaN
         13   -1    0    0    0    0  0.00000000000E+00  0.00000000000E+00  0.74505805969E-08  0.10566000000E+00  0.10566000000E+00 0.  1.
     999900   -1    0    0    0    0 -0.00000000000E+00 -0.00000000000E+00 -0.74505805969E-08  0.93827000000E+00  0.93827000000E+00 0. -1.
     999902    2    1    2    0    0  0.19109434885E-02 -0.20735756308E-01  0.93960588081E-02  0.10210846675E+01  0.10208290695E+01 0.  0.
     999903    2    3    3    0    0 -0.85406765151E-01  0.73487321807E-01 -0.59676811417E-01  0.12907938050E+00  0.20136103102E-01 0.  0.
         14    1    1    2    0    0 -0.19109434885E-02  0.20735756308E-01 -0.93960588081E-02  0.22845332473E-01  0.00000000000E+00 0.  1.
     999901    1    3    3    0    0  0.87317708639E-01 -0.94223078115E-01  0.69072870225E-01  0.89200528703E+00  0.88000000000E+00 0.  1.
        -11    1    4    4    0    0 -0.53634622772E-01  0.48072761524E-01 -0.48664210095E-01  0.86926000860E-01  0.51100000000E-03 0.  1.
         11    1    4    4    0    0 -0.31772142379E-01  0.25414560283E-01 -0.11012601322E-01  0.42153379635E-01  0.51100000000E-03 0. -1.
</event>
<event>
 8    1  0.1128641E+005  0.1043930E+01  0.7957747E-01            NaN
         13   -1    0    0    0    0  0.00000000000E+00  0.00000000000E+00  0.74505805969E-08  0.10566000000E+00  0.10566000000E+00 0.  1.
     999900   -1    0    0    0    0 -0.00000000000E+00 -0.00000000000E+00 -0.74505805969E-08  0.93827000000E+00  0.93827000000E+00 0.  1.
     999902    2    1    2    0    0 -0.22027450690E-01 -0.64101619909E-02 -0.53038860206E-02  0.10203836634E+01  0.10201119500E+01 0.  0.
     999903    2    3    3    0    0  0.16935460209E-01  0.94012355085E-01  0.85016820991E-01  0.12922676336E+00  0.18616224006E-01 0.  0.
         14    1    1    2    0    0  0.22027450690E-01  0.64101619909E-02  0.53038860206E-02  0.23546336606E-01  0.00000000000E+00 0. -1.
     999901    1    3    3    0    0 -0.38962910899E-01 -0.10042251708E+00 -0.90320707011E-01  0.89115690003E+00  0.88000000000E+00 0.  1.
        -11    1    4    4    0    0  0.18147308558E-01  0.78053371921E-01  0.62656065653E-01  0.10172363226E+00  0.51100000000E-03 0. -1.
         11    1    4    4    0    0 -0.12118483496E-02  0.15958983164E-01  0.22360755337E-01  0.27503131100E-01  0.51100000000E-03 0.  1.
</event>
<event>
 8    1  0.1128641E+005  0.1043930E+01  0.7957747E-01            NaN
         13   -1    0    0    0    0  0.00000000000E+00  0.00000000000E+00  0.74505805969E-08  0.10566000000E+00  0.10566000000E+00 0. -1.
     999900   -1    0    0    0    0 -0.00000000000E+00 -0.00000000000E+00 -0.74505805969E-08  0.93827000000E+00  0.93827000000E+00 0. -1.
     999902    2    1    2    0    0 -0.18723129026E-01 -0.13672164881E-01 -0.46793426666E-02  0.10202787865E+01  0.10200046187E+01 0.  0.
     999903    2    3    3    0    0  0.42664489411E-01  0.98463257405E-01  0.67249183237E-01  0.12813725877E+00  0.19530302705E-01 0.  0.
         14    1    1    2    0    0  0.18723129026E-01  0.13672164881E-01  0.46793426666E-02  0.23651213518E-01  0.00000000000E+00 0. -1.
     999901    1    3    3    0    0 -0.61387618437E-01 -0.11213542229E+00 -0.71928525904E-01  0.89214152771E+00  0.88000000000E+00 0. -1.
        -11    1    4    4    0    0  0.27478331308E-01  0.56056560136E-01  0.28131584045E-01  0.68476592845E-01  0.51100000000E-03 0. -1.
         11    1    4    4    0    0  0.15186158103E-01  0.42406697269E-01  0.39117599192E-01  0.59660665926E-01  0.51100000000E-03 0.  1.
</event>
<event>
 8    1  0.1128641E+005  0.1043930E+01  0.7957747E-01            NaN
         13   -1    0    0    0    0  0.00000000000E+00  0.00000000000E+00  0.74505805969E-08  0.10566000000E+00  0.10566000000E+00 0. -1.
     999900   -1    0    0    0    0 -0.00000000000E+00 -0.00000000000E+00 -0.74505805969E-08  0.93827000000E+00  0.93827000000E+00 0.  1.
     999902    2    1    2    0    0  0.13889665896E-01 -0.19523850654E-01 -0.70709517776E-02  0.10189479680E+01  0.10186416738E+01 0.  0.
     999903    2    3    3    0    0  0.57155585197E-01  0.50715195003E-01  0.10127072490E+00  0.12847428384E+00  0.20275353559E-01 0.  0.
         14    1    1    2    0    0 -0.13889665896E-01  0.19523850654E-01  0.70709517776E-02  0.24982031985E-01  0.00000000000E+00 0. -1.
     999901    1    3    3    0    0 -0.43265919301E-01 -0.70239045657E-01 -0.10834167668E+00  0.89047368418E+00  0.88000000000E+00 0.  1.
        -11    1    4    4    0    0  0.27840783007E-01  0.26241314071E-01  0.67026294771E-01  0.77178371804E-01  0.51100000000E-03 0.  1.
         11    1    4    4    0    0  0.29314802190E-01  0.24473880932E-01  0.34244430130E-01  0.51295912032E-01  0.51100000000E-03 0. -1.
</event>
<event>
 8    1  0.1128641E+005  0.1043930E+01  0.7957747E-01            NaN
         13   -1    0    0    0    0  0.00000000000E+00  0.00000000000E+00  0.74505805969E-08  0.10566000000E+00  0.10566000000E+00 0. -1.
     999900   -1    0    0    0    0 -0.00000000000E+00 -0.00000000000E+00 -0.74505805969E-08  0.93827000000E+00  0.93827000000E+00 0. -1.
     999902    2    1    2    0    0  0.75626035779E-02 -0.20915564479E-01  0.53939204663E-02  0.10210444546E+01  0.10207879457E+01 0.  0.
     999903    2    3    3    0    0  0.73984616475E-02 -0.13202533294E+00 -0.56709121255E-02  0.13398874152E+00  0.20866188796E-01 0.  0.
         14    1    1    2    0    0 -0.75626035779E-02  0.20915564479E-01 -0.53939204663E-02  0.22885545402E-01  0.00000000000E+00 0. -1.
     999901    1    3    3    0    0  0.16414193048E-03  0.11110976846E+00  0.11064832592E-01  0.88705571308E+00  0.88000000000E+00 0. -1.
        -11    1    4    4    0    0  0.30632061766E-02 -0.57934778129E-01  0.78549592436E-02  0.58547273674E-01  0.51100000000E-03 0. -1.
         11    1    4    4    0    0  0.43352554709E-02 -0.74090554815E-01 -0.13525871369E-01  0.75441467842E-01  0.51100000000E-03 0.  1.
</event>
<event>
 8    1  0.1154204E+005  0.1043930E+01  0.7957747E-01            NaN
         13   -1    0    0    0    0  0.00000000000E+00  0.00000000000E+00  0.74505805969E-08  0.10566000000E+00  0.10566000000E+00 0. -1.
     999900   -1    0    0    0    0 -0.00000000000E+00 -0.00000000000E+00 -0.74505805969E-08  0.93827000000E+00  0.93827000000E+00 0. -1.
     999902    2    1    2    0    0 -0.21018705535E-01  0.88352458451E-03 -0.13030192690E-01  0.10191842424E+01  0.10188837850E+01 0.  0.
     999903    2    3    3    0    0  0.10688543086E+00  0.48227615947E-01 -0.47221885467E-01  0.12802207816E+00  0.20232344386E-01 0.  0.
         14    1    1    2    0    0  0.21018705535E-01 -0.88352458451E-03  0.13030192690E-01  0.24745757608E-01  0.00000000000E+00 0. -1.
     999901    1    3    3    0    0 -0.12790413640E+00 -0.47344091363E-01  0.34191692777E-01  0.89116216423E+00  0.88000000000E+00 0. -1.
        -11    1    4    4    0    0  0.85046080486E-01  0.28895175895E-01 -0.35900863640E-01  0.96731071156E-01  0.51100000000E-03 0. -1.
         11    1    4    4    0    0  0.21839350379E-01  0.19332440053E-01 -0.11321021828E-01  0.31291007008E-01  0.51100000000E-03 0.  1.
</event>
<event>
 8    1  0.1128641E+005  0.1043930E+01  0.7957747E-01            NaN
         13   -1    0    0    0    0  0.00000000000E+00  0.00000000000E+00  0.74505805969E-08  0.10566000000E+00  0.10566000000E+00 0.  1.
     999900   -1    0    0    0    0 -0.00000000000E+00 -0.00000000000E+00 -0.74505805969E-08  0.93827000000E+00  0.93827000000E+00 0.  1.
     999902    2    1    2    0    0  0.67144583168E-02  0.17884723586E-01  0.14305182220E-01  0.10200640090E+01  0.10197847797E+01 0.  0.
     999903    2    3    3    0    0  0.55040344013E-02  0.24702998058E-01  0.12865729482E+00  0.13263831653E+00  0.19992273372E-01 0.  0.
         14    1    1    2    0    0 -0.67144583168E-02 -0.17884723586E-01 -0.14305182220E-01  0.23865991003E-01  0.00000000000E+00 0.  1.
     999901    1    3    3    0    0  0.12104239155E-02 -0.68182744726E-02 -0.11435211260E+00  0.88742569247E+00  0.88000000000E+00 0.  1.
        -11    1    4    4    0    0  0.12746699451E-01  0.11456983834E-01  0.68794602012E-01  0.70899218702E-01  0.51100000000E-03 0. -1.
         11    1    4    4    0    0 -0.72426650499E-02  0.13246014224E-01  0.59862692805E-01  0.61739097829E-01  0.51100000000E-03 0.  1.
</event>
<event>
 8    1  0.1128641E+005  0.1043930E+01  0.7957747E-01            NaN
         13   -1    0    0    0    0  0.00000000000E+00  0.00000000000E+00  0.74505805969E-08  0.10566000000E+00  0.10566000000E+00 0.  1.
     999900   -1    0    0    0    0 -0.00000000000E+00 -0.00000000000E+00 -0.74505805969E-08  0.93827000000E+00  0.93827000000E+00 0.  1.
     999902    2    1    2    0    0 -0.10810592155E-01  0.21262863895E-01  0.18528047612E-02  0.10200048841E+01  0.10197242532E+01 0.  0.
     999903    2    3    3    0    0 -0.89852344140E-01 -0.80594504040E-01  0.43359799857E-01  0.12964240031E+00  0.18925165397E-01 0.  0.
         14    1    1    2    0    0  0.10810592155E-01 -0.21262863895E-01 -0.18528047612E-02  0.23925115866E-01  0.00000000000E+00 0. -1.
     999901    1    3    3    0    0  0.79041751986E-01  0.10185736793E+00 -0.41506995096E-01  0.89036248382E+00  0.88000000000E+00 0.  1.
        -11    1    4    4    0    0 -0.32416913094E-01 -0.29066222866E-01  0.25423574112E-01  0.50421432029E-01  0.51100000000E-03 0. -1.
         11    1    4    4    0    0 -0.57435431046E-01 -0.51528281174E-01  0.17936225745E-01  0.79220968280E-01  0.51100000000E-03 0.  1.
</event>
<event>
 8    1  0.1128641E+005  0.1043930E+01  0.7957747E-01            NaN
         13   -1    0    0    0    0  0.00000000000E+00  0.00000000000E+00  0.74505805969E-08  0.10566000000E+00  0.10566000000E+00 0. -1.
     999900   -1    0    0    0    0 -0.00000000000E+00 -0.00000000000E+00 -0.74505805969E-08  0.93827000000E+00  0.93827000000E+00 0. -1.
     999902    2    1    2    0    0  0.96581915409E-02 -0.19398304041E-01  0.92770121412E-02  0.10203580290E+01  0.10200857167E+01 0.  0.
     999903    2    3    3    0    0 -0.50698590066E-01  0.11571693303E+00  0.72790428263E-02  0.12799988325E+00  0.19241362266E-01 0.  0.
         14    1    1    2    0    0 -0.96581915409E-02  0.19398304041E-01 -0.92770121412E-02  0.23571971021E-01  0.00000000000E+00 0. -1.
     999901    1    3    3    0    0  0.60356781606E-01 -0.13511523707E+00  0.19979693149E-02  0.89235814573E+00  0.88000000000E+00 0.  1.
        -11    1    4    4    0    0 -0.15984799878E-01  0.19329680382E-01  0.46609869989E-02  0.25517372349E-01  0.51100000000E-03 0. -1.
         11    1    4    4    0    0 -0.34713790187E-01  0.96387252649E-01  0.26180558274E-02  0.10248251090E+00  0.51100000000E-03 0.  1.
</event>
<event>
 8    1  0.1128641E+005  0.1043930E+01  0.7957747E-01            NaN
         13   -1    0    0    0    0  0.00000000000E+00  0.00000000000E+00  0.74505805969E-08  0.10566000000E+00  0.10566000000E+00 0.  1.
     999900   -1    0    0    0    0 -0.00000000000E+00 -0.00000000000E+00 -0.74505805969E-08  0.93827000000E+00  0.93827000000E+00 0. -1.
     999902    2    1    2    0    0  0.18413600346E-01 -0.14931442962E-01 -0.23979268265E-02  0.10201023119E+01  0.10198239888E+01 0.  0.
     999903    2    3    3    0    0 -0.45608516713E-01 -0.12081153227E+00  0.13391404524E-01  0.13130608793E+00  0.19656955129E-01 0.  0.
         14    1    1    2    0    0 -0.18413600346E-01  0.14931442962E-01  0.23979268265E-02  0.23827688090E-01  0.00000000000E+00 0.  1.
     999901    1    3    3    0    0  0.64022117059E-01  0.10588008931E+00 -0.15789331351E-01  0.88879622398E+00  0.88000000000E+00 0.  1.
        -11    1    4    4    0    0 -0.18465004226E-01 -0.49823250604E-01 -0.41715401372E-02  0.53300802526E-01  0.51100000000E-03 0.  1.
         11    1    4    4    0    0 -0.27143512487E-01 -0.70988281667E-01  0.17562944661E-01  0.78005285400E-01  0.51100000000E-03 0. -1.
</event>
<event>
 8    1  0.1128641E+005  0.1043930E+01  0.7957747E-01            NaN
         13   -1    0    0    0    0  0.00000000000E+00  0.00000000000E+00  0.74505805969E-08  0.10566000000E+00  0.10566000000E+00 0.  1.
     999900   -1    0    0    0    0 -0.00000000000E+00 -0.00000000000E+00 -0.74505805969E-08  0.93827000000E+00  0.93827000000E+00 0.  1.
     999902    2    1    2    0    0  0.44149310339E-02 -0.22894246857E-01 -0.56665891255E-02  0.10199352425E+01  0.10196529559E+01 0.  0.
     999903    2    3    3    0    0  0.27794466996E-01 -0.27146751447E-01 -0.12417783931E+00  0.13167311738E+00  0.20203850021E-01 0.  0.
         14    1    1    2    0    0 -0.44149310339E-02  0.22894246857E-01  0.56665891255E-02  0.23994757501E-01  0.00000000000E+00 0.  1.
     999901    1    3    3    0    0 -0.23379535962E-01  0.42525045892E-02  0.11851125018E+00  0.88826212512E+00  0.88000000000E+00 0. -1.
        -11    1    4    4    0    0  0.80339846934E-02 -0.13671179801E-01 -0.78736505293E-01  0.80319016764E-01  0.51100000000E-03 0. -1.
         11    1    4    4    0    0  0.19760482303E-01 -0.13475571645E-01 -0.45441334017E-01  0.51354100618E-01  0.51100000000E-03 0.  1.
</event>
<event>
 8    1  0.1128641E+005  0.1043930E+01  0.7957747E-01            NaN
         13   -1    0    0    0    0  0.00000000000E+00  0.00000000000E+00  0.74505805969E-08  0.10566000000E+00  0.10566000000E+00 0.  1.
     999900   -1    0    0    0    0 -0.00000000000E+00 -0.00000000000E+00 -0.74505805969E-08  0.93827000000E+00  0.93827000000E+00 0.  1.
     999902    2    1    2    0    0  0.24906036626E-01 -0.15376787810E-02 -0.10045857244E-01  0.10170302906E+01  0.10166744895E+01 0.  0.
     999903    2    3    3    0    0  0.86142372226E-01 -0.76045312327E-01 -0.58634246053E-01  0.13042885380E+00  0.19243525529E-01 0.  0.
         14    1    1    2    0    0 -0.24906036626E-01  0.15376787810E-02  0.10045857244E-01  0.26899709370E-01  0.00000000000E+00 0.  1.
     999901    1    3    3    0    0 -0.61236335600E-01  0.74507633546E-01  0.48588388809E-01  0.88660143683E+00  0.88000000000E+00 0. -1.
        -11    1    4    4    0    0  0.81247510794E-01 -0.70413890845E-01 -0.59531336685E-01  0.12289635960E+00  0.51100000000E-03 0.  1.
         11    1    4    4    0    0  0.48948614318E-02 -0.56314214815E-02  0.89709063245E-03  0.75324942046E-02  0.51100000000E-03 0. -1.
</event>
<event>
 8    1  0.1128641E+005  0.1043930E+01  0.7957747E-01            NaN
         13   -1    0    0    0    0  0.00000000000E+00  0.00000000000E+00  0.74505805969E-08  0.10566000000E+00  0.10566000000E+00 0. -1.
     999900   -1    0    0    0    0 -0.00000000000E+00 -0.00000000000E+00 -0.74505805969E-08  0.93827000000E+00  0.93827000000E+00 0. -1.
     999902    2    1    2    0    0  0.17358816188E-01  0.14230447495E-01  0.85260470277E-02  0.10199190106E+01  0.10196363374E+01 0.  0.
     999903    2    3    3    0    0 -0.43124823880E-01 -0.29984886222E-02 -0.11930319882E+00  0.12846210020E+00  0.20012910078E-01 0.  0.
         14    1    1    2    0    0 -0.17358816188E-01 -0.14230447495E-01 -0.85260470277E-02  0.24010989427E-01  0.00000000000E+00 0.  1.
     999901    1    3    3    0    0  0.60483640067E-01  0.17228936117E-01  0.12782924585E+00  0.89145691037E+00  0.88000000000E+00 0.  1.
        -11    1    4    4    0    0 -0.36187904541E-01  0.42102200882E-02 -0.80069475999E-01  0.87969724883E-01  0.51100000000E-03 0.  1.
         11    1    4    4    0    0 -0.69369193388E-02 -0.72087087104E-02 -0.39233722825E-01  0.40492375318E-01  0.51100000000E-03 0. -1.
</event>
<event>
 8    1  0.1128641E+005  0.1043930E+01  0.7957747E-01            NaN
         13   -1    0    0    0    0  0.00000000000E+00  0.00000000000E+00  0.74505805969E-08  0.10566000000E+00  0.10566000000E+00 0.  1.
     999900   -1    0    0    0    0 -0.00000000000E+00 -0.00000000000E+00 -0.74505805969E-08  0.93827000000E+00  0.93827000000E+00 0. -1.
     999902    2    1    2    0    0  0.10214574769E-02 -0.17543936111E-01  0.16399911505E-01  0.10198927338E+01  0.10196094342E+01 0.  0.
     999903    2    3    3    0    0  0.54906358646E-01  0.98301576651E-01 -0.56882170897E-01  0.12765171870E+00  0.19531301272E-01 0.  0.
         14    1    1    2    0    0 -0.10214574769E-02  0.17543936111E-01 -0.16399911505E-01  0.24037266213E-01  0.00000000000E+00 0. -1.
     999901    1    3    3    0    0 -0.53884901169E-01 -0.11584551276E+00  0.73282082402E-01  0.89224101509E+00  0.88000000000E+00 0.  1.
        -11    1    4    4    0    0  0.27419372287E-01  0.33134168157E-01 -0.27574041451E-01  0.51090938130E-01  0.51100000000E-03 0. -1.
         11    1    4    4    0    0  0.27486986360E-01  0.65167408494E-01 -0.29308129446E-01  0.76560780571E-01  0.51100000000E-03 0.  1.
</event>
<event>
 8    1  0.1128641E+005  0.1043930E+01  0.7957747E-01            NaN
         13   -1    0    0    0    0  0.00000000000E+00  0.00000000000E+00  0.74505805969E-08  0.10566000000E+00  0.10566000000E+00 0. -1.
     999900   -1    0    0    0    0 -0.00000000000E+00 -0.00000000000E+00 -0.74505805969E-08  0.93827000000E+00  0.93827000000E+00 0. -1.
     999902    2    1    2    0    0  0.15129910877E-01  0.81881372193E-02  0.15656513087E-01  0.10206687404E+01  0.10204036415E+01 0.  0.
     999903    2    3    3    0    0 -0.14563591657E-01  0.86097737604E-01 -0.94099003716E-01  0.12993989091E+00  0.20120490192E-01 0.  0.
         14    1    1    2    0    0 -0.15129910877E-01 -0.81881372193E-02 -0.15656513087E-01  0.23261259560E-01  0.00000000000E+00 0. -1.
     999901    1    3    3    0    0  0.29693502534E-01 -0.77909600385E-01  0.10975551680E+00  0.89072884953E+00  0.88000000000E+00 0.  1.
        -11    1    4    4    0    0 -0.62640669027E-02  0.52795449313E-01 -0.42988096311E-01  0.68372769052E-01  0.51100000000E-03 0. -1.
         11    1    4    4    0    0 -0.82995247547E-02  0.33302288292E-01 -0.51110907405E-01  0.61567121854E-01  0.51100000000E-03 0.  1.
</event>
<event>
 8    1  0.1128641E+005  0.1043930E+01  0.7957747E-01            NaN
         13   -1    0    0    0    0  0.00000000000E+00  0.00000000000E+00  0.74505805969E-08  0.10566000000E+00  0.10566000000E+00 0.  1.
     999900   -1    0    0    0    0 -0.00000000000E+00 -0.00000000000E+00 -0.74505805969E-08  0.93827000000E+00  0.93827000000E+00 0.  1.
     999902    2    1    2    0    0 -0.17181032438E-01  0.17685201165E-02 -0.13346053192E-01  0.10221026622E+01  0.10218695707E+01 0.  0.
     999903    2    3    3    0    0 -0.10422875800E+00  0.59926017826E-01  0.52205657879E-01  0.13347640338E+00  0.25214240792E-01 0.  0.
         14    1    1    2    0    0  0.17181032438E-01 -0.17685201165E-02  0.13346053192E-01  0.21827337787E-01  0.00000000000E+00 0.  1.
     999901    1    3    3    0    0  0.87047725557E-01 -0.58157497710E-01 -0.65551711071E-01  0.88862625883E+00  0.88000000000E+00 0.  1.
        -11    1    4    4    0    0 -0.97568979320E-01  0.56156123985E-01  0.40820674740E-01  0.11974892314E+00  0.51100000000E-03 0. -1.
         11    1    4    4    0    0 -0.66597786756E-02  0.37698938416E-02  0.11384983139E-01  0.13727480237E-01  0.51100000000E-03 0.  1.
</event>
<event>
 8    1  0.1128641E+005  0.1043930E+01  0.7957747E-01            NaN
         13   -1    0    0    0    0  0.00000000000E+00  0.00000000000E+00  0.74505805969E-08  0.10566000000E+00  0.10566000000E+00 0. -1.
     999900   -1    0    0    0    0 -0.00000000000E+00 -0.00000000000E+00 -0.74505805969E-08  0.93827000000E+00  0.93827000000E+00 0.  1.
     999902    2    1    2    0    0 -0.17265380947E-01 -0.79415102925E-02  0.14617603211E-01  0.10199542771E+01  0.10196724435E+01 0.  0.
     999903    2    3    3    0    0 -0.93017746037E-01 -0.69436778136E-01 -0.58422050754E-01  0.13155409709E+00  0.20483583963E-01 0.  0.
         14    1    1    2    0    0  0.17265380947E-01  0.79415102925E-02 -0.14617603211E-01  0.23975722901E-01  0.00000000000E+00 0.  1.
     999901    1    3    3    0    0  0.75752365089E-01  0.61495267844E-01  0.73039653965E-01  0.88840018001E+00  0.88000000000E+00 0. -1.
        -11    1    4    4    0    0 -0.75341093131E-01 -0.45407931345E-01 -0.45538919070E-01  0.99056624283E-01  0.51100000000E-03 0.  1.
         11    1    4    4    0    0 -0.17676652905E-01 -0.24028846792E-01 -0.12883131684E-01  0.32497472810E-01  0.51100000000E-03 0. -1.
</event>
<event>
 8    1  0.1128641E+005  0.1043930E+01  0.7957747E-01            NaN
         13   -1    0    0    0    0  0.00000000000E+00  0.00000000000E+00  0.74505805969E-08  0.10566000000E+00  0.10566000000E+00 0.  1.
     999900   -1    0    0    0    0 -0.00000000000E+00 -0.00000000000E+00 -0.74505805969E-08  0.93827000000E+00  0.93827000000E+00 0.  1.
     999902    2    1    2    0    0 -0.12487424678E-01  0.15770817500E-01  0.11739411138E-01  0.10206390525E+01  0.10203732686E+01 0.  0.
     999903    2    3    3    0    0 -0.64617389857E-01  0.11113085915E+00 -0.28025738584E-01  0.13306238659E+00  0.19866599430E-01 0.  0.
         14    1    1    2    0    0  0.12487424678E-01 -0.15770817500E-01 -0.11739411138E-01  0.23290947460E-01  0.00000000000E+00 0.  1.
     999901    1    3    3    0    0  0.52129965179E-01 -0.95360041653E-01  0.39765149722E-01  0.88757666595E+00  0.88000000000E+00 0. -1.
        -11    1    4    4    0    0 -0.37580445336E-01  0.45868162380E-01 -0.97775330646E-02  0.60100245137E-01  0.51100000000E-03 0.  1.
         11    1    4    4    0    0 -0.27036944520E-01  0.65262696773E-01 -0.18248205520E-01  0.72962141449E-01  0.51100000000E-03 0. -1.
</event>
<event>
 8    1  0.1128641E+005  0.1043930E+01  0.7957747E-01            NaN
         13   -1    0    0    0    0  0.00000000000E+00  0.00000000000E+00  0.74505805969E-08  0.10566000000E+00  0.10566000000E+00 0. -1.
     999900   -1    0    0    0    0 -0.00000000000E+00 -0.00000000000E+00 -0.74505805969E-08  0.93827000000E+00  0.93827000000E+00 0.  1.
     999902    2    1    2    0    0  0.18632077925E-01 -0.11389256851E-01  0.49231460975E-02  0.10215445836E+01  0.10212992849E+01 0.  0.
     999903    2    3    3    0    0  0.11024435293E+00  0.27402044504E-01  0.67798079346E-01  0.13370967147E+00  0.19416675404E-01 0.  0.
         14    1    1    2    0    0 -0.18632077925E-01  0.11389256851E-01 -0.49231460975E-02  0.22385416389E-01  0.00000000000E+00 0. -1.
     999901    1    3    3    0    0 -0.91612275008E-01 -0.38791301355E-01 -0.62874933249E-01  0.88783491215E+00  0.88000000000E+00 0.  1.
        -11    1    4    4    0    0  0.31967010821E-01  0.96020896739E-03  0.12783428344E-01  0.34445448804E-01  0.51100000000E-03 0.  1.
         11    1    4    4    0    0  0.78277342112E-01  0.26441835536E-01  0.55014651003E-01  0.99264222662E-01  0.51100000000E-03 0. -1.
</event>
<event>
 8    1  0.1128641E+005  0.1043930E+01  0.7957747E-01            NaN
         13   -1    0    0    0    0  0.00000000000E+00  0.00000000000E+00  0.74505805969E-08  0.10566000000E+00  0.10566000000E+00 0.  1.
     999900   -1    0    0    0    0 -0.00000000000E+00 -0.00000000000E+00 -0.74505805969E-08  0.93827000000E+00  0.93827000000E+00 0. -1.
     999902    2    1    2    0    0 -0.74627319022E-02 -0.39273201660E-02  0.20199495479E-01  0.10220408285E+01  0.10218064001E+01 0.  0.
     999903    2    3    3    0    0 -0.56188343343E-01 -0.11184885007E+00  0.42903273663E-01  0.13381973926E+00  0.19993412310E-01 0.  0.
         14    1    1    2    0    0  0.74627319022E-02  0.39273201660E-02 -0.20199495479E-01  0.21889171495E-01  0.00000000000E+00 0. -1.
     999901    1    3    3    0    0  0.48725611441E-01  0.10792152991E+00 -0.22703778184E-01  0.88822108924E+00  0.88000000000E+00 0.  1.
        -11    1    4    4    0    0 -0.38895385430E-01 -0.94711469181E-01  0.33821305867E-01  0.10782975125E+00  0.51100000000E-03 0. -1.
         11    1    4    4    0    0 -0.17292957913E-01 -0.17137380891E-01  0.90819677961E-02  0.25989988019E-01  0.51100000000E-03 0.  1.
</event>
<event>
 8    1  0.1128641E+005  0.1043930E+01  0.7957747E-01            NaN
         13   -1    0    0    0    0  0.00000000000E+00  0.00000000000E+00  0.74505805969E-08  0.10566000000E+00  0.10566000000E+00 0. -1.
     999900   -1    0    0    0    0 -0.00000000000E+00 -0.00000000000E+00 -0.74505805969E-08  0.93827000000E+00  0.93827000000E+00 0. -1.
     999902    2    1    2    0    0 -0.56693096045E-02  0.22330658250E-01 -0.75467523691E-02  0.10196863856E+01  0.10193981421E+01 0.  0.
     999903    2    3    3    0    0 -0.90120450213E-01  0.70364913903E-01  0.62183343528E-01  0.13159766751E+00  0.19448938983E-01 0.  0.
         14    1    1    2    0    0  0.56693096045E-02 -0.22330658250E-01  0.75467523691E-02  0.24243614429E-01  0.00000000000E+00 0. -1.
     999901    1    3    3    0    0  0.84451140608E-01 -0.48034255653E-01 -0.69730095897E-01  0.88808871806E+00  0.88000000000E+00 0. -1.
        -11    1    4    4    0    0 -0.21895153703E-01  0.15868252334E-01  0.24501910208E-01  0.36493888703E-01  0.51100000000E-03 0. -1.
         11    1    4    4    0    0 -0.68225296510E-01  0.54496661570E-01  0.37681433320E-01  0.95103778811E-01  0.51100000000E-03 0.  1.
</event>
<event>
 8    1  0.1128641E+005  0.1043930E+01  0.7957747E-01            NaN
         13   -1    0    0    0    0  0.00000000000E+00  0.00000000000E+00  0.74505805969E-08  0.10566000000E+00  0.10566000000E+00 0. -1.
     999900   -1    0    0    0    0 -0.00000000000E+00 -0.00000000000E+00 -0.74505805969E-08  0.93827000000E+00  0.93827000000E+00 0. -1.
     999902    2    1    2    0    0  0.19510276787E-01 -0.24294974623E-02 -0.13098841327E-01  0.10203051613E+01  0.10200316119E+01 0.  0.
     999903    2    3    3    0    0 -0.55515999297E-01  0.73149991019E-01 -0.90556741587E-01  0.13050691032E+00  0.19964539319E-01 0.  0.
         14    1    1    2    0    0 -0.19510276787E-01  0.24294974623E-02  0.13098841327E-01  0.23624838674E-01  0.00000000000E+00 0.  1.
     999901    1    3    3    0    0  0.75026276084E-01 -0.75579488482E-01  0.77457900260E-01  0.88979825101E+00  0.88000000000E+00 0.  1.
        -11    1    4    4    0    0 -0.25730937926E-01  0.24112209435E-01 -0.45419008451E-01  0.57503280429E-01  0.51100000000E-03 0. -1.
         11    1    4    4    0    0 -0.29785061371E-01  0.49037781584E-01 -0.45137733136E-01  0.73003629890E-01  0.51100000000E-03 0.  1.
</event>
<event>
 8    1  0.1128641E+005  0.1043930E+01  0.7957747E-01            NaN
         13   -1    0    0    0    0  0.00000000000E+00  0.00000000000E+00  0.74505805969E-08  0.10566000000E+00  0.10566000000E+00 0.  1.
     999900   -1    0    0    0    0 -0.00000000000E+00 -0.00000000000E+00 -0.74505805969E-08  0.93827000000E+00  0.93827000000E+00 0. -1.
     999902    2    1    2    0    0 -0.32231780170E-02 -0.15089823151E-01 -0.17735294531E-01  0.10204218671E+01  0.10201510450E+01 0.  0.
     999903    2    3    3    0    0  0.71831612623E-01 -0.21712801242E-01  0.10295249598E+00  0.12899456879E+00  0.20227605861E-01 0.  0.
         14    1    1    2    0    0  0.32231780170E-02  0.15089823151E-01  0.17735294531E-01  0.23508132877E-01  0.00000000000E+00 0.  1.
     999901    1    3    3    0    0 -0.75054790640E-01  0.66229780908E-02 -0.12068779051E+00  0.89142729833E+00  0.88000000000E+00 0. -1.
        -11    1    4    4    0    0  0.67790189252E-02 -0.35446007694E-02  0.23461985510E-01  0.24682892401E-01  0.51100000000E-03 0.  1.
         11    1    4    4    0    0  0.65052593698E-01 -0.18168200472E-01  0.79490510470E-01  0.10431167639E+00  0.51100000000E-03 0. -1.
</event>
<event>
 8    1  0.1128641E+005  0.1043930E+01  0.7957747E-01            NaN
         13   -1    0    0    0    0  0.00000000000E+00  0.00000000000E+00  0.74505805969E-08  0.10566000000E+00  0.10566000000E+00 0. -1.
     999900   -1    0    0    0    0 -0.00000000000E+00 -0.00000000000E+00 -0.74505805969E-08  0.93827000000E+00  0.93827000000E+00 0. -1.
     999902    2    1    2    0    0 -0.71841559461E-02 -0.93444035622E-02  0.20411819442E-01  0.10203594178E+01  0.10200871380E+01 0.  0.
     999903    2    3    3    0    0 -0.68952332480E-01  0.96285480717E-02 -0.10652342522E+00  0.12890676233E+00  0.20556754625E-01 0.  0.
         14    1    1    2    0    0  0.71841559461E-02  0.93444035622E-02 -0.20411819442E-01  0.23570582248E-01  0.00000000000E+00 0.  1.
     999901    1    3    3    0    0  0.61768176534E-01 -0.18972951634E-01  0.12693524466E+00  0.89145265542E+00  0.88000000000E+00 0.  1.
        -11    1    4    4    0    0 -0.51185961950E-01  0.10319830479E-02 -0.88131871156E-01  0.10192426367E+00  0.51100000000E-03 0.  1.
         11    1    4    4    0    0 -0.17766370530E-01  0.85965650238E-02 -0.18391554063E-01  0.26982498659E-01  0.51100000000E-03 0. -1.
</event>
<event>
 8    1  0.1128641E+005  0.1043930E+01  0.7957747E-01            NaN
         13   -1    0    0    0    0  0.00000000000E+00  0.00000000000E+00  0.74505805969E-08  0.10566000000E+00  0.10566000000E+00 0.  1.
     999900   -1    0    0    0    0 -0.00000000000E+00 -0.00000000000E+00 -0.74505805969E-08  0.93827000000E+00  0.93827000000E+00 0.  1.
     999902    2    1    2    0    0 -0.63154867590E-02  0.68821064728E-02 -0.21565957122E-01  0.10204281007E+01  0.10201574239E+01 0.  0.
     999903    2    3    3    0    0  0.33324222459E-01  0.12140857316E+00 -0.34316219176E-01  0.13203056173E+00  0.20097783305E-01 0.  0.
         14    1    1    2    0    0  0.63154867590E-02 -0.68821064728E-02  0.21565957122E-01  0.23501899265E-01  0.00000000000E+00 0.  1.
     999901    1    3    3    0    0 -0.39639709218E-01 -0.11452646669E+00  0.12750262055E-01  0.88839753900E+00  0.88000000000E+00 0.  1.
        -11    1    4    4    0    0  0.10409786066E-01  0.33842554405E-01 -0.19134927184E-01  0.40250325390E-01  0.51100000000E-03 0. -1.
         11    1    4    4    0    0  0.22914436393E-01  0.87566018756E-01 -0.15181291992E-01  0.91780236345E-01  0.51100000000E-03 0.  1.
</event>
<event>
 8    1  0.1128641E+005  0.1043930E+01  0.7957747E-01            NaN
         13   -1    0    0    0    0  0.00000000000E+00  0.00000000000E+00  0.74505805969E-08  0.10566000000E+00  0.10566000000E+00 0. -1.
     999900   -1    0    0    0    0 -0.00000000000E+00 -0.00000000000E+00 -0.74505805969E-08  0.93827000000E+00  0.93827000000E+00 0. -1.
     999902    2    1    2    0    0 -0.15011953311E-01 -0.87642532974E-02 -0.18461940956E-01  0.10185722765E+01  0.10182565827E+01 0.  0.
     999903    2    3    3    0    0 -0.12755989542E+00 -0.21391355150E-01 -0.11374404251E-01  0.13128612413E+00  0.19430705694E-01 0.  0.
         14    1    1    2    0    0  0.15011953311E-01  0.87642532974E-02  0.18461940956E-01  0.25357723517E-01  0.00000000000E+00 0. -1.
     999901    1    3    3    0    0  0.11254794211E+00  0.12627101853E-01 -0.70875367050E-02  0.88728615235E+00  0.88000000000E+00 0. -1.
        -11    1    4    4    0    0 -0.98042248797E-01 -0.14566077598E-01 -0.58406824299E-03  0.99121417577E-01  0.51100000000E-03 0.  1.
         11    1    4    4    0    0 -0.29517646621E-01 -0.68252775526E-02 -0.10790336008E-01  0.32164706557E-01  0.51100000000E-03 0. -1.
</event>
<event>
 8    1  0.1219808E+005  0.1043930E+01  0.7957747E-01            NaN
         13   -1    0    0    0    0  0.00000000000E+00  0.00000000000E+00  0.74505805969E-08  0.10566000000E+00  0.10566000000E+00 0.  1.
     999900   -1    0    0    0    0 -0.00000000000E+00 -0.00000000000E+00 -0.74505805969E-08  0.93827000000E+00  0.93827000000E+00 0. -1.
     999902    2    1    2    0    0 -0.19851048964E-01 -0.81266728884E-02 -0.97147753017E-02  0.10203825200E+01  0.10201107799E+01 0.  0.
     999903    2    3    3    0    0  0.16497591458E-01  0.89378213397E-01  0.89165843955E-01  0.12875154059E+00  0.19125269174E-01 0.  0.
         14    1    1    2    0    0  0.19851048964E-01  0.81266728884E-02  0.97147753017E-02  0.23547480043E-01  0.00000000000E+00 0. -1.
     999901    1    3    3    0    0 -0.36348640423E-01 -0.97504886285E-01 -0.98880619257E-01  0.89163097937E+00  0.88000000000E+00 0. -1.
        -11    1    4    4    0    0  0.13885340526E-01  0.26625641727E-01  0.30541348021E-01  0.42834128202E-01  0.51100000000E-03 0.  1.
         11    1    4    4    0    0  0.26122509317E-02  0.62752571670E-01  0.58624495934E-01  0.85917412383E-01  0.51100000000E-03 0. -1.
</event>
<event>
 8    1  0.1128641E+005  0.1043930E+01  0.7957747E-01            NaN
         13   -1    0    0    0    0  0.00000000000E+00  0.00000000000E+00  0.74505805969E-08  0.10566000000E+00  0.10566000000E+00 0. -1.
     999900   -1    0    0    0    0 -0.00000000000E+00 -0.00000000000E+00 -0.74505805969E-08  0.93827000000E+00  0.93827000000E+00 0. -1.
     999902    2    1    2    0    0 -0.15746503744E-01 -0.36558739775E-02 -0.20211189457E-01  0.10180493127E+01  0.10177202922E+01 0.  0.
     999903    2    3    3    0    0  0.63573597579E-01  0.62922489705E-01 -0.91616378913E-01  0.12910439988E+00  0.16539140364E-01 0.  0.
         14    1    1    2    0    0  0.15746503744E-01  0.36558739775E-02  0.20211189457E-01  0.25880687277E-01  0.00000000000E+00 0.  1.
     999901    1    3    3    0    0 -0.79320101323E-01 -0.66578363682E-01  0.71405189456E-01  0.88894491284E+00  0.88000000000E+00 0.  1.
        -11    1    4    4    0    0  0.51861610696E-03  0.58890730526E-02 -0.63546067818E-02  0.86943828094E-02  0.51100000000E-03 0. -1.
         11    1    4    4    0    0  0.63054981472E-01  0.57033416652E-01 -0.85261772131E-01  0.12041001707E+00  0.51100000000E-03 0.  1.
</event>
<event>
 8    1  0.1128641E+005  0.1043930E+01  0.7957747E-01            NaN
         13   -1    0    0    0    0  0.00000000000E+00  0.00000000000E+00  0.74505805969E-08  0.10566000000E+00  0.10566000000E+00 0. -1.
     999900   -1    0    0    0    0 -0.00000000000E+00 -0.00000000000E+00 -0.74505805969E-08  0.93827000000E+00  0.93827000000E+00 0. -1.
     999902    2    1    2    0    0 -0.18303347772E-01 -0.14592222037E-01 -0.24317465096E-02  0.10203957935E+01  0.10201243633E+01 0.  0.
     999903    2    3    3    0    0 -0.97346321135E-01  0.78912599387E-01 -0.33808893350E-01  0.13136515928E+00  0.20254856779E-01 0.  0.
         14    1    1    2    0    0  0.18303347772E-01  0.14592222037E-01  0.24317465096E-02  0.23534206482E-01  0.00000000000E+00 0. -1.
     999901    1    3    3    0    0  0.79042973363E-01 -0.93504821424E-01  0.31377146840E-01  0.88903063424E+00  0.88000000000E+00 0.  1.
        -11    1    4    4    0    0 -0.36568591476E-01  0.30776101660E-01 -0.23129251993E-01  0.53100411813E-01  0.51100000000E-03 0.  1.
         11    1    4    4    0    0 -0.60777729659E-01  0.48136497726E-01 -0.10679641357E-01  0.78264747468E-01  0.51100000000E-03 0. -1.
</event>
<event>
 8    1  0.1128641E+005  0.1043930E+01  0.7957747E-01            NaN
         13   -1    0    0    0    0  0.00000000000E+00  0.00000000000E+00  0.74505805969E-08  0.10566000000E+00  0.10566000000E+00 0. -1.
     999900   -1    0    0    0    0 -0.00000000000E+00 -0.00000000000E+00 -0.74505805969E-08  0.93827000000E+00  0.93827000000E+00 0. -1.
     999902    2    1    2    0    0 -0.18238217765E-01  0.12582703946E-01  0.44602606402E-02  0.10213279879E+01  0.10210778657E+01 0.  0.
     999903    2    3    3    0    0 -0.33547007852E-01  0.94336542733E-01 -0.84897682995E-01  0.13290078700E+00  0.20741686945E-01 0.  0.
         14    1    1    2    0    0  0.18238217765E-01 -0.12582703946E-01 -0.44602606402E-02  0.22602012097E-01  0.00000000000E+00 0.  1.
     999901    1    3    3    0    0  0.15308790087E-01 -0.81753838786E-01  0.89357943635E-01  0.88842720090E+00  0.88000000000E+00 0.  1.
        -11    1    4    4    0    0 -0.10253867341E-02  0.28644295894E-01 -0.19554444784E-01  0.34701362178E-01  0.51100000000E-03 0.  1.
         11    1    4    4    0    0 -0.32521621118E-01  0.65692246838E-01 -0.65343238211E-01  0.98199424824E-01  0.51100000000E-03 0. -1.
</event>
<event>
 8    1  0.1128641E+005  0.1043930E+01  0.7957747E-01            NaN
         13   -1    0    0    0    0  0.00000000000E+00  0.00000000000E+00  0.74505805969E-08  0.10566000000E+00  0.10566000000E+00 0.  1.
     999900   -1    0    0    0    0 -0.00000000000E+00 -0.00000000000E+00 -0.74505805969E-08  0.93827000000E+00  0.93827000000E+00 0. -1.
     999902    2    1    2    0    0  0.24222993317E-01  0.41495353586E-02  0.30540581714E-02  0.10191651192E+01  0.10188641916E+01 0.  0.
     999903    2    3    3    0    0 -0.57955132109E-01 -0.10365525279E+00 -0.42507042632E-01  0.12762099212E+00  0.19418037682E-01 0.  0.
         14    1    1    2    0    0 -0.24222993317E-01 -0.41495353586E-02 -0.30540581714E-02  0.24764880784E-01  0.00000000000E+00 0.  1.
     999901    1    3    3    0    0  0.82178125426E-01  0.10780478815E+00  0.45561100804E-01  0.89154412709E+00  0.88000000000E+00 0. -1.
        -11    1    4    4    0    0 -0.47303721447E-01 -0.69331209877E-01 -0.24592364747E-01  0.87461444366E-01  0.51100000000E-03 0.  1.
         11    1    4    4    0    0 -0.10651410662E-01 -0.34324042918E-01 -0.17914677885E-01  0.40159547757E-01  0.51100000000E-03 0. -1.
</event>
<event>
 8    1  0.1128641E+005  0.1043930E+01  0.7957747E-01            NaN
         13   -1    0    0    0    0  0.00000000000E+00  0.00000000000E+00  0.74505805969E-08  0.10566000000E+00  0.10566000000E+00 0. -1.
     999900   -1    0    0    0    0 -0.00000000000E+00 -0.00000000000E+00 -0.74505805969E-08  0.93827000000E+00  0.93827000000E+00 0.  1.
     999902    2    1    2    0    0  0.72850607598E-02  0.87247581098E-02  0.20871090804E-01  0.10201645641E+01  0.10198877104E+01 0.  0.
     999903    2    3    3    0    0  0.50925062011E-01  0.82829765821E-01 -0.83830462979E-01  0.12979474356E+00  0.19104891691E-01 0.  0.
         14    1    1    2    0    0 -0.72850607598E-02 -0.87247581098E-02 -0.20871090804E-01  0.23765435946E-01  0.00000000000E+00 0.  1.
     999901    1    3    3    0    0 -0.43640001251E-01 -0.74105007712E-01  0.10470155378E+00  0.89036982049E+00  0.88000000000E+00 0. -1.
        -11    1    4    4    0    0  0.30101851863E-01  0.62156623582E-01 -0.65556381590E-01  0.95223251514E-01  0.51100000000E-03 0. -1.
         11    1    4    4    0    0  0.20823210147E-01  0.20673142240E-01 -0.18274081389E-01  0.34571492049E-01  0.51100000000E-03 0.  1.
</event>
<event>
 8    1  0.1128641E+005  0.1043930E+01  0.7957747E-01            NaN
         13   -1    0    0    0    0  0.00000000000E+00  0.00000000000E+00  0.74505805969E-08  0.10566000000E+00  0.10566000000E+00 0.  1.
     999900   -1    0    0    0    0 -0.00000000000E+00 -0.00000000000E+00 -0.74505805969E-08  0.93827000000E+00  0.93827000000E+00 0.  1.
     999902    2    1    2    0    0 -0.11690443574E-01 -0.12162367466E-01  0.16420250378E-01  0.10203882440E+01  0.10201166376E+01 0.  0.
     999903    2    3    3    0    0  0.99335301428E-01 -0.66285849035E-01 -0.46115752615E-01  0.12956456953E+00  0.19974963004E-01 0.  0.
         14    1    1    2    0    0  0.11690443574E-01  0.12162367466E-01 -0.16420250378E-01  0.23541756006E-01  0.00000000000E+00 0.  1.
     999901    1    3    3    0    0 -0.11102574500E+00  0.54123481569E-01  0.62536002994E-01  0.89082367446E+00  0.88000000000E+00 0. -1.
        -11    1    4    4    0    0  0.12170624403E-01 -0.13331097477E-02 -0.64559829128E-02  0.13850708153E-01  0.51100000000E-03 0. -1.
         11    1    4    4    0    0  0.87164677025E-01 -0.64952739287E-01 -0.39659769703E-01  0.11571386138E+00  0.51100000000E-03 0.  1.
</event>
<event>
 8    1  0.1128641E+005  0.1043930E+01  0.7957747E-01            NaN
         13   -1    0    0    0    0  0.00000000000E+00  0.00000000000E+00  0.74505805969E-08  0.10566000000E+00  0.10566000000E+00 0.  1.
     999900   -1    0    0    0    0 -0.00000000000E+00 -0.00000000000E+00 -0.74505805969E-08  0.93827000000E+00  0.93827000000E+00 0.  1.
     999902    2    1    2    0    0 -0.21301094967E-01  0.62602742560E-02  0.82097191711E-02  0.10202587692E+01  0.10199841317E+01 0.  0.
     999903    2    3    3    0    0 -0.11741372409E+00 -0.54126054990E-01 -0.21099910773E-01  0.13248447316E+00  0.19781732977E-01 0.  0.
         14    1    1    2    0    0  0.21301094967E-01 -0.62602742560E-02 -0.82097191711E-02  0.23671230839E-01  0.00000000000E+00 0. -1.
     999901    1    3    3    0    0  0.96112629123E-01  0.60386329246E-01  0.29309629944E-01  0.88777429600E+00  0.88000000000E+00 0. -1.
        -11    1    4    4    0    0 -0.65359943835E-01 -0.26515932134E-01 -0.20821639806E-02  0.70566376150E-01  0.51100000000E-03 0.  1.
         11    1    4    4    0    0 -0.52053780256E-01 -0.27610122856E-01 -0.19017746792E-01  0.61918097008E-01  0.51100000000E-03 0. -1.
</event>
<event>
 8    1  0.1128641E+005  0.1043930E+01  0.7957747E-01            NaN
         13   -1    0    0    0    0  0.00000000000E+00  0.00000000000E+00  0.74505805969E-08  0.10566000000E+00  0.10566000000E+00 0. -1.
     999900   -1    0    0    0    0 -0.00000000000E+00 -0.00000000000E+00 -0.74505805969E-08  0.93827000000E+00  0.93827000000E+00 0.  1.
     999902    2    1    2    0    0 -0.58246219847E-02  0.23312028091E-01 -0.11263985734E-02  0.10198749455E+01  0.10195912214E+01 0.  0.
     999903    2    3    3    0    0 -0.48833424643E-02 -0.11046358787E+00 -0.60608399999E-01  0.12777914908E+00  0.20690130736E-01 0.  0.
         14    1    1    2    0    0  0.58246219847E-02 -0.23312028091E-01  0.11263985734E-02  0.24055054536E-01  0.00000000000E+00 0. -1.
     999901    1    3    3    0    0 -0.94127952034E-03  0.13377561596E+00  0.59482001425E-01  0.89209579638E+00  0.88000000000E+00 0. -1.
        -11    1    4    4    0    0 -0.12415281910E-01 -0.75576084352E-01 -0.37710657182E-01  0.85371180952E-01  0.51100000000E-03 0. -1.
         11    1    4    4    0    0  0.75319394457E-02 -0.34887503520E-01 -0.22897742816E-01  0.42407968128E-01  0.51100000000E-03 0.  1.
</event>
<event>
 8    1  0.1128641E+005  0.1043930E+01  0.7957747E-01            NaN
         13   -1    0    0    0    0  0.00000000000E+00  0.00000000000E+00  0.74505805969E-08  0.10566000000E+00  0.10566000000E+00 0.  1.
     999900   -1    0    0    0    0 -0.00000000000E+00 -0.00000000000E+00 -0.74505805969E-08  0.93827000000E+00  0.93827000000E+00 0.  1.
     999902    2    1    2    0    0 -0.14644413947E-01 -0.82997492414E-02 -0.16844977501E-01  0.10201161812E+01  0.10198381858E+01 0.  0.
     999903    2    3    3    0    0 -0.43301287989E-01 -0.11140554100E+00 -0.54612755404E-01  0.13282906548E+00  0.19360048487E-01 0.  0.
         14    1    1    2    0    0  0.14644413947E-01  0.82997492414E-02  0.16844977501E-01  0.23813818769E-01  0.00000000000E+00 0.  1.
     999901    1    3    3    0    0  0.28656874042E-01  0.10310579176E+00  0.37767777903E-01  0.88728711575E+00  0.88000000000E+00 0. -1.
        -11    1    4    4    0    0 -0.20485330234E-01 -0.54294955082E-01 -0.37115254163E-01  0.68886821052E-01  0.51100000000E-03 0. -1.
         11    1    4    4    0    0 -0.22815957756E-01 -0.57110585918E-01 -0.17497501241E-01  0.63942244431E-01  0.51100000000E-03 0.  1.
</event>
<event>
 8    1  0.1128641E+005  0.1043930E+01  0.7957747E-01            NaN
         13   -1    0    0    0    0  0.00000000000E+00  0.00000000000E+00  0.74505805969E-08  0.10566000000E+00  0.10566000000E+00 0.  1.
     999900   -1    0    0    0    0 -0.00000000000E+00 -0.00000000000E+00 -0.74505805969E-08  0.93827000000E+00  0.93827000000E+00 0. -1.
     999902    2    1    2    0    0 -0.57866677051E-02  0.18512017449E-01  0.15878015223E-01  0.10188642528E+01  0.10185558767E+01 0.  0.
     999903    2    3    3    0    0 -0.28635323925E-01  0.10397540812E+00  0.74035025030E-01  0.13251878406E+00  0.21193770957E-01 0.  0.
         14    1    1    2    0    0  0.57866677051E-02 -0.18512017449E-01 -0.15878015223E-01  0.25065747158E-01  0.00000000000E+00 0. -1.
     999901    1    3    3    0    0  0.22848656220E-01 -0.85463390675E-01 -0.58157009807E-01  0.88634546878E+00  0.88000000000E+00 0.  1.
        -11    1    4    4    0    0 -0.13927633993E-01  0.27735973049E-01  0.12572623946E-01  0.33490225194E-01  0.51100000000E-03 0. -1.
         11    1    4    4    0    0 -0.14707689932E-01  0.76239435075E-01  0.61462401084E-01  0.99028558869E-01  0.51100000000E-03 0.  1.
</event>
<event>
 8    1  0.1128641E+005  0.1043930E+01  0.7957747E-01            NaN
         13   -1    0    0    0    0  0.00000000000E+00  0.00000000000E+00  0.74505805969E-08  0.10566000000E+00  0.10566000000E+00 0. -1.
     999900   -1    0    0    0    0 -0.00000000000E+00 -0.00000000000E+00 -0.74505805969E-08  0.93827000000E+00  0.93827000000E+00 0.  1.
     999902    2    1    2    0    0  0.98199452204E-03 -0.10025652550E-01  0.21029040723E-01  0.10206126550E+01  0.10203462613E+01 0.  0.
     999903    2    3    3    0    0  0.12841062775E+00 -0.10169654667E-01  0.18238963022E-01  0.13142996187E+00  0.18667188070E-01 0.  0.
         14    1    1    2    0    0 -0.98199452204E-03  0.10025652550E-01 -0.21029040723E-01  0.23317344961E-01  0.00000000000E+00 0.  1.
     999901    1    3    3    0    0 -0.12742863322E+00  0.14400211739E-03  0.27900777008E-02  0.88918269317E+00  0.88000000000E+00 0. -1.
        -11    1    4    4    0    0  0.29671509422E-01 -0.10044063760E-01  0.64682964430E-02  0.31990337104E-01  0.51100000000E-03 0.  1.
         11    1    4    4    0    0  0.98739118323E-01 -0.12559090766E-03  0.11770666579E-01  0.99439624763E-01  0.51100000000E-03 0. -1.
</event>
<event>
 8    1  0.1128641E+005  0.1043930E+01  0.7957747E-01            NaN
         13   -1    0    0    0    0  0.00000000000E+00  0.00000000000E+00  0.74505805969E-08  0.10566000000E+00  0.10566000000E+00 0.  1.
     999900   -1    0    0    0    0 -0.00000000000E+00 -0.00000000000E+00 -0.74505805969E-08  0.93827000000E+00  0.93827000000E+00 0.  1.
     999902    2    1    2    0    0 -0.21227891454E-01 -0.92667694010E-02 -0.45124363580E-02  0.10203321511E+01  0.10200592336E+01 0.  0.
     999903    2    3    3    0    0  0.29161099950E-01 -0.12246284973E+00 -0.31003393290E-01  0.13125725333E+00  0.20487480123E-01 0.  0.
         14    1    1    2    0    0  0.21227891454E-01  0.92667694010E-02  0.45124363580E-02  0.23597848897E-01  0.00000000000E+00 0. -1.
     999901    1    3    3    0    0 -0.50388991404E-01  0.11319608033E+00  0.26490956932E-01  0.88907489778E+00  0.88000000000E+00 0. -1.
        -11    1    4    4    0    0  0.23879893451E-01 -0.11859292488E+00 -0.29262576427E-01  0.12446321000E+00  0.51100000000E-03 0. -1.
         11    1    4    4    0    0  0.52812064993E-02 -0.38699248484E-02 -0.17408168624E-02  0.67940433299E-02  0.51100000000E-03 0.  1.
</event>
<event>
 8    1  0.1128641E+005  0.1043930E+01  0.7957747E-01            NaN
         13   -1    0    0    0    0  0.00000000000E+00  0.00000000000E+00  0.74505805969E-08  0.10566000000E+00  0.10566000000E+00 0.  1.
     999900   -1    0    0    0    0 -0.00000000000E+00 -0.00000000000E+00 -0.74505805969E-08  0.93827000000E+00  0.93827000000E+00 0. -1.
     999902    2    1    2    0    0 -0.49314937833E-02 -0.10246022924E-01 -0.22161993071E-01  0.10190210748E+01  0.10187165928E+01 0.  0.
     999903    2    3    3    0    0 -0.40252757514E-01  0.63670736003E-01  0.10003437369E+00  0.12680852673E+00  0.19981977433E-01 0.  0.
         14    1    1    2    0    0  0.49314937833E-02  0.10246022924E-01  0.22161993071E-01  0.24908925179E-01  0.00000000000E+00 0.  1.
     999901    1    3    3    0    0  0.35321263731E-01 -0.73916758927E-01 -0.12219636676E+00  0.89221254809E+00  0.88000000000E+00 0. -1.
        -11    1    4    4    0    0 -0.13595483920E-01  0.31076421438E-01  0.58724730365E-01  0.67819143535E-01  0.51100000000E-03 0. -1.
         11    1    4    4    0    0 -0.26657273594E-01  0.32594314565E-01  0.41309643321E-01  0.58989383195E-01  0.51100000000E-03 0.  1.
</event>
<event>
 8    1  0.1128641E+005  0.1043930E+01  0.7957747E-01            NaN
         13   -1    0    0    0    0  0.00000000000E+00  0.00000000000E+00  0.74505805969E-08  0.10566000000E+00  0.10566000000E+00 0.  1.
     999900   -1    0    0    0    0 -0.00000000000E+00 -0.00000000000E+00 -0.74505805969E-08  0.93827000000E+00  0.93827000000E+00 0. -1.
     999902    2    1    2    0    0 -0.22171028883E-01 -0.92680264501E-02  0.55460947614E-02  0.10192680860E+01  0.10189696861E+01 0.  0.
     999903    2    3    3    0    0  0.10739851254E+00 -0.44065366088E-01 -0.49220402235E-01  0.12741692682E+00  0.18336528003E-01 0.  0.
         14    1    1    2    0    0  0.22171028883E-01  0.92680264501E-02 -0.55460947614E-02  0.24661914019E-01  0.00000000000E+00 0. -1.
     999901    1    3    3    0    0 -0.12956954142E+00  0.34797339638E-01  0.54766496997E-01  0.89185115916E+00  0.88000000000E+00 0. -1.
        -11    1    4    4    0    0  0.43049169655E-01 -0.23666387045E-01 -0.13058024537E-01  0.50834063476E-01  0.51100000000E-03 0.  1.
         11    1    4    4    0    0  0.64349342883E-01 -0.20398979044E-01 -0.36162377698E-01  0.76582863340E-01  0.51100000000E-03 0. -1.
</event>
<event>
 8    1  0.1128641E+005  0.1043930E+01  0.7957747E-01            NaN
         13   -1    0    0    0    0  0.00000000000E+00  0.00000000000E+00  0.74505805969E-08  0.10566000000E+00  0.10566000000E+00 0.  1.
     999900   -1    0    0    0    0 -0.00000000000E+00 -0.00000000000E+00 -0.74505805969E-08  0.93827000000E+00  0.93827000000E+00 0. -1.
     999902    2    1    2    0    0  0.22832212606E-02  0.76799060354E-02  0.22057602150E-01  0.10204623229E+01  0.10201924429E+01 0.  0.
     999903    2    3    3    0    0  0.63939277365E-01 -0.61342900448E-01  0.96398003488E-01  0.13249153940E+00  0.20254636783E-01 0.  0.
         14    1    1    2    0    0 -0.22832212606E-02 -0.76799060354E-02 -0.22057602150E-01  0.23467677104E-01  0.00000000000E+00 0. -1.
     999901    1    3    3    0    0 -0.61656056104E-01  0.69022806483E-01 -0.74340401339E-01  0.88797078349E+00  0.88000000000E+00 0. -1.
        -11    1    4    4    0    0  0.26674285370E-01 -0.13926955788E-01  0.25799869031E-01  0.39640534312E-01  0.51100000000E-03 0.  1.
         11    1    4    4    0    0  0.37264991995E-01 -0.47415944659E-01  0.70598134457E-01  0.92851005090E-01  0.51100000000E-03 0. -1.
</event>
<event>
 8    1  0.1128641E+005  0.1043930E+01  0.7957747E-01            NaN
         13   -1    0    0    0    0  0.00000000000E+00  0.00000000000E+00  0.74505805969E-08  0.10566000000E+00  0.10566000000E+00 0.  1.
     999900   -1    0    0    0    0 -0.00000000000E+00 -0.00000000000E+00 -0.74505805969E-08  0.93827000000E+00  0.93827000000E+00 0.  1.
     999902    2    1    2    0    0 -0.13328534956E-02 -0.27750538426E-02 -0.24167819210E-01  0.10195668945E+01  0.10192757681E+01 0.  0.
     999903    2    3    3    0    0  0.23240892767E-01  0.12886468199E-01 -0.12866692877E+00  0.13290505586E+00  0.20059290996E-01 0.  0.
         14    1    1    2    0    0  0.13328534956E-02  0.27750538426E-02  0.24167819210E-01  0.24363105460E-01  0.00000000000E+00 0.  1.
     999901    1    3    3    0    0 -0.24573746262E-01 -0.15661522042E-01  0.10449910956E+00  0.88666183868E+00  0.88000000000E+00 0. -1.
        -11    1    4    4    0    0  0.15642383355E-02 -0.47845923540E-02 -0.26475117373E-01  0.26954259895E-01  0.51100000000E-03 0.  1.
         11    1    4    4    0    0  0.21676654431E-01  0.17671060553E-01 -0.10219181139E+00  0.10595079596E+00  0.51100000000E-03 0. -1.
</event>
<event>
 8    1  0.1128641E+005  0.1043930E+01  0.7957747E-01            NaN
         13   -1    0    0    0    0  0.00000000000E+00  0.00000000000E+00  0.74505805969E-08  0.10566000000E+00  0.10566000000E+00 0.  1.
     999900   -1    0    0    0    0 -0.00000000000E+00 -0.00000000000E+00 -0.74505805969E-08  0.93827000000E+00  0.93827000000E+00 0.  1.
     999902    2    1    2    0    0 -0.17766158725E-01 -0.11288462390E-01  0.68431540680E-02  0.10217964387E+01  0.10215566884E+01 0.  0.
     999903    2    3    3    0    0 -0.23610971323E-01 -0.16569632471E-01 -0.12727138623E+00  0.13160052625E+00  0.16990057930E-01 0.  0.
         14    1    1    2    0    0  0.17766158725E-01  0.11288462390E-01 -0.68431540680E-02  0.22133561317E-01  0.00000000000E+00 0.  1.
     999901    1    3    3    0    0  0.58448125977E-02  0.52811700805E-02  0.13411454030E+00  0.89019591243E+00  0.88000000000E+00 0. -1.
        -11    1    4    4    0    0 -0.14374025822E-01 -0.47724915644E-02 -0.35301322881E-01  0.38416582516E-01  0.51100000000E-03 0.  1.
         11    1    4    4    0    0 -0.92369455007E-02 -0.11797140906E-01 -0.91970063353E-01  0.93183943734E-01  0.51100000000E-03 0. -1.
</event>
<event>
 8    1  0.1256806E+005  0.1043930E+01  0.7957747E-01            NaN
         13   -1    0    0    0    0  0.00000000000E+00  0.00000000000E+00  0.74505805969E-08  0.10566000000E+00  0.10566000000E+00 0.  1.
     999900   -1    0    0    0    0 -0.00000000000E+00 -0.00000000000E+00 -0.74505805969E-08  0.93827000000E+00  0.93827000000E+00 0. -1.
     999902    2    1    2    0    0  0.10397792981E-01  0.13512987622E-01 -0.16385301639E-01  0.10202827371E+01  0.10200086620E+01 0.  0.
     999903    2    3    3    0    0 -0.48676846571E-02 -0.12341389997E+00  0.24551872232E-01  0.12862256664E+00  0.26197044862E-01 0.  0.
         14    1    1    2    0    0 -0.10397792981E-01 -0.13512987622E-01  0.16385301639E-01  0.23647262910E-01  0.00000000000E+00 0.  1.
     999901    1    3    3    0    0  0.15265477638E-01  0.13692688760E+00 -0.40937173871E-01  0.89166017045E+00  0.88000000000E+00 0. -1.
        -11    1    4    4    0    0  0.17501263824E-02 -0.73240571740E-01  0.26673052845E-01  0.77967667402E-01  0.51100000000E-03 0. -1.
         11    1    4    4    0    0 -0.66178110396E-02 -0.50173328235E-01 -0.21211806127E-02  0.50654899243E-01  0.51100000000E-03 0.  1.
</event>
<event>
 8    1  0.1128641E+005  0.1043930E+01  0.7957747E-01            NaN
         13   -1    0    0    0    0  0.00000000000E+00  0.00000000000E+00  0.74505805969E-08  0.10566000000E+00  0.10566000000E+00 0. -1.
     999900   -1    0    0    0    0 -0.00000000000E+00 -0.00000000000E+00 -0.74505805969E-08  0.93827000000E+00  0.93827000000E+00 0.  1.
     999902    2    1    2    0    0 -0.21838500545E-01 -0.70842234943E-02  0.52050665450E-02  0.10203885675E+01  0.10201169686E+01 0.  0.
     999903    2    3    3    0    0 -0.12312815876E+00  0.29350648538E-01  0.36543062135E-01  0.13327574220E+00  0.20125208583E-01 0.  0.
         14    1    1    2    0    0  0.21838500545E-01  0.70842234943E-02 -0.52050665450E-02  0.23541432546E-01  0.00000000000E+00 0. -1.
     999901    1    3    3    0    0  0.10128965821E+00 -0.36434872033E-01 -0.31337995590E-01  0.88711282525E+00  0.88000000000E+00 0.  1.
        -11    1    4    4    0    0 -0.53536632451E-01  0.36682980564E-02  0.10691792769E-01  0.54719310837E-01  0.51100000000E-03 0.  1.
         11    1    4    4    0    0 -0.69591526306E-01  0.25682350482E-01  0.25851269366E-01  0.78556431365E-01  0.51100000000E-03 0. -1.
</event>
<event>
 8    1  0.1128641E+005  0.1043930E+01  0.7957747E-01            NaN
         13   -1    0    0    0    0  0.00000000000E+00  0.00000000000E+00  0.74505805969E-08  0.10566000000E+00  0.10566000000E+00 0.  1.
     999900   -1    0    0    0    0 -0.00000000000E+00 -0.00000000000E+00 -0.74505805969E-08  0.93827000000E+00  0.93827000000E+00 0.  1.
     999902    2    1    2    0    0 -0.74977352821E-02  0.21487471762E-01  0.51374925945E-02  0.10205993055E+01  0.10203326031E+01 0.  0.
     999903    2    3    3    0    0  0.84230749610E-01  0.90609578091E-01 -0.41650010754E-01  0.13190304071E+00  0.18941328670E-01 0.  0.
         14    1    1    2    0    0  0.74977352821E-02 -0.21487471762E-01 -0.51374925945E-02  0.23330694530E-01  0.00000000000E+00 0.  1.
     999901    1    3    3    0    0 -0.91728484892E-01 -0.69122106328E-01  0.46787503349E-01  0.88869626476E+00  0.88000000000E+00 0.  1.
        -11    1    4    4    0    0  0.54440089268E-01  0.49417465377E-01 -0.17298708811E-01  0.75533539910E-01  0.51100000000E-03 0.  1.
         11    1    4    4    0    0  0.29790660342E-01  0.41192112714E-01 -0.24351301943E-01  0.56369500803E-01  0.51100000000E-03 0. -1.
</event>
<event>
 8    1  0.1128641E+005  0.1043930E+01  0.7957747E-01            NaN
         13   -1    0    0    0    0  0.00000000000E+00  0.00000000000E+00  0.74505805969E-08  0.10566000000E+00  0.10566000000E+00 0. -1.
     999900   -1    0    0    0    0 -0.00000000000E+00 -0.00000000000E+00 -0.74505805969E-08  0.93827000000E+00  0.93827000000E+00 0. -1.
     999902    2    1    2    0    0  0.11727893377E-01 -0.56318854814E-02  0.19269367486E-01  0.10206798357E+01  0.10204149925E+01 0.  0.
     999903    2    3    3    0    0 -0.86910386388E-01  0.64173149346E-01 -0.66558162648E-01  0.12828495782E+00  0.18852931556E-01 0.  0.
         14    1    1    2    0    0 -0.11727893377E-01  0.56318854814E-02 -0.19269367486E-01  0.23250164310E-01  0.00000000000E+00 0.  1.
     999901    1    3    3    0    0  0.98638279765E-01 -0.69805034827E-01  0.85827530134E-01  0.89239487787E+00  0.88000000000E+00 0.  1.
        -11    1    4    4    0    0 -0.12710770901E-01  0.16563010033E-01 -0.75948152368E-02  0.22222496208E-01  0.51100000000E-03 0.  1.
         11    1    4    4    0    0 -0.74199615488E-01  0.47610139313E-01 -0.58963347411E-01  0.10606246161E+00  0.51100000000E-03 0. -1.
</event>
<event>
 8    1  0.1128641E+005  0.1043930E+01  0.7957747E-01            NaN
         13   -1    0    0    0    0  0.00000000000E+00  0.00000000000E+00  0.74505805969E-08  0.10566000000E+00  0.10566000000E+00 0.  1.
     999900   -1    0    0    0    0 -0.00000000000E+00 -0.00000000000E+00 -0.74505805969E-08  0.93827000000E+00  0.93827000000E+00 0.  1.
     999902    2    1    2    0    0  0.18813232294E-01 -0.42856217044E-02  0.13825770334E-01  0.10201927679E+01  0.10199165787E+01 0.  0.
     999903    2    3    3    0    0  0.10098915208E+00 -0.16751852223E-01  0.83058470152E-01  0.13356914120E+00  0.21507501593E-01 0.  0.
         14    1    1    2    0    0 -0.18813232294E-01  0.42856217044E-02 -0.13825770334E-01  0.23737232106E-01  0.00000000000E+00 0.  1.
     999901    1    3    3    0    0 -0.82175919787E-01  0.12466230518E-01 -0.69232699818E-01  0.88662362670E+00  0.88000000000E+00 0.  1.
        -11    1    4    4    0    0  0.24449281917E-01 -0.22281855037E-02  0.92190642790E-02  0.26229457945E-01  0.51100000000E-03 0.  1.
         11    1    4    4    0    0  0.76539870164E-01 -0.14523666719E-01  0.73839405872E-01  0.10733968325E+00  0.51100000000E-03 0. -1.
</event>
<event>
 8    1  0.1128641E+005  0.1043930E+01  0.7957747E-01            NaN
         13   -1    0    0    0    0  0.00000000000E+00  0.00000000000E+00  0.74505805969E-08  0.10566000000E+00  0.10566000000E+00 0.  1.
     999900   -1    0    0    0    0 -0.00000000000E+00 -0.00000000000E+00 -0.74505805969E-08  0.93827000000E+00  0.93827000000E+00 0. -1.
     999902    2    1    2    0    0 -0.18716585804E-01  0.10897071069E-01 -0.99177835496E-02  0.10201094380E+01  0.10198312833E+01 0.  0.
     999903    2    3    3    0    0 -0.12316478122E+00 -0.38647135630E-01 -0.22192994883E-01  0.13246382476E+00  0.19772997282E-01 0.  0.
         14    1    1    2    0    0  0.18716585804E-01 -0.10897071069E-01  0.99177835496E-02  0.23820561970E-01  0.00000000000E+00 0. -1.
     999901    1    3    3    0    0  0.10444819542E+00  0.49544206699E-01  0.12275211334E-01  0.88764561327E+00  0.88000000000E+00 0. -1.
        -11    1    4    4    0    0 -0.61441166577E-01 -0.29616529129E-01 -0.11549564638E-01  0.69179544031E-01  0.51100000000E-03 0. -1.
         11    1    4    4    0    0 -0.61723614647E-01 -0.90306065008E-02 -0.10643430245E-01  0.63284280728E-01  0.51100000000E-03 0.  1.
</event>
<event>
 8    1  0.1128641E+005  0.1043930E+01  0.7957747E-01            NaN
         13   -1    0    0    0    0  0.00000000000E+00  0.00000000000E+00  0.74505805969E-08  0.10566000000E+00  0.10566000000E+00 0.  1.
     999900   -1    0    0    0    0 -0.00000000000E+00 -0.00000000000E+00 -0.74505805969E-08  0.93827000000E+00  0.93827000000E+00 0.  1.
     999902    2    1    2    0    0 -0.48571484676E-02  0.20448131085E-01 -0.13009607153E-01  0.10192122365E+01  0.10189124669E+01 0.  0.
     999903    2    3    3    0    0 -0.85085430959E-01 -0.40449904567E-01  0.84510638600E-01  0.12811440435E+00  0.19887866270E-01 0.  0.
         14    1    1    2    0    0  0.48571484676E-02 -0.20448131085E-01  0.13009607153E-01  0.24717763539E-01  0.00000000000E+00 0.  1.
     999901    1    3    3    0    0  0.80228282492E-01  0.60898035652E-01 -0.97520245753E-01  0.89109783211E+00  0.88000000000E+00 0.  1.
        -11    1    4    4    0    0 -0.66518971882E-01 -0.39591908986E-01  0.64109928966E-01  0.10051187487E+00  0.51100000000E-03 0. -1.
         11    1    4    4    0    0 -0.18566459077E-01 -0.85799558185E-03  0.20400709633E-01  0.27602529479E-01  0.51100000000E-03 0.  1.
</event>
<event>
 8    1  0.1128641E+005  0.1043930E+01  0.7957747E-01            NaN
         13   -1    0    0    0    0  0.00000000000E+00  0.00000000000E+00  0.74505805969E-08  0.10566000000E+00  0.10566000000E+00 0. -1.
     999900   -1    0    0    0    0 -0.00000000000E+00 -0.00000000000E+00 -0.74505805969E-08  0.93827000000E+00  0.93827000000E+00 0.  1.
     999902    2    1    2    0    0  0.10014541892E-01  0.44702789140E-02 -0.21176295471E-01  0.10200823600E+01  0.10198035650E+01 0.  0.
     999903    2    3    3    0    0 -0.25080830305E-02 -0.38987947807E-01  0.11993771295E+00  0.12769309687E+00  0.19852492219E-01 0.  0.
         14    1    1    2    0    0 -0.10014541892E-01 -0.44702789140E-02  0.21176295471E-01  0.23847639983E-01  0.00000000000E+00 0. -1.
     999901    1    3    3    0    0  0.12522624922E-01  0.43458226721E-01 -0.14111400842E+00  0.89238926314E+00  0.88000000000E+00 0.  1.
        -11    1    4    4    0    0 -0.57957483162E-02 -0.39752788721E-01  0.10642949336E+00  0.11376015598E+00  0.51100000000E-03 0.  1.
         11    1    4    4    0    0  0.32876652857E-02  0.76484091347E-03  0.13508219582E-01  0.13932940893E-01  0.51100000000E-03 0. -1.
</event>
<event>
 8    1  0.1128641E+005  0.1043930E+01  0.7957747E-01            NaN
         13   -1    0    0    0    0  0.00000000000E+00  0.00000000000E+00  0.74505805969E-08  0.10566000000E+00  0.10566000000E+00 0.  1.
     999900   -1    0    0    0    0 -0.00000000000E+00 -0.00000000000E+00 -0.74505805969E-08  0.93827000000E+00  0.93827000000E+00 0. -1.
     999902    2    1    2    0    0 -0.21746112701E-01 -0.48318359124E-02 -0.11769302169E-02  0.10216224851E+01  0.10213789095E+01 0.  0.
     999903    2    3    3    0    0  0.60805489516E-03 -0.12254805127E+00 -0.46055367936E-01  0.13236948942E+00  0.19549685742E-01 0.  0.
         14    1    1    2    0    0  0.21746112701E-01  0.48318359124E-02  0.11769302169E-02  0.22307514891E-01  0.00000000000E+00 0.  1.
     999901    1    3    3    0    0 -0.22354167596E-01  0.11771621536E+00  0.44878437719E-01  0.88925299569E+00  0.88000000000E+00 0. -1.
        -11    1    4    4    0    0 -0.44923723571E-02 -0.30757182422E-01 -0.19419933222E-01  0.36654885176E-01  0.51100000000E-03 0.  1.
         11    1    4    4    0    0  0.51004272523E-02 -0.91790868849E-01 -0.26635434714E-01  0.95714604245E-01  0.51100000000E-03 0. -1.
</event>
<event>
 8    1  0.1128641E+005  0.1043930E+01  0.7957747E-01            NaN
         13   -1    0    0    0    0  0.00000000000E+00  0.00000000000E+00  0.74505805969E-08  0.10566000000E+00  0.10566000000E+00 0. -1.
     999900   -1    0    0    0    0 -0.00000000000E+00 -0.00000000000E+00 -0.74505805969E-08  0.93827000000E+00  0.93827000000E+00 0. -1.
     999902    2    1    2    0    0  0.26720468881E-02  0.25341467502E-01  0.56512602274E-02  0.10178289167E+01  0.10174941951E+01 0.  0.
     999903    2    3    3    0    0 -0.90699171906E-01  0.29187985269E-01  0.84995933429E-01  0.12933099467E+00  0.20589298555E-01 0.  0.
         14    1    1    2    0    0 -0.26720468881E-02 -0.25341467502E-01 -0.56512602274E-02  0.26101083347E-01  0.00000000000E+00 0.  1.
     999901    1    3    3    0    0  0.93371218794E-01 -0.38465177666E-02 -0.79344673202E-01  0.88849792198E+00  0.88000000000E+00 0.  1.
        -11    1    4    4    0    0 -0.61894628246E-01  0.13043061659E-01  0.45904840321E-01  0.78157417748E-01  0.51100000000E-03 0.  1.
         11    1    4    4    0    0 -0.28804543659E-01  0.16144923610E-01  0.39091093108E-01  0.51173576924E-01  0.51100000000E-03 0. -1.
</event>
<event>
 8    1  0.1128641E+005  0.1043930E+01  0.7957747E-01            NaN
         13   -1    0    0    0    0  0.00000000000E+00  0.00000000000E+00  0.74505805969E-08  0.10566000000E+00  0.10566000000E+00 0. -1.
     999900   -1    0    0    0    0 -0.00000000000E+00 -0.00000000000E+00 -0.74505805969E-08  0.93827000000E+00  0.93827000000E+00 0. -1.
     999902    2    1    2    0    0  0.14697028432E-03  0.24030671828E-01  0.46681956031E-02  0.10194496642E+01  0.10191556952E+01 0.  0.
     999903    2    3    3    0    0  0.94938472159E-01 -0.82325855031E-01 -0.12340463775E-01  0.12782954663E+00  0.19931032160E-01 0.  0.
         14    1    1    2    0    0 -0.14697028432E-03 -0.24030671828E-01 -0.46681956031E-02  0.24480335760E-01  0.00000000000E+00 0. -1.
     999901    1    3    3    0    0 -0.94791501874E-01  0.10635652686E+00  0.17008659378E-01  0.89162011761E+00  0.88000000000E+00 0.  1.
        -11    1    4    4    0    0  0.54876709637E-01 -0.36398195819E-01 -0.11671324738E-01  0.66878717553E-01  0.51100000000E-03 0. -1.
         11    1    4    4    0    0  0.40061762522E-01 -0.45927659212E-01 -0.66913903728E-03  0.60950829076E-01  0.51100000000E-03 0.  1.
</event>
<event>
 8    1  0.1128641E+005  0.1043930E+01  0.7957747E-01            NaN
         13   -1    0    0    0    0  0.00000000000E+00  0.00000000000E+00  0.74505805969E-08  0.10566000000E+00  0.10566000000E+00 0. -1.
     999900   -1    0    0    0    0 -0.00000000000E+00 -0.00000000000E+00 -0.74505805969E-08  0.93827000000E+00  0.93827000000E+00 0.  1.
     999902    2    1    2    0    0  0.20113232733E-01 -0.13473156666E-01  0.16958745705E-02  0.10196618301E+01  0.10193729953E+01 0.  0.
     999903    2    3    3    0    0  0.94375981039E-01  0.87128207694E-01 -0.11648523395E-01  0.13072220149E+00  0.21317961702E-01 0.  0.
         14    1    1    2    0    0 -0.20113232733E-01  0.13473156666E-01 -0.16958745705E-02  0.24268169937E-01  0.00000000000E+00 0.  1.
     999901    1    3    3    0    0 -0.74262748306E-01 -0.10060136436E+00  0.13344397966E-01  0.88893962858E+00  0.88000000000E+00 0. -1.
        -11    1    4    4    0    0  0.41802576391E-01  0.24610619269E-01 -0.48293958056E-02  0.48751637497E-01  0.51100000000E-03 0. -1.
         11    1    4    4    0    0  0.52573404648E-01  0.62517588425E-01 -0.68191275895E-02  0.81970563990E-01  0.51100000000E-03 0.  1.
</event>
<event>
 8    1  0.1128641E+005  0.1043930E+01  0.7957747E-01            NaN
         13   -1    0    0    0    0  0.00000000000E+00  0.00000000000E+00  0.74505805969E-08  0.10566000000E+00  0.10566000000E+00 0. -1.
     999900   -1    0    0    0    0 -0.00000000000E+00 -0.00000000000E+00 -0.74505805969E-08  0.93827000000E+00  0.93827000000E+00 0.  1.
     999902    2    1    2    0    0 -0.19663978484E-02  0.21547749214E-01  0.68558923513E-02  0.10212325227E+01  0.10209802593E+01 0.  0.
     999903    2    3    3    0    0  0.11712986577E+00  0.58141876514E-01  0.50875448206E-02  0.13245461048E+00  0.20456232963E-01 0.  0.
         14    1    1    2    0    0  0.19663978484E-02 -0.21547749214E-01 -0.68558923513E-02  0.22697477318E-01  0.00000000000E+00 0.  1.
     999901    1    3    3    0    0 -0.11909626361E+00 -0.36594127301E-01  0.17683475306E-02  0.88877791220E+00  0.88000000000E+00 0. -1.
        -11    1    4    4    0    0  0.34575707784E-01  0.22159214530E-01  0.99788305771E-02  0.42265216645E-01  0.51100000000E-03 0. -1.
         11    1    4    4    0    0  0.82554157981E-01  0.35982661984E-01 -0.48912857565E-02  0.90189393838E-01  0.51100000000E-03 0.  1.
</event>
<event>
 8    1  0.1128641E+005  0.1043930E+01  0.7957747E-01            NaN
         13   -1    0    0    0    0  0.00000000000E+00  0.00000000000E+00  0.74505805969E-08  0.10566000000E+00  0.10566000000E+00 0.  1.
     999900   -1    0    0    0    0 -0.00000000000E+00 -0.00000000000E+00 -0.74505805969E-08  0.93827000000E+00  0.93827000000E+00 0.  1.
     999902    2    1    2    0    0  0.14168124871E-02 -0.24513286844E-01  0.32086244486E-02  0.10191670466E+01  0.10188661664E+01 0.  0.
     999903    2    3    3    0    0  0.12192773366E+00 -0.63459513544E-02  0.40029418189E-01  0.13000524747E+00  0.19808248657E-01 0.  0.
         14    1    1    2    0    0 -0.14168124871E-02  0.24513286844E-01 -0.32086244486E-02  0.24762953385E-01  0.00000000000E+00 0. -1.
     999901    1    3    3    0    0 -0.12051092118E+00 -0.18167335489E-01 -0.36820793740E-01  0.88916179914E+00  0.88000000000E+00 0.  1.
        -11    1    4    4    0    0  0.10826566667E+00  0.70983171976E-03  0.34019407585E-01  0.11348805952E+00  0.51100000000E-03 0. -1.
         11    1    4    4    0    0  0.13662066991E-01 -0.70557830742E-02  0.60100106037E-02  0.16517187948E-01  0.51100000000E-03 0.  1.
</event>
<event>
 8    1  0.1128641E+005  0.1043930E+01  0.7957747E-01            NaN
         13   -1    0    0    0    0  0.00000000000E+00  0.00000000000E+00  0.74505805969E-08  0.10566000000E+00  0.10566000000E+00 0.  1.
     999900   -1    0    0    0    0 -0.00000000000E+00 -0.00000000000E+00 -0.74505805969E-08  0.93827000000E+00  0.93827000000E+00 0. -1.
     999902    2    1    2    0    0 -0.21860132129E-01  0.77421132520E-02  0.24311026009E-02  0.10206122824E+01  0.10203458801E+01 0.  0.
     999903    2    3    3    0    0  0.98466050992E-02  0.12963016907E+00 -0.59715631340E-02  0.13160574692E+00  0.19582560907E-01 0.  0.
         14    1    1    2    0    0  0.21860132129E-01 -0.77421132520E-02 -0.24311026009E-02  0.23317717602E-01  0.00000000000E+00 0. -1.
     999901    1    3    3    0    0 -0.31706737228E-01 -0.12188805581E+00  0.84026657348E-02  0.88900653548E+00  0.88000000000E+00 0. -1.
        -11    1    4    4    0    0  0.71249618667E-02  0.19941673730E-01  0.35184011786E-02  0.21472673346E-01  0.51100000000E-03 0.  1.
         11    1    4    4    0    0  0.27216432324E-02  0.10968849534E+00 -0.94899643125E-02  0.11013307357E+00  0.51100000000E-03 0. -1.
</event>
<event>
 8    1  0.1128641E+005  0.1043930E+01  0.7957747E-01            NaN
         13   -1    0    0    0    0  0.00000000000E+00  0.00000000000E+00  0.74505805969E-08  0.10566000000E+00  0.10566000000E+00 0.  1.
     999900   -1    0    0    0    0 -0.00000000000E+00 -0.00000000000E+00 -0.74505805969E-08  0.93827000000E+00  0.93827000000E+00 0.  1.
     999902    2    1    2    0    0 -0.18030577773E-01  0.66544158787E-02  0.12669308824E-01  0.10209105654E+01  0.10206510119E+01 0.  0.
     999903    2    3    3    0    0 -0.69073849508E-01  0.46322248980E-01 -0.99709506702E-01  0.13141185779E+00  0.20251992613E-01 0.  0.
         14    1    1    2    0    0  0.18030577773E-01 -0.66544158787E-02 -0.12669308824E-01  0.23019434649E-01  0.00000000000E+00 0.  1.
     999901    1    3    3    0    0  0.51043271735E-01 -0.39667833101E-01  0.11237881553E+00  0.88949870756E+00  0.88000000000E+00 0. -1.
        -11    1    4    4    0    0 -0.30766041802E-01  0.13151692211E-01 -0.51835786208E-01  0.61698672506E-01  0.51100000000E-03 0.  1.
         11    1    4    4    0    0 -0.38307807706E-01  0.33170556770E-01 -0.47873720494E-01  0.69713185285E-01  0.51100000000E-03 0. -1.
</event>
<event>
 8    1  0.1128641E+005  0.1043930E+01  0.7957747E-01            NaN
         13   -1    0    0    0    0  0.00000000000E+00  0.00000000000E+00  0.74505805969E-08  0.10566000000E+00  0.10566000000E+00 0. -1.
     999900   -1    0    0    0    0 -0.00000000000E+00 -0.00000000000E+00 -0.74505805969E-08  0.93827000000E+00  0.93827000000E+00 0. -1.
     999902    2    1    2    0    0  0.20953887855E-02  0.21271608455E-01 -0.84555123883E-02  0.10209437504E+01  0.10206849533E+01 0.  0.
     999903    2    3    3    0    0  0.62059601307E-01 -0.88140357946E-01 -0.71756132665E-01  0.12989175771E+00  0.10139493670E-01 0.  0.
         14    1    1    2    0    0 -0.20953887855E-02 -0.21271608455E-01  0.84555123883E-02  0.22986249590E-01  0.00000000000E+00 0.  1.
     999901    1    3    3    0    0 -0.59964212521E-01  0.10941196640E+00  0.63300620276E-01  0.89105199270E+00  0.88000000000E+00 0.  1.
        -11    1    4    4    0    0  0.37632236006E-01 -0.44896054061E-01 -0.37614660933E-01  0.69620145757E-01  0.51100000000E-03 0. -1.
         11    1    4    4    0    0  0.24427365300E-01 -0.43244303884E-01 -0.34141471732E-01  0.60271611949E-01  0.51100000000E-03 0.  1.
</event>
<event>
 8    1  0.1128641E+005  0.1043930E+01  0.7957747E-01            NaN
         13   -1    0    0    0    0  0.00000000000E+00  0.00000000000E+00  0.74505805969E-08  0.10566000000E+00  0.10566000000E+00 0.  1.
     999900   -1    0    0    0    0 -0.00000000000E+00 -0.00000000000E+00 -0.74505805969E-08  0.93827000000E+00  0.93827000000E+00 0.  1.
     999902    2    1    2    0    0  0.17523901261E-01 -0.13512234096E-01 -0.51035956377E-02  0.10212206567E+01  0.10209681265E+01 0.  0.
     999903    2    3    3    0    0  0.45153974202E-01 -0.10739711962E+00 -0.63404616068E-01  0.13387810634E+00  0.18170837339E-01 0.  0.
         14    1    1    2    0    0 -0.17523901261E-01  0.13512234096E-01  0.51035956377E-02  0.22709343322E-01  0.00000000000E+00 0.  1.
     999901    1    3    3    0    0 -0.27630072941E-01  0.93884885521E-01  0.58301020430E-01  0.88734255034E+00  0.88000000000E+00 0. -1.
        -11    1    4    4    0    0  0.12251989168E-01 -0.48711429661E-01 -0.32578138890E-01  0.59870784801E-01  0.51100000000E-03 0.  1.
         11    1    4    4    0    0  0.32901985034E-01 -0.58685689957E-01 -0.30826477178E-01  0.74007321537E-01  0.51100000000E-03 0. -1.
</event>
<event>
 8    1  0.1128641E+005  0.1043930E+01  0.7957747E-01            NaN
         13   -1    0    0    0    0  0.00000000000E+00  0.00000000000E+00  0.74505805969E-08  0.10566000000E+00  0.10566000000E+00 0.  1.
     999900   -1    0    0    0    0 -0.00000000000E+00 -0.00000000000E+00 -0.74505805969E-08  0.93827000000E+00  0.93827000000E+00 0.  1.
     999902    2    1    2    0    0 -0.58642752210E-02  0.14207591669E-01 -0.17540648311E-01  0.10206079133E+01  0.10203414100E+01 0.  0.
     999903    2    3    3    0    0  0.43005612498E-02 -0.29742310665E-01 -0.12789193798E+00  0.13256944288E+00  0.17754140739E-01 0.  0.
         14    1    1    2    0    0  0.58642752210E-02 -0.14207591669E-01  0.17540648311E-01  0.23322086701E-01  0.00000000000E+00 0.  1.
     999901    1    3    3    0    0 -0.10164836471E-01  0.43949902334E-01  0.11035128967E+00  0.88803847042E+00  0.88000000000E+00 0. -1.
        -11    1    4    4    0    0 -0.48553371764E-03 -0.12561890548E-01 -0.87665502167E-01  0.88563752338E-01  0.51100000000E-03 0.  1.
         11    1    4    4    0    0  0.47860949675E-02 -0.17180420118E-01 -0.40226435816E-01  0.44005690540E-01  0.51100000000E-03 0. -1.
</event>
<event>
 8    1  0.1128641E+005  0.1043930E+01  0.7957747E-01            NaN
         13   -1    0    0    0    0  0.00000000000E+00  0.00000000000E+00  0.74505805969E-08  0.10566000000E+00  0.10566000000E+00 0. -1.
     999900   -1    0    0    0    0 -0.00000000000E+00 -0.00000000000E+00 -0.74505805969E-08  0.93827000000E+00  0.93827000000E+00 0. -1.
     999902    2    1    2    0    0 -0.90419506581E-02 -0.92904661164E-02 -0.18941423264E-01  0.10209768489E+01  0.10207188049E+01 0.  0.
     999903    2    3    3    0    0 -0.64512631477E-01  0.10466218947E+00  0.37623600378E-01  0.13009986181E+00  0.19859134256E-01 0.  0.
         14    1    1    2    0    0  0.90419506581E-02  0.92904661164E-02  0.18941423264E-01  0.22953151148E-01  0.00000000000E+00 0. -1.
     999901    1    3    3    0    0  0.55470680819E-01 -0.11395265558E+00 -0.56565023642E-01  0.89087698704E+00  0.88000000000E+00 0. -1.
        -11    1    4    4    0    0 -0.41684248066E-01  0.81909562479E-01  0.32360611807E-01  0.97438304992E-01  0.51100000000E-03 0. -1.
         11    1    4    4    0    0 -0.22828383411E-01  0.22752626986E-01  0.52629885713E-02  0.32661556816E-01  0.51100000000E-03 0.  1.
</event>
<event>
 8    1  0.1204200E+005  0.1043930E+01  0.7957747E-01            NaN
         13   -1    0    0    0    0  0.00000000000E+00  0.00000000000E+00  0.74505805969E-08  0.10566000000E+00  0.10566000000E+00 0.  1.
     999900   -1    0    0    0    0 -0.00000000000E+00 -0.00000000000E+00 -0.74505805969E-08  0.93827000000E+00  0.93827000000E+00 0.  1.
     999902    2    1    2    0    0 -0.16668718687E-01  0.62350540776E-02 -0.16567042912E-01  0.10196156217E+01  0.10193256727E+01 0.  0.
     999903    2    3    3    0    0  0.79146236043E-01  0.76329186200E-01 -0.66806166495E-01  0.13022388435E+00  0.20122744013E-01 0.  0.
         14    1    1    2    0    0  0.16668718687E-01 -0.62350540776E-02  0.16567042912E-01  0.24314378316E-01  0.00000000000E+00 0.  1.
     999901    1    3    3    0    0 -0.95814954730E-01 -0.70094132123E-01  0.50239123583E-01  0.88939173734E+00  0.88000000000E+00 0.  1.
        -11    1    4    4    0    0  0.50078209454E-01  0.45947040699E-01 -0.29809954054E-01  0.74214904788E-01  0.51100000000E-03 0. -1.
         11    1    4    4    0    0  0.29068026589E-01  0.30382145502E-01 -0.36996212442E-01  0.56008979558E-01  0.51100000000E-03 0.  1.
</event>
<event>
 8    1  0.1128641E+005  0.1043930E+01  0.7957747E-01            NaN
         13   -1    0    0    0    0  0.00000000000E+00  0.00000000000E+00  0.74505805969E-08  0.10566000000E+00  0.10566000000E+00 0.  1.
     999900   -1    0    0    0    0 -0.00000000000E+00 -0.00000000000E+00 -0.74505805969E-08  0.93827000000E+00  0.93827000000E+00 0. -1.
     999902    2    1    2    0    0 -0.23814395459E-02 -0.61710906752E-02  0.22803555770E-01  0.10201864583E+01  0.10199101206E+01 0.  0.
     999903    2    3    3    0    0  0.10982966518E+00  0.24042364729E-01  0.65716054817E-01  0.13151010135E+00  0.18322560995E-01 0.  0.
         14    1    1    2    0    0  0.23814395459E-02  0.61710906752E-02 -0.22803555770E-01  0.23743541652E-01  0.00000000000E+00 0. -1.
     999901    1    3    3    0    0 -0.11221110473E+00 -0.30213455404E-01 -0.42912499047E-01  0.88867635700E+00  0.88000000000E+00 0. -1.
        -11    1    4    4    0    0  0.37062511840E-01  0.12403787546E-01  0.31790305692E-01  0.50382222920E-01  0.51100000000E-03 0.  1.
         11    1    4    4    0    0  0.72767153340E-01  0.11638577183E-01  0.33925749125E-01  0.81127878431E-01  0.51100000000E-03 0. -1.
</event>
<event>
 8    1  0.1128641E+005  0.1043930E+01  0.7957747E-01            NaN
         13   -1    0    0    0    0  0.00000000000E+00  0.00000000000E+00  0.74505805969E-08  0.10566000000E+00  0.10566000000E+00 0. -1.
     999900   -1    0    0    0    0 -0.00000000000E+00 -0.00000000000E+00 -0.74505805969E-08  0.93827000000E+00  0.93827000000E+00 0.  1.
     999902    2    1    2    0    0  0.47162332494E-02 -0.21963655348E-01  0.74999053520E-02  0.10202468078E+01  0.10199718894E+01 0.  0.
     999903    2    3    3    0    0 -0.25543043806E-02 -0.12921136989E+00  0.27037073320E-01  0.13349056513E+00  0.19662783742E-01 0.  0.
         14    1    1    2    0    0 -0.47162332494E-02  0.21963655348E-01 -0.74999053520E-02  0.23683192196E-01  0.00000000000E+00 0. -1.
     999901    1    3    3    0    0  0.72705376300E-02  0.10724771454E+00 -0.19537167968E-01  0.88675624268E+00  0.88000000000E+00 0. -1.
        -11    1    4    4    0    0 -0.40393145441E-02 -0.39914966244E-01  0.17153514283E-01  0.43635132239E-01  0.51100000000E-03 0. -1.
         11    1    4    4    0    0  0.14850101635E-02 -0.89296403647E-01  0.98835590371E-02  0.89855432889E-01  0.51100000000E-03 0.  1.
</event>
<event>
 8    1  0.1128641E+005  0.1043930E+01  0.7957747E-01            NaN
         13   -1    0    0    0    0  0.00000000000E+00  0.00000000000E+00  0.74505805969E-08  0.10566000000E+00  0.10566000000E+00 0.  1.
     999900   -1    0    0    0    0 -0.00000000000E+00 -0.00000000000E+00 -0.74505805969E-08  0.93827000000E+00  0.93827000000E+00 0. -1.
     999902    2    1    2    0    0 -0.16643145841E-01 -0.42517824429E-02  0.17216725347E-01  0.10196094821E+01  0.10193193849E+01 0.  0.
     999903    2    3    3    0    0  0.10828089423E+00 -0.66342572394E-01  0.88996437919E-02  0.12858172958E+00  0.18109902124E-01 0.  0.
         14    1    1    2    0    0  0.16643145841E-01  0.42517824429E-02 -0.17216725347E-01  0.24320517862E-01  0.00000000000E+00 0. -1.
     999901    1    3    3    0    0 -0.12492404007E+00  0.62090789951E-01  0.83170815546E-02  0.89102775256E+00  0.88000000000E+00 0.  1.
        -11    1    4    4    0    0  0.56646750341E-01 -0.40885774583E-01 -0.24389189250E-02  0.69905009363E-01  0.51100000000E-03 0.  1.
         11    1    4    4    0    0  0.51634143888E-01 -0.25456797811E-01  0.11338562717E-01  0.58676720216E-01  0.51100000000E-03 0. -1.
</event>
<event>
 8    1  0.1128641E+005  0.1043930E+01  0.7957747E-01            NaN
         13   -1    0    0    0    0  0.00000000000E+00  0.00000000000E+00  0.74505805969E-08  0.10566000000E+00  0.10566000000E+00 0.  1.
     999900   -1    0    0    0    0 -0.00000000000E+00 -0.00000000000E+00 -0.74505805969E-08  0.93827000000E+00  0.93827000000E+00 0.  1.
     999902    2    1    2    0    0 -0.21093423529E-01  0.12177433288E-01  0.28778791695E-02  0.10194044096E+01  0.10191093394E+01 0.  0.
     999903    2    3    3    0    0 -0.57601700207E-01  0.69757756797E-03  0.11622034998E+00  0.13131029460E+00  0.20415220714E-01 0.  0.
         14    1    1    2    0    0  0.21093423529E-01 -0.12177433288E-01 -0.28778791695E-02  0.24525590435E-01  0.00000000000E+00 0.  1.
     999901    1    3    3    0    0  0.36508276678E-01  0.11479855720E-01 -0.11334247081E+00  0.88809411497E+00  0.88000000000E+00 0.  1.
        -11    1    4    4    0    0 -0.22880639014E-01  0.83836460880E-02  0.35064375135E-01  0.42703403705E-01  0.51100000000E-03 0. -1.
         11    1    4    4    0    0 -0.34721061193E-01 -0.76860685201E-02  0.81155974843E-01  0.88606890891E-01  0.51100000000E-03 0.  1.
</event>
<event>
 8    1  0.1128641E+005  0.1043930E+01  0.7957747E-01            NaN
         13   -1    0    0    0    0  0.00000000000E+00  0.00000000000E+00  0.74505805969E-08  0.10566000000E+00  0.10566000000E+00 0.  1.
     999900   -1    0    0    0    0 -0.00000000000E+00 -0.00000000000E+00 -0.74505805969E-08  0.93827000000E+00  0.93827000000E+00 0. -1.
     999902    2    1    2    0    0 -0.68350088338E-02 -0.83837629782E-02  0.18084610603E-01  0.10228573170E+01  0.10226402266E+01 0.  0.
     999903    2    3    3    0    0 -0.10911285304E+00  0.15269806487E-02 -0.72068872452E-01  0.13230320257E+00  0.20056636400E-01 0.  0.
         14    1    1    2    0    0  0.68350088338E-02  0.83837629782E-02 -0.18084610603E-01  0.21072682983E-01  0.00000000000E+00 0. -1.
     999901    1    3    3    0    0  0.10227784421E+00 -0.99107436269E-02  0.90153483056E-01  0.89055411445E+00  0.88000000000E+00 0.  1.
        -11    1    4    4    0    0 -0.10671874786E+00 -0.19947321441E-03 -0.72841696026E-01  0.12920953810E+00  0.51100000000E-03 0. -1.
         11    1    4    4    0    0 -0.23941051835E-02  0.17264538631E-02  0.77282357412E-03  0.30936644692E-02  0.51100000000E-03 0.  1.
</event>
<event>
 8    1  0.1128641E+005  0.1043930E+01  0.7957747E-01            NaN
         13   -1    0    0    0    0  0.00000000000E+00  0.00000000000E+00  0.74505805969E-08  0.10566000000E+00  0.10566000000E+00 0.  1.
     999900   -1    0    0    0    0 -0.00000000000E+00 -0.00000000000E+00 -0.74505805969E-08  0.93827000000E+00  0.93827000000E+00 0.  1.
     999902    2    1    2    0    0 -0.15332924351E-01 -0.27100113451E-02 -0.17965116076E-01  0.10201563144E+01  0.10198792662E+01 0.  0.
     999903    2    3    3    0    0 -0.15422060240E-01  0.74285919212E-01 -0.10649806384E+00  0.13236891638E+00  0.20578014660E-01 0.  0.
         14    1    1    2    0    0  0.15332924351E-01  0.27100113451E-02  0.17965116076E-01  0.23773685584E-01  0.00000000000E+00 0.  1.
     999901    1    3    3    0    0  0.89135889383E-04 -0.76995930558E-01  0.88532947764E-01  0.88778739803E+00  0.88000000000E+00 0. -1.
        -11    1    4    4    0    0 -0.18168713305E-01  0.39340249650E-01 -0.53946171722E-01  0.69196878182E-01  0.51100000000E-03 0. -1.
         11    1    4    4    0    0  0.27466530647E-02  0.34945669563E-01 -0.52551892117E-01  0.63172038200E-01  0.51100000000E-03 0.  1.
</event>
<event>
 8    1  0.1128641E+005  0.1043930E+01  0.7957747E-01            NaN
         13   -1    0    0    0    0  0.00000000000E+00  0.00000000000E+00  0.74505805969E-08  0.10566000000E+00  0.10566000000E+00 0. -1.
     999900   -1    0    0    0    0 -0.00000000000E+00 -0.00000000000E+00 -0.74505805969E-08  0.93827000000E+00  0.93827000000E+00 0.  1.
     999902    2    1    2    0    0 -0.13501548105E-01 -0.46457470813E-02  0.19263365038E-01  0.10199518433E+01  0.10196699518E+01 0.  0.
     999903    2    3    3    0    0  0.48870168629E-01 -0.46955889098E-01 -0.10685937493E+00  0.12777062587E+00  0.17699093822E-01 0.  0.
         14    1    1    2    0    0  0.13501548105E-01  0.46457470813E-02 -0.19263365038E-01  0.23978156722E-01  0.00000000000E+00 0.  1.
     999901    1    3    3    0    0 -0.62371716734E-01  0.42310142017E-01  0.12612273996E+00  0.89218121741E+00  0.88000000000E+00 0. -1.
        -11    1    4    4    0    0  0.92242828660E-02 -0.13241395148E-01 -0.39310912000E-01  0.42497421841E-01  0.51100000000E-03 0. -1.
         11    1    4    4    0    0  0.39645885763E-01 -0.33714493950E-01 -0.67548462925E-01  0.85273204026E-01  0.51100000000E-03 0.  1.
</event>
<event>
 8    1  0.1128641E+005  0.1043930E+01  0.7957747E-01            NaN
         13   -1    0    0    0    0  0.00000000000E+00  0.00000000000E+00  0.74505805969E-08  0.10566000000E+00  0.10566000000E+00 0. -1.
     999900   -1    0    0    0    0 -0.00000000000E+00 -0.00000000000E+00 -0.74505805969E-08  0.93827000000E+00  0.93827000000E+00 0.  1.
     999902    2    1    2    0    0 -0.14554186300E-01 -0.64398385027E-02 -0.17375630742E-01  0.10203671393E+01  0.10200950400E+01 0.  0.
     999903    2    3    3    0    0 -0.45419459188E-01  0.50226882299E-01  0.10805190402E+00  0.12913437020E+00  0.20366752972E-01 0.  0.
         14    1    1    2    0    0  0.14554186300E-01  0.64398385027E-02  0.17375630742E-01  0.23562860660E-01  0.00000000000E+00 0. -1.
     999901    1    3    3    0    0  0.30865272888E-01 -0.56666720802E-01 -0.12542753476E+00  0.89123276914E+00  0.88000000000E+00 0.  1.
        -11    1    4    4    0    0 -0.42538629236E-01  0.36109181397E-01  0.79230049503E-01  0.96907532337E-01  0.51100000000E-03 0. -1.
         11    1    4    4    0    0 -0.28808299526E-02  0.14117700903E-01  0.28821854512E-01  0.32226837861E-01  0.51100000000E-03 0.  1.
</event>
<event>
 8    1  0.1128641E+005  0.1043930E+01  0.7957747E-01            NaN
         13   -1    0    0    0    0  0.00000000000E+00  0.00000000000E+00  0.74505805969E-08  0.10566000000E+00  0.10566000000E+00 0. -1.
     999900   -1    0    0    0    0 -0.00000000000E+00 -0.00000000000E+00 -0.74505805969E-08  0.93827000000E+00  0.93827000000E+00 0.  1.
     999902    2    1    2    0    0 -0.58535826977E-02  0.50735884011E-02  0.22059987842E-01  0.10205494783E+01  0.10202816224E+01 0.  0.
     999903    2    3    3    0    0  0.11705885510E+00  0.50470715551E-01  0.21423468153E-01  0.13084797127E+00  0.20301672665E-01 0.  0.
         14    1    1    2    0    0  0.58535826977E-02 -0.50735884011E-02 -0.22059987842E-01  0.23380521664E-01  0.00000000000E+00 0.  1.
     999901    1    3    3    0    0 -0.12291243779E+00 -0.45397127150E-01  0.63651968918E-03  0.88970150707E+00  0.88000000000E+00 0. -1.
        -11    1    4    4    0    0  0.22861759062E-01  0.11258050267E-01  0.12600327540E-01  0.28432957960E-01  0.51100000000E-03 0. -1.
         11    1    4    4    0    0  0.94197096034E-01  0.39212665284E-01  0.88231406127E-02  0.10241501331E+00  0.51100000000E-03 0.  1.
</event>
<event>
 8    1  0.1128641E+005  0.1043930E+01  0.7957747E-01            NaN
         13   -1    0    0    0    0  0.00000000000E+00  0.00000000000E+00  0.74505805969E-08  0.10566000000E+00  0.10566000000E+00 0. -1.
     999900   -1    0    0    0    0 -0.00000000000E+00 -0.00000000000E+00 -0.74505805969E-08  0.93827000000E+00  0.93827000000E+00 0. -1.
     999902    2    1    2    0    0 -0.18962265187E-01 -0.11722368385E-01  0.84276024798E-02  0.10200971255E+01  0.10198186798E+01 0.  0.
     999903    2    3    3    0    0 -0.17865907051E-01 -0.23591221111E-01 -0.12516636001E+00  0.12993454574E+00  0.18456222496E-01 0.  0.
         14    1    1    2    0    0  0.18962265187E-01  0.11722368385E-01 -0.84276024798E-02  0.23832874463E-01  0.00000000000E+00 0.  1.
     999901    1    3    3    0    0 -0.10963581366E-02  0.11868852726E-01  0.13359396249E+00  0.89016257980E+00  0.88000000000E+00 0.  1.
        -11    1    4    4    0    0 -0.66369884532E-02 -0.18654747666E-01 -0.50140076315E-01  0.53910459098E-01  0.51100000000E-03 0. -1.
         11    1    4    4    0    0 -0.11228918597E-01 -0.49364734452E-02 -0.75026283695E-01  0.76024086637E-01  0.51100000000E-03 0.  1.
</event>
<event>
 8    1  0.1128641E+005  0.1043930E+01  0.7957747E-01            NaN
         13   -1    0    0    0    0  0.00000000000E+00  0.00000000000E+00  0.74505805969E-08  0.10566000000E+00  0.10566000000E+00 0. -1.
     999900   -1    0    0    0    0 -0.00000000000E+00 -0.00000000000E+00 -0.74505805969E-08  0.93827000000E+00  0.93827000000E+00 0. -1.
     999902    2    1    2    0    0  0.18909375050E-01  0.91908086283E-02  0.85686441482E-02  0.10212263199E+01  0.10209739171E+01 0.  0.
     999903    2    3    3    0    0  0.26093023299E-01  0.11983758757E+00 -0.45098991711E-01  0.13264625617E+00  0.22786332848E-01 0.  0.
         14    1    1    2    0    0 -0.18909375050E-01 -0.91908086283E-02 -0.85686441482E-02  0.22703680111E-01  0.00000000000E+00 0. -1.
     999901    1    3    3    0    0 -0.71836482488E-02 -0.11064677894E+00  0.53667635859E-01  0.88858006371E+00  0.88000000000E+00 0.  1.
        -11    1    4    4    0    0  0.16049879752E-01  0.39438273019E-01 -0.24160241204E-01  0.48958700910E-01  0.51100000000E-03 0.  1.
         11    1    4    4    0    0  0.10043143547E-01  0.80399314550E-01 -0.20938750507E-01  0.83687555265E-01  0.51100000000E-03 0. -1.
</event>
<event>
 7    1  0.1128641E+005  0.1043930E+01  0.7957747E-01            NaN
         13   -1    0    0    0    0  0.00000000000E+00  0.00000000000E+00  0.74505805969E-08  0.10566000000E+00  0.10566000000E+00 0. -1.
     999900   -1    0    0    0    0 -0.00000000000E+00 -0.00000000000E+00 -0.74505805969E-08  0.93827000000E+00  0.93827000000E+00 0.  1.
     999903    2    1    2    0    0 -0.67662775768E-01 -0.12282840022E-01 -0.66677503436E-01  0.97821085534E-01  0.19848323031E-01 0.  0.
         14    1    1    2    0    0 -0.19849139644E-01 -0.53269585829E-01  0.79338575839E-02  0.57398460042E-01  0.00000000000E+00 0. -1.
     999901    1    1    2    0    0  0.87511915412E-01  0.65552425851E-01  0.58743645852E-01  0.88871045442E+00  0.88000000000E+00 0. -1.
        -11    1    3    3    0    0 -0.38493404287E-02  0.51408516665E-03  0.87692641792E-03  0.40139539406E-02  0.51100000000E-03 0.  1.
         11    1    3    3    0    0 -0.63813435339E-01 -0.12796925188E-01 -0.67554429853E-01  0.93807131594E-01  0.51100000000E-03 0. -1.
</event>
<event>
 8    1  0.1128641E+005  0.1043930E+01  0.7957747E-01            NaN
         13   -1    0    0    0    0  0.00000000000E+00  0.00000000000E+00  0.74505805969E-08  0.10566000000E+00  0.10566000000E+00 0.  1.
     999900   -1    0    0    0    0 -0.00000000000E+00 -0.00000000000E+00 -0.74505805969E-08  0.93827000000E+00  0.93827000000E+00 0. -1.
     999902    2    1    2    0    0  0.11888482951E-01  0.65859218938E-02  0.19850442838E-01  0.10198727667E+01  0.10195889906E+01 0.  0.
     999903    2    3    3    0    0 -0.10461086642E-01  0.11820900903E+00  0.54022672143E-01  0.13188236240E+00  0.19791519842E-01 0.  0.
         14    1    1    2    0    0 -0.11888482951E-01 -0.65859218938E-02 -0.19850442838E-01  0.24057233318E-01  0.00000000000E+00 0. -1.
     999901    1    3    3    0    0  0.22349569594E-01 -0.11162308713E+00 -0.34172229305E-01  0.88799040428E+00  0.88000000000E+00 0.  1.
        -11    1    4    4    0    0 -0.14960615381E-02  0.64782150970E-01  0.19622060323E-01  0.67707101967E-01  0.51100000000E-03 0.  1.
         11    1    4    4    0    0 -0.89650251043E-02  0.53426858057E-01  0.34400611820E-01  0.64175260432E-01  0.51100000000E-03 0. -1.
</event>
<event>
 8    1  0.1128641E+005  0.1043930E+01  0.7957747E-01            NaN
         13   -1    0    0    0    0  0.00000000000E+00  0.00000000000E+00  0.74505805969E-08  0.10566000000E+00  0.10566000000E+00 0. -1.
     999900   -1    0    0    0    0 -0.00000000000E+00 -0.00000000000E+00 -0.74505805969E-08  0.93827000000E+00  0.93827000000E+00 0. -1.
     999902    2    1    2    0    0  0.15893382372E-01  0.17104154452E-01  0.43557244366E-02  0.10201787045E+01  0.10199021841E+01 0.  0.
     999903    2    3    3    0    0 -0.11465974495E+00  0.49994268794E-01  0.26936316663E-01  0.12965315078E+00  0.20930607460E-01 0.  0.
         14    1    1    2    0    0 -0.15893382372E-01 -0.17104154452E-01 -0.43557244366E-02  0.23751295504E-01  0.00000000000E+00 0.  1.
     999901    1    3    3    0    0  0.13055312732E+00 -0.32890114342E-01 -0.22580592226E-01  0.89052555372E+00  0.88000000000E+00 0. -1.
        -11    1    4    4    0    0 -0.42476397697E-01  0.81110936048E-02  0.11890781350E-01  0.44851822738E-01  0.51100000000E-03 0. -1.
         11    1    4    4    0    0 -0.72183347249E-01  0.41883175189E-01  0.15045535313E-01  0.84801328043E-01  0.51100000000E-03 0.  1.
</event>
<event>
 8    1  0.1128641E+005  0.1043930E+01  0.7957747E-01            NaN
         13   -1    0    0    0    0  0.00000000000E+00  0.00000000000E+00  0.74505805969E-08  0.10566000000E+00  0.10566000000E+00 0. -1.
     999900   -1    0    0    0    0 -0.00000000000E+00 -0.00000000000E+00 -0.74505805969E-08  0.93827000000E+00  0.93827000000E+00 0.  1.
     999902    2    1    2    0    0  0.17838461373E-01 -0.13577298410E-01  0.14521328195E-02  0.10214653071E+01  0.10212182486E+01 0.  0.
     999903    2    3    3    0    0  0.40355264762E-01  0.38394690318E-01  0.11804833292E+00  0.13196951291E+00  0.19438204501E-01 0.  0.
         14    1    1    2    0    0 -0.17838461373E-01  0.13577298410E-01 -0.14521328195E-02  0.22464692876E-01  0.00000000000E+00 0.  1.
     999901    1    3    3    0    0 -0.22516803389E-01 -0.51971988728E-01 -0.11659620010E+00  0.88949579421E+00  0.88000000000E+00 0.  1.
        -11    1    4    4    0    0  0.32518958921E-01  0.37523750488E-01  0.11001174404E+00  0.12069945935E+00  0.51100000000E-03 0.  1.
         11    1    4    4    0    0  0.78363058413E-02  0.87093982975E-03  0.80365888822E-02  0.11270053562E-01  0.51100000000E-03 0. -1.
</event>
<event>
 8    1  0.1128641E+005  0.1043930E+01  0.7957747E-01            NaN
         13   -1    0    0    0    0  0.00000000000E+00  0.00000000000E+00  0.74505805969E-08  0.10566000000E+00  0.10566000000E+00 0.  1.
     999900   -1    0    0    0    0 -0.00000000000E+00 -0.00000000000E+00 -0.74505805969E-08  0.93827000000E+00  0.93827000000E+00 0. -1.
     999902    2    1    2    0    0 -0.12908441410E-01  0.22874203009E-01 -0.71588047657E-02  0.10167067469E+01  0.10163422178E+01 0.  0.
     999903    2    3    3    0    0 -0.39205141543E-01 -0.96911081333E-01  0.64673630446E-01  0.12530339852E+00  0.24278846691E-01 0.  0.
         14    1    1    2    0    0  0.12908441410E-01 -0.22874203009E-01  0.71588047657E-02  0.27223253087E-01  0.00000000000E+00 0.  1.
     999901    1    3    3    0    0  0.26296700133E-01  0.11978528434E+00 -0.71832435211E-01  0.89140334840E+00  0.88000000000E+00 0. -1.
        -11    1    4    4    0    0 -0.11181964843E-01 -0.25807160363E-01  0.30775920387E-01  0.41694894896E-01  0.51100000000E-03 0. -1.
         11    1    4    4    0    0 -0.28023176699E-01 -0.71103920970E-01  0.33897710059E-01  0.83608503622E-01  0.51100000000E-03 0.  1.
</event>
<event>
 8    1  0.1128641E+005  0.1043930E+01  0.7957747E-01            NaN
         13   -1    0    0    0    0  0.00000000000E+00  0.00000000000E+00  0.74505805969E-08  0.10566000000E+00  0.10566000000E+00 0. -1.
     999900   -1    0    0    0    0 -0.00000000000E+00 -0.00000000000E+00 -0.74505805969E-08  0.93827000000E+00  0.93827000000E+00 0.  1.
     999902    2    1    2    0    0  0.10459656082E-01 -0.35210326172E-02  0.20622846595E-01  0.10205397482E+01  0.10202716667E+01 0.  0.
     999903    2    3    3    0    0  0.65028111804E-01 -0.11131793762E+00 -0.15980219468E-01  0.13153037059E+00  0.20604184364E-01 0.  0.
         14    1    1    2    0    0 -0.10459656082E-01  0.35210326172E-02 -0.20622846595E-01  0.23390251767E-01  0.00000000000E+00 0.  1.
     999901    1    3    3    0    0 -0.54568455722E-01  0.10779690500E+00  0.36603066063E-01  0.88900937764E+00  0.88000000000E+00 0. -1.
        -11    1    4    4    0    0  0.12313690907E-01 -0.35787038621E-01  0.10327156818E-02  0.37863791935E-01  0.51100000000E-03 0.  1.
         11    1    4    4    0    0  0.52714420897E-01 -0.75530898998E-01 -0.17012935150E-01  0.93666578657E-01  0.51100000000E-03 0. -1.
</event>
<event>
 8    1  0.1128641E+005  0.1043930E+01  0.7957747E-01            NaN
         13   -1    0    0    0    0  0.00000000000E+00  0.00000000000E+00  0.74505805969E-08  0.10566000000E+00  0.10566000000E+00 0. -1.
     999900   -1    0    0    0    0 -0.00000000000E+00 -0.00000000000E+00 -0.74505805969E-08  0.93827000000E+00  0.93827000000E+00 0.  1.
     999902    2    1    2    0    0  0.48590033754E-02  0.98325933086E-02 -0.20399444817E-01  0.10207691029E+01  0.10205063127E+01 0.  0.
     999903    2    3    3    0    0 -0.12473982360E-01  0.12929698895E+00  0.69488390869E-02  0.13210712958E+00  0.23036834298E-01 0.  0.
         14    1    1    2    0    0 -0.48590033754E-02 -0.98325933086E-02  0.20399444817E-01  0.23160897085E-01  0.00000000000E+00 0. -1.
     999901    1    3    3    0    0  0.17332985736E-01 -0.11946439564E+00 -0.27348283904E-01  0.88866197334E+00  0.88000000000E+00 0. -1.
        -11    1    4    4    0    0 -0.13023927780E-01  0.89198719228E-01 -0.49268473295E-02  0.90280502614E-01  0.51100000000E-03 0.  1.
         11    1    4    4    0    0  0.54994541960E-03  0.40098269719E-01  0.11875686416E-01  0.41826626965E-01  0.51100000000E-03 0. -1.
</event>
<event>
 8    1  0.1128641E+005  0.1043930E+01  0.7957747E-01            NaN
         13   -1    0    0    0    0  0.00000000000E+00  0.00000000000E+00  0.74505805969E-08  0.10566000000E+00  0.10566000000E+00 0. -1.
     999900   -1    0    0    0    0 -0.00000000000E+00 -0.00000000000E+00 -0.74505805969E-08  0.93827000000E+00  0.93827000000E+00 0. -1.
     999902    2    1    2    0    0 -0.10033669005E-01  0.20674036530E-01 -0.79733395078E-02  0.10196058465E+01  0.10193156615E+01 0.  0.
     999903    2    3    3    0    0  0.76149058776E-01  0.10504902685E+00 -0.39888391776E-05  0.13134343477E+00  0.20423531680E-01 0.  0.
         14    1    1    2    0    0  0.10033669005E-01 -0.20674036530E-01  0.79733395078E-02  0.24324153491E-01  0.00000000000E+00 0. -1.
     999901    1    3    3    0    0 -0.86182727781E-01 -0.84374990321E-01 -0.79693506686E-02  0.88826241174E+00  0.88000000000E+00 0. -1.
        -11    1    4    4    0    0  0.73184413059E-01  0.90677451491E-01  0.18624564751E-02  0.11654221720E+00  0.51100000000E-03 0.  1.
         11    1    4    4    0    0  0.29646457167E-02  0.14371575360E-01 -0.18664453143E-02  0.14801217574E-01  0.51100000000E-03 0. -1.
</event>
<event>
 8    1  0.1128641E+005  0.1043930E+01  0.7957747E-01            NaN
         13   -1    0    0    0    0  0.00000000000E+00  0.00000000000E+00  0.74505805969E-08  0.10566000000E+00  0.10566000000E+00 0. -1.
     999900   -1    0    0    0    0 -0.00000000000E+00 -0.00000000000E+00 -0.74505805969E-08  0.93827000000E+00  0.93827000000E+00 0.  1.
     999902    2    1    2    0    0  0.17748218301E-01  0.88650106014E-02  0.96741212688E-02  0.10218579297E+01  0.10216195242E+01 0.  0.
     999903    2    3    3    0    0 -0.92100168337E-02 -0.21055711353E-01  0.12923484944E+00  0.13286031227E+00  0.20543828171E-01 0.  0.
         14    1    1    2    0    0 -0.17748218301E-01 -0.88650106014E-02 -0.96741212688E-02  0.22072070319E-01  0.00000000000E+00 0.  1.
     999901    1    3    3    0    0  0.26958235135E-01  0.29920721954E-01 -0.11956072817E+00  0.88899761741E+00  0.88000000000E+00 0.  1.
        -11    1    4    4    0    0 -0.96581079951E-02 -0.24786904941E-01  0.10437916584E+00  0.10771694894E+00  0.51100000000E-03 0. -1.
         11    1    4    4    0    0  0.44809116132E-03  0.37311935877E-02  0.24855683601E-01  0.25143363330E-01  0.51100000000E-03 0.  1.
</event>
<event>
 8    1  0.1128641E+005  0.1043930E+01  0.7957747E-01            NaN
         13   -1    0    0    0    0  0.00000000000E+00  0.00000000000E+00  0.74505805969E-08  0.10566000000E+00  0.10566000000E+00 0. -1.
     999900   -1    0    0    0    0 -0.00000000000E+00 -0.00000000000E+00 -0.74505805969E-08  0.93827000000E+00  0.93827000000E+00 0.  1.
     999902    2    1    2    0    0 -0.18239750541E-01 -0.45377899010E-02  0.15391856849E-01  0.10196361881E+01  0.10193467354E+01 0.  0.
     999903    2    3    3    0    0  0.97094030900E-01 -0.73603383943E-01  0.37915346163E-01  0.12914236729E+00  0.19886392073E-01 0.  0.
         14    1    1    2    0    0  0.18239750541E-01  0.45377899010E-02 -0.15391856849E-01  0.24293811851E-01  0.00000000000E+00 0.  1.
     999901    1    3    3    0    0 -0.11533378144E+00  0.69065594042E-01 -0.22523489314E-01  0.89049382086E+00  0.88000000000E+00 0.  1.
        -11    1    4    4    0    0  0.24788615152E-01 -0.17102963868E-01  0.18495808073E-01  0.35346044355E-01  0.51100000000E-03 0. -1.
         11    1    4    4    0    0  0.72305415748E-01 -0.56500420075E-01  0.19419538090E-01  0.93796322933E-01  0.51100000000E-03 0.  1.
</event>
<event>
 8    1  0.1128641E+005  0.1043930E+01  0.7957747E-01            NaN
         13   -1    0    0    0    0  0.00000000000E+00  0.00000000000E+00  0.74505805969E-08  0.10566000000E+00  0.10566000000E+00 0.  1.
     999900   -1    0    0    0    0 -0.00000000000E+00 -0.00000000000E+00 -0.74505805969E-08  0.93827000000E+00  0.93827000000E+00 0. -1.
     999902    2    1    2    0    0  0.15679822464E-01 -0.13044300464E-01 -0.12384390003E-01  0.10200682372E+01  0.10197891080E+01 0.  0.
     999903    2    3    3    0    0  0.28390166235E-02 -0.26185466032E-01  0.12484810450E+00  0.12924258982E+00  0.20563540054E-01 0.  0.
         14    1    1    2    0    0 -0.15679822464E-01  0.13044300464E-01  0.12384390003E-01  0.23861762777E-01  0.00000000000E+00 0.  1.
     999901    1    3    3    0    0  0.12840805840E-01  0.13141165568E-01 -0.13723249450E+00  0.89082564740E+00  0.88000000000E+00 0. -1.
        -11    1    4    4    0    0  0.83405917664E-02 -0.66934410765E-02  0.22615261898E-01  0.25021567020E-01  0.51100000000E-03 0.  1.
         11    1    4    4    0    0 -0.55015751429E-02 -0.19492024955E-01  0.10223284260E+00  0.10422102280E+00  0.51100000000E-03 0. -1.
</event>
<event>
 8    1  0.1128641E+005  0.1043930E+01  0.7957747E-01            NaN
         13   -1    0    0    0    0  0.00000000000E+00  0.00000000000E+00  0.74505805969E-08  0.10566000000E+00  0.10566000000E+00 0.  1.
     999900   -1    0    0    0    0 -0.00000000000E+00 -0.00000000000E+00 -0.74505805969E-08  0.93827000000E+00  0.93827000000E+00 0.  1.
     999902    2    1    2    0    0 -0.15374806421E-01  0.12417617261E-01  0.11742174745E-01  0.10209417300E+01  0.10206828868E+01 0.  0.
     999903    2    3    3    0    0  0.46381475420E-01 -0.43087032840E-01  0.11301282454E+00  0.13125057624E+00  0.21144304015E-01 0.  0.
         14    1    1    2    0    0  0.15374806421E-01 -0.12417617261E-01 -0.11742174745E-01  0.22988270024E-01  0.00000000000E+00 0.  1.
     999901    1    3    3    0    0 -0.61756281841E-01  0.55504650101E-01 -0.10127064979E+00  0.88969115374E+00  0.88000000000E+00 0.  1.
        -11    1    4    4    0    0  0.35806945644E-01 -0.19386123491E-01  0.71821253753E-01  0.82562175068E-01  0.51100000000E-03 0. -1.
         11    1    4    4    0    0  0.10574529776E-01 -0.23700909349E-01  0.41191570783E-01  0.48688401171E-01  0.51100000000E-03 0.  1.
</event>
<event>
 8    1  0.1128641E+005  0.1043930E+01  0.7957747E-01            NaN
         13   -1    0    0    0    0  0.00000000000E+00  0.00000000000E+00  0.74505805969E-08  0.10566000000E+00  0.10566000000E+00 0. -1.
     999900   -1    0    0    0    0 -0.00000000000E+00 -0.00000000000E+00 -0.74505805969E-08  0.93827000000E+00  0.93827000000E+00 0.  1.
     999902    2    1    2    0    0  0.46114416140E-02 -0.19295258599E-01  0.13010380410E-01  0.10202057003E+01  0.10199298155E+01 0.  0.
     999903    2    3    3    0    0 -0.46454056462E-01 -0.35432461115E-01  0.11776279361E+00  0.13237623329E+00  0.15554835930E-01 0.  0.
         14    1    1    2    0    0 -0.46114416140E-02  0.19295258599E-01 -0.13010380410E-01  0.23724299707E-01  0.00000000000E+00 0.  1.
     999901    1    3    3    0    0  0.51065498076E-01  0.16137202515E-01 -0.10475241320E+00  0.88782946700E+00  0.88000000000E+00 0.  1.
        -11    1    4    4    0    0 -0.43348416014E-01 -0.30036560728E-01  0.93776237664E-01  0.10758960927E+00  0.51100000000E-03 0.  1.
         11    1    4    4    0    0 -0.31056404476E-02 -0.53959003866E-02  0.23986555943E-01  0.24786624026E-01  0.51100000000E-03 0. -1.
</event>
<event>
 8    1  0.1128641E+005  0.1043930E+01  0.7957747E-01            NaN
         13   -1    0    0    0    0  0.00000000000E+00  0.00000000000E+00  0.74505805969E-08  0.10566000000E+00  0.10566000000E+00 0.  1.
     999900   -1    0    0    0    0 -0.00000000000E+00 -0.00000000000E+00 -0.74505805969E-08  0.93827000000E+00  0.93827000000E+00 0.  1.
     999902    2    1    2    0    0  0.19712342149E-01  0.63659651752E-02  0.12365200537E-01  0.10198053211E+01  0.10195199326E+01 0.  0.
     999903    2    3    3    0    0 -0.43037151633E-01 -0.10702950040E+00 -0.51882386437E-01  0.12799604612E+00  0.19588144974E-01 0.  0.
         14    1    1    2    0    0 -0.19712342149E-01 -0.63659651752E-02 -0.12365200537E-01  0.24124678856E-01  0.00000000000E+00 0. -1.
     999901    1    3    3    0    0  0.62749493782E-01  0.11339546558E+00  0.64247586973E-01  0.89180927502E+00  0.88000000000E+00 0. -1.
        -11    1    4    4    0    0 -0.73874053687E-02 -0.31187298999E-01 -0.65515978484E-02  0.32717058736E-01  0.51100000000E-03 0.  1.
         11    1    4    4    0    0 -0.35649746265E-01 -0.75842201402E-01 -0.45330788588E-01  0.95278987386E-01  0.51100000000E-03 0. -1.
</event>
<event>
 8    1  0.1128641E+005  0.1043930E+01  0.7957747E-01            NaN
         13   -1    0    0    0    0  0.00000000000E+00  0.00000000000E+00  0.74505805969E-08  0.10566000000E+00  0.10566000000E+00 0. -1.
     999900   -1    0    0    0    0 -0.00000000000E+00 -0.00000000000E+00 -0.74505805969E-08  0.93827000000E+00  0.93827000000E+00 0.  1.
     999902    2    1    2    0    0 -0.15982850049E-01 -0.16224741764E-01  0.44973854423E-02  0.10207153448E+01  0.10204513192E+01 0.  0.
     999903    2    3    3    0    0  0.46976481092E-01 -0.12090830576E+00  0.15482009841E-01  0.13220918953E+00  0.20346227944E-01 0.  0.
         14    1    1    2    0    0  0.15982850049E-01  0.16224741764E-01 -0.44973854423E-02  0.23214655216E-01  0.00000000000E+00 0.  1.
     999901    1    3    3    0    0 -0.62959331141E-01  0.10468356399E+00 -0.10984624398E-01  0.88850615525E+00  0.88000000000E+00 0.  1.
        -11    1    4    4    0    0  0.24738519961E-01 -0.52109166568E-01  0.16138588961E-01  0.59900540773E-01  0.51100000000E-03 0. -1.
         11    1    4    4    0    0  0.22237961131E-01 -0.68799139187E-01 -0.65657912000E-03  0.72308648759E-01  0.51100000000E-03 0.  1.
</event>
<event>
 8    1  0.1128641E+005  0.1043930E+01  0.7957747E-01            NaN
         13   -1    0    0    0    0  0.00000000000E+00  0.00000000000E+00  0.74505805969E-08  0.10566000000E+00  0.10566000000E+00 0.  1.
     999900   -1    0    0    0    0 -0.00000000000E+00 -0.00000000000E+00 -0.74505805969E-08  0.93827000000E+00  0.93827000000E+00 0. -1.
     999902    2    1    2    0    0  0.23382536206E-01 -0.63027844254E-02  0.11356514030E-03  0.10197126304E+01  0.10194250182E+01 0.  0.
     999903    2    3    3    0    0 -0.47960039274E-01 -0.97472632528E-01  0.67797321765E-01  0.12955377092E+00  0.19662737937E-01 0.  0.
         14    1    1    2    0    0 -0.23382536206E-01  0.63027844254E-02 -0.11356514030E-03  0.24217369551E-01  0.00000000000E+00 0.  1.
     999901    1    3    3    0    0  0.71342575480E-01  0.91169848103E-01 -0.67683756624E-01  0.89015885952E+00  0.88000000000E+00 0. -1.
        -11    1    4    4    0    0 -0.10339099909E-01 -0.88301386035E-02  0.45626752111E-02  0.14350869686E-01  0.51100000000E-03 0.  1.
         11    1    4    4    0    0 -0.37620939366E-01 -0.88642493925E-01  0.63234646554E-01  0.11520290124E+00  0.51100000000E-03 0. -1.
</event>
<event>
 8    1  0.1128641E+005  0.1043930E+01  0.7957747E-01            NaN
         13   -1    0    0    0    0  0.00000000000E+00  0.00000000000E+00  0.74505805969E-08  0.10566000000E+00  0.10566000000E+00 0. -1.
     999900   -1    0    0    0    0 -0.00000000000E+00 -0.00000000000E+00 -0.74505805969E-08  0.93827000000E+00  0.93827000000E+00 0. -1.
     999902    2    1    2    0    0  0.19017507197E-01 -0.14858194566E-01 -0.32310250059E-03  0.10197942191E+01  0.10195085646E+01 0.  0.
     999903    2    3    3    0    0 -0.63171394886E-01 -0.98129597483E-01  0.54515232464E-01  0.13035822635E+00  0.20032812393E-01 0.  0.
         14    1    1    2    0    0 -0.19017507197E-01  0.14858194566E-01  0.32310250059E-03  0.24135780927E-01  0.00000000000E+00 0.  1.
     999901    1    3    3    0    0  0.82188902083E-01  0.83271402917E-01 -0.54838334964E-01  0.88943599272E+00  0.88000000000E+00 0. -1.
        -11    1    4    4    0    0 -0.28637880330E-01 -0.58391604321E-01  0.22932676497E-01  0.68962862595E-01  0.51100000000E-03 0.  1.
         11    1    4    4    0    0 -0.34533514557E-01 -0.39737993162E-01  0.31582555967E-01  0.61395363755E-01  0.51100000000E-03 0. -1.
</event>
<event>
 8    1  0.1128641E+005  0.1043930E+01  0.7957747E-01            NaN
         13   -1    0    0    0    0  0.00000000000E+00  0.00000000000E+00  0.74505805969E-08  0.10566000000E+00  0.10566000000E+00 0. -1.
     999900   -1    0    0    0    0 -0.00000000000E+00 -0.00000000000E+00 -0.74505805969E-08  0.93827000000E+00  0.93827000000E+00 0.  1.
     999902    2    1    2    0    0 -0.48320141875E-02 -0.18479397820E-01 -0.11866557101E-01  0.10214432999E+01  0.10211957516E+01 0.  0.
     999903    2    3    3    0    0 -0.95360165637E-01 -0.41636597254E-01 -0.81788015250E-01  0.13373804902E+00  0.19220273056E-01 0.  0.
         14    1    1    2    0    0  0.48320141875E-02  0.18479397820E-01  0.11866557101E-01  0.22486700121E-01  0.00000000000E+00 0. -1.
     999901    1    3    3    0    0  0.90528151450E-01  0.23157199433E-01  0.69921458149E-01  0.88770525086E+00  0.88000000000E+00 0. -1.
        -11    1    4    4    0    0 -0.82005305291E-01 -0.30880814939E-01 -0.60921192995E-01  0.10672463494E+00  0.51100000000E-03 0. -1.
         11    1    4    4    0    0 -0.13354860346E-01 -0.10755782315E-01 -0.20866822255E-01  0.27013414076E-01  0.51100000000E-03 0.  1.
</event>
<event>
 8    1  0.1288923E+005  0.1043930E+01  0.7957747E-01            NaN
         13   -1    0    0    0    0  0.00000000000E+00  0.00000000000E+00  0.74505805969E-08  0.10566000000E+00  0.10566000000E+00 0.  1.
     999900   -1    0    0    0    0 -0.00000000000E+00 -0.00000000000E+00 -0.74505805969E-08  0.93827000000E+00  0.93827000000E+00 0.  1.
     999902    2    1    2    0    0 -0.11142604289E-01  0.20035190423E-01 -0.38999410808E-02  0.10206754085E+01  0.10204104632E+01 0.  0.
     999903    2    3    3    0    0 -0.40663951363E-01  0.58419621042E-01 -0.10939929117E+00  0.13305218476E+00  0.25850916740E-01 0.  0.
         14    1    1    2    0    0  0.11142604289E-01 -0.20035190423E-01  0.38999410808E-02  0.23254591505E-01  0.00000000000E+00 0. -1.
     999901    1    3    3    0    0  0.29521347073E-01 -0.38384430619E-01  0.10549935009E+00  0.88762322374E+00  0.88000000000E+00 0. -1.
        -11    1    4    4    0    0 -0.22822445586E-01  0.47607666962E-01 -0.63155272621E-01  0.82317698929E-01  0.51100000000E-03 0. -1.
         11    1    4    4    0    0 -0.17841505777E-01  0.10811954080E-01 -0.46244018553E-01  0.50734485830E-01  0.51100000000E-03 0.  1.
</event>
<event>
 8    1  0.1128641E+005  0.1043930E+01  0.7957747E-01            NaN
         13   -1    0    0    0    0  0.00000000000E+00  0.00000000000E+00  0.74505805969E-08  0.10566000000E+00  0.10566000000E+00 0.  1.
     999900   -1    0    0    0    0 -0.00000000000E+00 -0.00000000000E+00 -0.74505805969E-08  0.93827000000E+00  0.93827000000E+00 0.  1.
     999902    2    1    2    0    0  0.82872747272E-02  0.87510353141E-02 -0.11929874505E-01  0.10269717735E+01  0.10268317496E+01 0.  0.
     999903    2    3    3    0    0  0.61972105521E-01 -0.11858823266E+00  0.13174373353E-01  0.13583341525E+00  0.19324642187E-01 0.  0.
         14    1    1    2    0    0 -0.82872747272E-02 -0.87510353141E-02  0.11929874505E-01  0.16958226534E-01  0.00000000000E+00 0. -1.
     999901    1    3    3    0    0 -0.53684830793E-01  0.12733926798E+00 -0.25104247858E-01  0.89113835822E+00  0.88000000000E+00 0. -1.
        -11    1    4    4    0    0  0.33545111244E-01 -0.78557516258E-01  0.14860672170E-01  0.86704432109E-01  0.51100000000E-03 0.  1.
         11    1    4    4    0    0  0.28426994277E-01 -0.40030716406E-01 -0.16862988167E-02  0.49128983139E-01  0.51100000000E-03 0. -1.
</event>
<event>
 8    1  0.1128641E+005  0.1043930E+01  0.7957747E-01            NaN
         13   -1    0    0    0    0  0.00000000000E+00  0.00000000000E+00  0.74505805969E-08  0.10566000000E+00  0.10566000000E+00 0. -1.
     999900   -1    0    0    0    0 -0.00000000000E+00 -0.00000000000E+00 -0.74505805969E-08  0.93827000000E+00  0.93827000000E+00 0.  1.
     999902    2    1    2    0    0 -0.15971295537E-01  0.16260619949E-01  0.79471919148E-02  0.10197918994E+01  0.10195061894E+01 0.  0.
     999903    2    3    3    0    0 -0.33895474659E-01 -0.35166849143E-01 -0.11792098385E+00  0.12916916306E+00  0.19841969971E-01 0.  0.
         14    1    1    2    0    0  0.15971295537E-01 -0.16260619949E-01 -0.79471919148E-02  0.24138100621E-01  0.00000000000E+00 0. -1.
     999901    1    3    3    0    0  0.17924179122E-01  0.51427469092E-01  0.12586817577E+00  0.89062273632E+00  0.88000000000E+00 0. -1.
        -11    1    4    4    0    0 -0.17281410025E-01 -0.24467237668E-01 -0.48667561613E-01  0.57149676516E-01  0.51100000000E-03 0. -1.
         11    1    4    4    0    0 -0.16614064633E-01 -0.10699611474E-01 -0.69253422240E-01  0.72019486546E-01  0.51100000000E-03 0.  1.
</event>
<event>
 8    1  0.1128641E+005  0.1043930E+01  0.7957747E-01            NaN
         13   -1    0    0    0    0  0.00000000000E+00  0.00000000000E+00  0.74505805969E-08  0.10566000000E+00  0.10566000000E+00 0. -1.
     999900   -1    0    0    0    0 -0.00000000000E+00 -0.00000000000E+00 -0.74505805969E-08  0.93827000000E+00  0.93827000000E+00 0.  1.
     999902    2    1    2    0    0 -0.19316149490E-01  0.15313138306E-01  0.16030549364E-01  0.10145261848E+01  0.10140999927E+01 0.  0.
     999903    2    3    3    0    0 -0.37864810663E-01 -0.11676655318E+00  0.14299950601E-02  0.12435638418E+00  0.19856826865E-01 0.  0.
         14    1    1    2    0    0  0.19316149490E-01 -0.15313138306E-01 -0.16030549364E-01  0.29403815209E-01  0.00000000000E+00 0. -1.
     999901    1    3    3    0    0  0.18548661173E-01  0.13207969148E+00  0.14600554304E-01  0.89016980061E+00  0.88000000000E+00 0. -1.
        -11    1    4    4    0    0 -0.24311113274E-01 -0.52369026363E-01 -0.63521410742E-02  0.58087485469E-01  0.51100000000E-03 0. -1.
         11    1    4    4    0    0 -0.13553697389E-01 -0.64397526814E-01  0.77821361343E-02  0.66268898712E-01  0.51100000000E-03 0.  1.
</event>
<event>
 7    1  0.1128641E+005  0.1043930E+01  0.7957747E-01            NaN
         13   -1    0    0    0    0  0.00000000000E+00  0.00000000000E+00  0.74505805969E-08  0.10566000000E+00  0.10566000000E+00 0. -1.
     999900   -1    0    0    0    0 -0.00000000000E+00 -0.00000000000E+00 -0.74505805969E-08  0.93827000000E+00  0.93827000000E+00 0.  1.
     999903    2    1    2    0    0 -0.45737327675E-01 -0.66013484825E-02  0.64718188828E-01  0.81845605204E-01  0.19359188552E-01 0.  0.
         14    1    1    2    0    0  0.66219397100E-01 -0.13371280253E-01 -0.45425648098E-01  0.81408164167E-01  0.00000000000E+00 0.  1.
     999901    1    1    2    0    0 -0.20482069426E-01  0.19972628736E-01 -0.19292540730E-01  0.88067623063E+00  0.88000000000E+00 0.  1.
        -11    1    3    3    0    0 -0.41278445608E-01  0.17829214195E-03  0.48400906568E-01  0.63614862552E-01  0.51100000000E-03 0. -1.
         11    1    3    3    0    0 -0.44588820663E-02 -0.67796406245E-02  0.16317282260E-01  0.18230742652E-01  0.51100000000E-03 0.  1.
</event>
<event>
 8    1  0.1128641E+005  0.1043930E+01  0.7957747E-01            NaN
         13   -1    0    0    0    0  0.00000000000E+00  0.00000000000E+00  0.74505805969E-08  0.10566000000E+00  0.10566000000E+00 0.  1.
     999900   -1    0    0    0    0 -0.00000000000E+00 -0.00000000000E+00 -0.74505805969E-08  0.93827000000E+00  0.93827000000E+00 0.  1.
     999902    2    1    2    0    0  0.13887186160E-01 -0.13501459710E-01 -0.15369471855E-01  0.10192042236E+01  0.10189042572E+01 0.  0.
     999903    2    3    3    0    0  0.77669959074E-01 -0.89226429385E-01 -0.56747977163E-01  0.13268592494E+00  0.19779876670E-01 0.  0.
         14    1    1    2    0    0 -0.13887186160E-01  0.13501459710E-01  0.15369471855E-01  0.24725776406E-01  0.00000000000E+00 0.  1.
     999901    1    3    3    0    0 -0.63782772913E-01  0.75724969675E-01  0.41378505308E-01  0.88651829866E+00  0.88000000000E+00 0. -1.
        -11    1    4    4    0    0  0.64900731567E-01 -0.64296189888E-01 -0.48751013774E-01  0.10355205192E+00  0.51100000000E-03 0. -1.
         11    1    4    4    0    0  0.12769227507E-01 -0.24930239497E-01 -0.79969633893E-02  0.29133873016E-01  0.51100000000E-03 0.  1.
</event>
<event>
 8    1  0.1128641E+005  0.1043930E+01  0.7957747E-01            NaN
         13   -1    0    0    0    0  0.00000000000E+00  0.00000000000E+00  0.74505805969E-08  0.10566000000E+00  0.10566000000E+00 0.  1.
     999900   -1    0    0    0    0 -0.00000000000E+00 -0.00000000000E+00 -0.74505805969E-08  0.93827000000E+00  0.93827000000E+00 0.  1.
     999902    2    1    2    0    0  0.18469872373E-01 -0.14000538933E-01  0.29630972607E-02  0.10205648289E+01  0.10202973286E+01 0.  0.
     999903    2    3    3    0    0  0.19106381927E-01  0.12552331385E+00  0.15876599989E-01  0.12947893561E+00  0.19788183077E-01 0.  0.
         14    1    1    2    0    0 -0.18469872373E-01  0.14000538933E-01 -0.29630972607E-02  0.23365171116E-01  0.00000000000E+00 0.  1.
     999901    1    3    3    0    0 -0.63650955453E-03 -0.13952385278E+00 -0.12913502728E-01  0.89108589327E+00  0.88000000000E+00 0. -1.
        -11    1    4    4    0    0  0.98408927374E-02  0.47636960067E-01  0.15451762349E-01  0.51040584000E-01  0.51100000000E-03 0.  1.
         11    1    4    4    0    0  0.92654891899E-02  0.77886353782E-01  0.42483763976E-03  0.78438351610E-01  0.51100000000E-03 0. -1.
</event>
<event>
 8    1  0.1128641E+005  0.1043930E+01  0.7957747E-01            NaN
         13   -1    0    0    0    0  0.00000000000E+00  0.00000000000E+00  0.74505805969E-08  0.10566000000E+00  0.10566000000E+00 0.  1.
     999900   -1    0    0    0    0 -0.00000000000E+00 -0.00000000000E+00 -0.74505805969E-08  0.93827000000E+00  0.93827000000E+00 0. -1.
     999902    2    1    2    0    0  0.17020746090E-01  0.15743646097E-01 -0.69057736341E-03  0.10207342011E+01  0.10204706092E+01 0.  0.
     999903    2    3    3    0    0  0.10935112952E+00 -0.57413449702E-01  0.39899780966E-01  0.13195726757E+00  0.23806600149E-01 0.  0.
         14    1    1    2    0    0 -0.17020746090E-01 -0.15743646097E-01  0.69057736341E-03  0.23195798908E-01  0.00000000000E+00 0. -1.
     999901    1    3    3    0    0 -0.92330383426E-01  0.73157095799E-01 -0.40590358330E-01  0.88877693352E+00  0.88000000000E+00 0. -1.
        -11    1    4    4    0    0  0.78131299706E-01 -0.30072255948E-01  0.20772018450E-01  0.86258787628E-01  0.51100000000E-03 0. -1.
         11    1    4    4    0    0  0.31219829810E-01 -0.27341193754E-01  0.19127762516E-01  0.45698479943E-01  0.51100000000E-03 0.  1.
</event>
<event>
 8    1  0.1128641E+005  0.1043930E+01  0.7957747E-01            NaN
         13   -1    0    0    0    0  0.00000000000E+00  0.00000000000E+00  0.74505805969E-08  0.10566000000E+00  0.10566000000E+00 0.  1.
     999900   -1    0    0    0    0 -0.00000000000E+00 -0.00000000000E+00 -0.74505805969E-08  0.93827000000E+00  0.93827000000E+00 0.  1.
     999902    2    1    2    0    0  0.17335529061E-01 -0.14317651255E-01 -0.67056868158E-02  0.10204676484E+01  0.10201978924E+01 0.  0.
     999903    2    3    3    0    0 -0.77204284287E-02  0.12586863377E+00 -0.18017303514E-01  0.12894762724E+00  0.20008732198E-01 0.  0.
         14    1    1    2    0    0 -0.17335529061E-01  0.14317651255E-01  0.67056868158E-02  0.23462351565E-01  0.00000000000E+00 0.  1.
     999901    1    3    3    0    0  0.25055957489E-01 -0.14018628502E+00  0.11311616698E-01  0.89152002119E+00  0.88000000000E+00 0. -1.
        -11    1    4    4    0    0 -0.33165875972E-02  0.56526709341E-01  0.19250348411E-02  0.56658940180E-01  0.51100000000E-03 0.  1.
         11    1    4    4    0    0 -0.44038408315E-02  0.69341924426E-01 -0.19942338355E-01  0.72288687063E-01  0.51100000000E-03 0. -1.
</event>
<event>
 8    1  0.1128641E+005  0.1043930E+01  0.7957747E-01            NaN
         13   -1    0    0    0    0  0.00000000000E+00  0.00000000000E+00  0.74505805969E-08  0.10566000000E+00  0.10566000000E+00 0. -1.
     999900   -1    0    0    0    0 -0.00000000000E+00 -0.00000000000E+00 -0.74505805969E-08  0.93827000000E+00  0.93827000000E+00 0. -1.
     999902    2    1    2    0    0  0.12440964235E-01 -0.16206948366E-01 -0.11556918705E-01  0.10204565014E+01  0.10201864860E+01 0.  0.
     999903    2    3    3    0    0  0.88980427874E-01 -0.96350433834E-01 -0.13233955759E-01  0.13350437180E+00  0.21150816996E-01 0.  0.
         14    1    1    2    0    0 -0.12440964235E-01  0.16206948366E-01  0.11556918705E-01  0.23473498597E-01  0.00000000000E+00 0.  1.
     999901    1    3    3    0    0 -0.76539463640E-01  0.80143485468E-01  0.16770370541E-02  0.88695212960E+00  0.88000000000E+00 0. -1.
        -11    1    4    4    0    0  0.23240160592E-01 -0.17797949230E-01  0.42697076796E-02  0.29586543999E-01  0.51100000000E-03 0.  1.
         11    1    4    4    0    0  0.65740267283E-01 -0.78552484604E-01 -0.17503663438E-01  0.10391782780E+00  0.51100000000E-03 0. -1.
</event>
<event>
 8    1  0.1128641E+005  0.1043930E+01  0.7957747E-01            NaN
         13   -1    0    0    0    0  0.00000000000E+00  0.00000000000E+00  0.74505805969E-08  0.10566000000E+00  0.10566000000E+00 0. -1.
     999900   -1    0    0    0    0 -0.00000000000E+00 -0.00000000000E+00 -0.74505805969E-08  0.93827000000E+00  0.93827000000E+00 0.  1.
     999902    2    1    2    0    0 -0.24583956241E-02  0.14331070390E-01  0.18352326237E-01  0.10205156632E+01  0.10202470229E+01 0.  0.
     999903    2    3    3    0    0 -0.76523639242E-01  0.10243489589E+00 -0.12350473822E-01  0.13248942134E+00  0.32436666024E-01 0.  0.
         14    1    1    2    0    0  0.24583956241E-02 -0.14331070390E-01 -0.18352326237E-01  0.23414336759E-01  0.00000000000E+00 0. -1.
     999901    1    3    3    0    0  0.74065243618E-01 -0.88103825504E-01  0.30702800059E-01  0.88802624191E+00  0.88000000000E+00 0. -1.
        -11    1    4    4    0    0 -0.40485982185E-01  0.49611620587E-01  0.98671124861E-02  0.64792350479E-01  0.51100000000E-03 0.  1.
         11    1    4    4    0    0 -0.36037657057E-01  0.52823275307E-01 -0.22217586308E-01  0.67697070857E-01  0.51100000000E-03 0. -1.
</event>
<event>
 8    1  0.1128641E+005  0.1043930E+01  0.7957747E-01            NaN
         13   -1    0    0    0    0  0.00000000000E+00  0.00000000000E+00  0.74505805969E-08  0.10566000000E+00  0.10566000000E+00 0.  1.
     999900   -1    0    0    0    0 -0.00000000000E+00 -0.00000000000E+00 -0.74505805969E-08  0.93827000000E+00  0.93827000000E+00 0. -1.
     999902    2    1    2    0    0  0.13551554830E-01  0.15716659994E-01 -0.10196412479E-01  0.10208080436E+01  0.10205461465E+01 0.  0.
     999903    2    3    3    0    0  0.52648365571E-01  0.23023555846E-01 -0.11849787482E+00  0.13327711002E+00  0.20472107777E-01 0.  0.
         14    1    1    2    0    0 -0.13551554830E-01 -0.15716659994E-01  0.10196412479E-01  0.23121956386E-01  0.00000000000E+00 0.  1.
     999901    1    3    3    0    0 -0.39096810740E-01 -0.73068958518E-02  0.10830146235E+00  0.88753093359E+00  0.88000000000E+00 0.  1.
        -11    1    4    4    0    0  0.38645081443E-01  0.21441214274E-01 -0.70129190022E-01  0.82894706727E-01  0.51100000000E-03 0. -1.
         11    1    4    4    0    0  0.14003284128E-01  0.15823415711E-02 -0.48368684802E-01  0.50382403294E-01  0.51100000000E-03 0.  1.
</event>
<event>
 8    1  0.1128641E+005  0.1043930E+01  0.7957747E-01            NaN
         13   -1    0    0    0    0  0.00000000000E+00  0.00000000000E+00  0.74505805969E-08  0.10566000000E+00  0.10566000000E+00 0.  1.
     999900   -1    0    0    0    0 -0.00000000000E+00 -0.00000000000E+00 -0.74505805969E-08  0.93827000000E+00  0.93827000000E+00 0. -1.
     999902    2    1    2    0    0 -0.16522233768E-01 -0.12699733731E-01  0.11789711437E-01  0.10199870524E+01  0.10197059980E+01 0.  0.
     999903    2    3    3    0    0  0.10656527021E+00 -0.61907377587E-01  0.34549321365E-01  0.12976801994E+00  0.21386986188E-01 0.  0.
         14    1    1    2    0    0  0.16522233768E-01  0.12699733731E-01 -0.11789711437E-01  0.23942947631E-01  0.00000000000E+00 0. -1.
     999901    1    3    3    0    0 -0.12308750398E+00  0.49207643856E-01 -0.22759609927E-01  0.89021903243E+00  0.88000000000E+00 0.  1.
        -11    1    4    4    0    0  0.21722699359E-01 -0.23051203436E-01  0.66514755309E-02  0.32368764188E-01  0.51100000000E-03 0.  1.
         11    1    4    4    0    0  0.84842570852E-01 -0.38856174150E-01  0.27897845834E-01  0.97399255755E-01  0.51100000000E-03 0. -1.
</event>
<event>
 8    1  0.1128641E+005  0.1043930E+01  0.7957747E-01            NaN
         13   -1    0    0    0    0  0.00000000000E+00  0.00000000000E+00  0.74505805969E-08  0.10566000000E+00  0.10566000000E+00 0. -1.
     999900   -1    0    0    0    0 -0.00000000000E+00 -0.00000000000E+00 -0.74505805969E-08  0.93827000000E+00  0.93827000000E+00 0.  1.
     999902    2    1    2    0    0  0.19996541361E-01 -0.11859421943E-01 -0.25398639947E-03  0.10206797943E+01  0.10204149501E+01 0.  0.
     999903    2    3    3    0    0  0.18814720488E-01 -0.19803042243E-01  0.12717571506E+00  0.13146506962E+00  0.19059061870E-01 0.  0.
         14    1    1    2    0    0 -0.19996541361E-01  0.11859421943E-01  0.25398639947E-03  0.23250205683E-01  0.00000000000E+00 0. -1.
     999901    1    3    3    0    0  0.11818208722E-02  0.79436202998E-02 -0.12742970146E+00  0.88921472470E+00  0.88000000000E+00 0.  1.
        -11    1    4    4    0    0  0.17204150153E-01 -0.23186616980E-01  0.11905330248E+00  0.12250531393E+00  0.51100000000E-03 0.  1.
         11    1    4    4    0    0  0.16105703355E-02  0.33835747370E-02  0.81224125833E-02  0.89597556875E-02  0.51100000000E-03 0. -1.
</event>
<event>
 8    1  0.1219733E+005  0.1043930E+01  0.7957747E-01            NaN
         13   -1    0    0    0    0  0.00000000000E+00  0.00000000000E+00  0.74505805969E-08  0.10566000000E+00  0.10566000000E+00 0. -1.
     999900   -1    0    0    0    0 -0.00000000000E+00 -0.00000000000E+00 -0.74505805969E-08  0.93827000000E+00  0.93827000000E+00 0.  1.
     999902    2    1    2    0    0  0.23899979974E-01 -0.17118082560E-02 -0.37864061215E-02  0.10196714716E+01  0.10193828691E+01 0.  0.
     999903    2    3    3    0    0  0.10165946029E+00  0.70656448664E-01 -0.42796896120E-01  0.13242544046E+00  0.19440765375E-01 0.  0.
         14    1    1    2    0    0 -0.23899979974E-01  0.17118082560E-02  0.37864061215E-02  0.24258528430E-01  0.00000000000E+00 0. -1.
     999901    1    3    3    0    0 -0.77759480321E-01 -0.72368256920E-01  0.39010489998E-01  0.88724603111E+00  0.88000000000E+00 0.  1.
        -11    1    4    4    0    0  0.66847833211E-01  0.36810537093E-01 -0.20660288002E-01  0.79061729474E-01  0.51100000000E-03 0.  1.
         11    1    4    4    0    0  0.34811627084E-01  0.33845911571E-01 -0.22136608117E-01  0.53363710986E-01  0.51100000000E-03 0. -1.
</event>
<event>
 8    1  0.1128641E+005  0.1043930E+01  0.7957747E-01            NaN
         13   -1    0    0    0    0  0.00000000000E+00  0.00000000000E+00  0.74505805969E-08  0.10566000000E+00  0.10566000000E+00 0.  1.
     999900   -1    0    0    0    0 -0.00000000000E+00 -0.00000000000E+00 -0.74505805969E-08  0.93827000000E+00  0.93827000000E+00 0. -1.
     999902    2    1    2    0    0  0.12527504834E-01 -0.19782098997E-01 -0.37471885401E-02  0.10202168973E+01  0.10199412759E+01 0.  0.
     999903    2    3    3    0    0 -0.12131269327E+00 -0.14923554889E-01 -0.37704440488E-01  0.12943639737E+00  0.19816005954E-01 0.  0.
         14    1    1    2    0    0 -0.12527504834E-01  0.19782098997E-01  0.37471885401E-02  0.23713102708E-01  0.00000000000E+00 0.  1.
     999901    1    3    3    0    0  0.13384019811E+00 -0.48585441078E-02  0.33957251948E-01  0.89078049992E+00  0.88000000000E+00 0. -1.
        -11    1    4    4    0    0 -0.65700146941E-01 -0.83827132838E-03 -0.13042327189E-01  0.66989368011E-01  0.51100000000E-03 0. -1.
         11    1    4    4    0    0 -0.55612546332E-01 -0.14085283561E-01 -0.24662113299E-01  0.62447029360E-01  0.51100000000E-03 0.  1.
</event>
<event>
 8    1  0.1128641E+005  0.1043930E+01  0.7957747E-01            NaN
         13   -1    0    0    0    0  0.00000000000E+00  0.00000000000E+00  0.74505805969E-08  0.10566000000E+00  0.10566000000E+00 0. -1.
     999900   -1    0    0    0    0 -0.00000000000E+00 -0.00000000000E+00 -0.74505805969E-08  0.93827000000E+00  0.93827000000E+00 0. -1.
     999902    2    1    2    0    0 -0.16703029970E-02 -0.20599554323E-01 -0.73486004616E-02  0.10219952449E+01  0.10217598285E+01 0.  0.
     999903    2    3    3    0    0 -0.10401229528E+00 -0.23328028788E-01  0.76769625697E-01  0.13207547108E+00  0.13696719795E-01 0.  0.
         14    1    1    2    0    0  0.16703029970E-02  0.20599554323E-01  0.73486004616E-02  0.21934755051E-01  0.00000000000E+00 0. -1.
     999901    1    3    3    0    0  0.10234199229E+00  0.27284744657E-02 -0.84118226159E-01  0.88991977387E+00  0.88000000000E+00 0. -1.
        -11    1    4    4    0    0 -0.37977263163E-01 -0.18966655607E-02  0.26049986765E-01  0.46094823886E-01  0.51100000000E-03 0.  1.
         11    1    4    4    0    0 -0.66035032120E-01 -0.21431363227E-01  0.50719638933E-01  0.85980647191E-01  0.51100000000E-03 0. -1.
</event>
<event>
 8    1  0.1128641E+005  0.1043930E+01  0.7957747E-01            NaN
         13   -1    0    0    0    0  0.00000000000E+00  0.00000000000E+00  0.74505805969E-08  0.10566000000E+00  0.10566000000E+00 0.  1.
     999900   -1    0    0    0    0 -0.00000000000E+00 -0.00000000000E+00 -0.74505805969E-08  0.93827000000E+00  0.93827000000E+00 0.  1.
     999902    2    1    2    0    0  0.20538263337E-01 -0.17887652382E-01 -0.57659211202E-02  0.10160905637E+01  0.10157091116E+01 0.  0.
     999903    2    3    3    0    0  0.10618938993E+00 -0.11161050324E-01  0.69086262596E-01  0.12874383771E+00  0.20032685580E-01 0.  0.
         14    1    1    2    0    0 -0.20538263337E-01  0.17887652382E-01  0.57659211202E-02  0.27839436327E-01  0.00000000000E+00 0. -1.
     999901    1    3    3    0    0 -0.85651126595E-01 -0.67266020584E-02 -0.74852183716E-01  0.88734672596E+00  0.88000000000E+00 0.  1.
        -11    1    4    4    0    0  0.57635652679E-01  0.25589569883E-02  0.30771343948E-01  0.65387716353E-01  0.51100000000E-03 0. -1.
         11    1    4    4    0    0  0.48553737253E-01 -0.13720007312E-01  0.38314918648E-01  0.63356121361E-01  0.51100000000E-03 0.  1.
</event>
<event>
 8    1  0.1128641E+005  0.1043930E+01  0.7957747E-01            NaN
         13   -1    0    0    0    0  0.00000000000E+00  0.00000000000E+00  0.74505805969E-08  0.10566000000E+00  0.10566000000E+00 0.  1.
     999900   -1    0    0    0    0 -0.00000000000E+00 -0.00000000000E+00 -0.74505805969E-08  0.93827000000E+00  0.93827000000E+00 0.  1.
     999902    2    1    2    0    0  0.82632503441E-03  0.87361926776E-02  0.22404851597E-01  0.10198679708E+01  0.10195840802E+01 0.  0.
     999903    2    3    3    0    0 -0.62724187445E-01 -0.97896465672E-01 -0.50245228141E-01  0.12819133345E+00  0.19758373873E-01 0.  0.
         14    1    1    2    0    0 -0.82632503441E-03 -0.87361926776E-02 -0.22404851597E-01  0.24062029230E-01  0.00000000000E+00 0. -1.
     999901    1    3    3    0    0  0.63550512479E-01  0.10663265835E+00  0.72650079738E-01  0.89167663732E+00  0.88000000000E+00 0. -1.
        -11    1    4    4    0    0 -0.56675037399E-01 -0.74347858348E-01 -0.42258743516E-01  0.10259496298E+00  0.51100000000E-03 0. -1.
         11    1    4    4    0    0 -0.60491500459E-02 -0.23548607324E-01 -0.79864846249E-02  0.25596370463E-01  0.51100000000E-03 0.  1.
</event>
<event>
 8    1  0.1128641E+005  0.1043930E+01  0.7957747E-01            NaN
         13   -1    0    0    0    0  0.00000000000E+00  0.00000000000E+00  0.74505805969E-08  0.10566000000E+00  0.10566000000E+00 0.  1.
     999900   -1    0    0    0    0 -0.00000000000E+00 -0.00000000000E+00 -0.74505805969E-08  0.93827000000E+00  0.93827000000E+00 0.  1.
     999902    2    1    2    0    0 -0.16254217979E-01  0.12943395745E-01  0.12060982777E-01  0.10199050463E+01  0.10196220403E+01 0.  0.
     999903    2    3    3    0    0  0.68240436217E-01  0.87002268049E-01 -0.64617723619E-01  0.12945365111E+00  0.18885068145E-01 0.  0.
         14    1    1    2    0    0  0.16254217979E-01 -0.12943395745E-01 -0.12060982777E-01  0.24024953716E-01  0.00000000000E+00 0. -1.
     999901    1    3    3    0    0 -0.84494654196E-01 -0.74058872304E-01  0.76678706397E-01  0.89045139518E+00  0.88000000000E+00 0. -1.
        -11    1    4    4    0    0  0.44891434990E-01  0.42217885690E-01 -0.33830343023E-01  0.70301806788E-01  0.51100000000E-03 0. -1.
         11    1    4    4    0    0  0.23349001228E-01  0.44784382358E-01 -0.30787380596E-01  0.59151844320E-01  0.51100000000E-03 0.  1.
</event>
<event>
 8    1  0.1128641E+005  0.1043930E+01  0.7957747E-01            NaN
         13   -1    0    0    0    0  0.00000000000E+00  0.00000000000E+00  0.74505805969E-08  0.10566000000E+00  0.10566000000E+00 0. -1.
     999900   -1    0    0    0    0 -0.00000000000E+00 -0.00000000000E+00 -0.74505805969E-08  0.93827000000E+00  0.93827000000E+00 0. -1.
     999902    2    1    2    0    0  0.62066274402E-02 -0.18598710802E-02  0.21572163572E-01  0.10214058000E+01  0.10211574162E+01 0.  0.
     999903    2    3    3    0    0  0.81388451686E-01  0.45857152626E-01 -0.88258002743E-01  0.13011915335E+00  0.20360758993E-01 0.  0.
         14    1    1    2    0    0 -0.62066274402E-02  0.18598710802E-02 -0.21572163572E-01  0.22524200004E-01  0.00000000000E+00 0.  1.
     999901    1    3    3    0    0 -0.75181824246E-01 -0.47717023706E-01  0.10983016632E+00  0.89128664664E+00  0.88000000000E+00 0.  1.
        -11    1    4    4    0    0  0.26371368145E-01  0.53999142608E-02 -0.19788277100E-01  0.33413248322E-01  0.51100000000E-03 0. -1.
         11    1    4    4    0    0  0.55017083541E-01  0.40457238365E-01 -0.68469725644E-01  0.96705905033E-01  0.51100000000E-03 0.  1.
</event>
<event>
 8    1  0.1128641E+005  0.1043930E+01  0.7957747E-01            NaN
         13   -1    0    0    0    0  0.00000000000E+00  0.00000000000E+00  0.74505805969E-08  0.10566000000E+00  0.10566000000E+00 0.  1.
     999900   -1    0    0    0    0 -0.00000000000E+00 -0.00000000000E+00 -0.74505805969E-08  0.93827000000E+00  0.93827000000E+00 0.  1.
     999902    2    1    2    0    0 -0.20780748082E-02 -0.19358981939E-01 -0.10972107026E-01  0.10215810468E+01  0.10213365554E+01 0.  0.
     999903    2    3    3    0    0 -0.73819066267E-01  0.95202383071E-01  0.43523802734E-01  0.12959400632E+00  0.19685953918E-01 0.  0.
         14    1    1    2    0    0  0.20780748082E-02  0.19358981939E-01  0.10972107026E-01  0.22348953201E-01  0.00000000000E+00 0.  1.
     999901    1    3    3    0    0  0.71740991459E-01 -0.11456136501E+00 -0.54495909760E-01  0.89198704048E+00  0.88000000000E+00 0.  1.
        -11    1    4    4    0    0 -0.52723076308E-01  0.78679960909E-01  0.38933272119E-01  0.10240273347E+00  0.51100000000E-03 0. -1.
         11    1    4    4    0    0 -0.21095989959E-01  0.16522422162E-01  0.45905306150E-02  0.27191272842E-01  0.51100000000E-03 0.  1.
</event>
<event>
 8    1  0.1128641E+005  0.1043930E+01  0.7957747E-01            NaN
         13   -1    0    0    0    0  0.00000000000E+00  0.00000000000E+00  0.74505805969E-08  0.10566000000E+00  0.10566000000E+00 0.  1.
     999900   -1    0    0    0    0 -0.00000000000E+00 -0.00000000000E+00 -0.74505805969E-08  0.93827000000E+00  0.93827000000E+00 0. -1.
     999902    2    1    2    0    0 -0.32144190550E-02 -0.84874871833E-02  0.22644989574E-01  0.10195339864E+01  0.10192420634E+01 0.  0.
     999903    2    3    3    0    0  0.51585292860E-01  0.11438803300E+00 -0.18511168118E-01  0.12835766756E+00  0.19681538141E-01 0.  0.
         14    1    1    2    0    0  0.32144190550E-02  0.84874871833E-02 -0.22644989574E-01  0.24396013637E-01  0.00000000000E+00 0. -1.
     999901    1    3    3    0    0 -0.54799711915E-01 -0.12287552018E+00  0.41156157692E-01  0.89117631881E+00  0.88000000000E+00 0.  1.
        -11    1    4    4    0    0  0.40941159948E-01  0.95947447877E-01 -0.22428128867E-01  0.10670226529E+00  0.51100000000E-03 0. -1.
         11    1    4    4    0    0  0.10644132913E-01  0.18440585118E-01  0.39169607484E-02  0.21655402270E-01  0.51100000000E-03 0.  1.
</event>
<event>
 8    1  0.1128641E+005  0.1043930E+01  0.7957747E-01            NaN
         13   -1    0    0    0    0  0.00000000000E+00  0.00000000000E+00  0.74505805969E-08  0.10566000000E+00  0.10566000000E+00 0.  1.
     999900   -1    0    0    0    0 -0.00000000000E+00 -0.00000000000E+00 -0.74505805969E-08  0.93827000000E+00  0.93827000000E+00 0. -1.
     999902    2    1    2    0    0 -0.17374502044E-01 -0.15573420587E-01 -0.30541888123E-02  0.10203984718E+01  0.10201271041E+01 0.  0.
     999903    2    3    3    0    0 -0.10208758460E+00 -0.80471202821E-01  0.23241716188E-01  0.13356167559E+00  0.20026342685E-01 0.  0.
         14    1    1    2    0    0  0.17374502044E-01  0.15573420587E-01  0.30541888123E-02  0.23531528199E-01  0.00000000000E+00 0. -1.
     999901    1    3    3    0    0  0.84713082559E-01  0.64897782233E-01 -0.26295905001E-01  0.88683679621E+00  0.88000000000E+00 0.  1.
        -11    1    4    4    0    0 -0.74117665549E-01 -0.69043997533E-01  0.18592993126E-01  0.10298768109E+00  0.51100000000E-03 0.  1.
         11    1    4    4    0    0 -0.27969919054E-01 -0.11427205288E-01  0.46487230621E-02  0.30573994500E-01  0.51100000000E-03 0. -1.
</event>
<event>
 8    1  0.1128641E+005  0.1043930E+01  0.7957747E-01            NaN
         13   -1    0    0    0    0  0.00000000000E+00  0.00000000000E+00  0.74505805969E-08  0.10566000000E+00  0.10566000000E+00 0. -1.
     999900   -1    0    0    0    0 -0.00000000000E+00 -0.00000000000E+00 -0.74505805969E-08  0.93827000000E+00  0.93827000000E+00 0. -1.
     999902    2    1    2    0    0 -0.11249827465E-02 -0.19298873169E-01 -0.16591115235E-01  0.10184549692E+01  0.10181363106E+01 0.  0.
     999903    2    3    3    0    0 -0.35302182732E-01 -0.70328622146E-01 -0.10421261589E+00  0.13197335984E+00  0.19087671351E-01 0.  0.
         14    1    1    2    0    0  0.11249827465E-02  0.19298873169E-01  0.16591115235E-01  0.25475030844E-01  0.00000000000E+00 0. -1.
     999901    1    3    3    0    0  0.34177199986E-01  0.51029748978E-01  0.87621500656E-01  0.88648160932E+00  0.88000000000E+00 0.  1.
        -11    1    4    4    0    0 -0.19375126767E-01 -0.46743407785E-01 -0.52322339930E-01  0.72788942054E-01  0.51100000000E-03 0.  1.
         11    1    4    4    0    0 -0.15927055966E-01 -0.23585214361E-01 -0.51890275961E-01  0.59184417785E-01  0.51100000000E-03 0. -1.
</event>
<event>
 8    1  0.1128641E+005  0.1043930E+01  0.7957747E-01            NaN
         13   -1    0    0    0    0  0.00000000000E+00  0.00000000000E+00  0.74505805969E-08  0.10566000000E+00  0.10566000000E+00 0.  1.
     999900   -1    0    0    0    0 -0.00000000000E+00 -0.00000000000E+00 -0.74505805969E-08  0.93827000000E+00  0.93827000000E+00 0. -1.
     999902    2    1    2    0    0  0.61018324446E-02 -0.10256065843E-01 -0.19333887534E-01  0.10212095587E+01  0.10209567789E+01 0.  0.
     999903    2    3    3    0    0  0.71475927428E-01  0.83368412085E-01 -0.71644471224E-01  0.13229127656E+00  0.17577009425E-01 0.  0.
         14    1    1    2    0    0 -0.61018324446E-02  0.10256065843E-01  0.19333887534E-01  0.22720441302E-01  0.00000000000E+00 0.  1.
     999901    1    3    3    0    0 -0.65374094983E-01 -0.93624477929E-01  0.52310583690E-01  0.88891828214E+00  0.88000000000E+00 0. -1.
        -11    1    4    4    0    0  0.23068440691E-01  0.23723886146E-01 -0.12633350591E-01  0.35423698254E-01  0.51100000000E-03 0.  1.
         11    1    4    4    0    0  0.48407486737E-01  0.59644525939E-01 -0.59011120633E-01  0.96867578302E-01  0.51100000000E-03 0. -1.
</event>
<event>
 8    1  0.1128641E+005  0.1043930E+01  0.7957747E-01            NaN
         13   -1    0    0    0    0  0.00000000000E+00  0.00000000000E+00  0.74505805969E-08  0.10566000000E+00  0.10566000000E+00 0. -1.
     999900   -1    0    0    0    0 -0.00000000000E+00 -0.00000000000E+00 -0.74505805969E-08  0.93827000000E+00  0.93827000000E+00 0.  1.
     999902    2    1    2    0    0  0.53251478653E-02 -0.29579349914E-02  0.22414035322E-01  0.10207029563E+01  0.10204386456E+01 0.  0.
     999903    2    3    3    0    0 -0.23019067192E-01  0.92648952851E-01  0.89610463141E-01  0.13252536627E+00  0.20475147931E-01 0.  0.
         14    1    1    2    0    0 -0.53251478653E-02  0.29579349914E-02 -0.22414035322E-01  0.23227043691E-01  0.00000000000E+00 0.  1.
     999901    1    3    3    0    0  0.28344215057E-01 -0.95606887842E-01 -0.67196427819E-01  0.88817759004E+00  0.88000000000E+00 0.  1.
        -11    1    4    4    0    0 -0.78371516940E-02  0.64272457585E-01  0.67106601260E-01  0.93251953354E-01  0.51100000000E-03 0. -1.
         11    1    4    4    0    0 -0.15181915498E-01  0.28376495266E-01  0.22503861881E-01  0.39273412919E-01  0.51100000000E-03 0.  1.
</event>
<event>
 8    1  0.1128641E+005  0.1043930E+01  0.7957747E-01            NaN
         13   -1    0    0    0    0  0.00000000000E+00  0.00000000000E+00  0.74505805969E-08  0.10566000000E+00  0.10566000000E+00 0. -1.
     999900   -1    0    0    0    0 -0.00000000000E+00 -0.00000000000E+00 -0.74505805969E-08  0.93827000000E+00  0.93827000000E+00 0. -1.
     999902    2    1    2    0    0 -0.19880463107E-01  0.44792287661E-02 -0.12610035751E-01  0.10199652487E+01  0.10196836761E+01 0.  0.
     999903    2    3    3    0    0 -0.20467707189E-01 -0.84132575258E-02  0.12570764305E+00  0.12906775665E+00  0.19140646409E-01 0.  0.
         14    1    1    2    0    0  0.19880463107E-01 -0.44792287661E-02  0.12610035751E-01  0.23964751310E-01  0.00000000000E+00 0.  1.
     999901    1    3    3    0    0  0.58724408142E-03  0.12892486292E-01 -0.13831767880E+00  0.89089749204E+00  0.88000000000E+00 0. -1.
        -11    1    4    4    0    0 -0.92860557865E-02 -0.13947086675E-01  0.73600662443E-01  0.75485566116E-01  0.51100000000E-03 0.  1.
         11    1    4    4    0    0 -0.11181651402E-01  0.55338291491E-02  0.52106980608E-01  0.53582190532E-01  0.51100000000E-03 0. -1.
</event>
<event>
 8    1  0.1128641E+005  0.1043930E+01  0.7957747E-01            NaN
         13   -1    0    0    0    0  0.00000000000E+00  0.00000000000E+00  0.74505805969E-08  0.10566000000E+00  0.10566000000E+00 0.  1.
     999900   -1    0    0    0    0 -0.00000000000E+00 -0.00000000000E+00 -0.74505805969E-08  0.93827000000E+00  0.93827000000E+00 0.  1.
     999902    2    1    2    0    0  0.12659151695E-01 -0.10872850210E-02 -0.19964936314E-01  0.10202649415E+01  0.10199904489E+01 0.  0.
     999903    2    3    3    0    0  0.24455795517E-01  0.10241575646E+00  0.72318941066E-01  0.12932815678E+00  0.20215582929E-01 0.  0.
         14    1    1    2    0    0 -0.12659151695E-01  0.10872850210E-02  0.19964936314E-01  0.23665058469E-01  0.00000000000E+00 0.  1.
     999901    1    3    3    0    0 -0.11796643822E-01 -0.10350304148E+00 -0.92283877380E-01  0.89093678475E+00  0.88000000000E+00 0.  1.
        -11    1    4    4    0    0 -0.31106259688E-02  0.48768477915E-02  0.30491697643E-02  0.65588257752E-02  0.51100000000E-03 0.  1.
         11    1    4    4    0    0  0.27566421486E-01  0.97538908668E-01  0.69269771302E-01  0.12276933100E+00  0.51100000000E-03 0. -1.
</event>
<event>
 8    1  0.1128641E+005  0.1043930E+01  0.7957747E-01            NaN
         13   -1    0    0    0    0  0.00000000000E+00  0.00000000000E+00  0.74505805969E-08  0.10566000000E+00  0.10566000000E+00 0. -1.
     999900   -1    0    0    0    0 -0.00000000000E+00 -0.00000000000E+00 -0.74505805969E-08  0.93827000000E+00  0.93827000000E+00 0.  1.
     999902    2    1    2    0    0 -0.16323589937E-01  0.14581372030E-01 -0.10388016574E-01  0.10197021877E+01  0.10194143244E+01 0.  0.
     999903    2    3    3    0    0 -0.14466022283E-01  0.64987797518E-01  0.11030035891E+00  0.13003374260E+00  0.17604698589E-01 0.  0.
         14    1    1    2    0    0  0.16323589937E-01 -0.14581372030E-01  0.10388016574E-01  0.24227812263E-01  0.00000000000E+00 0.  1.
     999901    1    3    3    0    0 -0.18575676543E-02 -0.50406425488E-01 -0.12068837549E+00  0.88966844513E+00  0.88000000000E+00 0.  1.
        -11    1    4    4    0    0 -0.77025376306E-02  0.68160603152E-02  0.16910987688E-01  0.19799757315E-01  0.51100000000E-03 0. -1.
         11    1    4    4    0    0 -0.67634846525E-02  0.58171737203E-01  0.93389371224E-01  0.11023398529E+00  0.51100000000E-03 0.  1.
</event>
<event>
 8    1  0.1128641E+005  0.1043930E+01  0.7957747E-01            NaN
         13   -1    0    0    0    0  0.00000000000E+00  0.00000000000E+00  0.74505805969E-08  0.10566000000E+00  0.10566000000E+00 0. -1.
     999900   -1    0    0    0    0 -0.00000000000E+00 -0.00000000000E+00 -0.74505805969E-08  0.93827000000E+00  0.93827000000E+00 0. -1.
     999902    2    1    2    0    0 -0.22874492375E-02 -0.23780939251E-01 -0.36277312517E-02  0.10197654406E+01  0.10194790964E+01 0.  0.
     999903    2    3    3    0    0 -0.10950102081E+00  0.54026821419E-01 -0.37212120413E-01  0.12921689689E+00  0.20072208274E-01 0.  0.
         14    1    1    2    0    0  0.22874492375E-02  0.23780939251E-01  0.36277312517E-02  0.24164559374E-01  0.00000000000E+00 0. -1.
     999901    1    3    3    0    0  0.10721357158E+00 -0.77807760670E-01  0.33584389161E-01  0.89054854373E+00  0.88000000000E+00 0.  1.
        -11    1    4    4    0    0 -0.49216508134E-01  0.32655004919E-01 -0.24795582635E-01  0.64060097240E-01  0.51100000000E-03 0.  1.
         11    1    4    4    0    0 -0.60284512681E-01  0.21371816499E-01 -0.12416537778E-01  0.65156799653E-01  0.51100000000E-03 0. -1.
</event>
<event>
 8    1  0.1128641E+005  0.1043930E+01  0.7957747E-01            NaN
         13   -1    0    0    0    0  0.00000000000E+00  0.00000000000E+00  0.74505805969E-08  0.10566000000E+00  0.10566000000E+00 0.  1.
     999900   -1    0    0    0    0 -0.00000000000E+00 -0.00000000000E+00 -0.74505805969E-08  0.93827000000E+00  0.93827000000E+00 0.  1.
     999902    2    1    2    0    0  0.33607632225E-02 -0.17046266557E-01  0.15841225455E-01  0.10204179955E+01  0.10201470831E+01 0.  0.
     999903    2    3    3    0    0  0.84896873933E-01 -0.81413194332E-01 -0.54491766942E-01  0.13152094375E+00  0.22199517242E-01 0.  0.
         14    1    1    2    0    0 -0.33607632225E-02  0.17046266557E-01 -0.15841225455E-01  0.23512004527E-01  0.00000000000E+00 0. -1.
     999901    1    3    3    0    0 -0.81536110710E-01  0.64366927774E-01  0.70332992397E-01  0.88889705172E+00  0.88000000000E+00 0. -1.
        -11    1    4    4    0    0  0.47456648537E-01 -0.31699189349E-01 -0.31383865082E-01  0.65132021343E-01  0.51100000000E-03 0. -1.
         11    1    4    4    0    0  0.37440225395E-01 -0.49714004982E-01 -0.23107901861E-01  0.66388922407E-01  0.51100000000E-03 0.  1.
</event>
<event>
 8    1  0.1128641E+005  0.1043930E+01  0.7957747E-01            NaN
         13   -1    0    0    0    0  0.00000000000E+00  0.00000000000E+00  0.74505805969E-08  0.10566000000E+00  0.10566000000E+00 0.  1.
     999900   -1    0    0    0    0 -0.00000000000E+00 -0.00000000000E+00 -0.74505805969E-08  0.93827000000E+00  0.93827000000E+00 0. -1.
     999902    2    1    2    0    0 -0.14487806667E-01 -0.17638367749E-01  0.61398259684E-02  0.10202930370E+01  0.10200192034E+01 0.  0.
     999903    2    3    3    0    0  0.54124160697E-01 -0.37099288120E-01 -0.11010089054E+00  0.12978855429E+00  0.20422555554E-01 0.  0.
         14    1    1    2    0    0  0.14487806667E-01  0.17638367749E-01 -0.61398259684E-02  0.23636963041E-01  0.00000000000E+00 0. -1.
     999901    1    3    3    0    0 -0.68611967364E-01  0.19460920371E-01  0.11624071651E+00  0.89050448267E+00  0.88000000000E+00 0.  1.
        -11    1    4    4    0    0  0.17647659597E-01 -0.23998772617E-01 -0.52389938021E-01  0.60268961358E-01  0.51100000000E-03 0.  1.
         11    1    4    4    0    0  0.36476501100E-01 -0.13100515503E-01 -0.57710952521E-01  0.69519592928E-01  0.51100000000E-03 0. -1.
</event>
<event>
 7    1  0.1128641E+005  0.1043930E+01  0.7957747E-01            NaN
         13   -1    0    0    0    0  0.00000000000E+00  0.00000000000E+00  0.74505805969E-08  0.10566000000E+00  0.10566000000E+00 0.  1.
     999900   -1    0    0    0    0 -0.00000000000E+00 -0.00000000000E+00 -0.74505805969E-08  0.93827000000E+00  0.93827000000E+00 0. -1.
     999903    2    1    2    0    0  0.15476712400E-01 -0.59259704690E-01 -0.79833986386E-01  0.10100914548E+00  0.88397319469E-02 0.  0.
         14    1    1    2    0    0 -0.76275213466E-02 -0.42622236742E-02 -0.50298167080E-01  0.51051456827E-01  0.00000000000E+00 0. -1.
     999901    1    1    2    0    0 -0.78491910530E-02  0.63521928364E-01  0.13013215347E+00  0.89186939770E+00  0.88000000000E+00 0.  1.
        -11    1    3    3    0    0  0.15677229463E-01 -0.45808065859E-01 -0.62475330700E-01  0.79041650340E-01  0.51100000000E-03 0. -1.
         11    1    3    3    0    0 -0.20051706388E-03 -0.13451638830E-01 -0.17358655686E-01  0.21967495136E-01  0.51100000000E-03 0.  1.
</event>
<event>
 8    1  0.1128641E+005  0.1043930E+01  0.7957747E-01            NaN
         13   -1    0    0    0    0  0.00000000000E+00  0.00000000000E+00  0.74505805969E-08  0.10566000000E+00  0.10566000000E+00 0.  1.
     999900   -1    0    0    0    0 -0.00000000000E+00 -0.00000000000E+00 -0.74505805969E-08  0.93827000000E+00  0.93827000000E+00 0.  1.
     999902    2    1    2    0    0 -0.15198478890E-01 -0.53110068550E-02  0.16841193070E-01  0.10206313662E+01  0.10203654048E+01 0.  0.
     999903    2    3    3    0    0  0.90028941521E-01  0.34783421391E-01  0.85808921446E-01  0.13077917578E+00  0.20613711522E-01 0.  0.
         14    1    1    2    0    0  0.15198478890E-01  0.53110068550E-02 -0.16841193070E-01  0.23298633831E-01  0.00000000000E+00 0. -1.
     999901    1    3    3    0    0 -0.10522742041E+00 -0.40094428246E-01 -0.68967728376E-01  0.88985219039E+00  0.88000000000E+00 0.  1.
        -11    1    4    4    0    0  0.15395531756E-01 -0.17407454643E-03  0.20390697936E-01  0.25555711364E-01  0.51100000000E-03 0. -1.
         11    1    4    4    0    0  0.74633409765E-01  0.34957495938E-01  0.65418223510E-01  0.10522346442E+00  0.51100000000E-03 0.  1.
</event>
<event>
 8    1  0.1128641E+005  0.1043930E+01  0.7957747E-01            NaN
         13   -1    0    0    0    0  0.00000000000E+00  0.00000000000E+00  0.74505805969E-08  0.10566000000E+00  0.10566000000E+00 0. -1.
     999900   -1    0    0    0    0 -0.00000000000E+00 -0.00000000000E+00 -0.74505805969E-08  0.93827000000E+00  0.93827000000E+00 0. -1.
     999902    2    1    2    0    0 -0.17913901704E-01  0.31498843474E-02 -0.16564690372E-01  0.10193288087E+01  0.10190318943E+01 0.  0.
     999903    2    3    3    0    0  0.62822583803E-01 -0.88587843958E-01 -0.67600044691E-01  0.12941937609E+00  0.19624620537E-01 0.  0.
         14    1    1    2    0    0  0.17913901704E-01 -0.31498843474E-02  0.16564690372E-01  0.24601191288E-01  0.00000000000E+00 0. -1.
     999901    1    3    3    0    0 -0.80736485507E-01  0.91737728306E-01  0.51035354319E-01  0.88990943263E+00  0.88000000000E+00 0.  1.
        -11    1    4    4    0    0  0.20188726520E-01 -0.33100534142E-01 -0.34945559755E-01  0.52198499083E-01  0.51100000000E-03 0. -1.
         11    1    4    4    0    0  0.42633857283E-01 -0.55487309816E-01 -0.32654484936E-01  0.77220877002E-01  0.51100000000E-03 0.  1.
</event>
<event>
 8    1  0.1128641E+005  0.1043930E+01  0.7957747E-01            NaN
         13   -1    0    0    0    0  0.00000000000E+00  0.00000000000E+00  0.74505805969E-08  0.10566000000E+00  0.10566000000E+00 0.  1.
     999900   -1    0    0    0    0 -0.00000000000E+00 -0.00000000000E+00 -0.74505805969E-08  0.93827000000E+00  0.93827000000E+00 0.  1.
     999902    2    1    2    0    0  0.73995618056E-02 -0.20067080320E-01  0.11354252182E-01  0.10197151230E+01  0.10194275706E+01 0.  0.
     999903    2    3    3    0    0 -0.12229431313E-01  0.12491311530E+00  0.12870617665E-01  0.12763505152E+00  0.19292698426E-01 0.  0.
         14    1    1    2    0    0 -0.73995618056E-02  0.20067080320E-01 -0.11354252182E-01  0.24214877040E-01  0.00000000000E+00 0.  1.
     999901    1    3    3    0    0  0.19628993119E-01 -0.14498019562E+00 -0.15163654835E-02  0.89208007144E+00  0.88000000000E+00 0. -1.
        -11    1    4    4    0    0 -0.11880134278E-01  0.53867582225E-01  0.12605447625E-01  0.56586327289E-01  0.51100000000E-03 0. -1.
         11    1    4    4    0    0 -0.34929703540E-03  0.71045533078E-01  0.26517003987E-03  0.71048724232E-01  0.51100000000E-03 0.  1.
</event>
<event>
 8    1  0.1128641E+005  0.1043930E+01  0.7957747E-01            NaN
         13   -1    0    0    0    0  0.00000000000E+00  0.00000000000E+00  0.74505805969E-08  0.10566000000E+00  0.10566000000E+00 0. -1.
     999900   -1    0    0    0    0 -0.00000000000E+00 -0.00000000000E+00 -0.74505805969E-08  0.93827000000E+00  0.93827000000E+00 0.  1.
     999902    2    1    2    0    0 -0.14101728957E-01  0.52680326992E-02  0.18053028846E-01  0.10204241969E+01  0.10201534291E+01 0.  0.
     999903    2    3    3    0    0  0.22032166403E-01 -0.12509701798E+00  0.13946991929E-01  0.13007731824E+00  0.24308637805E-01 0.  0.
         14    1    1    2    0    0  0.14101728957E-01 -0.52680326992E-02 -0.18053028846E-01  0.23505803084E-01  0.00000000000E+00 0.  1.
     999901    1    3    3    0    0 -0.36133895361E-01  0.13036505068E+00  0.41060369174E-02  0.89034687868E+00  0.88000000000E+00 0.  1.
        -11    1    4    4    0    0 -0.35922937126E-03 -0.55381621838E-01  0.12792971414E-01  0.56843419335E-01  0.51100000000E-03 0. -1.
         11    1    4    4    0    0  0.22391395775E-01 -0.69715396143E-01  0.11540205153E-02  0.73233898902E-01  0.51100000000E-03 0.  1.
</event>
<event>
 8    1  0.1128641E+005  0.1043930E+01  0.7957747E-01            NaN
         13   -1    0    0    0    0  0.00000000000E+00  0.00000000000E+00  0.74505805969E-08  0.10566000000E+00  0.10566000000E+00 0. -1.
     999900   -1    0    0    0    0 -0.00000000000E+00 -0.00000000000E+00 -0.74505805969E-08  0.93827000000E+00  0.93827000000E+00 0. -1.
     999902    2    1    2    0    0 -0.20886657391E-01 -0.10993652232E-01  0.52634437823E-03  0.10203208940E+01  0.10200477131E+01 0.  0.
     999903    2    3    3    0    0 -0.95201667435E-01 -0.89909922326E-01 -0.16065363152E-01  0.13351438573E+00  0.20514475092E-01 0.  0.
         14    1    1    2    0    0  0.20886657391E-01  0.10993652232E-01 -0.52634437823E-03  0.23609105971E-01  0.00000000000E+00 0.  1.
     999901    1    3    3    0    0  0.74315010044E-01  0.78916270095E-01  0.16591707530E-01  0.88680650830E+00  0.88000000000E+00 0.  1.
        -11    1    4    4    0    0 -0.57878082032E-01 -0.64565453951E-01 -0.17114231263E-01  0.88383981899E-01  0.51100000000E-03 0.  1.
         11    1    4    4    0    0 -0.37323585403E-01 -0.25344468376E-01  0.10488681113E-02  0.45130403831E-01  0.51100000000E-03 0. -1.
</event>
<event>
 8    1  0.1128641E+005  0.1043930E+01  0.7957747E-01            NaN
         13   -1    0    0    0    0  0.00000000000E+00  0.00000000000E+00  0.74505805969E-08  0.10566000000E+00  0.10566000000E+00 0.  1.
     999900   -1    0    0    0    0 -0.00000000000E+00 -0.00000000000E+00 -0.74505805969E-08  0.93827000000E+00  0.93827000000E+00 0.  1.
     999902    2    1    2    0    0  0.94502399086E-02  0.12573641297E-01  0.17789351670E-01  0.10201841683E+01  0.10199077766E+01 0.  0.
     999903    2    3    3    0    0  0.63797558363E-01 -0.75767089330E-01 -0.79682407084E-01  0.12874799030E+00  0.20395556600E-01 0.  0.
         14    1    1    2    0    0 -0.94502399086E-02 -0.12573641297E-01 -0.17789351670E-01  0.23745831690E-01  0.00000000000E+00 0. -1.
     999901    1    3    3    0    0 -0.54347318455E-01  0.88340730627E-01  0.97471758754E-01  0.89143617801E+00  0.88000000000E+00 0. -1.
        -11    1    4    4    0    0  0.19842164138E-01 -0.17370706796E-01 -0.11439839087E-01  0.28750373417E-01  0.51100000000E-03 0.  1.
         11    1    4    4    0    0  0.43955394226E-01 -0.58396382534E-01 -0.68242567997E-01  0.99997616884E-01  0.51100000000E-03 0. -1.
</event>
<event>
 8    1  0.1128641E+005  0.1043930E+01  0.7957747E-01            NaN
         13   -1    0    0    0    0  0.00000000000E+00  0.00000000000E+00  0.74505805969E-08  0.10566000000E+00  0.10566000000E+00 0. -1.
     999900   -1    0    0    0    0 -0.00000000000E+00 -0.00000000000E+00 -0.74505805969E-08  0.93827000000E+00  0.93827000000E+00 0.  1.
     999902    2    1    2    0    0 -0.18441810793E-01 -0.10669302382E-01  0.11507527344E-01  0.10197151784E+01  0.10194276274E+01 0.  0.
     999903    2    3    3    0    0  0.48208990652E-01 -0.29399481477E-01  0.11615479947E+00  0.13081462127E+00  0.20786808448E-01 0.  0.
         14    1    1    2    0    0  0.18441810793E-01  0.10669302382E-01 -0.11507527344E-01  0.24214821581E-01  0.00000000000E+00 0.  1.
     999901    1    3    3    0    0 -0.66650801445E-01  0.18730179095E-01 -0.10464727213E+00  0.88890055715E+00  0.88000000000E+00 0.  1.
        -11    1    4    4    0    0  0.86063833433E-02 -0.15269497960E-01  0.26339067329E-01  0.31642297499E-01  0.51100000000E-03 0.  1.
         11    1    4    4    0    0  0.39602607309E-01 -0.14129983517E-01  0.89815732144E-01  0.99172323767E-01  0.51100000000E-03 0. -1.
</event>
<event>
 8    1  0.1200442E+005  0.1043930E+01  0.7957747E-01            NaN
         13   -1    0    0    0    0  0.00000000000E+00  0.00000000000E+00  0.74505805969E-08  0.10566000000E+00  0.10566000000E+00 0. -1.
     999900   -1    0    0    0    0 -0.00000000000E+00 -0.00000000000E+00 -0.74505805969E-08  0.93827000000E+00  0.93827000000E+00 0.  1.
     999902    2    1    2    0    0 -0.15622069285E-01  0.11842921030E-01 -0.13621288095E-01  0.10200586088E+01  0.10197792517E+01 0.  0.
     999903    2    3    3    0    0  0.64425803796E-01 -0.99481381002E-01 -0.48856204089E-01  0.12874370291E+00  0.11865201183E-01 0.  0.
         14    1    1    2    0    0  0.15622069285E-01 -0.11842921030E-01  0.13621288095E-01  0.23871391175E-01  0.00000000000E+00 0. -1.
     999901    1    3    3    0    0 -0.80047873081E-01  0.11132430203E+00  0.35234915994E-01  0.89131490592E+00  0.88000000000E+00 0.  1.
        -11    1    4    4    0    0  0.17998322610E-01 -0.38185105050E-01 -0.17263840798E-01  0.45610779258E-01  0.51100000000E-03 0. -1.
         11    1    4    4    0    0  0.46427481187E-01 -0.61296275951E-01 -0.31592363291E-01  0.83132923647E-01  0.51100000000E-03 0.  1.
</event>
<event>
 8    1  0.1896205E+005  0.1043930E+01  0.7957747E-01            NaN
         13   -1    0    0    0    0  0.00000000000E+00  0.00000000000E+00  0.74505805969E-08  0.10566000000E+00  0.10566000000E+00 0. -1.
     999900   -1    0    0    0    0 -0.00000000000E+00 -0.00000000000E+00 -0.74505805969E-08  0.93827000000E+00  0.93827000000E+00 0.  1.
     999902    2    1    2    0    0 -0.17331140800E-01 -0.10428559916E-01 -0.12488732597E-01  0.10201583416E+01  0.10198813412E+01 0.  0.
     999903    2    3    3    0    0 -0.17674730306E-01  0.90537797233E-01 -0.91501669679E-01  0.13086796853E+00  0.15632684154E-01 0.  0.
         14    1    1    2    0    0  0.17331140800E-01  0.10428559916E-01  0.12488732597E-01  0.23771658445E-01  0.00000000000E+00 0. -1.
     999901    1    3    3    0    0  0.34358950555E-03 -0.10096635715E+00  0.79012937081E-01  0.88929037303E+00  0.88000000000E+00 0. -1.
        -11    1    4    4    0    0  0.47767018657E-03  0.30212288434E-01 -0.35017933489E-01  0.46255024895E-01  0.51100000000E-03 0.  1.
         11    1    4    4    0    0 -0.18152400492E-01  0.60325508799E-01 -0.56483736190E-01  0.84612943634E-01  0.51100000000E-03 0. -1.
</event>
<event>
 8    1  0.1128641E+005  0.1043930E+01  0.7957747E-01            NaN
         13   -1    0    0    0    0  0.00000000000E+00  0.00000000000E+00  0.74505805969E-08  0.10566000000E+00  0.10566000000E+00 0.  1.
     999900   -1    0    0    0    0 -0.00000000000E+00 -0.00000000000E+00 -0.74505805969E-08  0.93827000000E+00  0.93827000000E+00 0.  1.
     999902    2    1    2    0    0 -0.13070428459E-01  0.14210963548E-01  0.13633419213E-01  0.10202940591E+01  0.10200202494E+01 0.  0.
     999903    2    3    3    0    0  0.19990386117E-01  0.50964975057E-01 -0.11565021374E+00  0.12947526010E+00  0.19794615934E-01 0.  0.
         14    1    1    2    0    0  0.13070428459E-01 -0.14210963548E-01 -0.13633419213E-01  0.23635940948E-01  0.00000000000E+00 0. -1.
     999901    1    3    3    0    0 -0.33060814577E-01 -0.36754011509E-01  0.12928363295E+00  0.89081879895E+00  0.88000000000E+00 0. -1.
        -11    1    4    4    0    0  0.11403259130E-01  0.45888003447E-01 -0.85385336416E-01  0.97604610419E-01  0.51100000000E-03 0.  1.
         11    1    4    4    0    0  0.85871269873E-02  0.50769716101E-02 -0.30264877321E-01  0.31870649678E-01  0.51100000000E-03 0. -1.
</event>
<event>
 8    1  0.1128641E+005  0.1043930E+01  0.7957747E-01            NaN
         13   -1    0    0    0    0  0.00000000000E+00  0.00000000000E+00  0.74505805969E-08  0.10566000000E+00  0.10566000000E+00 0.  1.
     999900   -1    0    0    0    0 -0.00000000000E+00 -0.00000000000E+00 -0.74505805969E-08  0.93827000000E+00  0.93827000000E+00 0.  1.
     999902    2    1    2    0    0  0.25770307082E-02  0.44487829905E-02 -0.22084037200E-01  0.10212554006E+01  0.10210036513E+01 0.  0.
     999903    2    3    3    0    0  0.25655934273E-01 -0.55992146238E-01  0.11129911446E+00  0.12885593466E+00  0.20567246143E-01 0.  0.
         14    1    1    2    0    0 -0.25770307082E-02 -0.44487829905E-02  0.22084037200E-01  0.22674599367E-01  0.00000000000E+00 0.  1.
     999901    1    3    3    0    0 -0.23078903565E-01  0.60440929229E-01 -0.13338315166E+00  0.89239946597E+00  0.88000000000E+00 0.  1.
        -11    1    4    4    0    0  0.20759307657E-01 -0.21131906279E-01  0.54439948832E-01  0.61979637520E-01  0.51100000000E-03 0.  1.
         11    1    4    4    0    0  0.48966266161E-02 -0.34860239960E-01  0.56859165631E-01  0.66876297143E-01  0.51100000000E-03 0. -1.
</event>
<event>
 8    1  0.1128641E+005  0.1043930E+01  0.7957747E-01            NaN
         13   -1    0    0    0    0  0.00000000000E+00  0.00000000000E+00  0.74505805969E-08  0.10566000000E+00  0.10566000000E+00 0. -1.
     999900   -1    0    0    0    0 -0.00000000000E+00 -0.00000000000E+00 -0.74505805969E-08  0.93827000000E+00  0.93827000000E+00 0. -1.
     999902    2    1    2    0    0 -0.52499047986E-02 -0.14577210072E-01  0.19678579948E-01  0.10188839811E+01  0.10185760963E+01 0.  0.
     999903    2    3    3    0    0 -0.78277776933E-01  0.82246868687E-01  0.59281117072E-01  0.12968415357E+00  0.20292143195E-01 0.  0.
         14    1    1    2    0    0  0.52499047986E-02  0.14577210072E-01 -0.19678579948E-01  0.25046018898E-01  0.00000000000E+00 0.  1.
     999901    1    3    3    0    0  0.73027872135E-01 -0.96824078759E-01 -0.39602537124E-01  0.88919982753E+00  0.88000000000E+00 0. -1.
        -11    1    4    4    0    0 -0.81353393167E-02  0.19069938405E-01  0.77939727352E-02  0.22155212221E-01  0.51100000000E-03 0.  1.
         11    1    4    4    0    0 -0.70142437616E-01  0.63176930282E-01  0.51487144337E-01  0.10752894135E+00  0.51100000000E-03 0. -1.
</event>
<event>
 8    1  0.1128641E+005  0.1043930E+01  0.7957747E-01            NaN
         13   -1    0    0    0    0  0.00000000000E+00  0.00000000000E+00  0.74505805969E-08  0.10566000000E+00  0.10566000000E+00 0. -1.
     999900   -1    0    0    0    0 -0.00000000000E+00 -0.00000000000E+00 -0.74505805969E-08  0.93827000000E+00  0.93827000000E+00 0.  1.
     999902    2    1    2    0    0 -0.15877166126E-01  0.10318409510E-01 -0.13652157318E-01  0.10205861490E+01  0.10203191423E+01 0.  0.
     999903    2    3    3    0    0 -0.96778695558E-01 -0.86543585328E-01  0.44674532787E-02  0.13139796658E+00  0.19737259363E-01 0.  0.
         14    1    1    2    0    0  0.15877166126E-01 -0.10318409510E-01  0.13652157318E-01  0.23343850977E-01  0.00000000000E+00 0. -1.
     999901    1    3    3    0    0  0.80901529432E-01  0.96861994839E-01 -0.18119610597E-01  0.88918818244E+00  0.88000000000E+00 0. -1.
        -11    1    4    4    0    0 -0.29220786117E-01 -0.17853689919E-01  0.72719694507E-02  0.35010730437E-01  0.51100000000E-03 0. -1.
         11    1    4    4    0    0 -0.67557909441E-01 -0.68689895409E-01 -0.28045161720E-02  0.96387236143E-01  0.51100000000E-03 0.  1.
</event>
<event>
 8    1  0.1128641E+005  0.1043930E+01  0.7957747E-01            NaN
         13   -1    0    0    0    0  0.00000000000E+00  0.00000000000E+00  0.74505805969E-08  0.10566000000E+00  0.10566000000E+00 0. -1.
     999900   -1    0    0    0    0 -0.00000000000E+00 -0.00000000000E+00 -0.74505805969E-08  0.93827000000E+00  0.93827000000E+00 0.  1.
     999902    2    1    2    0    0  0.16617286231E-01  0.74023952226E-02  0.15763235802E-01  0.10198590785E+01  0.10195749756E+01 0.  0.
     999903    2    3    3    0    0 -0.43274045190E-01 -0.10483475007E+00 -0.54415945248E-01  0.12794581717E+00  0.23368124109E-01 0.  0.
         14    1    1    2    0    0 -0.16617286231E-01 -0.74023952226E-02 -0.15763235802E-01  0.24070921454E-01  0.00000000000E+00 0.  1.
     999901    1    3    3    0    0  0.59891331421E-01  0.11223714530E+00  0.70179181050E-01  0.89191326137E+00  0.88000000000E+00 0.  1.
        -11    1    4    4    0    0 -0.21166044291E-01 -0.54647264199E-01 -0.40886035725E-01  0.71458057304E-01  0.51100000000E-03 0. -1.
         11    1    4    4    0    0 -0.22108000899E-01 -0.50187485874E-01 -0.13529909524E-01  0.56487759868E-01  0.51100000000E-03 0.  1.
</event>
<event>
 8    1  0.1128641E+005  0.1043930E+01  0.7957747E-01            NaN
         13   -1    0    0    0    0  0.00000000000E+00  0.00000000000E+00  0.74505805969E-08  0.10566000000E+00  0.10566000000E+00 0. -1.
     999900   -1    0    0    0    0 -0.00000000000E+00 -0.00000000000E+00 -0.74505805969E-08  0.93827000000E+00  0.93827000000E+00 0.  1.
     999902    2    1    2    0    0  0.27003394789E-01  0.78190886993E-02 -0.20800504326E-02  0.10157404968E+01  0.10153492546E+01 0.  0.
     999903    2    3    3    0    0  0.25302878717E-01  0.82534102241E-01 -0.92424287518E-01  0.12796388858E+00  0.19503695913E-01 0.  0.
         14    1    1    2    0    0 -0.27003394789E-01 -0.78190886993E-02  0.20800504326E-02  0.28189503154E-01  0.00000000000E+00 0.  1.
     999901    1    3    3    0    0  0.17005160720E-02 -0.74715013542E-01  0.90344237085E-01  0.88777660826E+00  0.88000000000E+00 0. -1.
        -11    1    4    4    0    0  0.19392482003E-01  0.36677009022E-01 -0.52168781893E-01  0.66656689644E-01  0.51100000000E-03 0. -1.
         11    1    4    4    0    0  0.59103967144E-02  0.45857093219E-01 -0.40255505624E-01  0.61307198940E-01  0.51100000000E-03 0.  1.
</event>
<event>
 8    1  0.1128641E+005  0.1043930E+01  0.7957747E-01            NaN
         13   -1    0    0    0    0  0.00000000000E+00  0.00000000000E+00  0.74505805969E-08  0.10566000000E+00  0.10566000000E+00 0.  1.
     999900   -1    0    0    0    0 -0.00000000000E+00 -0.00000000000E+00 -0.74505805969E-08  0.93827000000E+00  0.93827000000E+00 0. -1.
     999902    2    1    2    0    0 -0.19114529760E-02  0.22794366890E-01  0.54131377923E-02  0.10204238545E+01  0.10201530787E+01 0.  0.
     999903    2    3    3    0    0  0.23132427205E-01  0.12237548974E+00 -0.42517367823E-01  0.13315786885E+00  0.20308170584E-01 0.  0.
         14    1    1    2    0    0  0.19114529760E-02 -0.22794366890E-01 -0.54131377923E-02  0.23506145476E-01  0.00000000000E+00 0. -1.
     999901    1    3    3    0    0 -0.25043880181E-01 -0.99581122852E-01  0.47930505615E-01  0.88726598567E+00  0.88000000000E+00 0.  1.
        -11    1    4    4    0    0  0.50182344618E-02  0.36426204091E-01 -0.31742101435E-02  0.36910537149E-01  0.51100000000E-03 0. -1.
         11    1    4    4    0    0  0.18114192743E-01  0.85949285650E-01 -0.39343157679E-01  0.96247331702E-01  0.51100000000E-03 0.  1.
</event>
<event>
 8    1  0.1128641E+005  0.1043930E+01  0.7957747E-01            NaN
         13   -1    0    0    0    0  0.00000000000E+00  0.00000000000E+00  0.74505805969E-08  0.10566000000E+00  0.10566000000E+00 0. -1.
     999900   -1    0    0    0    0 -0.00000000000E+00 -0.00000000000E+00 -0.74505805969E-08  0.93827000000E+00  0.93827000000E+00 0.  1.
     999902    2    1    2    0    0  0.78561235028E-02 -0.90473458991E-03  0.22942656829E-01  0.10196626820E+01  0.10193738678E+01 0.  0.
     999903    2    3    3    0    0 -0.21629976406E-01 -0.94821101670E-01 -0.80911049670E-01  0.12810488440E+00  0.20133709195E-01 0.  0.
         14    1    1    2    0    0 -0.78561235028E-02  0.90473458991E-03 -0.22942656829E-01  0.24267318013E-01  0.00000000000E+00 0.  1.
     999901    1    3    3    0    0  0.29486099909E-01  0.93916367080E-01  0.10385370650E+00  0.89155779759E+00  0.88000000000E+00 0. -1.
        -11    1    4    4    0    0 -0.21734706304E-01 -0.81031794486E-01 -0.60374624062E-01  0.10336297948E+00  0.51100000000E-03 0.  1.
         11    1    4    4    0    0  0.10472989840E-03 -0.13789307184E-01 -0.20536425609E-01  0.24741904913E-01  0.51100000000E-03 0. -1.
</event>
<event>
 8    1  0.1128641E+005  0.1043930E+01  0.7957747E-01            NaN
         13   -1    0    0    0    0  0.00000000000E+00  0.00000000000E+00  0.74505805969E-08  0.10566000000E+00  0.10566000000E+00 0. -1.
     999900   -1    0    0    0    0 -0.00000000000E+00 -0.00000000000E+00 -0.74505805969E-08  0.93827000000E+00  0.93827000000E+00 0. -1.
     999902    2    1    2    0    0  0.10737236591E-01  0.20072211539E-01  0.62723145967E-02  0.10203180569E+01  0.10200448095E+01 0.  0.
     999903    2    3    3    0    0  0.99730367649E-01  0.76805626042E-01  0.39557648271E-01  0.13338718524E+00  0.19546949298E-01 0.  0.
         14    1    1    2    0    0 -0.10737236591E-01 -0.20072211539E-01 -0.62723145967E-02  0.23611943081E-01  0.00000000000E+00 0. -1.
     999901    1    3    3    0    0 -0.88993131057E-01 -0.56733414504E-01 -0.33285333674E-01  0.88693087168E+00  0.88000000000E+00 0. -1.
        -11    1    4    4    0    0  0.48581138155E-01  0.49679072096E-01  0.21421737139E-01  0.72713747887E-01  0.51100000000E-03 0. -1.
         11    1    4    4    0    0  0.51149229494E-01  0.27126553946E-01  0.18135911132E-01  0.60673437354E-01  0.51100000000E-03 0.  1.
</event>
<event>
 8    1  0.1128641E+005  0.1043930E+01  0.7957747E-01            NaN
         13   -1    0    0    0    0  0.00000000000E+00  0.00000000000E+00  0.74505805969E-08  0.10566000000E+00  0.10566000000E+00 0. -1.
     999900   -1    0    0    0    0 -0.00000000000E+00 -0.00000000000E+00 -0.74505805969E-08  0.93827000000E+00  0.93827000000E+00 0. -1.
     999902    2    1    2    0    0 -0.12866856178E-01  0.13570574982E-01  0.14107472975E-01  0.10205048578E+01  0.10202359666E+01 0.  0.
     999903    2    3    3    0    0 -0.92173606820E-01  0.58417647730E-01 -0.70794719871E-01  0.13173649485E+00  0.20833059150E-01 0.  0.
         14    1    1    2    0    0  0.12866856178E-01 -0.13570574982E-01 -0.14107472975E-01  0.23425142198E-01  0.00000000000E+00 0.  1.
     999901    1    3    3    0    0  0.79306750642E-01 -0.44847072748E-01  0.84902192846E-01  0.88876836295E+00  0.88000000000E+00 0.  1.
        -11    1    4    4    0    0 -0.24934866465E-01  0.24889313652E-01 -0.29784971500E-01  0.46137090805E-01  0.51100000000E-03 0. -1.
         11    1    4    4    0    0 -0.67238740356E-01  0.33528334078E-01 -0.41009748371E-01  0.85599404047E-01  0.51100000000E-03 0.  1.
</event>
<event>
 8    1  0.1128641E+005  0.1043930E+01  0.7957747E-01            NaN
         13   -1    0    0    0    0  0.00000000000E+00  0.00000000000E+00  0.74505805969E-08  0.10566000000E+00  0.10566000000E+00 0. -1.
     999900   -1    0    0    0    0 -0.00000000000E+00 -0.00000000000E+00 -0.74505805969E-08  0.93827000000E+00  0.93827000000E+00 0.  1.
     999902    2    1    2    0    0 -0.10583574574E-02 -0.19639546142E-01  0.13159789331E-01  0.10202654284E+01  0.10199909472E+01 0.  0.
     999903    2    3    3    0    0 -0.59797577479E-01 -0.11013956281E+00 -0.37211110078E-01  0.13224641032E+00  0.19949254668E-01 0.  0.
         14    1    1    2    0    0  0.10583574574E-02  0.19639546142E-01 -0.13159789331E-01  0.23664571587E-01  0.00000000000E+00 0.  1.
     999901    1    3    3    0    0  0.58739220022E-01  0.90500016665E-01  0.50370899409E-01  0.88801901809E+00  0.88000000000E+00 0. -1.
        -11    1    4    4    0    0 -0.34408943606E-01 -0.45836939060E-01 -0.22424142464E-01  0.61547572403E-01  0.51100000000E-03 0.  1.
         11    1    4    4    0    0 -0.25388633873E-01 -0.64302623747E-01 -0.14786967615E-01  0.70698837918E-01  0.51100000000E-03 0. -1.
</event>
<event>
 8    1  0.1128641E+005  0.1043930E+01  0.7957747E-01            NaN
         13   -1    0    0    0    0  0.00000000000E+00  0.00000000000E+00  0.74505805969E-08  0.10566000000E+00  0.10566000000E+00 0.  1.
     999900   -1    0    0    0    0 -0.00000000000E+00 -0.00000000000E+00 -0.74505805969E-08  0.93827000000E+00  0.93827000000E+00 0. -1.
     999902    2    1    2    0    0  0.21094116235E-01 -0.14024463123E-02 -0.10516655316E-01  0.10203179557E+01  0.10200447060E+01 0.  0.
     999903    2    3    3    0    0 -0.20822978498E-01  0.11891729387E+00  0.42646120621E-01  0.12955414672E+00  0.19765275401E-01 0.  0.
         14    1    1    2    0    0 -0.21094116235E-01  0.14024463123E-02  0.10516655316E-01  0.23612044266E-01  0.00000000000E+00 0.  1.
     999901    1    3    3    0    0  0.41917094733E-01 -0.12031974019E+00 -0.53162775937E-01  0.89076380902E+00  0.88000000000E+00 0. -1.
        -11    1    4    4    0    0 -0.78396536315E-02  0.82394240203E-01  0.22039445600E-01  0.85652024326E-01  0.51100000000E-03 0.  1.
         11    1    4    4    0    0 -0.12983324867E-01  0.36523053670E-01  0.20606675021E-01  0.43902122391E-01  0.51100000000E-03 0. -1.
</event>
<event>
 8    1  0.1128641E+005  0.1043930E+01  0.7957747E-01            NaN
         13   -1    0    0    0    0  0.00000000000E+00  0.00000000000E+00  0.74505805969E-08  0.10566000000E+00  0.10566000000E+00 0.  1.
     999900   -1    0    0    0    0 -0.00000000000E+00 -0.00000000000E+00 -0.74505805969E-08  0.93827000000E+00  0.93827000000E+00 0.  1.
     999902    2    1    2    0    0 -0.22010035439E-01 -0.78807729429E-02  0.32383501588E-02  0.10203284078E+01  0.10200554027E+01 0.  0.
     999903    2    3    3    0    0  0.99835516496E-01  0.37104826302E-02  0.78540159470E-01  0.12867205124E+00  0.20175283998E-01 0.  0.
         14    1    1    2    0    0  0.22010035439E-01  0.78807729429E-02 -0.32383501588E-02  0.23601592191E-01  0.00000000000E+00 0. -1.
     999901    1    3    3    0    0 -0.12184555193E+00 -0.11591255573E-01 -0.75301809311E-01  0.89165635657E+00  0.88000000000E+00 0.  1.
        -11    1    4    4    0    0  0.66583588647E-01  0.66712240633E-02  0.62757418394E-01  0.91742215976E-01  0.51100000000E-03 0. -1.
         11    1    4    4    0    0  0.33251927849E-01 -0.29607414331E-02  0.15782741075E-01  0.36929835260E-01  0.51100000000E-03 0.  1.
</event>
<event>
 8    1  0.1128641E+005  0.1043930E+01  0.7957747E-01            NaN
         13   -1    0    0    0    0  0.00000000000E+00  0.00000000000E+00  0.74505805969E-08  0.10566000000E+00  0.10566000000E+00 0.  1.
     999900   -1    0    0    0    0 -0.00000000000E+00 -0.00000000000E+00 -0.74505805969E-08  0.93827000000E+00  0.93827000000E+00 0. -1.
     999902    2    1    2    0    0  0.43474396975E-02  0.63011450049E-02 -0.23635273884E-01  0.10190858693E+01  0.10187829887E+01 0.  0.
     999903    2    3    3    0    0  0.14927289391E-01 -0.37009252569E-01  0.11837245805E+00  0.12658717477E+00  0.20488173319E-01 0.  0.
         14    1    1    2    0    0 -0.43474396975E-02 -0.63011450049E-02  0.23635273884E-01  0.24844130733E-01  0.00000000000E+00 0.  1.
     999901    1    3    3    0    0 -0.10579849694E-01  0.43310397574E-01 -0.14200773193E+00  0.89249869450E+00  0.88000000000E+00 0. -1.
        -11    1    4    4    0    0  0.17977446221E-01 -0.37238889059E-01  0.10478395498E+00  0.11264928661E+00  0.51100000000E-03 0. -1.
         11    1    4    4    0    0 -0.30501568303E-02  0.22963648949E-03  0.13588503071E-01  0.13937888159E-01  0.51100000000E-03 0.  1.
</event>
<event>
 8    1  0.1128641E+005  0.1043930E+01  0.7957747E-01            NaN
         13   -1    0    0    0    0  0.00000000000E+00  0.00000000000E+00  0.74505805969E-08  0.10566000000E+00  0.10566000000E+00 0.  1.
     999900   -1    0    0    0    0 -0.00000000000E+00 -0.00000000000E+00 -0.74505805969E-08  0.93827000000E+00  0.93827000000E+00 0. -1.
     999902    2    1    2    0    0  0.30708876423E-03 -0.10136665593E-01  0.19863577719E-01  0.10216273541E+01  0.10213838861E+01 0.  0.
     999903    2    3    3    0    0 -0.11810424263E+00 -0.56090837123E-01 -0.24759054799E-02  0.13222751054E+00  0.19575247103E-01 0.  0.
         14    1    1    2    0    0 -0.30708876423E-03  0.10136665593E-01 -0.19863577719E-01  0.22302645867E-01  0.00000000000E+00 0. -1.
     999901    1    3    3    0    0  0.11841133139E+00  0.45954171529E-01  0.22339483199E-01  0.88939984360E+00  0.88000000000E+00 0. -1.
        -11    1    4    4    0    0 -0.46760981999E-01 -0.32590529980E-01  0.13283804603E-02  0.57015417192E-01  0.51100000000E-03 0.  1.
         11    1    4    4    0    0 -0.71343260626E-01 -0.23500307143E-01 -0.38042859402E-02  0.75212093343E-01  0.51100000000E-03 0. -1.
</event>
<event>
 8    1  0.1128641E+005  0.1043930E+01  0.7957747E-01            NaN
         13   -1    0    0    0    0  0.00000000000E+00  0.00000000000E+00  0.74505805969E-08  0.10566000000E+00  0.10566000000E+00 0. -1.
     999900   -1    0    0    0    0 -0.00000000000E+00 -0.00000000000E+00 -0.74505805969E-08  0.93827000000E+00  0.93827000000E+00 0.  1.
     999902    2    1    2    0    0 -0.52206431207E-02 -0.22434117535E-01 -0.63683259060E-02  0.10200322947E+01  0.10197523140E+01 0.  0.
     999903    2    3    3    0    0  0.11503500099E+00  0.50883856328E-01 -0.17094007356E-01  0.12876803227E+00  0.21605155863E-01 0.  0.
         14    1    1    2    0    0  0.52206431207E-02  0.22434117535E-01  0.63683259060E-02  0.23897705309E-01  0.00000000000E+00 0. -1.
     999901    1    3    3    0    0 -0.12025564411E+00 -0.73317973864E-01  0.10725681450E-01  0.89126426242E+00  0.88000000000E+00 0.  1.
        -11    1    4    4    0    0  0.29115258054E-01  0.23521700046E-01 -0.61159374956E-02  0.37929334783E-01  0.51100000000E-03 0. -1.
         11    1    4    4    0    0  0.85919742932E-01  0.27362156283E-01 -0.10978069860E-01  0.90838697485E-01  0.51100000000E-03 0.  1.
</event>
<event>
 8    1  0.1128641E+005  0.1043930E+01  0.7957747E-01            NaN
         13   -1    0    0    0    0  0.00000000000E+00  0.00000000000E+00  0.74505805969E-08  0.10566000000E+00  0.10566000000E+00 0.  1.
     999900   -1    0    0    0    0 -0.00000000000E+00 -0.00000000000E+00 -0.74505805969E-08  0.93827000000E+00  0.93827000000E+00 0. -1.
     999902    2    1    2    0    0  0.20963494848E-01  0.10391089003E-02 -0.19931427093E-01  0.10149850583E+01  0.10145722542E+01 0.  0.
     999903    2    3    3    0    0  0.72925611463E-02 -0.11486319214E+00  0.43998402648E-01  0.12498097914E+00  0.20920118397E-01 0.  0.
         14    1    1    2    0    0 -0.20963494848E-01 -0.10391089003E-02  0.19931427093E-01  0.28944941691E-01  0.00000000000E+00 0.  1.
     999901    1    3    3    0    0  0.13670933702E-01  0.11590230104E+00 -0.63929829742E-01  0.89000407917E+00  0.88000000000E+00 0. -1.
        -11    1    4    4    0    0  0.33894140493E-02 -0.69066012848E-01  0.15401451464E-01  0.70845381547E-01  0.51100000000E-03 0.  1.
         11    1    4    4    0    0  0.39031470970E-02 -0.45797179290E-01  0.28596951185E-01  0.54135597588E-01  0.51100000000E-03 0. -1.
</event>
<event>
 8    1  0.1128641E+005  0.1043930E+01  0.7957747E-01            NaN
         13   -1    0    0    0    0  0.00000000000E+00  0.00000000000E+00  0.74505805969E-08  0.10566000000E+00  0.10566000000E+00 0.  1.
     999900   -1    0    0    0    0 -0.00000000000E+00 -0.00000000000E+00 -0.74505805969E-08  0.93827000000E+00  0.93827000000E+00 0.  1.
     999902    2    1    2    0    0 -0.23617647945E-01  0.37943039923E-02 -0.90877122466E-02  0.10183413980E+01  0.10180198556E+01 0.  0.
     999903    2    3    3    0    0 -0.64201592678E-01  0.80281939841E-01 -0.79360761659E-01  0.13130379088E+00  0.19378354992E-01 0.  0.
         14    1    1    2    0    0  0.23617647945E-01 -0.37943039923E-02  0.90877122466E-02  0.25588601977E-01  0.00000000000E+00 0.  1.
     999901    1    3    3    0    0  0.40583944733E-01 -0.76487635849E-01  0.70273049412E-01  0.88703760714E+00  0.88000000000E+00 0. -1.
        -11    1    4    4    0    0 -0.36970570889E-01  0.31507700344E-01 -0.40601838291E-01  0.63311363012E-01  0.51100000000E-03 0.  1.
         11    1    4    4    0    0 -0.27231021789E-01  0.48774239497E-01 -0.38758923368E-01  0.67992427871E-01  0.51100000000E-03 0. -1.
</event>
<event>
 8    1  0.1128641E+005  0.1043930E+01  0.7957747E-01            NaN
         13   -1    0    0    0    0  0.00000000000E+00  0.00000000000E+00  0.74505805969E-08  0.10566000000E+00  0.10566000000E+00 0.  1.
     999900   -1    0    0    0    0 -0.00000000000E+00 -0.00000000000E+00 -0.74505805969E-08  0.93827000000E+00  0.93827000000E+00 0. -1.
     999902    2    1    2    0    0 -0.20919353420E-01 -0.80730396952E-02  0.76511629347E-02  0.10202375199E+01  0.10199623834E+01 0.  0.
     999903    2    3    3    0    0 -0.12811117559E+00  0.23477872076E-01  0.18848259819E-01  0.13310115964E+00  0.19924307031E-01 0.  0.
         14    1    1    2    0    0  0.20919353420E-01  0.80730396952E-02 -0.76511629347E-02  0.23692480066E-01  0.00000000000E+00 0.  1.
     999901    1    3    3    0    0  0.10719182217E+00 -0.31550911771E-01 -0.11197096884E-01  0.88713636029E+00  0.88000000000E+00 0.  1.
        -11    1    4    4    0    0 -0.40332900000E-01 -0.18951133627E-02  0.63606450585E-02  0.40878517630E-01  0.51100000000E-03 0. -1.
         11    1    4    4    0    0 -0.87778275592E-01  0.25372985439E-01  0.12487614760E-01  0.92222642011E-01  0.51100000000E-03 0.  1.
</event>
<event>
 8    1  0.1128641E+005  0.1043930E+01  0.7957747E-01            NaN
         13   -1    0    0    0    0  0.00000000000E+00  0.00000000000E+00  0.74505805969E-08  0.10566000000E+00  0.10566000000E+00 0.  1.
     999900   -1    0    0    0    0 -0.00000000000E+00 -0.00000000000E+00 -0.74505805969E-08  0.93827000000E+00  0.93827000000E+00 0.  1.
     999902    2    1    2    0    0 -0.20877354178E-01  0.86113667562E-02 -0.67837714735E-02  0.10203495184E+01  0.10200770072E+01 0.  0.
     999903    2    3    3    0    0  0.69459405212E-01  0.62353495617E-02  0.10618622949E+00  0.12853754461E+00  0.19567740912E-01 0.  0.
         14    1    1    2    0    0  0.20877354178E-01 -0.86113667562E-02  0.67837714735E-02  0.23580481553E-01  0.00000000000E+00 0.  1.
     999901    1    3    3    0    0 -0.90336759390E-01  0.23760171944E-02 -0.11297000097E+00  0.89181197383E+00  0.88000000000E+00 0.  1.
        -11    1    4    4    0    0  0.15186380571E-01  0.77921075748E-02  0.35595977208E-01  0.39480093841E-01  0.51100000000E-03 0. -1.
         11    1    4    4    0    0  0.54273024641E-01 -0.15567580130E-02  0.70590252286E-01  0.89057450772E-01  0.51100000000E-03 0.  1.
</event>
<event>
 8    1  0.1128641E+005  0.1043930E+01  0.7957747E-01            NaN
         13   -1    0    0    0    0  0.00000000000E+00  0.00000000000E+00  0.74505805969E-08  0.10566000000E+00  0.10566000000E+00 0.  1.
     999900   -1    0    0    0    0 -0.00000000000E+00 -0.00000000000E+00 -0.74505805969E-08  0.93827000000E+00  0.93827000000E+00 0. -1.
     999902    2    1    2    0    0  0.13516082491E-01 -0.14135442192E-01 -0.12495675083E-01  0.10207214432E+01  0.10204575579E+01 0.  0.
     999903    2    3    3    0    0 -0.96173462470E-01  0.31010145854E-01  0.76503428200E-01  0.12831415909E+00  0.20019612056E-01 0.  0.
         14    1    1    2    0    0 -0.13516082491E-01  0.14135442192E-01  0.12495675083E-01  0.23208556776E-01  0.00000000000E+00 0.  1.
     999901    1    3    3    0    0  0.10968954496E+00 -0.45145588046E-01 -0.88999103282E-01  0.89240728414E+00  0.88000000000E+00 0. -1.
        -11    1    4    4    0    0 -0.52682195514E-01  0.66506988230E-02  0.41636365520E-01  0.67479578938E-01  0.51100000000E-03 0. -1.
         11    1    4    4    0    0 -0.43491266956E-01  0.24359447031E-01  0.34867062680E-01  0.60834580150E-01  0.51100000000E-03 0.  1.
</event>
<event>
 8    1  0.1128641E+005  0.1043930E+01  0.7957747E-01            NaN
         13   -1    0    0    0    0  0.00000000000E+00  0.00000000000E+00  0.74505805969E-08  0.10566000000E+00  0.10566000000E+00 0. -1.
     999900   -1    0    0    0    0 -0.00000000000E+00 -0.00000000000E+00 -0.74505805969E-08  0.93827000000E+00  0.93827000000E+00 0.  1.
     999902    2    1    2    0    0 -0.44752663734E-02 -0.69937111329E-03  0.23150879416E-01  0.10203401643E+01  0.10200674343E+01 0.  0.
     999903    2    3    3    0    0  0.11423134337E-01  0.53160289573E-01  0.12018884394E+00  0.13322687464E+00  0.18642358531E-01 0.  0.
         14    1    1    2    0    0  0.44752663734E-02  0.69937111329E-03 -0.23150879416E-01  0.23589835667E-01  0.00000000000E+00 0.  1.
     999901    1    3    3    0    0 -0.15898400711E-01 -0.53859660686E-01 -0.97037964529E-01  0.88711328970E+00  0.88000000000E+00 0.  1.
        -11    1    4    4    0    0  0.10221425524E-01  0.15870529127E-01  0.54520343114E-01  0.57698181676E-01  0.51100000000E-03 0. -1.
         11    1    4    4    0    0  0.12017088133E-02  0.37289760446E-01  0.65668500830E-01  0.75528692962E-01  0.51100000000E-03 0.  1.
</event>
<event>
 8    1  0.1128641E+005  0.1043930E+01  0.7957747E-01            NaN
         13   -1    0    0    0    0  0.00000000000E+00  0.00000000000E+00  0.74505805969E-08  0.10566000000E+00  0.10566000000E+00 0.  1.
     999900   -1    0    0    0    0 -0.00000000000E+00 -0.00000000000E+00 -0.74505805969E-08  0.93827000000E+00  0.93827000000E+00 0.  1.
     999902    2    1    2    0    0 -0.20677548872E-02 -0.30909523873E-02  0.23161836226E-01  0.10204715206E+01  0.10202018546E+01 0.  0.
     999903    2    3    3    0    0  0.70130849897E-01 -0.10630957039E+00 -0.19764520107E-01  0.13046624329E+00  0.20266808301E-01 0.  0.
         14    1    1    2    0    0  0.20677548872E-02  0.30909523873E-02 -0.23161836226E-01  0.23458479369E-01  0.00000000000E+00 0. -1.
     999901    1    3    3    0    0 -0.72198604784E-01  0.10321861800E+00  0.42926356333E-01  0.89000527735E+00  0.88000000000E+00 0. -1.
        -11    1    4    4    0    0  0.26946432155E-01 -0.40769661284E-01  0.23233641671E-02  0.48927851262E-01  0.51100000000E-03 0.  1.
         11    1    4    4    0    0  0.43184417742E-01 -0.65539909103E-01 -0.22087884274E-01  0.81538392023E-01  0.51100000000E-03 0. -1.
</event>
<event>
 8    1  0.1128641E+005  0.1043930E+01  0.7957747E-01            NaN
         13   -1    0    0    0    0  0.00000000000E+00  0.00000000000E+00  0.74505805969E-08  0.10566000000E+00  0.10566000000E+00 0. -1.
     999900   -1    0    0    0    0 -0.00000000000E+00 -0.00000000000E+00 -0.74505805969E-08  0.93827000000E+00  0.93827000000E+00 0. -1.
     999902    2    1    2    0    0  0.52171144218E-02  0.50830754653E-02  0.22492966687E-01  0.10202870414E+01  0.10200130673E+01 0.  0.
     999903    2    3    3    0    0  0.12765136055E+00 -0.13901647481E-01 -0.14691580409E-01  0.13083032250E+00  0.20312683160E-01 0.  0.
         14    1    1    2    0    0 -0.52171144218E-02 -0.50830754653E-02 -0.22492966687E-01  0.23642958560E-01  0.00000000000E+00 0.  1.
     999901    1    3    3    0    0 -0.12243424613E+00  0.18984722947E-01  0.37184547097E-01  0.88945671894E+00  0.88000000000E+00 0. -1.
        -11    1    4    4    0    0  0.66641220720E-01  0.91550951035E-03 -0.13666687205E-01  0.68036239732E-01  0.51100000000E-03 0.  1.
         11    1    4    4    0    0  0.61010139828E-01 -0.14817156992E-01 -0.10248932042E-02  0.62794082765E-01  0.51100000000E-03 0. -1.
</event>
<event>
 7    1  0.1128641E+005  0.1043930E+01  0.7957747E-01            NaN
         13   -1    0    0    0    0  0.00000000000E+00  0.00000000000E+00  0.74505805969E-08  0.10566000000E+00  0.10566000000E+00 0. -1.
     999900   -1    0    0    0    0 -0.00000000000E+00 -0.00000000000E+00 -0.74505805969E-08  0.93827000000E+00  0.93827000000E+00 0.  1.
     999903    2    1    2    0    0  0.93034070316E-01 -0.11486971736E-01 -0.57846676224E-01  0.11181323260E+00  0.19200840484E-01 0.  0.
         14    1    1    2    0    0 -0.12761519502E-01 -0.42118929155E-01 -0.65731232308E-02  0.44497938404E-01  0.00000000000E+00 0.  1.
     999901    1    1    2    0    0 -0.80272550815E-01  0.53605900891E-01  0.64419799455E-01  0.88761882900E+00  0.88000000000E+00 0. -1.
        -11    1    3    3    0    0  0.66293422340E-01 -0.20874657936E-02 -0.32848450133E-01  0.74016600545E-01  0.51100000000E-03 0. -1.
         11    1    3    3    0    0  0.26740647976E-01 -0.93995059427E-02 -0.24998226091E-01  0.37796632057E-01  0.51100000000E-03 0.  1.
</event>
<event>
 8    1  0.1128641E+005  0.1043930E+01  0.7957747E-01            NaN
         13   -1    0    0    0    0  0.00000000000E+00  0.00000000000E+00  0.74505805969E-08  0.10566000000E+00  0.10566000000E+00 0.  1.
     999900   -1    0    0    0    0 -0.00000000000E+00 -0.00000000000E+00 -0.74505805969E-08  0.93827000000E+00  0.93827000000E+00 0.  1.
     999902    2    1    2    0    0 -0.33772933352E-02  0.32157901867E-02  0.23463075089E-01  0.10200079744E+01  0.10197274168E+01 0.  0.
     999903    2    3    3    0    0 -0.99051309522E-01  0.39986145025E-01  0.75975876009E-01  0.13250407545E+00  0.19363433668E-01 0.  0.
         14    1    1    2    0    0  0.33772933352E-02 -0.32157901867E-02 -0.23463075089E-01  0.23922025613E-01  0.00000000000E+00 0. -1.
     999901    1    3    3    0    0  0.95674016187E-01 -0.36770354838E-01 -0.52512800920E-01  0.88750389894E+00  0.88000000000E+00 0.  1.
        -11    1    4    4    0    0 -0.41082441389E-01  0.85130568058E-02  0.22649272205E-01  0.47681126026E-01  0.51100000000E-03 0.  1.
         11    1    4    4    0    0 -0.57968868133E-01  0.31473088219E-01  0.53326603804E-01  0.84822949424E-01  0.51100000000E-03 0. -1.
</event>
<event>
 8    1  0.1128641E+005  0.1043930E+01  0.7957747E-01            NaN
         13   -1    0    0    0    0  0.00000000000E+00  0.00000000000E+00  0.74505805969E-08  0.10566000000E+00  0.10566000000E+00 0.  1.
     999900   -1    0    0    0    0 -0.00000000000E+00 -0.00000000000E+00 -0.74505805969E-08  0.93827000000E+00  0.93827000000E+00 0. -1.
     999902    2    1    2    0    0  0.22407584431E-01  0.46785827050E-02  0.53245328502E-02  0.10204280931E+01  0.10201574161E+01 0.  0.
     999903    2    3    3    0    0  0.27316042222E-01 -0.49191251605E-01  0.11744871004E+00  0.13166609850E+00  0.19385989907E-01 0.  0.
         14    1    1    2    0    0 -0.22407584431E-01 -0.46785827050E-02 -0.53245328502E-02  0.23501906864E-01  0.00000000000E+00 0. -1.
     999901    1    3    3    0    0 -0.49084577910E-02  0.53869834310E-01 -0.11212417719E+00  0.88876199464E+00  0.88000000000E+00 0. -1.
        -11    1    4    4    0    0  0.23311701095E-02 -0.20084126305E-01  0.52111739905E-01  0.55899025398E-01  0.51100000000E-03 0. -1.
         11    1    4    4    0    0  0.24984872113E-01 -0.29107125300E-01  0.65336970140E-01  0.75767073097E-01  0.51100000000E-03 0.  1.
</event>
<event>
 8    1  0.1128641E+005  0.1043930E+01  0.7957747E-01            NaN
         13   -1    0    0    0    0  0.00000000000E+00  0.00000000000E+00  0.74505805969E-08  0.10566000000E+00  0.10566000000E+00 0.  1.
     999900   -1    0    0    0    0 -0.00000000000E+00 -0.00000000000E+00 -0.74505805969E-08  0.93827000000E+00  0.93827000000E+00 0. -1.
     999902    2    1    2    0    0 -0.42707773732E-02 -0.21595838746E-01  0.54878300833E-04  0.10219158500E+01  0.10216787076E+01 0.  0.
     999903    2    3    3    0    0  0.51972228153E-01 -0.45887294274E-01  0.11149741482E+00  0.13277424738E+00  0.19762868740E-01 0.  0.
         14    1    1    2    0    0  0.42707773732E-02  0.21595838746E-01 -0.54878300833E-04  0.22014150043E-01  0.00000000000E+00 0. -1.
     999901    1    3    3    0    0 -0.56243005526E-01  0.24291455528E-01 -0.11144253652E+00  0.88914160257E+00  0.88000000000E+00 0. -1.
        -11    1    4    4    0    0  0.17620714992E-02 -0.90466399436E-02  0.93508344424E-02  0.13139475484E-01  0.51100000000E-03 0.  1.
         11    1    4    4    0    0  0.50210156654E-01 -0.36840654331E-01  0.10214658038E+00  0.11963477190E+00  0.51100000000E-03 0. -1.
</event>
<event>
 8    1  0.1128641E+005  0.1043930E+01  0.7957747E-01            NaN
         13   -1    0    0    0    0  0.00000000000E+00  0.00000000000E+00  0.74505805969E-08  0.10566000000E+00  0.10566000000E+00 0.  1.
     999900   -1    0    0    0    0 -0.00000000000E+00 -0.00000000000E+00 -0.74505805969E-08  0.93827000000E+00  0.93827000000E+00 0. -1.
     999902    2    1    2    0    0  0.17421875412E-01  0.41370502075E-02  0.14209578495E-01  0.10210706682E+01  0.10208147533E+01 0.  0.
     999903    2    3    3    0    0 -0.35717557367E-01  0.91919714340E-01 -0.82192374698E-01  0.12987880786E+00  0.19696204803E-01 0.  0.
         14    1    1    2    0    0 -0.17421875412E-01 -0.41370502075E-02 -0.14209578495E-01  0.22859331755E-01  0.00000000000E+00 0. -1.
     999901    1    3    3    0    0  0.53139432779E-01 -0.87782664133E-01  0.96401953193E-01  0.89119186039E+00  0.88000000000E+00 0.  1.
        -11    1    4    4    0    0 -0.38085020004E-01  0.85175749825E-01 -0.77708208616E-01  0.12142571356E+00  0.51100000000E-03 0.  1.
         11    1    4    4    0    0  0.23674626373E-02  0.67439645153E-02 -0.44841660825E-02  0.84530942960E-02  0.51100000000E-03 0. -1.
</event>
<event>
 8    1  0.1128641E+005  0.1043930E+01  0.7957747E-01            NaN
         13   -1    0    0    0    0  0.00000000000E+00  0.00000000000E+00  0.74505805969E-08  0.10566000000E+00  0.10566000000E+00 0. -1.
     999900   -1    0    0    0    0 -0.00000000000E+00 -0.00000000000E+00 -0.74505805969E-08  0.93827000000E+00  0.93827000000E+00 0.  1.
     999902    2    1    2    0    0 -0.58431167886E-02 -0.79725010989E-02  0.28325685912E-01  0.10139292122E+01  0.10134852737E+01 0.  0.
     999903    2    3    3    0    0 -0.21038080294E-01 -0.10849003676E+00 -0.53876625002E-01  0.12427091721E+00  0.18107491323E-01 0.  0.
         14    1    1    2    0    0  0.58431167886E-02  0.79725010989E-02 -0.28325685912E-01  0.30000787823E-01  0.00000000000E+00 0.  1.
     999901    1    3    3    0    0  0.15194963505E-01  0.10051753567E+00  0.82202310914E-01  0.88965829497E+00  0.88000000000E+00 0.  1.
        -11    1    4    4    0    0 -0.19398224065E-01 -0.73503565030E-01 -0.29263876589E-01  0.81459810723E-01  0.51100000000E-03 0. -1.
         11    1    4    4    0    0 -0.16398562292E-02 -0.34986471734E-01 -0.24612748413E-01  0.42811106483E-01  0.51100000000E-03 0.  1.
</event>
<event>
 8    1  0.1128641E+005  0.1043930E+01  0.7957747E-01            NaN
         13   -1    0    0    0    0  0.00000000000E+00  0.00000000000E+00  0.74505805969E-08  0.10566000000E+00  0.10566000000E+00 0. -1.
     999900   -1    0    0    0    0 -0.00000000000E+00 -0.00000000000E+00 -0.74505805969E-08  0.93827000000E+00  0.93827000000E+00 0.  1.
     999902    2    1    2    0    0  0.29697400148E-02  0.19091343391E-01  0.13413165798E-01  0.10204095458E+01  0.10201384364E+01 0.  0.
     999903    2    3    3    0    0 -0.97657749892E-01 -0.75201829953E-01 -0.30866032618E-01  0.12857001895E+00  0.19626167790E-01 0.  0.
         14    1    1    2    0    0 -0.29697400148E-02 -0.19091343391E-01 -0.13413165798E-01  0.23520454182E-01  0.00000000000E+00 0.  1.
     999901    1    3    3    0    0  0.10062748991E+00  0.94293173344E-01  0.44279198416E-01  0.89183952686E+00  0.88000000000E+00 0.  1.
        -11    1    4    4    0    0 -0.48854345690E-01 -0.39143735905E-01 -0.25684780793E-01  0.67667926219E-01  0.51100000000E-03 0. -1.
         11    1    4    4    0    0 -0.48803404202E-01 -0.36058094048E-01 -0.51812518246E-02  0.60902092735E-01  0.51100000000E-03 0.  1.
</event>
<event>
 8    1  0.1128641E+005  0.1043930E+01  0.7957747E-01            NaN
         13   -1    0    0    0    0  0.00000000000E+00  0.00000000000E+00  0.74505805969E-08  0.10566000000E+00  0.10566000000E+00 0. -1.
     999900   -1    0    0    0    0 -0.00000000000E+00 -0.00000000000E+00 -0.74505805969E-08  0.93827000000E+00  0.93827000000E+00 0.  1.
     999902    2    1    2    0    0 -0.19110760829E-01  0.14485944726E-01 -0.18131230778E-02  0.10198810668E+01  0.10195974888E+01 0.  0.
     999903    2    3    3    0    0 -0.30084678177E-01 -0.73669034829E-01  0.10096233788E+00  0.12945727854E+00  0.15283283067E-01 0.  0.
         14    1    1    2    0    0  0.19110760829E-01 -0.14485944726E-01  0.18131230778E-02  0.24048933227E-01  0.00000000000E+00 0.  1.
     999901    1    3    3    0    0  0.10973917349E-01  0.88154979555E-01 -0.10277546096E+00  0.89042378824E+00  0.88000000000E+00 0.  1.
        -11    1    4    4    0    0 -0.25344462796E-01 -0.53830524655E-01  0.65083335285E-01  0.88182588031E-01  0.51100000000E-03 0. -1.
         11    1    4    4    0    0 -0.47402153815E-02 -0.19838510174E-01  0.35879002599E-01  0.41274690505E-01  0.51100000000E-03 0.  1.
</event>
<event>
 8    1  0.1128641E+005  0.1043930E+01  0.7957747E-01            NaN
         13   -1    0    0    0    0  0.00000000000E+00  0.00000000000E+00  0.74505805969E-08  0.10566000000E+00  0.10566000000E+00 0.  1.
     999900   -1    0    0    0    0 -0.00000000000E+00 -0.00000000000E+00 -0.74505805969E-08  0.93827000000E+00  0.93827000000E+00 0. -1.
     999902    2    1    2    0    0  0.24286336506E-01 -0.13151047769E-02  0.12050615073E-02  0.10195782482E+01  0.10192873964E+01 0.  0.
     999903    2    3    3    0    0 -0.45675703031E-01  0.94358205950E-01  0.72033355570E-01  0.12881188345E+00  0.20345911790E-01 0.  0.
         14    1    1    2    0    0 -0.24286336506E-01  0.13151047769E-02 -0.12050615073E-02  0.24351751779E-01  0.00000000000E+00 0. -1.
     999901    1    3    3    0    0  0.69962039537E-01 -0.95673310727E-01 -0.70828294063E-01  0.89076636477E+00  0.88000000000E+00 0. -1.
        -11    1    4    4    0    0 -0.21973403167E-01  0.24048492728E-01  0.21191075954E-01  0.38864936257E-01  0.51100000000E-03 0. -1.
         11    1    4    4    0    0 -0.23702299864E-01  0.70309713223E-01  0.50842279616E-01  0.89946947196E-01  0.51100000000E-03 0.  1.
</event>
<event>
 8    1  0.1128641E+005  0.1043930E+01  0.7957747E-01            NaN
         13   -1    0    0    0    0  0.00000000000E+00  0.00000000000E+00  0.74505805969E-08  0.10566000000E+00  0.10566000000E+00 0. -1.
     999900   -1    0    0    0    0 -0.00000000000E+00 -0.00000000000E+00 -0.74505805969E-08  0.93827000000E+00  0.93827000000E+00 0. -1.
     999902    2    1    2    0    0 -0.75304365290E-02 -0.17919264814E-01  0.14644756925E-01  0.10195932699E+01  0.10193027811E+01 0.  0.
     999903    2    3    3    0    0  0.28541749014E-01 -0.12456126674E+00  0.26084525523E-01  0.13234776418E+00  0.22480827462E-01 0.  0.
         14    1    1    2    0    0  0.75304365290E-02  0.17919264814E-01 -0.14644756925E-01  0.24336730084E-01  0.00000000000E+00 0.  1.
     999901    1    3    3    0    0 -0.36072185543E-01  0.10664200192E+00 -0.11439768598E-01  0.88724550574E+00  0.88000000000E+00 0.  1.
        -11    1    4    4    0    0  0.27321004728E-01 -0.69798903286E-01  0.16103897106E-01  0.76667599559E-01  0.51100000000E-03 0.  1.
         11    1    4    4    0    0  0.12207442861E-02 -0.54762363453E-01  0.99806284167E-02  0.55680164620E-01  0.51100000000E-03 0. -1.
</event>
<event>
 8    1  0.1128641E+005  0.1043930E+01  0.7957747E-01            NaN
         13   -1    0    0    0    0  0.00000000000E+00  0.00000000000E+00  0.74505805969E-08  0.10566000000E+00  0.10566000000E+00 0.  1.
     999900   -1    0    0    0    0 -0.00000000000E+00 -0.00000000000E+00 -0.74505805969E-08  0.93827000000E+00  0.93827000000E+00 0.  1.
     999902    2    1    2    0    0  0.12853168133E-01 -0.12366282949E-01  0.12425412828E-01  0.10221924802E+01  0.10219613235E+01 0.  0.
     999903    2    3    3    0    0 -0.11227836109E+00  0.89801954370E-02  0.64883047563E-01  0.13153801563E+00  0.20133688551E-01 0.  0.
         14    1    1    2    0    0 -0.12853168133E-01  0.12366282949E-01 -0.12425412828E-01  0.21737519844E-01  0.00000000000E+00 0. -1.
     999901    1    3    3    0    0  0.12513152922E+00 -0.21346478386E-01 -0.52457634735E-01  0.89065446453E+00  0.88000000000E+00 0.  1.
        -11    1    4    4    0    0 -0.83460464615E-01 -0.81749141621E-03  0.41889711980E-01  0.93388042793E-01  0.51100000000E-03 0.  1.
         11    1    4    4    0    0 -0.28817896474E-01  0.97976868532E-02  0.22993335583E-01  0.38149972832E-01  0.51100000000E-03 0. -1.
</event>
<event>
 8    1  0.1128641E+005  0.1043930E+01  0.7957747E-01            NaN
         13   -1    0    0    0    0  0.00000000000E+00  0.00000000000E+00  0.74505805969E-08  0.10566000000E+00  0.10566000000E+00 0.  1.
     999900   -1    0    0    0    0 -0.00000000000E+00 -0.00000000000E+00 -0.74505805969E-08  0.93827000000E+00  0.93827000000E+00 0. -1.
     999902    2    1    2    0    0  0.52304065195E-02 -0.17614061821E-01  0.11429980317E-01  0.10222907584E+01  0.10220617095E+01 0.  0.
     999903    2    3    3    0    0  0.30430590946E-01 -0.87735168116E-02 -0.12588379699E+00  0.13124178223E+00  0.19356642154E-01 0.  0.
         14    1    1    2    0    0 -0.52304065195E-02  0.17614061821E-01 -0.11429980317E-01  0.21639241582E-01  0.00000000000E+00 0. -1.
     999901    1    3    3    0    0 -0.25200184426E-01 -0.88405450094E-02  0.13731377731E+00  0.89104897619E+00  0.88000000000E+00 0.  1.
        -11    1    4    4    0    0  0.24692004278E-01 -0.46558564166E-02 -0.61025934236E-01  0.65998468502E-01  0.51100000000E-03 0.  1.
         11    1    4    4    0    0  0.57385866681E-02 -0.41176603950E-02 -0.64857862753E-01  0.65243313726E-01  0.51100000000E-03 0. -1.
</event>
<event>
 8    1  0.1128641E+005  0.1043930E+01  0.7957747E-01            NaN
         13   -1    0    0    0    0  0.00000000000E+00  0.00000000000E+00  0.74505805969E-08  0.10566000000E+00  0.10566000000E+00 0.  1.
     999900   -1    0    0    0    0 -0.00000000000E+00 -0.00000000000E+00 -0.74505805969E-08  0.93827000000E+00  0.93827000000E+00 0.  1.
     999902    2    1    2    0    0  0.19439583818E-01 -0.80230427490E-02  0.90929046765E-02  0.10210182661E+01  0.10207611632E+01 0.  0.
     999903    2    3    3    0    0 -0.95172978340E-01 -0.68791015273E-01  0.53033869924E-01  0.13042318736E+00  0.20187046662E-01 0.  0.
         14    1    1    2    0    0 -0.19439583818E-01  0.80230427490E-02 -0.90929046765E-02  0.22911733881E-01  0.00000000000E+00 0.  1.
     999901    1    3    3    0    0  0.11461256216E+00  0.60767972523E-01 -0.43940965248E-01  0.89059507876E+00  0.88000000000E+00 0. -1.
        -11    1    4    4    0    0 -0.20955756534E-01 -0.18428340146E-01  0.39820312293E-02  0.28193352872E-01  0.51100000000E-03 0.  1.
         11    1    4    4    0    0 -0.74217221806E-01 -0.50362675126E-01  0.49051838695E-01  0.10222983448E+00  0.51100000000E-03 0. -1.
</event>
<event>
 8    1  0.1128641E+005  0.1043930E+01  0.7957747E-01            NaN
         13   -1    0    0    0    0  0.00000000000E+00  0.00000000000E+00  0.74505805969E-08  0.10566000000E+00  0.10566000000E+00 0.  1.
     999900   -1    0    0    0    0 -0.00000000000E+00 -0.00000000000E+00 -0.74505805969E-08  0.93827000000E+00  0.93827000000E+00 0.  1.
     999902    2    1    2    0    0 -0.34454303460E-02  0.24117950185E-01  0.26019879691E-03  0.10195658006E+01  0.10192746477E+01 0.  0.
     999903    2    3    3    0    0  0.11210784962E+00 -0.51899257981E-01 -0.28112691037E-01  0.12831039533E+00  0.20286232458E-01 0.  0.
         14    1    1    2    0    0  0.34454303460E-02 -0.24117950185E-01 -0.26019879691E-03  0.24364199450E-01  0.00000000000E+00 0.  1.
     999901    1    3    3    0    0 -0.11555327997E+00  0.76017208167E-01  0.28372889834E-01  0.89125540522E+00  0.88000000000E+00 0.  1.
        -11    1    4    4    0    0  0.48889463570E-01 -0.33340749468E-01 -0.10423604224E-01  0.60089082780E-01  0.51100000000E-03 0.  1.
         11    1    4    4    0    0  0.63218386053E-01 -0.18558508513E-01 -0.17689086813E-01  0.68221312554E-01  0.51100000000E-03 0. -1.
</event>
<event>
 8    1  0.1128641E+005  0.1043930E+01  0.7957747E-01            NaN
         13   -1    0    0    0    0  0.00000000000E+00  0.00000000000E+00  0.74505805969E-08  0.10566000000E+00  0.10566000000E+00 0.  1.
     999900   -1    0    0    0    0 -0.00000000000E+00 -0.00000000000E+00 -0.74505805969E-08  0.93827000000E+00  0.93827000000E+00 0.  1.
     999902    2    1    2    0    0  0.34982123595E-03 -0.19125544875E-01  0.14461129654E-01  0.10199501519E+01  0.10196682202E+01 0.  0.
     999903    2    3    3    0    0  0.70926546821E-01 -0.69676403928E-01  0.85938060202E-01  0.13279435101E+00  0.19068643361E-01 0.  0.
         14    1    1    2    0    0 -0.34982123595E-03  0.19125544875E-01 -0.14461129654E-01  0.23979848051E-01  0.00000000000E+00 0. -1.
     999901    1    3    3    0    0 -0.70576725585E-01  0.50550859053E-01 -0.71476930548E-01  0.88715580094E+00  0.88000000000E+00 0.  1.
        -11    1    4    4    0    0  0.18640389392E-01 -0.27090134712E-01  0.36800385534E-01  0.49354523722E-01  0.51100000000E-03 0. -1.
         11    1    4    4    0    0  0.52286157429E-01 -0.42586269216E-01  0.49137674668E-01  0.83439827284E-01  0.51100000000E-03 0.  1.
</event>
<event>
 8    1  0.1128641E+005  0.1043930E+01  0.7957747E-01            NaN
         13   -1    0    0    0    0  0.00000000000E+00  0.00000000000E+00  0.74505805969E-08  0.10566000000E+00  0.10566000000E+00 0.  1.
     999900   -1    0    0    0    0 -0.00000000000E+00 -0.00000000000E+00 -0.74505805969E-08  0.93827000000E+00  0.93827000000E+00 0. -1.
     999902    2    1    2    0    0 -0.16811792675E-01 -0.15906057108E-01  0.72325884814E-03  0.10207748250E+01  0.10205121661E+01 0.  0.
     999903    2    3    3    0    0  0.84958968317E-01  0.13214519805E-01  0.94588618281E-01  0.12947465026E+00  0.20591952830E-01 0.  0.
         14    1    1    2    0    0  0.16811792675E-01  0.15906057108E-01 -0.72325884814E-03  0.23155174995E-01  0.00000000000E+00 0.  1.
     999901    1    3    3    0    0 -0.10177076099E+00 -0.29120576913E-01 -0.93865359433E-01  0.89130017474E+00  0.88000000000E+00 0. -1.
        -11    1    4    4    0    0  0.66650947626E-01  0.10406998826E-01  0.85287170288E-01  0.10874197433E+00  0.51100000000E-03 0.  1.
         11    1    4    4    0    0  0.18308020691E-01  0.28075209793E-02  0.93014479930E-02  0.20732675936E-01  0.51100000000E-03 0. -1.
</event>
<event>
 8    1  0.1128641E+005  0.1043930E+01  0.7957747E-01            NaN
         13   -1    0    0    0    0  0.00000000000E+00  0.00000000000E+00  0.74505805969E-08  0.10566000000E+00  0.10566000000E+00 0. -1.
     999900   -1    0    0    0    0 -0.00000000000E+00 -0.00000000000E+00 -0.74505805969E-08  0.93827000000E+00  0.93827000000E+00 0. -1.
     999902    2    1    2    0    0  0.73709445151E-02  0.68272852713E-02 -0.21507532436E-01  0.10201914954E+01  0.10199152763E+01 0.  0.
     999903    2    3    3    0    0  0.64722853279E-01  0.90901063897E-01  0.64171960803E-01  0.13019227227E+00  0.19491948340E-01 0.  0.
         14    1    1    2    0    0 -0.73709445151E-02 -0.68272852713E-02  0.21507532436E-01  0.23738504559E-01  0.00000000000E+00 0. -1.
     999901    1    3    3    0    0 -0.57351908764E-01 -0.84073778626E-01 -0.85679493239E-01  0.88999922318E+00  0.88000000000E+00 0. -1.
        -11    1    4    4    0    0  0.61794656791E-01  0.89723284719E-01  0.65035081762E-01  0.12688053598E+00  0.51100000000E-03 0.  1.
         11    1    4    4    0    0  0.29281964880E-02  0.11777791778E-02 -0.86312095824E-03  0.33117362897E-02  0.51100000000E-03 0. -1.
</event>
<event>
 8    1  0.1128641E+005  0.1043930E+01  0.7957747E-01            NaN
         13   -1    0    0    0    0  0.00000000000E+00  0.00000000000E+00  0.74505805969E-08  0.10566000000E+00  0.10566000000E+00 0.  1.
     999900   -1    0    0    0    0 -0.00000000000E+00 -0.00000000000E+00 -0.74505805969E-08  0.93827000000E+00  0.93827000000E+00 0. -1.
     999902    2    1    2    0    0  0.32801236775E-02 -0.35032608142E-02 -0.23787200909E-01  0.10196635010E+01  0.10193747065E+01 0.  0.
     999903    2    3    3    0    0 -0.27077452719E-01  0.36676700958E-01  0.11678197954E+00  0.12708537764E+00  0.20839712731E-01 0.  0.
         14    1    1    2    0    0 -0.32801236775E-02  0.35032608142E-02  0.23787200909E-01  0.24266499021E-01  0.00000000000E+00 0.  1.
     999901    1    3    3    0    0  0.30357576396E-01 -0.40179961772E-01 -0.14056918044E+00  0.89257812334E+00  0.88000000000E+00 0. -1.
        -11    1    4    4    0    0 -0.11389750127E-01  0.23192295724E-02  0.37528537985E-01  0.39290679786E-01  0.51100000000E-03 0. -1.
         11    1    4    4    0    0 -0.15687702591E-01  0.34357471385E-01  0.79253441551E-01  0.87794697854E-01  0.51100000000E-03 0.  1.
</event>
<event>
 8    1  0.1128641E+005  0.1043930E+01  0.7957747E-01            NaN
         13   -1    0    0    0    0  0.00000000000E+00  0.00000000000E+00  0.74505805969E-08  0.10566000000E+00  0.10566000000E+00 0. -1.
     999900   -1    0    0    0    0 -0.00000000000E+00 -0.00000000000E+00 -0.74505805969E-08  0.93827000000E+00  0.93827000000E+00 0. -1.
     999902    2    1    2    0    0  0.11827987669E-01  0.12603411260E-01 -0.18389420041E-01  0.10186927649E+01  0.10183801015E+01 0.  0.
     999903    2    3    3    0    0 -0.10212833455E+00  0.16339549927E-02 -0.76786101391E-01  0.12935787590E+00  0.20111891102E-01 0.  0.
         14    1    1    2    0    0 -0.11827987669E-01 -0.12603411260E-01  0.18389420041E-01  0.25237235133E-01  0.00000000000E+00 0. -1.
     999901    1    3    3    0    0  0.11395632222E+00  0.10969456267E-01  0.58396681350E-01  0.88933488897E+00  0.88000000000E+00 0.  1.
        -11    1    4    4    0    0 -0.59909752377E-01  0.10676296914E-01 -0.47207547742E-01  0.77019318554E-01  0.51100000000E-03 0. -1.
         11    1    4    4    0    0 -0.42218582171E-01 -0.90423419217E-02 -0.29578553649E-01  0.52338557345E-01  0.51100000000E-03 0.  1.
</event>
<event>
 8    1  0.1128641E+005  0.1043930E+01  0.7957747E-01            NaN
         13   -1    0    0    0    0  0.00000000000E+00  0.00000000000E+00  0.74505805969E-08  0.10566000000E+00  0.10566000000E+00 0.  1.
     999900   -1    0    0    0    0 -0.00000000000E+00 -0.00000000000E+00 -0.74505805969E-08  0.93827000000E+00  0.93827000000E+00 0. -1.
     999902    2    1    2    0    0  0.18761492867E-01  0.15299853991E-01 -0.89218303321E-03  0.10197044941E+01  0.10194166862E+01 0.  0.
     999903    2    3    3    0    0 -0.39910952031E-02 -0.11215940125E+00 -0.59741429927E-01  0.12828608734E+00  0.17106186751E-01 0.  0.
         14    1    1    2    0    0 -0.18761492867E-01 -0.15299853991E-01  0.89218303321E-03  0.24225505925E-01  0.00000000000E+00 0. -1.
     999901    1    3    3    0    0  0.22752588070E-01  0.12745925524E+00  0.58849246894E-01  0.89141840674E+00  0.88000000000E+00 0. -1.
        -11    1    4    4    0    0  0.11771419676E-02 -0.42407915543E-01 -0.31557147239E-01  0.52876569733E-01  0.51100000000E-03 0. -1.
         11    1    4    4    0    0 -0.51682371708E-02 -0.69751485706E-01 -0.28184282688E-01  0.75409517604E-01  0.51100000000E-03 0.  1.
</event>
<event>
 8    1  0.1128641E+005  0.1043930E+01  0.7957747E-01            NaN
         13   -1    0    0    0    0  0.00000000000E+00  0.00000000000E+00  0.74505805969E-08  0.10566000000E+00  0.10566000000E+00 0. -1.
     999900   -1    0    0    0    0 -0.00000000000E+00 -0.00000000000E+00 -0.74505805969E-08  0.93827000000E+00  0.93827000000E+00 0. -1.
     999902    2    1    2    0    0  0.12145679543E-01  0.97562189515E-02 -0.17461466366E-01  0.10205290567E+01  0.10202607272E+01 0.  0.
     999903    2    3    3    0    0 -0.10295584621E-01 -0.44450017953E-01 -0.12268464481E+00  0.13232083576E+00  0.19377263613E-01 0.  0.
         14    1    1    2    0    0 -0.12145679543E-01 -0.97562189515E-02  0.17461466366E-01  0.23400943303E-01  0.00000000000E+00 0. -1.
     999901    1    3    3    0    0  0.22441264165E-01  0.54206236905E-01  0.10522317845E+00  0.88820822094E+00  0.88000000000E+00 0.  1.
        -11    1    4    4    0    0 -0.15109024273E-01 -0.22642032856E-01 -0.66268853222E-01  0.71643326938E-01  0.51100000000E-03 0. -1.
         11    1    4    4    0    0  0.48134396519E-02 -0.21807985097E-01 -0.56415791589E-01  0.60677508823E-01  0.51100000000E-03 0.  1.
</event>
<event>
 8    1  0.1128641E+005  0.1043930E+01  0.7957747E-01            NaN
         13   -1    0    0    0    0  0.00000000000E+00  0.00000000000E+00  0.74505805969E-08  0.10566000000E+00  0.10566000000E+00 0. -1.
     999900   -1    0    0    0    0 -0.00000000000E+00 -0.00000000000E+00 -0.74505805969E-08  0.93827000000E+00  0.93827000000E+00 0.  1.
     999902    2    1    2    0    0 -0.11180980616E-01  0.83381144103E-02  0.19617164017E-01  0.10198598607E+01  0.10195757765E+01 0.  0.
     999903    2    3    3    0    0 -0.65110689928E-01  0.76860002210E-01 -0.79736862411E-01  0.12998633871E+00  0.19789369425E-01 0.  0.
         14    1    1    2    0    0  0.11180980616E-01 -0.83381144103E-02 -0.19617164017E-01  0.24070139250E-01  0.00000000000E+00 0.  1.
     999901    1    3    3    0    0  0.53929709312E-01 -0.68521887800E-01  0.99354026428E-01  0.88987352204E+00  0.88000000000E+00 0. -1.
        -11    1    4    4    0    0 -0.12243384111E-01  0.20708911966E-01 -0.10174565005E-01  0.26125512117E-01  0.51100000000E-03 0. -1.
         11    1    4    4    0    0 -0.52867305817E-01  0.56151090245E-01 -0.69562297406E-01  0.10386082660E+00  0.51100000000E-03 0.  1.
</event>
<event>
 8    1  0.1128641E+005  0.1043930E+01  0.7957747E-01            NaN
         13   -1    0    0    0    0  0.00000000000E+00  0.00000000000E+00  0.74505805969E-08  0.10566000000E+00  0.10566000000E+00 0.  1.
     999900   -1    0    0    0    0 -0.00000000000E+00 -0.00000000000E+00 -0.74505805969E-08  0.93827000000E+00  0.93827000000E+00 0. -1.
     999902    2    1    2    0    0  0.21910835810E-01 -0.18104748022E-02  0.10066718868E-01  0.10197494009E+01  0.10194626718E+01 0.  0.
     999903    2    3    3    0    0  0.30179616092E-01  0.96163390308E-01  0.81539844018E-01  0.13139380846E+00  0.21386441404E-01 0.  0.
         14    1    1    2    0    0 -0.21910835810E-01  0.18104748022E-02 -0.10066718868E-01  0.24180599118E-01  0.00000000000E+00 0.  1.
     999901    1    3    3    0    0 -0.82687802812E-02 -0.97973865110E-01 -0.71473125150E-01  0.88835559242E+00  0.88000000000E+00 0. -1.
        -11    1    4    4    0    0  0.67832050637E-03  0.12076339737E-01  0.26836878531E-02  0.12400056518E-01  0.51100000000E-03 0.  1.
         11    1    4    4    0    0  0.29501295585E-01  0.84087050570E-01  0.78856156165E-01  0.11899375194E+00  0.51100000000E-03 0. -1.
</event>
<event>
 8    1  0.1128641E+005  0.1043930E+01  0.7957747E-01            NaN
         13   -1    0    0    0    0  0.00000000000E+00  0.00000000000E+00  0.74505805969E-08  0.10566000000E+00  0.10566000000E+00 0.  1.
     999900   -1    0    0    0    0 -0.00000000000E+00 -0.00000000000E+00 -0.74505805969E-08  0.93827000000E+00  0.93827000000E+00 0. -1.
     999902    2    1    2    0    0  0.14629365540E-01  0.58743746725E-03  0.17687825583E-01  0.10209686718E+01  0.10207104419E+01 0.  0.
     999903    2    3    3    0    0  0.88111764378E-01  0.60560990221E-01 -0.73264681050E-01  0.13121092475E+00  0.20427352409E-01 0.  0.
         14    1    1    2    0    0 -0.14629365540E-01 -0.58743746725E-03 -0.17687825583E-01  0.22961328201E-01  0.00000000000E+00 0. -1.
     999901    1    3    3    0    0 -0.73482398838E-01 -0.59973552753E-01  0.90952506633E-01  0.88975774705E+00  0.88000000000E+00 0.  1.
        -11    1    4    4    0    0  0.57537146671E-01  0.35643940424E-01 -0.34764095413E-01  0.76090848247E-01  0.51100000000E-03 0. -1.
         11    1    4    4    0    0  0.30574617707E-01  0.24917049796E-01 -0.38500585637E-01  0.55120076505E-01  0.51100000000E-03 0.  1.
</event>
<event>
 8    1  0.1128641E+005  0.1043930E+01  0.7957747E-01            NaN
         13   -1    0    0    0    0  0.00000000000E+00  0.00000000000E+00  0.74505805969E-08  0.10566000000E+00  0.10566000000E+00 0. -1.
     999900   -1    0    0    0    0 -0.00000000000E+00 -0.00000000000E+00 -0.74505805969E-08  0.93827000000E+00  0.93827000000E+00 0.  1.
     999902    2    1    2    0    0  0.20615686123E-01  0.12548830753E-01 -0.23092976333E-02  0.10196851547E+01  0.10193968816E+01 0.  0.
     999903    2    3    3    0    0  0.97280051424E-01  0.44866806118E-01 -0.75511381053E-01  0.13273508765E+00  0.20980851482E-01 0.  0.
         14    1    1    2    0    0 -0.20615686123E-01 -0.12548830753E-01  0.23092976333E-02  0.24244845290E-01  0.00000000000E+00 0. -1.
     999901    1    3    3    0    0 -0.76664365301E-01 -0.32317975365E-01  0.73202083420E-01  0.88695006706E+00  0.88000000000E+00 0. -1.
        -11    1    4    4    0    0  0.38939269793E-01  0.27294913682E-01 -0.25839488776E-01  0.54122262944E-01  0.51100000000E-03 0. -1.
         11    1    4    4    0    0  0.58340781631E-01  0.17571892435E-01 -0.49671892277E-01  0.78612824707E-01  0.51100000000E-03 0.  1.
</event>
<event>
 8    1  0.1128641E+005  0.1043930E+01  0.7957747E-01            NaN
         13   -1    0    0    0    0  0.00000000000E+00  0.00000000000E+00  0.74505805969E-08  0.10566000000E+00  0.10566000000E+00 0. -1.
     999900   -1    0    0    0    0 -0.00000000000E+00 -0.00000000000E+00 -0.74505805969E-08  0.93827000000E+00  0.93827000000E+00 0. -1.
     999902    2    1    2    0    0  0.14474364398E-01 -0.17026698614E-01 -0.67635373388E-02  0.10205813142E+01  0.10203141956E+01 0.  0.
     999903    2    3    3    0    0  0.12711779221E+00  0.22774386217E-01  0.19201263682E-01  0.13212938019E+00  0.20294797843E-01 0.  0.
         14    1    1    2    0    0 -0.14474364398E-01  0.17026698614E-01  0.67635373388E-02  0.23348685782E-01  0.00000000000E+00 0. -1.
     999901    1    3    3    0    0 -0.11264342781E+00 -0.39801084831E-01 -0.25964801021E-01  0.88845193403E+00  0.88000000000E+00 0. -1.
        -11    1    4    4    0    0  0.10629209955E+00  0.18819343478E-01  0.82421345788E-02  0.10826066700E+00  0.51100000000E-03 0. -1.
         11    1    4    4    0    0  0.20825692654E-01  0.39550427386E-02  0.10959129103E-01  0.23868713189E-01  0.51100000000E-03 0.  1.
</event>
<event>
 8    1  0.1128641E+005  0.1043930E+01  0.7957747E-01            NaN
         13   -1    0    0    0    0  0.00000000000E+00  0.00000000000E+00  0.74505805969E-08  0.10566000000E+00  0.10566000000E+00 0.  1.
     999900   -1    0    0    0    0 -0.00000000000E+00 -0.00000000000E+00 -0.74505805969E-08  0.93827000000E+00  0.93827000000E+00 0. -1.
     999902    2    1    2    0    0 -0.20070217211E-02 -0.82087676544E-02 -0.18187296016E-01  0.10238753312E+01  0.10236789068E+01 0.  0.
     999903    2    3    3    0    0  0.87978910333E-01 -0.97833469319E-01 -0.22309609770E-01  0.13474820389E+00  0.18646269929E-01 0.  0.
         14    1    1    2    0    0  0.20070217211E-02  0.82087676544E-02  0.18187296016E-01  0.20054668757E-01  0.00000000000E+00 0.  1.
     999901    1    3    3    0    0 -0.89985932054E-01  0.89624701665E-01  0.41223137547E-02  0.88912712735E+00  0.88000000000E+00 0. -1.
        -11    1    4    4    0    0  0.48665730592E-01 -0.67060669717E-01 -0.16464505256E-01  0.84479747936E-01  0.51100000000E-03 0. -1.
         11    1    4    4    0    0  0.39313179741E-01 -0.30772799602E-01 -0.58451045147E-02  0.50268455959E-01  0.51100000000E-03 0.  1.
</event>
<event>
 8    1  0.1128641E+005  0.1043930E+01  0.7957747E-01            NaN
         13   -1    0    0    0    0  0.00000000000E+00  0.00000000000E+00  0.74505805969E-08  0.10566000000E+00  0.10566000000E+00 0. -1.
     999900   -1    0    0    0    0 -0.00000000000E+00 -0.00000000000E+00 -0.74505805969E-08  0.93827000000E+00  0.93827000000E+00 0.  1.
     999902    2    1    2    0    0 -0.11540072998E-01  0.18492946768E-01  0.94021874243E-02  0.10201905077E+01  0.10199142653E+01 0.  0.
     999903    2    3    3    0    0  0.98732299892E-05 -0.12418686410E+00  0.25977734870E-01  0.12846987969E+00  0.20181426270E-01 0.  0.
         14    1    1    2    0    0  0.11540072998E-01 -0.18492946768E-01 -0.94021874243E-02  0.23739492272E-01  0.00000000000E+00 0.  1.
     999901    1    3    3    0    0 -0.11549946228E-01  0.14267981087E+00 -0.16575547446E-01  0.89172062803E+00  0.88000000000E+00 0. -1.
        -11    1    4    4    0    0 -0.72023198878E-02 -0.98195577085E-01  0.16256712950E-01  0.99793720282E-01  0.51100000000E-03 0.  1.
         11    1    4    4    0    0  0.72121931178E-02 -0.25991287019E-01  0.97210219199E-02  0.28676159412E-01  0.51100000000E-03 0. -1.
</event>
<event>
 8    1  0.1128641E+005  0.1043930E+01  0.7957747E-01            NaN
         13   -1    0    0    0    0  0.00000000000E+00  0.00000000000E+00  0.74505805969E-08  0.10566000000E+00  0.10566000000E+00 0.  1.
     999900   -1    0    0    0    0 -0.00000000000E+00 -0.00000000000E+00 -0.74505805969E-08  0.93827000000E+00  0.93827000000E+00 0.  1.
     999902    2    1    2    0    0  0.15920339017E-01  0.50595352159E-02 -0.17013443305E-01  0.10200864821E+01  0.10198077847E+01 0.  0.
     999903    2    3    3    0    0 -0.10455141572E-01  0.41429715269E-01  0.11936697152E+00  0.12844862206E+00  0.20611727874E-01 0.  0.
         14    1    1    2    0    0 -0.15920339017E-01 -0.50595352159E-02  0.17013443305E-01  0.23843517864E-01  0.00000000000E+00 0.  1.
     999901    1    3    3    0    0  0.26375480589E-01 -0.36370180053E-01 -0.13638041483E+00  0.89163786008E+00  0.88000000000E+00 0.  1.
        -11    1    4    4    0    0 -0.16116324035E-01  0.24823275396E-01  0.67922458536E-01  0.74092188498E-01  0.51100000000E-03 0. -1.
         11    1    4    4    0    0  0.56611824633E-02  0.16606439873E-01  0.51444512987E-01  0.54356433562E-01  0.51100000000E-03 0.  1.
</event>
<event>
 8    1  0.1128641E+005  0.1043930E+01  0.7957747E-01            NaN
         13   -1    0    0    0    0  0.00000000000E+00  0.00000000000E+00  0.74505805969E-08  0.10566000000E+00  0.10566000000E+00 0.  1.
     999900   -1    0    0    0    0 -0.00000000000E+00 -0.00000000000E+00 -0.74505805969E-08  0.93827000000E+00  0.93827000000E+00 0. -1.
     999902    2    1    2    0    0  0.39572558672E-03  0.21191666341E-01 -0.11689523635E-01  0.10197248707E+01  0.10194375526E+01 0.  0.
     999903    2    3    3    0    0 -0.28138033778E-01 -0.30592316582E-01 -0.12239364199E+00  0.13082039996E+00  0.20152783101E-01 0.  0.
         14    1    1    2    0    0 -0.39572558672E-03 -0.21191666341E-01  0.11689523635E-01  0.24205129288E-01  0.00000000000E+00 0.  1.
     999901    1    3    3    0    0  0.28533759365E-01  0.51783982923E-01  0.11070411835E+00  0.88890447076E+00  0.88000000000E+00 0.  1.
        -11    1    4    4    0    0 -0.17161397886E-01 -0.70979549327E-02 -0.69045244579E-01  0.71501059164E-01  0.51100000000E-03 0.  1.
         11    1    4    4    0    0 -0.10976635892E-01 -0.23494361650E-01 -0.53348397409E-01  0.59319340791E-01  0.51100000000E-03 0. -1.
</event>
<event>
 8    1  0.1128641E+005  0.1043930E+01  0.7957747E-01            NaN
         13   -1    0    0    0    0  0.00000000000E+00  0.00000000000E+00  0.74505805969E-08  0.10566000000E+00  0.10566000000E+00 0. -1.
     999900   -1    0    0    0    0 -0.00000000000E+00 -0.00000000000E+00 -0.74505805969E-08  0.93827000000E+00  0.93827000000E+00 0.  1.
     999902    2    1    2    0    0  0.15653037324E-01  0.13035308798E-01 -0.49653616635E-02  0.10229635585E+01  0.10227486741E+01 0.  0.
     999903    2    3    3    0    0  0.12961989173E+00  0.31289085200E-02 -0.32494111610E-01  0.13513226104E+00  0.19843242765E-01 0.  0.
         14    1    1    2    0    0 -0.15653037324E-01 -0.13035308798E-01  0.49653616635E-02  0.20966441505E-01  0.00000000000E+00 0.  1.
     999901    1    3    3    0    0 -0.11396685441E+00  0.99064002781E-02  0.27528749946E-01  0.88783129746E+00  0.88000000000E+00 0.  1.
        -11    1    4    4    0    0  0.59479510922E-01 -0.62671224579E-02 -0.21261658063E-01  0.63477620214E-01  0.51100000000E-03 0.  1.
         11    1    4    4    0    0  0.70140380808E-01  0.93960309779E-02 -0.11232453547E-01  0.71654640825E-01  0.51100000000E-03 0. -1.
</event>
<event>
 7    1  0.1128641E+005  0.1043930E+01  0.7957747E-01            NaN
         13   -1    0    0    0    0  0.00000000000E+00  0.00000000000E+00  0.74505805969E-08  0.10566000000E+00  0.10566000000E+00 0. -1.
     999900   -1    0    0    0    0 -0.00000000000E+00 -0.00000000000E+00 -0.74505805969E-08  0.93827000000E+00  0.93827000000E+00 0. -1.
     999903    2    1    2    0    0  0.24034939000E-01 -0.25574816265E-01 -0.65483009061E-01  0.76785877255E-01  0.19398374944E-01 0.  0.
         14    1    1    2    0    0 -0.56081820008E-01 -0.27545600780E-02 -0.54166610007E-01  0.78017817044E-01  0.00000000000E+00 0.  1.
     999901    1    1    2    0    0  0.32046881008E-01  0.28329376343E-01  0.11964961907E+00  0.88912630570E+00  0.88000000000E+00 0.  1.
        -11    1    3    3    0    0  0.25602201323E-01 -0.17464109877E-01 -0.57305098703E-01  0.65150620141E-01  0.51100000000E-03 0.  1.
         11    1    3    3    0    0 -0.15672623229E-02 -0.81107063878E-02 -0.81779103584E-02  0.11635257115E-01  0.51100000000E-03 0. -1.
</event>
<event>
 8    1  0.1128641E+005  0.1043930E+01  0.7957747E-01            NaN
         13   -1    0    0    0    0  0.00000000000E+00  0.00000000000E+00  0.74505805969E-08  0.10566000000E+00  0.10566000000E+00 0.  1.
     999900   -1    0    0    0    0 -0.00000000000E+00 -0.00000000000E+00 -0.74505805969E-08  0.93827000000E+00  0.93827000000E+00 0. -1.
     999902    2    1    2    0    0  0.21847865892E-02 -0.45874603316E-02  0.22867685695E-01  0.10205046049E+01  0.10202357078E+01 0.  0.
     999903    2    3    3    0    0  0.34739047911E-01 -0.12105986658E+00 -0.28738298860E-01  0.13073565797E+00  0.20090537483E-01 0.  0.
         14    1    1    2    0    0 -0.21847865892E-02  0.45874603316E-02 -0.22867685695E-01  0.23425395061E-01  0.00000000000E+00 0. -1.
     999901    1    3    3    0    0 -0.32554261322E-01  0.11647240625E+00  0.51605984555E-01  0.88976894697E+00  0.88000000000E+00 0.  1.
        -11    1    4    4    0    0  0.12127274671E-01 -0.54119642125E-01 -0.22320310125E-01  0.59786819783E-01  0.51100000000E-03 0. -1.
         11    1    4    4    0    0  0.22611773240E-01 -0.66940224459E-01 -0.64179887349E-02  0.70948838187E-01  0.51100000000E-03 0.  1.
</event>
<event>
 8    1  0.1128641E+005  0.1043930E+01  0.7957747E-01            NaN
         13   -1    0    0    0    0  0.00000000000E+00  0.00000000000E+00  0.74505805969E-08  0.10566000000E+00  0.10566000000E+00 0.  1.
     999900   -1    0    0    0    0 -0.00000000000E+00 -0.00000000000E+00 -0.74505805969E-08  0.93827000000E+00  0.93827000000E+00 0. -1.
     999902    2    1    2    0    0  0.36739226356E-02  0.17343738193E-01  0.38716564856E-02  0.10257835765E+01  0.10256230561E+01 0.  0.
     999903    2    3    3    0    0 -0.25710460474E-01 -0.11110269875E+00 -0.65637909047E-01  0.13326270344E+00  0.21113398031E-01 0.  0.
         14    1    1    2    0    0 -0.36739226356E-02 -0.17343738193E-01 -0.38716564856E-02  0.18146423504E-01  0.00000000000E+00 0.  1.
     999901    1    3    3    0    0  0.29384383110E-01  0.12844643695E+00  0.69509565533E-01  0.89252087305E+00  0.88000000000E+00 0.  1.
        -11    1    4    4    0    0 -0.13589889649E-01 -0.29982489208E-01 -0.27083101862E-01  0.42630860738E-01  0.51100000000E-03 0.  1.
         11    1    4    4    0    0 -0.12120570825E-01 -0.81120209547E-01 -0.38554807186E-01  0.90631842705E-01  0.51100000000E-03 0. -1.
</event>
<event>
 8    1  0.1128641E+005  0.1043930E+01  0.7957747E-01            NaN
         13   -1    0    0    0    0  0.00000000000E+00  0.00000000000E+00  0.74505805969E-08  0.10566000000E+00  0.10566000000E+00 0. -1.
     999900   -1    0    0    0    0 -0.00000000000E+00 -0.00000000000E+00 -0.74505805969E-08  0.93827000000E+00  0.93827000000E+00 0.  1.
     999902    2    1    2    0    0  0.19442229187E-01 -0.15145478287E-01  0.19071450192E-02  0.10192111208E+01  0.10189113238E+01 0.  0.
     999903    2    3    3    0    0  0.68239097718E-01  0.32809247777E-01  0.10458680522E+00  0.13060327546E+00  0.19641653135E-01 0.  0.
         14    1    1    2    0    0 -0.19442229187E-01  0.15145478287E-01 -0.19071450192E-02  0.24718879230E-01  0.00000000000E+00 0.  1.
     999901    1    3    3    0    0 -0.48796868531E-01 -0.47954726064E-01 -0.10267966020E+00  0.88860784531E+00  0.88000000000E+00 0.  1.
        -11    1    4    4    0    0  0.52932641683E-01  0.23862845790E-01  0.64605919977E-01  0.86864756846E-01  0.51100000000E-03 0.  1.
         11    1    4    4    0    0  0.15306456034E-01  0.89464019870E-02  0.39980885240E-01  0.43738518612E-01  0.51100000000E-03 0. -1.
</event>
<event>
 8    1  0.1128641E+005  0.1043930E+01  0.7957747E-01            NaN
         13   -1    0    0    0    0  0.00000000000E+00  0.00000000000E+00  0.74505805969E-08  0.10566000000E+00  0.10566000000E+00 0. -1.
     999900   -1    0    0    0    0 -0.00000000000E+00 -0.00000000000E+00 -0.74505805969E-08  0.93827000000E+00  0.93827000000E+00 0. -1.
     999902    2    1    2    0    0  0.17689991611E-02 -0.75615486133E-02 -0.22513103882E-01  0.10201151680E+01  0.10198371487E+01 0.  0.
     999903    2    3    3    0    0 -0.12190456372E+00  0.18404586068E-01  0.33952105668E-01  0.12929660614E+00  0.19115842574E-01 0.  0.
         14    1    1    2    0    0 -0.17689991611E-02  0.75615486133E-02  0.22513103882E-01  0.23814831972E-01  0.00000000000E+00 0. -1.
     999901    1    3    3    0    0  0.12367356288E+00 -0.25966134682E-01 -0.56465209550E-01  0.89081856188E+00  0.88000000000E+00 0.  1.
        -11    1    4    4    0    0 -0.76171381437E-01  0.10063605751E-01  0.11577932659E-01  0.77702414096E-01  0.51100000000E-03 0.  1.
         11    1    4    4    0    0 -0.45733182282E-01  0.83409803177E-02  0.22374173008E-01  0.51594192048E-01  0.51100000000E-03 0. -1.
</event>
<event>
 8    1  0.1128641E+005  0.1043930E+01  0.7957747E-01            NaN
         13   -1    0    0    0    0  0.00000000000E+00  0.00000000000E+00  0.74505805969E-08  0.10566000000E+00  0.10566000000E+00 0. -1.
     999900   -1    0    0    0    0 -0.00000000000E+00 -0.00000000000E+00 -0.74505805969E-08  0.93827000000E+00  0.93827000000E+00 0. -1.
     999902    2    1    2    0    0 -0.80859340268E-02  0.17382560248E-01  0.10593491255E-01  0.10220266261E+01  0.10217918901E+01 0.  0.
     999903    2    3    3    0    0  0.41445015093E-02  0.63489563125E-01 -0.11382342751E+00  0.13199572277E+00  0.20469407892E-01 0.  0.
         14    1    1    2    0    0  0.80859340268E-02 -0.17382560248E-01 -0.10593491255E-01  0.21903373869E-01  0.00000000000E+00 0.  1.
     999901    1    3    3    0    0 -0.12230435536E-01 -0.46107002877E-01  0.12441691877E+00  0.89003090336E+00  0.88000000000E+00 0.  1.
        -11    1    4    4    0    0  0.50792027370E-02  0.33708375761E-02 -0.16485308930E-01  0.17583724803E-01  0.51100000000E-03 0. -1.
         11    1    4    4    0    0 -0.93470122776E-03  0.60118725549E-01 -0.97338118583E-01  0.11441199796E+00  0.51100000000E-03 0.  1.
</event>
<event>
 8    1  0.1128641E+005  0.1043930E+01  0.7957747E-01            NaN
         13   -1    0    0    0    0  0.00000000000E+00  0.00000000000E+00  0.74505805969E-08  0.10566000000E+00  0.10566000000E+00 0.  1.
     999900   -1    0    0    0    0 -0.00000000000E+00 -0.00000000000E+00 -0.74505805969E-08  0.93827000000E+00  0.93827000000E+00 0.  1.
     999902    2    1    2    0    0 -0.20538997461E-01 -0.29864083774E-02 -0.10412240667E-01  0.10207096682E+01  0.10204455120E+01 0.  0.
     999903    2    3    3    0    0 -0.52087903868E-02 -0.87515689049E-01 -0.97110495911E-01  0.13228589435E+00  0.19569928471E-01 0.  0.
         14    1    1    2    0    0  0.20538997461E-01  0.29864083773E-02  0.10412240667E-01  0.23220331768E-01  0.00000000000E+00 0.  1.
     999901    1    3    3    0    0 -0.15330207075E-01  0.84529280671E-01  0.86698255244E-01  0.88842377388E+00  0.88000000000E+00 0. -1.
        -11    1    4    4    0    0  0.18186600776E-02 -0.62443173209E-01 -0.57659635243E-01  0.85013834534E-01  0.51100000000E-03 0. -1.
         11    1    4    4    0    0 -0.70274504644E-02 -0.25072515840E-01 -0.39450860668E-01  0.47272059814E-01  0.51100000000E-03 0.  1.
</event>
<event>
 8    1  0.1128641E+005  0.1043930E+01  0.7957747E-01            NaN
         13   -1    0    0    0    0  0.00000000000E+00  0.00000000000E+00  0.74505805969E-08  0.10566000000E+00  0.10566000000E+00 0.  1.
     999900   -1    0    0    0    0 -0.00000000000E+00 -0.00000000000E+00 -0.74505805969E-08  0.93827000000E+00  0.93827000000E+00 0.  1.
     999902    2    1    2    0    0 -0.21988498491E-01  0.38570877633E-02  0.69219266037E-02  0.10205572753E+01  0.10202896000E+01 0.  0.
     999903    2    3    3    0    0  0.36587534702E-01 -0.11564313269E-01 -0.12143628494E+00  0.12918484935E+00  0.21669632333E-01 0.  0.
         14    1    1    2    0    0  0.21988498491E-01 -0.38570877633E-02 -0.69219266037E-02  0.23372724698E-01  0.00000000000E+00 0. -1.
     999901    1    3    3    0    0 -0.58576033193E-01  0.15421401032E-01  0.12835821154E+00  0.89137242595E+00  0.88000000000E+00 0. -1.
        -11    1    4    4    0    0  0.19821864667E-01 -0.73943243299E-02 -0.96825371422E-01  0.99111028767E-01  0.51100000000E-03 0.  1.
         11    1    4    4    0    0  0.16765670035E-01 -0.41699889390E-02 -0.24610913516E-01  0.30073820585E-01  0.51100000000E-03 0. -1.
</event>
<event>
 8    1  0.1128641E+005  0.1043930E+01  0.7957747E-01            NaN
         13   -1    0    0    0    0  0.00000000000E+00  0.00000000000E+00  0.74505805969E-08  0.10566000000E+00  0.10566000000E+00 0. -1.
     999900   -1    0    0    0    0 -0.00000000000E+00 -0.00000000000E+00 -0.74505805969E-08  0.93827000000E+00  0.93827000000E+00 0.  1.
     999902    2    1    2    0    0  0.18886079672E-01  0.14343339368E-01 -0.12793278434E-02  0.10201802196E+01  0.10199037349E+01 0.  0.
     999903    2    3    3    0    0 -0.12639214720E+00  0.49137359157E-02  0.48252913981E-02  0.12819818670E+00  0.20306943724E-01 0.  0.
         14    1    1    2    0    0 -0.18886079672E-01 -0.14343339368E-01  0.12793278434E-02  0.23749780406E-01  0.00000000000E+00 0. -1.
     999901    1    3    3    0    0  0.14527822687E+00  0.94296034519E-02 -0.61046192414E-02  0.89198203289E+00  0.88000000000E+00 0. -1.
        -11    1    4    4    0    0 -0.29764035181E-01 -0.73185303104E-02  0.27129080459E-02  0.30774659498E-01  0.51100000000E-03 0. -1.
         11    1    4    4    0    0 -0.96628112016E-01  0.12232266226E-01  0.21123833522E-02  0.97423527206E-01  0.51100000000E-03 0.  1.
</event>
<event>
 8    1  0.1128641E+005  0.1043930E+01  0.7957747E-01            NaN
         13   -1    0    0    0    0  0.00000000000E+00  0.00000000000E+00  0.74505805969E-08  0.10566000000E+00  0.10566000000E+00 0.  1.
     999900   -1    0    0    0    0 -0.00000000000E+00 -0.00000000000E+00 -0.74505805969E-08  0.93827000000E+00  0.93827000000E+00 0. -1.
     999902    2    1    2    0    0 -0.98577594513E-02  0.45034355350E-02  0.20080236058E-01  0.10211117566E+01  0.10208567711E+01 0.  0.
     999903    2    3    3    0    0  0.63261935793E-01  0.10801957710E+00 -0.32828242134E-01  0.13045953013E+00  0.16483141763E-01 0.  0.
         14    1    1    2    0    0  0.98577594513E-02 -0.45034355350E-02 -0.20080236058E-01  0.22818243428E-01  0.00000000000E+00 0. -1.
     999901    1    3    3    0    0 -0.73119695245E-01 -0.10351614157E+00  0.52908478191E-01  0.89065222644E+00  0.88000000000E+00 0.  1.
        -11    1    4    4    0    0  0.32220367776E-01  0.44670384841E-01 -0.79360938124E-02  0.55649241572E-01  0.51100000000E-03 0.  1.
         11    1    4    4    0    0  0.31041568017E-01  0.63349192263E-01 -0.24892148321E-01  0.74810288560E-01  0.51100000000E-03 0. -1.
</event>
<event>
 8    1  0.1128641E+005  0.1043930E+01  0.7957747E-01            NaN
         13   -1    0    0    0    0  0.00000000000E+00  0.00000000000E+00  0.74505805969E-08  0.10566000000E+00  0.10566000000E+00 0.  1.
     999900   -1    0    0    0    0 -0.00000000000E+00 -0.00000000000E+00 -0.74505805969E-08  0.93827000000E+00  0.93827000000E+00 0.  1.
     999902    2    1    2    0    0  0.20665339207E-01  0.74725131031E-02 -0.68759530143E-02  0.10209045049E+01  0.10206448132E+01 0.  0.
     999903    2    3    3    0    0  0.21289039112E-01 -0.12064362407E+00 -0.41627179770E-01  0.13094844900E+00  0.20163506227E-01 0.  0.
         14    1    1    2    0    0 -0.20665339207E-01 -0.74725131031E-02  0.68759530143E-02  0.23025495140E-01  0.00000000000E+00 0.  1.
     999901    1    3    3    0    0 -0.62369990524E-03  0.12811613718E+00  0.34751226755E-01  0.88995605586E+00  0.88000000000E+00 0. -1.
        -11    1    4    4    0    0 -0.30231161670E-02 -0.30671897907E-01 -0.12968040011E-01  0.33441527108E-01  0.51100000000E-03 0.  1.
         11    1    4    4    0    0  0.24312155279E-01 -0.89971726165E-01 -0.28659139759E-01  0.97506921889E-01  0.51100000000E-03 0. -1.
</event>
<event>
 8    1  0.1128641E+005  0.1043930E+01  0.7957747E-01            NaN
         13   -1    0    0    0    0  0.00000000000E+00  0.00000000000E+00  0.74505805969E-08  0.10566000000E+00  0.10566000000E+00 0. -1.
     999900   -1    0    0    0    0 -0.00000000000E+00 -0.00000000000E+00 -0.74505805969E-08  0.93827000000E+00  0.93827000000E+00 0. -1.
     999902    2    1    2    0    0 -0.17880497349E-01  0.14792553867E-01  0.46892194668E-02  0.10202546834E+01  0.10199799500E+01 0.  0.
     999903    2    3    3    0    0 -0.10731728507E-01  0.13026273133E+00 -0.63768947860E-02  0.13261346894E+00  0.21496934347E-01 0.  0.
         14    1    1    2    0    0  0.17880497349E-01 -0.14792553867E-01 -0.46892194668E-02  0.23675316567E-01  0.00000000000E+00 0.  1.
     999901    1    3    3    0    0 -0.71487688416E-02 -0.11547017747E+00  0.11066114253E-01  0.88764121449E+00  0.88000000000E+00 0. -1.
        -11    1    4    4    0    0 -0.14475851537E-01  0.63319734442E-01  0.23529786405E-02  0.64997974407E-01  0.51100000000E-03 0. -1.
         11    1    4    4    0    0  0.37441230301E-02  0.66942996892E-01 -0.87298734265E-02  0.67615494534E-01  0.51100000000E-03 0.  1.
</event>
<event>
 8    1  0.1128641E+005  0.1043930E+01  0.7957747E-01            NaN
         13   -1    0    0    0    0  0.00000000000E+00  0.00000000000E+00  0.74505805969E-08  0.10566000000E+00  0.10566000000E+00 0. -1.
     999900   -1    0    0    0    0 -0.00000000000E+00 -0.00000000000E+00 -0.74505805969E-08  0.93827000000E+00  0.93827000000E+00 0. -1.
     999902    2    1    2    0    0 -0.11569822875E-01  0.13079152592E-01  0.15771358412E-01  0.10204000025E+01  0.10201286705E+01 0.  0.
     999903    2    3    3    0    0 -0.10527169676E+00  0.30206941261E-02  0.78801130155E-01  0.13312667043E+00  0.20538683901E-01 0.  0.
         14    1    1    2    0    0  0.11569822875E-01 -0.13079152592E-01 -0.15771358412E-01  0.23529997451E-01  0.00000000000E+00 0.  1.
     999901    1    3    3    0    0  0.93701873881E-01  0.10058458465E-01 -0.63029771743E-01  0.88727333211E+00  0.88000000000E+00 0. -1.
        -11    1    4    4    0    0 -0.14490884527E-01  0.72486394482E-02  0.15006995730E-01  0.22090711850E-01  0.51100000000E-03 0. -1.
         11    1    4    4    0    0 -0.90780812230E-01 -0.42279453221E-02  0.63794134425E-01  0.11103595858E+00  0.51100000000E-03 0.  1.
</event>
<event>
 8    1  0.1331462E+005  0.1043930E+01  0.7957747E-01            NaN
         13   -1    0    0    0    0  0.00000000000E+00  0.00000000000E+00  0.74505805969E-08  0.10566000000E+00  0.10566000000E+00 0. -1.
     999900   -1    0    0    0    0 -0.00000000000E+00 -0.00000000000E+00 -0.74505805969E-08  0.93827000000E+00  0.93827000000E+00 0.  1.
     999902    2    1    2    0    0  0.55941639970E-02 -0.13093549657E-03  0.23093879069E-01  0.10201678649E+01  0.10198910890E+01 0.  0.
     999903    2    3    3    0    0 -0.12409120286E+00  0.13004415309E-02 -0.29680056461E-01  0.12909804074E+00  0.19623470530E-01 0.  0.
         14    1    1    2    0    0 -0.55941639970E-02  0.13093549657E-03 -0.23093879069E-01  0.23762135119E-01  0.00000000000E+00 0.  1.
     999901    1    3    3    0    0  0.12968536686E+00 -0.14313770274E-02  0.52773935530E-01  0.89106982414E+00  0.88000000000E+00 0. -1.
        -11    1    4    4    0    0 -0.92819596980E-01  0.85745053508E-03 -0.13248007951E-01  0.93765578122E-01  0.51100000000E-03 0.  1.
         11    1    4    4    0    0 -0.31271605885E-01  0.44299099578E-03 -0.16432048510E-01  0.35332462621E-01  0.51100000000E-03 0. -1.
</event>
<event>
 8    1  0.1128641E+005  0.1043930E+01  0.7957747E-01            NaN
         13   -1    0    0    0    0  0.00000000000E+00  0.00000000000E+00  0.74505805969E-08  0.10566000000E+00  0.10566000000E+00 0. -1.
     999900   -1    0    0    0    0 -0.00000000000E+00 -0.00000000000E+00 -0.74505805969E-08  0.93827000000E+00  0.93827000000E+00 0. -1.
     999902    2    1    2    0    0  0.19042087902E-02 -0.21072054999E-01 -0.15063440608E-01  0.10179576155E+01  0.10176262291E+01 0.  0.
     999903    2    3    3    0    0  0.80273722903E-01  0.94787286799E-01  0.12609814243E-01  0.12648076396E+00  0.20245392284E-01 0.  0.
         14    1    1    2    0    0 -0.19042087902E-02  0.21072054999E-01  0.15063440608E-01  0.25972384487E-01  0.00000000000E+00 0.  1.
     999901    1    3    3    0    0 -0.78369514113E-01 -0.11585934180E+00 -0.27673254851E-01  0.89147685155E+00  0.88000000000E+00 0.  1.
        -11    1    4    4    0    0  0.23722772432E-01  0.36905716367E-01  0.12262559069E-01  0.45556923824E-01  0.51100000000E-03 0.  1.
         11    1    4    4    0    0  0.56550950471E-01  0.57881570432E-01  0.34725517438E-03  0.80923840134E-01  0.51100000000E-03 0. -1.
</event>
<event>
 8    1  0.1128641E+005  0.1043930E+01  0.7957747E-01            NaN
         13   -1    0    0    0    0  0.00000000000E+00  0.00000000000E+00  0.74505805969E-08  0.10566000000E+00  0.10566000000E+00 0.  1.
     999900   -1    0    0    0    0 -0.00000000000E+00 -0.00000000000E+00 -0.74505805969E-08  0.93827000000E+00  0.93827000000E+00 0. -1.
     999902    2    1    2    0    0  0.16471466641E-01 -0.15238812690E-01  0.84259801189E-02  0.10199606912E+01  0.10196790101E+01 0.  0.
     999903    2    3    3    0    0  0.70768190650E-01 -0.71547365766E-01 -0.82489001255E-01  0.13182538546E+00  0.21126631706E-01 0.  0.
         14    1    1    2    0    0 -0.16471466641E-01  0.15238812690E-01 -0.84259801189E-02  0.23969308844E-01  0.00000000000E+00 0. -1.
     999901    1    3    3    0    0 -0.54296724009E-01  0.56308553077E-01  0.90914981374E-01  0.88813530570E+00  0.88000000000E+00 0.  1.
        -11    1    4    4    0    0  0.22967325885E-01 -0.15205530241E-01 -0.13269527069E-01  0.30578549310E-01  0.51100000000E-03 0. -1.
         11    1    4    4    0    0  0.47800864765E-01 -0.56341835526E-01 -0.69219474185E-01  0.10124683615E+00  0.51100000000E-03 0.  1.
</event>
<event>
 8    1  0.1128641E+005  0.1043930E+01  0.7957747E-01            NaN
         13   -1    0    0    0    0  0.00000000000E+00  0.00000000000E+00  0.74505805969E-08  0.10566000000E+00  0.10566000000E+00 0. -1.
     999900   -1    0    0    0    0 -0.00000000000E+00 -0.00000000000E+00 -0.74505805969E-08  0.93827000000E+00  0.93827000000E+00 0. -1.
     999902    2    1    2    0    0  0.41684806606E-03  0.17252055153E-02  0.23414459336E-01  0.10204483688E+01  0.10201781641E+01 0.  0.
     999903    2    3    3    0    0 -0.10029215893E+00 -0.65063928641E-01  0.50843250410E-01  0.13176651850E+00  0.22035138550E-01 0.  0.
         14    1    1    2    0    0 -0.41684806606E-03 -0.17252055153E-02 -0.23414459336E-01  0.23481631170E-01  0.00000000000E+00 0.  1.
     999901    1    3    3    0    0  0.10070900700E+00  0.66789134156E-01 -0.27428791074E-01  0.88868185033E+00  0.88000000000E+00 0. -1.
        -11    1    4    4    0    0 -0.33537458369E-01 -0.15734775282E-01  0.63508444330E-02  0.37589075714E-01  0.51100000000E-03 0.  1.
         11    1    4    4    0    0 -0.66754700564E-01 -0.49329153359E-01  0.44492405977E-01  0.94177442783E-01  0.51100000000E-03 0. -1.
</event>
<event>
 8    1  0.1128641E+005  0.1043930E+01  0.7957747E-01            NaN
         13   -1    0    0    0    0  0.00000000000E+00  0.00000000000E+00  0.74505805969E-08  0.10566000000E+00  0.10566000000E+00 0.  1.
     999900   -1    0    0    0    0 -0.00000000000E+00 -0.00000000000E+00 -0.74505805969E-08  0.93827000000E+00  0.93827000000E+00 0.  1.
     999902    2    1    2    0    0 -0.17295500731E-02  0.17843824099E-01  0.18941891594E-01  0.10178495733E+01  0.10175153881E+01 0.  0.
     999903    2    3    3    0    0  0.29354043375E-01 -0.97373517353E-01 -0.69159192328E-01  0.12543541686E+00  0.24653360314E-01 0.  0.
         14    1    1    2    0    0  0.17295500731E-02 -0.17843824099E-01 -0.18941891594E-01  0.26080426743E-01  0.00000000000E+00 0. -1.
     999901    1    3    3    0    0 -0.31083593448E-01  0.11521734145E+00  0.88101083922E-01  0.89241415640E+00  0.88000000000E+00 0. -1.
        -11    1    4    4    0    0  0.17121820597E-01 -0.36062179720E-01 -0.39765373980E-01  0.56348767826E-01  0.51100000000E-03 0. -1.
         11    1    4    4    0    0  0.12232222778E-01 -0.61311337633E-01 -0.29393818348E-01  0.69086649032E-01  0.51100000000E-03 0.  1.
</event>
<event>
 8    1  0.1128641E+005  0.1043930E+01  0.7957747E-01            NaN
         13   -1    0    0    0    0  0.00000000000E+00  0.00000000000E+00  0.74505805969E-08  0.10566000000E+00  0.10566000000E+00 0. -1.
     999900   -1    0    0    0    0 -0.00000000000E+00 -0.00000000000E+00 -0.74505805969E-08  0.93827000000E+00  0.93827000000E+00 0.  1.
     999902    2    1    2    0    0 -0.24276928136E-01 -0.68865300196E-02  0.60292566072E-03  0.10186880299E+01  0.10183752477E+01 0.  0.
     999903    2    3    3    0    0 -0.19250882582E-01 -0.79884471907E-01 -0.98829730622E-01  0.13007066917E+00  0.19973432117E-01 0.  0.
         14    1    1    2    0    0  0.24276928136E-01  0.68865300196E-02 -0.60292566072E-03  0.25241970105E-01  0.00000000000E+00 0.  1.
     999901    1    3    3    0    0 -0.50260455539E-02  0.72997941887E-01  0.99432656282E-01  0.88861736073E+00  0.88000000000E+00 0. -1.
        -11    1    4    4    0    0 -0.77085047380E-03 -0.13624932593E-01 -0.28969983025E-01  0.32027395087E-01  0.51100000000E-03 0.  1.
         11    1    4    4    0    0 -0.18480032108E-01 -0.66259539314E-01 -0.69859747597E-01  0.98043274079E-01  0.51100000000E-03 0. -1.
</event>
<event>
 8    1  0.1128641E+005  0.1043930E+01  0.7957747E-01            NaN
         13   -1    0    0    0    0  0.00000000000E+00  0.00000000000E+00  0.74505805969E-08  0.10566000000E+00  0.10566000000E+00 0.  1.
     999900   -1    0    0    0    0 -0.00000000000E+00 -0.00000000000E+00 -0.74505805969E-08  0.93827000000E+00  0.93827000000E+00 0. -1.
     999902    2    1    2    0    0 -0.18096814429E-01  0.11010116396E-01 -0.10823148024E-01  0.10201422324E+01  0.10198648520E+01 0.  0.
     999903    2    3    3    0    0 -0.73028313360E-01  0.10845508566E+00 -0.13389756474E-01  0.13305735532E+00  0.20720378130E-01 0.  0.
         14    1    1    2    0    0  0.18096814429E-01 -0.11010116396E-01  0.10823148024E-01  0.23787767628E-01  0.00000000000E+00 0.  1.
     999901    1    3    3    0    0  0.54931498930E-01 -0.97444969263E-01  0.25666084499E-02  0.88708487705E+00  0.88000000000E+00 0.  1.
        -11    1    4    4    0    0 -0.57450007307E-01  0.91922734675E-01 -0.17968644411E-01  0.10987914175E+00  0.51100000000E-03 0.  1.
         11    1    4    4    0    0 -0.15578306052E-01  0.16532350984E-01  0.45788879371E-02  0.23178213569E-01  0.51100000000E-03 0. -1.
</event>
<event>
 8    1  0.1128641E+005  0.1043930E+01  0.7957747E-01            NaN
         13   -1    0    0    0    0  0.00000000000E+00  0.00000000000E+00  0.74505805969E-08  0.10566000000E+00  0.10566000000E+00 0. -1.
     999900   -1    0    0    0    0 -0.00000000000E+00 -0.00000000000E+00 -0.74505805969E-08  0.93827000000E+00  0.93827000000E+00 0. -1.
     999902    2    1    2    0    0 -0.28915382523E-02  0.14098955774E-01  0.18616442113E-01  0.10203988831E+01  0.10201275249E+01 0.  0.
     999903    2    3    3    0    0 -0.91238692001E-01  0.91810857391E-01 -0.10747040304E-01  0.13208217528E+00  0.24009783384E-01 0.  0.
         14    1    1    2    0    0  0.28915382523E-02 -0.14098955774E-01 -0.18616442113E-01  0.23531116938E-01  0.00000000000E+00 0.  1.
     999901    1    3    3    0    0  0.88347153749E-01 -0.77711901616E-01  0.29363482417E-01  0.88831670778E+00  0.88000000000E+00 0.  1.
        -11    1    4    4    0    0 -0.55667849414E-01  0.39114662657E-01 -0.68769400034E-02  0.68384352874E-01  0.51100000000E-03 0. -1.
         11    1    4    4    0    0 -0.35570842586E-01  0.52696194734E-01 -0.38701003003E-02  0.63697822404E-01  0.51100000000E-03 0.  1.
</event>
<event>
 8    1  0.1128641E+005  0.1043930E+01  0.7957747E-01            NaN
         13   -1    0    0    0    0  0.00000000000E+00  0.00000000000E+00  0.74505805969E-08  0.10566000000E+00  0.10566000000E+00 0. -1.
     999900   -1    0    0    0    0 -0.00000000000E+00 -0.00000000000E+00 -0.74505805969E-08  0.93827000000E+00  0.93827000000E+00 0. -1.
     999902    2    1    2    0    0  0.13503049007E-01  0.18988829186E-01 -0.36566489786E-02  0.10203444314E+01  0.10200718012E+01 0.  0.
     999903    2    3    3    0    0  0.57091541005E-02  0.11750606689E+00 -0.59079650169E-01  0.13308004011E+00  0.19483886010E-01 0.  0.
         14    1    1    2    0    0 -0.13503049007E-01 -0.18988829186E-01  0.36566489786E-02  0.23585568640E-01  0.00000000000E+00 0.  1.
     999901    1    3    3    0    0  0.77938949066E-02 -0.98517237706E-01  0.55423001190E-01  0.88726439125E+00  0.88000000000E+00 0.  1.
        -11    1    4    4    0    0 -0.12157159669E-02  0.35719737928E-01 -0.27640346869E-01  0.45184372730E-01  0.51100000000E-03 0. -1.
         11    1    4    4    0    0  0.69248700674E-02  0.81786328964E-01 -0.31439303300E-01  0.87895667378E-01  0.51100000000E-03 0.  1.
</event>
<event>
 8    1  0.1128641E+005  0.1043930E+01  0.7957747E-01            NaN
         13   -1    0    0    0    0  0.00000000000E+00  0.00000000000E+00  0.74505805969E-08  0.10566000000E+00  0.10566000000E+00 0. -1.
     999900   -1    0    0    0    0 -0.00000000000E+00 -0.00000000000E+00 -0.74505805969E-08  0.93827000000E+00  0.93827000000E+00 0.  1.
     999902    2    1    2    0    0 -0.11205131035E-01 -0.20791713432E-01 -0.23354241131E-02  0.10201959629E+01  0.10199198490E+01 0.  0.
     999903    2    3    3    0    0 -0.23590530624E-01 -0.36188274552E-02 -0.12749757282E+00  0.13108749397E+00  0.18939138142E-01 0.  0.
         14    1    1    2    0    0  0.11205131035E-01  0.20791713432E-01  0.23354241131E-02  0.23734037051E-01  0.00000000000E+00 0. -1.
     999901    1    3    3    0    0  0.12385399588E-01 -0.17172885976E-01  0.12516214871E+00  0.88910846898E+00  0.88000000000E+00 0. -1.
        -11    1    4    4    0    0 -0.12241408403E-01 -0.11248011953E-01 -0.76376533179E-01  0.78166526045E-01  0.51100000000E-03 0. -1.
         11    1    4    4    0    0 -0.11349122220E-01  0.76291844980E-02 -0.51121039643E-01  0.52920967928E-01  0.51100000000E-03 0.  1.
</event>
<event>
 8    1  0.1128641E+005  0.1043930E+01  0.7957747E-01            NaN
         13   -1    0    0    0    0  0.00000000000E+00  0.00000000000E+00  0.74505805969E-08  0.10566000000E+00  0.10566000000E+00 0. -1.
     999900   -1    0    0    0    0 -0.00000000000E+00 -0.00000000000E+00 -0.74505805969E-08  0.93827000000E+00  0.93827000000E+00 0.  1.
     999902    2    1    2    0    0 -0.61656340696E-02  0.95850871882E-02 -0.22093110230E-01  0.10190705056E+01  0.10187672458E+01 0.  0.
     999903    2    3    3    0    0  0.12061203401E+00  0.41205031776E-01  0.24044925162E-02  0.12908593805E+00  0.20304689751E-01 0.  0.
         14    1    1    2    0    0  0.61656340696E-02 -0.95850871882E-02  0.22093110230E-01  0.24859494354E-01  0.00000000000E+00 0. -1.
     999901    1    3    3    0    0 -0.12677766808E+00 -0.31619944588E-01 -0.24497602747E-01  0.88998456760E+00  0.88000000000E+00 0.  1.
        -11    1    4    4    0    0  0.59518249981E-01  0.17223078347E-01  0.10868691541E-01  0.62908235433E-01  0.51100000000E-03 0.  1.
         11    1    4    4    0    0  0.61093784030E-01  0.23981953429E-01 -0.84641990246E-02  0.66177702616E-01  0.51100000000E-03 0. -1.
</event>
<event>
 8    1  0.1128641E+005  0.1043930E+01  0.7957747E-01            NaN
         13   -1    0    0    0    0  0.00000000000E+00  0.00000000000E+00  0.74505805969E-08  0.10566000000E+00  0.10566000000E+00 0. -1.
     999900   -1    0    0    0    0 -0.00000000000E+00 -0.00000000000E+00 -0.74505805969E-08  0.93827000000E+00  0.93827000000E+00 0.  1.
     999902    2    1    2    0    0  0.14676917788E-01  0.87627673580E-02 -0.16326405654E-01  0.10202921167E+01  0.10200182615E+01 0.  0.
     999903    2    3    3    0    0  0.89918089072E-02  0.44896624810E-01  0.11918821251E+00  0.12916800192E+00  0.19544389778E-01 0.  0.
         14    1    1    2    0    0 -0.14676917788E-01 -0.87627673580E-02  0.16326405654E-01  0.23637883347E-01  0.00000000000E+00 0. -1.
     999901    1    3    3    0    0  0.56851088811E-02 -0.36133857452E-01 -0.13551461817E+00  0.89112411473E+00  0.88000000000E+00 0.  1.
        -11    1    4    4    0    0  0.84353290780E-03  0.40121669285E-01  0.91695888419E-01  0.10009424043E+00  0.51100000000E-03 0.  1.
         11    1    4    4    0    0  0.81482759994E-02  0.47749555250E-02  0.27492324094E-01  0.29073761489E-01  0.51100000000E-03 0. -1.
</event>
<event>
 8    1  0.1128641E+005  0.1043930E+01  0.7957747E-01            NaN
         13   -1    0    0    0    0  0.00000000000E+00  0.00000000000E+00  0.74505805969E-08  0.10566000000E+00  0.10566000000E+00 0.  1.
     999900   -1    0    0    0    0 -0.00000000000E+00 -0.00000000000E+00 -0.74505805969E-08  0.93827000000E+00  0.93827000000E+00 0. -1.
     999902    2    1    2    0    0 -0.23478125069E-02 -0.23064109215E-01 -0.47546233251E-02  0.10202641639E+01  0.10199896530E+01 0.  0.
     999903    2    3    3    0    0  0.89528549228E-02  0.44442389199E-01 -0.12028349313E+00  0.13007780574E+00  0.19920774565E-01 0.  0.
         14    1    1    2    0    0  0.23478125069E-02  0.23064109215E-01  0.47546233251E-02  0.23665836145E-01  0.00000000000E+00 0. -1.
     999901    1    3    3    0    0 -0.11300667430E-01 -0.67506498415E-01  0.11552886980E+00  0.89018635811E+00  0.88000000000E+00 0.  1.
        -11    1    4    4    0    0  0.38042838024E-03  0.36568713449E-01 -0.10238348391E+00  0.10872007371E+00  0.51100000000E-03 0.  1.
         11    1    4    4    0    0  0.85724265426E-02  0.78736757498E-02 -0.17900009220E-01  0.21357732036E-01  0.51100000000E-03 0. -1.
</event>
<event>
 8    1  0.1128641E+005  0.1043930E+01  0.7957747E-01            NaN
         13   -1    0    0    0    0  0.00000000000E+00  0.00000000000E+00  0.74505805969E-08  0.10566000000E+00  0.10566000000E+00 0. -1.
     999900   -1    0    0    0    0 -0.00000000000E+00 -0.00000000000E+00 -0.74505805969E-08  0.93827000000E+00  0.93827000000E+00 0.  1.
     999902    2    1    2    0    0  0.21963372952E-01 -0.58742984866E-02 -0.69339964268E-02  0.10201607459E+01  0.10198838022E+01 0.  0.
     999903    2    3    3    0    0  0.12732595176E+00 -0.15424309052E-01 -0.30816607357E-01  0.13350249447E+00  0.20577789971E-01 0.  0.
         14    1    1    2    0    0 -0.21963372952E-01  0.58742984866E-02  0.69339964268E-02  0.23769254102E-01  0.00000000000E+00 0. -1.
     999901    1    3    3    0    0 -0.10536257881E+00  0.95500105650E-02  0.23882610930E-01  0.88665825142E+00  0.88000000000E+00 0. -1.
        -11    1    4    4    0    0  0.11840089599E+00 -0.18125986009E-01 -0.32267408926E-01  0.12405148262E+00  0.51100000000E-03 0.  1.
         11    1    4    4    0    0  0.89250557666E-02  0.27016769571E-02  0.14508015685E-02  0.94510118510E-02  0.51100000000E-03 0. -1.
</event>
<event>
 8    1  0.1128641E+005  0.1043930E+01  0.7957747E-01            NaN
         13   -1    0    0    0    0  0.00000000000E+00  0.00000000000E+00  0.74505805969E-08  0.10566000000E+00  0.10566000000E+00 0.  1.
     999900   -1    0    0    0    0 -0.00000000000E+00 -0.00000000000E+00 -0.74505805969E-08  0.93827000000E+00  0.93827000000E+00 0.  1.
     999902    2    1    2    0    0  0.15662529703E-01 -0.17059398197E-01 -0.82846658835E-02  0.10193337891E+01  0.10190369964E+01 0.  0.
     999903    2    3    3    0    0 -0.69757029971E-01 -0.77527349307E-02  0.10507583111E+00  0.12791148879E+00  0.19856247154E-01 0.  0.
         14    1    1    2    0    0 -0.15662529703E-01  0.17059398197E-01  0.82846658835E-02  0.24596210935E-01  0.00000000000E+00 0.  1.
     999901    1    3    3    0    0  0.85419559674E-01 -0.93066632666E-02 -0.11336049699E+00  0.89142230028E+00  0.88000000000E+00 0.  1.
        -11    1    4    4    0    0 -0.38380991377E-01 -0.11636826134E-01  0.70082760043E-01  0.80748811743E-01  0.51100000000E-03 0.  1.
         11    1    4    4    0    0 -0.31376038594E-01  0.38840912037E-02  0.34993071066E-01  0.47162677044E-01  0.51100000000E-03 0. -1.
</event>
<event>
 8    1  0.1128641E+005  0.1043930E+01  0.7957747E-01            NaN
         13   -1    0    0    0    0  0.00000000000E+00  0.00000000000E+00  0.74505805969E-08  0.10566000000E+00  0.10566000000E+00 0. -1.
     999900   -1    0    0    0    0 -0.00000000000E+00 -0.00000000000E+00 -0.74505805969E-08  0.93827000000E+00  0.93827000000E+00 0.  1.
     999902    2    1    2    0    0 -0.24887050410E-02  0.22469127100E-01  0.82485451871E-02  0.10198656317E+01  0.10195816852E+01 0.  0.
     999903    2    3    3    0    0 -0.44491706655E-01  0.78200883610E-01  0.95593935790E-01  0.13279207323E+00  0.20016093372E-01 0.  0.
         14    1    1    2    0    0  0.24887050410E-02 -0.22469127100E-01 -0.82485451871E-02  0.24064368330E-01  0.00000000000E+00 0. -1.
     999901    1    3    3    0    0  0.42003001614E-01 -0.55731756510E-01 -0.87345390603E-01  0.88707355844E+00  0.88000000000E+00 0.  1.
        -11    1    4    4    0    0 -0.24708699661E-01  0.61071295814E-01  0.71360136861E-01  0.97122362333E-01  0.51100000000E-03 0.  1.
         11    1    4    4    0    0 -0.19783006994E-01  0.17129587796E-01  0.24233798929E-01  0.35669710894E-01  0.51100000000E-03 0. -1.
</event>
<event>
 8    1  0.1128641E+005  0.1043930E+01  0.7957747E-01            NaN
         13   -1    0    0    0    0  0.00000000000E+00  0.00000000000E+00  0.74505805969E-08  0.10566000000E+00  0.10566000000E+00 0.  1.
     999900   -1    0    0    0    0 -0.00000000000E+00 -0.00000000000E+00 -0.74505805969E-08  0.93827000000E+00  0.93827000000E+00 0.  1.
     999902    2    1    2    0    0 -0.18796261271E-02  0.23508978155E-01  0.32787570167E-02  0.10201191769E+01  0.10198412523E+01 0.  0.
     999903    2    3    3    0    0  0.11014981651E+00  0.67141607230E-01  0.16978520384E-01  0.13183876744E+00  0.21265299135E-01 0.  0.
         14    1    1    2    0    0  0.18796261271E-02 -0.23508978155E-01 -0.32787570167E-02  0.23810823082E-01  0.00000000000E+00 0. -1.
     999901    1    3    3    0    0 -0.11202944264E+00 -0.43632629074E-01 -0.13699763367E-01  0.88828040947E+00  0.88000000000E+00 0. -1.
        -11    1    4    4    0    0  0.53284393035E-01  0.44889384255E-01  0.90835590031E-02  0.70264183800E-01  0.51100000000E-03 0.  1.
         11    1    4    4    0    0  0.56865423479E-01  0.22252222975E-01  0.78949613808E-02  0.61574583644E-01  0.51100000000E-03 0. -1.
</event>
<event>
 8    1  0.1244028E+005  0.1043930E+01  0.7957747E-01            NaN
         13   -1    0    0    0    0  0.00000000000E+00  0.00000000000E+00  0.74505805969E-08  0.10566000000E+00  0.10566000000E+00 0. -1.
     999900   -1    0    0    0    0 -0.00000000000E+00 -0.00000000000E+00 -0.74505805969E-08  0.93827000000E+00  0.93827000000E+00 0.  1.
     999902    2    1    2    0    0  0.12535286709E-01  0.20023952988E-01 -0.32345355130E-02  0.10200856228E+01  0.10198069050E+01 0.  0.
     999903    2    3    3    0    0  0.38716226873E-03 -0.11684987670E+00  0.47894464511E-01  0.12795547708E+00  0.20607785065E-01 0.  0.
         14    1    1    2    0    0 -0.12535286709E-01 -0.20023952988E-01  0.32345355130E-02  0.23844377243E-01  0.00000000000E+00 0. -1.
     999901    1    3    3    0    0  0.12148124440E-01  0.13687382969E+00 -0.51129000024E-01  0.89213014568E+00  0.88000000000E+00 0.  1.
        -11    1    4    4    0    0  0.10357610707E-01 -0.58948117819E-01  0.22420195207E-01  0.63914685074E-01  0.51100000000E-03 0. -1.
         11    1    4    4    0    0 -0.99704484384E-02 -0.57901758878E-01  0.25474269304E-01  0.64040792006E-01  0.51100000000E-03 0.  1.
</event>
<event>
 8    1  0.1128641E+005  0.1043930E+01  0.7957747E-01            NaN
         13   -1    0    0    0    0  0.00000000000E+00  0.00000000000E+00  0.74505805969E-08  0.10566000000E+00  0.10566000000E+00 0.  1.
     999900   -1    0    0    0    0 -0.00000000000E+00 -0.00000000000E+00 -0.74505805969E-08  0.93827000000E+00  0.93827000000E+00 0.  1.
     999902    2    1    2    0    0 -0.39966685360E-02 -0.23750702029E-01 -0.24501754490E-02  0.10197210643E+01  0.10194336548E+01 0.  0.
     999903    2    3    3    0    0  0.87104280894E-01  0.35825679257E-01 -0.86025702692E-01  0.12908443981E+00  0.19792322574E-01 0.  0.
         14    1    1    2    0    0  0.39966685360E-02  0.23750702029E-01  0.24501754490E-02  0.24208935664E-01  0.00000000000E+00 0. -1.
     999901    1    3    3    0    0 -0.91100949430E-01 -0.59576381286E-01  0.83575527244E-01  0.89063662453E+00  0.88000000000E+00 0. -1.
        -11    1    4    4    0    0  0.68205007806E-01  0.25577319221E-01 -0.76276182039E-01  0.10547245809E+00  0.51100000000E-03 0. -1.
         11    1    4    4    0    0  0.18899273088E-01  0.10248360035E-01 -0.97495206530E-02  0.23611981718E-01  0.51100000000E-03 0.  1.
</event>
<event>
 8    1  0.1128641E+005  0.1043930E+01  0.7957747E-01            NaN
         13   -1    0    0    0    0  0.00000000000E+00  0.00000000000E+00  0.74505805969E-08  0.10566000000E+00  0.10566000000E+00 0.  1.
     999900   -1    0    0    0    0 -0.00000000000E+00 -0.00000000000E+00 -0.74505805969E-08  0.93827000000E+00  0.93827000000E+00 0.  1.
     999902    2    1    2    0    0  0.15013716664E-01  0.24963357281E-01 -0.26177979484E-02  0.10146822008E+01  0.10142605852E+01 0.  0.
     999903    2    3    3    0    0 -0.43856137998E-01 -0.11030724729E+00  0.20495814101E-01  0.12210277274E+00  0.19948911525E-01 0.  0.
         14    1    1    2    0    0 -0.15013716664E-01 -0.24963357281E-01  0.26177979484E-02  0.29247799249E-01  0.00000000000E+00 0.  1.
     999901    1    3    3    0    0  0.58869854662E-01  0.13527060457E+00 -0.23113612050E-01  0.89257942801E+00  0.88000000000E+00 0.  1.
        -11    1    4    4    0    0 -0.40000379618E-01 -0.95296971268E-01  0.24226538663E-01  0.10615427169E+00  0.51100000000E-03 0. -1.
         11    1    4    4    0    0 -0.38557583801E-02 -0.15010276018E-01 -0.37307245614E-02  0.15948501045E-01  0.51100000000E-03 0.  1.
</event>
<event>
 8    1  0.1128641E+005  0.1043930E+01  0.7957747E-01            NaN
         13   -1    0    0    0    0  0.00000000000E+00  0.00000000000E+00  0.74505805969E-08  0.10566000000E+00  0.10566000000E+00 0.  1.
     999900   -1    0    0    0    0 -0.00000000000E+00 -0.00000000000E+00 -0.74505805969E-08  0.93827000000E+00  0.93827000000E+00 0. -1.
     999902    2    1    2    0    0  0.19413540341E-01  0.47754098202E-03  0.13890151300E-01  0.10200542823E+01  0.10197748226E+01 0.  0.
     999903    2    3    3    0    0 -0.67081318745E-01  0.50354388467E-01 -0.94681282407E-01  0.12777808244E+00  0.18089371241E-01 0.  0.
         14    1    1    2    0    0 -0.19413540341E-01 -0.47754098202E-03 -0.13890151300E-01  0.23875717729E-01  0.00000000000E+00 0. -1.
     999901    1    3    3    0    0  0.86494859086E-01 -0.49876847485E-01  0.10857143371E+00  0.89227619983E+00  0.88000000000E+00 0.  1.
        -11    1    4    4    0    0 -0.64527970581E-01  0.45881946402E-01 -0.81554643147E-01  0.11366808230E+00  0.51100000000E-03 0. -1.
         11    1    4    4    0    0 -0.25533481641E-02  0.44724420650E-02 -0.13126639260E-01  0.14110000147E-01  0.51100000000E-03 0.  1.
</event>
<event>
 8    1  0.1128641E+005  0.1043930E+01  0.7957747E-01            NaN
         13   -1    0    0    0    0  0.00000000000E+00  0.00000000000E+00  0.74505805969E-08  0.10566000000E+00  0.10566000000E+00 0.  1.
     999900   -1    0    0    0    0 -0.00000000000E+00 -0.00000000000E+00 -0.74505805969E-08  0.93827000000E+00  0.93827000000E+00 0. -1.
     999902    2    1    2    0    0 -0.70125155495E-02 -0.17199276289E-01 -0.13571069564E-01  0.10209264262E+01  0.10206672343E+01 0.  0.
     999903    2    3    3    0    0 -0.67745133838E-01  0.60281673866E-01 -0.94266317662E-01  0.13176756995E+00  0.15914473949E-01 0.  0.
         14    1    1    2    0    0  0.70125155495E-02  0.17199276289E-01  0.13571069564E-01  0.23003573816E-01  0.00000000000E+00 0.  1.
     999901    1    3    3    0    0  0.60732618289E-01 -0.77480950155E-01  0.80695248098E-01  0.88915885624E+00  0.88000000000E+00 0.  1.
        -11    1    4    4    0    0 -0.32855309569E-01  0.22669788188E-01 -0.50182745091E-01  0.64124563852E-01  0.51100000000E-03 0.  1.
         11    1    4    4    0    0 -0.34889824270E-01  0.37611885678E-01 -0.44083572571E-01  0.67643006095E-01  0.51100000000E-03 0. -1.
</event>
<event>
 8    1  0.1128641E+005  0.1043930E+01  0.7957747E-01            NaN
         13   -1    0    0    0    0  0.00000000000E+00  0.00000000000E+00  0.74505805969E-08  0.10566000000E+00  0.10566000000E+00 0. -1.
     999900   -1    0    0    0    0 -0.00000000000E+00 -0.00000000000E+00 -0.74505805969E-08  0.93827000000E+00  0.93827000000E+00 0.  1.
     999902    2    1    2    0    0 -0.82730619312E-02  0.19993845439E-01 -0.66602099812E-02  0.10212903046E+01  0.10210393384E+01 0.  0.
     999903    2    3    3    0    0  0.56610144731E-01 -0.11334863045E+00 -0.56668159741E-02  0.12888286786E+00  0.22936004755E-01 0.  0.
         14    1    1    2    0    0  0.82730619312E-02 -0.19993845439E-01  0.66602099812E-02  0.22639695364E-01  0.00000000000E+00 0. -1.
     999901    1    3    3    0    0 -0.64883206662E-01  0.13334247588E+00 -0.99339400708E-03  0.89240743678E+00  0.88000000000E+00 0. -1.
        -11    1    4    4    0    0  0.31524533281E-01 -0.81010915752E-01 -0.10935037760E-01  0.87615071999E-01  0.51100000000E-03 0. -1.
         11    1    4    4    0    0  0.25085611450E-01 -0.32337714694E-01  0.52682217861E-02  0.41267795861E-01  0.51100000000E-03 0.  1.
</event>
<event>
 8    1  0.1128641E+005  0.1043930E+01  0.7957747E-01            NaN
         13   -1    0    0    0    0  0.00000000000E+00  0.00000000000E+00  0.74505805969E-08  0.10566000000E+00  0.10566000000E+00 0.  1.
     999900   -1    0    0    0    0 -0.00000000000E+00 -0.00000000000E+00 -0.74505805969E-08  0.93827000000E+00  0.93827000000E+00 0. -1.
     999902    2    1    2    0    0  0.34994923029E-02  0.24149670219E-01 -0.55383035787E-02  0.10189074936E+01  0.10186001938E+01 0.  0.
     999903    2    3    3    0    0  0.31366287378E-02 -0.48203509164E-01 -0.11784180858E+00  0.12882480564E+00  0.19383548800E-01 0.  0.
         14    1    1    2    0    0 -0.34994923029E-02 -0.24149670219E-01  0.55383035787E-02  0.25022506361E-01  0.00000000000E+00 0.  1.
     999901    1    3    3    0    0  0.36286356507E-03  0.72353179383E-01  0.11230350500E+00  0.89008268800E+00  0.88000000000E+00 0.  1.
        -11    1    4    4    0    0  0.11205399542E-01 -0.23166685571E-01 -0.58409742067E-01  0.63829580827E-01  0.51100000000E-03 0. -1.
         11    1    4    4    0    0 -0.80687708039E-02 -0.25036823593E-01 -0.59432066512E-01  0.64995224815E-01  0.51100000000E-03 0.  1.
</event>
<event>
 8    1  0.1128641E+005  0.1043930E+01  0.7957747E-01            NaN
         13   -1    0    0    0    0  0.00000000000E+00  0.00000000000E+00  0.74505805969E-08  0.10566000000E+00  0.10566000000E+00 0.  1.
     999900   -1    0    0    0    0 -0.00000000000E+00 -0.00000000000E+00 -0.74505805969E-08  0.93827000000E+00  0.93827000000E+00 0. -1.
     999902    2    1    2    0    0  0.15593599539E-01 -0.14862408546E-01  0.77342030809E-02  0.10210418058E+01  0.10207852369E+01 0.  0.
     999903    2    3    3    0    0  0.44210264966E-02 -0.12445914809E+00 -0.41759964804E-01  0.13279299816E+00  0.19505401306E-01 0.  0.
         14    1    1    2    0    0 -0.15593599539E-01  0.14862408546E-01 -0.77342030809E-02  0.22888194155E-01  0.00000000000E+00 0.  1.
     999901    1    3    3    0    0  0.11172573043E-01  0.10959673954E+00  0.49494167885E-01  0.88824880769E+00  0.88000000000E+00 0.  1.
        -11    1    4    4    0    0  0.74820947953E-02 -0.77519139785E-01 -0.34551896970E-01  0.85201487550E-01  0.51100000000E-03 0. -1.
         11    1    4    4    0    0 -0.30610682987E-02 -0.46940008305E-01 -0.72080678341E-02  0.47591510605E-01  0.51100000000E-03 0.  1.
</event>
<event>
 8    1  0.1128641E+005  0.1043930E+01  0.7957747E-01            NaN
         13   -1    0    0    0    0  0.00000000000E+00  0.00000000000E+00  0.74505805969E-08  0.10566000000E+00  0.10566000000E+00 0.  1.
     999900   -1    0    0    0    0 -0.00000000000E+00 -0.00000000000E+00 -0.74505805969E-08  0.93827000000E+00  0.93827000000E+00 0. -1.
     999902    2    1    2    0    0 -0.33506235961E-02 -0.22519045204E-01 -0.35053495656E-02  0.10208947759E+01  0.10206348622E+01 0.  0.
     999903    2    3    3    0    0  0.95732000956E-02  0.87819539100E-02 -0.12902851456E+00  0.13134272977E+00  0.20827535127E-01 0.  0.
         14    1    1    2    0    0  0.33506235961E-02  0.22519045204E-01  0.35053495656E-02  0.23035224135E-01  0.00000000000E+00 0.  1.
     999901    1    3    3    0    0 -0.12923823692E-01 -0.31300999114E-01  0.12552316499E+00  0.88955204610E+00  0.88000000000E+00 0.  1.
        -11    1    4    4    0    0  0.13326212168E-01  0.69914198650E-02 -0.50364084376E-01  0.52566814613E-01  0.51100000000E-03 0.  1.
         11    1    4    4    0    0 -0.37530120729E-02  0.17905340450E-02 -0.78664430182E-01  0.78775915156E-01  0.51100000000E-03 0. -1.
</event>
<event>
 8    1  0.1128641E+005  0.1043930E+01  0.7957747E-01            NaN
         13   -1    0    0    0    0  0.00000000000E+00  0.00000000000E+00  0.74505805969E-08  0.10566000000E+00  0.10566000000E+00 0. -1.
     999900   -1    0    0    0    0 -0.00000000000E+00 -0.00000000000E+00 -0.74505805969E-08  0.93827000000E+00  0.93827000000E+00 0.  1.
     999902    2    1    2    0    0 -0.95412717201E-02  0.21527600650E-01  0.12615195144E-02  0.10203489719E+01  0.10200764479E+01 0.  0.
     999903    2    3    3    0    0 -0.79605938100E-01  0.10525894245E+00  0.59484480241E-02  0.13358972475E+00  0.19856489560E-01 0.  0.
         14    1    1    2    0    0  0.95412717201E-02 -0.21527600650E-01 -0.12615195144E-02  0.23581028122E-01  0.00000000000E+00 0.  1.
     999901    1    3    3    0    0  0.70064666380E-01 -0.83731341799E-01 -0.46869285098E-02  0.88675924713E+00  0.88000000000E+00 0.  1.
        -11    1    4    4    0    0 -0.44897739607E-01  0.74845328001E-01  0.26421189371E-02  0.87320513391E-01  0.51100000000E-03 0.  1.
         11    1    4    4    0    0 -0.34708198493E-01  0.30413614448E-01  0.33063290870E-02  0.46269211355E-01  0.51100000000E-03 0. -1.
</event>
<event>
 8    1  0.1128641E+005  0.1043930E+01  0.7957747E-01            NaN
         13   -1    0    0    0    0  0.00000000000E+00  0.00000000000E+00  0.74505805969E-08  0.10566000000E+00  0.10566000000E+00 0.  1.
     999900   -1    0    0    0    0 -0.00000000000E+00 -0.00000000000E+00 -0.74505805969E-08  0.93827000000E+00  0.93827000000E+00 0.  1.
     999902    2    1    2    0    0  0.11752868139E-01 -0.12322122262E-01  0.16374515559E-01  0.10203060849E+01  0.10200325571E+01 0.  0.
     999903    2    3    3    0    0  0.88454984870E-01 -0.22416748846E-01 -0.90962743177E-01  0.13041485370E+00  0.20174698041E-01 0.  0.
         14    1    1    2    0    0 -0.11752868139E-01  0.12322122262E-01 -0.16374515559E-01  0.23623915136E-01  0.00000000000E+00 0. -1.
     999901    1    3    3    0    0 -0.76702116731E-01  0.10094626584E-01  0.10733725874E+00  0.88989123117E+00  0.88000000000E+00 0. -1.
        -11    1    4    4    0    0  0.25658889244E-01 -0.13023144327E-01 -0.19213081059E-01  0.34603243925E-01  0.51100000000E-03 0.  1.
         11    1    4    4    0    0  0.62796095627E-01 -0.93936045191E-02 -0.71749662119E-01  0.95811609771E-01  0.51100000000E-03 0. -1.
</event>
<event>
 8    1  0.1128641E+005  0.1043930E+01  0.7957747E-01            NaN
         13   -1    0    0    0    0  0.00000000000E+00  0.00000000000E+00  0.74505805969E-08  0.10566000000E+00  0.10566000000E+00 0. -1.
     999900   -1    0    0    0    0 -0.00000000000E+00 -0.00000000000E+00 -0.74505805969E-08  0.93827000000E+00  0.93827000000E+00 0.  1.
     999902    2    1    2    0    0 -0.38516422602E-02  0.15193923904E-01 -0.18631300826E-01  0.10195821902E+01  0.10192914337E+01 0.  0.
     999903    2    3    3    0    0  0.31487195387E-01 -0.62935868715E-01  0.10379207541E+00  0.12697892951E+00  0.19962128569E-01 0.  0.
         14    1    1    2    0    0  0.38516422602E-02 -0.15193923904E-01  0.18631300826E-01  0.24347809803E-01  0.00000000000E+00 0. -1.
     999901    1    3    3    0    0 -0.35338837647E-01  0.78129792619E-01 -0.12242337624E+00  0.89260326069E+00  0.88000000000E+00 0. -1.
        -11    1    4    4    0    0 -0.10338048809E-02 -0.56264868308E-02  0.27985387782E-02  0.63889785476E-02  0.51100000000E-03 0.  1.
         11    1    4    4    0    0  0.32521000268E-01 -0.57309381884E-01  0.10099353663E+00  0.12058995096E+00  0.51100000000E-03 0. -1.
</event>
<event>
 8    1  0.1128641E+005  0.1043930E+01  0.7957747E-01            NaN
         13   -1    0    0    0    0  0.00000000000E+00  0.00000000000E+00  0.74505805969E-08  0.10566000000E+00  0.10566000000E+00 0.  1.
     999900   -1    0    0    0    0 -0.00000000000E+00 -0.00000000000E+00 -0.74505805969E-08  0.93827000000E+00  0.93827000000E+00 0. -1.
     999902    2    1    2    0    0  0.10797630491E-01 -0.11504827021E-01  0.17811565774E-01  0.10201350059E+01  0.10198574550E+01 0.  0.
     999903    2    3    3    0    0  0.34225533785E-01 -0.93647611160E-01 -0.81642800517E-01  0.13042298810E+00  0.20083493467E-01 0.  0.
         14    1    1    2    0    0 -0.10797630491E-01  0.11504827021E-01 -0.17811565774E-01  0.23794994102E-01  0.00000000000E+00 0. -1.
     999901    1    3    3    0    0 -0.23427903294E-01  0.82142784140E-01  0.99454366291E-01  0.88971201780E+00  0.88000000000E+00 0.  1.
        -11    1    4    4    0    0  0.24512001143E-01 -0.47368007496E-01 -0.33757691598E-01  0.63122176746E-01  0.51100000000E-03 0. -1.
         11    1    4    4    0    0  0.97135326421E-02 -0.46279603664E-01 -0.47885108919E-01  0.67300811354E-01  0.51100000000E-03 0.  1.
</event>
<event>
 8    1  0.1128641E+005  0.1043930E+01  0.7957747E-01            NaN
         13   -1    0    0    0    0  0.00000000000E+00  0.00000000000E+00  0.74505805969E-08  0.10566000000E+00  0.10566000000E+00 0.  1.
     999900   -1    0    0    0    0 -0.00000000000E+00 -0.00000000000E+00 -0.74505805969E-08  0.93827000000E+00  0.93827000000E+00 0.  1.
     999902    2    1    2    0    0  0.14034919903E-01 -0.39433814460E-02 -0.18140557807E-01  0.10206575040E+01  0.10203921459E+01 0.  0.
     999903    2    3    3    0    0  0.67443863666E-01 -0.37022322935E-01 -0.10768227736E+00  0.13388557659E+00  0.20261974772E-01 0.  0.
         14    1    1    2    0    0 -0.14034919903E-01  0.39433814460E-02  0.18140557807E-01  0.23272496030E-01  0.00000000000E+00 0. -1.
     999901    1    3    3    0    0 -0.53408943762E-01  0.33078941489E-01  0.89541719549E-01  0.88677192738E+00  0.88000000000E+00 0. -1.
        -11    1    4    4    0    0  0.29169190335E-01 -0.49020198308E-02 -0.40999058935E-01  0.50557446710E-01  0.51100000000E-03 0.  1.
         11    1    4    4    0    0  0.38274673331E-01 -0.32120303104E-01 -0.66683218420E-01  0.83328129884E-01  0.51100000000E-03 0. -1.
</event>
<event>
 8    1  0.1128641E+005  0.1043930E+01  0.7957747E-01            NaN
         13   -1    0    0    0    0  0.00000000000E+00  0.00000000000E+00  0.74505805969E-08  0.10566000000E+00  0.10566000000E+00 0. -1.
     999900   -1    0    0    0    0 -0.00000000000E+00 -0.00000000000E+00 -0.74505805969E-08  0.93827000000E+00  0.93827000000E+00 0. -1.
     999902    2    1    2    0    0 -0.56401135827E-03 -0.65284669100E-02  0.23652461986E-01  0.10193866109E+01  0.10190911071E+01 0.  0.
     999903    2    3    3    0    0  0.45457644633E-01 -0.66265783229E-01 -0.97596203676E-01  0.12787790166E+00  0.19240251517E-01 0.  0.
         14    1    1    2    0    0  0.56401135827E-03  0.65284669100E-02 -0.23652461986E-01  0.24543389070E-01  0.00000000000E+00 0.  1.
     999901    1    3    3    0    0 -0.46021655991E-01  0.59737316319E-01  0.12124866566E+00  0.89150870927E+00  0.88000000000E+00 0.  1.
        -11    1    4    4    0    0  0.31841234042E-01 -0.57509440074E-01 -0.84433588347E-01  0.10700697101E+00  0.51100000000E-03 0. -1.
         11    1    4    4    0    0  0.13616410591E-01 -0.87563431551E-02 -0.13162615329E-01  0.20870930648E-01  0.51100000000E-03 0.  1.
</event>
<event>
 8    1  0.1128641E+005  0.1043930E+01  0.7957747E-01            NaN
         13   -1    0    0    0    0  0.00000000000E+00  0.00000000000E+00  0.74505805969E-08  0.10566000000E+00  0.10566000000E+00 0.  1.
     999900   -1    0    0    0    0 -0.00000000000E+00 -0.00000000000E+00 -0.74505805969E-08  0.93827000000E+00  0.93827000000E+00 0.  1.
     999902    2    1    2    0    0  0.48103650343E-02  0.19771657450E-01  0.10307071446E-01  0.10211200510E+01  0.10208652530E+01 0.  0.
     999903    2    3    3    0    0 -0.20342854922E-01  0.95553897041E-01  0.89612955430E-01  0.13395318085E+00  0.19198799268E-01 0.  0.
         14    1    1    2    0    0 -0.48103650343E-02 -0.19771657450E-01 -0.10307071446E-01  0.22809948967E-01  0.00000000000E+00 0. -1.
     999901    1    3    3    0    0  0.25153219956E-01 -0.75782239591E-01 -0.79305883985E-01  0.88716687018E+00  0.88000000000E+00 0.  1.
        -11    1    4    4    0    0 -0.12100533034E-01  0.19596985135E-01  0.23616525200E-01  0.32991909760E-01  0.51100000000E-03 0.  1.
         11    1    4    4    0    0 -0.82423218881E-02  0.75956911906E-01  0.65996430230E-01  0.10096127109E+00  0.51100000000E-03 0. -1.
</event>
<event>
 8    1  0.1128641E+005  0.1043930E+01  0.7957747E-01            NaN
         13   -1    0    0    0    0  0.00000000000E+00  0.00000000000E+00  0.74505805969E-08  0.10566000000E+00  0.10566000000E+00 0. -1.
     999900   -1    0    0    0    0 -0.00000000000E+00 -0.00000000000E+00 -0.74505805969E-08  0.93827000000E+00  0.93827000000E+00 0.  1.
     999902    2    1    2    0    0  0.59762736568E-02  0.29258165399E-01 -0.70244609586E-02  0.10132526608E+01  0.10127881592E+01 0.  0.
     999903    2    3    3    0    0 -0.75241014003E-01  0.53223991942E-01  0.81568620465E-01  0.12475992433E+00  0.20435150324E-01 0.  0.
         14    1    1    2    0    0 -0.59762736568E-02 -0.29258165399E-01  0.70244609586E-02  0.30677339211E-01  0.00000000000E+00 0.  1.
     999901    1    3    3    0    0  0.81217287660E-01 -0.23965826543E-01 -0.88593081424E-01  0.88849273645E+00  0.88000000000E+00 0.  1.
        -11    1    4    4    0    0 -0.15785108448E-01  0.21214988240E-01  0.17784661339E-01  0.31871628052E-01  0.51100000000E-03 0. -1.
         11    1    4    4    0    0 -0.59455905555E-01  0.32009003702E-01  0.63783959126E-01  0.92888296282E-01  0.51100000000E-03 0.  1.
</event>
<event>
 8    1  0.1128641E+005  0.1043930E+01  0.7957747E-01            NaN
         13   -1    0    0    0    0  0.00000000000E+00  0.00000000000E+00  0.74505805969E-08  0.10566000000E+00  0.10566000000E+00 0.  1.
     999900   -1    0    0    0    0 -0.00000000000E+00 -0.00000000000E+00 -0.74505805969E-08  0.93827000000E+00  0.93827000000E+00 0.  1.
     999902    2    1    2    0    0 -0.16636420836E-01 -0.15253330976E-01  0.75357216138E-02  0.10201345865E+01  0.10198570257E+01 0.  0.
     999903    2    3    3    0    0 -0.10242901260E+00 -0.73907186597E-01 -0.36488756165E-01  0.13292615651E+00  0.19594869326E-01 0.  0.
         14    1    1    2    0    0  0.16636420836E-01  0.15253330976E-01 -0.75357216138E-02  0.23795413515E-01  0.00000000000E+00 0. -1.
     999901    1    3    3    0    0  0.85792591765E-01  0.58653855621E-01  0.44024477779E-01  0.88720842998E+00  0.88000000000E+00 0. -1.
        -11    1    4    4    0    0 -0.60843134480E-01 -0.44618324550E-01 -0.11746112885E-01  0.76360422916E-01  0.51100000000E-03 0. -1.
         11    1    4    4    0    0 -0.41585878121E-01 -0.29288862047E-01 -0.24742643280E-01  0.56565733590E-01  0.51100000000E-03 0.  1.
</event>
<event>
 8    1  0.1128641E+005  0.1043930E+01  0.7957747E-01            NaN
         13   -1    0    0    0    0  0.00000000000E+00  0.00000000000E+00  0.74505805969E-08  0.10566000000E+00  0.10566000000E+00 0.  1.
     999900   -1    0    0    0    0 -0.00000000000E+00 -0.00000000000E+00 -0.74505805969E-08  0.93827000000E+00  0.93827000000E+00 0.  1.
     999902    2    1    2    0    0  0.10863028492E-01  0.13056836761E-01 -0.13423075709E-01  0.10222813202E+01  0.10220520693E+01 0.  0.
     999903    2    3    3    0    0  0.55228572175E-01  0.38715582894E-01 -0.11517044473E+00  0.13493741857E+00  0.19869173299E-01 0.  0.
         14    1    1    2    0    0 -0.10863028492E-01 -0.13056836761E-01  0.13423075709E-01  0.21648679768E-01  0.00000000000E+00 0.  1.
     999901    1    3    3    0    0 -0.44365543684E-01 -0.25658746132E-01  0.10174736902E+00  0.88734390166E+00  0.88000000000E+00 0. -1.
        -11    1    4    4    0    0  0.50796816384E-01  0.28831682661E-01 -0.87370307758E-01  0.10509716589E+00  0.51100000000E-03 0.  1.
         11    1    4    4    0    0  0.44317557912E-02  0.98839002323E-02 -0.27800136969E-01  0.29840252675E-01  0.51100000000E-03 0. -1.
</event>
<event>
 8    1  0.1128641E+005  0.1043930E+01  0.7957747E-01            NaN
         13   -1    0    0    0    0  0.00000000000E+00  0.00000000000E+00  0.74505805969E-08  0.10566000000E+00  0.10566000000E+00 0. -1.
     999900   -1    0    0    0    0 -0.00000000000E+00 -0.00000000000E+00 -0.74505805969E-08  0.93827000000E+00  0.93827000000E+00 0. -1.
     999902    2    1    2    0    0 -0.13972412472E-02 -0.83255519554E-02 -0.21717492565E-01  0.10206294296E+01  0.10203634235E+01 0.  0.
     999903    2    3    3    0    0  0.11063058376E+00  0.54023196836E-01 -0.40549545560E-01  0.13113954978E+00  0.19891807625E-01 0.  0.
         14    1    1    2    0    0  0.13972412472E-02  0.83255519554E-02  0.21717492565E-01  0.23300570418E-01  0.00000000000E+00 0. -1.
     999901    1    3    3    0    0 -0.11202782501E+00 -0.62348748791E-01  0.18832052994E-01  0.88948987980E+00  0.88000000000E+00 0. -1.
        -11    1    4    4    0    0  0.36150911210E-01  0.22018571464E-01 -0.50175422707E-02  0.42627957048E-01  0.51100000000E-03 0. -1.
         11    1    4    4    0    0  0.74479672554E-01  0.32004625372E-01 -0.35532003289E-01  0.88511592731E-01  0.51100000000E-03 0.  1.
</event>
<event>
 8    1  0.1128641E+005  0.1043930E+01  0.7957747E-01            NaN
         13   -1    0    0    0    0  0.00000000000E+00  0.00000000000E+00  0.74505805969E-08  0.10566000000E+00  0.10566000000E+00 0.  1.
     999900   -1    0    0    0    0 -0.00000000000E+00 -0.00000000000E+00 -0.74505805969E-08  0.93827000000E+00  0.93827000000E+00 0.  1.
     999902    2    1    2    0    0 -0.98842007188E-02  0.25072383764E-02  0.21441001874E-01  0.10201876280E+01  0.10199113177E+01 0.  0.
     999903    2    3    3    0    0  0.12836188117E-01  0.12862859532E+00  0.28051242305E-02  0.13071019224E+00  0.19162525214E-01 0.  0.
         14    1    1    2    0    0  0.98842007188E-02 -0.25072383764E-02 -0.21441001874E-01  0.23742372028E-01  0.00000000000E+00 0. -1.
     999901    1    3    3    0    0 -0.22720388835E-01 -0.12612135695E+00  0.18635877644E-01  0.88947743574E+00  0.88000000000E+00 0. -1.
        -11    1    4    4    0    0  0.13860887483E-01  0.87915537636E-01  0.92188789306E-02  0.89479130580E-01  0.51100000000E-03 0. -1.
         11    1    4    4    0    0 -0.10246993661E-02  0.40713057687E-01 -0.64137547000E-02  0.41231061657E-01  0.51100000000E-03 0.  1.
</event>
<event>
 8    1  0.1128641E+005  0.1043930E+01  0.7957747E-01            NaN
         13   -1    0    0    0    0  0.00000000000E+00  0.00000000000E+00  0.74505805969E-08  0.10566000000E+00  0.10566000000E+00 0. -1.
     999900   -1    0    0    0    0 -0.00000000000E+00 -0.00000000000E+00 -0.74505805969E-08  0.93827000000E+00  0.93827000000E+00 0. -1.
     999902    2    1    2    0    0 -0.32798808352E-02  0.70176027719E-02  0.22565311309E-01  0.10200721367E+01  0.10197930998E+01 0.  0.
     999903    2    3    3    0    0 -0.93916549695E-01  0.89014278220E-01 -0.80670092350E-02  0.13109699667E+00  0.19428995431E-01 0.  0.
         14    1    1    2    0    0  0.32798808352E-02 -0.70176027719E-02 -0.22565311309E-01  0.23857863304E-01  0.00000000000E+00 0.  1.
     999901    1    3    3    0    0  0.90636668860E-01 -0.81996675448E-01  0.30632320544E-01  0.88897514003E+00  0.88000000000E+00 0.  1.
        -11    1    4    4    0    0 -0.48055873516E-01  0.41890563547E-01  0.53750991732E-02  0.63979208386E-01  0.51100000000E-03 0.  1.
         11    1    4    4    0    0 -0.45860676180E-01  0.47123714674E-01 -0.13442108408E-01  0.67117788281E-01  0.51100000000E-03 0. -1.
</event>
<event>
 8    1  0.1128641E+005  0.1043930E+01  0.7957747E-01            NaN
         13   -1    0    0    0    0  0.00000000000E+00  0.00000000000E+00  0.74505805969E-08  0.10566000000E+00  0.10566000000E+00 0. -1.
     999900   -1    0    0    0    0 -0.00000000000E+00 -0.00000000000E+00 -0.74505805969E-08  0.93827000000E+00  0.93827000000E+00 0. -1.
     999902    2    1    2    0    0 -0.81836685597E-02 -0.22722875256E-01  0.28812689805E-02  0.10196071054E+01  0.10193169508E+01 0.  0.
     999903    2    3    3    0    0 -0.10495707695E+00 -0.78307986973E-01  0.49531784485E-02  0.13255632330E+00  0.19962866626E-01 0.  0.
         14    1    1    2    0    0  0.81836685597E-02  0.22722875256E-01 -0.28812689805E-02  0.24322894604E-01  0.00000000000E+00 0.  1.
     999901    1    3    3    0    0  0.96773408387E-01  0.55585111717E-01 -0.20719094679E-02  0.88705078210E+00  0.88000000000E+00 0. -1.
        -11    1    4    4    0    0 -0.36126434674E-01 -0.16956026386E-01 -0.29006269052E-02  0.40016257578E-01  0.51100000000E-03 0. -1.
         11    1    4    4    0    0 -0.68830642272E-01 -0.61351960588E-01  0.78538053537E-02  0.92540065718E-01  0.51100000000E-03 0.  1.
</event>
<event>
 8    1  0.1128641E+005  0.1043930E+01  0.7957747E-01            NaN
         13   -1    0    0    0    0  0.00000000000E+00  0.00000000000E+00  0.74505805969E-08  0.10566000000E+00  0.10566000000E+00 0. -1.
     999900   -1    0    0    0    0 -0.00000000000E+00 -0.00000000000E+00 -0.74505805969E-08  0.93827000000E+00  0.93827000000E+00 0. -1.
     999902    2    1    2    0    0  0.12677170000E-01 -0.14250684277E-01 -0.15281365506E-01  0.10194900169E+01  0.10191970280E+01 0.  0.
     999903    2    3    3    0    0 -0.10311700803E+00  0.52566894245E-02  0.71952682838E-01  0.12741456692E+00  0.19913140553E-01 0.  0.
         14    1    1    2    0    0 -0.12677170000E-01  0.14250684277E-01  0.15281365506E-01  0.24439983087E-01  0.00000000000E+00 0. -1.
     999901    1    3    3    0    0  0.11579417803E+00 -0.19507373702E-01 -0.87234048344E-01  0.89207545000E+00  0.88000000000E+00 0.  1.
        -11    1    4    4    0    0 -0.42137196891E-01  0.81518924300E-02  0.20463052022E-01  0.47549914102E-01  0.51100000000E-03 0.  1.
         11    1    4    4    0    0 -0.60979811138E-01 -0.28952030055E-02  0.51489630816E-01  0.79864652816E-01  0.51100000000E-03 0. -1.
</event>
<event>
 7    1  0.1128641E+005  0.1043930E+01  0.7957747E-01            NaN
         13   -1    0    0    0    0  0.00000000000E+00  0.00000000000E+00  0.74505805969E-08  0.10566000000E+00  0.10566000000E+00 0.  1.
     999900   -1    0    0    0    0 -0.00000000000E+00 -0.00000000000E+00 -0.74505805969E-08  0.93827000000E+00  0.93827000000E+00 0. -1.
     999903    2    1    2    0    0  0.13177331050E-01 -0.72060520892E-01 -0.76353195149E-01  0.10747443235E+00  0.18830360432E-01 0.  0.
         14    1    1    2    0    0 -0.52277844270E-02 -0.24418780870E-01 -0.36245376550E-01  0.44015155463E-01  0.00000000000E+00 0. -1.
     999901    1    1    2    0    0 -0.79495466228E-02  0.96479301763E-01  0.11259857170E+00  0.89244041219E+00  0.88000000000E+00 0.  1.
        -11    1    3    3    0    0  0.12417529884E-01 -0.26290092283E-01 -0.37330681467E-01  0.47320237747E-01  0.51100000000E-03 0.  1.
         11    1    3    3    0    0  0.75980116596E-03 -0.45770428610E-01 -0.39022513683E-01  0.60154194600E-01  0.51100000000E-03 0. -1.
</event>
<event>
 8    1  0.1128641E+005  0.1043930E+01  0.7957747E-01            NaN
         13   -1    0    0    0    0  0.00000000000E+00  0.00000000000E+00  0.74505805969E-08  0.10566000000E+00  0.10566000000E+00 0. -1.
     999900   -1    0    0    0    0 -0.00000000000E+00 -0.00000000000E+00 -0.74505805969E-08  0.93827000000E+00  0.93827000000E+00 0. -1.
     999902    2    1    2    0    0  0.14669484968E-01 -0.20216993473E-02  0.16460910236E-01  0.10217885768E+01  0.10215486542E+01 0.  0.
     999903    2    3    3    0    0  0.58716181006E-01  0.86441816100E-02 -0.11463482866E+00  0.13092384785E+00  0.21854020403E-01 0.  0.
         14    1    1    2    0    0 -0.14669484968E-01  0.20216993473E-02 -0.16460910236E-01  0.22141423244E-01  0.00000000000E+00 0.  1.
     999901    1    3    3    0    0 -0.44046696038E-01 -0.10665880957E-01  0.13109573889E+00  0.89086472890E+00  0.88000000000E+00 0.  1.
        -11    1    4    4    0    0  0.42164146560E-01  0.49911172493E-02 -0.58515837858E-01  0.72298623138E-01  0.51100000000E-03 0.  1.
         11    1    4    4    0    0  0.16552034447E-01  0.36530643608E-02 -0.56118990798E-01  0.58625224714E-01  0.51100000000E-03 0. -1.
</event>
<event>
 8    1  0.1128641E+005  0.1043930E+01  0.7957747E-01            NaN
         13   -1    0    0    0    0  0.00000000000E+00  0.00000000000E+00  0.74505805969E-08  0.10566000000E+00  0.10566000000E+00 0.  1.
     999900   -1    0    0    0    0 -0.00000000000E+00 -0.00000000000E+00 -0.74505805969E-08  0.93827000000E+00  0.93827000000E+00 0.  1.
     999902    2    1    2    0    0 -0.85709058457E-02 -0.21829106268E-01  0.58257379128E-02  0.10197657800E+01  0.10194794439E+01 0.  0.
     999903    2    3    3    0    0 -0.77734099662E-01  0.67621307139E-01 -0.74791611654E-01  0.12887629137E+00  0.20002046768E-01 0.  0.
         14    1    1    2    0    0  0.85709058457E-02  0.21829106268E-01 -0.58257379128E-02  0.24164220031E-01  0.00000000000E+00 0.  1.
     999901    1    3    3    0    0  0.69163193817E-01 -0.89450413407E-01  0.80617349567E-01  0.89088948859E+00  0.88000000000E+00 0. -1.
        -11    1    4    4    0    0 -0.40321339912E-01  0.35744295271E-01 -0.51287548212E-01  0.74391792688E-01  0.51100000000E-03 0.  1.
         11    1    4    4    0    0 -0.37412759750E-01  0.31877011868E-01 -0.23504063443E-01  0.54484498686E-01  0.51100000000E-03 0. -1.
</event>
<event>
 8    1  0.1128641E+005  0.1043930E+01  0.7957747E-01            NaN
         13   -1    0    0    0    0  0.00000000000E+00  0.00000000000E+00  0.74505805969E-08  0.10566000000E+00  0.10566000000E+00 0.  1.
     999900   -1    0    0    0    0 -0.00000000000E+00 -0.00000000000E+00 -0.74505805969E-08  0.93827000000E+00  0.93827000000E+00 0.  1.
     999902    2    1    2    0    0 -0.62770493505E-02 -0.54365422263E-02 -0.24364561110E-01  0.10181891924E+01  0.10178637641E+01 0.  0.
     999903    2    3    3    0    0 -0.14285864907E-01  0.11190811453E+00 -0.60863315042E-01  0.12961388962E+00  0.19180855880E-01 0.  0.
         14    1    1    2    0    0  0.62770493505E-02  0.54365422263E-02  0.24364561110E-01  0.25740807641E-01  0.00000000000E+00 0.  1.
     999901    1    3    3    0    0  0.80088155565E-02 -0.11734465675E+00  0.36498753932E-01  0.88857530274E+00  0.88000000000E+00 0.  1.
        -11    1    4    4    0    0 -0.10814368754E-02  0.24779238158E-01 -0.22532004430E-01  0.33513168965E-01  0.51100000000E-03 0.  1.
         11    1    4    4    0    0 -0.13204428032E-01  0.87128876368E-01 -0.38331310612E-01  0.96100720658E-01  0.51100000000E-03 0. -1.
</event>
<event>
 8    1  0.1128641E+005  0.1043930E+01  0.7957747E-01            NaN
         13   -1    0    0    0    0  0.00000000000E+00  0.00000000000E+00  0.74505805969E-08  0.10566000000E+00  0.10566000000E+00 0. -1.
     999900   -1    0    0    0    0 -0.00000000000E+00 -0.00000000000E+00 -0.74505805969E-08  0.93827000000E+00  0.93827000000E+00 0. -1.
     999902    2    1    2    0    0  0.22354102339E-01  0.64736571396E-02 -0.32669543123E-02  0.10204292103E+01  0.10201585593E+01 0.  0.
     999903    2    3    3    0    0  0.13205258691E+00  0.93972141631E-03 -0.29196395531E-02  0.13360087141E+00  0.20047437749E-01 0.  0.
         14    1    1    2    0    0 -0.22354102339E-01 -0.64736571396E-02  0.32669543123E-02  0.23500789744E-01  0.00000000000E+00 0. -1.
     999901    1    3    3    0    0 -0.10969848457E+00  0.55339357232E-02 -0.34731475912E-03  0.88682833885E+00  0.88000000000E+00 0.  1.
        -11    1    4    4    0    0  0.15762013047E-01 -0.52151074150E-02 -0.42248355301E-02  0.17139100236E-01  0.51100000000E-03 0. -1.
         11    1    4    4    0    0  0.11629057386E+00  0.61548288313E-02  0.13051959770E-02  0.11646177117E+00  0.51100000000E-03 0.  1.
</event>
<event>
 8    1  0.1128641E+005  0.1043930E+01  0.7957747E-01            NaN
         13   -1    0    0    0    0  0.00000000000E+00  0.00000000000E+00  0.74505805969E-08  0.10566000000E+00  0.10566000000E+00 0. -1.
     999900   -1    0    0    0    0 -0.00000000000E+00 -0.00000000000E+00 -0.74505805969E-08  0.93827000000E+00  0.93827000000E+00 0. -1.
     999902    2    1    2    0    0 -0.28054586070E-02  0.82125317783E-02 -0.23500245977E-01  0.10188784963E+01  0.10185704749E+01 0.  0.
     999903    2    3    3    0    0 -0.54648198519E-01  0.11476638531E+00 -0.25133235179E-01  0.13093477059E+00  0.18827794353E-01 0.  0.
         14    1    1    2    0    0  0.28054586070E-02 -0.82125317783E-02  0.23500245977E-01  0.25051503691E-01  0.00000000000E+00 0. -1.
     999901    1    3    3    0    0  0.51842739912E-01 -0.10655385354E+00  0.16329892024E-02  0.88794372572E+00  0.88000000000E+00 0.  1.
        -11    1    4    4    0    0 -0.46860151771E-01  0.78884022401E-01 -0.16794113335E-01  0.93278433616E-01  0.51100000000E-03 0.  1.
         11    1    4    4    0    0 -0.77880467479E-02  0.35882362913E-01 -0.83391218441E-02  0.37656336977E-01  0.51100000000E-03 0. -1.
</event>
<event>
 8    1  0.1128641E+005  0.1043930E+01  0.7957747E-01            NaN
         13   -1    0    0    0    0  0.00000000000E+00  0.00000000000E+00  0.74505805969E-08  0.10566000000E+00  0.10566000000E+00 0. -1.
     999900   -1    0    0    0    0 -0.00000000000E+00 -0.00000000000E+00 -0.74505805969E-08  0.93827000000E+00  0.93827000000E+00 0.  1.
     999902    2    1    2    0    0 -0.13782016622E-01 -0.68405928280E-02  0.17530645405E-01  0.10206048800E+01  0.10203383066E+01 0.  0.
     999903    2    3    3    0    0 -0.91045333558E-02  0.12255810607E+00 -0.35148433405E-01  0.12957121768E+00  0.21210992163E-01 0.  0.
         14    1    1    2    0    0  0.13782016622E-01  0.68405928280E-02 -0.17530645405E-01  0.23325119951E-01  0.00000000000E+00 0.  1.
     999901    1    3    3    0    0 -0.46774832667E-02 -0.12939869890E+00  0.52679078810E-01  0.89103366237E+00  0.88000000000E+00 0. -1.
        -11    1    4    4    0    0 -0.12668874496E-01  0.44343534270E-01 -0.17351834115E-01  0.49276735695E-01  0.51100000000E-03 0. -1.
         11    1    4    4    0    0  0.35643411404E-02  0.78214571804E-01 -0.17796599290E-01  0.80294481987E-01  0.51100000000E-03 0.  1.
</event>
<event>
 8    1  0.1128641E+005  0.1043930E+01  0.7957747E-01            NaN
         13   -1    0    0    0    0  0.00000000000E+00  0.00000000000E+00  0.74505805969E-08  0.10566000000E+00  0.10566000000E+00 0.  1.
     999900   -1    0    0    0    0 -0.00000000000E+00 -0.00000000000E+00 -0.74505805969E-08  0.93827000000E+00  0.93827000000E+00 0. -1.
     999902    2    1    2    0    0  0.14008646644E-01 -0.16248676663E-01  0.11060812173E-01  0.10197928245E+01  0.10195071367E+01 0.  0.
     999903    2    3    3    0    0 -0.49652619740E-01 -0.84390808941E-01 -0.83142417047E-01  0.12986566153E+00  0.19111181346E-01 0.  0.
         14    1    1    2    0    0 -0.14008646644E-01  0.16248676663E-01 -0.11060812173E-01  0.24137175478E-01  0.00000000000E+00 0. -1.
     999901    1    3    3    0    0  0.63661266384E-01  0.68142132278E-01  0.94203229220E-01  0.88992716299E+00  0.88000000000E+00 0.  1.
        -11    1    4    4    0    0 -0.30835901347E-01 -0.57466047963E-01 -0.43568918170E-01  0.78432845365E-01  0.51100000000E-03 0.  1.
         11    1    4    4    0    0 -0.18816718392E-01 -0.26924760978E-01 -0.39573498877E-01  0.51432816169E-01  0.51100000000E-03 0. -1.
</event>
<event>
 8    1  0.1128641E+005  0.1043930E+01  0.7957747E-01            NaN
         13   -1    0    0    0    0  0.00000000000E+00  0.00000000000E+00  0.74505805969E-08  0.10566000000E+00  0.10566000000E+00 0.  1.
     999900   -1    0    0    0    0 -0.00000000000E+00 -0.00000000000E+00 -0.74505805969E-08  0.93827000000E+00  0.93827000000E+00 0.  1.
     999902    2    1    2    0    0  0.60143311299E-02  0.73158136947E-02 -0.25536216818E-01  0.10166941472E+01  0.10163292760E+01 0.  0.
     999903    2    3    3    0    0 -0.12256147414E+00 -0.24293494988E-01 -0.30668053622E-02  0.12650553765E+00  0.19564174394E-01 0.  0.
         14    1    1    2    0    0 -0.60143311299E-02 -0.73158136947E-02  0.25536216818E-01  0.27235852811E-01  0.00000000000E+00 0.  1.
     999901    1    3    3    0    0  0.12857580527E+00  0.31609308682E-01 -0.22469411456E-01  0.89018860954E+00  0.88000000000E+00 0. -1.
        -11    1    4    4    0    0 -0.59236999198E-01 -0.21487491743E-01 -0.35385689012E-02  0.63115108859E-01  0.51100000000E-03 0. -1.
         11    1    4    4    0    0 -0.63324474942E-01 -0.28060032441E-02  0.47176353905E-03  0.63390428795E-01  0.51100000000E-03 0.  1.
</event>
<event>
 8    1  0.1128641E+005  0.1043930E+01  0.7957747E-01            NaN
         13   -1    0    0    0    0  0.00000000000E+00  0.00000000000E+00  0.74505805969E-08  0.10566000000E+00  0.10566000000E+00 0.  1.
     999900   -1    0    0    0    0 -0.00000000000E+00 -0.00000000000E+00 -0.74505805969E-08  0.93827000000E+00  0.93827000000E+00 0.  1.
     999902    2    1    2    0    0  0.40202440500E-02  0.23571950043E-01 -0.50380327948E-02  0.10194927136E+01  0.10191997901E+01 0.  0.
     999903    2    3    3    0    0  0.94796964710E-01 -0.33872884084E-01 -0.78906164647E-01  0.12988784466E+00  0.22601605615E-01 0.  0.
         14    1    1    2    0    0 -0.40202440500E-02 -0.23571950043E-01  0.50380327948E-02  0.24437286377E-01  0.00000000000E+00 0. -1.
     999901    1    3    3    0    0 -0.90776720660E-01  0.57444834127E-01  0.73868131852E-01  0.88960486896E+00  0.88000000000E+00 0. -1.
        -11    1    4    4    0    0  0.16496264865E-01 -0.91584615899E-02 -0.52728885221E-02  0.19597669442E-01  0.51100000000E-03 0. -1.
         11    1    4    4    0    0  0.78300699845E-01 -0.24714422494E-01 -0.73633276125E-01  0.11029017522E+00  0.51100000000E-03 0.  1.
</event>
<event>
 8    1  0.1128641E+005  0.1043930E+01  0.7957747E-01            NaN
         13   -1    0    0    0    0  0.00000000000E+00  0.00000000000E+00  0.74505805969E-08  0.10566000000E+00  0.10566000000E+00 0.  1.
     999900   -1    0    0    0    0 -0.00000000000E+00 -0.00000000000E+00 -0.74505805969E-08  0.93827000000E+00  0.93827000000E+00 0. -1.
     999902    2    1    2    0    0 -0.23179346297E-01 -0.10859256557E-01  0.99177983608E-02  0.10164788020E+01  0.10161080585E+01 0.  0.
     999903    2    3    3    0    0  0.65890680728E-01 -0.16754187792E-01 -0.10318671180E+00  0.12476088127E+00  0.17189979244E-01 0.  0.
         14    1    1    2    0    0  0.23179346297E-01  0.10859256557E-01 -0.99177983608E-02  0.27451198007E-01  0.00000000000E+00 0. -1.
     999901    1    3    3    0    0 -0.89070027025E-01  0.58949312353E-02  0.11310451016E+00  0.89171792073E+00  0.88000000000E+00 0. -1.
        -11    1    4    4    0    0  0.26287525128E-01 -0.15347681046E-01 -0.42473713042E-01  0.52257656964E-01  0.51100000000E-03 0. -1.
         11    1    4    4    0    0  0.39603155600E-01 -0.14065067464E-02 -0.60712998759E-01  0.72503224301E-01  0.51100000000E-03 0.  1.
</event>
<event>
 8    1  0.1128641E+005  0.1043930E+01  0.7957747E-01            NaN
         13   -1    0    0    0    0  0.00000000000E+00  0.00000000000E+00  0.74505805969E-08  0.10566000000E+00  0.10566000000E+00 0.  1.
     999900   -1    0    0    0    0 -0.00000000000E+00 -0.00000000000E+00 -0.74505805969E-08  0.93827000000E+00  0.93827000000E+00 0. -1.
     999902    2    1    2    0    0 -0.30950461854E-01  0.21129787635E-02  0.12632185811E-01  0.10104342109E+01  0.10098788673E+01 0.  0.
     999903    2    3    3    0    0 -0.85627403634E-01  0.16205472538E-01 -0.85087750616E-01  0.12322659580E+00  0.18713605040E-01 0.  0.
         14    1    1    2    0    0  0.30950461854E-01 -0.21129787635E-02 -0.12632185811E-01  0.33495789088E-01  0.00000000000E+00 0. -1.
     999901    1    3    3    0    0  0.54676941780E-01 -0.14092493774E-01  0.97719936427E-01  0.88720761512E+00  0.88000000000E+00 0. -1.
        -11    1    4    4    0    0 -0.47593265070E-01  0.13008719654E-01 -0.59381817103E-01  0.77206262638E-01  0.51100000000E-03 0. -1.
         11    1    4    4    0    0 -0.38034138564E-01  0.31967528841E-02 -0.25705933512E-01  0.46020333159E-01  0.51100000000E-03 0.  1.
</event>
<event>
 8    1  0.1128641E+005  0.1043930E+01  0.7957747E-01            NaN
         13   -1    0    0    0    0  0.00000000000E+00  0.00000000000E+00  0.74505805969E-08  0.10566000000E+00  0.10566000000E+00 0. -1.
     999900   -1    0    0    0    0 -0.00000000000E+00 -0.00000000000E+00 -0.74505805969E-08  0.93827000000E+00  0.93827000000E+00 0. -1.
     999902    2    1    2    0    0 -0.19935023657E-01 -0.10320925288E-02  0.11325373511E-01  0.10209793035E+01  0.10207213154E+01 0.  0.
     999903    2    3    3    0    0  0.63457260789E-01  0.30937684675E-01 -0.10564199669E+00  0.12875864391E+00  0.20846885560E-01 0.  0.
         14    1    1    2    0    0  0.19935023657E-01  0.10320925288E-02 -0.11325373511E-01  0.22950696468E-01  0.00000000000E+00 0.  1.
     999901    1    3    3    0    0 -0.83392284446E-01 -0.31969777203E-01  0.11696737020E+00  0.89222065962E+00  0.88000000000E+00 0.  1.
        -11    1    4    4    0    0  0.46445586038E-02  0.10220796296E-01 -0.17104535778E-01  0.20466139517E-01  0.51100000000E-03 0.  1.
         11    1    4    4    0    0  0.58812702185E-01  0.20716888379E-01 -0.88537460912E-01  0.10829250440E+00  0.51100000000E-03 0. -1.
</event>
<event>
 8    1  0.1128641E+005  0.1043930E+01  0.7957747E-01            NaN
         13   -1    0    0    0    0  0.00000000000E+00  0.00000000000E+00  0.74505805969E-08  0.10566000000E+00  0.10566000000E+00 0.  1.
     999900   -1    0    0    0    0 -0.00000000000E+00 -0.00000000000E+00 -0.74505805969E-08  0.93827000000E+00  0.93827000000E+00 0.  1.
     999902    2    1    2    0    0 -0.18744463487E-01 -0.84483583168E-02  0.11339620596E-01  0.10204498666E+01  0.10201796967E+01 0.  0.
     999903    2    3    3    0    0 -0.10384521590E+00  0.78236573231E-01 -0.86439333039E-02  0.13188036574E+00  0.20320507582E-01 0.  0.
         14    1    1    2    0    0  0.18744463487E-01  0.84483583168E-02 -0.11339620596E-01  0.23480133410E-01  0.00000000000E+00 0. -1.
     999901    1    3    3    0    0  0.85100752411E-01 -0.86684931547E-01  0.19983553900E-01  0.88856950085E+00  0.88000000000E+00 0. -1.
        -11    1    4    4    0    0 -0.46359678814E-01  0.39050591426E-01 -0.13624705294E-01  0.62129399046E-01  0.51100000000E-03 0.  1.
         11    1    4    4    0    0 -0.57485537085E-01  0.39185981804E-01  0.49807719902E-02  0.69750966692E-01  0.51100000000E-03 0. -1.
</event>
<event>
 8    1  0.1128641E+005  0.1043930E+01  0.7957747E-01            NaN
         13   -1    0    0    0    0  0.00000000000E+00  0.00000000000E+00  0.74505805969E-08  0.10566000000E+00  0.10566000000E+00 0.  1.
     999900   -1    0    0    0    0 -0.00000000000E+00 -0.00000000000E+00 -0.74505805969E-08  0.93827000000E+00  0.93827000000E+00 0. -1.
     999902    2    1    2    0    0 -0.18963715032E-01  0.80337090349E-02  0.11778392902E-01  0.10202046231E+01  0.10199287130E+01 0.  0.
     999903    2    3    3    0    0 -0.40834531422E-01  0.12419896897E+00 -0.34831306889E-02  0.13216993105E+00  0.19076572650E-01 0.  0.
         14    1    1    2    0    0  0.18963715032E-01 -0.80337090349E-02 -0.11778392902E-01  0.23725376878E-01  0.00000000000E+00 0. -1.
     999901    1    3    3    0    0  0.21870816390E-01 -0.11616525993E+00  0.15261523591E-01  0.88803469207E+00  0.88000000000E+00 0. -1.
        -11    1    4    4    0    0 -0.26879027940E-01  0.82928415800E-01 -0.11295215247E-01  0.87905900249E-01  0.51100000000E-03 0. -1.
         11    1    4    4    0    0 -0.13955503482E-01  0.41270553170E-01  0.78120845584E-02  0.44264030799E-01  0.51100000000E-03 0.  1.
</event>
<event>
 8    1  0.1128641E+005  0.1043930E+01  0.7957747E-01            NaN
         13   -1    0    0    0    0  0.00000000000E+00  0.00000000000E+00  0.74505805969E-08  0.10566000000E+00  0.10566000000E+00 0.  1.
     999900   -1    0    0    0    0 -0.00000000000E+00 -0.00000000000E+00 -0.74505805969E-08  0.93827000000E+00  0.93827000000E+00 0. -1.
     999902    2    1    2    0    0 -0.19641008257E-01 -0.86514279954E-02  0.11365090451E-01  0.10196445786E+01  0.10193553281E+01 0.  0.
     999903    2    3    3    0    0  0.50323504889E-01 -0.92978184889E-01 -0.70841584557E-01  0.12904704186E+00  0.21382490518E-01 0.  0.
         14    1    1    2    0    0  0.19641008257E-01  0.86514279954E-02 -0.11365090451E-01  0.24285421402E-01  0.00000000000E+00 0. -1.
     999901    1    3    3    0    0 -0.69964513146E-01  0.84326756893E-01  0.82206675008E-01  0.89059753674E+00  0.88000000000E+00 0.  1.
        -11    1    4    4    0    0  0.12140065103E-02 -0.23827878499E-03 -0.49647591852E-02  0.51420368876E-02  0.51100000000E-03 0.  1.
         11    1    4    4    0    0  0.49109498379E-01 -0.92739906104E-01 -0.65876825372E-01  0.12390500497E+00  0.51100000000E-03 0. -1.
</event>
<event>
 8    1  0.1128641E+005  0.1043930E+01  0.7957747E-01            NaN
         13   -1    0    0    0    0  0.00000000000E+00  0.00000000000E+00  0.74505805969E-08  0.10566000000E+00  0.10566000000E+00 0. -1.
     999900   -1    0    0    0    0 -0.00000000000E+00 -0.00000000000E+00 -0.74505805969E-08  0.93827000000E+00  0.93827000000E+00 0.  1.
     999902    2    1    2    0    0  0.85289630896E-02 -0.14642798285E-01  0.13612729305E-01  0.10221938285E+01  0.10219627008E+01 0.  0.
     999903    2    3    3    0    0  0.86039143046E-01  0.97460966381E-01 -0.40980142312E-02  0.13152624039E+00  0.19518813649E-01 0.  0.
         14    1    1    2    0    0 -0.85289630896E-02  0.14642798285E-01 -0.13612729305E-01  0.21736171515E-01  0.00000000000E+00 0. -1.
     999901    1    3    3    0    0 -0.77510179956E-01 -0.11210376467E+00  0.17710743536E-01  0.89066758810E+00  0.88000000000E+00 0. -1.
        -11    1    4    4    0    0  0.72919268846E-01  0.72045402902E-01 -0.71471907007E-02  0.10275749756E+00  0.51100000000E-03 0.  1.
         11    1    4    4    0    0  0.13119874201E-01  0.25415563479E-01  0.30491764696E-02  0.28768742832E-01  0.51100000000E-03 0. -1.
</event>
<event>
 8    1  0.1128641E+005  0.1043930E+01  0.7957747E-01            NaN
         13   -1    0    0    0    0  0.00000000000E+00  0.00000000000E+00  0.74505805969E-08  0.10566000000E+00  0.10566000000E+00 0.  1.
     999900   -1    0    0    0    0 -0.00000000000E+00 -0.00000000000E+00 -0.74505805969E-08  0.93827000000E+00  0.93827000000E+00 0.  1.
     999902    2    1    2    0    0  0.54356011663E-02 -0.20743021027E-01 -0.99914002999E-02  0.10202731456E+01  0.10199988455E+01 0.  0.
     999903    2    3    3    0    0 -0.67613724647E-01 -0.52579669007E-01 -0.99161326938E-01  0.13218471981E+00  0.17423950134E-01 0.  0.
         14    1    1    2    0    0 -0.54356011663E-02  0.20743021027E-01  0.99914002999E-02  0.23656854425E-01  0.00000000000E+00 0.  1.
     999901    1    3    3    0    0  0.73049325814E-01  0.31836647980E-01  0.89169926638E-01  0.88808842576E+00  0.88000000000E+00 0. -1.
        -11    1    4    4    0    0 -0.53216390848E-01 -0.43273628958E-01 -0.67829880614E-01  0.96466289672E-01  0.51100000000E-03 0.  1.
         11    1    4    4    0    0 -0.14397333800E-01 -0.93060400490E-02 -0.31331446324E-01  0.35718430140E-01  0.51100000000E-03 0. -1.
</event>
<event>
 8    1  0.1128641E+005  0.1043930E+01  0.7957747E-01            NaN
         13   -1    0    0    0    0  0.00000000000E+00  0.00000000000E+00  0.74505805969E-08  0.10566000000E+00  0.10566000000E+00 0. -1.
     999900   -1    0    0    0    0 -0.00000000000E+00 -0.00000000000E+00 -0.74505805969E-08  0.93827000000E+00  0.93827000000E+00 0.  1.
     999902    2    1    2    0    0  0.12309538104E-01  0.15166988810E-01 -0.11874125699E-01  0.10210704913E+01  0.10208145723E+01 0.  0.
     999903    2    3    3    0    0  0.50094773187E-01 -0.76808620396E-01  0.89657541688E-01  0.12966939404E+00  0.19147493324E-01 0.  0.
         14    1    1    2    0    0 -0.12309538104E-01 -0.15166988810E-01  0.11874125699E-01  0.22859508722E-01  0.00000000000E+00 0. -1.
     999901    1    3    3    0    0 -0.37785235083E-01  0.91975609206E-01 -0.10153166739E+00  0.89140109724E+00  0.88000000000E+00 0.  1.
        -11    1    4    4    0    0  0.24720622842E-01 -0.53739625630E-01  0.52351120215E-01  0.78993401404E-01  0.51100000000E-03 0. -1.
         11    1    4    4    0    0  0.25374150345E-01 -0.23068994766E-01  0.37306421473E-01  0.50675992634E-01  0.51100000000E-03 0.  1.
</event>
<event>
 8    1  0.1128641E+005  0.1043930E+01  0.7957747E-01            NaN
         13   -1    0    0    0    0  0.00000000000E+00  0.00000000000E+00  0.74505805969E-08  0.10566000000E+00  0.10566000000E+00 0.  1.
     999900   -1    0    0    0    0 -0.00000000000E+00 -0.00000000000E+00 -0.74505805969E-08  0.93827000000E+00  0.93827000000E+00 0.  1.
     999902    2    1    2    0    0  0.18714980540E-01 -0.14825220257E-01 -0.43538670503E-02  0.10196608053E+01  0.10193719459E+01 0.  0.
     999903    2    3    3    0    0  0.94923269330E-02  0.11598244041E+00 -0.51032064416E-01  0.12872054046E+00  0.20559065730E-01 0.  0.
         14    1    1    2    0    0 -0.18714980540E-01  0.14825220257E-01  0.43538670503E-02  0.24269194684E-01  0.00000000000E+00 0.  1.
     999901    1    3    3    0    0  0.92226536072E-02 -0.13080766067E+00  0.46678197366E-01  0.89094026485E+00  0.88000000000E+00 0. -1.
        -11    1    4    4    0    0 -0.12547112685E-02  0.51377374945E-01 -0.31892615586E-01  0.60486436550E-01  0.51100000000E-03 0.  1.
         11    1    4    4    0    0  0.10747038201E-01  0.64605065467E-01 -0.19139448829E-01  0.68234103912E-01  0.51100000000E-03 0. -1.
</event>
<event>
 8    1  0.1128641E+005  0.1043930E+01  0.7957747E-01            NaN
         13   -1    0    0    0    0  0.00000000000E+00  0.00000000000E+00  0.74505805969E-08  0.10566000000E+00  0.10566000000E+00 0. -1.
     999900   -1    0    0    0    0 -0.00000000000E+00 -0.00000000000E+00 -0.74505805969E-08  0.93827000000E+00  0.93827000000E+00 0. -1.
     999902    2    1    2    0    0  0.14194087394E-01 -0.36678228706E-02 -0.19737385053E-01  0.10193436337E+01  0.10190470814E+01 0.  0.
     999903    2    3    3    0    0  0.29579057690E-01  0.12403753909E+00  0.10090528538E-01  0.12949248811E+00  0.20155742467E-01 0.  0.
         14    1    1    2    0    0 -0.14194087394E-01  0.36678228706E-02  0.19737385053E-01  0.24586366350E-01  0.00000000000E+00 0. -1.
     999901    1    3    3    0    0 -0.15384970296E-01 -0.12770536196E+00 -0.29827913591E-01  0.88985114554E+00  0.88000000000E+00 0. -1.
        -11    1    4    4    0    0  0.15517324523E-01  0.51875633827E-01 -0.52002211854E-02  0.54398273564E-01  0.51100000000E-03 0.  1.
         11    1    4    4    0    0  0.14061733167E-01  0.72161905262E-01  0.15290749723E-01  0.75094214550E-01  0.51100000000E-03 0. -1.
</event>
<event>
 8    1  0.1128641E+005  0.1043930E+01  0.7957747E-01            NaN
         13   -1    0    0    0    0  0.00000000000E+00  0.00000000000E+00  0.74505805969E-08  0.10566000000E+00  0.10566000000E+00 0.  1.
     999900   -1    0    0    0    0 -0.00000000000E+00 -0.00000000000E+00 -0.74505805969E-08  0.93827000000E+00  0.93827000000E+00 0. -1.
     999902    2    1    2    0    0 -0.22032889159E-01 -0.18841554372E-02 -0.97805442569E-02  0.10197503124E+01  0.10194636052E+01 0.  0.
     999903    2    3    3    0    0 -0.11870656566E-01  0.79400280491E-02  0.12706821476E+00  0.12906104650E+00  0.17506169974E-01 0.  0.
         14    1    1    2    0    0  0.22032889159E-01  0.18841554372E-02  0.97805442569E-02  0.24179687599E-01  0.00000000000E+00 0.  1.
     999901    1    3    3    0    0 -0.10162232593E-01 -0.98241834864E-02 -0.13684875902E+00  0.89068926590E+00  0.88000000000E+00 0. -1.
        -11    1    4    4    0    0 -0.12372944601E-01 -0.19912694964E-02  0.76581047794E-01  0.77601371860E-01  0.51100000000E-03 0. -1.
         11    1    4    4    0    0  0.50228803556E-03  0.99312975455E-02  0.50487166969E-01  0.51459674637E-01  0.51100000000E-03 0.  1.
</event>
<event>
 8    1  0.1128641E+005  0.1043930E+01  0.7957747E-01            NaN
         13   -1    0    0    0    0  0.00000000000E+00  0.00000000000E+00  0.74505805969E-08  0.10566000000E+00  0.10566000000E+00 0. -1.
     999900   -1    0    0    0    0 -0.00000000000E+00 -0.00000000000E+00 -0.74505805969E-08  0.93827000000E+00  0.93827000000E+00 0. -1.
     999902    2    1    2    0    0 -0.18944579358E-01 -0.15150276880E-01 -0.89748060735E-03  0.10196558687E+01  0.10193668904E+01 0.  0.
     999903    2    3    3    0    0 -0.32498306511E-01 -0.10332910755E+00 -0.73092454925E-01  0.13220371566E+00  0.20056696532E-01 0.  0.
         14    1    1    2    0    0  0.18944579358E-01  0.15150276880E-01  0.89748060735E-03  0.24274131252E-01  0.00000000000E+00 0. -1.
     999901    1    3    3    0    0  0.13553727153E-01  0.88178830668E-01  0.72194974318E-01  0.88745215308E+00  0.88000000000E+00 0.  1.
        -11    1    4    4    0    0 -0.14504278369E-01 -0.75932000249E-01 -0.49121739535E-01  0.91592844528E-01  0.51100000000E-03 0.  1.
         11    1    4    4    0    0 -0.17994028142E-01 -0.27397107299E-01 -0.23970715390E-01  0.40610871136E-01  0.51100000000E-03 0. -1.
</event>
<event>
 8    1  0.1128641E+005  0.1043930E+01  0.7957747E-01            NaN
         13   -1    0    0    0    0  0.00000000000E+00  0.00000000000E+00  0.74505805969E-08  0.10566000000E+00  0.10566000000E+00 0.  1.
     999900   -1    0    0    0    0 -0.00000000000E+00 -0.00000000000E+00 -0.74505805969E-08  0.93827000000E+00  0.93827000000E+00 0. -1.
     999902    2    1    2    0    0 -0.72582043063E-02 -0.16359204908E-01  0.15639216090E-01  0.10201625812E+01  0.10198856808E+01 0.  0.
     999903    2    3    3    0    0 -0.35254736642E-01  0.68888898460E-01  0.10380889747E+00  0.13121661118E+00  0.21282271241E-01 0.  0.
         14    1    1    2    0    0  0.72582043063E-02  0.16359204908E-01 -0.15639216090E-01  0.23767418768E-01  0.00000000000E+00 0.  1.
     999901    1    3    3    0    0  0.27996532336E-01 -0.85248103368E-01 -0.88169681382E-01  0.88894597005E+00  0.88000000000E+00 0. -1.
        -11    1    4    4    0    0 -0.18404034325E-01  0.45808137262E-01  0.80047505911E-01  0.94047638154E-01  0.51100000000E-03 0. -1.
         11    1    4    4    0    0 -0.16850702318E-01  0.23080761199E-01  0.23761391562E-01  0.37168973029E-01  0.51100000000E-03 0.  1.
</event>
<event>
 8    1  0.1128641E+005  0.1043930E+01  0.7957747E-01            NaN
         13   -1    0    0    0    0  0.00000000000E+00  0.00000000000E+00  0.74505805969E-08  0.10566000000E+00  0.10566000000E+00 0.  1.
     999900   -1    0    0    0    0 -0.00000000000E+00 -0.00000000000E+00 -0.74505805969E-08  0.93827000000E+00  0.93827000000E+00 0.  1.
     999902    2    1    2    0    0  0.12995431940E-01  0.12650150614E-01  0.17297648110E-01  0.10188677537E+01  0.10185594648E+01 0.  0.
     999903    2    3    3    0    0 -0.81665514649E-01 -0.37522176269E-01  0.90759541406E-01  0.12933157847E+00  0.20302532801E-01 0.  0.
         14    1    1    2    0    0 -0.12995431940E-01 -0.12650150614E-01 -0.17297648110E-01  0.25062246348E-01  0.00000000000E+00 0. -1.
     999901    1    3    3    0    0  0.94660946589E-01  0.50172326883E-01 -0.73461893296E-01  0.88953617518E+00  0.88000000000E+00 0.  1.
        -11    1    4    4    0    0 -0.16434084721E-01  0.66597626882E-03  0.14057318456E-01  0.21642365586E-01  0.51100000000E-03 0. -1.
         11    1    4    4    0    0 -0.65231429928E-01 -0.38188152538E-01  0.76702222950E-01  0.10768921288E+00  0.51100000000E-03 0.  1.
</event>
<event>
 8    1  0.1128641E+005  0.1043930E+01  0.7957747E-01            NaN
         13   -1    0    0    0    0  0.00000000000E+00  0.00000000000E+00  0.74505805969E-08  0.10566000000E+00  0.10566000000E+00 0.  1.
     999900   -1    0    0    0    0 -0.00000000000E+00 -0.00000000000E+00 -0.74505805969E-08  0.93827000000E+00  0.93827000000E+00 0. -1.
     999902    2    1    2    0    0 -0.23266248594E-01  0.17208073414E-02 -0.47310581347E-02  0.10201253279E+01  0.10198475485E+01 0.  0.
     999903    2    3    3    0    0  0.86038127167E-01  0.30123287902E-01  0.87549112697E-01  0.12812208948E+00  0.20986921615E-01 0.  0.
         14    1    1    2    0    0  0.23266248594E-01 -0.17208073414E-02  0.47310581347E-02  0.23804672076E-01  0.00000000000E+00 0.  1.
     999901    1    3    3    0    0 -0.10930437576E+00 -0.28402480561E-01 -0.92280170831E-01  0.89200323844E+00  0.88000000000E+00 0. -1.
        -11    1    4    4    0    0  0.59741715776E-01  0.27565823675E-01  0.71671823915E-01  0.97293672471E-01  0.51100000000E-03 0. -1.
         11    1    4    4    0    0  0.26296411391E-01  0.25574642278E-02  0.15877288782E-01  0.30828417011E-01  0.51100000000E-03 0.  1.
</event>
<event>
 8    1  0.1128641E+005  0.1043930E+01  0.7957747E-01            NaN
         13   -1    0    0    0    0  0.00000000000E+00  0.00000000000E+00  0.74505805969E-08  0.10566000000E+00  0.10566000000E+00 0.  1.
     999900   -1    0    0    0    0 -0.00000000000E+00 -0.00000000000E+00 -0.74505805969E-08  0.93827000000E+00  0.93827000000E+00 0.  1.
     999902    2    1    2    0    0 -0.14307762690E-01  0.18170310067E-01 -0.35495030727E-02  0.10205318972E+01  0.10202636336E+01 0.  0.
     999903    2    3    3    0    0 -0.10673016196E+00  0.63453557582E-02 -0.75464498235E-01  0.13269548439E+00  0.21945616240E-01 0.  0.
         14    1    1    2    0    0  0.14307762690E-01 -0.18170310067E-01  0.35495030727E-02  0.23398102769E-01  0.00000000000E+00 0. -1.
     999901    1    3    3    0    0  0.92422399272E-01  0.11824954309E-01  0.71914995162E-01  0.88783641284E+00  0.88000000000E+00 0. -1.
        -11    1    4    4    0    0 -0.42444572596E-01 -0.77931274617E-02 -0.26324418074E-01  0.50552059171E-01  0.51100000000E-03 0. -1.
         11    1    4    4    0    0 -0.64285589366E-01  0.14138483220E-01 -0.49140080161E-01  0.82143425222E-01  0.51100000000E-03 0.  1.
</event>
<event>
 8    1  0.1128641E+005  0.1043930E+01  0.7957747E-01            NaN
         13   -1    0    0    0    0  0.00000000000E+00  0.00000000000E+00  0.74505805969E-08  0.10566000000E+00  0.10566000000E+00 0.  1.
     999900   -1    0    0    0    0 -0.00000000000E+00 -0.00000000000E+00 -0.74505805969E-08  0.93827000000E+00  0.93827000000E+00 0.  1.
     999902    2    1    2    0    0 -0.17495275511E-02 -0.16562047822E-01 -0.16116133333E-01  0.10207547540E+01  0.10204916343E+01 0.  0.
     999903    2    3    3    0    0  0.10951710229E+00  0.66224323371E-01 -0.86089006679E-02  0.12986182847E+00  0.20256471134E-01 0.  0.
         14    1    1    2    0    0  0.17495275511E-02  0.16562047822E-01  0.16116133333E-01  0.23175246025E-01  0.00000000000E+00 0.  1.
     999901    1    3    3    0    0 -0.11126662984E+00 -0.82786371194E-01 -0.75072326654E-02  0.89089292550E+00  0.88000000000E+00 0. -1.
        -11    1    4    4    0    0  0.36780558545E-01  0.11990701297E-01 -0.54932321020E-02  0.39077143248E-01  0.51100000000E-03 0.  1.
         11    1    4    4    0    0  0.72736543745E-01  0.54233622074E-01 -0.31156685659E-02  0.90784685222E-01  0.51100000000E-03 0. -1.
</event>
<event>
 8    1  0.1128641E+005  0.1043930E+01  0.7957747E-01            NaN
         13   -1    0    0    0    0  0.00000000000E+00  0.00000000000E+00  0.74505805969E-08  0.10566000000E+00  0.10566000000E+00 0.  1.
     999900   -1    0    0    0    0 -0.00000000000E+00 -0.00000000000E+00 -0.74505805969E-08  0.93827000000E+00  0.93827000000E+00 0.  1.
     999902    2    1    2    0    0  0.68301000461E-02  0.18453718045E-01  0.12240188855E-01  0.10207564763E+01  0.10204933962E+01 0.  0.
     999903    2    3    3    0    0  0.70867678476E-02  0.51769124467E-01 -0.11799706800E+00  0.13054766641E+00  0.19726140553E-01 0.  0.
         14    1    1    2    0    0 -0.68301000461E-02 -0.18453718045E-01 -0.12240188855E-01  0.23173523676E-01  0.00000000000E+00 0. -1.
     999901    1    3    3    0    0 -0.25666780153E-03 -0.33315406422E-01  0.13023725685E+00  0.89020880992E+00  0.88000000000E+00 0. -1.
        -11    1    4    4    0    0  0.12641474698E-01  0.30766254009E-01 -0.82125590699E-01  0.88607240319E-01  0.51100000000E-03 0.  1.
         11    1    4    4    0    0 -0.55547068508E-02  0.21002870458E-01 -0.35871477300E-01  0.41940426087E-01  0.51100000000E-03 0. -1.
</event>
<event>
 8    1  0.1128641E+005  0.1043930E+01  0.7957747E-01            NaN
         13   -1    0    0    0    0  0.00000000000E+00  0.00000000000E+00  0.74505805969E-08  0.10566000000E+00  0.10566000000E+00 0. -1.
     999900   -1    0    0    0    0 -0.00000000000E+00 -0.00000000000E+00 -0.74505805969E-08  0.93827000000E+00  0.93827000000E+00 0. -1.
     999902    2    1    2    0    0 -0.24104388548E-02  0.49175972961E-02 -0.22186781590E-01  0.10210772922E+01  0.10208215272E+01 0.  0.
     999903    2    3    3    0    0  0.40958870871E-01  0.11812969674E-01 -0.12537605783E+00  0.13396034951E+00  0.20224836429E-01 0.  0.
         14    1    1    2    0    0  0.24104388548E-02 -0.49175972961E-02  0.22186781590E-01  0.22852707848E-01  0.00000000000E+00 0. -1.
     999901    1    3    3    0    0 -0.43369309726E-01 -0.68953723776E-02  0.10318927624E+00  0.88711694264E+00  0.88000000000E+00 0.  1.
        -11    1    4    4    0    0  0.23021066738E-01 -0.23197122888E-02 -0.48083820991E-01  0.53363522569E-01  0.51100000000E-03 0.  1.
         11    1    4    4    0    0  0.17937804133E-01  0.14132681963E-01 -0.77292236841E-01  0.80596826944E-01  0.51100000000E-03 0. -1.
</event>
<event>
 8    1  0.1128641E+005  0.1043930E+01  0.7957747E-01            NaN
         13   -1    0    0    0    0  0.00000000000E+00  0.00000000000E+00  0.74505805969E-08  0.10566000000E+00  0.10566000000E+00 0.  1.
     999900   -1    0    0    0    0 -0.00000000000E+00 -0.00000000000E+00 -0.74505805969E-08  0.93827000000E+00  0.93827000000E+00 0. -1.
     999902    2    1    2    0    0 -0.51205943461E-02 -0.23082606187E-01  0.61407756660E-03  0.10202782710E+01  0.10200040911E+01 0.  0.
     999903    2    3    3    0    0 -0.12685925441E+00  0.21448535750E-01 -0.11465756712E-01  0.13070014267E+00  0.19943760929E-01 0.  0.
         14    1    1    2    0    0  0.51205943461E-02  0.23082606187E-01 -0.61407756660E-03  0.23651729030E-01  0.00000000000E+00 0. -1.
     999901    1    3    3    0    0  0.12173866007E+00 -0.44531141937E-01  0.12079834279E-01  0.88957812830E+00  0.88000000000E+00 0.  1.
        -11    1    4    4    0    0 -0.47778504233E-01  0.95376709490E-02 -0.13968628699E-01  0.50686648563E-01  0.51100000000E-03 0.  1.
         11    1    4    4    0    0 -0.79080750182E-01  0.11910864801E-01  0.25028719872E-02  0.80013494105E-01  0.51100000000E-03 0. -1.
</event>
<event>
 8    1  0.1128641E+005  0.1043930E+01  0.7957747E-01            NaN
         13   -1    0    0    0    0  0.00000000000E+00  0.00000000000E+00  0.74505805969E-08  0.10566000000E+00  0.10566000000E+00 0. -1.
     999900   -1    0    0    0    0 -0.00000000000E+00 -0.00000000000E+00 -0.74505805969E-08  0.93827000000E+00  0.93827000000E+00 0.  1.
     999902    2    1    2    0    0 -0.65390860445E-02  0.18564563943E-01  0.13667491262E-01  0.10199674668E+01  0.10196859469E+01 0.  0.
     999903    2    3    3    0    0 -0.10886846819E+00 -0.34404774610E-01 -0.56869912661E-01  0.12965708347E+00  0.23253826486E-01 0.  0.
         14    1    1    2    0    0  0.65390860445E-02 -0.18564563943E-01 -0.13667491262E-01  0.23962533215E-01  0.00000000000E+00 0.  1.
     999901    1    3    3    0    0  0.10232938215E+00  0.52969338553E-01  0.70537403923E-01  0.89031038331E+00  0.88000000000E+00 0. -1.
        -11    1    4    4    0    0 -0.50365538080E-01 -0.63622995350E-02 -0.32877349319E-01  0.60484274822E-01  0.51100000000E-03 0.  1.
         11    1    4    4    0    0 -0.58502930113E-01 -0.28042475075E-01 -0.23992563343E-01  0.69172808653E-01  0.51100000000E-03 0. -1.
</event>
<event>
 8    1  0.1128641E+005  0.1043930E+01  0.7957747E-01            NaN
         13   -1    0    0    0    0  0.00000000000E+00  0.00000000000E+00  0.74505805969E-08  0.10566000000E+00  0.10566000000E+00 0. -1.
     999900   -1    0    0    0    0 -0.00000000000E+00 -0.00000000000E+00 -0.74505805969E-08  0.93827000000E+00  0.93827000000E+00 0.  1.
     999902    2    1    2    0    0  0.11939963006E-01  0.73253852940E-03  0.18357385640E-01  0.10220189768E+01  0.10217840751E+01 0.  0.
     999903    2    3    3    0    0  0.10485515762E+00 -0.79134264658E-01 -0.88524078746E-02  0.13311385674E+00  0.19598413447E-01 0.  0.
         14    1    1    2    0    0 -0.11939963006E-01 -0.73253852940E-03 -0.18357385640E-01  0.21911023180E-01  0.00000000000E+00 0.  1.
     999901    1    3    3    0    0 -0.92915194609E-01  0.79866803187E-01  0.27209793514E-01  0.88890512008E+00  0.88000000000E+00 0. -1.
        -11    1    4    4    0    0  0.46059220493E-01 -0.45469465206E-01 -0.90955434990E-02  0.65359881358E-01  0.51100000000E-03 0. -1.
         11    1    4    4    0    0  0.58795937122E-01 -0.33664799452E-01  0.24313562437E-03  0.67753975382E-01  0.51100000000E-03 0.  1.
</event>
<event>
 8    1  0.1128641E+005  0.1043930E+01  0.7957747E-01            NaN
         13   -1    0    0    0    0  0.00000000000E+00  0.00000000000E+00  0.74505805969E-08  0.10566000000E+00  0.10566000000E+00 0. -1.
     999900   -1    0    0    0    0 -0.00000000000E+00 -0.00000000000E+00 -0.74505805969E-08  0.93827000000E+00  0.93827000000E+00 0. -1.
     999902    2    1    2    0    0  0.79520800735E-02  0.15979993145E-01  0.15275723467E-01  0.10204365225E+01  0.10201660418E+01 0.  0.
     999903    2    3    3    0    0  0.22093343392E-01  0.12330558601E+00  0.41264585579E-01  0.13342232916E+00  0.20158584563E-01 0.  0.
         14    1    1    2    0    0 -0.79520800735E-02 -0.15979993145E-01 -0.15275723467E-01  0.23493477517E-01  0.00000000000E+00 0.  1.
     999901    1    3    3    0    0 -0.14141263318E-01 -0.10732559286E+00 -0.25988862113E-01  0.88701419333E+00  0.88000000000E+00 0. -1.
        -11    1    4    4    0    0  0.14001748771E-01  0.10029177805E+00  0.25684530908E-01  0.10447222579E+00  0.51100000000E-03 0.  1.
         11    1    4    4    0    0  0.80915946203E-02  0.23013807957E-01  0.15580054671E-01  0.28950103363E-01  0.51100000000E-03 0. -1.
</event>
<event>
 8    1  0.1128641E+005  0.1043930E+01  0.7957747E-01            NaN
         13   -1    0    0    0    0  0.00000000000E+00  0.00000000000E+00  0.74505805969E-08  0.10566000000E+00  0.10566000000E+00 0. -1.
     999900   -1    0    0    0    0 -0.00000000000E+00 -0.00000000000E+00 -0.74505805969E-08  0.93827000000E+00  0.93827000000E+00 0. -1.
     999902    2    1    2    0    0 -0.20763807184E-01 -0.94304971154E-02  0.54957036107E-03  0.10211183365E+01  0.10208634997E+01 0.  0.
     999903    2    3    3    0    0 -0.14251311472E-01 -0.14022068449E-02 -0.12894335335E+00  0.13158178112E+00  0.21961572938E-01 0.  0.
         14    1    1    2    0    0  0.20763807184E-01  0.94304971154E-02 -0.54957036107E-03  0.22811663512E-01  0.00000000000E+00 0.  1.
     999901    1    3    3    0    0 -0.65124957123E-02 -0.80282902705E-02  0.12949292371E+00  0.88953655537E+00  0.88000000000E+00 0.  1.
        -11    1    4    4    0    0 -0.18448022098E-01  0.29125232997E-02 -0.74614022485E-01  0.76917655864E-01  0.51100000000E-03 0. -1.
         11    1    4    4    0    0  0.41967106266E-02 -0.43147301446E-02 -0.54329330868E-01  0.54664125255E-01  0.51100000000E-03 0.  1.
</event>
<event>
 8    1  0.1128641E+005  0.1043930E+01  0.7957747E-01            NaN
         13   -1    0    0    0    0  0.00000000000E+00  0.00000000000E+00  0.74505805969E-08  0.10566000000E+00  0.10566000000E+00 0.  1.
     999900   -1    0    0    0    0 -0.00000000000E+00 -0.00000000000E+00 -0.74505805969E-08  0.93827000000E+00  0.93827000000E+00 0. -1.
     999902    2    1    2    0    0  0.29918023049E-02  0.24126028084E-01  0.23944891142E-02  0.10195015393E+01  0.10192088299E+01 0.  0.
     999903    2    3    3    0    0 -0.78972841660E-01 -0.31151739076E-01  0.94897338776E-01  0.12914733364E+00  0.21596025408E-01 0.  0.
         14    1    1    2    0    0 -0.29918023049E-02 -0.24126028084E-01 -0.23944891142E-02  0.24428460661E-01  0.00000000000E+00 0. -1.
     999901    1    3    3    0    0  0.81964643964E-01  0.55277767160E-01 -0.92502849662E-01  0.89035420569E+00  0.88000000000E+00 0. -1.
        -11    1    4    4    0    0 -0.55066430137E-01 -0.20790322220E-01  0.49987821587E-01  0.77224300929E-01  0.51100000000E-03 0.  1.
         11    1    4    4    0    0 -0.23906411523E-01 -0.10361416856E-01  0.44909517190E-01  0.51923032716E-01  0.51100000000E-03 0. -1.
</event>
<event>
 8    1  0.1128641E+005  0.1043930E+01  0.7957747E-01            NaN
         13   -1    0    0    0    0  0.00000000000E+00  0.00000000000E+00  0.74505805969E-08  0.10566000000E+00  0.10566000000E+00 0. -1.
     999900   -1    0    0    0    0 -0.00000000000E+00 -0.00000000000E+00 -0.74505805969E-08  0.93827000000E+00  0.93827000000E+00 0. -1.
     999902    2    1    2    0    0 -0.15880855823E-01  0.16862499823E-01 -0.55839435500E-02  0.10201030005E+01  0.10198246936E+01 0.  0.
     999903    2    3    3    0    0  0.97638255181E-02 -0.65035289716E-01 -0.11001201886E+00  0.12978276563E+00  0.20396096778E-01 0.  0.
         14    1    1    2    0    0  0.15880855823E-01 -0.16862499823E-01  0.55839435500E-02  0.23826999549E-01  0.00000000000E+00 0. -1.
     999901    1    3    3    0    0 -0.25644681341E-01  0.81897789539E-01  0.10442807531E+00  0.89032023482E+00  0.88000000000E+00 0.  1.
        -11    1    4    4    0    0 -0.32342683668E-02 -0.23428804678E-01 -0.26117131087E-01  0.35238260992E-01  0.51100000000E-03 0.  1.
         11    1    4    4    0    0  0.12998093885E-01 -0.41606485038E-01 -0.83894887776E-01  0.94544504641E-01  0.51100000000E-03 0. -1.
</event>
<event>
 8    1  0.1128641E+005  0.1043930E+01  0.7957747E-01            NaN
         13   -1    0    0    0    0  0.00000000000E+00  0.00000000000E+00  0.74505805969E-08  0.10566000000E+00  0.10566000000E+00 0.  1.
     999900   -1    0    0    0    0 -0.00000000000E+00 -0.00000000000E+00 -0.74505805969E-08  0.93827000000E+00  0.93827000000E+00 0.  1.
     999902    2    1    2    0    0 -0.99836902139E-02  0.18660404002E-01 -0.10967048433E-01  0.10200938741E+01  0.10198153514E+01 0.  0.
     999903    2    3    3    0    0 -0.11872642324E+00 -0.48035562625E-01 -0.17773481602E-01  0.13086968329E+00  0.20189068913E-01 0.  0.
         14    1    1    2    0    0  0.99836902139E-02 -0.18660404002E-01  0.10967048433E-01  0.23836125925E-01  0.00000000000E+00 0.  1.
     999901    1    3    3    0    0  0.10874273302E+00  0.66695966627E-01  0.68064331687E-02  0.88922419079E+00  0.88000000000E+00 0. -1.
        -11    1    4    4    0    0 -0.80769329450E-01 -0.25053555000E-01 -0.51042788977E-02  0.84721189687E-01  0.51100000000E-03 0. -1.
         11    1    4    4    0    0 -0.37957093789E-01 -0.22982007625E-01 -0.12669202704E-01  0.46148493600E-01  0.51100000000E-03 0.  1.
</event>
<event>
 8    1  0.1128641E+005  0.1043930E+01  0.7957747E-01            NaN
         13   -1    0    0    0    0  0.00000000000E+00  0.00000000000E+00  0.74505805969E-08  0.10566000000E+00  0.10566000000E+00 0. -1.
     999900   -1    0    0    0    0 -0.00000000000E+00 -0.00000000000E+00 -0.74505805969E-08  0.93827000000E+00  0.93827000000E+00 0.  1.
     999902    2    1    2    0    0 -0.31705055604E-02 -0.24197512050E-01  0.83616059706E-03  0.10195113420E+01  0.10192188703E+01 0.  0.
     999903    2    3    3    0    0 -0.76671059210E-01 -0.50720583265E-01  0.91734334667E-01  0.13138506563E+00  0.19895186027E-01 0.  0.
         14    1    1    2    0    0  0.31705055604E-02  0.24197512050E-01 -0.83616059706E-03  0.24418658019E-01  0.00000000000E+00 0.  1.
     999901    1    3    3    0    0  0.73500553649E-01  0.26523071215E-01 -0.90898174070E-01  0.88812627635E+00  0.88000000000E+00 0.  1.
        -11    1    4    4    0    0 -0.72747820180E-01 -0.51336715771E-01  0.82774790750E-01  0.12157150502E+00  0.51100000000E-03 0. -1.
         11    1    4    4    0    0 -0.39232390294E-02  0.61613250626E-03  0.89595439172E-02  0.98135606153E-02  0.51100000000E-03 0.  1.
</event>
<event>
 8    1  0.1128641E+005  0.1043930E+01  0.7957747E-01            NaN
         13   -1    0    0    0    0  0.00000000000E+00  0.00000000000E+00  0.74505805969E-08  0.10566000000E+00  0.10566000000E+00 0. -1.
     999900   -1    0    0    0    0 -0.00000000000E+00 -0.00000000000E+00 -0.74505805969E-08  0.93827000000E+00  0.93827000000E+00 0.  1.
     999902    2    1    2    0    0 -0.16010184833E-01  0.11435502599E-01  0.13274049590E-01  0.10201961185E+01  0.10199200082E+01 0.  0.
     999903    2    3    3    0    0  0.44180079498E-01 -0.59024248485E-01 -0.10247147380E+00  0.12779235864E+00  0.19868131548E-01 0.  0.
         14    1    1    2    0    0  0.16010184833E-01 -0.11435502599E-01 -0.13274049590E-01  0.23733881490E-01  0.00000000000E+00 0.  1.
     999901    1    3    3    0    0 -0.60190264331E-01  0.70459751084E-01  0.11574552339E+00  0.89240375987E+00  0.88000000000E+00 0.  1.
        -11    1    4    4    0    0  0.29386198299E-01 -0.25588095835E-01 -0.43481440723E-01  0.58388321669E-01  0.51100000000E-03 0. -1.
         11    1    4    4    0    0  0.14793881199E-01 -0.33436152650E-01 -0.58990033075E-01  0.69404036973E-01  0.51100000000E-03 0.  1.
</event>
<event>
 8    1  0.1128641E+005  0.1043930E+01  0.7957747E-01            NaN
         13   -1    0    0    0    0  0.00000000000E+00  0.00000000000E+00  0.74505805969E-08  0.10566000000E+00  0.10566000000E+00 0. -1.
     999900   -1    0    0    0    0 -0.00000000000E+00 -0.00000000000E+00 -0.74505805969E-08  0.93827000000E+00  0.93827000000E+00 0. -1.
     999902    2    1    2    0    0  0.46471014024E-02  0.76908897381E-02  0.20747893751E-01  0.10213198158E+01  0.10210695107E+01 0.  0.
     999903    2    3    3    0    0  0.39005050396E-01  0.12583310025E+00 -0.88192784904E-02  0.13226848527E+00  0.78618984782E-02 0.  0.
         14    1    1    2    0    0 -0.46471014024E-02 -0.76908897381E-02 -0.20747893751E-01  0.22610184243E-01  0.00000000000E+00 0.  1.
     999901    1    3    3    0    0 -0.34357948994E-01 -0.11814221051E+00  0.29567172241E-01  0.88905133049E+00  0.88000000000E+00 0. -1.
        -11    1    4    4    0    0  0.59638238049E-02  0.12540036425E-01 -0.22056867338E-02  0.14069324180E-01  0.51100000000E-03 0. -1.
         11    1    4    4    0    0  0.33041226591E-01  0.11329306383E+00 -0.66135917565E-02  0.11819916109E+00  0.51100000000E-03 0.  1.
</event>
<event>
 8    1  0.1208584E+005  0.1043930E+01  0.7957747E-01            NaN
         13   -1    0    0    0    0  0.00000000000E+00  0.00000000000E+00  0.74505805969E-08  0.10566000000E+00  0.10566000000E+00 0.  1.
     999900   -1    0    0    0    0 -0.00000000000E+00 -0.00000000000E+00 -0.74505805969E-08  0.93827000000E+00  0.93827000000E+00 0. -1.
     999902    2    1    2    0    0 -0.14335347202E-01  0.10983236350E-01  0.15504059660E-01  0.10201285394E+01  0.10198508359E+01 0.  0.
     999903    2    3    3    0    0 -0.80898276463E-01 -0.19519311395E-01 -0.96322231960E-01  0.13003520247E+00  0.26564014379E-01 0.  0.
         14    1    1    2    0    0  0.14335347202E-01 -0.10983236350E-01 -0.15504059660E-01  0.23801460587E-01  0.00000000000E+00 0.  1.
     999901    1    3    3    0    0  0.66562929261E-01  0.30502547745E-01  0.11182629162E+00  0.89009333694E+00  0.88000000000E+00 0.  1.
        -11    1    4    4    0    0 -0.26418804668E-01 -0.19320087361E-01 -0.39765464328E-01  0.51505070526E-01  0.51100000000E-03 0.  1.
         11    1    4    4    0    0 -0.54479471795E-01 -0.19922403449E-03 -0.56556767632E-01  0.78530131945E-01  0.51100000000E-03 0. -1.
</event>
<event>
 8    1  0.1128641E+005  0.1043930E+01  0.7957747E-01            NaN
         13   -1    0    0    0    0  0.00000000000E+00  0.00000000000E+00  0.74505805969E-08  0.10566000000E+00  0.10566000000E+00 0. -1.
     999900   -1    0    0    0    0 -0.00000000000E+00 -0.00000000000E+00 -0.74505805969E-08  0.93827000000E+00  0.93827000000E+00 0. -1.
     999902    2    1    2    0    0 -0.22969515213E-01  0.34355740216E-02 -0.92758446873E-03  0.10206864587E+01  0.10204217681E+01 0.  0.
     999903    2    3    3    0    0 -0.11529867834E+00 -0.61280837220E-01  0.16930534365E-01  0.13331291807E+00  0.20894135391E-01 0.  0.
         14    1    1    2    0    0  0.22969515213E-01 -0.34355740216E-02  0.92758446873E-03  0.23243541274E-01  0.00000000000E+00 0. -1.
     999901    1    3    3    0    0  0.92329163125E-01  0.64716411242E-01 -0.17858118834E-01  0.88737354066E+00  0.88000000000E+00 0. -1.
        -11    1    4    4    0    0 -0.15371278900E-01 -0.11642599704E-01  0.94613123555E-02  0.21484969057E-01  0.51100000000E-03 0.  1.
         11    1    4    4    0    0 -0.99927399439E-01 -0.49638237516E-01  0.74692220096E-02  0.11182794901E+00  0.51100000000E-03 0. -1.
</event>
<event>
 8    1  0.1128641E+005  0.1043930E+01  0.7957747E-01            NaN
         13   -1    0    0    0    0  0.00000000000E+00  0.00000000000E+00  0.74505805969E-08  0.10566000000E+00  0.10566000000E+00 0. -1.
     999900   -1    0    0    0    0 -0.00000000000E+00 -0.00000000000E+00 -0.74505805969E-08  0.93827000000E+00  0.93827000000E+00 0. -1.
     999902    2    1    2    0    0  0.18108635745E-01  0.10475623242E-01  0.10663463229E-01  0.10204487134E+01  0.10201785167E+01 0.  0.
     999903    2    3    3    0    0 -0.42238791283E-01  0.67627562146E-01  0.10300561400E+00  0.13172196753E+00  0.19568279516E-01 0.  0.
         14    1    1    2    0    0 -0.18108635745E-01 -0.10475623242E-01 -0.10663463229E-01  0.23481286568E-01  0.00000000000E+00 0.  1.
     999901    1    3    3    0    0  0.60347427028E-01 -0.57151938904E-01 -0.92342150775E-01  0.88872674590E+00  0.88000000000E+00 0. -1.
        -11    1    4    4    0    0 -0.17561643018E-01  0.41769920688E-01  0.47053396673E-01  0.65325499150E-01  0.51100000000E-03 0.  1.
         11    1    4    4    0    0 -0.24677148265E-01  0.25857641458E-01  0.55952217331E-01  0.66396468382E-01  0.51100000000E-03 0. -1.
</event>
<event>
 8    1  0.1128641E+005  0.1043930E+01  0.7957747E-01            NaN
         13   -1    0    0    0    0  0.00000000000E+00  0.00000000000E+00  0.74505805969E-08  0.10566000000E+00  0.10566000000E+00 0.  1.
     999900   -1    0    0    0    0 -0.00000000000E+00 -0.00000000000E+00 -0.74505805969E-08  0.93827000000E+00  0.93827000000E+00 0.  1.
     999902    2    1    2    0    0 -0.20849111010E-02  0.14049212803E-01  0.19276227557E-01  0.10199863122E+01  0.10197052402E+01 0.  0.
     999903    2    3    3    0    0  0.11245643716E-02  0.11660713842E+00  0.61005051099E-01  0.13304227593E+00  0.19497219004E-01 0.  0.
         14    1    1    2    0    0  0.20849111010E-02 -0.14049212803E-01 -0.19276227557E-01  0.23943687759E-01  0.00000000000E+00 0. -1.
     999901    1    3    3    0    0 -0.32094754725E-02 -0.10255792562E+00 -0.41728823542E-01  0.88694403631E+00  0.88000000000E+00 0. -1.
        -11    1    4    4    0    0  0.10697268347E-02  0.42464269522E-01  0.11917316962E-01  0.44120766835E-01  0.51100000000E-03 0. -1.
         11    1    4    4    0    0  0.54837536851E-04  0.74142868897E-01  0.49087734137E-01  0.88921509092E-01  0.51100000000E-03 0.  1.
</event>
<event>
 8    1  0.1128641E+005  0.1043930E+01  0.7957747E-01            NaN
         13   -1    0    0    0    0  0.00000000000E+00  0.00000000000E+00  0.74505805969E-08  0.10566000000E+00  0.10566000000E+00 0.  1.
     999900   -1    0    0    0    0 -0.00000000000E+00 -0.00000000000E+00 -0.74505805969E-08  0.93827000000E+00  0.93827000000E+00 0. -1.
     999902    2    1    2    0    0  0.67535957462E-02  0.17980676896E-01  0.17597861558E-01  0.10178800378E+01  0.10175466431E+01 0.  0.
     999903    2    3    3    0    0  0.49403806235E-01  0.86002823096E-01  0.84470955123E-01  0.13169830508E+00  0.19284181383E-01 0.  0.
         14    1    1    2    0    0 -0.67535957462E-02 -0.17980676896E-01 -0.17597861558E-01  0.26049962160E-01  0.00000000000E+00 0. -1.
     999901    1    3    3    0    0 -0.42650210489E-01 -0.68022146200E-01 -0.66873093565E-01  0.88618173276E+00  0.88000000000E+00 0. -1.
        -11    1    4    4    0    0  0.14213251909E-01  0.11625240145E-01  0.11161635124E-01  0.21494323853E-01  0.51100000000E-03 0. -1.
         11    1    4    4    0    0  0.35190554326E-01  0.74377582950E-01  0.73309319999E-01  0.11020398123E+00  0.51100000000E-03 0.  1.
</event>
<event>
 8    1  0.1128641E+005  0.1043930E+01  0.7957747E-01            NaN
         13   -1    0    0    0    0  0.00000000000E+00  0.00000000000E+00  0.74505805969E-08  0.10566000000E+00  0.10566000000E+00 0. -1.
     999900   -1    0    0    0    0 -0.00000000000E+00 -0.00000000000E+00 -0.74505805969E-08  0.93827000000E+00  0.93827000000E+00 0. -1.
     999902    2    1    2    0    0  0.11951610410E-01 -0.18405467152E-01 -0.57729837227E-02  0.10212379407E+01  0.10209857991E+01 0.  0.
     999903    2    3    3    0    0 -0.54180422219E-01  0.11407543098E+00 -0.15564225519E-01  0.12881399298E+00  0.20051871902E-01 0.  0.
         14    1    1    2    0    0 -0.11951610410E-01  0.18405467152E-01  0.57729837227E-02  0.22692059262E-01  0.00000000000E+00 0. -1.
     999901    1    3    3    0    0  0.66132032629E-01 -0.13248089813E+00  0.97912417960E-02  0.89242394775E+00  0.88000000000E+00 0.  1.
        -11    1    4    4    0    0 -0.23787926888E-01  0.31874776012E-01 -0.99047596560E-02  0.40990635470E-01  0.51100000000E-03 0. -1.
         11    1    4    4    0    0 -0.30392495331E-01  0.82200654970E-01 -0.56594658627E-02  0.87823357513E-01  0.51100000000E-03 0.  1.
</event>
<event>
 8    1  0.1128641E+005  0.1043930E+01  0.7957747E-01            NaN
         13   -1    0    0    0    0  0.00000000000E+00  0.00000000000E+00  0.74505805969E-08  0.10566000000E+00  0.10566000000E+00 0.  1.
     999900   -1    0    0    0    0 -0.00000000000E+00 -0.00000000000E+00 -0.74505805969E-08  0.93827000000E+00  0.93827000000E+00 0. -1.
     999902    2    1    2    0    0  0.22021464276E-01  0.80023185200E-02 -0.17559846959E-02  0.10204339264E+01  0.10201633853E+01 0.  0.
     999903    2    3    3    0    0 -0.12491849723E+00  0.20631543031E-01  0.16045431448E-02  0.12815474213E+00  0.19767950198E-01 0.  0.
         14    1    1    2    0    0 -0.22021464276E-01 -0.80023185200E-02  0.17559846959E-02  0.23496073561E-01  0.00000000000E+00 0.  1.
     999901    1    3    3    0    0  0.14693996150E+00 -0.12629224511E-01 -0.33605278407E-02  0.89227918431E+00  0.88000000000E+00 0. -1.
        -11    1    4    4    0    0 -0.21641065469E-01  0.41530074031E-03 -0.64964044831E-02  0.22604702642E-01  0.51100000000E-03 0. -1.
         11    1    4    4    0    0 -0.10327743176E+00  0.20216242291E-01  0.81009476280E-02  0.10555003949E+00  0.51100000000E-03 0.  1.
</event>
<event>
 8    1  0.1128641E+005  0.1043930E+01  0.7957747E-01            NaN
         13   -1    0    0    0    0  0.00000000000E+00  0.00000000000E+00  0.74505805969E-08  0.10566000000E+00  0.10566000000E+00 0. -1.
     999900   -1    0    0    0    0 -0.00000000000E+00 -0.00000000000E+00 -0.74505805969E-08  0.93827000000E+00  0.93827000000E+00 0. -1.
     999902    2    1    2    0    0 -0.14730632076E-01  0.13022415788E-01 -0.15229429810E-01  0.10190601314E+01  0.10187566152E+01 0.  0.
     999903    2    3    3    0    0  0.48300018145E-01  0.49419055495E-01  0.10558262667E+00  0.12782888681E+00  0.20430331646E-01 0.  0.
         14    1    1    2    0    0  0.14730632076E-01 -0.13022415788E-01  0.15229429810E-01  0.24869868649E-01  0.00000000000E+00 0. -1.
     999901    1    3    3    0    0 -0.63030650221E-01 -0.36396639708E-01 -0.12081205648E+00  0.89123124454E+00  0.88000000000E+00 0. -1.
        -11    1    4    4    0    0  0.14520085131E-01  0.19801155432E-01  0.22170796122E-01  0.33086612857E-01  0.51100000000E-03 0. -1.
         11    1    4    4    0    0  0.33779933014E-01  0.29617900064E-01  0.83411830545E-01  0.94742273957E-01  0.51100000000E-03 0.  1.
</event>
<event>
 8    1  0.1128641E+005  0.1043930E+01  0.7957747E-01            NaN
         13   -1    0    0    0    0  0.00000000000E+00  0.00000000000E+00  0.74505805969E-08  0.10566000000E+00  0.10566000000E+00 0.  1.
     999900   -1    0    0    0    0 -0.00000000000E+00 -0.00000000000E+00 -0.74505805969E-08  0.93827000000E+00  0.93827000000E+00 0. -1.
     999902    2    1    2    0    0  0.26340672665E-02 -0.56605028482E-02 -0.23276302712E-01  0.10198309156E+01  0.10195461394E+01 0.  0.
     999903    2    3    3    0    0  0.33710156878E-01  0.11683278307E+00 -0.42959374567E-01  0.13058530733E+00  0.20511966006E-01 0.  0.
         14    1    1    2    0    0 -0.26340672665E-02  0.56605028482E-02  0.23276302712E-01  0.24099084439E-01  0.00000000000E+00 0.  1.
     999901    1    3    3    0    0 -0.31076089612E-01 -0.12249328592E+00  0.19683071855E-01  0.88924560823E+00  0.88000000000E+00 0.  1.
        -11    1    4    4    0    0  0.12981445923E-01  0.79844782817E-01 -0.29256914864E-01  0.86022877595E-01  0.51100000000E-03 0. -1.
         11    1    4    4    0    0  0.20728710955E-01  0.36988000257E-01 -0.13702459703E-01  0.44562429734E-01  0.51100000000E-03 0.  1.
</event>
<event>
 8    1  0.1128641E+005  0.1043930E+01  0.7957747E-01            NaN
         13   -1    0    0    0    0  0.00000000000E+00  0.00000000000E+00  0.74505805969E-08  0.10566000000E+00  0.10566000000E+00 0.  1.
     999900   -1    0    0    0    0 -0.00000000000E+00 -0.00000000000E+00 -0.74505805969E-08  0.93827000000E+00  0.93827000000E+00 0.  1.
     999902    2    1    2    0    0 -0.25801154914E-01 -0.43199935400E-02 -0.10743239760E-01  0.10156496333E+01  0.10152558291E+01 0.  0.
     999903    2    3    3    0    0  0.74303291556E-02 -0.45248456470E-01  0.11477727893E+00  0.12518072807E+00  0.19843344407E-01 0.  0.
         14    1    1    2    0    0  0.25801154914E-01  0.43199935400E-02  0.10743239760E-01  0.28280366681E-01  0.00000000000E+00 0.  1.
     999901    1    3    3    0    0 -0.33231484069E-01  0.40928462930E-01 -0.12552051869E+00  0.89046890525E+00  0.88000000000E+00 0.  1.
        -11    1    4    4    0    0  0.52382801897E-02 -0.33287534042E-01  0.57706867418E-01  0.66826964394E-01  0.51100000000E-03 0. -1.
         11    1    4    4    0    0  0.21920489659E-02 -0.11960922428E-01  0.57070411508E-01  0.58353763672E-01  0.51100000000E-03 0.  1.
</event>
<event>
 8    1  0.1128641E+005  0.1043930E+01  0.7957747E-01            NaN
         13   -1    0    0    0    0  0.00000000000E+00  0.00000000000E+00  0.74505805969E-08  0.10566000000E+00  0.10566000000E+00 0.  1.
     999900   -1    0    0    0    0 -0.00000000000E+00 -0.00000000000E+00 -0.74505805969E-08  0.93827000000E+00  0.93827000000E+00 0.  1.
     999902    2    1    2    0    0  0.18627374328E-01 -0.98448553413E-02  0.13062813259E-01  0.10191401363E+01  0.10188385938E+01 0.  0.
     999903    2    3    3    0    0  0.20335245653E-01 -0.12496122035E+00  0.29160301043E-01  0.13149503639E+00  0.20292674294E-01 0.  0.
         14    1    1    2    0    0 -0.18627374328E-01  0.98448553413E-02 -0.13062813259E-01  0.24789863680E-01  0.00000000000E+00 0. -1.
     999901    1    3    3    0    0 -0.17078713244E-02  0.11511636501E+00 -0.16097487784E-01  0.88764509993E+00  0.88000000000E+00 0.  1.
        -11    1    4    4    0    0  0.15408629022E-01 -0.96682345631E-01  0.13611563443E-01  0.98845523851E-01  0.51100000000E-03 0.  1.
         11    1    4    4    0    0  0.49266166304E-02 -0.28278874723E-01  0.15548737600E-01  0.32649512538E-01  0.51100000000E-03 0. -1.
</event>
<event>
 8    1  0.1128641E+005  0.1043930E+01  0.7957747E-01            NaN
         13   -1    0    0    0    0  0.00000000000E+00  0.00000000000E+00  0.74505805969E-08  0.10566000000E+00  0.10566000000E+00 0.  1.
     999900   -1    0    0    0    0 -0.00000000000E+00 -0.00000000000E+00 -0.74505805969E-08  0.93827000000E+00  0.93827000000E+00 0.  1.
     999902    2    1    2    0    0 -0.21488302404E-01 -0.13096256887E-01  0.87307410475E-03  0.10187502196E+01  0.10184389960E+01 0.  0.
     999903    2    3    3    0    0 -0.10242692000E+00  0.76589205880E-01 -0.19424508557E-01  0.13026469131E+00  0.15310057851E-01 0.  0.
         14    1    1    2    0    0  0.21488302404E-01  0.13096256887E-01 -0.87307410475E-03  0.25179780441E-01  0.00000000000E+00 0. -1.
     999901    1    3    3    0    0  0.80938617593E-01 -0.89685462768E-01  0.20297582662E-01  0.88848552825E+00  0.88000000000E+00 0. -1.
        -11    1    4    4    0    0 -0.34730919794E-01  0.17246204518E-01 -0.61985410132E-02  0.39272781818E-01  0.51100000000E-03 0.  1.
         11    1    4    4    0    0 -0.67696000203E-01  0.59343001362E-01 -0.13225967544E-01  0.90991909490E-01  0.51100000000E-03 0. -1.
</event>
<event>
 8    1  0.1172031E+005  0.1043930E+01  0.7957747E-01            NaN
         13   -1    0    0    0    0  0.00000000000E+00  0.00000000000E+00  0.74505805969E-08  0.10566000000E+00  0.10566000000E+00 0. -1.
     999900   -1    0    0    0    0 -0.00000000000E+00 -0.00000000000E+00 -0.74505805969E-08  0.93827000000E+00  0.93827000000E+00 0.  1.
     999902    2    1    2    0    0  0.74708889886E-02  0.18234979654E-01 -0.15000047117E-01  0.10191644982E+01  0.10188635553E+01 0.  0.
     999903    2    3    3    0    0 -0.57487468815E-01 -0.37699689559E-01 -0.10852586808E+00  0.13006644139E+00  0.20330751819E-01 0.  0.
         14    1    1    2    0    0 -0.74708889886E-02 -0.18234979654E-01  0.15000047117E-01  0.24765501787E-01  0.00000000000E+00 0. -1.
     999901    1    3    3    0    0  0.64958357804E-01  0.55934669213E-01  0.93525820958E-01  0.88909805683E+00  0.88000000000E+00 0. -1.
        -11    1    4    4    0    0 -0.39793522007E-01 -0.29842406376E-01 -0.60766554612E-01  0.78529796208E-01  0.51100000000E-03 0. -1.
         11    1    4    4    0    0 -0.17693946808E-01 -0.78572831830E-02 -0.47759313463E-01  0.51536645177E-01  0.51100000000E-03 0.  1.
</event>
<event>
 8    1  0.1128641E+005  0.1043930E+01  0.7957747E-01            NaN
         13   -1    0    0    0    0  0.00000000000E+00  0.00000000000E+00  0.74505805969E-08  0.10566000000E+00  0.10566000000E+00 0.  1.
     999900   -1    0    0    0    0 -0.00000000000E+00 -0.00000000000E+00 -0.74505805969E-08  0.93827000000E+00  0.93827000000E+00 0.  1.
     999902    2    1    2    0    0 -0.73796172935E-02  0.10272399282E-01  0.21443665501E-01  0.10190339817E+01  0.10187298190E+01 0.  0.
     999903    2    3    3    0    0  0.76855070662E-02 -0.86165716952E-01 -0.88941074348E-01  0.12678286286E+00  0.26072625714E-01 0.  0.
         14    1    1    2    0    0  0.73796172935E-02 -0.10272399282E-01 -0.21443665501E-01  0.24896018327E-01  0.00000000000E+00 0. -1.
     999901    1    3    3    0    0 -0.15065124360E-01  0.96438116234E-01  0.11038473985E+00  0.89225111881E+00  0.88000000000E+00 0. -1.
        -11    1    4    4    0    0  0.41617636189E-03 -0.36682184417E-01 -0.20543349636E-01  0.42048141357E-01  0.51100000000E-03 0. -1.
         11    1    4    4    0    0  0.72693307043E-02 -0.49483532535E-01 -0.68397724712E-01  0.84734721501E-01  0.51100000000E-03 0.  1.
</event>
<event>
 8    1  0.1128641E+005  0.1043930E+01  0.7957747E-01            NaN
         13   -1    0    0    0    0  0.00000000000E+00  0.00000000000E+00  0.74505805969E-08  0.10566000000E+00  0.10566000000E+00 0.  1.
     999900   -1    0    0    0    0 -0.00000000000E+00 -0.00000000000E+00 -0.74505805969E-08  0.93827000000E+00  0.93827000000E+00 0. -1.
     999902    2    1    2    0    0 -0.19594292621E-01 -0.84810244397E-02 -0.83668346525E-02  0.10209981880E+01  0.10207406291E+01 0.  0.
     999903    2    3    3    0    0 -0.74243917868E-01 -0.21593583070E-01  0.10490675394E+00  0.13195970369E+00  0.20724241975E-01 0.  0.
         14    1    1    2    0    0  0.19594292621E-01  0.84810244397E-02  0.83668346525E-02  0.22931811986E-01  0.00000000000E+00 0.  1.
     999901    1    3    3    0    0  0.54649625247E-01  0.13112558631E-01 -0.11327358860E+00  0.88903848432E+00  0.88000000000E+00 0. -1.
        -11    1    4    4    0    0 -0.24598361702E-01  0.23403013526E-02  0.37097492072E-01  0.44576243088E-01  0.51100000000E-03 0. -1.
         11    1    4    4    0    0 -0.49645556166E-01 -0.23933884423E-01  0.67809261871E-01  0.87383460603E-01  0.51100000000E-03 0.  1.
</event>
<event>
 8    1  0.1128641E+005  0.1043930E+01  0.7957747E-01            NaN
         13   -1    0    0    0    0  0.00000000000E+00  0.00000000000E+00  0.74505805969E-08  0.10566000000E+00  0.10566000000E+00 0.  1.
     999900   -1    0    0    0    0 -0.00000000000E+00 -0.00000000000E+00 -0.74505805969E-08  0.93827000000E+00  0.93827000000E+00 0.  1.
     999902    2    1    2    0    0 -0.88130555626E-02 -0.11128848174E-01  0.19367619781E-01  0.10199169638E+01  0.10196342419E+01 0.  0.
     999903    2    3    3    0    0  0.12660452630E+00 -0.16135953568E-01 -0.21227717807E-02  0.12928526132E+00  0.20520661733E-01 0.  0.
         14    1    1    2    0    0  0.88130555626E-02  0.11128848174E-01 -0.19367619781E-01  0.24013036168E-01  0.00000000000E+00 0. -1.
     999901    1    3    3    0    0 -0.13541758186E+00  0.50071053944E-02  0.21490391562E-01  0.89063170251E+00  0.88000000000E+00 0.  1.
        -11    1    4    4    0    0  0.93211288516E-01 -0.55267632844E-02 -0.81404566937E-02  0.93730558387E-01  0.51100000000E-03 0.  1.
         11    1    4    4    0    0  0.33393237786E-01 -0.10609190284E-01  0.60176849130E-02  0.35554702938E-01  0.51100000000E-03 0. -1.
</event>
<event>
 8    1  0.1128641E+005  0.1043930E+01  0.7957747E-01            NaN
         13   -1    0    0    0    0  0.00000000000E+00  0.00000000000E+00  0.74505805969E-08  0.10566000000E+00  0.10566000000E+00 0. -1.
     999900   -1    0    0    0    0 -0.00000000000E+00 -0.00000000000E+00 -0.74505805969E-08  0.93827000000E+00  0.93827000000E+00 0.  1.
     999902    2    1    2    0    0  0.11503736641E-01 -0.19979418474E-01 -0.21646599681E-02  0.10207740316E+01  0.10205113545E+01 0.  0.
     999903    2    3    3    0    0 -0.62534862018E-01 -0.10532520660E+00 -0.46649217901E-01  0.13243598023E+00  0.18950757604E-01 0.  0.
         14    1    1    2    0    0 -0.11503736641E-01  0.19979418474E-01  0.21646599681E-02  0.23155968389E-01  0.00000000000E+00 0. -1.
     999901    1    3    3    0    0  0.74038598659E-01  0.85345788131E-01  0.44484557933E-01  0.88833805138E+00  0.88000000000E+00 0.  1.
        -11    1    4    4    0    0 -0.43269093746E-01 -0.84398725324E-01 -0.30017394881E-01  0.99481980410E-01  0.51100000000E-03 0. -1.
         11    1    4    4    0    0 -0.19265768272E-01 -0.20926481281E-01 -0.16631823020E-01  0.32953999816E-01  0.51100000000E-03 0.  1.
</event>
<event>
 8    1  0.1128641E+005  0.1043930E+01  0.7957747E-01            NaN
         13   -1    0    0    0    0  0.00000000000E+00  0.00000000000E+00  0.74505805969E-08  0.10566000000E+00  0.10566000000E+00 0.  1.
     999900   -1    0    0    0    0 -0.00000000000E+00 -0.00000000000E+00 -0.74505805969E-08  0.93827000000E+00  0.93827000000E+00 0. -1.
     999902    2    1    2    0    0 -0.18442734719E-02 -0.12983812360E-01  0.20673853905E-01  0.10194475785E+01  0.10191535587E+01 0.  0.
     999903    2    3    3    0    0 -0.27525284226E-01 -0.11740367153E+00 -0.45080167731E-01  0.13046691915E+00  0.21169131067E-01 0.  0.
         14    1    1    2    0    0  0.18442734719E-02  0.12983812360E-01 -0.20673853905E-01  0.24482421517E-01  0.00000000000E+00 0. -1.
     999901    1    3    3    0    0  0.25681010754E-01  0.10441985917E+00  0.65754021635E-01  0.88898065933E+00  0.88000000000E+00 0.  1.
        -11    1    4    4    0    0 -0.73187799492E-02 -0.68201608456E-01 -0.18732266093E-01  0.71106841090E-01  0.51100000000E-03 0. -1.
         11    1    4    4    0    0 -0.20206504277E-01 -0.49202063075E-01 -0.26347901637E-01  0.59360078062E-01  0.51100000000E-03 0.  1.
</event>
<event>
 8    1  0.1128641E+005  0.1043930E+01  0.7957747E-01            NaN
         13   -1    0    0    0    0  0.00000000000E+00  0.00000000000E+00  0.74505805969E-08  0.10566000000E+00  0.10566000000E+00 0.  1.
     999900   -1    0    0    0    0 -0.00000000000E+00 -0.00000000000E+00 -0.74505805969E-08  0.93827000000E+00  0.93827000000E+00 0.  1.
     999902    2    1    2    0    0 -0.19429886157E-01 -0.45507248908E-02 -0.11394191113E-01  0.10209505056E+01  0.10206918622E+01 0.  0.
     999903    2    3    3    0    0  0.29687286233E-01  0.12453145955E+00  0.94020480784E-02  0.12993580843E+00  0.20136941719E-01 0.  0.
         14    1    1    2    0    0  0.19429886157E-01  0.45507248908E-02  0.11394191113E-01  0.22979494429E-01  0.00000000000E+00 0.  1.
     999901    1    3    3    0    0 -0.49117172390E-01 -0.12908218444E+00 -0.20796239191E-01  0.89101469714E+00  0.88000000000E+00 0.  1.
        -11    1    4    4    0    0  0.14691669758E-01  0.27148549724E-01 -0.74941319420E-03  0.30882222289E-01  0.51100000000E-03 0.  1.
         11    1    4    4    0    0  0.14995616475E-01  0.97382909826E-01  0.10151461273E-01  0.99053586137E-01  0.51100000000E-03 0. -1.
</event>
<event>
 8    1  0.1128641E+005  0.1043930E+01  0.7957747E-01            NaN
         13   -1    0    0    0    0  0.00000000000E+00  0.00000000000E+00  0.74505805969E-08  0.10566000000E+00  0.10566000000E+00 0.  1.
     999900   -1    0    0    0    0 -0.00000000000E+00 -0.00000000000E+00 -0.74505805969E-08  0.93827000000E+00  0.93827000000E+00 0.  1.
     999902    2    1    2    0    0 -0.69525568545E-02  0.11030154414E-01 -0.17353390050E-01  0.10222241828E+01  0.10219937071E+01 0.  0.
     999903    2    3    3    0    0 -0.96018666540E-01 -0.85257805176E-01 -0.19643204196E-01  0.13249985118E+00  0.26112782791E-01 0.  0.
         14    1    1    2    0    0  0.69525568545E-02 -0.11030154414E-01  0.17353390050E-01  0.21705817180E-01  0.00000000000E+00 0.  1.
     999901    1    3    3    0    0  0.89066109685E-01  0.96287959590E-01  0.22898141452E-02  0.88972433164E+00  0.88000000000E+00 0.  1.
        -11    1    4    4    0    0 -0.84191154694E-01 -0.65100916334E-01 -0.89740866766E-02  0.10680390999E+00  0.51100000000E-03 0. -1.
         11    1    4    4    0    0 -0.11827511846E-01 -0.20156888842E-01 -0.10669117519E-01  0.25695941195E-01  0.51100000000E-03 0.  1.
</event>
<event>
 7    1  0.1128641E+005  0.1043930E+01  0.7957747E-01            NaN
         13   -1    0    0    0    0  0.00000000000E+00  0.00000000000E+00  0.74505805969E-08  0.10566000000E+00  0.10566000000E+00 0. -1.
     999900   -1    0    0    0    0 -0.00000000000E+00 -0.00000000000E+00 -0.74505805969E-08  0.93827000000E+00  0.93827000000E+00 0. -1.
     999903    2    1    2    0    0  0.69147371674E-01 -0.82595925783E-01 -0.32651437181E-03  0.10988827679E+00  0.21722817471E-01 0.  0.
         14    1    1    2    0    0  0.33452629848E-01  0.40869488234E-02 -0.28508201345E-01  0.44141807149E-01  0.00000000000E+00 0.  1.
     999901    1    1    2    0    0 -0.10260000152E+00  0.78508976959E-01  0.28834715717E-01  0.88989991606E+00  0.88000000000E+00 0. -1.
        -11    1    3    3    0    0  0.87138368184E-02 -0.24575510134E-01  0.10080782162E-02  0.26099118628E-01  0.51100000000E-03 0.  1.
         11    1    3    3    0    0  0.60433534855E-01 -0.58020415649E-01 -0.13345925880E-02  0.83789158162E-01  0.51100000000E-03 0. -1.
</event>
<event>
 8    1  0.1128641E+005  0.1043930E+01  0.7957747E-01            NaN
         13   -1    0    0    0    0  0.00000000000E+00  0.00000000000E+00  0.74505805969E-08  0.10566000000E+00  0.10566000000E+00 0. -1.
     999900   -1    0    0    0    0 -0.00000000000E+00 -0.00000000000E+00 -0.74505805969E-08  0.93827000000E+00  0.93827000000E+00 0. -1.
     999902    2    1    2    0    0 -0.38124999510E-02  0.16547887795E-01  0.16511116193E-01  0.10202448843E+01  0.10199699208E+01 0.  0.
     999903    2    3    3    0    0 -0.13058516644E-01  0.11307624309E+00  0.66392593142E-01  0.13351416199E+00  0.21477742402E-01 0.  0.
         14    1    1    2    0    0  0.38124999510E-02 -0.16547887795E-01 -0.16511116193E-01  0.23685115670E-01  0.00000000000E+00 0.  1.
     999901    1    3    3    0    0  0.92460166925E-02 -0.96528355297E-01 -0.49881476949E-01  0.88673072234E+00  0.88000000000E+00 0. -1.
        -11    1    4    4    0    0 -0.64462401717E-02  0.32198051761E-01  0.30360703235E-01  0.44724735567E-01  0.51100000000E-03 0.  1.
         11    1    4    4    0    0 -0.66122764718E-02  0.80878191332E-01  0.36031889906E-01  0.88789426422E-01  0.51100000000E-03 0. -1.
</event>
<event>
 8    1  0.1128641E+005  0.1043930E+01  0.7957747E-01            NaN
         13   -1    0    0    0    0  0.00000000000E+00  0.00000000000E+00  0.74505805969E-08  0.10566000000E+00  0.10566000000E+00 0.  1.
     999900   -1    0    0    0    0 -0.00000000000E+00 -0.00000000000E+00 -0.74505805969E-08  0.93827000000E+00  0.93827000000E+00 0.  1.
     999902    2    1    2    0    0  0.16920054718E-02  0.20241483919E-01 -0.96655701972E-02  0.10214354718E+01  0.10211877492E+01 0.  0.
     999903    2    3    3    0    0  0.84562334350E-01  0.76347698793E-01 -0.67103438935E-01  0.13390265122E+00  0.21149207685E-01 0.  0.
         14    1    1    2    0    0 -0.16920054718E-02 -0.20241483919E-01  0.96655701972E-02  0.22494528246E-01  0.00000000000E+00 0. -1.
     999901    1    3    3    0    0 -0.82870328879E-01 -0.56106214873E-01  0.57437868738E-01  0.88753282053E+00  0.88000000000E+00 0.  1.
        -11    1    4    4    0    0  0.54637026775E-02  0.45813839081E-03 -0.26135225225E-03  0.55128362693E-02  0.51100000000E-03 0. -1.
         11    1    4    4    0    0  0.79098631673E-01  0.75889560402E-01 -0.66842086683E-01  0.12838981495E+00  0.51100000000E-03 0.  1.
</event>
<event>
 8    1  0.1128641E+005  0.1043930E+01  0.7957747E-01            NaN
         13   -1    0    0    0    0  0.00000000000E+00  0.00000000000E+00  0.74505805969E-08  0.10566000000E+00  0.10566000000E+00 0.  1.
     999900   -1    0    0    0    0 -0.00000000000E+00 -0.00000000000E+00 -0.74505805969E-08  0.93827000000E+00  0.93827000000E+00 0. -1.
     999902    2    1    2    0    0  0.18769145574E-01 -0.81689235029E-02 -0.13921282143E-01  0.10191749150E+01  0.10188742283E+01 0.  0.
     999903    2    3    3    0    0 -0.62849663791E-02  0.61947029505E-01 -0.11304838087E+00  0.13048479066E+00  0.19220013258E-01 0.  0.
         14    1    1    2    0    0 -0.18769145574E-01  0.81689235029E-02  0.13921282143E-01  0.24755084998E-01  0.00000000000E+00 0. -1.
     999901    1    3    3    0    0  0.25054111953E-01 -0.70115953008E-01  0.99127098731E-01  0.88869012434E+00  0.88000000000E+00 0.  1.
        -11    1    4    4    0    0 -0.42939197416E-02  0.51636788204E-01 -0.76076457821E-01  0.92047184630E-01  0.51100000000E-03 0. -1.
         11    1    4    4    0    0 -0.19910466375E-02  0.10310241301E-01 -0.36971923053E-01  0.38437606034E-01  0.51100000000E-03 0.  1.
</event>
<event>
 8    1  0.1128641E+005  0.1043930E+01  0.7957747E-01            NaN
         13   -1    0    0    0    0  0.00000000000E+00  0.00000000000E+00  0.74505805969E-08  0.10566000000E+00  0.10566000000E+00 0.  1.
     999900   -1    0    0    0    0 -0.00000000000E+00 -0.00000000000E+00 -0.74505805969E-08  0.93827000000E+00  0.93827000000E+00 0. -1.
     999902    2    1    2    0    0  0.83337800001E-02 -0.21997906696E-01  0.31963607954E-02  0.10201902336E+01  0.10199139847E+01 0.  0.
     999903    2    3    3    0    0 -0.10138560344E+00 -0.20214894179E-01 -0.75916177395E-01  0.12985304130E+00  0.20269775855E-01 0.  0.
         14    1    1    2    0    0 -0.83337800001E-02  0.21997906696E-01 -0.31963607954E-02  0.23739766436E-01  0.00000000000E+00 0. -1.
     999901    1    3    3    0    0  0.10971938344E+00 -0.17830125171E-02  0.79112538191E-01  0.89033719227E+00  0.88000000000E+00 0.  1.
        -11    1    4    4    0    0 -0.65990954457E-01 -0.22143252509E-01 -0.45677668248E-01  0.83257673517E-01  0.51100000000E-03 0. -1.
         11    1    4    4    0    0 -0.35394648979E-01  0.19283583305E-02 -0.30238509147E-01  0.46595367781E-01  0.51100000000E-03 0.  1.
</event>
<event>
 8    1  0.1128641E+005  0.1043930E+01  0.7957747E-01            NaN
         13   -1    0    0    0    0  0.00000000000E+00  0.00000000000E+00  0.74505805969E-08  0.10566000000E+00  0.10566000000E+00 0. -1.
     999900   -1    0    0    0    0 -0.00000000000E+00 -0.00000000000E+00 -0.74505805969E-08  0.93827000000E+00  0.93827000000E+00 0. -1.
     999902    2    1    2    0    0  0.95859271739E-02  0.14557156874E-01 -0.17081413351E-01  0.10195255845E+01  0.10192334580E+01 0.  0.
     999903    2    3    3    0    0 -0.99817377632E-01 -0.75389550912E-01  0.16090385917E-01  0.12758395990E+00  0.19278823652E-01 0.  0.
         14    1    1    2    0    0 -0.95859271739E-02 -0.14557156874E-01  0.17081413351E-01  0.24404415545E-01  0.00000000000E+00 0. -1.
     999901    1    3    3    0    0  0.10940330481E+00  0.89946707785E-01 -0.33171799267E-01  0.89194162455E+00  0.88000000000E+00 0. -1.
        -11    1    4    4    0    0 -0.59496028973E-01 -0.40086381133E-01  0.41324262282E-03  0.71743482675E-01  0.51100000000E-03 0.  1.
         11    1    4    4    0    0 -0.40321348659E-01 -0.35303169779E-01  0.15677143294E-01  0.55840477227E-01  0.51100000000E-03 0. -1.
</event>
<event>
 8    1  0.1128641E+005  0.1043930E+01  0.7957747E-01            NaN
         13   -1    0    0    0    0  0.00000000000E+00  0.00000000000E+00  0.74505805969E-08  0.10566000000E+00  0.10566000000E+00 0. -1.
     999900   -1    0    0    0    0 -0.00000000000E+00 -0.00000000000E+00 -0.74505805969E-08  0.93827000000E+00  0.93827000000E+00 0. -1.
     999902    2    1    2    0    0 -0.10273235748E-01 -0.20598963567E-01 -0.78050946617E-02  0.10196241123E+01  0.10193343682E+01 0.  0.
     999903    2    3    3    0    0  0.82673536720E-01  0.97170263971E-02  0.95231611886E-01  0.12823490180E+00  0.21113878378E-01 0.  0.
         14    1    1    2    0    0  0.10273235748E-01  0.20598963567E-01  0.78050946617E-02  0.24305887671E-01  0.00000000000E+00 0. -1.
     999901    1    3    3    0    0 -0.92946772469E-01 -0.30315989964E-01 -0.10303670655E+00  0.89138921053E+00  0.88000000000E+00 0. -1.
        -11    1    4    4    0    0  0.74815249088E-01  0.29544524932E-02  0.88207056334E-01  0.11570132322E+00  0.51100000000E-03 0. -1.
         11    1    4    4    0    0  0.78582876322E-02  0.67625739040E-02  0.70245555526E-02  0.12533578580E-01  0.51100000000E-03 0.  1.
</event>
<event>
 8    1  0.1128641E+005  0.1043930E+01  0.7957747E-01            NaN
         13   -1    0    0    0    0  0.00000000000E+00  0.00000000000E+00  0.74505805969E-08  0.10566000000E+00  0.10566000000E+00 0.  1.
     999900   -1    0    0    0    0 -0.00000000000E+00 -0.00000000000E+00 -0.74505805969E-08  0.93827000000E+00  0.93827000000E+00 0. -1.
     999902    2    1    2    0    0  0.21255061854E-01  0.28345073000E-02  0.11328740047E-01  0.10196781457E+01  0.10193897039E+01 0.  0.
     999903    2    3    3    0    0  0.65697926729E-01 -0.97651996201E-01  0.55657356655E-01  0.13173798337E+00  0.20125232272E-01 0.  0.
         14    1    1    2    0    0 -0.21255061854E-01 -0.28345073000E-02 -0.11328740047E-01  0.24251854303E-01  0.00000000000E+00 0. -1.
     999901    1    3    3    0    0 -0.44442864874E-01  0.10048650350E+00 -0.44328616608E-01  0.88794016233E+00  0.88000000000E+00 0. -1.
        -11    1    4    4    0    0  0.32759996521E-01 -0.62879878972E-01  0.39639964853E-01  0.81232287215E-01  0.51100000000E-03 0.  1.
         11    1    4    4    0    0  0.32937930208E-01 -0.34772117228E-01  0.16017391802E-01  0.50505696154E-01  0.51100000000E-03 0. -1.
</event>
<event>
 8    1  0.1128641E+005  0.1043930E+01  0.7957747E-01            NaN
         13   -1    0    0    0    0  0.00000000000E+00  0.00000000000E+00  0.74505805969E-08  0.10566000000E+00  0.10566000000E+00 0.  1.
     999900   -1    0    0    0    0 -0.00000000000E+00 -0.00000000000E+00 -0.74505805969E-08  0.93827000000E+00  0.93827000000E+00 0.  1.
     999902    2    1    2    0    0 -0.11558502197E-01  0.17039864399E-01  0.98878904012E-02  0.10210886706E+01  0.10208331631E+01 0.  0.
     999903    2    3    3    0    0 -0.92960098610E-01  0.69583866369E-01 -0.61230492592E-01  0.13291925184E+00  0.20853294542E-01 0.  0.
         14    1    1    2    0    0  0.11558502197E-01 -0.17039864399E-01 -0.98878904012E-02  0.22841329391E-01  0.00000000000E+00 0. -1.
     999901    1    3    3    0    0  0.81401596413E-01 -0.52544001970E-01  0.71118382993E-01  0.88816941877E+00  0.88000000000E+00 0. -1.
        -11    1    4    4    0    0 -0.29754470498E-01  0.19089949962E-01 -0.85371822181E-02  0.36371682740E-01  0.51100000000E-03 0.  1.
         11    1    4    4    0    0 -0.63205628113E-01  0.50493916407E-01 -0.52693310374E-01  0.96547569097E-01  0.51100000000E-03 0. -1.
</event>
<event>
 8    1  0.1128641E+005  0.1043930E+01  0.7957747E-01            NaN
         13   -1    0    0    0    0  0.00000000000E+00  0.00000000000E+00  0.74505805969E-08  0.10566000000E+00  0.10566000000E+00 0.  1.
     999900   -1    0    0    0    0 -0.00000000000E+00 -0.00000000000E+00 -0.74505805969E-08  0.93827000000E+00  0.93827000000E+00 0. -1.
     999902    2    1    2    0    0 -0.95328620937E-02 -0.15496899472E-01  0.15616610468E-01  0.10199527634E+01  0.10196708938E+01 0.  0.
     999903    2    3    3    0    0 -0.51903368050E-01  0.11627996450E+00 -0.33245489866E-02  0.12893134436E+00  0.19931110657E-01 0.  0.
         14    1    1    2    0    0  0.95328620937E-02  0.15496899472E-01 -0.15616610468E-01  0.23977236610E-01  0.00000000000E+00 0. -1.
     999901    1    3    3    0    0  0.42370505957E-01 -0.13177686397E+00  0.18941159455E-01  0.89102141903E+00  0.88000000000E+00 0. -1.
        -11    1    4    4    0    0 -0.23844566291E-01  0.36546783208E-01  0.53162796472E-02  0.43963105608E-01  0.51100000000E-03 0. -1.
         11    1    4    4    0    0 -0.28058801759E-01  0.79733181295E-01 -0.86408286338E-02  0.84968238749E-01  0.51100000000E-03 0.  1.
</event>
<event>
 8    1  0.1128641E+005  0.1043930E+01  0.7957747E-01            NaN
         13   -1    0    0    0    0  0.00000000000E+00  0.00000000000E+00  0.74505805969E-08  0.10566000000E+00  0.10566000000E+00 0.  1.
     999900   -1    0    0    0    0 -0.00000000000E+00 -0.00000000000E+00 -0.74505805969E-08  0.93827000000E+00  0.93827000000E+00 0.  1.
     999902    2    1    2    0    0 -0.10779758706E-01 -0.16569942656E-01  0.11908022411E-01  0.10208525826E+01  0.10205917049E+01 0.  0.
     999903    2    3    3    0    0  0.99168332078E-01  0.53818190303E-01 -0.58175500284E-01  0.12846546249E+00  0.19703566325E-01 0.  0.
         14    1    1    2    0    0  0.10779758706E-01  0.16569942656E-01 -0.11908022411E-01  0.23077417428E-01  0.00000000000E+00 0. -1.
     999901    1    3    3    0    0 -0.10994809078E+00 -0.70388132959E-01  0.70083522694E-01  0.89238712008E+00  0.88000000000E+00 0. -1.
        -11    1    4    4    0    0  0.22617539178E-01  0.41848881072E-02 -0.80962167705E-02  0.24390084336E-01  0.51100000000E-03 0.  1.
         11    1    4    4    0    0  0.76550792900E-01  0.49633302196E-01 -0.50079283513E-01  0.10407537816E+00  0.51100000000E-03 0. -1.
</event>
<event>
 8    1  0.1128641E+005  0.1043930E+01  0.7957747E-01            NaN
         13   -1    0    0    0    0  0.00000000000E+00  0.00000000000E+00  0.74505805969E-08  0.10566000000E+00  0.10566000000E+00 0.  1.
     999900   -1    0    0    0    0 -0.00000000000E+00 -0.00000000000E+00 -0.74505805969E-08  0.93827000000E+00  0.93827000000E+00 0. -1.
     999902    2    1    2    0    0 -0.12438552822E-01  0.14267470919E-01  0.14070640575E-01  0.10203448087E+01  0.10200721873E+01 0.  0.
     999903    2    3    3    0    0 -0.19251853231E-01 -0.12546622235E+00 -0.10741965275E-01  0.12894838089E+00  0.19997207623E-01 0.  0.
         14    1    1    2    0    0  0.12438552822E-01 -0.14267470919E-01 -0.14070640575E-01  0.23585191306E-01  0.00000000000E+00 0. -1.
     999901    1    3    3    0    0  0.68133004086E-02  0.13973369327E+00  0.24812605850E-01  0.89139642781E+00  0.88000000000E+00 0.  1.
        -11    1    4    4    0    0 -0.62866407510E-02 -0.15270185290E-01  0.40465841045E-02  0.17009890494E-01  0.51100000000E-03 0. -1.
         11    1    4    4    0    0 -0.12965212480E-01 -0.11019603706E+00 -0.14788549380E-01  0.11193849039E+00  0.51100000000E-03 0.  1.
</event>
<event>
 8    1  0.1128641E+005  0.1043930E+01  0.7957747E-01            NaN
         13   -1    0    0    0    0  0.00000000000E+00  0.00000000000E+00  0.74505805969E-08  0.10566000000E+00  0.10566000000E+00 0. -1.
     999900   -1    0    0    0    0 -0.00000000000E+00 -0.00000000000E+00 -0.74505805969E-08  0.93827000000E+00  0.93827000000E+00 0. -1.
     999902    2    1    2    0    0  0.12259110117E-01  0.21876587296E-01 -0.51177988538E-03  0.10188474808E+01  0.10185386867E+01 0.  0.
     999903    2    3    3    0    0  0.43638005960E-01  0.12330393473E+00 -0.22833667735E-02  0.13246422256E+00  0.20818756167E-01 0.  0.
         14    1    1    2    0    0 -0.12259110117E-01 -0.21876587296E-01  0.51177988538E-03  0.25082519236E-01  0.00000000000E+00 0. -1.
     999901    1    3    3    0    0 -0.31378895843E-01 -0.10142734744E+00  0.17715868881E-02  0.88638325821E+00  0.88000000000E+00 0.  1.
        -11    1    4    4    0    0  0.22780546410E-01  0.89822679885E-01  0.26591467555E-02  0.92705983081E-01  0.51100000000E-03 0. -1.
         11    1    4    4    0    0  0.20857459551E-01  0.33481254848E-01 -0.49425135289E-02  0.39758239474E-01  0.51100000000E-03 0.  1.
</event>
<event>
 7    1  0.1128641E+005  0.1043930E+01  0.7957747E-01            NaN
         13   -1    0    0    0    0  0.00000000000E+00  0.00000000000E+00  0.74505805969E-08  0.10566000000E+00  0.10566000000E+00 0.  1.
     999900   -1    0    0    0    0 -0.00000000000E+00 -0.00000000000E+00 -0.74505805969E-08  0.93827000000E+00  0.93827000000E+00 0. -1.
     999903    2    1    2    0    0 -0.66463970101E-01  0.38888507261E-01 -0.52022943800E-01  0.94487006930E-01  0.17077250318E-01 0.  0.
         14    1    1    2    0    0 -0.47566014319E-01 -0.17336306412E-01 -0.28640222561E-01  0.58166447257E-01  0.00000000000E+00 0. -1.
     999901    1    1    2    0    0  0.11402998442E+00 -0.21552200848E-01  0.80663166362E-01  0.89127654581E+00  0.88000000000E+00 0.  1.
        -11    1    3    3    0    0 -0.14534750516E-01  0.16821448501E-01 -0.11638608650E-01  0.25098574353E-01  0.51100000000E-03 0. -1.
         11    1    3    3    0    0 -0.51929219585E-01  0.22067058760E-01 -0.40384335151E-01  0.69388432577E-01  0.51100000000E-03 0.  1.
</event>
<event>
 8    1  0.1128641E+005  0.1043930E+01  0.7957747E-01            NaN
         13   -1    0    0    0    0  0.00000000000E+00  0.00000000000E+00  0.74505805969E-08  0.10566000000E+00  0.10566000000E+00 0. -1.
     999900   -1    0    0    0    0 -0.00000000000E+00 -0.00000000000E+00 -0.74505805969E-08  0.93827000000E+00  0.93827000000E+00 0.  1.
     999902    2    1    2    0    0  0.16632058231E-01  0.23526526219E-02  0.16356241354E-01  0.10204845960E+01  0.10202152341E+01 0.  0.
     999903    2    3    3    0    0  0.13048872843E+00 -0.21036062356E-02 -0.13009591548E-01  0.13265265714E+00  0.19893329783E-01 0.  0.
         14    1    1    2    0    0 -0.16632058231E-01 -0.23526526219E-02 -0.16356241354E-01  0.23445403954E-01  0.00000000000E+00 0.  1.
     999901    1    3    3    0    0 -0.11385667019E+00  0.44562588575E-02  0.29365832902E-01  0.88783193890E+00  0.88000000000E+00 0. -1.
        -11    1    4    4    0    0  0.11507671783E+00 -0.62179897162E-02 -0.16194655703E-01  0.11637801501E+00  0.51100000000E-03 0. -1.
         11    1    4    4    0    0  0.15412010595E-01  0.41143834806E-02  0.31850641547E-02  0.16274642137E-01  0.51100000000E-03 0.  1.
</event>
<event>
 8    1  0.1128641E+005  0.1043930E+01  0.7957747E-01            NaN
         13   -1    0    0    0    0  0.00000000000E+00  0.00000000000E+00  0.74505805969E-08  0.10566000000E+00  0.10566000000E+00 0.  1.
     999900   -1    0    0    0    0 -0.00000000000E+00 -0.00000000000E+00 -0.74505805969E-08  0.93827000000E+00  0.93827000000E+00 0. -1.
     999902    2    1    2    0    0 -0.22648223047E-01  0.62854523572E-02 -0.34076983594E-02  0.10201800247E+01  0.10199035354E+01 0.  0.
     999903    2    3    3    0    0 -0.15378140037E-01  0.38336456384E-01  0.12241514677E+00  0.13062310729E+00  0.19255049174E-01 0.  0.
         14    1    1    2    0    0  0.22648223047E-01 -0.62854523572E-02  0.34076983594E-02  0.23749975298E-01  0.00000000000E+00 0. -1.
     999901    1    3    3    0    0 -0.72700830109E-02 -0.32051004026E-01 -0.12582284513E+00  0.88955691742E+00  0.88000000000E+00 0. -1.
        -11    1    4    4    0    0 -0.19894122204E-01  0.32971482779E-01  0.10173678332E+00  0.10878202506E+00  0.51100000000E-03 0. -1.
         11    1    4    4    0    0  0.45159821677E-02  0.53649736041E-02  0.20678363457E-01  0.21841082230E-01  0.51100000000E-03 0.  1.
</event>
<event>
 8    1  0.1128641E+005  0.1043930E+01  0.7957747E-01            NaN
         13   -1    0    0    0    0  0.00000000000E+00  0.00000000000E+00  0.74505805969E-08  0.10566000000E+00  0.10566000000E+00 0. -1.
     999900   -1    0    0    0    0 -0.00000000000E+00 -0.00000000000E+00 -0.74505805969E-08  0.93827000000E+00  0.93827000000E+00 0.  1.
     999902    2    1    2    0    0 -0.64739846527E-02  0.49862776430E-03  0.23153665806E-01  0.10198831011E+01  0.10195995717E+01 0.  0.
     999903    2    3    3    0    0 -0.33146368748E-01  0.61449786360E-02  0.12749129371E+00  0.13329997586E+00  0.19452790762E-01 0.  0.
         14    1    1    2    0    0  0.64739846527E-02 -0.49862776430E-03 -0.23153665806E-01  0.24046898910E-01  0.00000000000E+00 0.  1.
     999901    1    3    3    0    0  0.26672384095E-01 -0.56463508717E-02 -0.10433762790E+00  0.88658312523E+00  0.88000000000E+00 0.  1.
        -11    1    4    4    0    0 -0.24610795102E-01 -0.93029106216E-03  0.10887016915E+00  0.11162227166E+00  0.51100000000E-03 0. -1.
         11    1    4    4    0    0 -0.85355736457E-02  0.70752696982E-02  0.18621124556E-01  0.21677704202E-01  0.51100000000E-03 0.  1.
</event>
<event>
 8    1  0.1128641E+005  0.1043930E+01  0.7957747E-01            NaN
         13   -1    0    0    0    0  0.00000000000E+00  0.00000000000E+00  0.74505805969E-08  0.10566000000E+00  0.10566000000E+00 0.  1.
     999900   -1    0    0    0    0 -0.00000000000E+00 -0.00000000000E+00 -0.74505805969E-08  0.93827000000E+00  0.93827000000E+00 0.  1.
     999902    2    1    2    0    0  0.12910487899E-01  0.84172179230E-02 -0.17309609548E-01  0.10207534421E+01  0.10204902923E+01 0.  0.
     999903    2    3    3    0    0  0.84431400996E-01  0.85514159106E-01  0.50474090631E-01  0.13190373071E+00  0.20239255640E-01 0.  0.
         14    1    1    2    0    0 -0.12910487899E-01 -0.84172179230E-02  0.17309609548E-01  0.23176557942E-01  0.00000000000E+00 0.  1.
     999901    1    3    3    0    0 -0.71520913097E-01 -0.77096941183E-01 -0.67783700179E-01  0.88884971135E+00  0.88000000000E+00 0. -1.
        -11    1    4    4    0    0  0.57248783176E-01  0.45289076573E-01  0.25645324035E-01  0.77372265043E-01  0.51100000000E-03 0.  1.
         11    1    4    4    0    0  0.27182617820E-01  0.40225082533E-01  0.24828766596E-01  0.54531465669E-01  0.51100000000E-03 0. -1.
</event>
<event>
 8    1  0.1128641E+005  0.1043930E+01  0.7957747E-01            NaN
         13   -1    0    0    0    0  0.00000000000E+00  0.00000000000E+00  0.74505805969E-08  0.10566000000E+00  0.10566000000E+00 0. -1.
     999900   -1    0    0    0    0 -0.00000000000E+00 -0.00000000000E+00 -0.74505805969E-08  0.93827000000E+00  0.93827000000E+00 0.  1.
     999902    2    1    2    0    0 -0.17292706459E-01 -0.14723098024E-01 -0.17418208930E-02  0.10211519129E+01  0.10208978342E+01 0.  0.
     999903    2    3    3    0    0  0.24010661956E-01 -0.47341832165E-01 -0.11894842373E+00  0.13182220024E+00  0.20263366175E-01 0.  0.
         14    1    1    2    0    0  0.17292706459E-01  0.14723098024E-01  0.17418208930E-02  0.22778087104E-01  0.00000000000E+00 0. -1.
     999901    1    3    3    0    0 -0.41303368414E-01  0.32618734141E-01  0.11720660284E+00  0.88932971265E+00  0.88000000000E+00 0. -1.
        -11    1    4    4    0    0  0.21952640064E-01 -0.21071653649E-01 -0.65863658207E-01  0.72554914283E-01  0.51100000000E-03 0.  1.
         11    1    4    4    0    0  0.20580218919E-02 -0.26270178515E-01 -0.53084765523E-01  0.59267285959E-01  0.51100000000E-03 0. -1.
</event>
<event>
 8    1  0.1128641E+005  0.1043930E+01  0.7957747E-01            NaN
         13   -1    0    0    0    0  0.00000000000E+00  0.00000000000E+00  0.74505805969E-08  0.10566000000E+00  0.10566000000E+00 0.  1.
     999900   -1    0    0    0    0 -0.00000000000E+00 -0.00000000000E+00 -0.74505805969E-08  0.93827000000E+00  0.93827000000E+00 0. -1.
     999902    2    1    2    0    0 -0.22696237948E-01  0.85784660577E-02  0.57312585355E-02  0.10189989627E+01  0.10186939331E+01 0.  0.
     999903    2    3    3    0    0  0.96299205749E-01  0.33190804441E-01  0.74770409156E-01  0.12797029472E+00  0.20263655125E-01 0.  0.
         14    1    1    2    0    0  0.22696237948E-01 -0.85784660577E-02 -0.57312585355E-02  0.24931037309E-01  0.00000000000E+00 0. -1.
     999901    1    3    3    0    0 -0.11899544370E+00 -0.24612338383E-01 -0.69039150621E-01  0.89102866797E+00  0.88000000000E+00 0. -1.
        -11    1    4    4    0    0  0.44657296086E-01  0.19444969974E-01  0.24183636962E-01  0.54382813174E-01  0.51100000000E-03 0.  1.
         11    1    4    4    0    0  0.51641909663E-01  0.13745834467E-01  0.50586772194E-01  0.73587481550E-01  0.51100000000E-03 0. -1.
</event>
<event>
 8    1  0.1128641E+005  0.1043930E+01  0.7957747E-01            NaN
         13   -1    0    0    0    0  0.00000000000E+00  0.00000000000E+00  0.74505805969E-08  0.10566000000E+00  0.10566000000E+00 0. -1.
     999900   -1    0    0    0    0 -0.00000000000E+00 -0.00000000000E+00 -0.74505805969E-08  0.93827000000E+00  0.93827000000E+00 0.  1.
     999902    2    1    2    0    0  0.27500196079E-02 -0.22139183422E-01  0.10930020137E-01  0.10190870656E+01  0.10187842146E+01 0.  0.
     999903    2    3    3    0    0  0.81666931275E-01 -0.87579106233E-01  0.52303309150E-01  0.13216992656E+00  0.19841013737E-01 0.  0.
         14    1    1    2    0    0 -0.27500196079E-02  0.22139183422E-01 -0.10930020137E-01  0.24842934421E-01  0.00000000000E+00 0.  1.
     999901    1    3    3    0    0 -0.78916911667E-01  0.65439922811E-01 -0.41373289012E-01  0.88691713902E+00  0.88000000000E+00 0. -1.
        -11    1    4    4    0    0  0.50052477159E-01 -0.44839767107E-01  0.20680660489E-01  0.70312203943E-01  0.51100000000E-03 0. -1.
         11    1    4    4    0    0  0.31614454116E-01 -0.42739339126E-01  0.31622648661E-01  0.61857722616E-01  0.51100000000E-03 0.  1.
</event>
<event>
 8    1  0.1128641E+005  0.1043930E+01  0.7957747E-01            NaN
         13   -1    0    0    0    0  0.00000000000E+00  0.00000000000E+00  0.74505805969E-08  0.10566000000E+00  0.10566000000E+00 0.  1.
     999900   -1    0    0    0    0 -0.00000000000E+00 -0.00000000000E+00 -0.74505805969E-08  0.93827000000E+00  0.93827000000E+00 0.  1.
     999902    2    1    2    0    0 -0.84440315573E-02 -0.25056094490E-02  0.21994420130E-01  0.10202375062E+01  0.10199623693E+01 0.  0.
     999903    2    3    3    0    0  0.47201672555E-01  0.88169228761E-01 -0.77652097073E-01  0.12824658745E+00  0.20384509307E-01 0.  0.
         14    1    1    2    0    0  0.84440315573E-02  0.25056094490E-02 -0.21994420130E-01  0.23692493844E-01  0.00000000000E+00 0. -1.
     999901    1    3    3    0    0 -0.55645704112E-01 -0.90674838210E-01  0.99646517203E-01  0.89199091871E+00  0.88000000000E+00 0. -1.
        -11    1    4    4    0    0  0.12745443219E-01  0.15166480671E-01 -0.71521497529E-02  0.21068526903E-01  0.51100000000E-03 0. -1.
         11    1    4    4    0    0  0.34456229335E-01  0.73002748090E-01 -0.70499947320E-01  0.10717806054E+00  0.51100000000E-03 0.  1.
</event>
<event>
 8    1  0.1128641E+005  0.1043930E+01  0.7957747E-01            NaN
         13   -1    0    0    0    0  0.00000000000E+00  0.00000000000E+00  0.74505805969E-08  0.10566000000E+00  0.10566000000E+00 0. -1.
     999900   -1    0    0    0    0 -0.00000000000E+00 -0.00000000000E+00 -0.74505805969E-08  0.93827000000E+00  0.93827000000E+00 0. -1.
     999902    2    1    2    0    0  0.13666636830E-02  0.15031594119E-01  0.17810011177E-01  0.10205844846E+01  0.10203174394E+01 0.  0.
     999903    2    3    3    0    0  0.28218978750E-01  0.49696361507E-01 -0.11450783414E+00  0.12961270889E+00  0.20527326074E-01 0.  0.
         14    1    1    2    0    0 -0.13666636830E-02 -0.15031594119E-01 -0.17810011177E-01  0.23345515404E-01  0.00000000000E+00 0.  1.
     999901    1    3    3    0    0 -0.26852315067E-01 -0.34664767388E-01  0.13231784532E+00  0.89097177571E+00  0.88000000000E+00 0.  1.
        -11    1    4    4    0    0  0.10405587151E-03  0.17110319010E-01 -0.25067711345E-01  0.30354985049E-01  0.51100000000E-03 0.  1.
         11    1    4    4    0    0  0.28114922878E-01  0.32586042498E-01 -0.89440122798E-01  0.99257723836E-01  0.51100000000E-03 0. -1.
</event>
<event>
 8    1  0.1128641E+005  0.1043930E+01  0.7957747E-01            NaN
         13   -1    0    0    0    0  0.00000000000E+00  0.00000000000E+00  0.74505805969E-08  0.10566000000E+00  0.10566000000E+00 0. -1.
     999900   -1    0    0    0    0 -0.00000000000E+00 -0.00000000000E+00 -0.74505805969E-08  0.93827000000E+00  0.93827000000E+00 0.  1.
     999902    2    1    2    0    0  0.39885162058E-02  0.21218572120E-01  0.99664877092E-02  0.10201504512E+01  0.10198732647E+01 0.  0.
     999903    2    3    3    0    0  0.11909968720E+00  0.51045141991E-01  0.16901734859E-01  0.13212550581E+00  0.19522772190E-01 0.  0.
         14    1    1    2    0    0 -0.39885162058E-02 -0.21218572120E-01 -0.99664877092E-02  0.23779548810E-01  0.00000000000E+00 0.  1.
     999901    1    3    3    0    0 -0.11511117099E+00 -0.29826569871E-01 -0.69352471503E-02  0.88802494538E+00  0.88000000000E+00 0.  1.
        -11    1    4    4    0    0  0.10197693109E+00  0.45960767864E-01  0.20954639634E-01  0.11380265683E+00  0.51100000000E-03 0. -1.
         11    1    4    4    0    0  0.17122756105E-01  0.50843741268E-02 -0.40529047747E-02  0.18322848987E-01  0.51100000000E-03 0.  1.
</event>
<event>
 8    1  0.1128641E+005  0.1043930E+01  0.7957747E-01            NaN
         13   -1    0    0    0    0  0.00000000000E+00  0.00000000000E+00  0.74505805969E-08  0.10566000000E+00  0.10566000000E+00 0.  1.
     999900   -1    0    0    0    0 -0.00000000000E+00 -0.00000000000E+00 -0.74505805969E-08  0.93827000000E+00  0.93827000000E+00 0. -1.
     999902    2    1    2    0    0  0.10089573677E-01  0.46083102304E-02 -0.20836498868E-01  0.10203250068E+01  0.10200519221E+01 0.  0.
     999903    2    3    3    0    0  0.92205447001E-02  0.12928663909E+00 -0.98381461809E-02  0.13146821029E+00  0.19673527997E-01 0.  0.
         14    1    1    2    0    0 -0.10089573677E-01 -0.46083102304E-02  0.20836498868E-01  0.23604993227E-01  0.00000000000E+00 0. -1.
     999901    1    3    3    0    0  0.86902897720E-03 -0.12467832886E+00 -0.10998352688E-01  0.88885679649E+00  0.88000000000E+00 0. -1.
        -11    1    4    4    0    0  0.13104519958E-01  0.65753811491E-01 -0.10157489270E-01  0.67813920977E-01  0.51100000000E-03 0.  1.
         11    1    4    4    0    0 -0.38839752578E-02  0.63532827599E-01  0.31934308953E-03  0.63654289309E-01  0.51100000000E-03 0. -1.
</event>
<event>
 7    1  0.1128641E+005  0.1043930E+01  0.7957747E-01            NaN
         13   -1    0    0    0    0  0.00000000000E+00  0.00000000000E+00  0.74505805969E-08  0.10566000000E+00  0.10566000000E+00 0.  1.
     999900   -1    0    0    0    0 -0.00000000000E+00 -0.00000000000E+00 -0.74505805969E-08  0.93827000000E+00  0.93827000000E+00 0. -1.
     999903    2    1    2    0    0 -0.80215029850E-01  0.74794367257E-03 -0.79102569741E-01  0.11465824163E+00  0.21313971951E-01 0.  0.
         14    1    1    2    0    0  0.92500884079E-02  0.29012324929E-02  0.44698170195E-01  0.45737377541E-01  0.00000000000E+00 0.  1.
     999901    1    1    2    0    0  0.70964941442E-01 -0.36491761655E-02  0.34404399545E-01  0.88353438083E+00  0.88000000000E+00 0.  1.
        -11    1    3    3    0    0 -0.40037310517E-01 -0.92322469136E-02 -0.33066294026E-01  0.52743355393E-01  0.51100000000E-03 0. -1.
         11    1    3    3    0    0 -0.40177719332E-01  0.99801905862E-02 -0.46036275715E-01  0.61914886236E-01  0.51100000000E-03 0.  1.
</event>
<event>
 8    1  0.1128641E+005  0.1043930E+01  0.7957747E-01            NaN
         13   -1    0    0    0    0  0.00000000000E+00  0.00000000000E+00  0.74505805969E-08  0.10566000000E+00  0.10566000000E+00 0. -1.
     999900   -1    0    0    0    0 -0.00000000000E+00 -0.00000000000E+00 -0.74505805969E-08  0.93827000000E+00  0.93827000000E+00 0. -1.
     999902    2    1    2    0    0  0.13729005733E-01 -0.30927245044E-02 -0.19756651335E-01  0.10196735408E+01  0.10193849881E+01 0.  0.
     999903    2    3    3    0    0  0.52626805407E-01 -0.44443432438E-01  0.10687906848E+00  0.12879783371E+00  0.20517001620E-01 0.  0.
         14    1    1    2    0    0 -0.13729005733E-01  0.30927245044E-02  0.19756651335E-01  0.24256459248E-01  0.00000000000E+00 0. -1.
     999901    1    3    3    0    0 -0.38897799674E-01  0.41350707934E-01 -0.12663571981E+00  0.89087570704E+00  0.88000000000E+00 0. -1.
        -11    1    4    4    0    0  0.45609233504E-01 -0.42854375648E-01  0.83629907501E-01  0.10445536005E+00  0.51100000000E-03 0. -1.
         11    1    4    4    0    0  0.70175719030E-02 -0.15890567902E-02  0.23249160976E-01  0.24342473662E-01  0.51100000000E-03 0.  1.
</event>
<event>
 8    1  0.1128641E+005  0.1043930E+01  0.7957747E-01            NaN
         13   -1    0    0    0    0  0.00000000000E+00  0.00000000000E+00  0.74505805969E-08  0.10566000000E+00  0.10566000000E+00 0.  1.
     999900   -1    0    0    0    0 -0.00000000000E+00 -0.00000000000E+00 -0.74505805969E-08  0.93827000000E+00  0.93827000000E+00 0.  1.
     999902    2    1    2    0    0 -0.18418372276E-01 -0.15276498075E-01  0.19626316779E-04  0.10200007665E+01  0.10197200378E+01 0.  0.
     999903    2    3    3    0    0  0.40312118646E-01 -0.12276884013E+00  0.12503747534E-01  0.13142903195E+00  0.20493699532E-01 0.  0.
         14    1    1    2    0    0  0.18418372276E-01  0.15276498075E-01 -0.19626316779E-04  0.23929233500E-01  0.00000000000E+00 0.  1.
     999901    1    3    3    0    0 -0.58730490922E-01  0.10749234205E+00 -0.12484121217E-01  0.88857173455E+00  0.88000000000E+00 0.  1.
        -11    1    4    4    0    0  0.23602807136E-01 -0.63604763611E-01  0.16488004422E-01  0.69819580846E-01  0.51100000000E-03 0. -1.
         11    1    4    4    0    0  0.16709311510E-01 -0.59164076515E-01 -0.39842568877E-02  0.61609451101E-01  0.51100000000E-03 0.  1.
</event>
<event>
 8    1  0.1128641E+005  0.1043930E+01  0.7957747E-01            NaN
         13   -1    0    0    0    0  0.00000000000E+00  0.00000000000E+00  0.74505805969E-08  0.10566000000E+00  0.10566000000E+00 0.  1.
     999900   -1    0    0    0    0 -0.00000000000E+00 -0.00000000000E+00 -0.74505805969E-08  0.93827000000E+00  0.93827000000E+00 0. -1.
     999902    2    1    2    0    0  0.16381556404E-01 -0.89581064280E-02  0.14458348817E-01  0.10203154513E+01  0.10200421429E+01 0.  0.
     999903    2    3    3    0    0 -0.39976451598E-01 -0.82026378779E-01 -0.89516140233E-01  0.12940249713E+00  0.20135128584E-01 0.  0.
         14    1    1    2    0    0 -0.16381556404E-01  0.89581064280E-02 -0.14458348817E-01  0.23614548725E-01  0.00000000000E+00 0.  1.
     999901    1    3    3    0    0  0.56358008002E-01  0.73068272351E-01  0.10397448905E+00  0.89091295415E+00  0.88000000000E+00 0.  1.
        -11    1    4    4    0    0 -0.54342108183E-02 -0.29532071337E-01 -0.35823185453E-01  0.46746503844E-01  0.51100000000E-03 0. -1.
         11    1    4    4    0    0 -0.34542240780E-01 -0.52494307443E-01 -0.53692954781E-01  0.82655993286E-01  0.51100000000E-03 0.  1.
</event>
<event>
 8    1  0.1128641E+005  0.1043930E+01  0.7957747E-01            NaN
         13   -1    0    0    0    0  0.00000000000E+00  0.00000000000E+00  0.74505805969E-08  0.10566000000E+00  0.10566000000E+00 0.  1.
     999900   -1    0    0    0    0 -0.00000000000E+00 -0.00000000000E+00 -0.74505805969E-08  0.93827000000E+00  0.93827000000E+00 0.  1.
     999902    2    1    2    0    0 -0.60375263222E-02  0.17263592268E-01 -0.18792264277E-01  0.10177072515E+01  0.10173693613E+01 0.  0.
     999903    2    3    3    0    0  0.99217796581E-01  0.43955407882E-01  0.63374422197E-01  0.12723406247E+00  0.19898246742E-01 0.  0.
         14    1    1    2    0    0  0.60375263222E-02 -0.17263592268E-01  0.18792264277E-01  0.26222748497E-01  0.00000000000E+00 0.  1.
     999901    1    3    3    0    0 -0.10525532290E+00 -0.26691815614E-01 -0.82166686474E-01  0.89047318903E+00  0.88000000000E+00 0.  1.
        -11    1    4    4    0    0  0.67545346884E-01  0.39639695898E-01  0.43460780081E-01  0.89569972104E-01  0.51100000000E-03 0. -1.
         11    1    4    4    0    0  0.31672449697E-01  0.43157119840E-02  0.19913642116E-01  0.37664090366E-01  0.51100000000E-03 0.  1.
</event>
<event>
 8    1  0.1128641E+005  0.1043930E+01  0.7957747E-01            NaN
         13   -1    0    0    0    0  0.00000000000E+00  0.00000000000E+00  0.74505805969E-08  0.10566000000E+00  0.10566000000E+00 0.  1.
     999900   -1    0    0    0    0 -0.00000000000E+00 -0.00000000000E+00 -0.74505805969E-08  0.93827000000E+00  0.93827000000E+00 0. -1.
     999902    2    1    2    0    0 -0.15358210922E-01 -0.18323024938E-01 -0.23480351025E-04  0.10200216660E+01  0.10197414332E+01 0.  0.
     999903    2    3    3    0    0  0.57924964577E-02 -0.58891168570E-01  0.11549264219E+00  0.13129386664E+00  0.19945081262E-01 0.  0.
         14    1    1    2    0    0  0.15358210922E-01  0.18323024938E-01  0.23480351025E-04  0.23908334047E-01  0.00000000000E+00 0. -1.
     999901    1    3    3    0    0 -0.21150707379E-01  0.40568143631E-01 -0.11551612254E+00  0.88872779931E+00  0.88000000000E+00 0. -1.
        -11    1    4    4    0    0 -0.59169945028E-02 -0.76825836176E-02  0.14426878326E-01  0.17390481713E-01  0.51100000000E-03 0. -1.
         11    1    4    4    0    0  0.11709490960E-01 -0.51208584952E-01  0.10106576387E+00  0.11390338493E+00  0.51100000000E-03 0.  1.
</event>
<event>
 8    1  0.1128641E+005  0.1043930E+01  0.7957747E-01            NaN
         13   -1    0    0    0    0  0.00000000000E+00  0.00000000000E+00  0.74505805969E-08  0.10566000000E+00  0.10566000000E+00 0.  1.
     999900   -1    0    0    0    0 -0.00000000000E+00 -0.00000000000E+00 -0.74505805969E-08  0.93827000000E+00  0.93827000000E+00 0.  1.
     999902    2    1    2    0    0  0.15320181188E-01  0.13892968800E-01 -0.63622688228E-02  0.10222920473E+01  0.10220630259E+01 0.  0.
     999903    2    3    3    0    0  0.85202011442E-02  0.13196944263E+00  0.10550866148E-01  0.13421865642E+00  0.20366623214E-01 0.  0.
         14    1    1    2    0    0 -0.15320181188E-01 -0.13892968800E-01  0.63622688228E-02  0.21637952728E-01  0.00000000000E+00 0.  1.
     999901    1    3    3    0    0  0.67999800436E-02 -0.11807647383E+00 -0.16913134971E-01  0.88807339085E+00  0.88000000000E+00 0.  1.
        -11    1    4    4    0    0  0.10558639817E-01  0.63975855381E-01  0.13063834096E-01  0.66146200411E-01  0.51100000000E-03 0. -1.
         11    1    4    4    0    0 -0.20384386732E-02  0.67993587244E-01 -0.25129679482E-02  0.68072456012E-01  0.51100000000E-03 0.  1.
</event>
<event>
 8    1  0.1128641E+005  0.1043930E+01  0.7957747E-01            NaN
         13   -1    0    0    0    0  0.00000000000E+00  0.00000000000E+00  0.74505805969E-08  0.10566000000E+00  0.10566000000E+00 0.  1.
     999900   -1    0    0    0    0 -0.00000000000E+00 -0.00000000000E+00 -0.74505805969E-08  0.93827000000E+00  0.93827000000E+00 0. -1.
     999902    2    1    2    0    0  0.15750101124E-01 -0.17852705990E-01  0.19167788582E-02  0.10200457199E+01  0.10197660574E+01 0.  0.
     999903    2    3    3    0    0  0.68850423793E-02  0.94371347418E-01 -0.84802547413E-01  0.12864621965E+00  0.20125177262E-01 0.  0.
         14    1    1    2    0    0 -0.15750101124E-01  0.17852705990E-01 -0.19167788582E-02  0.23884280140E-01  0.00000000000E+00 0. -1.
     999901    1    3    3    0    0  0.88650587451E-02 -0.11222405341E+00  0.86719326271E-01  0.89139950021E+00  0.88000000000E+00 0.  1.
        -11    1    4    4    0    0 -0.36514313160E-02  0.42007249084E-01 -0.47368348002E-01  0.63418951739E-01  0.51100000000E-03 0. -1.
         11    1    4    4    0    0  0.10536473695E-01  0.52364098334E-01 -0.37434199411E-01  0.65227267909E-01  0.51100000000E-03 0.  1.
</event>
<event>
 8    1  0.1128641E+005  0.1043930E+01  0.7957747E-01            NaN
         13   -1    0    0    0    0  0.00000000000E+00  0.00000000000E+00  0.74505805969E-08  0.10566000000E+00  0.10566000000E+00 0.  1.
     999900   -1    0    0    0    0 -0.00000000000E+00 -0.00000000000E+00 -0.74505805969E-08  0.93827000000E+00  0.93827000000E+00 0. -1.
     999902    2    1    2    0    0  0.10806806580E-03 -0.87688072954E-02 -0.19842356716E-01  0.10222361580E+01  0.10220059393E+01 0.  0.
     999903    2    3    3    0    0  0.34311947156E-01  0.96668970361E-01 -0.82346783361E-01  0.13308272151E+00  0.20194516218E-01 0.  0.
         14    1    1    2    0    0 -0.10806806580E-03  0.87688072954E-02  0.19842356716E-01  0.21693841987E-01  0.00000000000E+00 0.  1.
     999901    1    3    3    0    0 -0.34203879090E-01 -0.10543777766E+00  0.62504426645E-01  0.88915343651E+00  0.88000000000E+00 0.  1.
        -11    1    4    4    0    0  0.17895966621E-01  0.74371202489E-01 -0.65188696574E-01  0.10050457036E+00  0.51100000000E-03 0. -1.
         11    1    4    4    0    0  0.16415980535E-01  0.22297767872E-01 -0.17158086787E-01  0.32578151147E-01  0.51100000000E-03 0.  1.
</event>
<event>
 8    1  0.1128641E+005  0.1043930E+01  0.7957747E-01            NaN
         13   -1    0    0    0    0  0.00000000000E+00  0.00000000000E+00  0.74505805969E-08  0.10566000000E+00  0.10566000000E+00 0. -1.
     999900   -1    0    0    0    0 -0.00000000000E+00 -0.00000000000E+00 -0.74505805969E-08  0.93827000000E+00  0.93827000000E+00 0. -1.
     999902    2    1    2    0    0 -0.68224254104E-02 -0.19523180456E-01  0.12581035348E-01  0.10197229243E+01  0.10194355594E+01 0.  0.
     999903    2    3    3    0    0 -0.90612420519E-01 -0.86142022809E-01 -0.36424427973E-01  0.13188264087E+00  0.20862242561E-01 0.  0.
         14    1    1    2    0    0  0.68224254104E-02  0.19523180456E-01 -0.12581035348E-01  0.24207075701E-01  0.00000000000E+00 0.  1.
     999901    1    3    3    0    0  0.83789995109E-01  0.66618842354E-01  0.49005463320E-01  0.88784028342E+00  0.88000000000E+00 0. -1.
        -11    1    4    4    0    0 -0.44670432214E-01 -0.36742907767E-01 -0.69361696825E-02  0.58256848149E-01  0.51100000000E-03 0.  1.
         11    1    4    4    0    0 -0.45941988305E-01 -0.49399115042E-01 -0.29488258290E-01  0.73625792725E-01  0.51100000000E-03 0. -1.
</event>
<event>
 8    1  0.1128641E+005  0.1043930E+01  0.7957747E-01            NaN
         13   -1    0    0    0    0  0.00000000000E+00  0.00000000000E+00  0.74505805969E-08  0.10566000000E+00  0.10566000000E+00 0. -1.
     999900   -1    0    0    0    0 -0.00000000000E+00 -0.00000000000E+00 -0.74505805969E-08  0.93827000000E+00  0.93827000000E+00 0. -1.
     999902    2    1    2    0    0 -0.25812760900E-01  0.15336594047E-02 -0.61535176370E-02  0.10173496216E+01  0.10170023284E+01 0.  0.
     999903    2    3    3    0    0 -0.11476024257E+00 -0.38235520719E-01 -0.46103335665E-01  0.13107131873E+00  0.20550053911E-01 0.  0.
         14    1    1    2    0    0  0.25812760900E-01 -0.15336594047E-02  0.61535176370E-02  0.26580378398E-01  0.00000000000E+00 0. -1.
     999901    1    3    3    0    0  0.88947481666E-01  0.39769180123E-01  0.39949818028E-01  0.88627830287E+00  0.88000000000E+00 0. -1.
        -11    1    4    4    0    0 -0.92394983439E-01 -0.38652880117E-01 -0.40271980359E-01  0.10794893065E+00  0.51100000000E-03 0.  1.
         11    1    4    4    0    0 -0.22365259127E-01  0.41735939840E-03 -0.58313553060E-02  0.23122388078E-01  0.51100000000E-03 0. -1.
</event>
<event>
 8    1  0.1128641E+005  0.1043930E+01  0.7957747E-01            NaN
         13   -1    0    0    0    0  0.00000000000E+00  0.00000000000E+00  0.74505805969E-08  0.10566000000E+00  0.10566000000E+00 0. -1.
     999900   -1    0    0    0    0 -0.00000000000E+00 -0.00000000000E+00 -0.74505805969E-08  0.93827000000E+00  0.93827000000E+00 0.  1.
     999902    2    1    2    0    0 -0.18753298991E-01  0.96182240229E-02  0.10739472461E-01  0.10202755559E+01  0.10200013124E+01 0.  0.
     999903    2    3    3    0    0  0.98687021994E-01 -0.30529953793E-01 -0.72341070892E-01  0.12769139637E+00  0.20016387818E-01 0.  0.
         14    1    1    2    0    0  0.18753298991E-01 -0.96182240229E-02 -0.10739472461E-01  0.23654444089E-01  0.00000000000E+00 0.  1.
     999901    1    3    3    0    0 -0.11744032098E+00  0.40148177816E-01  0.83080543353E-01  0.89258415954E+00  0.88000000000E+00 0.  1.
        -11    1    4    4    0    0  0.47778630851E-01 -0.15053019351E-01 -0.47239209066E-01  0.68856335597E-01  0.51100000000E-03 0.  1.
         11    1    4    4    0    0  0.50908391143E-01 -0.15476934442E-01 -0.25101861826E-01  0.58835060776E-01  0.51100000000E-03 0. -1.
</event>
<event>
 8    1  0.1128641E+005  0.1043930E+01  0.7957747E-01            NaN
         13   -1    0    0    0    0  0.00000000000E+00  0.00000000000E+00  0.74505805969E-08  0.10566000000E+00  0.10566000000E+00 0. -1.
     999900   -1    0    0    0    0 -0.00000000000E+00 -0.00000000000E+00 -0.74505805969E-08  0.93827000000E+00  0.93827000000E+00 0. -1.
     999902    2    1    2    0    0 -0.13469906978E-01 -0.11914309164E-01  0.23511843441E-01  0.10143293929E+01  0.10138973920E+01 0.  0.
     999903    2    3    3    0    0  0.73447592202E-01  0.37680636285E-01  0.93107413495E-01  0.12592753924E+00  0.19348786508E-01 0.  0.
         14    1    1    2    0    0  0.13469906978E-01  0.11914309164E-01 -0.23511843441E-01  0.29600607069E-01  0.00000000000E+00 0.  1.
     999901    1    3    3    0    0 -0.86917499179E-01 -0.49594945449E-01 -0.69595570054E-01  0.88840185370E+00  0.88000000000E+00 0. -1.
        -11    1    4    4    0    0  0.43825082041E-01  0.32343964225E-01  0.55633769992E-01  0.77859792719E-01  0.51100000000E-03 0. -1.
         11    1    4    4    0    0  0.29622510161E-01  0.53366720600E-02  0.37473643502E-01  0.48067746517E-01  0.51100000000E-03 0.  1.
</event>
<event>
 8    1  0.1128641E+005  0.1043930E+01  0.7957747E-01            NaN
         13   -1    0    0    0    0  0.00000000000E+00  0.00000000000E+00  0.74505805969E-08  0.10566000000E+00  0.10566000000E+00 0. -1.
     999900   -1    0    0    0    0 -0.00000000000E+00 -0.00000000000E+00 -0.74505805969E-08  0.93827000000E+00  0.93827000000E+00 0.  1.
     999902    2    1    2    0    0 -0.14095370349E-01 -0.12598206642E-01  0.16169483128E-01  0.10190533752E+01  0.10187496921E+01 0.  0.
     999903    2    3    3    0    0  0.70517673122E-01  0.30285177385E-01 -0.98381567055E-01  0.12657351839E+00  0.21260024200E-01 0.  0.
         14    1    1    2    0    0  0.14095370349E-01  0.12598206642E-01 -0.16169483128E-01  0.24876624781E-01  0.00000000000E+00 0.  1.
     999901    1    3    3    0    0 -0.84613043471E-01 -0.42883384028E-01  0.11455105018E+00  0.89247985683E+00  0.88000000000E+00 0.  1.
        -11    1    4    4    0    0  0.48852136678E-01  0.23254685616E-01 -0.83019103149E-01  0.99094622810E-01  0.51100000000E-03 0.  1.
         11    1    4    4    0    0  0.21665536443E-01  0.70304917693E-02 -0.15362463906E-01  0.27478895577E-01  0.51100000000E-03 0. -1.
</event>
<event>
 8    1  0.1128641E+005  0.1043930E+01  0.7957747E-01            NaN
         13   -1    0    0    0    0  0.00000000000E+00  0.00000000000E+00  0.74505805969E-08  0.10566000000E+00  0.10566000000E+00 0. -1.
     999900   -1    0    0    0    0 -0.00000000000E+00 -0.00000000000E+00 -0.74505805969E-08  0.93827000000E+00  0.93827000000E+00 0. -1.
     999902    2    1    2    0    0 -0.16069595079E-01 -0.16448421638E-01 -0.57638638997E-02  0.10202233641E+01  0.10199478947E+01 0.  0.
     999903    2    3    3    0    0 -0.52800795307E-01  0.11317469294E+00 -0.28236749151E-01  0.12968624329E+00  0.20610011856E-01 0.  0.
         14    1    1    2    0    0  0.16069595079E-01  0.16448421638E-01  0.57638638997E-02  0.23706635937E-01  0.00000000000E+00 0.  1.
     999901    1    3    3    0    0  0.36731200228E-01 -0.12962311458E+00  0.22472885252E-01  0.89053712077E+00  0.88000000000E+00 0.  1.
        -11    1    4    4    0    0 -0.28229706336E-01  0.37265080665E-01 -0.90098236335E-02  0.47613449778E-01  0.51100000000E-03 0. -1.
         11    1    4    4    0    0 -0.24571088971E-01  0.75909612276E-01 -0.19226925518E-01  0.82072793513E-01  0.51100000000E-03 0.  1.
</event>
<event>
 8    1  0.1128641E+005  0.1043930E+01  0.7957747E-01            NaN
         13   -1    0    0    0    0  0.00000000000E+00  0.00000000000E+00  0.74505805969E-08  0.10566000000E+00  0.10566000000E+00 0.  1.
     999900   -1    0    0    0    0 -0.00000000000E+00 -0.00000000000E+00 -0.74505805969E-08  0.93827000000E+00  0.93827000000E+00 0. -1.
     999902    2    1    2    0    0 -0.71858926803E-02  0.22620177268E-01 -0.15835882936E-02  0.10201430871E+01  0.10198657269E+01 0.  0.
     999903    2    3    3    0    0  0.12644884084E+00 -0.18377703514E-03 -0.18803396838E-01  0.12959562394E+00  0.21262993433E-01 0.  0.
         14    1    1    2    0    0  0.71858926803E-02 -0.22620177268E-01  0.15835882936E-02  0.23786912896E-01  0.00000000000E+00 0.  1.
     999901    1    3    3    0    0 -0.13363473352E+00  0.22803954303E-01  0.17219808544E-01  0.89054746316E+00  0.88000000000E+00 0. -1.
        -11    1    4    4    0    0  0.19247034226E-01  0.13105209962E-02 -0.10724854892E-01  0.22078256843E-01  0.51100000000E-03 0. -1.
         11    1    4    4    0    0  0.10720180661E+00 -0.14942980313E-02 -0.80785419457E-02  0.10751736710E+00  0.51100000000E-03 0.  1.
</event>
<event>
 8    1  0.1128641E+005  0.1043930E+01  0.7957747E-01            NaN
         13   -1    0    0    0    0  0.00000000000E+00  0.00000000000E+00  0.74505805969E-08  0.10566000000E+00  0.10566000000E+00 0. -1.
     999900   -1    0    0    0    0 -0.00000000000E+00 -0.00000000000E+00 -0.74505805969E-08  0.93827000000E+00  0.93827000000E+00 0. -1.
     999902    2    1    2    0    0  0.10094404628E-01 -0.14356571876E-01  0.15459650102E-01  0.10205417777E+01  0.10202737432E+01 0.  0.
     999903    2    3    3    0    0  0.10983840077E-01  0.67157304916E-01  0.11086573335E+00  0.13163929491E+00  0.20172872523E-01 0.  0.
         14    1    1    2    0    0 -0.10094404628E-01  0.14356571876E-01 -0.15459650102E-01  0.23388222295E-01  0.00000000000E+00 0.  1.
     999901    1    3    3    0    0 -0.88943544855E-03 -0.81513876793E-01 -0.95406083248E-01  0.88890248280E+00  0.88000000000E+00 0. -1.
        -11    1    4    4    0    0  0.23601689653E-02  0.30542823210E-01  0.68144180139E-01  0.74714957371E-01  0.51100000000E-03 0.  1.
         11    1    4    4    0    0  0.86236711112E-02  0.36614481707E-01  0.42721553211E-01  0.56924337536E-01  0.51100000000E-03 0. -1.
</event>
<event>
 8    1  0.1128641E+005  0.1043930E+01  0.7957747E-01            NaN
         13   -1    0    0    0    0  0.00000000000E+00  0.00000000000E+00  0.74505805969E-08  0.10566000000E+00  0.10566000000E+00 0. -1.
     999900   -1    0    0    0    0 -0.00000000000E+00 -0.00000000000E+00 -0.74505805969E-08  0.93827000000E+00  0.93827000000E+00 0. -1.
     999902    2    1    2    0    0  0.21416376922E-01 -0.94675070468E-02 -0.18912067727E-02  0.10204380534E+01  0.10201676085E+01 0.  0.
     999903    2    3    3    0    0  0.41159031003E-01  0.57403824664E-01 -0.10925681076E+00  0.13117492010E+00  0.16749449185E-01 0.  0.
         14    1    1    2    0    0 -0.21416376922E-01  0.94675070468E-02  0.18912067727E-02  0.23491946560E-01  0.00000000000E+00 0. -1.
     999901    1    3    3    0    0 -0.19742654081E-01 -0.66871331710E-01  0.10736560398E+00  0.88926313334E+00  0.88000000000E+00 0.  1.
        -11    1    4    4    0    0  0.25780841124E-01  0.35378992034E-01 -0.52338590630E-01  0.68234258526E-01  0.51100000000E-03 0.  1.
         11    1    4    4    0    0  0.15378189878E-01  0.22024832629E-01 -0.56918220126E-01  0.62940661576E-01  0.51100000000E-03 0. -1.
</event>
<event>
 8    1  0.1128641E+005  0.1043930E+01  0.7957747E-01            NaN
         13   -1    0    0    0    0  0.00000000000E+00  0.00000000000E+00  0.74505805969E-08  0.10566000000E+00  0.10566000000E+00 0.  1.
     999900   -1    0    0    0    0 -0.00000000000E+00 -0.00000000000E+00 -0.74505805969E-08  0.93827000000E+00  0.93827000000E+00 0. -1.
     999902    2    1    2    0    0  0.93039523312E-02  0.16163782092E-01  0.14635847490E-01  0.10202226296E+01  0.10199471430E+01 0.  0.
     999903    2    3    3    0    0 -0.87653037240E-01 -0.47442136028E-01  0.81715340140E-01  0.13008442178E+00  0.17628067616E-01 0.  0.
         14    1    1    2    0    0 -0.93039523312E-02 -0.16163782092E-01 -0.14635847490E-01  0.23707370420E-01  0.00000000000E+00 0. -1.
     999901    1    3    3    0    0  0.96956989572E-01  0.63605918120E-01 -0.67079492650E-01  0.89013820780E+00  0.88000000000E+00 0. -1.
        -11    1    4    4    0    0 -0.23429494617E-01 -0.45656156666E-02  0.22007431721E-01  0.32471129275E-01  0.51100000000E-03 0. -1.
         11    1    4    4    0    0 -0.64223542623E-01 -0.42876520361E-01  0.59707908419E-01  0.97613292508E-01  0.51100000000E-03 0.  1.
</event>
<event>
 8    1  0.1128641E+005  0.1043930E+01  0.7957747E-01            NaN
         13   -1    0    0    0    0  0.00000000000E+00  0.00000000000E+00  0.74505805969E-08  0.10566000000E+00  0.10566000000E+00 0. -1.
     999900   -1    0    0    0    0 -0.00000000000E+00 -0.00000000000E+00 -0.74505805969E-08  0.93827000000E+00  0.93827000000E+00 0.  1.
     999902    2    1    2    0    0 -0.13225396680E-01  0.12199561758E-01 -0.13216748055E-01  0.10216046141E+01  0.10213606438E+01 0.  0.
     999903    2    3    3    0    0 -0.39881788046E-01  0.72974145256E-01 -0.10391024350E+00  0.13445782623E+00  0.19125517920E-01 0.  0.
         14    1    1    2    0    0  0.13225396680E-01 -0.12199561758E-01  0.13216748055E-01  0.22325385855E-01  0.00000000000E+00 0. -1.
     999901    1    3    3    0    0  0.26656391366E-01 -0.60774583498E-01  0.90693495443E-01  0.88714678792E+00  0.88000000000E+00 0. -1.
        -11    1    4    4    0    0 -0.21293984292E-01  0.30345280562E-01 -0.32868735476E-01  0.49546793157E-01  0.51100000000E-03 0. -1.
         11    1    4    4    0    0 -0.18587803754E-01  0.42628864694E-01 -0.71041508023E-01  0.84911033068E-01  0.51100000000E-03 0.  1.
</event>
<event>
 8    1  0.1128641E+005  0.1043930E+01  0.7957747E-01            NaN
         13   -1    0    0    0    0  0.00000000000E+00  0.00000000000E+00  0.74505805969E-08  0.10566000000E+00  0.10566000000E+00 0. -1.
     999900   -1    0    0    0    0 -0.00000000000E+00 -0.00000000000E+00 -0.74505805969E-08  0.93827000000E+00  0.93827000000E+00 0. -1.
     999902    2    1    2    0    0 -0.21569708855E-01  0.59356304524E-02  0.63476854520E-02  0.10206753841E+01  0.10204104383E+01 0.  0.
     999903    2    3    3    0    0  0.12058126111E+00  0.53001179379E-02 -0.38187841545E-01  0.12815607604E+00  0.19943339816E-01 0.  0.
         14    1    1    2    0    0  0.21569708855E-01 -0.59356304524E-02 -0.63476854520E-02  0.23254615876E-01  0.00000000000E+00 0.  1.
     999901    1    3    3    0    0 -0.14215096996E+00  0.63551251452E-03  0.44535526997E-01  0.89251930808E+00  0.88000000000E+00 0. -1.
        -11    1    4    4    0    0  0.66637033718E-01  0.13725104440E-02 -0.10780863224E-01  0.67519376334E-01  0.51100000000E-03 0. -1.
         11    1    4    4    0    0  0.53944227392E-01  0.39276074939E-02 -0.27406978321E-01  0.60636699706E-01  0.51100000000E-03 0.  1.
</event>
<event>
 8    1  0.1128641E+005  0.1043930E+01  0.7957747E-01            NaN
         13   -1    0    0    0    0  0.00000000000E+00  0.00000000000E+00  0.74505805969E-08  0.10566000000E+00  0.10566000000E+00 0. -1.
     999900   -1    0    0    0    0 -0.00000000000E+00 -0.00000000000E+00 -0.74505805969E-08  0.93827000000E+00  0.93827000000E+00 0. -1.
     999902    2    1    2    0    0 -0.27542761224E-02 -0.24337931989E-01 -0.13402589435E-02  0.10194000741E+01  0.10191048983E+01 0.  0.
     999903    2    3    3    0    0 -0.56264245474E-01 -0.12486626801E-01 -0.11528997843E+00  0.13036221843E+00  0.19517881521E-01 0.  0.
         14    1    1    2    0    0  0.27542761224E-02  0.24337931989E-01  0.13402589435E-02  0.24529925897E-01  0.00000000000E+00 0.  1.
     999901    1    3    3    0    0  0.53509969352E-01 -0.11851305188E-01  0.11394971949E+00  0.88903785568E+00  0.88000000000E+00 0.  1.
        -11    1    4    4    0    0 -0.44465776505E-01 -0.13023775299E-02 -0.81104849382E-01  0.92504914365E-01  0.51100000000E-03 0.  1.
         11    1    4    4    0    0 -0.11798468969E-01 -0.11184249271E-01 -0.34185129048E-01  0.37857304061E-01  0.51100000000E-03 0. -1.
</event>
<event>
 8    1  0.1128641E+005  0.1043930E+01  0.7957747E-01            NaN
         13   -1    0    0    0    0  0.00000000000E+00  0.00000000000E+00  0.74505805969E-08  0.10566000000E+00  0.10566000000E+00 0. -1.
     999900   -1    0    0    0    0 -0.00000000000E+00 -0.00000000000E+00 -0.74505805969E-08  0.93827000000E+00  0.93827000000E+00 0.  1.
     999902    2    1    2    0    0  0.32927373425E-01 -0.46026954391E-02  0.36363533686E-03  0.10106805044E+01  0.10101334333E+01 0.  0.
     999903    2    3    3    0    0 -0.59803876941E-01 -0.45498827184E-01  0.91613603752E-01  0.12017607707E+00  0.20064648897E-01 0.  0.
         14    1    1    2    0    0 -0.32927373425E-01  0.46026954391E-02 -0.36363533686E-03  0.33249495584E-01  0.00000000000E+00 0.  1.
     999901    1    3    3    0    0  0.92731250365E-01  0.40896131745E-01 -0.91249968415E-01  0.89050442735E+00  0.88000000000E+00 0.  1.
        -11    1    4    4    0    0 -0.20075874044E-01 -0.21573649652E-01  0.23132313863E-01  0.37467694666E-01  0.51100000000E-03 0.  1.
         11    1    4    4    0    0 -0.39728002897E-01 -0.23925177532E-01  0.68481289889E-01  0.82708382404E-01  0.51100000000E-03 0. -1.
</event>
<event>
 8    1  0.1128641E+005  0.1043930E+01  0.7957747E-01            NaN
         13   -1    0    0    0    0  0.00000000000E+00  0.00000000000E+00  0.74505805969E-08  0.10566000000E+00  0.10566000000E+00 0. -1.
     999900   -1    0    0    0    0 -0.00000000000E+00 -0.00000000000E+00 -0.74505805969E-08  0.93827000000E+00  0.93827000000E+00 0. -1.
     999902    2    1    2    0    0 -0.19431262684E-01  0.11110122932E-01  0.10458418320E-01  0.10192239822E+01  0.10189245009E+01 0.  0.
     999903    2    3    3    0    0  0.92584954401E-01 -0.58689986485E-01 -0.60810234877E-01  0.12653203698E+00  0.17204168697E-01 0.  0.
         14    1    1    2    0    0  0.19431262684E-01 -0.11110122932E-01 -0.10458418320E-01  0.24706017785E-01  0.00000000000E+00 0.  1.
     999901    1    3    3    0    0 -0.11201621708E+00  0.69800109417E-01  0.71268653197E-01  0.89269194524E+00  0.88000000000E+00 0.  1.
        -11    1    4    4    0    0  0.47457016775E-01 -0.35068352985E-01 -0.41100471386E-01  0.71912917417E-01  0.51100000000E-03 0. -1.
         11    1    4    4    0    0  0.45127937626E-01 -0.23621633500E-01 -0.19709763491E-01  0.54619119560E-01  0.51100000000E-03 0.  1.
</event>
<event>
 8    1  0.1128641E+005  0.1043930E+01  0.7957747E-01            NaN
         13   -1    0    0    0    0  0.00000000000E+00  0.00000000000E+00  0.74505805969E-08  0.10566000000E+00  0.10566000000E+00 0. -1.
     999900   -1    0    0    0    0 -0.00000000000E+00 -0.00000000000E+00 -0.74505805969E-08  0.93827000000E+00  0.93827000000E+00 0.  1.
     999902    2    1    2    0    0  0.13440647183E-01 -0.17438281248E-01 -0.86255513816E-02  0.10202837575E+01  0.10200097063E+01 0.  0.
     999903    2    3    3    0    0  0.11256464485E+00  0.60054758102E-01 -0.23392601942E-01  0.13121187969E+00  0.19798239924E-01 0.  0.
         14    1    1    2    0    0 -0.13440647183E-01  0.17438281248E-01  0.86255513816E-02  0.23646242539E-01  0.00000000000E+00 0. -1.
     999901    1    3    3    0    0 -0.99123997672E-01 -0.77493039350E-01  0.14767050560E-01  0.88907187777E+00  0.88000000000E+00 0. -1.
        -11    1    4    4    0    0  0.10063926790E+00  0.58503999776E-01 -0.25012741049E-01  0.11906669798E+00  0.51100000000E-03 0.  1.
         11    1    4    4    0    0  0.11925376959E-01  0.15507583262E-02  0.16201391072E-02  0.12145181708E-01  0.51100000000E-03 0. -1.
</event>
<event>
 8    1  0.1128641E+005  0.1043930E+01  0.7957747E-01            NaN
         13   -1    0    0    0    0  0.00000000000E+00  0.00000000000E+00  0.74505805969E-08  0.10566000000E+00  0.10566000000E+00 0.  1.
     999900   -1    0    0    0    0 -0.00000000000E+00 -0.00000000000E+00 -0.74505805969E-08  0.93827000000E+00  0.93827000000E+00 0.  1.
     999902    2    1    2    0    0 -0.56005792745E-02 -0.16717404989E-01  0.15396002403E-01  0.10205232700E+01  0.10202548062E+01 0.  0.
     999903    2    3    3    0    0  0.32717793518E-01 -0.12508239547E+00  0.26160765289E-01  0.13298332785E+00  0.16855864705E-01 0.  0.
         14    1    1    2    0    0  0.56005792745E-02  0.16717404989E-01 -0.15396002403E-01  0.23406729968E-01  0.00000000000E+00 0. -1.
     999901    1    3    3    0    0 -0.38318372792E-01  0.10836499048E+00 -0.10764762885E-01  0.88753994219E+00  0.88000000000E+00 0. -1.
        -11    1    4    4    0    0  0.17566027788E-01 -0.93060053681E-01  0.22682528361E-01  0.97383248751E-01  0.51100000000E-03 0.  1.
         11    1    4    4    0    0  0.15151765730E-01 -0.32022341790E-01  0.34782369274E-02  0.35600079095E-01  0.51100000000E-03 0. -1.
</event>
<event>
 8    1  0.1128641E+005  0.1043930E+01  0.7957747E-01            NaN
         13   -1    0    0    0    0  0.00000000000E+00  0.00000000000E+00  0.74505805969E-08  0.10566000000E+00  0.10566000000E+00 0.  1.
     999900   -1    0    0    0    0 -0.00000000000E+00 -0.00000000000E+00 -0.74505805969E-08  0.93827000000E+00  0.93827000000E+00 0. -1.
     999902    2    1    2    0    0 -0.53225300013E-02  0.22510243462E-01 -0.66479428212E-02  0.10198626875E+01  0.10195786708E+01 0.  0.
     999903    2    3    3    0    0 -0.11014727665E+00 -0.53269329315E-01  0.36876552285E-01  0.12934309041E+00  0.19992771922E-01 0.  0.
         14    1    1    2    0    0  0.53225300013E-02 -0.22510243462E-01  0.66479428212E-02  0.24067312482E-01  0.00000000000E+00 0. -1.
     999901    1    3    3    0    0  0.10482474665E+00  0.75779572777E-01 -0.43524495106E-01  0.89051959711E+00  0.88000000000E+00 0. -1.
        -11    1    4    4    0    0 -0.57717535743E-01 -0.28384415911E-01  0.29753396076E-01  0.70869702257E-01  0.51100000000E-03 0. -1.
         11    1    4    4    0    0 -0.52429740907E-01 -0.24884913404E-01  0.71231562087E-02  0.58473388153E-01  0.51100000000E-03 0.  1.
</event>
<event>
 8    1  0.1128641E+005  0.1043930E+01  0.7957747E-01            NaN
         13   -1    0    0    0    0  0.00000000000E+00  0.00000000000E+00  0.74505805969E-08  0.10566000000E+00  0.10566000000E+00 0. -1.
     999900   -1    0    0    0    0 -0.00000000000E+00 -0.00000000000E+00 -0.74505805969E-08  0.93827000000E+00  0.93827000000E+00 0. -1.
     999902    2    1    2    0    0  0.94820964152E-02  0.14161827061E-01  0.16218592693E-01  0.10204032015E+01  0.10201319441E+01 0.  0.
     999903    2    3    3    0    0  0.97534908709E-01 -0.55382298249E-01  0.66330645663E-01  0.13186456928E+00  0.20205264186E-01 0.  0.
         14    1    1    2    0    0 -0.94820964152E-02 -0.14161827061E-01 -0.16218592693E-01  0.23526798488E-01  0.00000000000E+00 0.  1.
     999901    1    3    3    0    0 -0.88052812294E-01  0.69544125310E-01 -0.50112052971E-01  0.88853863223E+00  0.88000000000E+00 0.  1.
        -11    1    4    4    0    0  0.59826623371E-01 -0.31922158482E-01  0.51107607375E-01  0.84914649612E-01  0.51100000000E-03 0.  1.
         11    1    4    4    0    0  0.37708285338E-01 -0.23460139767E-01  0.15223038289E-01  0.46949919667E-01  0.51100000000E-03 0. -1.
</event>
<event>
 8    1  0.1128641E+005  0.1043930E+01  0.7957747E-01            NaN
         13   -1    0    0    0    0  0.00000000000E+00  0.00000000000E+00  0.74505805969E-08  0.10566000000E+00  0.10566000000E+00 0.  1.
     999900   -1    0    0    0    0 -0.00000000000E+00 -0.00000000000E+00 -0.74505805969E-08  0.93827000000E+00  0.93827000000E+00 0.  1.
     999902    2    1    2    0    0 -0.12430140114E-01 -0.74153708227E-02  0.21141933250E-01  0.10183081841E+01  0.10179857958E+01 0.  0.
     999903    2    3    3    0    0 -0.34318683696E-02  0.73866727889E-01 -0.10017381071E+00  0.12622900703E+00  0.20758098511E-01 0.  0.
         14    1    1    2    0    0  0.12430140114E-01  0.74153708227E-02 -0.21141933250E-01  0.25621815885E-01  0.00000000000E+00 0. -1.
     999901    1    3    3    0    0 -0.89982717444E-02 -0.81282098712E-01  0.12131574396E+00  0.89207917709E+00  0.88000000000E+00 0. -1.
        -11    1    4    4    0    0 -0.85911493386E-02  0.69305265923E-01 -0.92543288263E-01  0.11593769471E+00  0.51100000000E-03 0. -1.
         11    1    4    4    0    0  0.51592809690E-02  0.45614619659E-02 -0.76305224432E-02  0.10291312314E-01  0.51100000000E-03 0.  1.
</event>
<event>
 8    1  0.1128641E+005  0.1043930E+01  0.7957747E-01            NaN
         13   -1    0    0    0    0  0.00000000000E+00  0.00000000000E+00  0.74505805969E-08  0.10566000000E+00  0.10566000000E+00 0.  1.
     999900   -1    0    0    0    0 -0.00000000000E+00 -0.00000000000E+00 -0.74505805969E-08  0.93827000000E+00  0.93827000000E+00 0.  1.
     999902    2    1    2    0    0 -0.15024537448E-02 -0.21591577395E-01  0.11483621637E-01  0.10194284256E+01  0.10191339401E+01 0.  0.
     999903    2    3    3    0    0  0.12451481476E+00 -0.42216736197E-02  0.27441588627E-01  0.13013841542E+00  0.25713902030E-01 0.  0.
         14    1    1    2    0    0  0.15024537448E-02  0.21591577395E-01 -0.11483621637E-01  0.24501574389E-01  0.00000000000E+00 0. -1.
     999901    1    3    3    0    0 -0.12601726851E+00 -0.17369903775E-01 -0.15957966990E-01  0.88929001019E+00  0.88000000000E+00 0.  1.
        -11    1    4    4    0    0  0.66830488587E-01 -0.89996771522E-02  0.35851728004E-02  0.67530903879E-01  0.51100000000E-03 0.  1.
         11    1    4    4    0    0  0.57684326175E-01  0.47780035324E-02  0.23856415827E-01  0.62607511539E-01  0.51100000000E-03 0. -1.
</event>
<event>
 8    1  0.1128641E+005  0.1043930E+01  0.7957747E-01            NaN
         13   -1    0    0    0    0  0.00000000000E+00  0.00000000000E+00  0.74505805969E-08  0.10566000000E+00  0.10566000000E+00 0. -1.
     999900   -1    0    0    0    0 -0.00000000000E+00 -0.00000000000E+00 -0.74505805969E-08  0.93827000000E+00  0.93827000000E+00 0. -1.
     999902    2    1    2    0    0 -0.27548690065E-01 -0.11787785040E-01 -0.86780807970E-02  0.10127339860E+01  0.10122533948E+01 0.  0.
     999903    2    3    3    0    0  0.95675134504E-02  0.25514272688E-01  0.11736995933E+00  0.12219641553E+00  0.20340629083E-01 0.  0.
         14    1    1    2    0    0  0.27548690065E-01  0.11787785040E-01  0.86780807970E-02  0.31196013956E-01  0.00000000000E+00 0.  1.
     999901    1    3    3    0    0 -0.37116203515E-01 -0.37302057728E-01 -0.12604804013E+00  0.89053757051E+00  0.88000000000E+00 0. -1.
        -11    1    4    4    0    0 -0.42204722798E-04  0.81457580640E-02  0.74563209146E-01  0.75008589073E-01  0.51100000000E-03 0. -1.
         11    1    4    4    0    0  0.96097181732E-02  0.17368514624E-01  0.42806750184E-01  0.47187826459E-01  0.51100000000E-03 0.  1.
</event>
<event>
 8    1  0.1128641E+005  0.1043930E+01  0.7957747E-01            NaN
         13   -1    0    0    0    0  0.00000000000E+00  0.00000000000E+00  0.74505805969E-08  0.10566000000E+00  0.10566000000E+00 0. -1.
     999900   -1    0    0    0    0 -0.00000000000E+00 -0.00000000000E+00 -0.74505805969E-08  0.93827000000E+00  0.93827000000E+00 0. -1.
     999902    2    1    2    0    0 -0.18469633343E-01  0.32327674582E-02 -0.14148250594E-01  0.10204406165E+01  0.10201702312E+01 0.  0.
     999903    2    3    3    0    0 -0.82302713811E-01 -0.62010529919E-02 -0.10313147932E+00  0.13360259629E+00  0.20034019834E-01 0.  0.
         14    1    1    2    0    0  0.18469633343E-01 -0.32327674582E-02  0.14148250594E-01  0.23489383478E-01  0.00000000000E+00 0. -1.
     999901    1    3    3    0    0  0.63833080467E-01  0.94338204501E-02  0.88983228725E-01  0.88683802023E+00  0.88000000000E+00 0.  1.
        -11    1    4    4    0    0 -0.53134269980E-01  0.45825513338E-02 -0.58023593098E-01  0.78811476956E-01  0.51100000000E-03 0. -1.
         11    1    4    4    0    0 -0.29168443831E-01 -0.10783604326E-01 -0.45107886222E-01  0.54791119337E-01  0.51100000000E-03 0.  1.
</event>
<event>
 8    1  0.1128641E+005  0.1043930E+01  0.7957747E-01            NaN
         13   -1    0    0    0    0  0.00000000000E+00  0.00000000000E+00  0.74505805969E-08  0.10566000000E+00  0.10566000000E+00 0. -1.
     999900   -1    0    0    0    0 -0.00000000000E+00 -0.00000000000E+00 -0.74505805969E-08  0.93827000000E+00  0.93827000000E+00 0. -1.
     999902    2    1    2    0    0 -0.81761269842E-02  0.10039019371E-01  0.18450558652E-01  0.10213899451E+01  0.10211412076E+01 0.  0.
     999903    2    3    3    0    0  0.10063458161E+00  0.52507849522E-01  0.65444207444E-01  0.13242888018E+00  0.19237222753E-01 0.  0.
         14    1    1    2    0    0  0.81761269842E-02 -0.10039019371E-01 -0.18450558652E-01  0.22540054946E-01  0.00000000000E+00 0.  1.
     999901    1    3    3    0    0 -0.10881070860E+00 -0.42468830151E-01 -0.46993648792E-01  0.88896106488E+00  0.88000000000E+00 0. -1.
        -11    1    4    4    0    0  0.56632216836E-01  0.32109495389E-01  0.26762029780E-01  0.70389594663E-01  0.51100000000E-03 0. -1.
         11    1    4    4    0    0  0.44002364778E-01  0.20398354133E-01  0.38682177664E-01  0.62039285515E-01  0.51100000000E-03 0.  1.
</event>
<event>
 8    1  0.1128641E+005  0.1043930E+01  0.7957747E-01            NaN
         13   -1    0    0    0    0  0.00000000000E+00  0.00000000000E+00  0.74505805969E-08  0.10566000000E+00  0.10566000000E+00 0.  1.
     999900   -1    0    0    0    0 -0.00000000000E+00 -0.00000000000E+00 -0.74505805969E-08  0.93827000000E+00  0.93827000000E+00 0. -1.
     999902    2    1    2    0    0 -0.16184723365E-01  0.75879266208E-02 -0.14311989502E-01  0.10210312021E+01  0.10207743927E+01 0.  0.
     999903    2    3    3    0    0  0.97153120705E-01 -0.80868613839E-01  0.19763923257E-01  0.12871332475E+00  0.14072872424E-01 0.  0.
         14    1    1    2    0    0  0.16184723365E-01 -0.75879266208E-02  0.14311989502E-01  0.22898797879E-01  0.00000000000E+00 0.  1.
     999901    1    3    3    0    0 -0.11333784407E+00  0.88456540460E-01 -0.34075912759E-01  0.89231787737E+00  0.88000000000E+00 0. -1.
        -11    1    4    4    0    0  0.61273296253E-01 -0.44517532592E-01  0.16596190790E-01  0.77536586277E-01  0.51100000000E-03 0.  1.
         11    1    4    4    0    0  0.35879824451E-01 -0.36351081247E-01  0.31677324669E-02  0.51176738471E-01  0.51100000000E-03 0. -1.
</event>
<event>
 8    1  0.1128641E+005  0.1043930E+01  0.7957747E-01            NaN
         13   -1    0    0    0    0  0.00000000000E+00  0.00000000000E+00  0.74505805969E-08  0.10566000000E+00  0.10566000000E+00 0.  1.
     999900   -1    0    0    0    0 -0.00000000000E+00 -0.00000000000E+00 -0.74505805969E-08  0.93827000000E+00  0.93827000000E+00 0.  1.
     999902    2    1    2    0    0 -0.25228187150E-02  0.19896664768E-01  0.11611253854E-01  0.10207553781E+01  0.10204922728E+01 0.  0.
     999903    2    3    3    0    0  0.11846325549E+00  0.25304416683E-01 -0.44684702789E-01  0.13067891586E+00  0.20159364637E-01 0.  0.
         14    1    1    2    0    0  0.25228187150E-02 -0.19896664768E-01 -0.11611253854E-01  0.23174621878E-01  0.00000000000E+00 0. -1.
     999901    1    3    3    0    0 -0.12098607421E+00 -0.54077519152E-02  0.56295956644E-01  0.89007646226E+00  0.88000000000E+00 0. -1.
        -11    1    4    4    0    0  0.69976499466E-01  0.25003762530E-01 -0.26967685965E-01  0.79053246774E-01  0.51100000000E-03 0.  1.
         11    1    4    4    0    0  0.48486756025E-01  0.30065415277E-03 -0.17717016825E-01  0.51625669089E-01  0.51100000000E-03 0. -1.
</event>
<event>
 8    1  0.1128641E+005  0.1043930E+01  0.7957747E-01            NaN
         13   -1    0    0    0    0  0.00000000000E+00  0.00000000000E+00  0.74505805969E-08  0.10566000000E+00  0.10566000000E+00 0.  1.
     999900   -1    0    0    0    0 -0.00000000000E+00 -0.00000000000E+00 -0.74505805969E-08  0.93827000000E+00  0.93827000000E+00 0.  1.
     999902    2    1    2    0    0  0.23405293904E-01 -0.77628871987E-03  0.39309760808E-02  0.10201842008E+01  0.10199078098E+01 0.  0.
     999903    2    3    3    0    0  0.18757918508E-01 -0.12433471246E+00  0.29241234160E-01  0.13117976248E+00  0.23283042771E-01 0.  0.
         14    1    1    2    0    0 -0.23405293904E-01  0.77628871987E-03 -0.39309760808E-02  0.23745799204E-01  0.00000000000E+00 0.  1.
     999901    1    3    3    0    0  0.46473753959E-02  0.12355842374E+00 -0.25310258079E-01  0.88900443831E+00  0.88000000000E+00 0.  1.
        -11    1    4    4    0    0  0.13839204745E-01 -0.10366604816E+00  0.32847642551E-01  0.10962391103E+00  0.51100000000E-03 0.  1.
         11    1    4    4    0    0  0.49187137628E-02 -0.20668664304E-01 -0.36064083918E-02  0.21555851449E-01  0.51100000000E-03 0. -1.
</event>
<event>
 8    1  0.1128641E+005  0.1043930E+01  0.7957747E-01            NaN
         13   -1    0    0    0    0  0.00000000000E+00  0.00000000000E+00  0.74505805969E-08  0.10566000000E+00  0.10566000000E+00 0.  1.
     999900   -1    0    0    0    0 -0.00000000000E+00 -0.00000000000E+00 -0.74505805969E-08  0.93827000000E+00  0.93827000000E+00 0.  1.
     999902    2    1    2    0    0 -0.13578994708E-01 -0.10477158388E-01  0.15150020534E-01  0.10210458774E+01  0.10207894007E+01 0.  0.
     999903    2    3    3    0    0  0.11231496261E+00 -0.59743870154E-01 -0.17868668077E-01  0.13011000362E+00  0.20623842955E-01 0.  0.
         14    1    1    2    0    0  0.13578994708E-01  0.10477158388E-01 -0.15150020534E-01  0.22884122604E-01  0.00000000000E+00 0. -1.
     999901    1    3    3    0    0 -0.12589395731E+00  0.49266711766E-01  0.33018688611E-01  0.89093587377E+00  0.88000000000E+00 0.  1.
        -11    1    4    4    0    0  0.60060473472E-01 -0.34505289410E-01 -0.19807880225E-01  0.72045046401E-01  0.51100000000E-03 0.  1.
         11    1    4    4    0    0  0.52254489133E-01 -0.25238580744E-01  0.19392121482E-02  0.58064957223E-01  0.51100000000E-03 0. -1.
</event>
<event>
 8    1  0.1128641E+005  0.1043930E+01  0.7957747E-01            NaN
         13   -1    0    0    0    0  0.00000000000E+00  0.00000000000E+00  0.74505805969E-08  0.10566000000E+00  0.10566000000E+00 0.  1.
     999900   -1    0    0    0    0 -0.00000000000E+00 -0.00000000000E+00 -0.74505805969E-08  0.93827000000E+00  0.93827000000E+00 0. -1.
     999902    2    1    2    0    0 -0.33901262526E-02 -0.19875553715E-01  0.13005003328E-01  0.10199370697E+01  0.10196548266E+01 0.  0.
     999903    2    3    3    0    0  0.32298238361E-01  0.10174924362E+00 -0.66498460069E-01  0.12730777859E+00  0.19726644930E-01 0.  0.
         14    1    1    2    0    0  0.33901262526E-02  0.19875553715E-01 -0.13005003328E-01  0.23992930272E-01  0.00000000000E+00 0. -1.
     999901    1    3    3    0    0 -0.35688364613E-01 -0.12162479734E+00  0.79503463397E-01  0.89262929113E+00  0.88000000000E+00 0.  1.
        -11    1    4    4    0    0 -0.19518051982E-02  0.77521982607E-02 -0.84469846093E-02  0.11641253858E-01  0.51100000000E-03 0. -1.
         11    1    4    4    0    0  0.34250043559E-01  0.93997045362E-01 -0.58051475459E-01  0.11566652474E+00  0.51100000000E-03 0.  1.
</event>
<event>
 8    1  0.1128641E+005  0.1043930E+01  0.7957747E-01            NaN
         13   -1    0    0    0    0  0.00000000000E+00  0.00000000000E+00  0.74505805969E-08  0.10566000000E+00  0.10566000000E+00 0.  1.
     999900   -1    0    0    0    0 -0.00000000000E+00 -0.00000000000E+00 -0.74505805969E-08  0.93827000000E+00  0.93827000000E+00 0.  1.
     999902    2    1    2    0    0 -0.47646318374E-02  0.16284812980E-01  0.16499730004E-01  0.10202627665E+01  0.10199882229E+01 0.  0.
     999903    2    3    3    0    0  0.11662691620E+00 -0.41858282145E-01  0.34694866282E-01  0.12984287095E+00  0.17363295292E-01 0.  0.
         14    1    1    2    0    0  0.47646318374E-02 -0.16284812980E-01 -0.16499730004E-01  0.23667233479E-01  0.00000000000E+00 0.  1.
     999901    1    3    3    0    0 -0.12139154804E+00  0.58143095125E-01 -0.18195136278E-01  0.89041989557E+00  0.88000000000E+00 0.  1.
        -11    1    4    4    0    0  0.57098408166E-01 -0.28715387675E-01  0.21798231709E-01  0.67529443438E-01  0.51100000000E-03 0. -1.
         11    1    4    4    0    0  0.59528508035E-01 -0.13142894471E-01  0.12896634573E-01  0.62313427511E-01  0.51100000000E-03 0.  1.
</event>
<event>
 8    1  0.1128641E+005  0.1043930E+01  0.7957747E-01            NaN
         13   -1    0    0    0    0  0.00000000000E+00  0.00000000000E+00  0.74505805969E-08  0.10566000000E+00  0.10566000000E+00 0.  1.
     999900   -1    0    0    0    0 -0.00000000000E+00 -0.00000000000E+00 -0.74505805969E-08  0.93827000000E+00  0.93827000000E+00 0. -1.
     999902    2    1    2    0    0 -0.11300803563E-02 -0.13514194447E-01 -0.20046376164E-01  0.10197273611E+01  0.10194401028E+01 0.  0.
     999903    2    3    3    0    0 -0.87705192798E-01 -0.73160101833E-01  0.58911533335E-01  0.12995928128E+00  0.19345404825E-01 0.  0.
         14    1    1    2    0    0  0.11300803563E-02  0.13514194447E-01  0.20046376164E-01  0.24202638915E-01  0.00000000000E+00 0.  1.
     999901    1    3    3    0    0  0.86575112441E-01  0.59645907386E-01 -0.78957909498E-01  0.88976807980E+00  0.88000000000E+00 0. -1.
        -11    1    4    4    0    0 -0.80497654685E-01 -0.71156261674E-01  0.50580419554E-01  0.11875068820E+00  0.51100000000E-03 0. -1.
         11    1    4    4    0    0 -0.72075381132E-02 -0.20038401593E-02  0.83311137810E-02  0.11208593082E-01  0.51100000000E-03 0.  1.
</event>
<event>
 8    1  0.1128641E+005  0.1043930E+01  0.7957747E-01            NaN
         13   -1    0    0    0    0  0.00000000000E+00  0.00000000000E+00  0.74505805969E-08  0.10566000000E+00  0.10566000000E+00 0. -1.
     999900   -1    0    0    0    0 -0.00000000000E+00 -0.00000000000E+00 -0.74505805969E-08  0.93827000000E+00  0.93827000000E+00 0.  1.
     999902    2    1    2    0    0  0.72247754357E-02  0.25032813220E-02  0.22863293283E-01  0.10198220350E+01  0.10195370464E+01 0.  0.
     999903    2    3    3    0    0 -0.89049149918E-01  0.89526803446E-01 -0.18986925950E-01  0.12932037695E+00  0.20456219148E-01 0.  0.
         14    1    1    2    0    0 -0.72247754357E-02 -0.25032813220E-02 -0.22863293283E-01  0.24107965016E-01  0.00000000000E+00 0.  1.
     999901    1    3    3    0    0  0.96273925354E-01 -0.87023522124E-01  0.41850219233E-01  0.89050165803E+00  0.88000000000E+00 0. -1.
        -11    1    4    4    0    0 -0.72381802123E-01  0.60043723985E-01 -0.14185611796E-01  0.95109761705E-01  0.51100000000E-03 0.  1.
         11    1    4    4    0    0 -0.16667347795E-01  0.29483079461E-01 -0.48013141532E-02  0.34210615247E-01  0.51100000000E-03 0. -1.
</event>
<event>
 8    1  0.1168735E+005  0.1043930E+01  0.7957747E-01            NaN
         13   -1    0    0    0    0  0.00000000000E+00  0.00000000000E+00  0.74505805969E-08  0.10566000000E+00  0.10566000000E+00 0. -1.
     999900   -1    0    0    0    0 -0.00000000000E+00 -0.00000000000E+00 -0.74505805969E-08  0.93827000000E+00  0.93827000000E+00 0.  1.
     999902    2    1    2    0    0  0.11437226343E-01  0.15701316018E-01  0.13803409642E-01  0.10200998597E+01  0.10198214785E+01 0.  0.
     999903    2    3    3    0    0 -0.16050013810E-01  0.89871524003E-01 -0.91094470567E-01  0.13034689765E+00  0.18910774417E-01 0.  0.
         14    1    1    2    0    0 -0.11437226343E-01 -0.15701316018E-01 -0.13803409642E-01  0.23830140345E-01  0.00000000000E+00 0.  1.
     999901    1    3    3    0    0  0.27487240153E-01 -0.74170207985E-01  0.10489788021E+00  0.88975296200E+00  0.88000000000E+00 0. -1.
        -11    1    4    4    0    0 -0.99665719745E-02  0.24204390187E-01 -0.17318720302E-01  0.31390830750E-01  0.51100000000E-03 0.  1.
         11    1    4    4    0    0 -0.60834418360E-02  0.65667133816E-01 -0.73775750265E-01  0.98956066900E-01  0.51100000000E-03 0. -1.
</event>
<event>
 8    1  0.1128641E+005  0.1043930E+01  0.7957747E-01            NaN
         13   -1    0    0    0    0  0.00000000000E+00  0.00000000000E+00  0.74505805969E-08  0.10566000000E+00  0.10566000000E+00 0.  1.
     999900   -1    0    0    0    0 -0.00000000000E+00 -0.00000000000E+00 -0.74505805969E-08  0.93827000000E+00  0.93827000000E+00 0. -1.
     999902    2    1    2    0    0 -0.19050024036E-01  0.14002275636E-01  0.94346412531E-03  0.10202686969E+01  0.10199942925E+01 0.  0.
     999903    2    3    3    0    0 -0.62763583429E-01 -0.26099729786E-01  0.11077269749E+00  0.13145965859E+00  0.19763300075E-01 0.  0.
         14    1    1    2    0    0  0.19050024036E-01 -0.14002275636E-01 -0.94346412531E-03  0.23661303077E-01  0.00000000000E+00 0. -1.
     999901    1    3    3    0    0  0.43713559393E-01  0.40102005422E-01 -0.10982923336E+00  0.88880903833E+00  0.88000000000E+00 0. -1.
        -11    1    4    4    0    0 -0.42404012026E-01 -0.21951282169E-01  0.60604363187E-01  0.77156393015E-01  0.51100000000E-03 0. -1.
         11    1    4    4    0    0 -0.20359571403E-01 -0.41484476171E-02  0.50168334298E-01  0.54303265579E-01  0.51100000000E-03 0.  1.
</event>
<event>
 8    1  0.1128641E+005  0.1043930E+01  0.7957747E-01            NaN
         13   -1    0    0    0    0  0.00000000000E+00  0.00000000000E+00  0.74505805969E-08  0.10566000000E+00  0.10566000000E+00 0.  1.
     999900   -1    0    0    0    0 -0.00000000000E+00 -0.00000000000E+00 -0.74505805969E-08  0.93827000000E+00  0.93827000000E+00 0.  1.
     999902    2    1    2    0    0 -0.13918556542E-01 -0.11597608964E-02 -0.19159050180E-01  0.10202204984E+01  0.10199449617E+01 0.  0.
     999903    2    3    3    0    0  0.27200901338E-01 -0.56977678961E-01  0.10969441106E+00  0.12813885178E+00  0.20008912645E-01 0.  0.
         14    1    1    2    0    0  0.13918556542E-01  0.11597608964E-02  0.19159050180E-01  0.23709501584E-01  0.00000000000E+00 0.  1.
     999901    1    3    3    0    0 -0.41119457880E-01  0.55817918064E-01 -0.12885346124E+00  0.89208164664E+00  0.88000000000E+00 0.  1.
        -11    1    4    4    0    0  0.63194272075E-02 -0.16062706811E-01  0.49445869374E-01  0.52374620089E-01  0.51100000000E-03 0.  1.
         11    1    4    4    0    0  0.20881474131E-01 -0.40914972150E-01  0.60248541681E-01  0.75764231690E-01  0.51100000000E-03 0. -1.
</event>
<event>
 8    1  0.1128641E+005  0.1043930E+01  0.7957747E-01            NaN
         13   -1    0    0    0    0  0.00000000000E+00  0.00000000000E+00  0.74505805969E-08  0.10566000000E+00  0.10566000000E+00 0. -1.
     999900   -1    0    0    0    0 -0.00000000000E+00 -0.00000000000E+00 -0.74505805969E-08  0.93827000000E+00  0.93827000000E+00 0.  1.
     999902    2    1    2    0    0  0.22436835872E-01 -0.67887463499E-02 -0.55466068683E-02  0.10198413402E+01  0.10195568134E+01 0.  0.
     999903    2    3    3    0    0 -0.86751710777E-01  0.38562249726E-01 -0.83982318079E-01  0.12847664925E+00  0.20983641862E-01 0.  0.
         14    1    1    2    0    0 -0.22436835872E-01  0.67887463499E-02  0.55466068683E-02  0.24088659753E-01  0.00000000000E+00 0.  1.
     999901    1    3    3    0    0  0.10918854665E+00 -0.45350996076E-01  0.78435711210E-01  0.89136469100E+00  0.88000000000E+00 0. -1.
        -11    1    4    4    0    0 -0.29167026889E-01  0.48006513185E-02 -0.17979180912E-01  0.34601644151E-01  0.51100000000E-03 0.  1.
         11    1    4    4    0    0 -0.57584683887E-01  0.33761598408E-01 -0.66003137166E-01  0.93875005099E-01  0.51100000000E-03 0. -1.
</event>
<event>
 8    1  0.1128641E+005  0.1043930E+01  0.7957747E-01            NaN
         13   -1    0    0    0    0  0.00000000000E+00  0.00000000000E+00  0.74505805969E-08  0.10566000000E+00  0.10566000000E+00 0.  1.
     999900   -1    0    0    0    0 -0.00000000000E+00 -0.00000000000E+00 -0.74505805969E-08  0.93827000000E+00  0.93827000000E+00 0.  1.
     999902    2    1    2    0    0  0.19476610165E-01 -0.11580025279E-01 -0.31088419183E-02  0.10210586155E+01  0.10208024276E+01 0.  0.
     999903    2    3    3    0    0  0.94203927712E-01 -0.62927620884E-01  0.68237791680E-01  0.13352772048E+00  0.18411693479E-01 0.  0.
         14    1    1    2    0    0 -0.19476610165E-01  0.11580025279E-01  0.31088419183E-02  0.22871384459E-01  0.00000000000E+00 0.  1.
     999901    1    3    3    0    0 -0.74727317546E-01  0.51347595605E-01 -0.71346633599E-01  0.88753089506E+00  0.88000000000E+00 0.  1.
        -11    1    4    4    0    0  0.58830866639E-01 -0.31314621937E-01  0.46965640175E-01  0.81533483273E-01  0.51100000000E-03 0.  1.
         11    1    4    4    0    0  0.35373061072E-01 -0.31612998947E-01  0.21272151505E-01  0.51994237207E-01  0.51100000000E-03 0. -1.
</event>
<event>
 8    1  0.1128641E+005  0.1043930E+01  0.7957747E-01            NaN
         13   -1    0    0    0    0  0.00000000000E+00  0.00000000000E+00  0.74505805969E-08  0.10566000000E+00  0.10566000000E+00 0. -1.
     999900   -1    0    0    0    0 -0.00000000000E+00 -0.00000000000E+00 -0.74505805969E-08  0.93827000000E+00  0.93827000000E+00 0. -1.
     999902    2    1    2    0    0  0.23160258856E-01  0.79598759326E-03 -0.42704011053E-02  0.10203658851E+01  0.10200937564E+01 0.  0.
     999903    2    3    3    0    0  0.12725781849E+00 -0.56626455003E-02 -0.35038874740E-01  0.13367275054E+00  0.20348552118E-01 0.  0.
         14    1    1    2    0    0 -0.23160258856E-01 -0.79598759326E-03  0.42704011053E-02  0.23564114923E-01  0.00000000000E+00 0.  1.
     999901    1    3    3    0    0 -0.10409755963E+00  0.64586330935E-02  0.30768473635E-01  0.88669313454E+00  0.88000000000E+00 0.  1.
        -11    1    4    4    0    0  0.92153517890E-02  0.48805883946E-02 -0.18854798864E-02  0.10609382973E-01  0.51100000000E-03 0.  1.
         11    1    4    4    0    0  0.11804246670E+00 -0.10543233895E-01 -0.33153394853E-01  0.12306336757E+00  0.51100000000E-03 0. -1.
</event>
<event>
 8    1  0.1128641E+005  0.1043930E+01  0.7957747E-01            NaN
         13   -1    0    0    0    0  0.00000000000E+00  0.00000000000E+00  0.74505805969E-08  0.10566000000E+00  0.10566000000E+00 0. -1.
     999900   -1    0    0    0    0 -0.00000000000E+00 -0.00000000000E+00 -0.74505805969E-08  0.93827000000E+00  0.93827000000E+00 0.  1.
     999902    2    1    2    0    0 -0.37856621227E-02  0.13696970332E-01  0.27898604788E-01  0.10126207301E+01  0.10121365879E+01 0.  0.
     999903    2    3    3    0    0 -0.21717232811E-01  0.75193929693E-01  0.98425941265E-01  0.12747807354E+00  0.20909998921E-01 0.  0.
         14    1    1    2    0    0  0.37856621227E-02 -0.13696970332E-01 -0.27898604788E-01  0.31309269922E-01  0.00000000000E+00 0.  1.
     999901    1    3    3    0    0  0.17931570688E-01 -0.61496959362E-01 -0.70527336478E-01  0.88514265654E+00  0.88000000000E+00 0. -1.
        -11    1    4    4    0    0 -0.72904947419E-02  0.52932598684E-01  0.55717641954E-01  0.77199275016E-01  0.51100000000E-03 0.  1.
         11    1    4    4    0    0 -0.14426738069E-01  0.22261331009E-01  0.42708299311E-01  0.50278798520E-01  0.51100000000E-03 0. -1.
</event>
<event>
 8    1  0.1128641E+005  0.1043930E+01  0.7957747E-01            NaN
         13   -1    0    0    0    0  0.00000000000E+00  0.00000000000E+00  0.74505805969E-08  0.10566000000E+00  0.10566000000E+00 0.  1.
     999900   -1    0    0    0    0 -0.00000000000E+00 -0.00000000000E+00 -0.74505805969E-08  0.93827000000E+00  0.93827000000E+00 0. -1.
     999902    2    1    2    0    0 -0.10798566251E-01 -0.17916447875E-01  0.11186930923E-01  0.10202075305E+01  0.10199316887E+01 0.  0.
     999903    2    3    3    0    0 -0.10827670355E+00  0.66498170344E-01 -0.20237073141E-01  0.13025512553E+00  0.20273317568E-01 0.  0.
         14    1    1    2    0    0  0.10798566251E-01  0.17916447875E-01 -0.11186930923E-01  0.23722469539E-01  0.00000000000E+00 0.  1.
     999901    1    3    3    0    0  0.97478137300E-01 -0.84414618219E-01  0.31424004064E-01  0.88995240494E+00  0.88000000000E+00 0.  1.
        -11    1    4    4    0    0 -0.34536843675E-01  0.32666449206E-01 -0.76197806023E-02  0.48147820846E-01  0.51100000000E-03 0. -1.
         11    1    4    4    0    0 -0.73739859876E-01  0.33831721138E-01 -0.12617292538E-01  0.82107304679E-01  0.51100000000E-03 0.  1.
</event>
<event>
 8    1  0.1128641E+005  0.1043930E+01  0.7957747E-01            NaN
         13   -1    0    0    0    0  0.00000000000E+00  0.00000000000E+00  0.74505805969E-08  0.10566000000E+00  0.10566000000E+00 0.  1.
     999900   -1    0    0    0    0 -0.00000000000E+00 -0.00000000000E+00 -0.74505805969E-08  0.93827000000E+00  0.93827000000E+00 0. -1.
     999902    2    1    2    0    0 -0.38375697593E-02  0.15509816372E-01  0.16734291298E-01  0.10207930631E+01  0.10205308225E+01 0.  0.
     999903    2    3    3    0    0 -0.83128420785E-01  0.86677369143E-01  0.55121454648E-01  0.13353580954E+00  0.19238944945E-01 0.  0.
         14    1    1    2    0    0  0.38375697593E-02 -0.15509816372E-01 -0.16734291298E-01  0.23136936936E-01  0.00000000000E+00 0. -1.
     999901    1    3    3    0    0  0.79290851026E-01 -0.71167552771E-01 -0.38387163350E-01  0.88725725353E+00  0.88000000000E+00 0.  1.
        -11    1    4    4    0    0 -0.46097001395E-01  0.60219353206E-01  0.30077175190E-01  0.81585547903E-01  0.51100000000E-03 0.  1.
         11    1    4    4    0    0 -0.37031419390E-01  0.26458015937E-01  0.25044279458E-01  0.51950261635E-01  0.51100000000E-03 0. -1.
</event>
<event>
 8    1  0.1128641E+005  0.1043930E+01  0.7957747E-01            NaN
         13   -1    0    0    0    0  0.00000000000E+00  0.00000000000E+00  0.74505805969E-08  0.10566000000E+00  0.10566000000E+00 0.  1.
     999900   -1    0    0    0    0 -0.00000000000E+00 -0.00000000000E+00 -0.74505805969E-08  0.93827000000E+00  0.93827000000E+00 0. -1.
     999902    2    1    2    0    0  0.13367497520E-01 -0.16219142741E-01  0.82632194898E-02  0.10213461257E+01  0.10210964093E+01 0.  0.
     999903    2    3    3    0    0  0.32248059161E-01  0.65034772007E-01  0.10813052969E+00  0.13177760452E+00  0.20091458678E-01 0.  0.
         14    1    1    2    0    0 -0.13367497520E-01  0.16219142741E-01 -0.82632194898E-02  0.22583874281E-01  0.00000000000E+00 0.  1.
     999901    1    3    3    0    0 -0.18880561641E-01 -0.81253914748E-01 -0.99867310197E-01  0.88956852120E+00  0.88000000000E+00 0. -1.
        -11    1    4    4    0    0  0.10267912030E-01  0.41775442909E-01  0.67678673950E-01  0.80195272157E-01  0.51100000000E-03 0.  1.
         11    1    4    4    0    0  0.21980147131E-01  0.23259329098E-01  0.40451855737E-01  0.51582332359E-01  0.51100000000E-03 0. -1.
</event>
<event>
 8    1  0.1128641E+005  0.1043930E+01  0.7957747E-01            NaN
         13   -1    0    0    0    0  0.00000000000E+00  0.00000000000E+00  0.74505805969E-08  0.10566000000E+00  0.10566000000E+00 0. -1.
     999900   -1    0    0    0    0 -0.00000000000E+00 -0.00000000000E+00 -0.74505805969E-08  0.93827000000E+00  0.93827000000E+00 0.  1.
     999902    2    1    2    0    0 -0.18982344310E-01 -0.14713571518E-02  0.15434775567E-01  0.10194202757E+01  0.10191255919E+01 0.  0.
     999903    2    3    3    0    0  0.76005816132E-02 -0.60163590987E-02  0.12974788511E+00  0.13161692137E+00  0.19862902160E-01 0.  0.
         14    1    1    2    0    0  0.18982344310E-01  0.14713571518E-02 -0.15434775567E-01  0.24509724277E-01  0.00000000000E+00 0.  1.
     999901    1    3    3    0    0 -0.26582925923E-01  0.45450019469E-02 -0.11431310954E+00  0.88780335436E+00  0.88000000000E+00 0.  1.
        -11    1    4    4    0    0  0.60765030991E-02 -0.12706810140E-01  0.65357691811E-01  0.66860121999E-01  0.51100000000E-03 0.  1.
         11    1    4    4    0    0  0.15240785141E-02  0.66904510410E-02  0.64390193297E-01  0.64756799367E-01  0.51100000000E-03 0. -1.
</event>
<event>
 8    1  0.1128641E+005  0.1043930E+01  0.7957747E-01            NaN
         13   -1    0    0    0    0  0.00000000000E+00  0.00000000000E+00  0.74505805969E-08  0.10566000000E+00  0.10566000000E+00 0.  1.
     999900   -1    0    0    0    0 -0.00000000000E+00 -0.00000000000E+00 -0.74505805969E-08  0.93827000000E+00  0.93827000000E+00 0.  1.
     999902    2    1    2    0    0  0.21800948719E-01 -0.77325185018E-02  0.17375721410E-01  0.10149992395E+01  0.10145868456E+01 0.  0.
     999903    2    3    3    0    0  0.17698354693E-01 -0.31446984985E-01 -0.11737264994E+00  0.12441722152E+00  0.20029014791E-01 0.  0.
         14    1    1    2    0    0 -0.21800948719E-01  0.77325185018E-02 -0.17375721410E-01  0.28930760480E-01  0.00000000000E+00 0. -1.
     999901    1    3    3    0    0  0.41025940259E-02  0.23714466483E-01  0.13474837135E+00  0.89058201800E+00  0.88000000000E+00 0. -1.
        -11    1    4    4    0    0  0.82526254378E-02 -0.30373803026E-01 -0.95740534361E-01  0.10078285954E+00  0.51100000000E-03 0. -1.
         11    1    4    4    0    0  0.94457292549E-02 -0.10731819581E-02 -0.21632115582E-01  0.23634361980E-01  0.51100000000E-03 0.  1.
</event>
<event>
 8    1  0.1128641E+005  0.1043930E+01  0.7957747E-01            NaN
         13   -1    0    0    0    0  0.00000000000E+00  0.00000000000E+00  0.74505805969E-08  0.10566000000E+00  0.10566000000E+00 0.  1.
     999900   -1    0    0    0    0 -0.00000000000E+00 -0.00000000000E+00 -0.74505805969E-08  0.93827000000E+00  0.93827000000E+00 0.  1.
     999902    2    1    2    0    0  0.58986127405E-02  0.17350584734E-01  0.15655117498E-01  0.10198277361E+01  0.10195428839E+01 0.  0.
     999903    2    3    3    0    0 -0.32046568578E-01  0.25554685466E-01 -0.12084950973E+00  0.12845763487E+00  0.14721937623E-01 0.  0.
         14    1    1    2    0    0 -0.58986127405E-02 -0.17350584734E-01 -0.15655117498E-01  0.24102263934E-01  0.00000000000E+00 0. -1.
     999901    1    3    3    0    0  0.37945181318E-01 -0.82041007322E-02  0.13650462723E+00  0.89137010120E+00  0.88000000000E+00 0. -1.
        -11    1    4    4    0    0 -0.18839646015E-01  0.97011596637E-02 -0.43322681881E-01  0.48230287653E-01  0.51100000000E-03 0.  1.
         11    1    4    4    0    0 -0.13206922563E-01  0.15853525802E-01 -0.77526827849E-01  0.80227347216E-01  0.51100000000E-03 0. -1.
</event>
<event>
 8    1  0.1128641E+005  0.1043930E+01  0.7957747E-01            NaN
         13   -1    0    0    0    0  0.00000000000E+00  0.00000000000E+00  0.74505805969E-08  0.10566000000E+00  0.10566000000E+00 0.  1.
     999900   -1    0    0    0    0 -0.00000000000E+00 -0.00000000000E+00 -0.74505805969E-08  0.93827000000E+00  0.93827000000E+00 0.  1.
     999902    2    1    2    0    0  0.81117547186E-02  0.18633485496E-01 -0.12151331259E-01  0.10202516935E+01  0.10199768899E+01 0.  0.
     999903    2    3    3    0    0 -0.11057285698E+00 -0.62038120060E-01  0.61653576871E-02  0.12843924346E+00  0.19584243224E-01 0.  0.
         14    1    1    2    0    0 -0.81117547186E-02 -0.18633485496E-01  0.12151331259E-01  0.23678306479E-01  0.00000000000E+00 0.  1.
     999901    1    3    3    0    0  0.11868461170E+00  0.80671605556E-01 -0.18316688947E-01  0.89181245007E+00  0.88000000000E+00 0.  1.
        -11    1    4    4    0    0 -0.80265728564E-01 -0.38478377625E-01 -0.26355860302E-02  0.89052681944E-01  0.51100000000E-03 0. -1.
         11    1    4    4    0    0 -0.30307128416E-01 -0.23559742435E-01  0.88009437173E-02  0.39386561512E-01  0.51100000000E-03 0.  1.
</event>
<event>
 8    1  0.1128641E+005  0.1043930E+01  0.7957747E-01            NaN
         13   -1    0    0    0    0  0.00000000000E+00  0.00000000000E+00  0.74505805969E-08  0.10566000000E+00  0.10566000000E+00 0.  1.
     999900   -1    0    0    0    0 -0.00000000000E+00 -0.00000000000E+00 -0.74505805969E-08  0.93827000000E+00  0.93827000000E+00 0.  1.
     999902    2    1    2    0    0 -0.15057871636E-01 -0.12055842782E-02  0.17107652180E-01  0.10211075397E+01  0.10208524589E+01 0.  0.
     999903    2    3    3    0    0  0.11615283068E+00  0.26008411901E-01 -0.45030932627E-01  0.12879702551E+00  0.19823504249E-01 0.  0.
         14    1    1    2    0    0  0.15057871636E-01  0.12055842782E-02 -0.17107652180E-01  0.22822460314E-01  0.00000000000E+00 0.  1.
     999901    1    3    3    0    0 -0.13121070232E+00 -0.27213996180E-01  0.62138584807E-01  0.89231051418E+00  0.88000000000E+00 0. -1.
        -11    1    4    4    0    0  0.35370803166E-02  0.48860132530E-02 -0.15996501525E-02  0.62613149007E-02  0.51100000000E-03 0. -1.
         11    1    4    4    0    0  0.11261575037E+00  0.21122398648E-01 -0.43431282474E-01  0.12253571061E+00  0.51100000000E-03 0.  1.
</event>
<event>
 8    1  0.1128641E+005  0.1043930E+01  0.7957747E-01            NaN
         13   -1    0    0    0    0  0.00000000000E+00  0.00000000000E+00  0.74505805969E-08  0.10566000000E+00  0.10566000000E+00 0. -1.
     999900   -1    0    0    0    0 -0.00000000000E+00 -0.00000000000E+00 -0.74505805969E-08  0.93827000000E+00  0.93827000000E+00 0. -1.
     999902    2    1    2    0    0 -0.14363478096E-01  0.83566156180E-03 -0.18550236223E-01  0.10204540741E+01  0.10201840021E+01 0.  0.
     999903    2    3    3    0    0 -0.12819922710E+00  0.16089081497E-01 -0.24151052217E-01  0.13297302432E+00  0.20115951373E-01 0.  0.
         14    1    1    2    0    0  0.14363478096E-01 -0.83566156180E-03  0.18550236223E-01  0.23475925907E-01  0.00000000000E+00 0. -1.
     999901    1    3    3    0    0  0.11383574901E+00 -0.15253419935E-01  0.56008159947E-02  0.88748104978E+00  0.88000000000E+00 0. -1.
        -11    1    4    4    0    0 -0.46727133610E-01  0.11272942981E-01 -0.17226587707E-01  0.51063888452E-01  0.51100000000E-03 0.  1.
         11    1    4    4    0    0 -0.81472093493E-01  0.48161385158E-02 -0.69244645099E-02  0.81909135865E-01  0.51100000000E-03 0. -1.
</event>
<event>
 8    1  0.1128641E+005  0.1043930E+01  0.7957747E-01            NaN
         13   -1    0    0    0    0  0.00000000000E+00  0.00000000000E+00  0.74505805969E-08  0.10566000000E+00  0.10566000000E+00 0.  1.
     999900   -1    0    0    0    0 -0.00000000000E+00 -0.00000000000E+00 -0.74505805969E-08  0.93827000000E+00  0.93827000000E+00 0.  1.
     999902    2    1    2    0    0  0.18923648098E-01 -0.11985590672E-01 -0.88687926434E-02  0.10198382104E+01  0.10195536088E+01 0.  0.
     999903    2    3    3    0    0  0.10766616775E+00  0.56598331460E-01 -0.46916473259E-01  0.13190430796E+00  0.20055328310E-01 0.  0.
         14    1    1    2    0    0 -0.18923648098E-01  0.11985590672E-01  0.88687926434E-02  0.24091789557E-01  0.00000000000E+00 0. -1.
     999901    1    3    3    0    0 -0.88742519656E-01 -0.68583922131E-01  0.38047680616E-01  0.88793390248E+00  0.88000000000E+00 0. -1.
        -11    1    4    4    0    0  0.38107142800E-01  0.30424817506E-01 -0.22191104436E-01  0.53577328131E-01  0.51100000000E-03 0. -1.
         11    1    4    4    0    0  0.69559024955E-01  0.26173513954E-01 -0.24725368824E-01  0.78326979833E-01  0.51100000000E-03 0.  1.
</event>
<event>
 8    1  0.1128641E+005  0.1043930E+01  0.7957747E-01            NaN
         13   -1    0    0    0    0  0.00000000000E+00  0.00000000000E+00  0.74505805969E-08  0.10566000000E+00  0.10566000000E+00 0.  1.
     999900   -1    0    0    0    0 -0.00000000000E+00 -0.00000000000E+00 -0.74505805969E-08  0.93827000000E+00  0.93827000000E+00 0.  1.
     999902    2    1    2    0    0 -0.38938984228E-02 -0.97618934832E-03 -0.23460719892E-01  0.10201283032E+01  0.10198505941E+01 0.  0.
     999903    2    3    3    0    0  0.12682843846E+00 -0.94337896563E-02 -0.25388700376E-01  0.13042971525E+00  0.13887956148E-01 0.  0.
         14    1    1    2    0    0  0.38938984228E-02  0.97618934832E-03  0.23460719892E-01  0.23801696755E-01  0.00000000000E+00 0.  1.
     999901    1    3    3    0    0 -0.13072233688E+00  0.84576003079E-02  0.19279804838E-02  0.88969858799E+00  0.88000000000E+00 0. -1.
        -11    1    4    4    0    0  0.74160824056E-01 -0.10887059729E-01 -0.19200061558E-01  0.77377382865E-01  0.51100000000E-03 0.  1.
         11    1    4    4    0    0  0.52667614401E-01  0.14532700723E-02 -0.61886388186E-02  0.53052332390E-01  0.51100000000E-03 0. -1.
</event>
<event>
 8    1  0.1128641E+005  0.1043930E+01  0.7957747E-01            NaN
         13   -1    0    0    0    0  0.00000000000E+00  0.00000000000E+00  0.74505805969E-08  0.10566000000E+00  0.10566000000E+00 0. -1.
     999900   -1    0    0    0    0 -0.00000000000E+00 -0.00000000000E+00 -0.74505805969E-08  0.93827000000E+00  0.93827000000E+00 0.  1.
     999902    2    1    2    0    0  0.17680131817E-01  0.21314284251E-02 -0.14453465096E-01  0.10209945972E+01  0.10207369567E+01 0.  0.
     999903    2    3    3    0    0 -0.18114065554E-01  0.70714905934E-01  0.10511046021E+00  0.12954608484E+00  0.20131119206E-01 0.  0.
         14    1    1    2    0    0 -0.17680131817E-01 -0.21314284251E-02  0.14453465096E-01  0.22935402797E-01  0.00000000000E+00 0. -1.
     999901    1    3    3    0    0  0.35794197370E-01 -0.68583477509E-01 -0.11956392531E+00  0.89144851236E+00  0.88000000000E+00 0.  1.
        -11    1    4    4    0    0 -0.51839572204E-02  0.20119540173E-02  0.10693414083E-01  0.12063647756E-01  0.51100000000E-03 0. -1.
         11    1    4    4    0    0 -0.12930108333E-01  0.68702951917E-01  0.94417046128E-01  0.11748243709E+00  0.51100000000E-03 0.  1.
</event>
<event>
 8    1  0.1128641E+005  0.1043930E+01  0.7957747E-01            NaN
         13   -1    0    0    0    0  0.00000000000E+00  0.00000000000E+00  0.74505805969E-08  0.10566000000E+00  0.10566000000E+00 0.  1.
     999900   -1    0    0    0    0 -0.00000000000E+00 -0.00000000000E+00 -0.74505805969E-08  0.93827000000E+00  0.93827000000E+00 0. -1.
     999902    2    1    2    0    0  0.75694497149E-03 -0.22604014416E-01  0.76077684495E-02  0.10200680518E+01  0.10197889182E+01 0.  0.
     999903    2    3    3    0    0 -0.35728471802E-01 -0.10371510351E+00 -0.70550714632E-01  0.13213846958E+00  0.21209088068E-01 0.  0.
         14    1    1    2    0    0 -0.75694497149E-03  0.22604014416E-01 -0.76077684495E-02  0.23861948248E-01  0.00000000000E+00 0. -1.
     999901    1    3    3    0    0  0.36485416774E-01  0.81111089090E-01  0.78158483081E-01  0.88792958217E+00  0.88000000000E+00 0. -1.
        -11    1    4    4    0    0 -0.14657995248E-01 -0.72190241812E-01 -0.49695216017E-01  0.88860359292E-01  0.51100000000E-03 0.  1.
         11    1    4    4    0    0 -0.21070476555E-01 -0.31524861694E-01 -0.20855498614E-01  0.43278110293E-01  0.51100000000E-03 0. -1.
</event>
<event>
 8    1  0.1128641E+005  0.1043930E+01  0.7957747E-01            NaN
         13   -1    0    0    0    0  0.00000000000E+00  0.00000000000E+00  0.74505805969E-08  0.10566000000E+00  0.10566000000E+00 0.  1.
     999900   -1    0    0    0    0 -0.00000000000E+00 -0.00000000000E+00 -0.74505805969E-08  0.93827000000E+00  0.93827000000E+00 0.  1.
     999902    2    1    2    0    0  0.20177581880E-01  0.47317369019E-02  0.10565649590E-01  0.10206672165E+01  0.10204020824E+01 0.  0.
     999903    2    3    3    0    0  0.33411561851E-01 -0.12258699121E+00 -0.23818927534E-01  0.13074166013E+00  0.19548337641E-01 0.  0.
         14    1    1    2    0    0 -0.20177581880E-01 -0.47317369019E-02 -0.10565649590E-01  0.23262783494E-01  0.00000000000E+00 0.  1.
     999901    1    3    3    0    0 -0.13233979971E-01  0.12731872811E+00  0.34384577124E-01  0.88992555638E+00  0.88000000000E+00 0. -1.
        -11    1    4    4    0    0  0.43244807403E-02 -0.50242642831E-01 -0.12425262996E-01  0.51939123730E-01  0.51100000000E-03 0.  1.
         11    1    4    4    0    0  0.29087081111E-01 -0.72344348378E-01 -0.11393664537E-01  0.78802536396E-01  0.51100000000E-03 0. -1.
</event>
<event>
 8    1  0.1128641E+005  0.1043930E+01  0.7957747E-01            NaN
         13   -1    0    0    0    0  0.00000000000E+00  0.00000000000E+00  0.74505805969E-08  0.10566000000E+00  0.10566000000E+00 0. -1.
     999900   -1    0    0    0    0 -0.00000000000E+00 -0.00000000000E+00 -0.74505805969E-08  0.93827000000E+00  0.93827000000E+00 0. -1.
     999902    2    1    2    0    0  0.21754102933E-01 -0.95952634511E-02  0.33242558174E-02  0.10199224855E+01  0.10196398951E+01 0.  0.
     999903    2    3    3    0    0  0.12642240827E+00  0.32324338330E-01  0.13940995251E-01  0.13266523854E+00  0.19448033488E-01 0.  0.
         14    1    1    2    0    0 -0.21754102933E-01  0.95952634511E-02 -0.33242558174E-02  0.24007514487E-01  0.00000000000E+00 0. -1.
     999901    1    3    3    0    0 -0.10466830534E+00 -0.41919601781E-01 -0.10616739433E-01  0.88725724698E+00  0.88000000000E+00 0. -1.
        -11    1    4    4    0    0  0.10045483829E+00  0.20808966190E-01  0.17367522150E-01  0.10404844812E+00  0.51100000000E-03 0. -1.
         11    1    4    4    0    0  0.25967569981E-01  0.11515372141E-01 -0.34265268989E-02  0.28616790418E-01  0.51100000000E-03 0.  1.
</event>
<event>
 8    1  0.1200908E+005  0.1043930E+01  0.7957747E-01            NaN
         13   -1    0    0    0    0  0.00000000000E+00  0.00000000000E+00  0.74505805969E-08  0.10566000000E+00  0.10566000000E+00 0.  1.
     999900   -1    0    0    0    0 -0.00000000000E+00 -0.00000000000E+00 -0.74505805969E-08  0.93827000000E+00  0.93827000000E+00 0.  1.
     999902    2    1    2    0    0 -0.98146751701E-02 -0.16837166562E-02  0.21784269120E-01  0.10199776070E+01  0.10196963281E+01 0.  0.
     999903    2    3    3    0    0  0.40046714882E-01  0.12085902865E+00  0.17292103977E-01  0.13007701579E+00  0.20257566416E-01 0.  0.
         14    1    1    2    0    0  0.98146751701E-02  0.16837166562E-02 -0.21784269120E-01  0.23952393024E-01  0.00000000000E+00 0. -1.
     999901    1    3    3    0    0 -0.49861390052E-01 -0.12254274531E+00  0.44921651427E-02  0.88990059119E+00  0.88000000000E+00 0.  1.
        -11    1    4    4    0    0  0.42920222157E-02  0.43050846483E-01  0.46297966012E-02  0.43514284726E-01  0.51100000000E-03 0. -1.
         11    1    4    4    0    0  0.35754692666E-01  0.77808182170E-01  0.12662307376E-01  0.86562731065E-01  0.51100000000E-03 0.  1.
</event>
<event>
 8    1  0.1128641E+005  0.1043930E+01  0.7957747E-01            NaN
         13   -1    0    0    0    0  0.00000000000E+00  0.00000000000E+00  0.74505805969E-08  0.10566000000E+00  0.10566000000E+00 0.  1.
     999900   -1    0    0    0    0 -0.00000000000E+00 -0.00000000000E+00 -0.74505805969E-08  0.93827000000E+00  0.93827000000E+00 0.  1.
     999902    2    1    2    0    0  0.20104683834E-01 -0.83362612989E-02  0.42997504351E-02  0.10217448830E+01  0.10215040022E+01 0.  0.
     999903    2    3    3    0    0 -0.17352409930E-01  0.12715383742E+00  0.17889932591E-01  0.13048437459E+00  0.15392135069E-01 0.  0.
         14    1    1    2    0    0 -0.20104683834E-01  0.83362612989E-02 -0.42997504351E-02  0.22185117045E-01  0.00000000000E+00 0.  1.
     999901    1    3    3    0    0  0.37457093765E-01 -0.13549009872E+00 -0.13590182155E-01  0.89126050837E+00  0.88000000000E+00 0. -1.
        -11    1    4    4    0    0 -0.14119064177E-01  0.56726638916E-01  0.37691125246E-02  0.58580942858E-01  0.51100000000E-03 0. -1.
         11    1    4    4    0    0 -0.32333457534E-02  0.70427198505E-01  0.14120820066E-01  0.71903431729E-01  0.51100000000E-03 0.  1.
</event>
<event>
 8    1  0.1128641E+005  0.1043930E+01  0.7957747E-01            NaN
         13   -1    0    0    0    0  0.00000000000E+00  0.00000000000E+00  0.74505805969E-08  0.10566000000E+00  0.10566000000E+00 0.  1.
     999900   -1    0    0    0    0 -0.00000000000E+00 -0.00000000000E+00 -0.74505805969E-08  0.93827000000E+00  0.93827000000E+00 0. -1.
     999902    2    1    2    0    0 -0.20607133353E-01  0.87805145418E-02 -0.65822289759E-02  0.10205831133E+01  0.10203160363E+01 0.  0.
     999903    2    3    3    0    0  0.33015916531E-01  0.14604385580E-01  0.12285370882E+00  0.12948098057E+00  0.19208116412E-01 0.  0.
         14    1    1    2    0    0  0.20607133353E-01 -0.87805145418E-02  0.65822289759E-02  0.23346886708E-01  0.00000000000E+00 0.  1.
     999901    1    3    3    0    0 -0.53623049884E-01 -0.58238710386E-02 -0.12943593779E+00  0.89110213272E+00  0.88000000000E+00 0. -1.
        -11    1    4    4    0    0  0.32638049082E-01  0.13605261768E-01  0.91368508091E-01  0.97973520849E-01  0.51100000000E-03 0. -1.
         11    1    4    4    0    0  0.37786744909E-03  0.99912381210E-03  0.31485200726E-01  0.31507459719E-01  0.51100000000E-03 0.  1.
</event>
<event>
 8    1  0.1128641E+005  0.1043930E+01  0.7957747E-01            NaN
         13   -1    0    0    0    0  0.00000000000E+00  0.00000000000E+00  0.74505805969E-08  0.10566000000E+00  0.10566000000E+00 0. -1.
     999900   -1    0    0    0    0 -0.00000000000E+00 -0.00000000000E+00 -0.74505805969E-08  0.93827000000E+00  0.93827000000E+00 0. -1.
     999902    2    1    2    0    0  0.14786900392E-01  0.17363481960E-01 -0.12469787011E-02  0.10210892932E+01  0.10208337998E+01 0.  0.
     999903    2    3    3    0    0  0.12196961884E+00  0.51499547652E-01  0.43704427590E-02  0.13391120429E+00  0.19604043842E-01 0.  0.
         14    1    1    2    0    0 -0.14786900392E-01 -0.17363481960E-01  0.12469787011E-02  0.22840706750E-01  0.00000000000E+00 0. -1.
     999901    1    3    3    0    0 -0.10718271845E+00 -0.34136065692E-01 -0.56174214601E-02  0.88717808896E+00  0.88000000000E+00 0. -1.
        -11    1    4    4    0    0  0.58503540701E-01  0.14525444254E-01  0.46127257609E-02  0.60458176993E-01  0.51100000000E-03 0.  1.
         11    1    4    4    0    0  0.63466078139E-01  0.36974103398E-01 -0.24228300186E-03  0.73453027293E-01  0.51100000000E-03 0. -1.
</event>
<event>
 8    1  0.1128641E+005  0.1043930E+01  0.7957747E-01            NaN
         13   -1    0    0    0    0  0.00000000000E+00  0.00000000000E+00  0.74505805969E-08  0.10566000000E+00  0.10566000000E+00 0.  1.
     999900   -1    0    0    0    0 -0.00000000000E+00 -0.00000000000E+00 -0.74505805969E-08  0.93827000000E+00  0.93827000000E+00 0. -1.
     999902    2    1    2    0    0  0.12932044049E-01  0.13387079750E-01 -0.46814068745E-02  0.10247371045E+01  0.10245573513E+01 0.  0.
     999903    2    3    3    0    0 -0.42816491651E-01  0.31323790276E-01 -0.12253053269E+00  0.13495171393E+00  0.19590861559E-01 0.  0.
         14    1    1    2    0    0 -0.12932044049E-01 -0.13387079750E-01  0.46814068745E-02  0.19192895505E-01  0.00000000000E+00 0. -1.
     999901    1    3    3    0    0  0.55748535700E-01 -0.17936710525E-01  0.11784912581E+00  0.88978539057E+00  0.88000000000E+00 0.  1.
        -11    1    4    4    0    0 -0.28431295406E-01  0.29932546256E-01 -0.79922743731E-01  0.89956667181E-01  0.51100000000E-03 0. -1.
         11    1    4    4    0    0 -0.14385196244E-01  0.13912440198E-02 -0.42607788954E-01  0.44995046744E-01  0.51100000000E-03 0.  1.
</event>
<event>
 8    1  0.1128641E+005  0.1043930E+01  0.7957747E-01            NaN
         13   -1    0    0    0    0  0.00000000000E+00  0.00000000000E+00  0.74505805969E-08  0.10566000000E+00  0.10566000000E+00 0.  1.
     999900   -1    0    0    0    0 -0.00000000000E+00 -0.00000000000E+00 -0.74505805969E-08  0.93827000000E+00  0.93827000000E+00 0. -1.
     999902    2    1    2    0    0 -0.27481332311E-02  0.46802534011E-02 -0.19240360864E-01  0.10239387896E+01  0.10237436184E+01 0.  0.
     999903    2    3    3    0    0 -0.67523438153E-01  0.60860067659E-01 -0.99331222810E-01  0.13615133876E+00  0.20177529217E-01 0.  0.
         14    1    1    2    0    0  0.27481332311E-02 -0.46802534011E-02  0.19240360864E-01  0.19991210426E-01  0.00000000000E+00 0.  1.
     999901    1    3    3    0    0  0.64775304922E-01 -0.56179814258E-01  0.80090861946E-01  0.88778745082E+00  0.88000000000E+00 0.  1.
        -11    1    4    4    0    0 -0.32106013650E-01  0.29599441130E-01 -0.33101504613E-01  0.54798665644E-01  0.51100000000E-03 0.  1.
         11    1    4    4    0    0 -0.35417424504E-01  0.31260626529E-01 -0.66229718197E-01  0.81352673115E-01  0.51100000000E-03 0. -1.
</event>
<event>
 8    1  0.1128641E+005  0.1043930E+01  0.7957747E-01            NaN
         13   -1    0    0    0    0  0.00000000000E+00  0.00000000000E+00  0.74505805969E-08  0.10566000000E+00  0.10566000000E+00 0.  1.
     999900   -1    0    0    0    0 -0.00000000000E+00 -0.00000000000E+00 -0.74505805969E-08  0.93827000000E+00  0.93827000000E+00 0. -1.
     999902    2    1    2    0    0  0.16113660705E-01  0.38530228344E-02  0.17633915277E-01  0.10197339091E+01  0.10194468081E+01 0.  0.
     999903    2    3    3    0    0 -0.37667729872E-01  0.10334809661E+00 -0.63598023790E-01  0.12878478845E+00  0.21003003590E-01 0.  0.
         14    1    1    2    0    0 -0.16113660705E-01 -0.38530228344E-02 -0.17633915277E-01  0.24196090888E-01  0.00000000000E+00 0. -1.
     999901    1    3    3    0    0  0.53781390577E-01 -0.99495073778E-01  0.81231939066E-01  0.89094912066E+00  0.88000000000E+00 0.  1.
        -11    1    4    4    0    0 -0.21755287455E-01  0.31698516789E-01 -0.18836304248E-01  0.42815370810E-01  0.51100000000E-03 0. -1.
         11    1    4    4    0    0 -0.15912442417E-01  0.71649579824E-01 -0.44761719542E-01  0.85969417643E-01  0.51100000000E-03 0.  1.
</event>
<event>
 8    1  0.1128641E+005  0.1043930E+01  0.7957747E-01            NaN
         13   -1    0    0    0    0  0.00000000000E+00  0.00000000000E+00  0.74505805969E-08  0.10566000000E+00  0.10566000000E+00 0. -1.
     999900   -1    0    0    0    0 -0.00000000000E+00 -0.00000000000E+00 -0.74505805969E-08  0.93827000000E+00  0.93827000000E+00 0. -1.
     999902    2    1    2    0    0 -0.14491581990E-01  0.16086645200E-01  0.10283567091E-01  0.10199604807E+01  0.10196787947E+01 0.  0.
     999903    2    3    3    0    0 -0.62559392567E-01  0.47676993527E-01  0.10485147000E+00  0.13302668794E+00  0.22704528873E-01 0.  0.
         14    1    1    2    0    0  0.14491581990E-01 -0.16086645200E-01 -0.10283567091E-01  0.23969519280E-01  0.00000000000E+00 0.  1.
     999901    1    3    3    0    0  0.48067810576E-01 -0.31590348327E-01 -0.94567902912E-01  0.88693379278E+00  0.88000000000E+00 0. -1.
        -11    1    4    4    0    0 -0.21392618533E-01  0.16269546970E-01  0.54656435744E-01  0.60909189582E-01  0.51100000000E-03 0.  1.
         11    1    4    4    0    0 -0.41166774034E-01  0.31407446557E-01  0.50195034259E-01  0.72117498354E-01  0.51100000000E-03 0. -1.
</event>
<event>
 8    1  0.1128641E+005  0.1043930E+01  0.7957747E-01            NaN
         13   -1    0    0    0    0  0.00000000000E+00  0.00000000000E+00  0.74505805969E-08  0.10566000000E+00  0.10566000000E+00 0.  1.
     999900   -1    0    0    0    0 -0.00000000000E+00 -0.00000000000E+00 -0.74505805969E-08  0.93827000000E+00  0.93827000000E+00 0.  1.
     999902    2    1    2    0    0  0.31915024586E-03  0.20353074826E-01  0.10993778896E-01  0.10207953358E+01  0.10205331474E+01 0.  0.
     999903    2    3    3    0    0 -0.65065155980E-01  0.53575612947E-01  0.10106652304E+00  0.13316256054E+00  0.20347103592E-01 0.  0.
         14    1    1    2    0    0 -0.31915024586E-03 -0.20353074826E-01 -0.10993778896E-01  0.23134664168E-01  0.00000000000E+00 0.  1.
     999901    1    3    3    0    0  0.65384306226E-01 -0.33222538121E-01 -0.90072744142E-01  0.88763277529E+00  0.88000000000E+00 0.  1.
        -11    1    4    4    0    0 -0.40456388341E-01  0.43976543555E-01  0.76621327310E-01  0.97168640314E-01  0.51100000000E-03 0.  1.
         11    1    4    4    0    0 -0.24608767639E-01  0.95990693918E-02  0.24445195727E-01  0.35993920223E-01  0.51100000000E-03 0. -1.
</event>
<event>
 8    1  0.1128641E+005  0.1043930E+01  0.7957747E-01            NaN
         13   -1    0    0    0    0  0.00000000000E+00  0.00000000000E+00  0.74505805969E-08  0.10566000000E+00  0.10566000000E+00 0.  1.
     999900   -1    0    0    0    0 -0.00000000000E+00 -0.00000000000E+00 -0.74505805969E-08  0.93827000000E+00  0.93827000000E+00 0.  1.
     999902    2    1    2    0    0 -0.56827756213E-03  0.10681410866E-01  0.20766494294E-01  0.10205705744E+01  0.10203032072E+01 0.  0.
     999903    2    3    3    0    0 -0.12339330485E+00  0.39247848062E-01 -0.54031753386E-03  0.13132594617E+00  0.21906869583E-01 0.  0.
         14    1    1    2    0    0  0.56827756213E-03 -0.10681410866E-01 -0.20766494294E-01  0.23359425565E-01  0.00000000000E+00 0. -1.
     999901    1    3    3    0    0  0.12282502729E+00 -0.28566437196E-01  0.21306811828E-01  0.88924462826E+00  0.88000000000E+00 0. -1.
        -11    1    4    4    0    0 -0.32652882754E-01  0.95900168970E-02 -0.97831794418E-02  0.35413992958E-01  0.51100000000E-03 0. -1.
         11    1    4    4    0    0 -0.90740422100E-01  0.29657831166E-01  0.92428619080E-02  0.95911953215E-01  0.51100000000E-03 0.  1.
</event>
<event>
 8    1  0.1128641E+005  0.1043930E+01  0.7957747E-01            NaN
         13   -1    0    0    0    0  0.00000000000E+00  0.00000000000E+00  0.74505805969E-08  0.10566000000E+00  0.10566000000E+00 0. -1.
     999900   -1    0    0    0    0 -0.00000000000E+00 -0.00000000000E+00 -0.74505805969E-08  0.93827000000E+00  0.93827000000E+00 0. -1.
     999902    2    1    2    0    0 -0.24592021697E-02 -0.17310198178E-01 -0.15486486902E-01  0.10205735895E+01  0.10203062921E+01 0.  0.
     999903    2    3    3    0    0  0.84240090364E-01 -0.90444984528E-01  0.40181063533E-01  0.13154921384E+00  0.20346737908E-01 0.  0.
         14    1    1    2    0    0  0.24592021697E-02  0.17310198178E-01  0.15486486902E-01  0.23356410530E-01  0.00000000000E+00 0.  1.
     999901    1    3    3    0    0 -0.86699292534E-01  0.73134786349E-01 -0.55667550435E-01  0.88902437563E+00  0.88000000000E+00 0. -1.
        -11    1    4    4    0    0  0.58966698449E-01 -0.74102104913E-01  0.25593378755E-01  0.98099315164E-01  0.51100000000E-03 0. -1.
         11    1    4    4    0    0  0.25273391915E-01 -0.16342879614E-01  0.14587684778E-01  0.33449898672E-01  0.51100000000E-03 0.  1.
</event>
<event>
 8    1  0.1128641E+005  0.1043930E+01  0.7957747E-01            NaN
         13   -1    0    0    0    0  0.00000000000E+00  0.00000000000E+00  0.74505805969E-08  0.10566000000E+00  0.10566000000E+00 0. -1.
     999900   -1    0    0    0    0 -0.00000000000E+00 -0.00000000000E+00 -0.74505805969E-08  0.93827000000E+00  0.93827000000E+00 0. -1.
     999902    2    1    2    0    0  0.13363027322E-01 -0.12784294603E-01  0.15863153890E-01  0.10195651003E+01  0.10192739305E+01 0.  0.
     999903    2    3    3    0    0  0.12491274512E+00 -0.17477954948E-01 -0.30748295171E-01  0.13128699225E+00  0.19548500629E-01 0.  0.
         14    1    1    2    0    0 -0.13363027322E-01  0.12784294603E-01 -0.15863153890E-01  0.24364899734E-01  0.00000000000E+00 0. -1.
     999901    1    3    3    0    0 -0.11154971780E+00  0.46936603449E-02  0.46611449061E-01  0.88827810801E+00  0.88000000000E+00 0.  1.
        -11    1    4    4    0    0  0.89907554017E-01 -0.47867238263E-02 -0.17225176251E-01  0.91669235909E-01  0.51100000000E-03 0. -1.
         11    1    4    4    0    0  0.35005191103E-01 -0.12691231122E-01 -0.13523118920E-01  0.39617756346E-01  0.51100000000E-03 0.  1.
</event>
<event>
 8    1  0.1128641E+005  0.1043930E+01  0.7957747E-01            NaN
         13   -1    0    0    0    0  0.00000000000E+00  0.00000000000E+00  0.74505805969E-08  0.10566000000E+00  0.10566000000E+00 0.  1.
     999900   -1    0    0    0    0 -0.00000000000E+00 -0.00000000000E+00 -0.74505805969E-08  0.93827000000E+00  0.93827000000E+00 0.  1.
     999902    2    1    2    0    0 -0.21975384094E-01 -0.27483681989E-02 -0.10702110458E-01  0.10193331262E+01  0.10190363173E+01 0.  0.
     999903    2    3    3    0    0  0.23224963617E-02  0.33867570597E-01 -0.12482854654E+00  0.13087606059E+00  0.19848699640E-01 0.  0.
         14    1    1    2    0    0  0.21975384094E-01  0.27483681989E-02  0.10702110458E-01  0.24596873827E-01  0.00000000000E+00 0.  1.
     999901    1    3    3    0    0 -0.24297880456E-01 -0.36615938795E-01  0.11412643608E+00  0.88845706558E+00  0.88000000000E+00 0. -1.
        -11    1    4    4    0    0  0.96977237165E-02  0.20366071953E-01 -0.90221861016E-01  0.93000365904E-01  0.51100000000E-03 0. -1.
         11    1    4    4    0    0 -0.73752273548E-02  0.13501498644E-01 -0.34606685523E-01  0.37875694687E-01  0.51100000000E-03 0.  1.
</event>
<event>
 8    1  0.1128641E+005  0.1043930E+01  0.7957747E-01            NaN
         13   -1    0    0    0    0  0.00000000000E+00  0.00000000000E+00  0.74505805969E-08  0.10566000000E+00  0.10566000000E+00 0. -1.
     999900   -1    0    0    0    0 -0.00000000000E+00 -0.00000000000E+00 -0.74505805969E-08  0.93827000000E+00  0.93827000000E+00 0. -1.
     999902    2    1    2    0    0  0.54600098288E-02 -0.69579284393E-02  0.21984206080E-01  0.10202333801E+01  0.10199581463E+01 0.  0.
     999903    2    3    3    0    0  0.11257844352E+00  0.35733266637E-01  0.55639553692E-01  0.13207259549E+00  0.19915779046E-01 0.  0.
         14    1    1    2    0    0 -0.54600098288E-02  0.69579284393E-02 -0.21984206080E-01  0.23696619853E-01  0.00000000000E+00 0.  1.
     999901    1    3    3    0    0 -0.10711843369E+00 -0.42691195076E-01 -0.33655347613E-01  0.88816078465E+00  0.88000000000E+00 0. -1.
        -11    1    4    4    0    0  0.52562202568E-01  0.83929956717E-02  0.31432368261E-01  0.61818139818E-01  0.51100000000E-03 0.  1.
         11    1    4    4    0    0  0.60016240954E-01  0.27340270965E-01  0.24207185431E-01  0.70254455675E-01  0.51100000000E-03 0. -1.
</event>
<event>
 8    1  0.1128641E+005  0.1043930E+01  0.7957747E-01            NaN
         13   -1    0    0    0    0  0.00000000000E+00  0.00000000000E+00  0.74505805969E-08  0.10566000000E+00  0.10566000000E+00 0. -1.
     999900   -1    0    0    0    0 -0.00000000000E+00 -0.00000000000E+00 -0.74505805969E-08  0.93827000000E+00  0.93827000000E+00 0.  1.
     999902    2    1    2    0    0  0.18485071361E-01  0.10417007748E-01 -0.58395018611E-02  0.10219229171E+01  0.10216859287E+01 0.  0.
     999903    2    3    3    0    0 -0.52009384373E-01  0.97907314580E-01  0.68210310382E-01  0.13169407198E+00  0.19996595734E-01 0.  0.
         14    1    1    2    0    0 -0.18485071361E-01 -0.10417007748E-01  0.58395018611E-02  0.22007082851E-01  0.00000000000E+00 0. -1.
     999901    1    3    3    0    0  0.70494455734E-01 -0.87490306832E-01 -0.74049812244E-01  0.89022884517E+00  0.88000000000E+00 0.  1.
        -11    1    4    4    0    0 -0.13167837378E-01  0.18294013293E-01  0.23123243666E-01  0.32295640298E-01  0.51100000000E-03 0. -1.
         11    1    4    4    0    0 -0.38841546995E-01  0.79613301287E-01  0.45087066716E-01  0.99398431682E-01  0.51100000000E-03 0.  1.
</event>
<event>
 8    1  0.1128641E+005  0.1043930E+01  0.7957747E-01            NaN
         13   -1    0    0    0    0  0.00000000000E+00  0.00000000000E+00  0.74505805969E-08  0.10566000000E+00  0.10566000000E+00 0. -1.
     999900   -1    0    0    0    0 -0.00000000000E+00 -0.00000000000E+00 -0.74505805969E-08  0.93827000000E+00  0.93827000000E+00 0. -1.
     999902    2    1    2    0    0 -0.75911223464E-02 -0.22421819307E-01  0.21447267045E-02  0.10201610503E+01  0.10198841137E+01 0.  0.
     999903    2    3    3    0    0  0.14548826828E-01  0.58499391614E-01  0.11288016428E+00  0.12926220254E+00  0.18246597931E-01 0.  0.
         14    1    1    2    0    0  0.75911223464E-02  0.22421819307E-01 -0.21447267045E-02  0.23768949748E-01  0.00000000000E+00 0.  1.
     999901    1    3    3    0    0 -0.22139949174E-01 -0.80921210921E-01 -0.11073543757E+00  0.89089884772E+00  0.88000000000E+00 0. -1.
        -11    1    4    4    0    0  0.41215137235E-02  0.36360119018E-01  0.51476140313E-01  0.63159316596E-01  0.51100000000E-03 0.  1.
         11    1    4    4    0    0  0.10427313104E-01  0.22139272597E-01  0.61404023964E-01  0.66102885941E-01  0.51100000000E-03 0. -1.
</event>
<event>
 8    1  0.1128641E+005  0.1043930E+01  0.7957747E-01            NaN
         13   -1    0    0    0    0  0.00000000000E+00  0.00000000000E+00  0.74505805969E-08  0.10566000000E+00  0.10566000000E+00 0.  1.
     999900   -1    0    0    0    0 -0.00000000000E+00 -0.00000000000E+00 -0.74505805969E-08  0.93827000000E+00  0.93827000000E+00 0.  1.
     999902    2    1    2    0    0 -0.28672003613E-02  0.20320823902E-01  0.10627257303E-01  0.10208194976E+01  0.10205578628E+01 0.  0.
     999903    2    3    3    0    0  0.12488318915E+00  0.40963244298E-03  0.34656591860E-01  0.13104760187E+00  0.19401439757E-01 0.  0.
         14    1    1    2    0    0  0.28672003613E-02 -0.20320823902E-01 -0.10627257303E-01  0.23110502369E-01  0.00000000000E+00 0. -1.
     999901    1    3    3    0    0 -0.12775038952E+00  0.19911191459E-01 -0.24029334557E-01  0.88977189576E+00  0.88000000000E+00 0. -1.
        -11    1    4    4    0    0  0.90308008832E-02  0.25216618623E-03  0.82001170001E-02  0.12211551588E-01  0.51100000000E-03 0.  1.
         11    1    4    4    0    0  0.11585238827E+00  0.15746625675E-03  0.26456474860E-01  0.11883605028E+00  0.51100000000E-03 0. -1.
</event>
<event>
 8    1  0.1128641E+005  0.1043930E+01  0.7957747E-01            NaN
         13   -1    0    0    0    0  0.00000000000E+00  0.00000000000E+00  0.74505805969E-08  0.10566000000E+00  0.10566000000E+00 0. -1.
     999900   -1    0    0    0    0 -0.00000000000E+00 -0.00000000000E+00 -0.74505805969E-08  0.93827000000E+00  0.93827000000E+00 0. -1.
     999902    2    1    2    0    0 -0.20179362355E-01 -0.12866634645E-01 -0.16371649402E-02  0.10199417266E+01  0.10196595944E+01 0.  0.
     999903    2    3    3    0    0  0.58106777741E-01 -0.11301984506E+00 -0.22549499800E-01  0.13056176783E+00  0.19698027346E-01 0.  0.
         14    1    1    2    0    0  0.20179362355E-01  0.12866634645E-01  0.16371649402E-02  0.23988273410E-01  0.00000000000E+00 0. -1.
     999901    1    3    3    0    0 -0.78286140096E-01  0.10015321042E+00  0.20912334860E-01  0.88937995876E+00  0.88000000000E+00 0. -1.
        -11    1    4    4    0    0  0.22478221307E-01 -0.64300128143E-01 -0.91113688326E-02  0.68724486723E-01  0.51100000000E-03 0.  1.
         11    1    4    4    0    0  0.35628556434E-01 -0.48719716919E-01 -0.13438130968E-01  0.61837281110E-01  0.51100000000E-03 0. -1.
</event>
<event>
 8    1  0.1128641E+005  0.1043930E+01  0.7957747E-01            NaN
         13   -1    0    0    0    0  0.00000000000E+00  0.00000000000E+00  0.74505805969E-08  0.10566000000E+00  0.10566000000E+00 0.  1.
     999900   -1    0    0    0    0 -0.00000000000E+00 -0.00000000000E+00 -0.74505805969E-08  0.93827000000E+00  0.93827000000E+00 0.  1.
     999902    2    1    2    0    0  0.16987600021E-01  0.40621972657E-02 -0.98295903957E-02  0.10238875239E+01  0.10236913406E+01 0.  0.
     999903    2    3    3    0    0  0.12715272065E+00 -0.33512531297E-01 -0.28004390641E-01  0.13603700866E+00  0.20758557457E-01 0.  0.
         14    1    1    2    0    0 -0.16987600021E-01 -0.40621972657E-02  0.98295903957E-02  0.20042476105E-01  0.00000000000E+00 0.  1.
     999901    1    3    3    0    0 -0.11016512063E+00  0.37574728563E-01  0.18174800245E-01  0.88785051523E+00  0.88000000000E+00 0.  1.
        -11    1    4    4    0    0  0.11391263074E+00 -0.34754736792E-01 -0.29351001340E-01  0.12266100265E+00  0.51100000000E-03 0. -1.
         11    1    4    4    0    0  0.13240089913E-01  0.12422054946E-02  0.13466106986E-02  0.13376006010E-01  0.51100000000E-03 0.  1.
</event>
<event>
 8    1  0.1128641E+005  0.1043930E+01  0.7957747E-01            NaN
         13   -1    0    0    0    0  0.00000000000E+00  0.00000000000E+00  0.74505805969E-08  0.10566000000E+00  0.10566000000E+00 0. -1.
     999900   -1    0    0    0    0 -0.00000000000E+00 -0.00000000000E+00 -0.74505805969E-08  0.93827000000E+00  0.93827000000E+00 0.  1.
     999902    2    1    2    0    0  0.21512364129E-01 -0.20973988305E-02  0.83846762753E-02  0.10207463055E+01  0.10204829918E+01 0.  0.
     999903    2    3    3    0    0 -0.12182047134E+00  0.35609537125E-01  0.50741475970E-02  0.12834668971E+00  0.18408134423E-01 0.  0.
         14    1    1    2    0    0 -0.21512364129E-01  0.20973988305E-02 -0.83846762753E-02  0.23183694453E-01  0.00000000000E+00 0.  1.
     999901    1    3    3    0    0  0.14333283547E+00 -0.37706935956E-01  0.33105286782E-02  0.89239961584E+00  0.88000000000E+00 0.  1.
        -11    1    4    4    0    0 -0.58838827425E-01  0.19067769796E-01 -0.65440717016E-02  0.62198661185E-01  0.51100000000E-03 0. -1.
         11    1    4    4    0    0 -0.62981643920E-01  0.16541767329E-01  0.11618219299E-01  0.66148028526E-01  0.51100000000E-03 0.  1.
</event>
<event>
 8    1  0.1128641E+005  0.1043930E+01  0.7957747E-01            NaN
         13   -1    0    0    0    0  0.00000000000E+00  0.00000000000E+00  0.74505805969E-08  0.10566000000E+00  0.10566000000E+00 0.  1.
     999900   -1    0    0    0    0 -0.00000000000E+00 -0.00000000000E+00 -0.74505805969E-08  0.93827000000E+00  0.93827000000E+00 0.  1.
     999902    2    1    2    0    0 -0.17809694525E-01  0.20192942325E-02  0.16251227139E-01  0.10197356793E+01  0.10194486209E+01 0.  0.
     999903    2    3    3    0    0  0.26665877333E-01 -0.90828416699E-01 -0.83986425986E-01  0.12808195675E+00  0.19758481758E-01 0.  0.
         14    1    1    2    0    0  0.17809694525E-01 -0.20192942325E-02 -0.16251227139E-01  0.24194320652E-01  0.00000000000E+00 0. -1.
     999901    1    3    3    0    0 -0.44475571859E-01  0.92847710931E-01  0.10023765312E+00  0.89165372260E+00  0.88000000000E+00 0. -1.
        -11    1    4    4    0    0  0.86325783085E-02 -0.48550851537E-01 -0.32493774896E-01  0.59057710091E-01  0.51100000000E-03 0. -1.
         11    1    4    4    0    0  0.18033299025E-01 -0.42277565161E-01 -0.51492651090E-01  0.69024246660E-01  0.51100000000E-03 0.  1.
</event>
<event>
 8    1  0.1128641E+005  0.1043930E+01  0.7957747E-01            NaN
         13   -1    0    0    0    0  0.00000000000E+00  0.00000000000E+00  0.74505805969E-08  0.10566000000E+00  0.10566000000E+00 0.  1.
     999900   -1    0    0    0    0 -0.00000000000E+00 -0.00000000000E+00 -0.74505805969E-08  0.93827000000E+00  0.93827000000E+00 0.  1.
     999902    2    1    2    0    0 -0.16065680072E-01  0.57537903572E-03  0.15849689224E-01  0.10213545756E+01  0.10211050482E+01 0.  0.
     999903    2    3    3    0    0  0.34338355814E-01 -0.11062109397E+00  0.59484457490E-01  0.13185515716E+00  0.20766142572E-01 0.  0.
         14    1    1    2    0    0  0.16065680072E-01 -0.57537903572E-03 -0.15849689224E-01  0.22575424375E-01  0.00000000000E+00 0.  1.
     999901    1    3    3    0    0 -0.50404035886E-01  0.11119647300E+00 -0.43634768265E-01  0.88949941846E+00  0.88000000000E+00 0.  1.
        -11    1    4    4    0    0  0.25911258790E-01 -0.10210217789E+00  0.56321794169E-01  0.11945146998E+00  0.51100000000E-03 0. -1.
         11    1    4    4    0    0  0.84270970233E-02 -0.85189160779E-02  0.31626633209E-02  0.12403687180E-01  0.51100000000E-03 0.  1.
</event>
<event>
 8    1  0.1128641E+005  0.1043930E+01  0.7957747E-01            NaN
         13   -1    0    0    0    0  0.00000000000E+00  0.00000000000E+00  0.74505805969E-08  0.10566000000E+00  0.10566000000E+00 0.  1.
     999900   -1    0    0    0    0 -0.00000000000E+00 -0.00000000000E+00 -0.74505805969E-08  0.93827000000E+00  0.93827000000E+00 0.  1.
     999902    2    1    2    0    0 -0.48378133137E-02  0.19821249413E-01 -0.12421968686E-01  0.10200429392E+01  0.10197632109E+01 0.  0.
     999903    2    3    3    0    0 -0.87501521819E-01  0.41781089716E-01  0.85112028478E-01  0.13053273475E+00  0.19813169104E-01 0.  0.
         14    1    1    2    0    0  0.48378133137E-02 -0.19821249413E-01  0.12421968686E-01  0.23887060764E-01  0.00000000000E+00 0.  1.
     999901    1    3    3    0    0  0.82663708506E-01 -0.21959840304E-01 -0.97533997163E-01  0.88951020449E+00  0.88000000000E+00 0.  1.
        -11    1    4    4    0    0 -0.38192220581E-01  0.29194868141E-01  0.41433855004E-01  0.63466617210E-01  0.51100000000E-03 0.  1.
         11    1    4    4    0    0 -0.49309301239E-01  0.12586221575E-01  0.43678173474E-01  0.67066117535E-01  0.51100000000E-03 0. -1.
</event>
<event>
 8    1  0.1128641E+005  0.1043930E+01  0.7957747E-01            NaN
         13   -1    0    0    0    0  0.00000000000E+00  0.00000000000E+00  0.74505805969E-08  0.10566000000E+00  0.10566000000E+00 0.  1.
     999900   -1    0    0    0    0 -0.00000000000E+00 -0.00000000000E+00 -0.74505805969E-08  0.93827000000E+00  0.93827000000E+00 0. -1.
     999902    2    1    2    0    0 -0.90818105352E-02  0.48577046929E-02  0.21965237806E-01  0.10196699866E+01  0.10193813483E+01 0.  0.
     999903    2    3    3    0    0  0.11700252295E+00  0.46556784652E-01 -0.18281965605E-01  0.12879630881E+00  0.19928229349E-01 0.  0.
         14    1    1    2    0    0  0.90818105352E-02 -0.48577046929E-02 -0.21965237806E-01  0.24260013383E-01  0.00000000000E+00 0. -1.
     999901    1    3    3    0    0 -0.12608433348E+00 -0.41699079959E-01  0.40247203411E-01  0.89087367780E+00  0.88000000000E+00 0.  1.
        -11    1    4    4    0    0  0.70857099861E-01  0.23313499578E-01 -0.20069532237E-02  0.74622629580E-01  0.51100000000E-03 0.  1.
         11    1    4    4    0    0  0.46145423085E-01  0.23243285074E-01 -0.16275012381E-01  0.54173679234E-01  0.51100000000E-03 0. -1.
</event>
<event>
 8    1  0.1128641E+005  0.1043930E+01  0.7957747E-01            NaN
         13   -1    0    0    0    0  0.00000000000E+00  0.00000000000E+00  0.74505805969E-08  0.10566000000E+00  0.10566000000E+00 0.  1.
     999900   -1    0    0    0    0 -0.00000000000E+00 -0.00000000000E+00 -0.74505805969E-08  0.93827000000E+00  0.93827000000E+00 0.  1.
     999902    2    1    2    0    0 -0.15402212229E-01  0.17977322222E-01  0.14463865287E-03  0.10202565301E+01  0.10199818401E+01 0.  0.
     999903    2    3    3    0    0 -0.17921506381E-01  0.77056810015E-01 -0.10418516252E+00  0.13212284641E+00  0.18519343810E-01 0.  0.
         14    1    1    2    0    0  0.15402212229E-01 -0.17977322222E-01 -0.14463865287E-03  0.23673469881E-01  0.00000000000E+00 0. -1.
     999901    1    3    3    0    0  0.25192941514E-02 -0.59079487793E-01  0.10432980117E+00  0.88813368371E+00  0.88000000000E+00 0. -1.
        -11    1    4    4    0    0 -0.47980706504E-02  0.36257233449E-01 -0.61992557759E-01  0.71978794084E-01  0.51100000000E-03 0.  1.
         11    1    4    4    0    0 -0.13123435730E-01  0.40799576566E-01 -0.42192604757E-01  0.60144052329E-01  0.51100000000E-03 0. -1.
</event>
<event>
 8    1  0.1128641E+005  0.1043930E+01  0.7957747E-01            NaN
         13   -1    0    0    0    0  0.00000000000E+00  0.00000000000E+00  0.74505805969E-08  0.10566000000E+00  0.10566000000E+00 0.  1.
     999900   -1    0    0    0    0 -0.00000000000E+00 -0.00000000000E+00 -0.74505805969E-08  0.93827000000E+00  0.93827000000E+00 0.  1.
     999902    2    1    2    0    0  0.13612517261E-01  0.96625682229E-02 -0.17430290864E-01  0.10197953591E+01  0.10195097320E+01 0.  0.
     999903    2    3    3    0    0  0.20116066001E-01 -0.42133986222E-01 -0.12133297083E+00  0.13214624708E+00  0.23685689806E-01 0.  0.
         14    1    1    2    0    0 -0.13612517261E-01 -0.96625682229E-02  0.17430290864E-01  0.24134640881E-01  0.00000000000E+00 0.  1.
     999901    1    3    3    0    0 -0.65035487400E-02  0.51796554445E-01  0.10390267996E+00  0.88764911204E+00  0.88000000000E+00 0. -1.
        -11    1    4    4    0    0  0.54469801399E-02 -0.29883136793E-01 -0.51984840682E-01  0.60210931225E-01  0.51100000000E-03 0. -1.
         11    1    4    4    0    0  0.14669085861E-01 -0.12250849429E-01 -0.69348130145E-01  0.71935315856E-01  0.51100000000E-03 0.  1.
</event>
<event>
 8    1  0.1128641E+005  0.1043930E+01  0.7957747E-01            NaN
         13   -1    0    0    0    0  0.00000000000E+00  0.00000000000E+00  0.74505805969E-08  0.10566000000E+00  0.10566000000E+00 0.  1.
     999900   -1    0    0    0    0 -0.00000000000E+00 -0.00000000000E+00 -0.74505805969E-08  0.93827000000E+00  0.93827000000E+00 0. -1.
     999902    2    1    2    0    0  0.39598764036E-02 -0.26581453962E-02 -0.19836259822E-01  0.10235284422E+01  0.10233250942E+01 0.  0.
     999903    2    3    3    0    0  0.75726169279E-01  0.35927921966E-01 -0.10464249337E+00  0.13570448291E+00  0.20985399070E-01 0.  0.
         14    1    1    2    0    0 -0.39598764036E-02  0.26581453962E-02  0.19836259822E-01  0.20401557828E-01  0.00000000000E+00 0.  1.
     999901    1    3    3    0    0 -0.71766292875E-01 -0.38586067362E-01  0.84806233545E-01  0.88782395926E+00  0.88000000000E+00 0.  1.
        -11    1    4    4    0    0  0.44878822330E-01  0.11782657389E-01 -0.47335295302E-01  0.66285978994E-01  0.51100000000E-03 0. -1.
         11    1    4    4    0    0  0.30847346949E-01  0.24145264577E-01 -0.57307198065E-01  0.69418503919E-01  0.51100000000E-03 0.  1.
</event>
<event>
 8    1  0.1128641E+005  0.1043930E+01  0.7957747E-01            NaN
         13   -1    0    0    0    0  0.00000000000E+00  0.00000000000E+00  0.74505805969E-08  0.10566000000E+00  0.10566000000E+00 0. -1.
     999900   -1    0    0    0    0 -0.00000000000E+00 -0.00000000000E+00 -0.74505805969E-08  0.93827000000E+00  0.93827000000E+00 0. -1.
     999902    2    1    2    0    0  0.29046974371E-02 -0.19470881699E-01 -0.11448046891E-01  0.10211569835E+01  0.10209030193E+01 0.  0.
     999903    2    3    3    0    0  0.41328855916E-02 -0.16598537033E-01 -0.13057323581E+00  0.13312513194E+00  0.19502273471E-01 0.  0.
         14    1    1    2    0    0 -0.29046974371E-02  0.19470881699E-01  0.11448046891E-01  0.22773016466E-01  0.00000000000E+00 0. -1.
     999901    1    3    3    0    0 -0.12281881545E-02 -0.28723446657E-02  0.11912518892E+00  0.88803185159E+00  0.88000000000E+00 0.  1.
        -11    1    4    4    0    0  0.27521090626E-02  0.18424403122E-03 -0.75045401909E-01  0.75097813010E-01  0.51100000000E-03 0.  1.
         11    1    4    4    0    0  0.13807765290E-02 -0.16782781064E-01 -0.55527833897E-01  0.58027318931E-01  0.51100000000E-03 0. -1.
</event>
<event>
 8    1  0.1128641E+005  0.1043930E+01  0.7957747E-01            NaN
         13   -1    0    0    0    0  0.00000000000E+00  0.00000000000E+00  0.74505805969E-08  0.10566000000E+00  0.10566000000E+00 0. -1.
     999900   -1    0    0    0    0 -0.00000000000E+00 -0.00000000000E+00 -0.74505805969E-08  0.93827000000E+00  0.93827000000E+00 0. -1.
     999902    2    1    2    0    0 -0.10053228550E-01 -0.16434380972E-01  0.12524430790E-01  0.10209513654E+01  0.10206927416E+01 0.  0.
     999903    2    3    3    0    0 -0.12003717872E+00  0.83988190986E-02  0.52308872778E-01  0.13286580704E+00  0.20919848696E-01 0.  0.
         14    1    1    2    0    0  0.10053228550E-01  0.16434380972E-01 -0.12524430790E-01  0.22978634617E-01  0.00000000000E+00 0.  1.
     999901    1    3    3    0    0  0.10998395017E+00 -0.24833200071E-01 -0.39784441988E-01  0.88808555835E+00  0.88000000000E+00 0.  1.
        -11    1    4    4    0    0 -0.64550255898E-01  0.10446817659E-01  0.18923925972E-01  0.68075308526E-01  0.51100000000E-03 0. -1.
         11    1    4    4    0    0 -0.55486922826E-01 -0.20479985605E-02  0.33384946806E-01  0.64790498509E-01  0.51100000000E-03 0.  1.
</event>
<event>
 8    1  0.1128641E+005  0.1043930E+01  0.7957747E-01            NaN
         13   -1    0    0    0    0  0.00000000000E+00  0.00000000000E+00  0.74505805969E-08  0.10566000000E+00  0.10566000000E+00 0.  1.
     999900   -1    0    0    0    0 -0.00000000000E+00 -0.00000000000E+00 -0.74505805969E-08  0.93827000000E+00  0.93827000000E+00 0. -1.
     999902    2    1    2    0    0  0.82466901937E-02  0.19955744501E-01  0.11130919049E-01  0.10196372645E+01  0.10193478377E+01 0.  0.
     999903    2    3    3    0    0 -0.34927590835E-01  0.61006711748E-01 -0.10811326264E+00  0.12959885226E+00  0.12869711216E-01 0.  0.
         14    1    1    2    0    0 -0.82466901937E-02 -0.19955744501E-01 -0.11130919049E-01  0.24292735470E-01  0.00000000000E+00 0. -1.
     999901    1    3    3    0    0  0.43174281029E-01 -0.41050967247E-01  0.11924418169E+00  0.89003841227E+00  0.88000000000E+00 0. -1.
        -11    1    4    4    0    0 -0.28344194374E-01  0.46397376070E-01 -0.92015066646E-01  0.10687910681E+00  0.51100000000E-03 0.  1.
         11    1    4    4    0    0 -0.65833964614E-02  0.14609335678E-01 -0.16098195998E-01  0.22719745450E-01  0.51100000000E-03 0. -1.
</event>
<event>
 8    1  0.1128641E+005  0.1043930E+01  0.7957747E-01            NaN
         13   -1    0    0    0    0  0.00000000000E+00  0.00000000000E+00  0.74505805969E-08  0.10566000000E+00  0.10566000000E+00 0.  1.
     999900   -1    0    0    0    0 -0.00000000000E+00 -0.00000000000E+00 -0.74505805969E-08  0.93827000000E+00  0.93827000000E+00 0. -1.
     999902    2    1    2    0    0 -0.31642307153E-03  0.16785554744E-01  0.17405292447E-01  0.10197473786E+01  0.10194606010E+01 0.  0.
     999903    2    3    3    0    0  0.33511437486E-02 -0.12679781877E+00 -0.40880501346E-02  0.12784402064E+00  0.15442294265E-01 0.  0.
         14    1    1    2    0    0  0.31642307153E-03 -0.16785554744E-01 -0.17405292447E-01  0.24182621380E-01  0.00000000000E+00 0. -1.
     999901    1    3    3    0    0 -0.36675668201E-02  0.14358337351E+00  0.21493342582E-01  0.89190335798E+00  0.88000000000E+00 0.  1.
        -11    1    4    4    0    0  0.26065599827E-02 -0.46824630187E-01 -0.88356710720E-02  0.47724944750E-01  0.51100000000E-03 0. -1.
         11    1    4    4    0    0  0.74458376593E-03 -0.79973188579E-01  0.47476209374E-02  0.80119075894E-01  0.51100000000E-03 0.  1.
</event>
<event>
 8    1  0.1128641E+005  0.1043930E+01  0.7957747E-01            NaN
         13   -1    0    0    0    0  0.00000000000E+00  0.00000000000E+00  0.74505805969E-08  0.10566000000E+00  0.10566000000E+00 0. -1.
     999900   -1    0    0    0    0 -0.00000000000E+00 -0.00000000000E+00 -0.74505805969E-08  0.93827000000E+00  0.93827000000E+00 0. -1.
     999902    2    1    2    0    0 -0.20297475176E-02 -0.21820888835E-01 -0.82435872258E-02  0.10205157352E+01  0.10202470966E+01 0.  0.
     999903    2    3    3    0    0  0.22175098262E-01  0.51697314213E-01  0.11391086461E+00  0.12871278006E+00  0.20662705384E-01 0.  0.
         14    1    1    2    0    0  0.20297475176E-02  0.21820888835E-01  0.82435872258E-02  0.23414264773E-01  0.00000000000E+00 0. -1.
     999901    1    3    3    0    0 -0.24204845779E-01 -0.73518203048E-01 -0.12215445184E+00  0.89180295517E+00  0.88000000000E+00 0. -1.
        -11    1    4    4    0    0  0.15808475228E-01  0.36556515042E-01  0.98230975339E-01  0.10599939773E+00  0.51100000000E-03 0. -1.
         11    1    4    4    0    0  0.63666230333E-02  0.15140799172E-01  0.15679889276E-01  0.22713382335E-01  0.51100000000E-03 0.  1.
</event>
<event>
 8    1  0.1128641E+005  0.1043930E+01  0.7957747E-01            NaN
         13   -1    0    0    0    0  0.00000000000E+00  0.00000000000E+00  0.74505805969E-08  0.10566000000E+00  0.10566000000E+00 0.  1.
     999900   -1    0    0    0    0 -0.00000000000E+00 -0.00000000000E+00 -0.74505805969E-08  0.93827000000E+00  0.93827000000E+00 0.  1.
     999902    2    1    2    0    0  0.30627168148E-02 -0.20388046309E-01 -0.30662526136E-01  0.10069808028E+01  0.10063026851E+01 0.  0.
     999903    2    3    3    0    0  0.95064408546E-01  0.16520122484E-01 -0.69184734093E-01  0.12057768640E+00  0.21030806164E-01 0.  0.
         14    1    1    2    0    0 -0.30627168148E-02  0.20388046309E-01  0.30662526136E-01  0.36949197226E-01  0.00000000000E+00 0.  1.
     999901    1    3    3    0    0 -0.92001691731E-01 -0.36908168793E-01  0.38522207956E-01  0.88640311637E+00  0.88000000000E+00 0. -1.
        -11    1    4    4    0    0  0.55083140289E-01  0.65822943941E-02 -0.27320111455E-01  0.61839538763E-01  0.51100000000E-03 0. -1.
         11    1    4    4    0    0  0.39981268257E-01  0.99378280900E-02 -0.41864622638E-01  0.58738147640E-01  0.51100000000E-03 0.  1.
</event>
<event>
 8    1  0.1128641E+005  0.1043930E+01  0.7957747E-01            NaN
         13   -1    0    0    0    0  0.00000000000E+00  0.00000000000E+00  0.74505805969E-08  0.10566000000E+00  0.10566000000E+00 0.  1.
     999900   -1    0    0    0    0 -0.00000000000E+00 -0.00000000000E+00 -0.74505805969E-08  0.93827000000E+00  0.93827000000E+00 0.  1.
     999902    2    1    2    0    0 -0.21617209048E-01  0.12294420738E-01 -0.41019649217E-02  0.10187251865E+01  0.10184133360E+01 0.  0.
     999903    2    3    3    0    0  0.68204104579E-01 -0.10046687911E+00 -0.30438183604E-01  0.12660603775E+00  0.18900055393E-01 0.  0.
         14    1    1    2    0    0  0.21617209048E-01 -0.12294420738E-01  0.41019649217E-02  0.25204813519E-01  0.00000000000E+00 0.  1.
     999901    1    3    3    0    0 -0.89821313626E-01  0.11276129985E+00  0.26336218682E-01  0.89211914873E+00  0.88000000000E+00 0. -1.
        -11    1    4    4    0    0  0.31344309457E-01 -0.30143046943E-01 -0.10327308322E-01  0.44698807954E-01  0.51100000000E-03 0. -1.
         11    1    4    4    0    0  0.36859795122E-01 -0.70323832164E-01 -0.20110875282E-01  0.81907229792E-01  0.51100000000E-03 0.  1.
</event>
<event>
 8    1  0.1128641E+005  0.1043930E+01  0.7957747E-01            NaN
         13   -1    0    0    0    0  0.00000000000E+00  0.00000000000E+00  0.74505805969E-08  0.10566000000E+00  0.10566000000E+00 0.  1.
     999900   -1    0    0    0    0 -0.00000000000E+00 -0.00000000000E+00 -0.74505805969E-08  0.93827000000E+00  0.93827000000E+00 0. -1.
     999902    2    1    2    0    0 -0.87159529303E-02 -0.17430263361E-01 -0.14102304119E-01  0.10198747116E+01  0.10195909820E+01 0.  0.
     999903    2    3    3    0    0 -0.56753226003E-01 -0.11828044203E+00  0.22479616992E-02  0.13266240936E+00  0.19572171438E-01 0.  0.
         14    1    1    2    0    0  0.87159529303E-02  0.17430263361E-01  0.14102304119E-01  0.24055288354E-01  0.00000000000E+00 0. -1.
     999901    1    3    3    0    0  0.48037273073E-01  0.10085017867E+00 -0.16350265819E-01  0.88721230229E+00  0.88000000000E+00 0. -1.
        -11    1    4    4    0    0 -0.45963796476E-01 -0.78450506464E-01 -0.35157899402E-02  0.90993265964E-01  0.51100000000E-03 0. -1.
         11    1    4    4    0    0 -0.10789429527E-01 -0.39829935570E-01  0.57637516394E-02  0.41669143391E-01  0.51100000000E-03 0.  1.
</event>
<event>
 8    1  0.1128641E+005  0.1043930E+01  0.7957747E-01            NaN
         13   -1    0    0    0    0  0.00000000000E+00  0.00000000000E+00  0.74505805969E-08  0.10566000000E+00  0.10566000000E+00 0. -1.
     999900   -1    0    0    0    0 -0.00000000000E+00 -0.00000000000E+00 -0.74505805969E-08  0.93827000000E+00  0.93827000000E+00 0. -1.
     999902    2    1    2    0    0  0.21293128375E-01  0.17185439910E-02 -0.86462788035E-02  0.10208842011E+01  0.10206240460E+01 0.  0.
     999903    2    3    3    0    0  0.14428665796E-01 -0.12069503718E+00  0.44074709801E-01  0.13082144582E+00  0.19904578523E-01 0.  0.
         14    1    1    2    0    0 -0.21293128375E-01 -0.17185439910E-02  0.86462788035E-02  0.23045798893E-01  0.00000000000E+00 0. -1.
     999901    1    3    3    0    0  0.68644625799E-02  0.12241358117E+00 -0.52720988605E-01  0.89006275528E+00  0.88000000000E+00 0. -1.
        -11    1    4    4    0    0  0.95376482010E-02 -0.82318088657E-01  0.19991506526E-01  0.85247615260E-01  0.51100000000E-03 0. -1.
         11    1    4    4    0    0  0.48910175947E-02 -0.38376948526E-01  0.24083203275E-01  0.45573830564E-01  0.51100000000E-03 0.  1.
</event>
<event>
 8    1  0.1128641E+005  0.1043930E+01  0.7957747E-01            NaN
         13   -1    0    0    0    0  0.00000000000E+00  0.00000000000E+00  0.74505805969E-08  0.10566000000E+00  0.10566000000E+00 0.  1.
     999900   -1    0    0    0    0 -0.00000000000E+00 -0.00000000000E+00 -0.74505805969E-08  0.93827000000E+00  0.93827000000E+00 0. -1.
     999902    2    1    2    0    0  0.21134721822E-01 -0.20646517080E-02 -0.10087953035E-01  0.10204202988E+01  0.10201494401E+01 0.  0.
     999903    2    3    3    0    0 -0.11409870339E+00 -0.11390363823E-01  0.52833763333E-01  0.12782061778E+00  0.19961194331E-01 0.  0.
         14    1    1    2    0    0 -0.21134721822E-01  0.20646517080E-02  0.10087953035E-01  0.23509701181E-01  0.00000000000E+00 0.  1.
     999901    1    3    3    0    0  0.13523342521E+00  0.93257121154E-02 -0.62921716368E-01  0.89259968104E+00  0.88000000000E+00 0.  1.
        -11    1    4    4    0    0 -0.31287906485E-01 -0.18369813104E-02  0.50948417764E-02  0.31757300361E-01  0.51100000000E-03 0. -1.
         11    1    4    4    0    0 -0.82810796903E-01 -0.95533825130E-02  0.47738921557E-01  0.96063317419E-01  0.51100000000E-03 0.  1.
</event>
<event>
 8    1  0.1128641E+005  0.1043930E+01  0.7957747E-01            NaN
         13   -1    0    0    0    0  0.00000000000E+00  0.00000000000E+00  0.74505805969E-08  0.10566000000E+00  0.10566000000E+00 0.  1.
     999900   -1    0    0    0    0 -0.00000000000E+00 -0.00000000000E+00 -0.74505805969E-08  0.93827000000E+00  0.93827000000E+00 0. -1.
     999902    2    1    2    0    0 -0.23352947435E-01 -0.88145971735E-02 -0.16623874786E-01  0.10139398268E+01  0.10134962071E+01 0.  0.
     999903    2    3    3    0    0 -0.11281299315E+00  0.50707891053E-01 -0.23146084344E-01  0.12737986512E+00  0.19794625000E-01 0.  0.
         14    1    1    2    0    0  0.23352947435E-01  0.88145971735E-02  0.16623874786E-01  0.29990173226E-01  0.00000000000E+00 0. -1.
     999901    1    3    3    0    0  0.89460045720E-01 -0.59522488227E-01  0.65222095581E-02  0.88655996165E+00  0.88000000000E+00 0.  1.
        -11    1    4    4    0    0 -0.45689621655E-01  0.23565171247E-01 -0.19157789472E-01  0.54864750444E-01  0.51100000000E-03 0. -1.
         11    1    4    4    0    0 -0.67123371500E-01  0.27142719806E-01 -0.39882948719E-02  0.72515114679E-01  0.51100000000E-03 0.  1.
</event>
<event>
 8    1  0.1128641E+005  0.1043930E+01  0.7957747E-01            NaN
         13   -1    0    0    0    0  0.00000000000E+00  0.00000000000E+00  0.74505805969E-08  0.10566000000E+00  0.10566000000E+00 0.  1.
     999900   -1    0    0    0    0 -0.00000000000E+00 -0.00000000000E+00 -0.74505805969E-08  0.93827000000E+00  0.93827000000E+00 0. -1.
     999902    2    1    2    0    0  0.10143025069E-01 -0.22272677038E-01 -0.37372600426E-02  0.10191727745E+01  0.10188720352E+01 0.  0.
     999903    2    3    3    0    0 -0.23387050767E-01  0.43145750581E-01  0.11643571245E+00  0.12796831989E+00  0.20251069781E-01 0.  0.
         14    1    1    2    0    0 -0.10143025069E-01  0.22272677038E-01  0.37372600426E-02  0.24757225463E-01  0.00000000000E+00 0. -1.
     999901    1    3    3    0    0  0.33530075836E-01 -0.65418427619E-01 -0.12017297249E+00  0.89120445464E+00  0.88000000000E+00 0. -1.
        -11    1    4    4    0    0  0.37444030863E-02  0.57495310369E-02  0.15738122999E-01  0.17176358699E-01  0.51100000000E-03 0.  1.
         11    1    4    4    0    0 -0.27131453853E-01  0.37396219544E-01  0.10069758945E+00  0.11079196120E+00  0.51100000000E-03 0. -1.
</event>
<event>
 8    1  0.1128641E+005  0.1043930E+01  0.7957747E-01            NaN
         13   -1    0    0    0    0  0.00000000000E+00  0.00000000000E+00  0.74505805969E-08  0.10566000000E+00  0.10566000000E+00 0. -1.
     999900   -1    0    0    0    0 -0.00000000000E+00 -0.00000000000E+00 -0.74505805969E-08  0.93827000000E+00  0.93827000000E+00 0.  1.
     999902    2    1    2    0    0 -0.57095251529E-02  0.20804586948E-01 -0.84243099908E-02  0.10207697212E+01  0.10205069452E+01 0.  0.
     999903    2    3    3    0    0 -0.10108586424E+00  0.26175184644E-01 -0.79532615785E-01  0.13274839232E+00  0.19829433962E-01 0.  0.
         14    1    1    2    0    0  0.57095251529E-02 -0.20804586948E-01  0.84243099908E-02  0.23160278806E-01  0.00000000000E+00 0. -1.
     999901    1    3    3    0    0  0.95376339083E-01 -0.53705976962E-02  0.71108305795E-01  0.88802132887E+00  0.88000000000E+00 0. -1.
        -11    1    4    4    0    0 -0.35500166781E-01  0.49300901297E-02 -0.38112138297E-01  0.52319822598E-01  0.51100000000E-03 0.  1.
         11    1    4    4    0    0 -0.65585697455E-01  0.21245094515E-01 -0.41420477488E-01  0.80428569725E-01  0.51100000000E-03 0. -1.
</event>
<event>
 8    1  0.1128641E+005  0.1043930E+01  0.7957747E-01            NaN
         13   -1    0    0    0    0  0.00000000000E+00  0.00000000000E+00  0.74505805969E-08  0.10566000000E+00  0.10566000000E+00 0. -1.
     999900   -1    0    0    0    0 -0.00000000000E+00 -0.00000000000E+00 -0.74505805969E-08  0.93827000000E+00  0.93827000000E+00 0. -1.
     999902    2    1    2    0    0 -0.19042323158E-01 -0.12582797276E-01 -0.54627907850E-02  0.10204613200E+01  0.10201914167E+01 0.  0.
     999903    2    3    3    0    0  0.12601082888E+00 -0.32522560070E-02  0.12585254236E-01  0.12835526808E+00  0.20673172337E-01 0.  0.
         14    1    1    2    0    0  0.19042323158E-01  0.12582797276E-01  0.54627907850E-02  0.23468680016E-01  0.00000000000E+00 0. -1.
     999901    1    3    3    0    0 -0.14505315204E+00 -0.93305412691E-02 -0.18048045021E-01  0.89210605191E+00  0.88000000000E+00 0.  1.
        -11    1    4    4    0    0  0.39316106572E-01 -0.90026895897E-02 -0.13429599945E-02  0.40359253194E-01  0.51100000000E-03 0.  1.
         11    1    4    4    0    0  0.86694722310E-01  0.57504335827E-02  0.13928214230E-01  0.87996014884E-01  0.51100000000E-03 0. -1.
</event>
<event>
 8    1  0.1128641E+005  0.1043930E+01  0.7957747E-01            NaN
         13   -1    0    0    0    0  0.00000000000E+00  0.00000000000E+00  0.74505805969E-08  0.10566000000E+00  0.10566000000E+00 0.  1.
     999900   -1    0    0    0    0 -0.00000000000E+00 -0.00000000000E+00 -0.74505805969E-08  0.93827000000E+00  0.93827000000E+00 0.  1.
     999902    2    1    2    0    0  0.71244326277E-02  0.18995539770E-01  0.12070015206E-01  0.10203233624E+01  0.10200502392E+01 0.  0.
     999903    2    3    3    0    0 -0.92052440972E-01 -0.66213114856E-01  0.58864093073E-01  0.12943265485E+00  0.20736494915E-01 0.  0.
         14    1    1    2    0    0 -0.71244326277E-02 -0.18995539770E-01 -0.12070015206E-01  0.23606637594E-01  0.00000000000E+00 0. -1.
     999901    1    3    3    0    0  0.99176873600E-01  0.85208654625E-01 -0.46794077867E-01  0.89089070755E+00  0.88000000000E+00 0.  1.
        -11    1    4    4    0    0 -0.33080076549E-01 -0.36347597458E-01  0.23988717027E-01  0.54691489018E-01  0.51100000000E-03 0. -1.
         11    1    4    4    0    0 -0.58972364423E-01 -0.29865517398E-01  0.34875376046E-01  0.74741165835E-01  0.51100000000E-03 0.  1.
</event>
<event>
 8    1  0.1128641E+005  0.1043930E+01  0.7957747E-01            NaN
         13   -1    0    0    0    0  0.00000000000E+00  0.00000000000E+00  0.74505805969E-08  0.10566000000E+00  0.10566000000E+00 0. -1.
     999900   -1    0    0    0    0 -0.00000000000E+00 -0.00000000000E+00 -0.74505805969E-08  0.93827000000E+00  0.93827000000E+00 0. -1.
     999902    2    1    2    0    0  0.55878124593E-02 -0.93752596431E-02 -0.20981135317E-01  0.10202799010E+01  0.10200057594E+01 0.  0.
     999903    2    3    3    0    0  0.10709795287E+00  0.66154334168E-01 -0.31062579515E-01  0.13117323497E+00  0.19878789880E-01 0.  0.
         14    1    1    2    0    0 -0.55878124593E-02  0.93752596431E-02  0.20981135317E-01  0.23650098957E-01  0.00000000000E+00 0. -1.
     999901    1    3    3    0    0 -0.10151014041E+00 -0.75529593811E-01  0.10081444197E-01  0.88910666608E+00  0.88000000000E+00 0. -1.
        -11    1    4    4    0    0  0.36422322245E-01  0.31039689828E-01 -0.18256245521E-01  0.51221084759E-01  0.51100000000E-03 0. -1.
         11    1    4    4    0    0  0.70675630625E-01  0.35114644340E-01 -0.12806333994E-01  0.79952150207E-01  0.51100000000E-03 0.  1.
</event>
<event>
 8    1  0.1128641E+005  0.1043930E+01  0.7957747E-01            NaN
         13   -1    0    0    0    0  0.00000000000E+00  0.00000000000E+00  0.74505805969E-08  0.10566000000E+00  0.10566000000E+00 0. -1.
     999900   -1    0    0    0    0 -0.00000000000E+00 -0.00000000000E+00 -0.74505805969E-08  0.93827000000E+00  0.93827000000E+00 0. -1.
     999902    2    1    2    0    0  0.11851451156E-02  0.77606515421E-02  0.19840768811E-01  0.10225925121E+01  0.10223698731E+01 0.  0.
     999903    2    3    3    0    0 -0.11188574816E+00 -0.31909729224E-01 -0.56950051351E-01  0.13115794018E+00  0.20553478117E-01 0.  0.
         14    1    1    2    0    0 -0.11851451156E-02 -0.77606515421E-02 -0.19840768811E-01  0.21337487863E-01  0.00000000000E+00 0. -1.
     999901    1    3    3    0    0  0.11307089328E+00  0.39670380767E-01  0.76790820163E-01  0.89143457196E+00  0.88000000000E+00 0. -1.
        -11    1    4    4    0    0 -0.97151801567E-01 -0.34186088953E-01 -0.52436667587E-01  0.11557260252E+00  0.51100000000E-03 0. -1.
         11    1    4    4    0    0 -0.14733946594E-01  0.22763597286E-02 -0.45133837643E-02  0.15585337656E-01  0.51100000000E-03 0.  1.
</event>
<event>
 8    1  0.1128641E+005  0.1043930E+01  0.7957747E-01            NaN
         13   -1    0    0    0    0  0.00000000000E+00  0.00000000000E+00  0.74505805969E-08  0.10566000000E+00  0.10566000000E+00 0.  1.
     999900   -1    0    0    0    0 -0.00000000000E+00 -0.00000000000E+00 -0.74505805969E-08  0.93827000000E+00  0.93827000000E+00 0. -1.
     999902    2    1    2    0    0 -0.13915977303E-01  0.19188779339E-01 -0.10213510469E-02  0.10202043423E+01  0.10199284255E+01 0.  0.
     999903    2    3    3    0    0  0.19959555090E-01 -0.86160900411E-01 -0.91337592931E-01  0.12868702316E+00  0.19892447030E-01 0.  0.
         14    1    1    2    0    0  0.13915977303E-01 -0.19188779339E-01  0.10213510469E-02  0.23725657731E-01  0.00000000000E+00 0. -1.
     999901    1    3    3    0    0 -0.33875532393E-01  0.10534967975E+00  0.90316241884E-01  0.89151731911E+00  0.88000000000E+00 0.  1.
        -11    1    4    4    0    0  0.67377466189E-03 -0.44866105738E-01 -0.49573002771E-01  0.66866771577E-01  0.51100000000E-03 0.  1.
         11    1    4    4    0    0  0.19285780428E-01 -0.41294794674E-01 -0.41764590160E-01  0.61820251586E-01  0.51100000000E-03 0. -1.
</event>
<event>
 8    1  0.1128641E+005  0.1043930E+01  0.7957747E-01            NaN
         13   -1    0    0    0    0  0.00000000000E+00  0.00000000000E+00  0.74505805969E-08  0.10566000000E+00  0.10566000000E+00 0.  1.
     999900   -1    0    0    0    0 -0.00000000000E+00 -0.00000000000E+00 -0.74505805969E-08  0.93827000000E+00  0.93827000000E+00 0. -1.
     999902    2    1    2    0    0  0.15807884046E-02 -0.22118863089E-01  0.64181114210E-02  0.10208446118E+01  0.10205835518E+01 0.  0.
     999903    2    3    3    0    0 -0.53401470978E-01  0.33585046377E-01  0.11306835642E+00  0.13095683842E+00  0.19635882004E-01 0.  0.
         14    1    1    2    0    0 -0.15807884046E-02  0.22118863089E-01 -0.64181114210E-02  0.23085388248E-01  0.00000000000E+00 0. -1.
     999901    1    3    3    0    0  0.54982259383E-01 -0.55703909466E-01 -0.10665024500E+00  0.88988777334E+00  0.88000000000E+00 0. -1.
        -11    1    4    4    0    0 -0.10083415891E-01  0.40549629724E-02  0.37032961339E-01  0.38598178030E-01  0.51100000000E-03 0.  1.
         11    1    4    4    0    0 -0.43318055087E-01  0.29530083404E-01  0.76035395079E-01  0.92358660385E-01  0.51100000000E-03 0. -1.
</event>
<event>
 8    1  0.1128641E+005  0.1043930E+01  0.7957747E-01            NaN
         13   -1    0    0    0    0  0.00000000000E+00  0.00000000000E+00  0.74505805969E-08  0.10566000000E+00  0.10566000000E+00 0. -1.
     999900   -1    0    0    0    0 -0.00000000000E+00 -0.00000000000E+00 -0.74505805969E-08  0.93827000000E+00  0.93827000000E+00 0.  1.
     999902    2    1    2    0    0 -0.17644020245E-01 -0.34111001722E-02  0.14796477288E-01  0.10206516239E+01  0.10203861301E+01 0.  0.
     999903    2    3    3    0    0  0.72419814339E-01  0.50498885273E-01  0.93998820007E-01  0.13088154575E+00  0.22348018564E-01 0.  0.
         14    1    1    2    0    0  0.17644020245E-01  0.34111001722E-02 -0.14796477288E-01  0.23278376123E-01  0.00000000000E+00 0.  1.
     999901    1    3    3    0    0 -0.90063834584E-01 -0.53909985445E-01 -0.79202342719E-01  0.88977007812E+00  0.88000000000E+00 0.  1.
        -11    1    4    4    0    0  0.26420118204E-01  0.26611714753E-01  0.27189901584E-01  0.46322325904E-01  0.51100000000E-03 0.  1.
         11    1    4    4    0    0  0.45999696135E-01  0.23887170520E-01  0.66808918422E-01  0.84559219851E-01  0.51100000000E-03 0. -1.
</event>
<event>
 8    1  0.1128641E+005  0.1043930E+01  0.7957747E-01            NaN
         13   -1    0    0    0    0  0.00000000000E+00  0.00000000000E+00  0.74505805969E-08  0.10566000000E+00  0.10566000000E+00 0.  1.
     999900   -1    0    0    0    0 -0.00000000000E+00 -0.00000000000E+00 -0.74505805969E-08  0.93827000000E+00  0.93827000000E+00 0.  1.
     999902    2    1    2    0    0  0.11155330190E-01  0.18815613115E-01 -0.84656981308E-02  0.10204750062E+01  0.10202054213E+01 0.  0.
     999903    2    3    3    0    0  0.90957728526E-01  0.91652380570E-01 -0.29103032787E-01  0.13362692619E+00  0.18322162587E-01 0.  0.
         14    1    1    2    0    0 -0.11155330190E-01 -0.18815613115E-01  0.84656981308E-02  0.23454993783E-01  0.00000000000E+00 0.  1.
     999901    1    3    3    0    0 -0.79802398336E-01 -0.72836767455E-01  0.20637334656E-01  0.88684808003E+00  0.88000000000E+00 0. -1.
        -11    1    4    4    0    0  0.43651174259E-01  0.53663342910E-01 -0.92788690577E-02  0.69796403334E-01  0.51100000000E-03 0. -1.
         11    1    4    4    0    0  0.47306554267E-01  0.37989037660E-01 -0.19824163729E-01  0.63830522851E-01  0.51100000000E-03 0.  1.
</event>
<event>
 8    1  0.1344090E+005  0.1043930E+01  0.7957747E-01            NaN
         13   -1    0    0    0    0  0.00000000000E+00  0.00000000000E+00  0.74505805969E-08  0.10566000000E+00  0.10566000000E+00 0. -1.
     999900   -1    0    0    0    0 -0.00000000000E+00 -0.00000000000E+00 -0.74505805969E-08  0.93827000000E+00  0.93827000000E+00 0. -1.
     999902    2    1    2    0    0  0.23273582461E-01 -0.52336852290E-02 -0.24433953490E-02  0.10199503986E+01  0.10196684728E+01 0.  0.
     999903    2    3    3    0    0 -0.59990094703E-01  0.11102128633E+00  0.11285212220E-01  0.12830218715E+00  0.20237532770E-01 0.  0.
         14    1    1    2    0    0 -0.23273582461E-01  0.52336852290E-02  0.24433953490E-02  0.23979601383E-01  0.00000000000E+00 0. -1.
     999901    1    3    3    0    0  0.83263677164E-01 -0.11625497156E+00 -0.13728607569E-01  0.89164821147E+00  0.88000000000E+00 0. -1.
        -11    1    4    4    0    0 -0.27418160014E-01  0.34367396333E-01  0.95644012434E-02  0.44995692254E-01  0.51100000000E-03 0.  1.
         11    1    4    4    0    0 -0.32571934689E-01  0.76653889993E-01  0.17208109768E-02  0.83306494896E-01  0.51100000000E-03 0. -1.
</event>
<event>
 8    1  0.1128641E+005  0.1043930E+01  0.7957747E-01            NaN
         13   -1    0    0    0    0  0.00000000000E+00  0.00000000000E+00  0.74505805969E-08  0.10566000000E+00  0.10566000000E+00 0.  1.
     999900   -1    0    0    0    0 -0.00000000000E+00 -0.00000000000E+00 -0.74505805969E-08  0.93827000000E+00  0.93827000000E+00 0.  1.
     999902    2    1    2    0    0 -0.22400971178E-01  0.16521880082E-02  0.67627523765E-02  0.10204722070E+01  0.10202025569E+01 0.  0.
     999903    2    3    3    0    0 -0.61161870168E-01  0.40668847996E-01 -0.10711617986E+00  0.13143164643E+00  0.20141304244E-01 0.  0.
         14    1    1    2    0    0  0.22400971178E-01 -0.16521880082E-02 -0.67627523765E-02  0.23457793047E-01  0.00000000000E+00 0. -1.
     999901    1    3    3    0    0  0.38760898990E-01 -0.39016659987E-01  0.11387893223E+00  0.88904056052E+00  0.88000000000E+00 0. -1.
        -11    1    4    4    0    0 -0.24272572105E-01  0.13564556370E-01 -0.57801061069E-01  0.64143423106E-01  0.51100000000E-03 0.  1.
         11    1    4    4    0    0 -0.36889298063E-01  0.27104291625E-01 -0.49315118788E-01  0.67288223325E-01  0.51100000000E-03 0. -1.
</event>
<event>
 8    1  0.1128641E+005  0.1043930E+01  0.7957747E-01            NaN
         13   -1    0    0    0    0  0.00000000000E+00  0.00000000000E+00  0.74505805969E-08  0.10566000000E+00  0.10566000000E+00 0. -1.
     999900   -1    0    0    0    0 -0.00000000000E+00 -0.00000000000E+00 -0.74505805969E-08  0.93827000000E+00  0.93827000000E+00 0.  1.
     999902    2    1    2    0    0 -0.13113845693E-01 -0.44945141628E-02  0.18474916327E-01  0.10208324646E+01  0.10205711267E+01 0.  0.
     999903    2    3    3    0    0  0.28346796425E-01  0.92749942907E-01  0.87137382176E-01  0.13184989817E+00  0.19631084980E-01 0.  0.
         14    1    1    2    0    0  0.13113845693E-01  0.44945141628E-02 -0.18474916327E-01  0.23097535360E-01  0.00000000000E+00 0.  1.
     999901    1    3    3    0    0 -0.41460642118E-01 -0.97244457070E-01 -0.68662465849E-01  0.88898256647E+00  0.88000000000E+00 0.  1.
        -11    1    4    4    0    0  0.75071953957E-03  0.72650136749E-02  0.99093737756E-03  0.73883070733E-02  0.51100000000E-03 0.  1.
         11    1    4    4    0    0  0.27596076886E-01  0.85484929233E-01  0.86146444798E-01  0.12446159109E+00  0.51100000000E-03 0. -1.
</event>
<event>
 8    1  0.1128641E+005  0.1043930E+01  0.7957747E-01            NaN
         13   -1    0    0    0    0  0.00000000000E+00  0.00000000000E+00  0.74505805969E-08  0.10566000000E+00  0.10566000000E+00 0. -1.
     999900   -1    0    0    0    0 -0.00000000000E+00 -0.00000000000E+00 -0.74505805969E-08  0.93827000000E+00  0.93827000000E+00 0.  1.
     999902    2    1    2    0    0  0.25903312685E-02 -0.51459746671E-02  0.22449231616E-01  0.10207533119E+01  0.10204901591E+01 0.  0.
     999903    2    3    3    0    0 -0.37502841939E-01  0.11929404003E+00 -0.28276179252E-01  0.12964958780E+00  0.19285802124E-01 0.  0.
         14    1    1    2    0    0 -0.25903312685E-02  0.51459746671E-02 -0.22449231616E-01  0.23176688105E-01  0.00000000000E+00 0.  1.
     999901    1    3    3    0    0  0.40093173208E-01 -0.12444001469E+00  0.50725410868E-01  0.89110372410E+00  0.88000000000E+00 0. -1.
        -11    1    4    4    0    0 -0.29655629300E-01  0.62603035511E-01 -0.14309132618E-01  0.70736191597E-01  0.51100000000E-03 0. -1.
         11    1    4    4    0    0 -0.78472126392E-02  0.56691004514E-01 -0.13967046634E-01  0.58913396199E-01  0.51100000000E-03 0.  1.
</event>
<event>
 8    1  0.1128641E+005  0.1043930E+01  0.7957747E-01            NaN
         13   -1    0    0    0    0  0.00000000000E+00  0.00000000000E+00  0.74505805969E-08  0.10566000000E+00  0.10566000000E+00 0.  1.
     999900   -1    0    0    0    0 -0.00000000000E+00 -0.00000000000E+00 -0.74505805969E-08  0.93827000000E+00  0.93827000000E+00 0. -1.
     999902    2    1    2    0    0 -0.13794949728E-01  0.15992564531E-01  0.55194568776E-02  0.10221004979E+01  0.10218673596E+01 0.  0.
     999903    2    3    3    0    0  0.17059778589E-01 -0.11703993648E+00 -0.49375304477E-01  0.12987681774E+00  0.20992482413E-01 0.  0.
         14    1    1    2    0    0  0.13794949728E-01 -0.15992564531E-01 -0.55194568776E-02  0.21829502113E-01  0.00000000000E+00 0. -1.
     999901    1    3    3    0    0 -0.30854728317E-01  0.13303250101E+00  0.54894761355E-01  0.89222368014E+00  0.88000000000E+00 0. -1.
        -11    1    4    4    0    0  0.17685239631E-01 -0.72383210730E-01 -0.22891073231E-01  0.77951005452E-01  0.51100000000E-03 0.  1.
         11    1    4    4    0    0 -0.62546104206E-03 -0.44656725752E-01 -0.26484231247E-01  0.51925812291E-01  0.51100000000E-03 0. -1.
</event>
<event>
 8    1  0.1128641E+005  0.1043930E+01  0.7957747E-01            NaN
         13   -1    0    0    0    0  0.00000000000E+00  0.00000000000E+00  0.74505805969E-08  0.10566000000E+00  0.10566000000E+00 0. -1.
     999900   -1    0    0    0    0 -0.00000000000E+00 -0.00000000000E+00 -0.74505805969E-08  0.93827000000E+00  0.93827000000E+00 0.  1.
     999902    2    1    2    0    0  0.21808476414E-01 -0.60232341257E-02  0.97240300838E-04  0.10213048271E+01  0.10210541863E+01 0.  0.
     999903    2    3    3    0    0 -0.51381014439E-01  0.21269712041E-01 -0.11616431624E+00  0.13022775075E+00  0.19305683186E-01 0.  0.
         14    1    1    2    0    0 -0.21808476414E-01  0.60232341257E-02 -0.97240300838E-04  0.22625172894E-01  0.00000000000E+00 0.  1.
     999901    1    3    3    0    0  0.73189490853E-01 -0.27292946166E-01  0.11626155654E+00  0.89107707636E+00  0.88000000000E+00 0. -1.
        -11    1    4    4    0    0 -0.51724264627E-01  0.18820196934E-01 -0.10262557226E+00  0.11645543597E+00  0.51100000000E-03 0.  1.
         11    1    4    4    0    0  0.34325018769E-03  0.24495151064E-02 -0.13538743979E-01  0.13772314783E-01  0.51100000000E-03 0. -1.
</event>
<event>
 8    1  0.1128641E+005  0.1043930E+01  0.7957747E-01            NaN
         13   -1    0    0    0    0  0.00000000000E+00  0.00000000000E+00  0.74505805969E-08  0.10566000000E+00  0.10566000000E+00 0. -1.
     999900   -1    0    0    0    0 -0.00000000000E+00 -0.00000000000E+00 -0.74505805969E-08  0.93827000000E+00  0.93827000000E+00 0.  1.
     999902    2    1    2    0    0  0.21633166436E-01 -0.78784558234E-02  0.28829826841E-02  0.10207270789E+01  0.10204633233E+01 0.  0.
     999903    2    3    3    0    0  0.12900217457E+00  0.79630753565E-02  0.28122108255E-01  0.13370054525E+00  0.19493876345E-01 0.  0.
         14    1    1    2    0    0 -0.21633166436E-01  0.78784558234E-02 -0.28829826841E-02  0.23202921052E-01  0.00000000000E+00 0.  1.
     999901    1    3    3    0    0 -0.10736900814E+00 -0.15841531180E-01 -0.25239125571E-01  0.88702653369E+00  0.88000000000E+00 0.  1.
        -11    1    4    4    0    0  0.78822323590E-01 -0.46208527304E-02  0.17947405690E-01  0.80973338007E-01  0.51100000000E-03 0.  1.
         11    1    4    4    0    0  0.50179850982E-01  0.12583928087E-01  0.10174702566E-01  0.52727207246E-01  0.51100000000E-03 0. -1.
</event>
<event>
 8    1  0.1128641E+005  0.1043930E+01  0.7957747E-01            NaN
         13   -1    0    0    0    0  0.00000000000E+00  0.00000000000E+00  0.74505805969E-08  0.10566000000E+00  0.10566000000E+00 0. -1.
     999900   -1    0    0    0    0 -0.00000000000E+00 -0.00000000000E+00 -0.74505805969E-08  0.93827000000E+00  0.93827000000E+00 0.  1.
     999902    2    1    2    0    0  0.12327619680E-01  0.18822352435E-01  0.38846792231E-02  0.10210970876E+01  0.10208417705E+01 0.  0.
     999903    2    3    3    0    0  0.38644926826E-01  0.88422331604E-01 -0.89462229987E-01  0.13303717785E+00  0.19582160284E-01 0.  0.
         14    1    1    2    0    0 -0.12327619680E-01 -0.18822352435E-01 -0.38846792231E-02  0.22832912448E-01  0.00000000000E+00 0. -1.
     999901    1    3    3    0    0 -0.26317307146E-01 -0.69599979168E-01  0.93346909210E-01  0.88805990970E+00  0.88000000000E+00 0. -1.
        -11    1    4    4    0    0  0.29638676825E-01  0.54898535315E-01 -0.67697388929E-01  0.92062467556E-01  0.51100000000E-03 0.  1.
         11    1    4    4    0    0  0.90062500010E-02  0.33523796289E-01 -0.21764841057E-01  0.40974710297E-01  0.51100000000E-03 0. -1.
</event>
<event>
 7    1  0.1128641E+005  0.1043930E+01  0.7957747E-01            NaN
         13   -1    0    0    0    0  0.00000000000E+00  0.00000000000E+00  0.74505805969E-08  0.10566000000E+00  0.10566000000E+00 0. -1.
     999900   -1    0    0    0    0 -0.00000000000E+00 -0.00000000000E+00 -0.74505805969E-08  0.93827000000E+00  0.93827000000E+00 0.  1.
     999903    2    1    2    0    0  0.13775832274E-01 -0.39067005204E-01  0.97502837423E-01  0.10789554419E+00  0.20460711110E-01 0.  0.
         14    1    1    2    0    0  0.21607163051E-01 -0.32163779213E-02 -0.48214389192E-01  0.52932427747E-01  0.00000000000E+00 0.  1.
     999901    1    1    2    0    0 -0.35382995325E-01  0.42283383125E-01 -0.49288448231E-01  0.88310202807E+00  0.88000000000E+00 0.  1.
        -11    1    3    3    0    0  0.10888083338E-01 -0.40394214934E-01  0.81943772446E-01  0.92006988444E-01  0.51100000000E-03 0. -1.
         11    1    3    3    0    0  0.28877489361E-02  0.13272097301E-02  0.15559064977E-01  0.15888555742E-01  0.51100000000E-03 0.  1.
</event>
<event>
 8    1  0.1128641E+005  0.1043930E+01  0.7957747E-01            NaN
         13   -1    0    0    0    0  0.00000000000E+00  0.00000000000E+00  0.74505805969E-08  0.10566000000E+00  0.10566000000E+00 0. -1.
     999900   -1    0    0    0    0 -0.00000000000E+00 -0.00000000000E+00 -0.74505805969E-08  0.93827000000E+00  0.93827000000E+00 0.  1.
     999902    2    1    2    0    0 -0.94414103339E-02  0.33047590797E-01  0.46583340248E-02  0.10092459466E+01  0.10086497891E+01 0.  0.
     999903    2    3    3    0    0 -0.41642864340E-01  0.57288794376E-01  0.99093327420E-01  0.12327611775E+00  0.19009985739E-01 0.  0.
         14    1    1    2    0    0  0.94414103339E-02 -0.33047590797E-01 -0.46583340248E-02  0.34684053432E-01  0.00000000000E+00 0.  1.
     999901    1    3    3    0    0  0.32201454007E-01 -0.24241203579E-01 -0.94434993395E-01  0.88596982881E+00  0.88000000000E+00 0.  1.
        -11    1    4    4    0    0 -0.26125409106E-01  0.22876006399E-01  0.56873545784E-01  0.66638652453E-01  0.51100000000E-03 0. -1.
         11    1    4    4    0    0 -0.15517455234E-01  0.34412787977E-01  0.42219781636E-01  0.56637465301E-01  0.51100000000E-03 0.  1.
</event>
<event>
 8    1  0.1128641E+005  0.1043930E+01  0.7957747E-01            NaN
         13   -1    0    0    0    0  0.00000000000E+00  0.00000000000E+00  0.74505805969E-08  0.10566000000E+00  0.10566000000E+00 0. -1.
     999900   -1    0    0    0    0 -0.00000000000E+00 -0.00000000000E+00 -0.74505805969E-08  0.93827000000E+00  0.93827000000E+00 0.  1.
     999902    2    1    2    0    0  0.14177742375E-01 -0.21398576655E-01  0.59913486540E-02  0.10175708703E+01  0.10172294099E+01 0.  0.
     999903    2    3    3    0    0  0.77269755736E-01 -0.42329876791E-01 -0.92582753924E-01  0.12957561399E+00  0.21350405030E-01 0.  0.
         14    1    1    2    0    0 -0.14177742375E-01  0.21398576655E-01 -0.59913486540E-02  0.26359129735E-01  0.00000000000E+00 0. -1.
     999901    1    3    3    0    0 -0.63092013362E-01  0.20931300136E-01  0.98574102578E-01  0.88799525628E+00  0.88000000000E+00 0. -1.
        -11    1    4    4    0    0  0.39460565877E-01 -0.14860944275E-01 -0.31356731411E-01  0.52549877734E-01  0.51100000000E-03 0. -1.
         11    1    4    4    0    0  0.37809189859E-01 -0.27468932515E-01 -0.61226022513E-01  0.77025736252E-01  0.51100000000E-03 0.  1.
</event>
<event>
 8    1  0.1128641E+005  0.1043930E+01  0.7957747E-01            NaN
         13   -1    0    0    0    0  0.00000000000E+00  0.00000000000E+00  0.74505805969E-08  0.10566000000E+00  0.10566000000E+00 0. -1.
     999900   -1    0    0    0    0 -0.00000000000E+00 -0.00000000000E+00 -0.74505805969E-08  0.93827000000E+00  0.93827000000E+00 0.  1.
     999902    2    1    2    0    0 -0.20865676759E-01  0.25807771419E-02  0.85096179833E-02  0.10212484993E+01  0.10209965949E+01 0.  0.
     999903    2    3    3    0    0  0.94875146832E-01  0.71967197084E-01  0.48266646009E-01  0.13007453488E+00  0.20227322253E-01 0.  0.
         14    1    1    2    0    0  0.20865676759E-01 -0.25807771419E-02 -0.85096179833E-02  0.22681500733E-01  0.00000000000E+00 0. -1.
     999901    1    3    3    0    0 -0.11574082359E+00 -0.69386419942E-01 -0.39757028026E-01  0.89117396438E+00  0.88000000000E+00 0.  1.
        -11    1    4    4    0    0  0.32760667087E-01  0.15960615174E-01  0.21219196828E-01  0.42172478937E-01  0.51100000000E-03 0.  1.
         11    1    4    4    0    0  0.62114479745E-01  0.56006581910E-01  0.27047449181E-01  0.87902055946E-01  0.51100000000E-03 0. -1.
</event>
<event>
 8    1  0.1128641E+005  0.1043930E+01  0.7957747E-01            NaN
         13   -1    0    0    0    0  0.00000000000E+00  0.00000000000E+00  0.74505805969E-08  0.10566000000E+00  0.10566000000E+00 0.  1.
     999900   -1    0    0    0    0 -0.00000000000E+00 -0.00000000000E+00 -0.74505805969E-08  0.93827000000E+00  0.93827000000E+00 0.  1.
     999902    2    1    2    0    0 -0.44619014168E-02 -0.19173109622E-01  0.10027053168E-01  0.10218379541E+01  0.10215991122E+01 0.  0.
     999903    2    3    3    0    0 -0.26115564173E-02  0.14538523441E-01 -0.12788863365E+00  0.13045664700E+00  0.21100835031E-01 0.  0.
         14    1    1    2    0    0  0.44619014168E-02  0.19173109622E-01 -0.10027053168E-01  0.22092045901E-01  0.00000000000E+00 0. -1.
     999901    1    3    3    0    0 -0.18503449995E-02 -0.33711633064E-01  0.13791568682E+00  0.89138130710E+00  0.88000000000E+00 0. -1.
        -11    1    4    4    0    0 -0.62318994499E-02  0.18890250944E-01 -0.92659034951E-01  0.94771493765E-01  0.51100000000E-03 0. -1.
         11    1    4    4    0    0  0.36203430327E-02 -0.43517275025E-02 -0.35229598697E-01  0.35685153233E-01  0.51100000000E-03 0.  1.
</event>
<event>
 8    1  0.1128641E+005  0.1043930E+01  0.7957747E-01            NaN
         13   -1    0    0    0    0  0.00000000000E+00  0.00000000000E+00  0.74505805969E-08  0.10566000000E+00  0.10566000000E+00 0. -1.
     999900   -1    0    0    0    0 -0.00000000000E+00 -0.00000000000E+00 -0.74505805969E-08  0.93827000000E+00  0.93827000000E+00 0.  1.
     999902    2    1    2    0    0  0.74467048068E-02  0.13916310074E-02 -0.22433903095E-01  0.10202515276E+01  0.10199767200E+01 0.  0.
     999903    2    3    3    0    0  0.38207834145E-01 -0.63719554430E-01  0.10288287842E+00  0.12846118825E+00  0.19934141767E-01 0.  0.
         14    1    1    2    0    0 -0.74467048068E-02 -0.13916310074E-02  0.22433903095E-01  0.23678472446E-01  0.00000000000E+00 0. -1.
     999901    1    3    3    0    0 -0.30761129339E-01  0.65111185438E-01 -0.12531678151E+00  0.89179033930E+00  0.88000000000E+00 0.  1.
        -11    1    4    4    0    0  0.99421363759E-02 -0.38343928958E-02  0.12991505944E-01  0.16810383466E-01  0.51100000000E-03 0.  1.
         11    1    4    4    0    0  0.28265697770E-01 -0.59885161534E-01  0.89891372474E-01  0.11165080478E+00  0.51100000000E-03 0. -1.
</event>
<event>
 8    1  0.1128641E+005  0.1043930E+01  0.7957747E-01            NaN
         13   -1    0    0    0    0  0.00000000000E+00  0.00000000000E+00  0.74505805969E-08  0.10566000000E+00  0.10566000000E+00 0. -1.
     999900   -1    0    0    0    0 -0.00000000000E+00 -0.00000000000E+00 -0.74505805969E-08  0.93827000000E+00  0.93827000000E+00 0. -1.
     999902    2    1    2    0    0 -0.22768634404E-01  0.87664698976E-03  0.17196214713E-02  0.10210796976E+01  0.10208239870E+01 0.  0.
     999903    2    3    3    0    0  0.86954111034E-01 -0.28955112515E-01 -0.88972243059E-01  0.12914134263E+00  0.19026570239E-01 0.  0.
         14    1    1    2    0    0  0.22768634404E-01 -0.87664698976E-03 -0.17196214713E-02  0.22850302418E-01  0.00000000000E+00 0.  1.
     999901    1    3    3    0    0 -0.10972274544E+00  0.29831759504E-01  0.90691864531E-01  0.89193835495E+00  0.88000000000E+00 0.  1.
        -11    1    4    4    0    0  0.21255006237E-01 -0.15587909448E-01 -0.28914423805E-01  0.39128803151E-01  0.51100000000E-03 0.  1.
         11    1    4    4    0    0  0.65699104797E-01 -0.13367203067E-01 -0.60057819254E-01  0.90012539479E-01  0.51100000000E-03 0. -1.
</event>
<event>
 8    1  0.1128641E+005  0.1043930E+01  0.7957747E-01            NaN
         13   -1    0    0    0    0  0.00000000000E+00  0.00000000000E+00  0.74505805969E-08  0.10566000000E+00  0.10566000000E+00 0. -1.
     999900   -1    0    0    0    0 -0.00000000000E+00 -0.00000000000E+00 -0.74505805969E-08  0.93827000000E+00  0.93827000000E+00 0.  1.
     999902    2    1    2    0    0 -0.41535748495E-02 -0.16306014544E-01  0.15252258403E-01  0.10212194368E+01  0.10209668792E+01 0.  0.
     999903    2    3    3    0    0 -0.34664781494E-01  0.12327253386E+00 -0.33938882423E-03  0.12956019451E+00  0.19696805194E-01 0.  0.
         14    1    1    2    0    0  0.41535748495E-02  0.16306014544E-01 -0.15252258403E-01  0.22710563197E-01  0.00000000000E+00 0.  1.
     999901    1    3    3    0    0  0.30511206644E-01 -0.13957854841E+00  0.15591647227E-01  0.89165924229E+00  0.88000000000E+00 0. -1.
        -11    1    4    4    0    0 -0.30123043683E-02  0.32636746010E-01  0.60885580758E-02  0.33340108401E-01  0.51100000000E-03 0. -1.
         11    1    4    4    0    0 -0.31652477125E-01  0.90635787854E-01 -0.64279469000E-02  0.96220086107E-01  0.51100000000E-03 0.  1.
</event>
<event>
 8    1  0.1128641E+005  0.1043930E+01  0.7957747E-01            NaN
         13   -1    0    0    0    0  0.00000000000E+00  0.00000000000E+00  0.74505805969E-08  0.10566000000E+00  0.10566000000E+00 0. -1.
     999900   -1    0    0    0    0 -0.00000000000E+00 -0.00000000000E+00 -0.74505805969E-08  0.93827000000E+00  0.93827000000E+00 0. -1.
     999902    2    1    2    0    0  0.38168412878E-02 -0.21427358498E-01  0.10034697431E-01  0.10199634583E+01  0.10196818431E+01 0.  0.
     999903    2    3    3    0    0 -0.93128491409E-01  0.73621161518E-01  0.45384126282E-01  0.12885055813E+00  0.21207453328E-01 0.  0.
         14    1    1    2    0    0 -0.38168412878E-02  0.21427358498E-01 -0.10034697431E-01  0.23966541723E-01  0.00000000000E+00 0.  1.
     999901    1    3    3    0    0  0.96945332697E-01 -0.95048520016E-01 -0.35349428851E-01  0.89111290015E+00  0.88000000000E+00 0. -1.
        -11    1    4    4    0    0 -0.11216827495E-01  0.77008802023E-02  0.13018554972E-01  0.18837852041E-01  0.51100000000E-03 0.  1.
         11    1    4    4    0    0 -0.81911663914E-01  0.65920281315E-01  0.32365571310E-01  0.11001270609E+00  0.51100000000E-03 0. -1.
</event>
<event>
 8    1  0.1128641E+005  0.1043930E+01  0.7957747E-01            NaN
         13   -1    0    0    0    0  0.00000000000E+00  0.00000000000E+00  0.74505805969E-08  0.10566000000E+00  0.10566000000E+00 0.  1.
     999900   -1    0    0    0    0 -0.00000000000E+00 -0.00000000000E+00 -0.74505805969E-08  0.93827000000E+00  0.93827000000E+00 0.  1.
     999902    2    1    2    0    0 -0.15207823174E-01  0.30902844066E-02 -0.17930530033E-01  0.10202164669E+01  0.10199408354E+01 0.  0.
     999903    2    3    3    0    0 -0.69766622505E-01 -0.88073457579E-01 -0.67363990475E-01  0.13244895376E+00  0.19506475654E-01 0.  0.
         14    1    1    2    0    0  0.15207823174E-01 -0.30902844066E-02  0.17930530033E-01  0.23713533070E-01  0.00000000000E+00 0.  1.
     999901    1    3    3    0    0  0.54558799331E-01  0.91163741986E-01  0.49433460442E-01  0.88776751317E+00  0.88000000000E+00 0.  1.
        -11    1    4    4    0    0 -0.23237160827E-01 -0.21143117987E-01 -0.10779608670E-01  0.33218340801E-01  0.51100000000E-03 0.  1.
         11    1    4    4    0    0 -0.46529461678E-01 -0.66930339593E-01 -0.56584381805E-01  0.99230612955E-01  0.51100000000E-03 0. -1.
</event>
<event>
 8    1  0.1128641E+005  0.1043930E+01  0.7957747E-01            NaN
         13   -1    0    0    0    0  0.00000000000E+00  0.00000000000E+00  0.74505805969E-08  0.10566000000E+00  0.10566000000E+00 0.  1.
     999900   -1    0    0    0    0 -0.00000000000E+00 -0.00000000000E+00 -0.74505805969E-08  0.93827000000E+00  0.93827000000E+00 0. -1.
     999902    2    1    2    0    0  0.40570893345E-02 -0.20992210035E-01  0.96242485766E-02  0.10204830595E+01  0.10202136618E+01 0.  0.
     999903    2    3    3    0    0  0.66532698782E-01  0.10701902462E+00 -0.13919780136E-01  0.12871829277E+00  0.22247853305E-01 0.  0.
         14    1    1    2    0    0 -0.40570893345E-02  0.20992210035E-01 -0.96242485766E-02  0.23446940455E-01  0.00000000000E+00 0. -1.
     999901    1    3    3    0    0 -0.62475609448E-01 -0.12801123466E+00  0.23544028713E-01  0.89176476678E+00  0.88000000000E+00 0.  1.
        -11    1    4    4    0    0  0.32733847176E-01  0.61447040670E-01  0.24403038990E-02  0.69666776603E-01  0.51100000000E-03 0.  1.
         11    1    4    4    0    0  0.33798851606E-01  0.45571983950E-01 -0.16360084035E-01  0.59051516167E-01  0.51100000000E-03 0. -1.
</event>
<event>
 8    1  0.1128641E+005  0.1043930E+01  0.7957747E-01            NaN
         13   -1    0    0    0    0  0.00000000000E+00  0.00000000000E+00  0.74505805969E-08  0.10566000000E+00  0.10566000000E+00 0. -1.
     999900   -1    0    0    0    0 -0.00000000000E+00 -0.00000000000E+00 -0.74505805969E-08  0.93827000000E+00  0.93827000000E+00 0.  1.
     999902    2    1    2    0    0  0.73914502315E-02 -0.73564844059E-02  0.21623190397E-01  0.10199234642E+01  0.10196408971E+01 0.  0.
     999903    2    3    3    0    0 -0.78849375786E-01  0.91729169859E-01  0.43246239275E-01  0.12991054113E+00  0.19366125562E-01 0.  0.
         14    1    1    2    0    0 -0.73914502315E-02  0.73564844059E-02 -0.21623190397E-01  0.24006535824E-01  0.00000000000E+00 0.  1.
     999901    1    3    3    0    0  0.86240826018E-01 -0.99085654265E-01 -0.21623048878E-01  0.89001292305E+00  0.88000000000E+00 0. -1.
        -11    1    4    4    0    0 -0.22590968257E-01  0.40594756582E-01  0.17378173591E-01  0.49603912619E-01  0.51100000000E-03 0.  1.
         11    1    4    4    0    0 -0.56258407529E-01  0.51134413277E-01  0.25868065683E-01  0.80306628507E-01  0.51100000000E-03 0. -1.
</event>
<event>
 8    1  0.1128641E+005  0.1043930E+01  0.7957747E-01            NaN
         13   -1    0    0    0    0  0.00000000000E+00  0.00000000000E+00  0.74505805969E-08  0.10566000000E+00  0.10566000000E+00 0. -1.
     999900   -1    0    0    0    0 -0.00000000000E+00 -0.00000000000E+00 -0.74505805969E-08  0.93827000000E+00  0.93827000000E+00 0.  1.
     999902    2    1    2    0    0  0.36406667810E-02  0.14444838215E-01  0.18600405620E-01  0.10200997064E+01  0.10198213216E+01 0.  0.
     999903    2    3    3    0    0  0.75503483561E-01 -0.51418118210E-01  0.92790374442E-01  0.13161428446E+00  0.19174654458E-01 0.  0.
         14    1    1    2    0    0 -0.36406667810E-02 -0.14444838215E-01 -0.18600405620E-01  0.23830293639E-01  0.00000000000E+00 0.  1.
     999901    1    3    3    0    0 -0.71862816780E-01  0.65862956425E-01 -0.74189968822E-01  0.88848542191E+00  0.88000000000E+00 0.  1.
        -11    1    4    4    0    0  0.23708934072E-02 -0.26116859605E-02  0.10875397877E-01  0.11444537522E-01  0.51100000000E-03 0. -1.
         11    1    4    4    0    0  0.73132590154E-01 -0.48806432250E-01  0.81914976566E-01  0.12016974693E+00  0.51100000000E-03 0.  1.
</event>
<event>
 8    1  0.1128641E+005  0.1043930E+01  0.7957747E-01            NaN
         13   -1    0    0    0    0  0.00000000000E+00  0.00000000000E+00  0.74505805969E-08  0.10566000000E+00  0.10566000000E+00 0. -1.
     999900   -1    0    0    0    0 -0.00000000000E+00 -0.00000000000E+00 -0.74505805969E-08  0.93827000000E+00  0.93827000000E+00 0.  1.
     999902    2    1    2    0    0  0.23327859308E-02  0.49243521525E-02 -0.23417438990E-01  0.10198869639E+01  0.10196035267E+01 0.  0.
     999903    2    3    3    0    0  0.65891981962E-01  0.38445539111E-01  0.10108283070E+00  0.12822348564E+00  0.20092556914E-01 0.  0.
         14    1    1    2    0    0 -0.23327859308E-02 -0.49243521525E-02  0.23417438990E-01  0.24043036064E-01  0.00000000000E+00 0. -1.
     999901    1    3    3    0    0 -0.63559196031E-01 -0.33521186958E-01 -0.12450026969E+00  0.89166347830E+00  0.88000000000E+00 0.  1.
        -11    1    4    4    0    0  0.23573334011E-01  0.44004903762E-02  0.38465385990E-01  0.45331153000E-01  0.51100000000E-03 0.  1.
         11    1    4    4    0    0  0.42318647951E-01  0.34045048735E-01  0.62617444708E-01  0.82892332640E-01  0.51100000000E-03 0. -1.
</event>
<event>
 8    1  0.1128641E+005  0.1043930E+01  0.7957747E-01            NaN
         13   -1    0    0    0    0  0.00000000000E+00  0.00000000000E+00  0.74505805969E-08  0.10566000000E+00  0.10566000000E+00 0.  1.
     999900   -1    0    0    0    0 -0.00000000000E+00 -0.00000000000E+00 -0.74505805969E-08  0.93827000000E+00  0.93827000000E+00 0.  1.
     999902    2    1    2    0    0  0.86545306902E-02  0.54472024344E-03  0.21429229737E-01  0.10208127011E+01  0.10205509106E+01 0.  0.
     999903    2    3    3    0    0  0.12317588517E+00  0.43312335504E-01  0.46180834613E-02  0.13220321196E+00  0.20201620301E-01 0.  0.
         14    1    1    2    0    0 -0.86545306902E-02 -0.54472024344E-03 -0.21429229737E-01  0.23117298907E-01  0.00000000000E+00 0. -1.
     999901    1    3    3    0    0 -0.11452135448E+00 -0.42767615261E-01  0.16811146276E-01  0.88860948914E+00  0.88000000000E+00 0. -1.
        -11    1    4    4    0    0  0.10090945805E+00  0.27855860198E-01  0.74267228028E-02  0.10494801096E+00  0.51100000000E-03 0. -1.
         11    1    4    4    0    0  0.22266427117E-01  0.15456475307E-01 -0.28086393415E-02  0.27255200997E-01  0.51100000000E-03 0.  1.
</event>
<event>
 8    1  0.1128641E+005  0.1043930E+01  0.7957747E-01            NaN
         13   -1    0    0    0    0  0.00000000000E+00  0.00000000000E+00  0.74505805969E-08  0.10566000000E+00  0.10566000000E+00 0.  1.
     999900   -1    0    0    0    0 -0.00000000000E+00 -0.00000000000E+00 -0.74505805969E-08  0.93827000000E+00  0.93827000000E+00 0.  1.
     999902    2    1    2    0    0 -0.11553031859E-01  0.18830943891E-01 -0.46347009753E-03  0.10218326744E+01  0.10215937171E+01 0.  0.
     999903    2    3    3    0    0 -0.37890938408E-01  0.39553921081E-01 -0.11973535618E+00  0.13315449313E+00  0.19832489352E-01 0.  0.
         14    1    1    2    0    0  0.11553031859E-01 -0.18830943891E-01  0.46347009753E-03  0.22097325574E-01  0.00000000000E+00 0. -1.
     999901    1    3    3    0    0  0.26337906548E-01 -0.20722977190E-01  0.11927188608E+00  0.88867818130E+00  0.88000000000E+00 0. -1.
        -11    1    4    4    0    0 -0.17211875616E-01  0.29165005478E-01 -0.84069477223E-01  0.90635447416E-01  0.51100000000E-03 0.  1.
         11    1    4    4    0    0 -0.20679062792E-01  0.10388915603E-01 -0.35665878959E-01  0.42519045712E-01  0.51100000000E-03 0. -1.
</event>
<event>
 8    1  0.1128641E+005  0.1043930E+01  0.7957747E-01            NaN
         13   -1    0    0    0    0  0.00000000000E+00  0.00000000000E+00  0.74505805969E-08  0.10566000000E+00  0.10566000000E+00 0.  1.
     999900   -1    0    0    0    0 -0.00000000000E+00 -0.00000000000E+00 -0.74505805969E-08  0.93827000000E+00  0.93827000000E+00 0.  1.
     999902    2    1    2    0    0  0.10791709761E-01  0.15750511652E-01  0.16027353442E-01  0.10190017896E+01  0.10186968300E+01 0.  0.
     999903    2    3    3    0    0  0.50068024614E-01 -0.44963627110E-01 -0.10651648669E+00  0.12757269631E+00  0.20012397547E-01 0.  0.
         14    1    1    2    0    0 -0.10791709761E-01 -0.15750511652E-01 -0.16027353442E-01  0.24928210429E-01  0.00000000000E+00 0. -1.
     999901    1    3    3    0    0 -0.39276314853E-01  0.60714138763E-01  0.12254384013E+00  0.89142909326E+00  0.88000000000E+00 0. -1.
        -11    1    4    4    0    0  0.10952025844E-01 -0.21746796315E-02 -0.10083861390E-01  0.15053952408E-01  0.51100000000E-03 0. -1.
         11    1    4    4    0    0  0.39115998770E-01 -0.42788947479E-01 -0.96432625301E-01  0.11251874390E+00  0.51100000000E-03 0.  1.
</event>
<event>
 8    1  0.1128641E+005  0.1043930E+01  0.7957747E-01            NaN
         13   -1    0    0    0    0  0.00000000000E+00  0.00000000000E+00  0.74505805969E-08  0.10566000000E+00  0.10566000000E+00 0.  1.
     999900   -1    0    0    0    0 -0.00000000000E+00 -0.00000000000E+00 -0.74505805969E-08  0.93827000000E+00  0.93827000000E+00 0.  1.
     999902    2    1    2    0    0 -0.18390262421E-01  0.98341575570E-02 -0.11819671670E-01  0.10199588289E+01  0.10196771036E+01 0.  0.
     999903    2    3    3    0    0 -0.79834013806E-01  0.87280763881E-01 -0.57136704096E-01  0.13326443685E+00  0.22436703647E-01 0.  0.
         14    1    1    2    0    0  0.18390262421E-01 -0.98341575570E-02  0.11819671670E-01  0.23971171126E-01  0.00000000000E+00 0. -1.
     999901    1    3    3    0    0  0.61443751385E-01 -0.77446606324E-01  0.45317032425E-01  0.88669439202E+00  0.88000000000E+00 0. -1.
        -11    1    4    4    0    0 -0.10715730143E-01  0.16287134826E-01 -0.13370070957E-02  0.19548563689E-01  0.51100000000E-03 0.  1.
         11    1    4    4    0    0 -0.69118283663E-01  0.70993629055E-01 -0.55799697000E-01  0.11371587316E+00  0.51100000000E-03 0. -1.
</event>
<event>
 8    1  0.1128641E+005  0.1043930E+01  0.7957747E-01            NaN
         13   -1    0    0    0    0  0.00000000000E+00  0.00000000000E+00  0.74505805969E-08  0.10566000000E+00  0.10566000000E+00 0. -1.
     999900   -1    0    0    0    0 -0.00000000000E+00 -0.00000000000E+00 -0.74505805969E-08  0.93827000000E+00  0.93827000000E+00 0.  1.
     999902    2    1    2    0    0 -0.20961279065E-01 -0.88094318786E-02  0.56117565928E-02  0.10205104970E+01  0.10202417367E+01 0.  0.
     999903    2    3    3    0    0 -0.10795370346E-01  0.10793216788E+00  0.69488905246E-01  0.13044744475E+00  0.20541056562E-01 0.  0.
         14    1    1    2    0    0  0.20961279065E-01  0.88094318786E-02 -0.56117565928E-02  0.23419503028E-01  0.00000000000E+00 0.  1.
     999901    1    3    3    0    0 -0.10165908718E-01 -0.11674159976E+00 -0.63877148653E-01  0.89006305222E+00  0.88000000000E+00 0.  1.
        -11    1    4    4    0    0 -0.71002926189E-02  0.32767541323E-01  0.11530586207E-01  0.35459010969E-01  0.51100000000E-03 0.  1.
         11    1    4    4    0    0 -0.36950777274E-02  0.75164626557E-01  0.57958319039E-01  0.94988433778E-01  0.51100000000E-03 0. -1.
</event>
<event>
 8    1  0.1128641E+005  0.1043930E+01  0.7957747E-01            NaN
         13   -1    0    0    0    0  0.00000000000E+00  0.00000000000E+00  0.74505805969E-08  0.10566000000E+00  0.10566000000E+00 0.  1.
     999900   -1    0    0    0    0 -0.00000000000E+00 -0.00000000000E+00 -0.74505805969E-08  0.93827000000E+00  0.93827000000E+00 0.  1.
     999902    2    1    2    0    0  0.15203449200E-02 -0.21908743744E-01  0.91128674835E-02  0.10201529343E+01  0.10198758064E+01 0.  0.
     999903    2    3    3    0    0  0.61444932497E-01  0.10995237957E+00  0.97514160412E-02  0.12831285904E+00  0.22452041728E-01 0.  0.
         14    1    1    2    0    0 -0.15203449200E-02  0.21908743744E-01 -0.91128674835E-02  0.23777065733E-01  0.00000000000E+00 0.  1.
     999901    1    3    3    0    0 -0.59924587577E-01 -0.13186112331E+00 -0.63854855773E-03  0.89184007523E+00  0.88000000000E+00 0.  1.
        -11    1    4    4    0    0  0.14799894687E-01  0.28185602012E-01  0.12322581986E-01  0.34140477316E-01  0.51100000000E-03 0.  1.
         11    1    4    4    0    0  0.46645037810E-01  0.81766777556E-01 -0.25711659447E-02  0.94172381724E-01  0.51100000000E-03 0. -1.
</event>
<event>
 8    1  0.1128641E+005  0.1043930E+01  0.7957747E-01            NaN
         13   -1    0    0    0    0  0.00000000000E+00  0.00000000000E+00  0.74505805969E-08  0.10566000000E+00  0.10566000000E+00 0. -1.
     999900   -1    0    0    0    0 -0.00000000000E+00 -0.00000000000E+00 -0.74505805969E-08  0.93827000000E+00  0.93827000000E+00 0.  1.
     999902    2    1    2    0    0  0.15942555638E-01  0.15388167829E-01 -0.43181184398E-02  0.10213555247E+01  0.10211060184E+01 0.  0.
     999903    2    3    3    0    0  0.94462961515E-01 -0.85127687227E-01 -0.28384125109E-01  0.13183426920E+00  0.20115708967E-01 0.  0.
         14    1    1    2    0    0 -0.15942555638E-01 -0.15388167829E-01  0.43181184398E-02  0.22574475327E-01  0.00000000000E+00 0. -1.
     999901    1    3    3    0    0 -0.78520405876E-01  0.10051585506E+00  0.24066006669E-01  0.88952125547E+00  0.88000000000E+00 0.  1.
        -11    1    4    4    0    0  0.56837325675E-01 -0.45254881074E-01 -0.25257821120E-01  0.76920117652E-01  0.51100000000E-03 0.  1.
         11    1    4    4    0    0  0.37625635839E-01 -0.39872806153E-01 -0.31263039892E-02  0.54914151550E-01  0.51100000000E-03 0. -1.
</event>
<event>
 8    1  0.1128641E+005  0.1043930E+01  0.7957747E-01            NaN
         13   -1    0    0    0    0  0.00000000000E+00  0.00000000000E+00  0.74505805969E-08  0.10566000000E+00  0.10566000000E+00 0.  1.
     999900   -1    0    0    0    0 -0.00000000000E+00 -0.00000000000E+00 -0.74505805969E-08  0.93827000000E+00  0.93827000000E+00 0.  1.
     999902    2    1    2    0    0 -0.16142071924E-01 -0.88744807903E-02 -0.14896497860E-01  0.10202397374E+01  0.10199646529E+01 0.  0.
     999903    2    3    3    0    0  0.10906375496E+00  0.39363562366E-01 -0.53504659591E-01  0.12923244332E+00  0.19846488868E-01 0.  0.
         14    1    1    2    0    0  0.16142071924E-01  0.88744807903E-02  0.14896497860E-01  0.23690262637E-01  0.00000000000E+00 0.  1.
     999901    1    3    3    0    0 -0.12520582688E+00 -0.48238043156E-01  0.38608161731E-01  0.89100729405E+00  0.88000000000E+00 0. -1.
        -11    1    4    4    0    0  0.35917419094E-01  0.57983511448E-02 -0.99528052065E-02  0.37722689761E-01  0.51100000000E-03 0. -1.
         11    1    4    4    0    0  0.73146335862E-01  0.33565211221E-01 -0.43551854385E-01  0.91509753555E-01  0.51100000000E-03 0.  1.
</event>
<event>
 8    1  0.1128641E+005  0.1043930E+01  0.7957747E-01            NaN
         13   -1    0    0    0    0  0.00000000000E+00  0.00000000000E+00  0.74505805969E-08  0.10566000000E+00  0.10566000000E+00 0. -1.
     999900   -1    0    0    0    0 -0.00000000000E+00 -0.00000000000E+00 -0.74505805969E-08  0.93827000000E+00  0.93827000000E+00 0. -1.
     999902    2    1    2    0    0 -0.18807709859E-01 -0.12139079783E-01 -0.68292972516E-02  0.10205264424E+01  0.10202580522E+01 0.  0.
     999903    2    3    3    0    0 -0.10795365335E+00 -0.27766415952E-01 -0.70837687725E-01  0.13357194134E+00  0.19962975312E-01 0.  0.
         14    1    1    2    0    0  0.18807709859E-01  0.12139079783E-01  0.68292972516E-02  0.23403557616E-01  0.00000000000E+00 0.  1.
     999901    1    3    3    0    0  0.89145943493E-01  0.15627336169E-01  0.64008390473E-01  0.88695450105E+00  0.88000000000E+00 0.  1.
        -11    1    4    4    0    0 -0.62121718261E-01 -0.97807009677E-02 -0.30368105481E-01  0.69837332013E-01  0.51100000000E-03 0.  1.
         11    1    4    4    0    0 -0.45831935091E-01 -0.17985714984E-01 -0.40469582244E-01  0.63734609324E-01  0.51100000000E-03 0. -1.
</event>
<event>
 8    1  0.1128641E+005  0.1043930E+01  0.7957747E-01            NaN
         13   -1    0    0    0    0  0.00000000000E+00  0.00000000000E+00  0.74505805969E-08  0.10566000000E+00  0.10566000000E+00 0.  1.
     999900   -1    0    0    0    0 -0.00000000000E+00 -0.00000000000E+00 -0.74505805969E-08  0.93827000000E+00  0.93827000000E+00 0. -1.
     999902    2    1    2    0    0  0.23034029045E-01 -0.41876320158E-02 -0.62440707594E-02  0.10197000356E+01  0.10194121205E+01 0.  0.
     999903    2    3    3    0    0 -0.61623749344E-01  0.96224954492E-01  0.53978553777E-01  0.12791733140E+00  0.19809872667E-01 0.  0.
         14    1    1    2    0    0 -0.23034029045E-01  0.41876320158E-02  0.62440707594E-02  0.24229964416E-01  0.00000000000E+00 0.  1.
     999901    1    3    3    0    0  0.84657778390E-01 -0.10041258651E+00 -0.60222624536E-01  0.89178270418E+00  0.88000000000E+00 0. -1.
        -11    1    4    4    0    0 -0.37957960822E-01  0.61511364903E-01  0.44378103554E-01  0.84818229161E-01  0.51100000000E-03 0. -1.
         11    1    4    4    0    0 -0.23665788523E-01  0.34713589589E-01  0.96004502230E-02  0.43099102242E-01  0.51100000000E-03 0.  1.
</event>
<event>
 8    1  0.1128641E+005  0.1043930E+01  0.7957747E-01            NaN
         13   -1    0    0    0    0  0.00000000000E+00  0.00000000000E+00  0.74505805969E-08  0.10566000000E+00  0.10566000000E+00 0.  1.
     999900   -1    0    0    0    0 -0.00000000000E+00 -0.00000000000E+00 -0.74505805969E-08  0.93827000000E+00  0.93827000000E+00 0. -1.
     999902    2    1    2    0    0  0.41665364422E-03  0.35726781177E-02 -0.23161239836E-01  0.10204911293E+01  0.10202219191E+01 0.  0.
     999903    2    3    3    0    0  0.11778821715E+00 -0.27445948474E-01  0.42430519250E-01  0.12973834767E+00  0.20108349157E-01 0.  0.
         14    1    1    2    0    0 -0.41665364422E-03 -0.35726781177E-02  0.23161239836E-01  0.23438870705E-01  0.00000000000E+00 0.  1.
     999901    1    3    3    0    0 -0.11737156350E+00  0.31018626592E-01 -0.65591759086E-01  0.89075278163E+00  0.88000000000E+00 0. -1.
        -11    1    4    4    0    0  0.15963963381E-01 -0.67576238512E-02  0.13212892593E-01  0.21802643386E-01  0.51100000000E-03 0.  1.
         11    1    4    4    0    0  0.10182425377E+00 -0.20688324623E-01  0.29217626658E-01  0.10793570428E+00  0.51100000000E-03 0. -1.
</event>
<event>
 8    1  0.1128641E+005  0.1043930E+01  0.7957747E-01            NaN
         13   -1    0    0    0    0  0.00000000000E+00  0.00000000000E+00  0.74505805969E-08  0.10566000000E+00  0.10566000000E+00 0. -1.
     999900   -1    0    0    0    0 -0.00000000000E+00 -0.00000000000E+00 -0.74505805969E-08  0.93827000000E+00  0.93827000000E+00 0. -1.
     999902    2    1    2    0    0 -0.16280760041E-01  0.13167114325E-01  0.11245045729E-01  0.10201626463E+01  0.10198857475E+01 0.  0.
     999903    2    3    3    0    0 -0.28289821661E-01 -0.16775607868E-01  0.12672911901E+00  0.13203126227E+00  0.17036712785E-01 0.  0.
         14    1    1    2    0    0  0.16280760041E-01 -0.13167114325E-01 -0.11245045729E-01  0.23767353673E-01  0.00000000000E+00 0.  1.
     999901    1    3    3    0    0  0.12009061620E-01  0.29942722193E-01 -0.11548407328E+00  0.88813138406E+00  0.88000000000E+00 0. -1.
        -11    1    4    4    0    0 -0.14591108792E-01  0.41442278082E-03  0.40863043762E-01  0.43394949805E-01  0.51100000000E-03 0. -1.
         11    1    4    4    0    0 -0.13698712869E-01 -0.17190030649E-01  0.85866075244E-01  0.88636312462E-01  0.51100000000E-03 0.  1.
</event>
<event>
 8    1  0.1128641E+005  0.1043930E+01  0.7957747E-01            NaN
         13   -1    0    0    0    0  0.00000000000E+00  0.00000000000E+00  0.74505805969E-08  0.10566000000E+00  0.10566000000E+00 0. -1.
     999900   -1    0    0    0    0 -0.00000000000E+00 -0.00000000000E+00 -0.74505805969E-08  0.93827000000E+00  0.93827000000E+00 0. -1.
     999902    2    1    2    0    0  0.13076974872E-02  0.96193914625E-02  0.21792687207E-01  0.10200728422E+01  0.10197938220E+01 0.  0.
     999903    2    3    3    0    0 -0.26267119988E-01 -0.90336224275E-01  0.89557876935E-01  0.13139763905E+00  0.19852738285E-01 0.  0.
         14    1    1    2    0    0 -0.13076974872E-02 -0.96193914625E-02 -0.21792687207E-01  0.23857157847E-01  0.00000000000E+00 0.  1.
     999901    1    3    3    0    0  0.27574817475E-01  0.99955615737E-01 -0.67765189728E-01  0.88867520311E+00  0.88000000000E+00 0. -1.
        -11    1    4    4    0    0  0.53025710039E-03 -0.29838355885E-01  0.24688833334E-01  0.38735103806E-01  0.51100000000E-03 0. -1.
         11    1    4    4    0    0 -0.26797377088E-01 -0.60497868390E-01  0.64869043601E-01  0.92662535241E-01  0.51100000000E-03 0.  1.
</event>
<event>
 8    1  0.1128641E+005  0.1043930E+01  0.7957747E-01            NaN
         13   -1    0    0    0    0  0.00000000000E+00  0.00000000000E+00  0.74505805969E-08  0.10566000000E+00  0.10566000000E+00 0.  1.
     999900   -1    0    0    0    0 -0.00000000000E+00 -0.00000000000E+00 -0.74505805969E-08  0.93827000000E+00  0.93827000000E+00 0.  1.
     999902    2    1    2    0    0  0.13135049847E-01 -0.18722504504E-01  0.91736591712E-02  0.10192882117E+01  0.10189903045E+01 0.  0.
     999903    2    3    3    0    0 -0.10498261583E+00  0.97585221441E-02  0.71266626322E-01  0.12877235646E+00  0.19667470095E-01 0.  0.
         14    1    1    2    0    0 -0.13135049847E-01  0.18722504504E-01 -0.91736591712E-02  0.24641788327E-01  0.00000000000E+00 0. -1.
     999901    1    3    3    0    0  0.11811766567E+00 -0.28481026648E-01 -0.62092967151E-01  0.89051585522E+00  0.88000000000E+00 0.  1.
        -11    1    4    4    0    0 -0.29134415656E-01 -0.33537491543E-02  0.12293119993E-01  0.31803203127E-01  0.51100000000E-03 0.  1.
         11    1    4    4    0    0 -0.75848200170E-01  0.13112271298E-01  0.58973506329E-01  0.96969153329E-01  0.51100000000E-03 0. -1.
</event>
<event>
 8    1  0.1128641E+005  0.1043930E+01  0.7957747E-01            NaN
         13   -1    0    0    0    0  0.00000000000E+00  0.00000000000E+00  0.74505805969E-08  0.10566000000E+00  0.10566000000E+00 0.  1.
     999900   -1    0    0    0    0 -0.00000000000E+00 -0.00000000000E+00 -0.74505805969E-08  0.93827000000E+00  0.93827000000E+00 0. -1.
     999902    2    1    2    0    0  0.18519357914E-02 -0.24855109294E-01 -0.54419639438E-03  0.10190000527E+01  0.10186950501E+01 0.  0.
     999903    2    3    3    0    0 -0.62787921256E-01  0.89767256645E-01  0.61136336124E-01  0.12708016502E+00  0.20278888669E-01 0.  0.
         14    1    1    2    0    0 -0.18519357914E-02  0.24855109294E-01  0.54419639438E-03  0.24929947331E-01  0.00000000000E+00 0. -1.
     999901    1    3    3    0    0  0.64639857047E-01 -0.11462236594E+00 -0.61680532518E-01  0.89191988765E+00  0.88000000000E+00 0. -1.
        -11    1    4    4    0    0 -0.25918266891E-01  0.22636189975E-01  0.14050073803E-01  0.37172830805E-01  0.51100000000E-03 0. -1.
         11    1    4    4    0    0 -0.36869654365E-01  0.67131066670E-01  0.47086262321E-01  0.89907334215E-01  0.51100000000E-03 0.  1.
</event>
<event>
 8    1  0.1128641E+005  0.1043930E+01  0.7957747E-01            NaN
         13   -1    0    0    0    0  0.00000000000E+00  0.00000000000E+00  0.74505805969E-08  0.10566000000E+00  0.10566000000E+00 0. -1.
     999900   -1    0    0    0    0 -0.00000000000E+00 -0.00000000000E+00 -0.74505805969E-08  0.93827000000E+00  0.93827000000E+00 0.  1.
     999902    2    1    2    0    0 -0.52544701642E-02  0.69143212288E-02  0.20420108763E-01  0.10217399541E+01  0.10214989651E+01 0.  0.
     999903    2    3    3    0    0  0.79815175927E-01  0.10352865626E+00  0.73482849571E-02  0.13227829277E+00  0.18838908406E-01 0.  0.
         14    1    1    2    0    0  0.52544701642E-02 -0.69143212288E-02 -0.20420108763E-01  0.22190045891E-01  0.00000000000E+00 0.  1.
     999901    1    3    3    0    0 -0.85069646092E-01 -0.96614335032E-01  0.13071823806E-01  0.88946166134E+00  0.88000000000E+00 0.  1.
        -11    1    4    4    0    0  0.31043440573E-01  0.38739012614E-01 -0.62923962594E-02  0.50042598580E-01  0.51100000000E-03 0.  1.
         11    1    4    4    0    0  0.48771735355E-01  0.64789643647E-01  0.13640681216E-01  0.82235694187E-01  0.51100000000E-03 0. -1.
</event>
<event>
 7    1  0.1128641E+005  0.1043930E+01  0.7957747E-01            NaN
         13   -1    0    0    0    0  0.00000000000E+00  0.00000000000E+00  0.74505805969E-08  0.10566000000E+00  0.10566000000E+00 0.  1.
     999900   -1    0    0    0    0 -0.00000000000E+00 -0.00000000000E+00 -0.74505805969E-08  0.93827000000E+00  0.93827000000E+00 0.  1.
     999903    2    1    2    0    0 -0.19454338949E-01  0.10801222768E+00  0.35445826162E-01  0.11760161169E+00  0.22991734364E-01 0.  0.
         14    1    1    2    0    0 -0.20831779879E-01 -0.35420705031E-01  0.55784300841E-02  0.41469365561E-01  0.00000000000E+00 0.  1.
     999901    1    1    2    0    0  0.40286118828E-01 -0.72591522647E-01 -0.41024256246E-01  0.88485902274E+00  0.88000000000E+00 0. -1.
        -11    1    3    3    0    0 -0.12993913529E-01  0.92571615950E-01  0.21771728420E-01  0.95982368942E-01  0.51100000000E-03 0. -1.
         11    1    3    3    0    0 -0.64604254197E-02  0.15440611728E-01  0.13674097742E-01  0.21619242752E-01  0.51100000000E-03 0.  1.
</event>
<event>
 8    1  0.1128641E+005  0.1043930E+01  0.7957747E-01            NaN
         13   -1    0    0    0    0  0.00000000000E+00  0.00000000000E+00  0.74505805969E-08  0.10566000000E+00  0.10566000000E+00 0.  1.
     999900   -1    0    0    0    0 -0.00000000000E+00 -0.00000000000E+00 -0.74505805969E-08  0.93827000000E+00  0.93827000000E+00 0. -1.
     999902    2    1    2    0    0 -0.45439112194E-02 -0.23364970599E-01 -0.16180611763E-02  0.10200723576E+01  0.10197933259E+01 0.  0.
     999903    2    3    3    0    0 -0.29437970377E-01 -0.49867781331E-01 -0.11665796593E+00  0.13184024104E+00  0.20478731111E-01 0.  0.
         14    1    1    2    0    0  0.45439112194E-02  0.23364970599E-01  0.16180611763E-02  0.23857642428E-01  0.00000000000E+00 0.  1.
     999901    1    3    3    0    0  0.24894059158E-01  0.26502810732E-01  0.11503990475E+00  0.88823211653E+00  0.88000000000E+00 0.  1.
        -11    1    4    4    0    0 -0.13808846118E-01 -0.26308425031E-01 -0.37907257778E-01  0.48166780793E-01  0.51100000000E-03 0. -1.
         11    1    4    4    0    0 -0.15629124259E-01 -0.23559356300E-01 -0.78750708149E-01  0.83673460245E-01  0.51100000000E-03 0.  1.
</event>
<event>
 8    1  0.1128641E+005  0.1043930E+01  0.7957747E-01            NaN
         13   -1    0    0    0    0  0.00000000000E+00  0.00000000000E+00  0.74505805969E-08  0.10566000000E+00  0.10566000000E+00 0. -1.
     999900   -1    0    0    0    0 -0.00000000000E+00 -0.00000000000E+00 -0.74505805969E-08  0.93827000000E+00  0.93827000000E+00 0. -1.
     999902    2    1    2    0    0  0.15944767870E-01  0.17632876280E-01  0.58977410593E-02  0.10194363825E+01  0.10191420905E+01 0.  0.
     999903    2    3    3    0    0 -0.34710487342E-01 -0.11921651292E+00  0.19491232414E-01  0.12731615899E+00  0.20300278636E-01 0.  0.
         14    1    1    2    0    0 -0.15944767870E-01 -0.17632876280E-01 -0.58977410593E-02  0.24493617494E-01  0.00000000000E+00 0. -1.
     999901    1    3    3    0    0  0.50655255212E-01  0.13684938920E+00 -0.13593491355E-01  0.89212022352E+00  0.88000000000E+00 0.  1.
        -11    1    4    4    0    0 -0.12367439552E-01 -0.72607012426E-01  0.16854389884E-01  0.75558344304E-01  0.51100000000E-03 0. -1.
         11    1    4    4    0    0 -0.22343047790E-01 -0.46609500497E-01  0.26368425303E-02  0.51757814682E-01  0.51100000000E-03 0.  1.
</event>
<event>
 8    1  0.1227820E+005  0.1043930E+01  0.7957747E-01            NaN
         13   -1    0    0    0    0  0.00000000000E+00  0.00000000000E+00  0.74505805969E-08  0.10566000000E+00  0.10566000000E+00 0.  1.
     999900   -1    0    0    0    0 -0.00000000000E+00 -0.00000000000E+00 -0.74505805969E-08  0.93827000000E+00  0.93827000000E+00 0. -1.
     999902    2    1    2    0    0  0.57698254274E-02  0.88038543767E-02  0.22453257079E-01  0.10191318652E+01  0.10188301189E+01 0.  0.
     999903    2    3    3    0    0 -0.10521998957E+00  0.50038128838E-01  0.54337443524E-01  0.13062997673E+00  0.23164034834E-01 0.  0.
         14    1    1    2    0    0 -0.57698254274E-02 -0.88038543767E-02 -0.22453257079E-01  0.24798134825E-01  0.00000000000E+00 0. -1.
     999901    1    3    3    0    0  0.11098981499E+00 -0.41234274462E-01 -0.31884186445E-01  0.88850188844E+00  0.88000000000E+00 0.  1.
        -11    1    4    4    0    0 -0.60986823849E-01  0.16414401568E-01  0.26685033192E-01  0.68565132389E-01  0.51100000000E-03 0.  1.
         11    1    4    4    0    0 -0.44233165718E-01  0.33623727271E-01  0.27652410332E-01  0.62064844342E-01  0.51100000000E-03 0. -1.
</event>
<event>
 8    1  0.1128641E+005  0.1043930E+01  0.7957747E-01            NaN
         13   -1    0    0    0    0  0.00000000000E+00  0.00000000000E+00  0.74505805969E-08  0.10566000000E+00  0.10566000000E+00 0. -1.
     999900   -1    0    0    0    0 -0.00000000000E+00 -0.00000000000E+00 -0.74505805969E-08  0.93827000000E+00  0.93827000000E+00 0. -1.
     999902    2    1    2    0    0 -0.13685361895E-01 -0.30783713663E-04 -0.19510855790E-01  0.10200980137E+01  0.10198195889E+01 0.  0.
     999903    2    3    3    0    0  0.12230946122E+00  0.61864389999E-02  0.31837991308E-01  0.12815073393E+00  0.20275023663E-01 0.  0.
         14    1    1    2    0    0  0.13685361895E-01  0.30783713663E-04  0.19510855790E-01  0.23831986310E-01  0.00000000000E+00 0. -1.
     999901    1    3    3    0    0 -0.13599482312E+00 -0.62172227136E-02 -0.51348847098E-01  0.89194727976E+00  0.88000000000E+00 0. -1.
        -11    1    4    4    0    0  0.70607034086E-01  0.11335275398E-01  0.11900906433E-01  0.72496444228E-01  0.51100000000E-03 0.  1.
         11    1    4    4    0    0  0.51702427135E-01 -0.51488363979E-02  0.19937084875E-01  0.55654289702E-01  0.51100000000E-03 0. -1.
</event>
<event>
 8    1  0.1128641E+005  0.1043930E+01  0.7957747E-01            NaN
         13   -1    0    0    0    0  0.00000000000E+00  0.00000000000E+00  0.74505805969E-08  0.10566000000E+00  0.10566000000E+00 0. -1.
     999900   -1    0    0    0    0 -0.00000000000E+00 -0.00000000000E+00 -0.74505805969E-08  0.93827000000E+00  0.93827000000E+00 0. -1.
     999902    2    1    2    0    0 -0.20214191662E-01 -0.65056806539E-02 -0.87638861151E-02  0.10209573396E+01  0.10206988519E+01 0.  0.
     999903    2    3    3    0    0 -0.11403119028E+00 -0.61561188979E-01 -0.28580099657E-01  0.13403827874E+00  0.18882418423E-01 0.  0.
         14    1    1    2    0    0  0.20214191662E-01  0.65056806539E-02  0.87638861151E-02  0.22972660385E-01  0.00000000000E+00 0. -1.
     999901    1    3    3    0    0  0.93816998619E-01  0.55055508326E-01  0.19816213542E-01  0.88691906088E+00  0.88000000000E+00 0.  1.
        -11    1    4    4    0    0 -0.10876573216E+00 -0.57845498802E-01 -0.31169392841E-01  0.12707430266E+00  0.51100000000E-03 0. -1.
         11    1    4    4    0    0 -0.52654581164E-02 -0.37156901770E-02  0.25892931835E-02  0.69639760811E-02  0.51100000000E-03 0.  1.
</event>
<event>
 8    1  0.1128641E+005  0.1043930E+01  0.7957747E-01            NaN
         13   -1    0    0    0    0  0.00000000000E+00  0.00000000000E+00  0.74505805969E-08  0.10566000000E+00  0.10566000000E+00 0. -1.
     999900   -1    0    0    0    0 -0.00000000000E+00 -0.00000000000E+00 -0.74505805969E-08  0.93827000000E+00  0.93827000000E+00 0. -1.
     999902    2    1    2    0    0 -0.16476321126E-01 -0.17327456457E-01  0.13213442374E-02  0.10199830617E+01  0.10197019124E+01 0.  0.
     999903    2    3    3    0    0 -0.12179418966E+00 -0.47652830522E-01  0.14446287194E-01  0.13308749517E+00  0.19974215011E-01 0.  0.
         14    1    1    2    0    0  0.16476321126E-01  0.17327456457E-01 -0.13213442374E-02  0.23946938337E-01  0.00000000000E+00 0. -1.
     999901    1    3    3    0    0  0.10531786853E+00  0.30325374065E-01 -0.13124942957E-01  0.88689556650E+00  0.88000000000E+00 0. -1.
        -11    1    4    4    0    0 -0.63895719819E-01 -0.27701657212E-01  0.17364727706E-01  0.71776317214E-01  0.51100000000E-03 0.  1.
         11    1    4    4    0    0 -0.57898469837E-01 -0.19951173310E-01 -0.29184405124E-02  0.61311177953E-01  0.51100000000E-03 0. -1.
</event>
<event>
 8    1  0.1128641E+005  0.1043930E+01  0.7957747E-01            NaN
         13   -1    0    0    0    0  0.00000000000E+00  0.00000000000E+00  0.74505805969E-08  0.10566000000E+00  0.10566000000E+00 0. -1.
     999900   -1    0    0    0    0 -0.00000000000E+00 -0.00000000000E+00 -0.74505805969E-08  0.93827000000E+00  0.93827000000E+00 0. -1.
     999902    2    1    2    0    0 -0.14501310091E-01  0.10200289869E-01  0.13656579510E-01  0.10215506329E+01  0.10213054683E+01 0.  0.
     999903    2    3    3    0    0  0.10382808572E+00 -0.74855783303E-01 -0.14895809378E-02  0.12943753039E+00  0.19188427375E-01 0.  0.
         14    1    1    2    0    0  0.14501310091E-01 -0.10200289869E-01 -0.13656579510E-01  0.22379367097E-01  0.00000000000E+00 0.  1.
     999901    1    3    3    0    0 -0.11832939581E+00  0.85056073172E-01  0.15146160447E-01  0.89211310251E+00  0.88000000000E+00 0. -1.
        -11    1    4    4    0    0  0.70937457694E-01 -0.41465555666E-01  0.38704130406E-02  0.82260296796E-01  0.51100000000E-03 0.  1.
         11    1    4    4    0    0  0.32890628022E-01 -0.33390227636E-01 -0.53599939784E-02  0.47177233596E-01  0.51100000000E-03 0. -1.
</event>
<event>
 8    1  0.1128641E+005  0.1043930E+01  0.7957747E-01            NaN
         13   -1    0    0    0    0  0.00000000000E+00  0.00000000000E+00  0.74505805969E-08  0.10566000000E+00  0.10566000000E+00 0. -1.
     999900   -1    0    0    0    0 -0.00000000000E+00 -0.00000000000E+00 -0.74505805969E-08  0.93827000000E+00  0.93827000000E+00 0. -1.
     999902    2    1    2    0    0  0.52468078264E-03  0.28704403836E-02 -0.14909299305E-01  0.10287378335E+01  0.10286256501E+01 0.  0.
     999903    2    3    3    0    0  0.50874760059E-02  0.12755211949E+00  0.40482391327E-01  0.13821294354E+00  0.34184326190E-01 0.  0.
         14    1    1    2    0    0 -0.52468078264E-03 -0.28704403836E-02  0.14909299305E-01  0.15192166524E-01  0.00000000000E+00 0. -1.
     999901    1    3    3    0    0 -0.45627952232E-02 -0.12468167910E+00 -0.55391690632E-01  0.89052488994E+00  0.88000000000E+00 0.  1.
        -11    1    4    4    0    0  0.15233042774E-01  0.63006869623E-01  0.82233137502E-02  0.65343670098E-01  0.51100000000E-03 0.  1.
         11    1    4    4    0    0 -0.10145566768E-01  0.64545249864E-01  0.32259077577E-01  0.72869273443E-01  0.51100000000E-03 0. -1.
</event>
<event>
 8    1  0.1128641E+005  0.1043930E+01  0.7957747E-01            NaN
         13   -1    0    0    0    0  0.00000000000E+00  0.00000000000E+00  0.74505805969E-08  0.10566000000E+00  0.10566000000E+00 0.  1.
     999900   -1    0    0    0    0 -0.00000000000E+00 -0.00000000000E+00 -0.74505805969E-08  0.93827000000E+00  0.93827000000E+00 0. -1.
     999902    2    1    2    0    0 -0.20577507015E-01 -0.97011862433E-02 -0.56161061020E-02  0.10204973848E+01  0.10202283200E+01 0.  0.
     999903    2    3    3    0    0  0.12542607625E+00  0.16473776434E-01  0.59260773424E-03  0.12806210804E+00  0.19911464477E-01 0.  0.
         14    1    1    2    0    0  0.20577507015E-01  0.97011862433E-02  0.56161061020E-02  0.23432615246E-01  0.00000000000E+00 0.  1.
     999901    1    3    3    0    0 -0.14600358327E+00 -0.26174962677E-01 -0.62087138363E-02  0.89243527672E+00  0.88000000000E+00 0. -1.
        -11    1    4    4    0    0  0.44474774838E-01  0.90118484843E-02  0.92229264722E-02  0.46309205388E-01  0.51100000000E-03 0.  1.
         11    1    4    4    0    0  0.80951301414E-01  0.74619279495E-02 -0.86303187379E-02  0.81752902651E-01  0.51100000000E-03 0. -1.
</event>
<event>
 8    1  0.1128641E+005  0.1043930E+01  0.7957747E-01            NaN
         13   -1    0    0    0    0  0.00000000000E+00  0.00000000000E+00  0.74505805969E-08  0.10566000000E+00  0.10566000000E+00 0. -1.
     999900   -1    0    0    0    0 -0.00000000000E+00 -0.00000000000E+00 -0.74505805969E-08  0.93827000000E+00  0.93827000000E+00 0.  1.
     999902    2    1    2    0    0 -0.61828832814E-02  0.26009745520E-01 -0.20385578267E-02  0.10171178642E+01  0.10167644069E+01 0.  0.
     999903    2    3    3    0    0 -0.11909338491E+00 -0.12060403389E-01  0.40414688673E-01  0.12807321080E+00  0.20993156171E-01 0.  0.
         14    1    1    2    0    0  0.61828832814E-02 -0.26009745520E-01  0.20385578267E-02  0.26812135792E-01  0.00000000000E+00 0. -1.
     999901    1    3    3    0    0  0.11291050162E+00  0.38070148909E-01 -0.42453246499E-01  0.88904465341E+00  0.88000000000E+00 0.  1.
        -11    1    4    4    0    0 -0.21211748924E-01 -0.66906258595E-02  0.57045328694E-03  0.22255096153E-01  0.51100000000E-03 0. -1.
         11    1    4    4    0    0 -0.97881635981E-01 -0.53697775297E-02  0.39844235386E-01  0.10581811465E+00  0.51100000000E-03 0.  1.
</event>
<event>
 8    1  0.1128641E+005  0.1043930E+01  0.7957747E-01            NaN
         13   -1    0    0    0    0  0.00000000000E+00  0.00000000000E+00  0.74505805969E-08  0.10566000000E+00  0.10566000000E+00 0. -1.
     999900   -1    0    0    0    0 -0.00000000000E+00 -0.00000000000E+00 -0.74505805969E-08  0.93827000000E+00  0.93827000000E+00 0.  1.
     999902    2    1    2    0    0  0.15646048298E-01  0.17395202786E-01 -0.12121866087E-02  0.10205022109E+01  0.10202332582E+01 0.  0.
     999903    2    3    3    0    0 -0.61331236549E-01  0.11304010819E+00  0.21130961414E-01  0.13169814552E+00  0.18928744453E-01 0.  0.
         14    1    1    2    0    0 -0.15646048298E-01 -0.17395202786E-01  0.12121866087E-02  0.23427789133E-01  0.00000000000E+00 0. -1.
     999901    1    3    3    0    0  0.76977284847E-01 -0.95644905406E-01 -0.22343148023E-01  0.88880406535E+00  0.88000000000E+00 0. -1.
        -11    1    4    4    0    0 -0.13181709134E-01  0.43130292261E-01  0.70832727876E-02  0.45655376908E-01  0.51100000000E-03 0. -1.
         11    1    4    4    0    0 -0.48149527415E-01  0.69909815931E-01  0.14047688627E-01  0.86042768613E-01  0.51100000000E-03 0.  1.
</event>
<event>
 8    1  0.1128641E+005  0.1043930E+01  0.7957747E-01            NaN
         13   -1    0    0    0    0  0.00000000000E+00  0.00000000000E+00  0.74505805969E-08  0.10566000000E+00  0.10566000000E+00 0.  1.
     999900   -1    0    0    0    0 -0.00000000000E+00 -0.00000000000E+00 -0.74505805969E-08  0.93827000000E+00  0.93827000000E+00 0.  1.
     999902    2    1    2    0    0  0.17115080241E-01  0.10928280759E-01 -0.10428979129E-01  0.10211020150E+01  0.10208468094E+01 0.  0.
     999903    2    3    3    0    0 -0.21153735289E-01 -0.11840380104E+00 -0.45689428905E-01  0.13012805978E+00  0.19464002974E-01 0.  0.
         14    1    1    2    0    0 -0.17115080241E-01 -0.10928280759E-01  0.10428979129E-01  0.22827984967E-01  0.00000000000E+00 0.  1.
     999901    1    3    3    0    0  0.38268815530E-01  0.12933208179E+00  0.35260449776E-01  0.89097395525E+00  0.88000000000E+00 0.  1.
        -11    1    4    4    0    0 -0.40995401884E-02 -0.74541228016E-01 -0.25159523383E-01  0.78781112215E-01  0.51100000000E-03 0.  1.
         11    1    4    4    0    0 -0.17054195101E-01 -0.43862573019E-01 -0.20529905522E-01  0.51346947563E-01  0.51100000000E-03 0. -1.
</event>
<event>
 8    1  0.1128641E+005  0.1043930E+01  0.7957747E-01            NaN
         13   -1    0    0    0    0  0.00000000000E+00  0.00000000000E+00  0.74505805969E-08  0.10566000000E+00  0.10566000000E+00 0. -1.
     999900   -1    0    0    0    0 -0.00000000000E+00 -0.00000000000E+00 -0.74505805969E-08  0.93827000000E+00  0.93827000000E+00 0.  1.
     999902    2    1    2    0    0 -0.18647800424E-02  0.23544889302E-01 -0.16820977930E-02  0.10202515569E+01  0.10199767500E+01 0.  0.
     999903    2    3    3    0    0  0.21549529003E-01 -0.40521662557E-01 -0.11969193173E+00  0.12975783209E+00  0.20113406769E-01 0.  0.
         14    1    1    2    0    0  0.18647800424E-02 -0.23544889302E-01  0.16820977930E-02  0.23678443146E-01  0.00000000000E+00 0. -1.
     999901    1    3    3    0    0 -0.23414309045E-01  0.64066551859E-01  0.11800983393E+00  0.89049372476E+00  0.88000000000E+00 0.  1.
        -11    1    4    4    0    0  0.15863895916E-01 -0.34421253454E-01 -0.72284443212E-01  0.81619775388E-01  0.51100000000E-03 0. -1.
         11    1    4    4    0    0  0.56856330873E-02 -0.61004091032E-02 -0.47407488516E-01  0.48138056704E-01  0.51100000000E-03 0.  1.
</event>
<event>
 8    1  0.1128641E+005  0.1043930E+01  0.7957747E-01            NaN
         13   -1    0    0    0    0  0.00000000000E+00  0.00000000000E+00  0.74505805969E-08  0.10566000000E+00  0.10566000000E+00 0. -1.
     999900   -1    0    0    0    0 -0.00000000000E+00 -0.00000000000E+00 -0.74505805969E-08  0.93827000000E+00  0.93827000000E+00 0.  1.
     999902    2    1    2    0    0 -0.22386925587E-01  0.72353960925E-02 -0.31898881817E-02  0.10201876164E+01  0.10199113059E+01 0.  0.
     999903    2    3    3    0    0  0.29134267487E-01  0.60956809937E-01  0.10893238214E+00  0.12995628287E+00  0.21397040911E-01 0.  0.
         14    1    1    2    0    0  0.22386925587E-01 -0.72353960925E-02  0.31898881817E-02  0.23742383631E-01  0.00000000000E+00 0.  1.
     999901    1    3    3    0    0 -0.51521193074E-01 -0.53721413845E-01 -0.11212227032E+00  0.89023133350E+00  0.88000000000E+00 0.  1.
        -11    1    4    4    0    0  0.20681405650E-01  0.20918188018E-01  0.53473035412E-01  0.61032104394E-01  0.51100000000E-03 0. -1.
         11    1    4    4    0    0  0.84528618365E-02  0.40038621920E-01  0.55459346725E-01  0.68924178477E-01  0.51100000000E-03 0.  1.
</event>
<event>
 8    1  0.1128641E+005  0.1043930E+01  0.7957747E-01            NaN
         13   -1    0    0    0    0  0.00000000000E+00  0.00000000000E+00  0.74505805969E-08  0.10566000000E+00  0.10566000000E+00 0.  1.
     999900   -1    0    0    0    0 -0.00000000000E+00 -0.00000000000E+00 -0.74505805969E-08  0.93827000000E+00  0.93827000000E+00 0. -1.
     999902    2    1    2    0    0  0.14578388556E-01 -0.55084610565E-02 -0.18075908813E-01  0.10200634746E+01  0.10197842326E+01 0.  0.
     999903    2    3    3    0    0 -0.99265557711E-01  0.65413125558E-01 -0.47014547971E-01  0.12943012669E+00  0.20230225658E-01 0.  0.
         14    1    1    2    0    0 -0.14578388556E-01  0.55084610565E-02  0.18075908813E-01  0.23866525417E-01  0.00000000000E+00 0.  1.
     999901    1    3    3    0    0  0.11384394627E+00 -0.70921586614E-01  0.28938639158E-01  0.89063334790E+00  0.88000000000E+00 0.  1.
        -11    1    4    4    0    0 -0.39113043375E-01  0.15241411624E-01 -0.20619200925E-01  0.46771180850E-01  0.51100000000E-03 0. -1.
         11    1    4    4    0    0 -0.60152514336E-01  0.50171713934E-01 -0.26395347045E-01  0.82658945836E-01  0.51100000000E-03 0.  1.
</event>
<event>
 8    1  0.1128641E+005  0.1043930E+01  0.7957747E-01            NaN
         13   -1    0    0    0    0  0.00000000000E+00  0.00000000000E+00  0.74505805969E-08  0.10566000000E+00  0.10566000000E+00 0.  1.
     999900   -1    0    0    0    0 -0.00000000000E+00 -0.00000000000E+00 -0.74505805969E-08  0.93827000000E+00  0.93827000000E+00 0. -1.
     999902    2    1    2    0    0  0.12252065487E-01  0.19402811818E-01  0.56476848081E-02  0.10202978490E+01  0.10200241282E+01 0.  0.
     999903    2    3    3    0    0  0.75359170081E-01  0.10410666426E+00 -0.29545072202E-01  0.13328275367E+00  0.19343708992E-01 0.  0.
         14    1    1    2    0    0 -0.12252065487E-01 -0.19402811818E-01 -0.56476848081E-02  0.23632150957E-01  0.00000000000E+00 0. -1.
     999901    1    3    3    0    0 -0.63107104595E-01 -0.84703852437E-01  0.35192757011E-01  0.88701509537E+00  0.88000000000E+00 0.  1.
        -11    1    4    4    0    0  0.59640319931E-01  0.68325540285E-01 -0.17352562449E-01  0.92340239122E-01  0.51100000000E-03 0. -1.
         11    1    4    4    0    0  0.15718850151E-01  0.35781123971E-01 -0.12192509753E-01  0.40942514551E-01  0.51100000000E-03 0.  1.
</event>
<event>
 8    1  0.1128641E+005  0.1043930E+01  0.7957747E-01            NaN
         13   -1    0    0    0    0  0.00000000000E+00  0.00000000000E+00  0.74505805969E-08  0.10566000000E+00  0.10566000000E+00 0. -1.
     999900   -1    0    0    0    0 -0.00000000000E+00 -0.00000000000E+00 -0.74505805969E-08  0.93827000000E+00  0.93827000000E+00 0.  1.
     999902    2    1    2    0    0 -0.87691536973E-02 -0.20462877965E-01 -0.36868428964E-02  0.10213640912E+01  0.10211147763E+01 0.  0.
     999903    2    3    3    0    0 -0.26491026951E-02 -0.63271801505E-01  0.11458460612E+00  0.13239941548E+00  0.19739165317E-01 0.  0.
         14    1    1    2    0    0  0.87691536973E-02  0.20462877965E-01  0.36868428964E-02  0.22565908838E-01  0.00000000000E+00 0. -1.
     999901    1    3    3    0    0 -0.61200510022E-02  0.42808923541E-01 -0.11827144902E+00  0.88896467568E+00  0.88000000000E+00 0.  1.
        -11    1    4    4    0    0 -0.95352843614E-02 -0.35973743327E-01  0.76093812571E-01  0.84708684853E-01  0.51100000000E-03 0.  1.
         11    1    4    4    0    0  0.68861816663E-02 -0.27298058178E-01  0.38490793554E-01  0.47690730626E-01  0.51100000000E-03 0. -1.
</event>
<event>
 8    1  0.1128641E+005  0.1043930E+01  0.7957747E-01            NaN
         13   -1    0    0    0    0  0.00000000000E+00  0.00000000000E+00  0.74505805969E-08  0.10566000000E+00  0.10566000000E+00 0.  1.
     999900   -1    0    0    0    0 -0.00000000000E+00 -0.00000000000E+00 -0.74505805969E-08  0.93827000000E+00  0.93827000000E+00 0.  1.
     999902    2    1    2    0    0  0.22826796003E-01  0.46590873077E-02 -0.17196017807E-02  0.10205692051E+01  0.10203018061E+01 0.  0.
     999903    2    3    3    0    0  0.19475677151E-01 -0.93985428973E-01 -0.86857298794E-01  0.13096794716E+00  0.19895978739E-01 0.  0.
         14    1    1    2    0    0 -0.22826796003E-01 -0.46590873077E-02  0.17196017807E-02  0.23360794948E-01  0.00000000000E+00 0. -1.
     999901    1    3    3    0    0  0.33511188521E-02  0.98644516281E-01  0.85137697013E-01  0.88960125789E+00  0.88000000000E+00 0. -1.
        -11    1    4    4    0    0  0.23606801768E-01 -0.81676673036E-01 -0.74783099386E-01  0.11323044238E+00  0.51100000000E-03 0.  1.
         11    1    4    4    0    0 -0.41311246173E-02 -0.12308755937E-01 -0.12074199408E-01  0.17737504776E-01  0.51100000000E-03 0. -1.
</event>
<event>
 8    1  0.1128641E+005  0.1043930E+01  0.7957747E-01            NaN
         13   -1    0    0    0    0  0.00000000000E+00  0.00000000000E+00  0.74505805969E-08  0.10566000000E+00  0.10566000000E+00 0.  1.
     999900   -1    0    0    0    0 -0.00000000000E+00 -0.00000000000E+00 -0.74505805969E-08  0.93827000000E+00  0.93827000000E+00 0.  1.
     999902    2    1    2    0    0 -0.20136967421E-03 -0.10988179834E-01  0.20903855903E-01  0.10203132297E+01  0.10200398693E+01 0.  0.
     999903    2    3    3    0    0 -0.52840397415E-01  0.60503342728E-01  0.10293103949E+00  0.13205067628E+00  0.19743863190E-01 0.  0.
         14    1    1    2    0    0  0.20136967421E-03  0.10988179834E-01 -0.20903855903E-01  0.23616770258E-01  0.00000000000E+00 0. -1.
     999901    1    3    3    0    0  0.52639027741E-01 -0.71491522562E-01 -0.82027183592E-01  0.88826255346E+00  0.88000000000E+00 0. -1.
        -11    1    4    4    0    0 -0.17549440514E-01  0.10704085659E-01  0.17184634982E-01  0.26798005758E-01  0.51100000000E-03 0. -1.
         11    1    4    4    0    0 -0.35290956902E-01  0.49799257069E-01  0.85746404513E-01  0.10525267052E+00  0.51100000000E-03 0.  1.
</event>
<event>
 8    1  0.1128641E+005  0.1043930E+01  0.7957747E-01            NaN
         13   -1    0    0    0    0  0.00000000000E+00  0.00000000000E+00  0.74505805969E-08  0.10566000000E+00  0.10566000000E+00 0.  1.
     999900   -1    0    0    0    0 -0.00000000000E+00 -0.00000000000E+00 -0.74505805969E-08  0.93827000000E+00  0.93827000000E+00 0.  1.
     999902    2    1    2    0    0 -0.22554311996E-01  0.71555552414E-02 -0.12549805284E-02  0.10202345587E+01  0.10199593526E+01 0.  0.
     999903    2    3    3    0    0 -0.13172129924E+00 -0.60548841131E-02 -0.63400355960E-02  0.13337616835E+00  0.19022195917E-01 0.  0.
         14    1    1    2    0    0  0.22554311996E-01 -0.71555552414E-02  0.12549805284E-02  0.23695441261E-01  0.00000000000E+00 0.  1.
     999901    1    3    3    0    0  0.10916698725E+00  0.13210439354E-01  0.50850550676E-02  0.88685839039E+00  0.88000000000E+00 0. -1.
        -11    1    4    4    0    0 -0.27238004311E-01  0.62849645842E-02  0.24700021476E-03  0.27959466890E-01  0.51100000000E-03 0.  1.
         11    1    4    4    0    0 -0.10448329493E+00 -0.12339848697E-01 -0.65870358108E-02  0.10541670146E+00  0.51100000000E-03 0. -1.
</event>
<event>
 8    1  0.1128641E+005  0.1043930E+01  0.7957747E-01            NaN
         13   -1    0    0    0    0  0.00000000000E+00  0.00000000000E+00  0.74505805969E-08  0.10566000000E+00  0.10566000000E+00 0. -1.
     999900   -1    0    0    0    0 -0.00000000000E+00 -0.00000000000E+00 -0.74505805969E-08  0.93827000000E+00  0.93827000000E+00 0. -1.
     999902    2    1    2    0    0  0.13492777802E-01  0.17544588516E-01 -0.30724896083E-02  0.10215848029E+01  0.10213403947E+01 0.  0.
     999903    2    3    3    0    0  0.91660400458E-01 -0.75302113259E-01  0.55449114446E-01  0.13132896028E+00  0.10032658736E-01 0.  0.
         14    1    1    2    0    0 -0.13492777802E-01 -0.17544588516E-01  0.30724896083E-02  0.22345197055E-01  0.00000000000E+00 0. -1.
     999901    1    3    3    0    0 -0.78167622656E-01  0.92846701776E-01 -0.58521604055E-01  0.89025584267E+00  0.88000000000E+00 0.  1.
        -11    1    4    4    0    0  0.37130655777E-01 -0.36900761093E-01  0.24026421533E-01  0.57601057458E-01  0.51100000000E-03 0.  1.
         11    1    4    4    0    0  0.54529744682E-01 -0.38401352166E-01  0.31422692914E-01  0.73727902820E-01  0.51100000000E-03 0. -1.
</event>
<event>
 8    1  0.1128641E+005  0.1043930E+01  0.7957747E-01            NaN
         13   -1    0    0    0    0  0.00000000000E+00  0.00000000000E+00  0.74505805969E-08  0.10566000000E+00  0.10566000000E+00 0.  1.
     999900   -1    0    0    0    0 -0.00000000000E+00 -0.00000000000E+00 -0.74505805969E-08  0.93827000000E+00  0.93827000000E+00 0. -1.
     999902    2    1    2    0    0 -0.12839306835E-01 -0.34924092755E-02  0.19586897450E-01  0.10202510795E+01  0.10199762615E+01 0.  0.
     999903    2    3    3    0    0  0.71055091207E-01  0.33021935517E-01  0.10381309799E+00  0.13150723553E+00  0.19435006351E-01 0.  0.
         14    1    1    2    0    0  0.12839306835E-01  0.34924092755E-02 -0.19586897450E-01  0.23678920463E-01  0.00000000000E+00 0. -1.
     999901    1    3    3    0    0 -0.83894398042E-01 -0.36514344793E-01 -0.84226200538E-01  0.88874384400E+00  0.88000000000E+00 0. -1.
        -11    1    4    4    0    0  0.28295057636E-01  0.22859252952E-01  0.53527724998E-01  0.64719658502E-01  0.51100000000E-03 0.  1.
         11    1    4    4    0    0  0.42760033571E-01  0.10162682565E-01  0.50285372990E-01  0.66787577031E-01  0.51100000000E-03 0. -1.
</event>
<event>
 7    1  0.1128641E+005  0.1043930E+01  0.7957747E-01            NaN
         13   -1    0    0    0    0  0.00000000000E+00  0.00000000000E+00  0.74505805969E-08  0.10566000000E+00  0.10566000000E+00 0.  1.
     999900   -1    0    0    0    0 -0.00000000000E+00 -0.00000000000E+00 -0.74505805969E-08  0.93827000000E+00  0.93827000000E+00 0.  1.
     999903    2    1    2    0    0 -0.49611801471E-01 -0.85094656453E-01 -0.54182227604E-01  0.11424534413E+00  0.20343388751E-01 0.  0.
         14    1    1    2    0    0 -0.13783692166E-01  0.31442825751E-01  0.29763859849E-01  0.45437086329E-01  0.00000000000E+00 0.  1.
     999901    1    1    2    0    0  0.63395493637E-01  0.53651830702E-01  0.24418367755E-01  0.88424756954E+00  0.88000000000E+00 0. -1.
        -11    1    3    3    0    0 -0.13772894233E-01 -0.11589364607E-01 -0.45109493272E-02  0.18563829680E-01  0.51100000000E-03 0.  1.
         11    1    3    3    0    0 -0.35838907238E-01 -0.73505291845E-01 -0.49671278277E-01  0.95681514452E-01  0.51100000000E-03 0. -1.
</event>
<event>
 8    1  0.1128641E+005  0.1043930E+01  0.7957747E-01            NaN
         13   -1    0    0    0    0  0.00000000000E+00  0.00000000000E+00  0.74505805969E-08  0.10566000000E+00  0.10566000000E+00 0.  1.
     999900   -1    0    0    0    0 -0.00000000000E+00 -0.00000000000E+00 -0.74505805969E-08  0.93827000000E+00  0.93827000000E+00 0. -1.
     999902    2    1    2    0    0  0.14217639400E-01  0.11008899202E-01 -0.14648575443E-01  0.10207369430E+01  0.10204734141E+01 0.  0.
     999903    2    3    3    0    0 -0.53876364356E-01  0.77972204983E-01  0.86262547993E-01  0.12983631299E+00  0.20830592859E-01 0.  0.
         14    1    1    2    0    0 -0.14217639400E-01 -0.11008899202E-01  0.14648575443E-01  0.23193057027E-01  0.00000000000E+00 0. -1.
     999901    1    3    3    0    0  0.68094003756E-01 -0.66963305782E-01 -0.10091112344E+00  0.89090062998E+00  0.88000000000E+00 0. -1.
        -11    1    4    4    0    0 -0.40952707045E-01  0.41858671087E-01  0.55195429117E-01  0.80474027337E-01  0.51100000000E-03 0.  1.
         11    1    4    4    0    0 -0.12923657311E-01  0.36113533896E-01  0.31067118876E-01  0.49362285654E-01  0.51100000000E-03 0. -1.
</event>
<event>
 8    1  0.1128641E+005  0.1043930E+01  0.7957747E-01            NaN
         13   -1    0    0    0    0  0.00000000000E+00  0.00000000000E+00  0.74505805969E-08  0.10566000000E+00  0.10566000000E+00 0.  1.
     999900   -1    0    0    0    0 -0.00000000000E+00 -0.00000000000E+00 -0.74505805969E-08  0.93827000000E+00  0.93827000000E+00 0. -1.
     999902    2    1    2    0    0  0.44523994080E-03  0.17567641000E-01 -0.17036577843E-01  0.10194541909E+01  0.10191603318E+01 0.  0.
     999903    2    3    3    0    0 -0.94265006365E-01 -0.54538275516E-01  0.63803805824E-01  0.12776788862E+00  0.19834132297E-01 0.  0.
         14    1    1    2    0    0 -0.44523994080E-03 -0.17567641000E-01  0.17036577843E-01  0.24475809149E-01  0.00000000000E+00 0.  1.
     999901    1    3    3    0    0  0.94710246305E-01  0.72105916516E-01 -0.80840383667E-01  0.89168630223E+00  0.88000000000E+00 0.  1.
        -11    1    4    4    0    0 -0.31983959735E-01 -0.85766011195E-02  0.15888658932E-01  0.36732034667E-01  0.51100000000E-03 0.  1.
         11    1    4    4    0    0 -0.62281046630E-01 -0.45961674396E-01  0.47915146892E-01  0.91035853955E-01  0.51100000000E-03 0. -1.
</event>
<event>
 8    1  0.1128641E+005  0.1043930E+01  0.7957747E-01            NaN
         13   -1    0    0    0    0  0.00000000000E+00  0.00000000000E+00  0.74505805969E-08  0.10566000000E+00  0.10566000000E+00 0.  1.
     999900   -1    0    0    0    0 -0.00000000000E+00 -0.00000000000E+00 -0.74505805969E-08  0.93827000000E+00  0.93827000000E+00 0.  1.
     999902    2    1    2    0    0  0.10885727831E-01 -0.20819824439E-01 -0.71128907453E-03  0.10204253177E+01  0.10201545759E+01 0.  0.
     999903    2    3    3    0    0  0.11761990188E+00 -0.34441236072E-01  0.46590788822E-01  0.13261046458E+00  0.19854310651E-01 0.  0.
         14    1    1    2    0    0 -0.10885727831E-01  0.20819824439E-01  0.71128907453E-03  0.23504682346E-01  0.00000000000E+00 0.  1.
     999901    1    3    3    0    0 -0.10673417405E+00  0.13621411633E-01 -0.47302077896E-01  0.88781485307E+00  0.88000000000E+00 0.  1.
        -11    1    4    4    0    0  0.51358329741E-01 -0.55797231663E-02  0.15568151246E-01  0.53957759392E-01  0.51100000000E-03 0. -1.
         11    1    4    4    0    0  0.66261572143E-01 -0.28861512905E-01  0.31022637575E-01  0.78652705187E-01  0.51100000000E-03 0.  1.
</event>
<event>
 8    1  0.1128641E+005  0.1043930E+01  0.7957747E-01            NaN
         13   -1    0    0    0    0  0.00000000000E+00  0.00000000000E+00  0.74505805969E-08  0.10566000000E+00  0.10566000000E+00 0. -1.
     999900   -1    0    0    0    0 -0.00000000000E+00 -0.00000000000E+00 -0.74505805969E-08  0.93827000000E+00  0.93827000000E+00 0. -1.
     999902    2    1    2    0    0  0.52584798164E-02  0.11994801167E-01 -0.19884380763E-01  0.10201200134E+01  0.10198421085E+01 0.  0.
     999903    2    3    3    0    0 -0.57999998959E-01 -0.19526882038E-01 -0.11602746938E+00  0.13206666748E+00  0.15294835972E-01 0.  0.
         14    1    1    2    0    0 -0.52584798164E-02 -0.11994801167E-01  0.19884380763E-01  0.23809986631E-01  0.00000000000E+00 0. -1.
     999901    1    3    3    0    0  0.63258478776E-01  0.31521683205E-01  0.96143088620E-01  0.88805334589E+00  0.88000000000E+00 0.  1.
        -11    1    4    4    0    0 -0.16714489770E-01  0.60905022895E-03 -0.24662532842E-01  0.29803468886E-01  0.51100000000E-03 0. -1.
         11    1    4    4    0    0 -0.41285509189E-01 -0.20135932267E-01 -0.91364936541E-01  0.10226319860E+00  0.51100000000E-03 0.  1.
</event>
<event>
 8    1  0.1128641E+005  0.1043930E+01  0.7957747E-01            NaN
         13   -1    0    0    0    0  0.00000000000E+00  0.00000000000E+00  0.74505805969E-08  0.10566000000E+00  0.10566000000E+00 0.  1.
     999900   -1    0    0    0    0 -0.00000000000E+00 -0.00000000000E+00 -0.74505805969E-08  0.93827000000E+00  0.93827000000E+00 0.  1.
     999902    2    1    2    0    0  0.19308710905E-02  0.44541051962E-02 -0.23341550953E-01  0.10200889573E+01  0.10198103184E+01 0.  0.
     999903    2    3    3    0    0 -0.19317256964E-01  0.95060158227E-01 -0.87696316338E-01  0.13284464167E+00  0.23397966180E-01 0.  0.
         14    1    1    2    0    0 -0.19308710905E-02 -0.44541051962E-02  0.23341550953E-01  0.23841042702E-01  0.00000000000E+00 0.  1.
     999901    1    3    3    0    0  0.21248128054E-01 -0.90606053031E-01  0.64354765386E-01  0.88724431563E+00  0.88000000000E+00 0. -1.
        -11    1    4    4    0    0 -0.16615956196E-02  0.39317497666E-01 -0.48452952202E-01  0.62422561793E-01  0.51100000000E-03 0.  1.
         11    1    4    4    0    0 -0.17655661344E-01  0.55742660561E-01 -0.39243364137E-01  0.70422079874E-01  0.51100000000E-03 0. -1.
</event>
<event>
 8    1  0.1128641E+005  0.1043930E+01  0.7957747E-01            NaN
         13   -1    0    0    0    0  0.00000000000E+00  0.00000000000E+00  0.74505805969E-08  0.10566000000E+00  0.10566000000E+00 0. -1.
     999900   -1    0    0    0    0 -0.00000000000E+00 -0.00000000000E+00 -0.74505805969E-08  0.93827000000E+00  0.93827000000E+00 0. -1.
     999902    2    1    2    0    0 -0.19804525729E-01 -0.12838773876E-01 -0.21513622990E-02  0.10202301748E+01  0.10199548656E+01 0.  0.
     999903    2    3    3    0    0  0.85003882212E-01 -0.48464465730E-02  0.94469274820E-01  0.12872345741E+00  0.19903179796E-01 0.  0.
         14    1    1    2    0    0  0.19804525729E-01  0.12838773876E-01  0.21513622990E-02  0.23699825184E-01  0.00000000000E+00 0. -1.
     999901    1    3    3    0    0 -0.10480840794E+00 -0.79923273032E-02 -0.96620637119E-01  0.89150671741E+00  0.88000000000E+00 0.  1.
        -11    1    4    4    0    0  0.42053451291E-01 -0.46121592297E-03  0.32295587419E-01  0.53028026301E-01  0.51100000000E-03 0.  1.
         11    1    4    4    0    0  0.42950430921E-01 -0.43852306500E-02  0.62173687401E-01  0.75695431105E-01  0.51100000000E-03 0. -1.
</event>
<event>
 8    1  0.1128641E+005  0.1043930E+01  0.7957747E-01            NaN
         13   -1    0    0    0    0  0.00000000000E+00  0.00000000000E+00  0.74505805969E-08  0.10566000000E+00  0.10566000000E+00 0.  1.
     999900   -1    0    0    0    0 -0.00000000000E+00 -0.00000000000E+00 -0.74505805969E-08  0.93827000000E+00  0.93827000000E+00 0. -1.
     999902    2    1    2    0    0 -0.21382158641E-01 -0.48064325182E-03 -0.10098647052E-01  0.10202781418E+01  0.10200039589E+01 0.  0.
     999903    2    3    3    0    0 -0.11833711767E+00 -0.55453829841E-01  0.13812809077E-01  0.13292585937E+00  0.19992241796E-01 0.  0.
         14    1    1    2    0    0  0.21382158641E-01  0.48064325182E-03  0.10098647052E-01  0.23651858244E-01  0.00000000000E+00 0.  1.
     999901    1    3    3    0    0  0.96954959028E-01  0.54973186589E-01 -0.23911456129E-01  0.88735228239E+00  0.88000000000E+00 0. -1.
        -11    1    4    4    0    0 -0.95903831333E-01 -0.52004640874E-01  0.15345346375E-01  0.11017154040E+00  0.51100000000E-03 0. -1.
         11    1    4    4    0    0 -0.22433286337E-01 -0.34491889677E-02 -0.15325372975E-02  0.22754318974E-01  0.51100000000E-03 0.  1.
</event>
<event>
 8    1  0.1235959E+005  0.1043930E+01  0.7957747E-01            NaN
         13   -1    0    0    0    0  0.00000000000E+00  0.00000000000E+00  0.74505805969E-08  0.10566000000E+00  0.10566000000E+00 0.  1.
     999900   -1    0    0    0    0 -0.00000000000E+00 -0.00000000000E+00 -0.74505805969E-08  0.93827000000E+00  0.93827000000E+00 0.  1.
     999902    2    1    2    0    0  0.80446165862E-02 -0.22554940436E-01 -0.38939408508E-03  0.10199802021E+01  0.10196989849E+01 0.  0.
     999903    2    3    3    0    0  0.69856948695E-02 -0.68044658871E-01 -0.10919334020E+00  0.13211268125E+00  0.29183890603E-01 0.  0.
         14    1    1    2    0    0 -0.80446165862E-02  0.22554940436E-01  0.38939408508E-03  0.23949797950E-01  0.00000000000E+00 0. -1.
     999901    1    3    3    0    0  0.10589217167E-02  0.45489718435E-01  0.10880394611E+00  0.88786752080E+00  0.88000000000E+00 0. -1.
        -11    1    4    4    0    0 -0.64120762592E-02 -0.49178064428E-01 -0.60754276306E-01  0.78427928401E-01  0.51100000000E-03 0. -1.
         11    1    4    4    0    0  0.13397771129E-01 -0.18866594443E-01 -0.48439063890E-01  0.53684752851E-01  0.51100000000E-03 0.  1.
</event>
<event>
 8    1  0.1128641E+005  0.1043930E+01  0.7957747E-01            NaN
         13   -1    0    0    0    0  0.00000000000E+00  0.00000000000E+00  0.74505805969E-08  0.10566000000E+00  0.10566000000E+00 0. -1.
     999900   -1    0    0    0    0 -0.00000000000E+00 -0.00000000000E+00 -0.74505805969E-08  0.93827000000E+00  0.93827000000E+00 0.  1.
     999902    2    1    2    0    0  0.13956534219E-01  0.53595760723E-02  0.18103027680E-01  0.10204517225E+01  0.10201815958E+01 0.  0.
     999903    2    3    3    0    0  0.91142208678E-01 -0.68537271424E-01 -0.59762275069E-01  0.13057455245E+00  0.21769805897E-01 0.  0.
         14    1    1    2    0    0 -0.13956534219E-01 -0.53595760723E-02 -0.18103027680E-01  0.23478277497E-01  0.00000000000E+00 0.  1.
     999901    1    3    3    0    0 -0.77185674459E-01  0.73896847496E-01  0.77865302748E-01  0.88987717005E+00  0.88000000000E+00 0. -1.
        -11    1    4    4    0    0  0.42891385208E-02 -0.82001628562E-02 -0.35443652714E-03  0.92750270281E-02  0.51100000000E-03 0.  1.
         11    1    4    4    0    0  0.86853070157E-01 -0.60337108568E-01 -0.59407838542E-01  0.12129952542E+00  0.51100000000E-03 0. -1.
</event>
<event>
 8    1  0.1128641E+005  0.1043930E+01  0.7957747E-01            NaN
         13   -1    0    0    0    0  0.00000000000E+00  0.00000000000E+00  0.74505805969E-08  0.10566000000E+00  0.10566000000E+00 0. -1.
     999900   -1    0    0    0    0 -0.00000000000E+00 -0.00000000000E+00 -0.74505805969E-08  0.93827000000E+00  0.93827000000E+00 0. -1.
     999902    2    1    2    0    0 -0.10795008119E-01  0.74476139559E-02 -0.20215168473E-01  0.10198332743E+01  0.10195485546E+01 0.  0.
     999903    2    3    3    0    0 -0.39444942229E-01  0.11860189029E+00  0.32356284181E-01  0.13082267282E+00  0.21102861208E-01 0.  0.
         14    1    1    2    0    0  0.10795008119E-01 -0.74476139559E-02  0.20215168473E-01  0.24096725718E-01  0.00000000000E+00 0. -1.
     999901    1    3    3    0    0  0.28649934110E-01 -0.11115427633E+00 -0.52571452654E-01  0.88901060146E+00  0.88000000000E+00 0. -1.
        -11    1    4    4    0    0 -0.17893621512E-01  0.66330085502E-01  0.76835863238E-02  0.69131472957E-01  0.51100000000E-03 0. -1.
         11    1    4    4    0    0 -0.21551320717E-01  0.52271804788E-01  0.24672697858E-01  0.61691199866E-01  0.51100000000E-03 0.  1.
</event>
<event>
 8    1  0.1128641E+005  0.1043930E+01  0.7957747E-01            NaN
         13   -1    0    0    0    0  0.00000000000E+00  0.00000000000E+00  0.74505805969E-08  0.10566000000E+00  0.10566000000E+00 0.  1.
     999900   -1    0    0    0    0 -0.00000000000E+00 -0.00000000000E+00 -0.74505805969E-08  0.93827000000E+00  0.93827000000E+00 0.  1.
     999902    2    1    2    0    0  0.12793813169E-01  0.69813338101E-02 -0.19074483114E-01  0.10199246551E+01  0.10196421164E+01 0.  0.
     999903    2    3    3    0    0 -0.17631198644E-01 -0.35197280375E-02  0.12483178818E+00  0.12765509463E+00  0.19738292559E-01 0.  0.
         14    1    1    2    0    0 -0.12793813169E-01 -0.69813338101E-02  0.19074483114E-01  0.24005344889E-01  0.00000000000E+00 0.  1.
     999901    1    3    3    0    0  0.30425011813E-01  0.10501061848E-01 -0.14390627130E+00  0.89226956048E+00  0.88000000000E+00 0.  1.
        -11    1    4    4    0    0 -0.23114294859E-02  0.40466413774E-02  0.71438932642E-01  0.71592598994E-01  0.51100000000E-03 0.  1.
         11    1    4    4    0    0 -0.15319769158E-01 -0.75663694149E-02  0.53392855540E-01  0.56062495636E-01  0.51100000000E-03 0. -1.
</event>
<event>
 8    1  0.1128641E+005  0.1043930E+01  0.7957747E-01            NaN
         13   -1    0    0    0    0  0.00000000000E+00  0.00000000000E+00  0.74505805969E-08  0.10566000000E+00  0.10566000000E+00 0. -1.
     999900   -1    0    0    0    0 -0.00000000000E+00 -0.00000000000E+00 -0.74505805969E-08  0.93827000000E+00  0.93827000000E+00 0. -1.
     999902    2    1    2    0    0  0.33365223381E-02 -0.53706542609E-03  0.23462297742E-01  0.10202255651E+01  0.10199501475E+01 0.  0.
     999903    2    3    3    0    0 -0.75356889293E-01 -0.10318028541E+00  0.17299304349E-01  0.13075028933E+00  0.21714975658E-01 0.  0.
         14    1    1    2    0    0 -0.33365223381E-02  0.53706542609E-03 -0.23462297742E-01  0.23704434942E-01  0.00000000000E+00 0.  1.
     999901    1    3    3    0    0  0.78693411631E-01  0.10264321998E+00  0.61629933927E-02  0.88947527573E+00  0.88000000000E+00 0.  1.
        -11    1    4    4    0    0 -0.52731048466E-01 -0.80617475480E-01  0.20951905885E-01  0.98584909120E-01  0.51100000000E-03 0.  1.
         11    1    4    4    0    0 -0.22625840827E-01 -0.22562809931E-01 -0.36526015362E-02  0.32165380211E-01  0.51100000000E-03 0. -1.
</event>
<event>
 8    1  0.1128641E+005  0.1043930E+01  0.7957747E-01            NaN
         13   -1    0    0    0    0  0.00000000000E+00  0.00000000000E+00  0.74505805969E-08  0.10566000000E+00  0.10566000000E+00 0. -1.
     999900   -1    0    0    0    0 -0.00000000000E+00 -0.00000000000E+00 -0.74505805969E-08  0.93827000000E+00  0.93827000000E+00 0. -1.
     999902    2    1    2    0    0 -0.12631874745E-01 -0.21177821528E-01 -0.44676126823E-02  0.10188695940E+01  0.10185613510E+01 0.  0.
     999903    2    3    3    0    0  0.52998850255E-01 -0.23912434552E-01 -0.11428356238E+00  0.12961461767E+00  0.18934989555E-01 0.  0.
         14    1    1    2    0    0  0.12631874745E-01  0.21177821528E-01  0.44676126823E-02  0.25060405969E-01  0.00000000000E+00 0.  1.
     999901    1    3    3    0    0 -0.65630725000E-01  0.27346130240E-02  0.10981594970E+00  0.88925497636E+00  0.88000000000E+00 0.  1.
        -11    1    4    4    0    0  0.34351415414E-01 -0.13348508190E-01 -0.51943115099E-01  0.63691056979E-01  0.51100000000E-03 0.  1.
         11    1    4    4    0    0  0.18647434841E-01 -0.10563926362E-01 -0.62340447280E-01  0.65923560693E-01  0.51100000000E-03 0. -1.
</event>
<event>
 8    1  0.1128641E+005  0.1043930E+01  0.7957747E-01            NaN
         13   -1    0    0    0    0  0.00000000000E+00  0.00000000000E+00  0.74505805969E-08  0.10566000000E+00  0.10566000000E+00 0. -1.
     999900   -1    0    0    0    0 -0.00000000000E+00 -0.00000000000E+00 -0.74505805969E-08  0.93827000000E+00  0.93827000000E+00 0.  1.
     999902    2    1    2    0    0 -0.51964280618E-02  0.18850876796E-01 -0.15232021994E-01  0.10191434530E+01  0.10188419921E+01 0.  0.
     999903    2    3    3    0    0  0.48406392165E-01 -0.84434167421E-01 -0.83006808335E-01  0.12889939408E+00  0.15893902395E-01 0.  0.
         14    1    1    2    0    0  0.51964280618E-02 -0.18850876796E-01  0.15232021994E-01  0.24786547049E-01  0.00000000000E+00 0. -1.
     999901    1    3    3    0    0 -0.53602820227E-01  0.10328504422E+00  0.67774786341E-01  0.89024405887E+00  0.88000000000E+00 0.  1.
        -11    1    4    4    0    0  0.37290253690E-01 -0.50560714289E-01 -0.56149299305E-01  0.84261223485E-01  0.51100000000E-03 0.  1.
         11    1    4    4    0    0  0.11116138475E-01 -0.33873453132E-01 -0.26857509030E-01  0.44638170594E-01  0.51100000000E-03 0. -1.
</event>
<event>
 8    1  0.1128641E+005  0.1043930E+01  0.7957747E-01            NaN
         13   -1    0    0    0    0  0.00000000000E+00  0.00000000000E+00  0.74505805969E-08  0.10566000000E+00  0.10566000000E+00 0.  1.
     999900   -1    0    0    0    0 -0.00000000000E+00 -0.00000000000E+00 -0.74505805969E-08  0.93827000000E+00  0.93827000000E+00 0.  1.
     999902    2    1    2    0    0 -0.13479471753E-01  0.15274827918E-01  0.11932407685E-01  0.10203207035E+01  0.10200475181E+01 0.  0.
     999903    2    3    3    0    0  0.32982627844E-01  0.50738736267E-01 -0.11284399607E+00  0.12959876800E+00  0.19995002411E-01 0.  0.
         14    1    1    2    0    0  0.13479471753E-01 -0.15274827918E-01 -0.11932407685E-01  0.23609296470E-01  0.00000000000E+00 0. -1.
     999901    1    3    3    0    0 -0.46462099597E-01 -0.35463908350E-01  0.12477640376E+00  0.89072193553E+00  0.88000000000E+00 0. -1.
        -11    1    4    4    0    0  0.63549808969E-03  0.12566677724E-01 -0.33567275718E-01  0.35851755424E-01  0.51100000000E-03 0.  1.
         11    1    4    4    0    0  0.32347129754E-01  0.38172058544E-01 -0.79276720352E-01  0.93747012579E-01  0.51100000000E-03 0. -1.
</event>
<event>
 8    1  0.1128641E+005  0.1043930E+01  0.7957747E-01            NaN
         13   -1    0    0    0    0  0.00000000000E+00  0.00000000000E+00  0.74505805969E-08  0.10566000000E+00  0.10566000000E+00 0.  1.
     999900   -1    0    0    0    0 -0.00000000000E+00 -0.00000000000E+00 -0.74505805969E-08  0.93827000000E+00  0.93827000000E+00 0.  1.
     999902    2    1    2    0    0 -0.21120134126E-01  0.10096956844E-02  0.81106844979E-02  0.10212835267E+01  0.10210324085E+01 0.  0.
     999903    2    3    3    0    0 -0.75939629166E-01 -0.36683117076E-01  0.10183950153E+00  0.13380901081E+00  0.20520451889E-01 0.  0.
         14    1    1    2    0    0  0.21120134126E-01 -0.10096956844E-02 -0.81106844979E-02  0.22646473321E-01  0.00000000000E+00 0. -1.
     999901    1    3    3    0    0  0.54819495040E-01  0.37692812761E-01 -0.93728817035E-01  0.88747451587E+00  0.88000000000E+00 0.  1.
        -11    1    4    4    0    0 -0.42735646811E-01 -0.24126356105E-01  0.43846720595E-01  0.65811948727E-01  0.51100000000E-03 0. -1.
         11    1    4    4    0    0 -0.33203982355E-01 -0.12556760971E-01  0.57992780938E-01  0.67997062085E-01  0.51100000000E-03 0.  1.
</event>
<event>
 8    1  0.1128641E+005  0.1043930E+01  0.7957747E-01            NaN
         13   -1    0    0    0    0  0.00000000000E+00  0.00000000000E+00  0.74505805969E-08  0.10566000000E+00  0.10566000000E+00 0. -1.
     999900   -1    0    0    0    0 -0.00000000000E+00 -0.00000000000E+00 -0.74505805969E-08  0.93827000000E+00  0.93827000000E+00 0.  1.
     999902    2    1    2    0    0 -0.14856241648E-01 -0.16998527990E-01 -0.49410562748E-02  0.10208200042E+01  0.10205583810E+01 0.  0.
     999903    2    3    3    0    0 -0.88607594821E-01  0.77779248320E-01  0.53009655333E-01  0.13077485142E+00  0.19776776166E-01 0.  0.
         14    1    1    2    0    0  0.14856241648E-01  0.16998527990E-01  0.49410562748E-02  0.23109995821E-01  0.00000000000E+00 0. -1.
     999901    1    3    3    0    0  0.73751353173E-01 -0.94777776311E-01 -0.57950711608E-01  0.89004515276E+00  0.88000000000E+00 0.  1.
        -11    1    4    4    0    0 -0.58003446164E-01  0.53870440321E-01  0.45200941567E-01  0.91158161164E-01  0.51100000000E-03 0.  1.
         11    1    4    4    0    0 -0.30604148657E-01  0.23908807999E-01  0.78087137665E-02  0.39616690254E-01  0.51100000000E-03 0. -1.
</event>
<event>
 8    1  0.1128641E+005  0.1043930E+01  0.7957747E-01            NaN
         13   -1    0    0    0    0  0.00000000000E+00  0.00000000000E+00  0.74505805969E-08  0.10566000000E+00  0.10566000000E+00 0.  1.
     999900   -1    0    0    0    0 -0.00000000000E+00 -0.00000000000E+00 -0.74505805969E-08  0.93827000000E+00  0.93827000000E+00 0. -1.
     999902    2    1    2    0    0 -0.59068078241E-02  0.19795954584E-01  0.10695985307E-01  0.10206668468E+01  0.10204017041E+01 0.  0.
     999903    2    3    3    0    0 -0.45814031302E-01  0.11633878659E+00  0.43326044237E-01  0.13388737833E+00  0.20372659084E-01 0.  0.
         14    1    1    2    0    0  0.59068078241E-02 -0.19795954584E-01 -0.10695985307E-01  0.23263153231E-01  0.00000000000E+00 0. -1.
     999901    1    3    3    0    0  0.39907223478E-01 -0.96542832005E-01 -0.32630058930E-01  0.88677946844E+00  0.88000000000E+00 0. -1.
        -11    1    4    4    0    0 -0.10001478512E-01  0.23438806656E-01  0.47599206050E-03  0.25493036683E-01  0.51100000000E-03 0. -1.
         11    1    4    4    0    0 -0.35812552789E-01  0.92899979932E-01  0.42850052177E-01  0.10839434165E+00  0.51100000000E-03 0.  1.
</event>
<event>
 8    1  0.1128641E+005  0.1043930E+01  0.7957747E-01            NaN
         13   -1    0    0    0    0  0.00000000000E+00  0.00000000000E+00  0.74505805969E-08  0.10566000000E+00  0.10566000000E+00 0.  1.
     999900   -1    0    0    0    0 -0.00000000000E+00 -0.00000000000E+00 -0.74505805969E-08  0.93827000000E+00  0.93827000000E+00 0. -1.
     999902    2    1    2    0    0 -0.17063309530E-01  0.90628123941E-02 -0.14993724307E-01  0.10194738583E+01  0.10191804770E+01 0.  0.
     999903    2    3    3    0    0  0.11773769429E+00  0.11934155958E-01  0.42805947923E-01  0.12733017176E+00  0.19391614829E-01 0.  0.
         14    1    1    2    0    0  0.17063309530E-01 -0.90628123941E-02  0.14993724307E-01  0.24456141748E-01  0.00000000000E+00 0. -1.
     999901    1    3    3    0    0 -0.13480100382E+00 -0.28713435638E-02 -0.57799672230E-01  0.89214368650E+00  0.88000000000E+00 0. -1.
        -11    1    4    4    0    0  0.35580649886E-01  0.10323522467E-01  0.70626943616E-02  0.37718702723E-01  0.51100000000E-03 0.  1.
         11    1    4    4    0    0  0.82157044408E-01  0.16106334905E-02  0.35743253561E-01  0.89611469033E-01  0.51100000000E-03 0. -1.
</event>
<event>
 8    1  0.1128641E+005  0.1043930E+01  0.7957747E-01            NaN
         13   -1    0    0    0    0  0.00000000000E+00  0.00000000000E+00  0.74505805969E-08  0.10566000000E+00  0.10566000000E+00 0.  1.
     999900   -1    0    0    0    0 -0.00000000000E+00 -0.00000000000E+00 -0.74505805969E-08  0.93827000000E+00  0.93827000000E+00 0. -1.
     999902    2    1    2    0    0  0.70601549534E-02 -0.21360779263E-01 -0.57426972349E-02  0.10207113168E+01  0.10204471985E+01 0.  0.
     999903    2    3    3    0    0 -0.79202903186E-02  0.87620952616E-01  0.91637463446E-01  0.12853177918E+00  0.19566073107E-01 0.  0.
         14    1    1    2    0    0 -0.70601549534E-02  0.21360779263E-01  0.57426972349E-02  0.23218683215E-01  0.00000000000E+00 0.  1.
     999901    1    3    3    0    0  0.14980445272E-01 -0.10898173188E+00 -0.97380160680E-01  0.89217953760E+00  0.88000000000E+00 0. -1.
        -11    1    4    4    0    0 -0.13790047685E-01  0.63899643342E-01  0.71321197908E-01  0.96748665243E-01  0.51100000000E-03 0. -1.
         11    1    4    4    0    0  0.58697573663E-02  0.23721309274E-01  0.20316265537E-01  0.31783113938E-01  0.51100000000E-03 0.  1.
</event>
<event>
 8    1  0.1128641E+005  0.1043930E+01  0.7957747E-01            NaN
         13   -1    0    0    0    0  0.00000000000E+00  0.00000000000E+00  0.74505805969E-08  0.10566000000E+00  0.10566000000E+00 0.  1.
     999900   -1    0    0    0    0 -0.00000000000E+00 -0.00000000000E+00 -0.74505805969E-08  0.93827000000E+00  0.93827000000E+00 0. -1.
     999902    2    1    2    0    0 -0.23580397467E-01  0.43983558696E-02 -0.39382299077E-02  0.10196217641E+01  0.10193319633E+01 0.  0.
     999903    2    3    3    0    0 -0.11569545262E-01 -0.70508446572E-01  0.10641278263E+00  0.12949107952E+00  0.18410973645E-01 0.  0.
         14    1    1    2    0    0  0.23580397467E-01 -0.43983558696E-02  0.39382299077E-02  0.24308235926E-01  0.00000000000E+00 0.  1.
     999901    1    3    3    0    0 -0.12010852204E-01  0.74906802441E-01 -0.11035101254E+00  0.89013068456E+00  0.88000000000E+00 0. -1.
        -11    1    4    4    0    0  0.43876707818E-02 -0.14226111517E-01  0.16589882915E-01  0.22296170970E-01  0.51100000000E-03 0.  1.
         11    1    4    4    0    0 -0.15957216044E-01 -0.56282335054E-01  0.89822899720E-01  0.10719490855E+00  0.51100000000E-03 0. -1.
</event>
<event>
 8    1  0.1128641E+005  0.1043930E+01  0.7957747E-01            NaN
         13   -1    0    0    0    0  0.00000000000E+00  0.00000000000E+00  0.74505805969E-08  0.10566000000E+00  0.10566000000E+00 0.  1.
     999900   -1    0    0    0    0 -0.00000000000E+00 -0.00000000000E+00 -0.74505805969E-08  0.93827000000E+00  0.93827000000E+00 0.  1.
     999902    2    1    2    0    0 -0.10264735255E-01 -0.18097107739E-01 -0.11438146837E-01  0.10201876054E+01  0.10199112946E+01 0.  0.
     999903    2    3    3    0    0 -0.10076852486E+00  0.46116894881E-01 -0.67221237553E-01  0.13146598010E+00  0.21989669166E-01 0.  0.
         14    1    1    2    0    0  0.10264735255E-01  0.18097107739E-01  0.11438146837E-01  0.23742394602E-01  0.00000000000E+00 0. -1.
     999901    1    3    3    0    0  0.90503789600E-01 -0.64214002620E-01  0.55783090716E-01  0.88872162530E+00  0.88000000000E+00 0. -1.
        -11    1    4    4    0    0 -0.44420677273E-01  0.14632835230E-01 -0.17313164952E-01  0.49873071270E-01  0.51100000000E-03 0. -1.
         11    1    4    4    0    0 -0.56347847582E-01  0.31484059651E-01 -0.49908072601E-01  0.81592908828E-01  0.51100000000E-03 0.  1.
</event>
<event>
 8    1  0.1128641E+005  0.1043930E+01  0.7957747E-01            NaN
         13   -1    0    0    0    0  0.00000000000E+00  0.00000000000E+00  0.74505805969E-08  0.10566000000E+00  0.10566000000E+00 0.  1.
     999900   -1    0    0    0    0 -0.00000000000E+00 -0.00000000000E+00 -0.74505805969E-08  0.93827000000E+00  0.93827000000E+00 0. -1.
     999902    2    1    2    0    0  0.10576303202E-01  0.42078492088E-02  0.21299975208E-01  0.10197793659E+01  0.10194933555E+01 0.  0.
     999903    2    3    3    0    0 -0.39528323448E-01  0.14678472170E-01  0.12397942394E+00  0.13233180307E+00  0.19048953805E-01 0.  0.
         14    1    1    2    0    0 -0.10576303202E-01 -0.42078492088E-02 -0.21299975208E-01  0.24150634117E-01  0.00000000000E+00 0. -1.
     999901    1    3    3    0    0  0.50104626650E-01 -0.10470622961E-01 -0.10267944874E+00  0.88744756282E+00  0.88000000000E+00 0. -1.
        -11    1    4    4    0    0 -0.12996270294E-01 -0.16940830808E-02  0.56409407452E-01  0.57914206626E-01  0.51100000000E-03 0.  1.
         11    1    4    4    0    0 -0.26532053154E-01  0.16372555250E-01  0.67570016493E-01  0.74417596440E-01  0.51100000000E-03 0. -1.
</event>
<event>
 8    1  0.1128641E+005  0.1043930E+01  0.7957747E-01            NaN
         13   -1    0    0    0    0  0.00000000000E+00  0.00000000000E+00  0.74505805969E-08  0.10566000000E+00  0.10566000000E+00 0. -1.
     999900   -1    0    0    0    0 -0.00000000000E+00 -0.00000000000E+00 -0.74505805969E-08  0.93827000000E+00  0.93827000000E+00 0. -1.
     999902    2    1    2    0    0  0.17697694213E-01  0.12937088656E-01  0.72022688467E-02  0.10208551366E+01  0.10205943174E+01 0.  0.
     999903    2    3    3    0    0  0.79205595370E-01  0.51179747895E-01  0.92402111550E-01  0.13377862578E+00  0.21579563579E-01 0.  0.
         14    1    1    2    0    0 -0.17697694213E-01 -0.12937088656E-01 -0.72022688467E-02  0.23074863378E-01  0.00000000000E+00 0. -1.
     999901    1    3    3    0    0 -0.61507901156E-01 -0.38242659238E-01 -0.85199842704E-01  0.88707651084E+00  0.88000000000E+00 0. -1.
        -11    1    4    4    0    0  0.74822691022E-01  0.50004498044E-01  0.79459173865E-01  0.12005376441E+00  0.51100000000E-03 0. -1.
         11    1    4    4    0    0  0.43829043476E-02  0.11752498505E-02  0.12942937686E-01  0.13724861372E-01  0.51100000000E-03 0.  1.
</event>
<event>
 8    1  0.1128641E+005  0.1043930E+01  0.7957747E-01            NaN
         13   -1    0    0    0    0  0.00000000000E+00  0.00000000000E+00  0.74505805969E-08  0.10566000000E+00  0.10566000000E+00 0. -1.
     999900   -1    0    0    0    0 -0.00000000000E+00 -0.00000000000E+00 -0.74505805969E-08  0.93827000000E+00  0.93827000000E+00 0. -1.
     999902    2    1    2    0    0  0.40072639363E-02  0.52576330998E-02  0.26672511795E-01  0.10164504848E+01  0.10160789656E+01 0.  0.
     999903    2    3    3    0    0  0.62328300665E-01 -0.41680951407E-01  0.10420685442E+00  0.12987496725E+00  0.19655020620E-01 0.  0.
         14    1    1    2    0    0 -0.40072639363E-02 -0.52576330998E-02 -0.26672511795E-01  0.27479515198E-01  0.00000000000E+00 0.  1.
     999901    1    3    3    0    0 -0.58321036728E-01  0.46938584507E-01 -0.77534342625E-01  0.88657551755E+00  0.88000000000E+00 0.  1.
        -11    1    4    4    0    0  0.26402253601E-01 -0.20273595197E-01  0.62477475691E-01  0.70794023386E-01  0.51100000000E-03 0. -1.
         11    1    4    4    0    0  0.35926047064E-01 -0.21407356210E-01  0.41729378729E-01  0.59080943862E-01  0.51100000000E-03 0.  1.
</event>
<event>
 8    1  0.1128641E+005  0.1043930E+01  0.7957747E-01            NaN
         13   -1    0    0    0    0  0.00000000000E+00  0.00000000000E+00  0.74505805969E-08  0.10566000000E+00  0.10566000000E+00 0. -1.
     999900   -1    0    0    0    0 -0.00000000000E+00 -0.00000000000E+00 -0.74505805969E-08  0.93827000000E+00  0.93827000000E+00 0.  1.
     999902    2    1    2    0    0  0.77129432534E-02 -0.21990264787E-01  0.17100735930E-02  0.10205636654E+01  0.10202961382E+01 0.  0.
     999903    2    3    3    0    0 -0.36368462564E-01  0.26470743759E-01 -0.12003713396E+00  0.12976962514E+00  0.20195958386E-01 0.  0.
         14    1    1    2    0    0 -0.77129432534E-02  0.21990264787E-01 -0.17100735930E-02  0.23366334559E-01  0.00000000000E+00 0.  1.
     999901    1    3    3    0    0  0.44081405817E-01 -0.48461008546E-01  0.12174720755E+00  0.89079404030E+00  0.88000000000E+00 0. -1.
        -11    1    4    4    0    0 -0.16412260950E-01  0.20120092143E-02 -0.55682474271E-01  0.58087946706E-01  0.51100000000E-03 0.  1.
         11    1    4    4    0    0 -0.19956201613E-01  0.24458734545E-01 -0.64354659689E-01  0.71681678434E-01  0.51100000000E-03 0. -1.
</event>
<event>
 8    1  0.1128641E+005  0.1043930E+01  0.7957747E-01            NaN
         13   -1    0    0    0    0  0.00000000000E+00  0.00000000000E+00  0.74505805969E-08  0.10566000000E+00  0.10566000000E+00 0. -1.
     999900   -1    0    0    0    0 -0.00000000000E+00 -0.00000000000E+00 -0.74505805969E-08  0.93827000000E+00  0.93827000000E+00 0.  1.
     999902    2    1    2    0    0  0.94510124682E-02 -0.91273812148E-02 -0.19721961146E-01  0.10202321842E+01  0.10199569222E+01 0.  0.
     999903    2    3    3    0    0  0.45081620013E-01 -0.65071891916E-01  0.10085118637E+00  0.12953739222E+00  0.18500557040E-01 0.  0.
         14    1    1    2    0    0 -0.94510124682E-02  0.91273812148E-02  0.19721961146E-01  0.23697815848E-01  0.00000000000E+00 0. -1.
     999901    1    3    3    0    0 -0.35630607545E-01  0.55944510701E-01 -0.12057314752E+00  0.89069479193E+00  0.88000000000E+00 0.  1.
        -11    1    4    4    0    0  0.29287132161E-01 -0.27149081321E-01  0.44408586764E-01  0.59725977817E-01  0.51100000000E-03 0.  1.
         11    1    4    4    0    0  0.15794487853E-01 -0.37922810595E-01  0.56442599605E-01  0.69811414404E-01  0.51100000000E-03 0. -1.
</event>
<event>
 8    1  0.1128641E+005  0.1043930E+01  0.7957747E-01            NaN
         13   -1    0    0    0    0  0.00000000000E+00  0.00000000000E+00  0.74505805969E-08  0.10566000000E+00  0.10566000000E+00 0. -1.
     999900   -1    0    0    0    0 -0.00000000000E+00 -0.00000000000E+00 -0.74505805969E-08  0.93827000000E+00  0.93827000000E+00 0. -1.
     999902    2    1    2    0    0 -0.12604887472E-01 -0.20893060355E-01  0.69399379696E-03  0.10195192485E+01  0.10192269685E+01 0.  0.
     999903    2    3    3    0    0 -0.11285081743E+00 -0.66354599001E-01  0.47149002513E-02  0.13265276161E+00  0.20887438206E-01 0.  0.
         14    1    1    2    0    0  0.12604887472E-01  0.20893060355E-01 -0.69399379696E-03  0.24410751454E-01  0.00000000000E+00 0.  1.
     999901    1    3    3    0    0  0.10024592995E+00  0.45461538647E-01 -0.40209064543E-02  0.88686648694E+00  0.88000000000E+00 0.  1.
        -11    1    4    4    0    0 -0.41589474812E-01 -0.18511245394E-01  0.10162263133E-01  0.46646364640E-01  0.51100000000E-03 0.  1.
         11    1    4    4    0    0 -0.71261342614E-01 -0.47843353608E-01 -0.54473628815E-02  0.86006396965E-01  0.51100000000E-03 0. -1.
</event>
<event>
 8    1  0.1128641E+005  0.1043930E+01  0.7957747E-01            NaN
         13   -1    0    0    0    0  0.00000000000E+00  0.00000000000E+00  0.74505805969E-08  0.10566000000E+00  0.10566000000E+00 0. -1.
     999900   -1    0    0    0    0 -0.00000000000E+00 -0.00000000000E+00 -0.74505805969E-08  0.93827000000E+00  0.93827000000E+00 0. -1.
     999902    2    1    2    0    0 -0.13501165451E-01  0.17161088332E-01 -0.41340065243E-02  0.10217067142E+01  0.10214649947E+01 0.  0.
     999903    2    3    3    0    0 -0.64680021184E-01  0.11578411142E+00  0.11467332215E-01  0.13458260918E+00  0.19786697263E-01 0.  0.
         14    1    1    2    0    0  0.13501165451E-01 -0.17161088332E-01  0.41340065243E-02  0.22223285789E-01  0.00000000000E+00 0. -1.
     999901    1    3    3    0    0  0.51178855732E-01 -0.98623023085E-01 -0.15601338739E-01  0.88712410503E+00  0.88000000000E+00 0. -1.
        -11    1    4    4    0    0 -0.60137451823E-01  0.92714239430E-01  0.78737393804E-02  0.11079124603E+00  0.51100000000E-03 0. -1.
         11    1    4    4    0    0 -0.45425693608E-02  0.23069871988E-01  0.35935928347E-02  0.23791363147E-01  0.51100000000E-03 0.  1.
</event>
<event>
 8    1  0.1128641E+005  0.1043930E+01  0.7957747E-01            NaN
         13   -1    0    0    0    0  0.00000000000E+00  0.00000000000E+00  0.74505805969E-08  0.10566000000E+00  0.10566000000E+00 0.  1.
     999900   -1    0    0    0    0 -0.00000000000E+00 -0.00000000000E+00 -0.74505805969E-08  0.93827000000E+00  0.93827000000E+00 0.  1.
     999902    2    1    2    0    0 -0.11187623173E-01 -0.12743147086E-01  0.16577031390E-01  0.10202161079E+01  0.10199404679E+01 0.  0.
     999903    2    3    3    0    0 -0.10664222799E-01 -0.12554120253E+00  0.37832166776E-01  0.13276162677E+00  0.17890151413E-01 0.  0.
         14    1    1    2    0    0  0.11187623173E-01  0.12743147086E-01 -0.16577031390E-01  0.23713892123E-01  0.00000000000E+00 0. -1.
     999901    1    3    3    0    0 -0.52340037397E-03  0.11279805545E+00 -0.21255135386E-01  0.88745448111E+00  0.88000000000E+00 0.  1.
        -11    1    4    4    0    0 -0.24689870281E-02 -0.35980014259E-01  0.19403147763E-01  0.40956081198E-01  0.51100000000E-03 0. -1.
         11    1    4    4    0    0 -0.81952357713E-02 -0.89561188275E-01  0.18429019013E-01  0.91805545569E-01  0.51100000000E-03 0.  1.
</event>
<event>
 8    1  0.1128641E+005  0.1043930E+01  0.7957747E-01            NaN
         13   -1    0    0    0    0  0.00000000000E+00  0.00000000000E+00  0.74505805969E-08  0.10566000000E+00  0.10566000000E+00 0. -1.
     999900   -1    0    0    0    0 -0.00000000000E+00 -0.00000000000E+00 -0.74505805969E-08  0.93827000000E+00  0.93827000000E+00 0.  1.
     999902    2    1    2    0    0  0.83444982456E-02 -0.41230356340E-02 -0.22451608709E-01  0.10196255805E+01  0.10193358718E+01 0.  0.
     999903    2    3    3    0    0  0.80326102175E-01 -0.30224500516E-01  0.93796641827E-01  0.12868434028E+00  0.19900911839E-01 0.  0.
         14    1    1    2    0    0 -0.83444982456E-02  0.41230356340E-02  0.22451608709E-01  0.24304419504E-01  0.00000000000E+00 0. -1.
     999901    1    3    3    0    0 -0.71981603929E-01  0.26101464882E-01 -0.11624825054E+00  0.89094124022E+00  0.88000000000E+00 0.  1.
        -11    1    4    4    0    0  0.54991576788E-01 -0.14036077531E-01  0.50504213116E-01  0.75973822159E-01  0.51100000000E-03 0. -1.
         11    1    4    4    0    0  0.25334525387E-01 -0.16188422985E-01  0.43292428711E-01  0.52710518116E-01  0.51100000000E-03 0.  1.
</event>
<event>
 8    1  0.1128641E+005  0.1043930E+01  0.7957747E-01            NaN
         13   -1    0    0    0    0  0.00000000000E+00  0.00000000000E+00  0.74505805969E-08  0.10566000000E+00  0.10566000000E+00 0. -1.
     999900   -1    0    0    0    0 -0.00000000000E+00 -0.00000000000E+00 -0.74505805969E-08  0.93827000000E+00  0.93827000000E+00 0.  1.
     999902    2    1    2    0    0  0.17565730997E-01  0.15164757614E-01  0.34313299952E-02  0.10204715515E+01  0.10202018862E+01 0.  0.
     999903    2    3    3    0    0  0.48875061879E-01  0.12215995223E+00 -0.71995699176E-02  0.13337445318E+00  0.20617598089E-01 0.  0.
         14    1    1    2    0    0 -0.17565730997E-01 -0.15164757614E-01 -0.34313299952E-02  0.23458448468E-01  0.00000000000E+00 0. -1.
     999901    1    3    3    0    0 -0.31309330882E-01 -0.10699519462E+00  0.10630899913E-01  0.88709709835E+00  0.88000000000E+00 0.  1.
        -11    1    4    4    0    0  0.10570699500E-01  0.49574858328E-01  0.23549130418E-02  0.50746556559E-01  0.51100000000E-03 0. -1.
         11    1    4    4    0    0  0.38304362379E-01  0.72585093905E-01 -0.95544829594E-02  0.82627896621E-01  0.51100000000E-03 0.  1.
</event>
<event>
 8    1  0.1128641E+005  0.1043930E+01  0.7957747E-01            NaN
         13   -1    0    0    0    0  0.00000000000E+00  0.00000000000E+00  0.74505805969E-08  0.10566000000E+00  0.10566000000E+00 0.  1.
     999900   -1    0    0    0    0 -0.00000000000E+00 -0.00000000000E+00 -0.74505805969E-08  0.93827000000E+00  0.93827000000E+00 0.  1.
     999902    2    1    2    0    0 -0.15964922894E-01 -0.10625069790E-01  0.13626679617E-01  0.10204043275E+01  0.10201330963E+01 0.  0.
     999903    2    3    3    0    0  0.12001107489E+00 -0.33779923333E-01 -0.23116368411E-01  0.12890240890E+00  0.23188859739E-01 0.  0.
         14    1    1    2    0    0  0.15964922894E-01  0.10625069790E-01 -0.13626679617E-01  0.23525672539E-01  0.00000000000E+00 0. -1.
     999901    1    3    3    0    0 -0.13597599778E+00  0.23154853543E-01  0.36743048028E-01  0.89150191856E+00  0.88000000000E+00 0. -1.
        -11    1    4    4    0    0  0.28144311517E-01 -0.72261603995E-02  0.44015585383E-02  0.29393102991E-01  0.51100000000E-03 0.  1.
         11    1    4    4    0    0  0.91866763371E-01 -0.26553762934E-01 -0.27517926950E-01  0.99509305911E-01  0.51100000000E-03 0. -1.
</event>
<event>
 8    1  0.1128641E+005  0.1043930E+01  0.7957747E-01            NaN
         13   -1    0    0    0    0  0.00000000000E+00  0.00000000000E+00  0.74505805969E-08  0.10566000000E+00  0.10566000000E+00 0.  1.
     999900   -1    0    0    0    0 -0.00000000000E+00 -0.00000000000E+00 -0.74505805969E-08  0.93827000000E+00  0.93827000000E+00 0. -1.
     999902    2    1    2    0    0 -0.15921848889E-01  0.17710128605E-01 -0.10613441205E-02  0.10200913679E+01  0.10198127860E+01 0.  0.
     999903    2    3    3    0    0  0.11596350663E+00  0.51827513537E-01 -0.15964297427E-01  0.12948492232E+00  0.19438628762E-01 0.  0.
         14    1    1    2    0    0  0.15921848889E-01 -0.17710128605E-01  0.10613441205E-02  0.23838632062E-01  0.00000000000E+00 0. -1.
     999901    1    3    3    0    0 -0.13188535552E+00 -0.34117384932E-01  0.14902953306E-01  0.89060644562E+00  0.88000000000E+00 0. -1.
        -11    1    4    4    0    0  0.86649100356E-01  0.37139025604E-01 -0.33001405995E-02  0.94331998094E-01  0.51100000000E-03 0. -1.
         11    1    4    4    0    0  0.29314406270E-01  0.14688487933E-01 -0.12664156827E-01  0.35152924229E-01  0.51100000000E-03 0.  1.
</event>
<event>
 8    1  0.1128641E+005  0.1043930E+01  0.7957747E-01            NaN
         13   -1    0    0    0    0  0.00000000000E+00  0.00000000000E+00  0.74505805969E-08  0.10566000000E+00  0.10566000000E+00 0. -1.
     999900   -1    0    0    0    0 -0.00000000000E+00 -0.00000000000E+00 -0.74505805969E-08  0.93827000000E+00  0.93827000000E+00 0. -1.
     999902    2    1    2    0    0 -0.76381870754E-02  0.15033079002E-01  0.14569297104E-01  0.10216454811E+01  0.10214024130E+01 0.  0.
     999903    2    3    3    0    0  0.22908539654E-02  0.13231046248E+00  0.40629174233E-02  0.13374742692E+00  0.18988428484E-01 0.  0.
         14    1    1    2    0    0  0.76381870754E-02 -0.15033079002E-01 -0.14569297104E-01  0.22284518936E-01  0.00000000000E+00 0.  1.
     999901    1    3    3    0    0 -0.99290410408E-02 -0.11727738348E+00  0.10506379681E-01  0.88789805414E+00  0.88000000000E+00 0. -1.
        -11    1    4    4    0    0  0.47547393538E-02  0.92546918375E-02  0.22252323290E-02  0.10652213256E-01  0.51100000000E-03 0.  1.
         11    1    4    4    0    0 -0.24638853884E-02  0.12305577065E+00  0.18376850943E-02  0.12309521367E+00  0.51100000000E-03 0. -1.
</event>
<event>
 8    1  0.1128641E+005  0.1043930E+01  0.7957747E-01            NaN
         13   -1    0    0    0    0  0.00000000000E+00  0.00000000000E+00  0.74505805969E-08  0.10566000000E+00  0.10566000000E+00 0.  1.
     999900   -1    0    0    0    0 -0.00000000000E+00 -0.00000000000E+00 -0.74505805969E-08  0.93827000000E+00  0.93827000000E+00 0. -1.
     999902    2    1    2    0    0 -0.70712060744E-02 -0.13347876802E-01 -0.18389952328E-01  0.10201317203E+01  0.10198540918E+01 0.  0.
     999903    2    3    3    0    0  0.10738561646E+00 -0.35250233377E-01  0.59054699560E-01  0.12907742814E+00  0.19981875298E-01 0.  0.
         14    1    1    2    0    0  0.70712060744E-02  0.13347876802E-01  0.18389952328E-01  0.23798279709E-01  0.00000000000E+00 0.  1.
     999901    1    3    3    0    0 -0.11445682253E+00  0.21902356574E-01 -0.77444651888E-01  0.89105429215E+00  0.88000000000E+00 0. -1.
        -11    1    4    4    0    0  0.41461356401E-01 -0.88275903099E-02  0.12663077029E-01  0.44244604938E-01  0.51100000000E-03 0. -1.
         11    1    4    4    0    0  0.65924260059E-01 -0.26422643067E-01  0.46391622531E-01  0.84832823206E-01  0.51100000000E-03 0.  1.
</event>
<event>
 8    1  0.1128641E+005  0.1043930E+01  0.7957747E-01            NaN
         13   -1    0    0    0    0  0.00000000000E+00  0.00000000000E+00  0.74505805969E-08  0.10566000000E+00  0.10566000000E+00 0.  1.
     999900   -1    0    0    0    0 -0.00000000000E+00 -0.00000000000E+00 -0.74505805969E-08  0.93827000000E+00  0.93827000000E+00 0.  1.
     999902    2    1    2    0    0 -0.16596676507E-01  0.94480324057E-02  0.17011344314E-01  0.10183546051E+01  0.10180333987E+01 0.  0.
     999903    2    3    3    0    0  0.56668194050E-02 -0.95610982007E-01  0.84384499252E-01  0.12926956883E+00  0.20403553365E-01 0.  0.
         14    1    1    2    0    0  0.16596676507E-01 -0.94480324057E-02 -0.17011344314E-01  0.25575394870E-01  0.00000000000E+00 0.  1.
     999901    1    3    3    0    0 -0.22263495912E-01  0.10505901441E+00 -0.67373154938E-01  0.88908503630E+00  0.88000000000E+00 0.  1.
        -11    1    4    4    0    0  0.10113802145E-01 -0.51163029560E-01  0.55010355514E-01  0.75804649742E-01  0.51100000000E-03 0. -1.
         11    1    4    4    0    0 -0.44469827402E-02 -0.44447952447E-01  0.29374143737E-01  0.53464919092E-01  0.51100000000E-03 0.  1.
</event>
<event>
 8    1  0.1128641E+005  0.1043930E+01  0.7957747E-01            NaN
         13   -1    0    0    0    0  0.00000000000E+00  0.00000000000E+00  0.74505805969E-08  0.10566000000E+00  0.10566000000E+00 0. -1.
     999900   -1    0    0    0    0 -0.00000000000E+00 -0.00000000000E+00 -0.74505805969E-08  0.93827000000E+00  0.93827000000E+00 0.  1.
     999902    2    1    2    0    0 -0.13188178497E-01  0.93373766587E-02 -0.16722848618E-01  0.10206755742E+01  0.10204106327E+01 0.  0.
     999903    2    3    3    0    0 -0.91920277411E-01 -0.67606306221E-01 -0.64426445820E-01  0.13253442158E+00  0.19865949312E-01 0.  0.
         14    1    1    2    0    0  0.13188178497E-01 -0.93373766587E-02  0.16722848618E-01  0.23254425834E-01  0.00000000000E+00 0. -1.
     999901    1    3    3    0    0  0.78732098913E-01  0.76943682879E-01  0.47703597201E-01  0.88814115259E+00  0.88000000000E+00 0.  1.
        -11    1    4    4    0    0 -0.70423791641E-01 -0.48476052152E-01 -0.57180077269E-01  0.10285553179E+00  0.51100000000E-03 0.  1.
         11    1    4    4    0    0 -0.21496485769E-01 -0.19130254069E-01 -0.72463685507E-02  0.29678889793E-01  0.51100000000E-03 0. -1.
</event>
<event>
 8    1  0.1128641E+005  0.1043930E+01  0.7957747E-01            NaN
         13   -1    0    0    0    0  0.00000000000E+00  0.00000000000E+00  0.74505805969E-08  0.10566000000E+00  0.10566000000E+00 0. -1.
     999900   -1    0    0    0    0 -0.00000000000E+00 -0.00000000000E+00 -0.74505805969E-08  0.93827000000E+00  0.93827000000E+00 0. -1.
     999902    2    1    2    0    0  0.17474845588E-01  0.75852596402E-02  0.15175290229E-01  0.10195743882E+01  0.10192834430E+01 0.  0.
     999903    2    3    3    0    0 -0.45492106336E-01 -0.11505763530E+00 -0.25502726890E-01  0.12791255893E+00  0.20085877495E-01 0.  0.
         14    1    1    2    0    0 -0.17474845588E-01 -0.75852596402E-02 -0.15175290229E-01  0.24355611790E-01  0.00000000000E+00 0.  1.
     999901    1    3    3    0    0  0.62966951924E-01  0.12264289494E+00  0.40678017119E-01  0.89166182928E+00  0.88000000000E+00 0.  1.
        -11    1    4    4    0    0 -0.15777412462E-01 -0.23503283758E-01  0.85198307499E-04  0.28312532052E-01  0.51100000000E-03 0. -1.
         11    1    4    4    0    0 -0.29714693874E-01 -0.91554351539E-01 -0.25587925198E-01  0.99600026881E-01  0.51100000000E-03 0.  1.
</event>
<event>
 8    1  0.1196235E+005  0.1043930E+01  0.7957747E-01            NaN
         13   -1    0    0    0    0  0.00000000000E+00  0.00000000000E+00  0.74505805969E-08  0.10566000000E+00  0.10566000000E+00 0. -1.
     999900   -1    0    0    0    0 -0.00000000000E+00 -0.00000000000E+00 -0.74505805969E-08  0.93827000000E+00  0.93827000000E+00 0. -1.
     999902    2    1    2    0    0 -0.12876868560E-01  0.54263402503E-02 -0.14700475134E-01  0.10236479172E+01  0.10234469676E+01 0.  0.
     999903    2    3    3    0    0 -0.87711926331E-01 -0.18933849771E-01  0.96227178599E-01  0.13319935100E+00  0.20749084763E-01 0.  0.
         14    1    1    2    0    0  0.12876868560E-01 -0.54263402503E-02  0.14700475134E-01  0.20282082772E-01  0.00000000000E+00 0. -1.
     999901    1    3    3    0    0  0.74835057772E-01  0.24360190021E-01 -0.11092765373E+00  0.89044856623E+00  0.88000000000E+00 0. -1.
        -11    1    4    4    0    0 -0.55712982222E-01 -0.15323054131E-01  0.74785594357E-01  0.94508616646E-01  0.51100000000E-03 0.  1.
         11    1    4    4    0    0 -0.31998944109E-01 -0.36107956402E-02  0.21441584242E-01  0.38690734357E-01  0.51100000000E-03 0. -1.
</event>
<event>
 8    1  0.1128641E+005  0.1043930E+01  0.7957747E-01            NaN
         13   -1    0    0    0    0  0.00000000000E+00  0.00000000000E+00  0.74505805969E-08  0.10566000000E+00  0.10566000000E+00 0.  1.
     999900   -1    0    0    0    0 -0.00000000000E+00 -0.00000000000E+00 -0.74505805969E-08  0.93827000000E+00  0.93827000000E+00 0. -1.
     999902    2    1    2    0    0  0.15202409993E-01 -0.16881674563E-01 -0.12262413336E-01  0.10181139006E+01  0.10177865413E+01 0.  0.
     999903    2    3    3    0    0 -0.84297504306E-01  0.50630729640E-01 -0.78469870636E-01  0.12747279162E+00  0.20548770991E-01 0.  0.
         14    1    1    2    0    0 -0.15202409993E-01  0.16881674563E-01  0.12262413336E-01  0.25816099366E-01  0.00000000000E+00 0.  1.
     999901    1    3    3    0    0  0.99499914299E-01 -0.67512404203E-01  0.66207457300E-01  0.89064110902E+00  0.88000000000E+00 0.  1.
        -11    1    4    4    0    0 -0.26987994115E-01  0.27692802995E-01 -0.28189148120E-01  0.47855327361E-01  0.51100000000E-03 0. -1.
         11    1    4    4    0    0 -0.57309510190E-01  0.22937926645E-01 -0.50280722516E-01  0.79617464257E-01  0.51100000000E-03 0.  1.
</event>
<event>
 8    1  0.1128641E+005  0.1043930E+01  0.7957747E-01            NaN
         13   -1    0    0    0    0  0.00000000000E+00  0.00000000000E+00  0.74505805969E-08  0.10566000000E+00  0.10566000000E+00 0.  1.
     999900   -1    0    0    0    0 -0.00000000000E+00 -0.00000000000E+00 -0.74505805969E-08  0.93827000000E+00  0.93827000000E+00 0. -1.
     999902    2    1    2    0    0 -0.54608619266E-02  0.49976535776E-02 -0.22994535617E-01  0.10197732986E+01  0.10194871428E+01 0.  0.
     999903    2    3    3    0    0 -0.76317289967E-01  0.43011129120E-01 -0.97934709993E-01  0.13293527086E+00  0.20156707080E-01 0.  0.
         14    1    1    2    0    0  0.54608619266E-02 -0.49976535776E-02  0.22994535617E-01  0.24156701399E-01  0.00000000000E+00 0.  1.
     999901    1    3    3    0    0  0.70856428040E-01 -0.38013475542E-01  0.74940174376E-01  0.88683802774E+00  0.88000000000E+00 0.  1.
        -11    1    4    4    0    0 -0.93811015368E-02 -0.14181013071E-02 -0.90402120463E-02  0.13114977400E-01  0.51100000000E-03 0.  1.
         11    1    4    4    0    0 -0.66936188430E-01  0.44429230427E-01 -0.88894497946E-01  0.11982029346E+00  0.51100000000E-03 0. -1.
</event>
<event>
 8    1  0.1128641E+005  0.1043930E+01  0.7957747E-01            NaN
         13   -1    0    0    0    0  0.00000000000E+00  0.00000000000E+00  0.74505805969E-08  0.10566000000E+00  0.10566000000E+00 0. -1.
     999900   -1    0    0    0    0 -0.00000000000E+00 -0.00000000000E+00 -0.74505805969E-08  0.93827000000E+00  0.93827000000E+00 0.  1.
     999902    2    1    2    0    0 -0.21231453188E-02  0.70956803248E-02 -0.22267196923E-01  0.10204633325E+01  0.10201934760E+01 0.  0.
     999903    2    3    3    0    0 -0.91900011007E-01 -0.28254100420E-01 -0.89096747888E-01  0.13267074326E+00  0.20478999454E-01 0.  0.
         14    1    1    2    0    0  0.21231453188E-02 -0.70956803248E-02  0.22267196923E-01  0.23466667512E-01  0.00000000000E+00 0. -1.
     999901    1    3    3    0    0  0.89776865688E-01  0.35349780744E-01  0.66829550965E-01  0.88779258923E+00  0.88000000000E+00 0. -1.
        -11    1    4    4    0    0 -0.69250894732E-01 -0.13721588834E-01 -0.71693716167E-01  0.10061917551E+00  0.51100000000E-03 0.  1.
         11    1    4    4    0    0 -0.22649116274E-01 -0.14532511586E-01 -0.17403031721E-01  0.32051567748E-01  0.51100000000E-03 0. -1.
</event>
<event>
 8    1  0.1257072E+005  0.1043930E+01  0.7957747E-01            NaN
         13   -1    0    0    0    0  0.00000000000E+00  0.00000000000E+00  0.74505805969E-08  0.10566000000E+00  0.10566000000E+00 0.  1.
     999900   -1    0    0    0    0 -0.00000000000E+00 -0.00000000000E+00 -0.74505805969E-08  0.93827000000E+00  0.93827000000E+00 0.  1.
     999902    2    1    2    0    0  0.16511193711E-01 -0.15787469527E-01 -0.67314292434E-02  0.10201145460E+01  0.10198365119E+01 0.  0.
     999903    2    3    3    0    0  0.24328873177E-01  0.12993311816E-01  0.12521527867E+00  0.12977787749E+00  0.20067666792E-01 0.  0.
         14    1    1    2    0    0 -0.16511193711E-01  0.15787469527E-01  0.67314292434E-02  0.23815454048E-01  0.00000000000E+00 0.  1.
     999901    1    3    3    0    0 -0.78176794657E-02 -0.28780781343E-01 -0.13194670791E+00  0.89033666847E+00  0.88000000000E+00 0.  1.
        -11    1    4    4    0    0  0.19528825541E-02  0.28557875070E-02  0.59770035858E-01  0.59872260522E-01  0.51100000000E-03 0.  1.
         11    1    4    4    0    0  0.22375990623E-01  0.10137524309E-01  0.65445242812E-01  0.69905616964E-01  0.51100000000E-03 0. -1.
</event>
<event>
 8    1  0.1128641E+005  0.1043930E+01  0.7957747E-01            NaN
         13   -1    0    0    0    0  0.00000000000E+00  0.00000000000E+00  0.74505805969E-08  0.10566000000E+00  0.10566000000E+00 0. -1.
     999900   -1    0    0    0    0 -0.00000000000E+00 -0.00000000000E+00 -0.74505805969E-08  0.93827000000E+00  0.93827000000E+00 0.  1.
     999902    2    1    2    0    0 -0.63782850705E-02  0.12129609252E-01  0.20178431181E-01  0.10195378081E+01  0.10192459777E+01 0.  0.
     999903    2    3    3    0    0  0.26949198196E-01 -0.34189991022E-01 -0.11752731474E+00  0.12700259928E+00  0.20537179548E-01 0.  0.
         14    1    1    2    0    0  0.63782850705E-02 -0.12129609252E-01 -0.20178431181E-01  0.24392191906E-01  0.00000000000E+00 0.  1.
     999901    1    3    3    0    0 -0.33327483266E-01  0.46319600274E-01  0.13770574592E+00  0.89253520881E+00  0.88000000000E+00 0. -1.
        -11    1    4    4    0    0  0.11357498379E-01 -0.25561621225E-01 -0.89639642808E-01  0.93903758886E-01  0.51100000000E-03 0.  1.
         11    1    4    4    0    0  0.15591699817E-01 -0.86283697967E-02 -0.27887671935E-01  0.33098840395E-01  0.51100000000E-03 0. -1.
</event>
<event>
 8    1  0.1128641E+005  0.1043930E+01  0.7957747E-01            NaN
         13   -1    0    0    0    0  0.00000000000E+00  0.00000000000E+00  0.74505805969E-08  0.10566000000E+00  0.10566000000E+00 0. -1.
     999900   -1    0    0    0    0 -0.00000000000E+00 -0.00000000000E+00 -0.74505805969E-08  0.93827000000E+00  0.93827000000E+00 0. -1.
     999902    2    1    2    0    0  0.23495101129E-01  0.36689428776E-02  0.31748564331E-02  0.10199391552E+01  0.10196569618E+01 0.  0.
     999903    2    3    3    0    0  0.17524630123E-01 -0.12687864069E+00 -0.11076681084E-01  0.13017434114E+00  0.20429491013E-01 0.  0.
         14    1    1    2    0    0 -0.23495101129E-01 -0.36689428776E-02 -0.31748564331E-02  0.23990844760E-01  0.00000000000E+00 0.  1.
     999901    1    3    3    0    0  0.59704710066E-02  0.13054758356E+00  0.14251537517E-01  0.88976481411E+00  0.88000000000E+00 0.  1.
        -11    1    4    4    0    0  0.19518791857E-01 -0.77599464363E-01 -0.11565590234E-01  0.80849762544E-01  0.51100000000E-03 0. -1.
         11    1    4    4    0    0 -0.19941617345E-02 -0.49279176322E-01  0.48890915009E-03  0.49324578591E-01  0.51100000000E-03 0.  1.
</event>
<event>
 8    1  0.1128641E+005  0.1043930E+01  0.7957747E-01            NaN
         13   -1    0    0    0    0  0.00000000000E+00  0.00000000000E+00  0.74505805969E-08  0.10566000000E+00  0.10566000000E+00 0.  1.
     999900   -1    0    0    0    0 -0.00000000000E+00 -0.00000000000E+00 -0.74505805969E-08  0.93827000000E+00  0.93827000000E+00 0. -1.
     999902    2    1    2    0    0  0.23678622637E-02 -0.16084626073E-01  0.17089855403E-01  0.10203421827E+01  0.10200694999E+01 0.  0.
     999903    2    3    3    0    0  0.12528525583E-01 -0.37348114790E-01  0.12571158107E+00  0.13335060758E+00  0.20667300183E-01 0.  0.
         14    1    1    2    0    0 -0.23678622637E-02  0.16084626073E-01 -0.17089855403E-01  0.23587817307E-01  0.00000000000E+00 0. -1.
     999901    1    3    3    0    0 -0.10160663320E-01  0.21263488717E-01 -0.10862172566E+00  0.88699157511E+00  0.88000000000E+00 0. -1.
        -11    1    4    4    0    0  0.16887022396E-02 -0.17983509199E-01  0.29360083667E-01  0.34475120773E-01  0.51100000000E-03 0.  1.
         11    1    4    4    0    0  0.10839823344E-01 -0.19364605591E-01  0.96351497399E-01  0.98875486810E-01  0.51100000000E-03 0. -1.
</event>
<event>
 8    1  0.1128641E+005  0.1043930E+01  0.7957747E-01            NaN
         13   -1    0    0    0    0  0.00000000000E+00  0.00000000000E+00  0.74505805969E-08  0.10566000000E+00  0.10566000000E+00 0.  1.
     999900   -1    0    0    0    0 -0.00000000000E+00 -0.00000000000E+00 -0.74505805969E-08  0.93827000000E+00  0.93827000000E+00 0.  1.
     999902    2    1    2    0    0 -0.10553428059E-01  0.19026471453E-01 -0.85077809501E-02  0.10205684119E+01  0.10203009946E+01 0.  0.
     999903    2    3    3    0    0  0.90691669610E-02 -0.10644181355E+00 -0.70185847000E-01  0.12931563040E+00  0.19605348397E-01 0.  0.
         14    1    1    2    0    0  0.10553428059E-01 -0.19026471453E-01  0.85077809501E-02  0.23361588055E-01  0.00000000000E+00 0.  1.
     999901    1    3    3    0    0 -0.19622595020E-01  0.12546828500E+00  0.61678066050E-01  0.89125278154E+00  0.88000000000E+00 0. -1.
        -11    1    4    4    0    0  0.90026344271E-03 -0.82115426787E-01 -0.46407757687E-01  0.94327593445E-01  0.51100000000E-03 0. -1.
         11    1    4    4    0    0  0.81689035183E-02 -0.24326386764E-01 -0.23778089314E-01  0.34988036957E-01  0.51100000000E-03 0.  1.
</event>
<event>
 8    1  0.1128641E+005  0.1043930E+01  0.7957747E-01            NaN
         13   -1    0    0    0    0  0.00000000000E+00  0.00000000000E+00  0.74505805969E-08  0.10566000000E+00  0.10566000000E+00 0.  1.
     999900   -1    0    0    0    0 -0.00000000000E+00 -0.00000000000E+00 -0.74505805969E-08  0.93827000000E+00  0.93827000000E+00 0. -1.
     999902    2    1    2    0    0  0.15131892303E-01  0.15890613813E-01  0.10460967773E-01  0.10196212029E+01  0.10193313886E+01 0.  0.
     999903    2    3    3    0    0 -0.11217650786E+00 -0.15740385120E-01  0.57453861506E-01  0.12865752183E+00  0.20505684120E-01 0.  0.
         14    1    1    2    0    0 -0.15131892303E-01 -0.15890613813E-01 -0.10460967773E-01  0.24308797148E-01  0.00000000000E+00 0. -1.
     999901    1    3    3    0    0  0.12730840016E+00  0.31630998932E-01 -0.46992893733E-01  0.89096368103E+00  0.88000000000E+00 0. -1.
        -11    1    4    4    0    0 -0.52056137982E-01 -0.13115159679E-01  0.36568235279E-01  0.64956492112E-01  0.51100000000E-03 0. -1.
         11    1    4    4    0    0 -0.60120369878E-01 -0.26252254410E-02  0.20885626227E-01  0.63701029715E-01  0.51100000000E-03 0.  1.
</event>
<event>
 8    1  0.1128641E+005  0.1043930E+01  0.7957747E-01            NaN
         13   -1    0    0    0    0  0.00000000000E+00  0.00000000000E+00  0.74505805969E-08  0.10566000000E+00  0.10566000000E+00 0.  1.
     999900   -1    0    0    0    0 -0.00000000000E+00 -0.00000000000E+00 -0.74505805969E-08  0.93827000000E+00  0.93827000000E+00 0. -1.
     999902    2    1    2    0    0 -0.11265071027E-01 -0.56344013441E-02  0.20203964822E-01  0.10201214197E+01  0.10198435480E+01 0.  0.
     999903    2    3    3    0    0 -0.12156316167E+00  0.37472406200E-01 -0.24149383676E-01  0.13108200254E+00  0.20433187622E-01 0.  0.
         14    1    1    2    0    0  0.11265071027E-01  0.56344013441E-02 -0.20203964822E-01  0.23808580349E-01  0.00000000000E+00 0.  1.
     999901    1    3    3    0    0  0.11029809064E+00 -0.43106807544E-01  0.44353348497E-01  0.88903941711E+00  0.88000000000E+00 0.  1.
        -11    1    4    4    0    0 -0.39899671561E-01  0.20906806411E-01 -0.13793675794E-01  0.47112683620E-01  0.51100000000E-03 0.  1.
         11    1    4    4    0    0 -0.81663490108E-01  0.16565599789E-01 -0.10355707881E-01  0.83969318919E-01  0.51100000000E-03 0. -1.
</event>
<event>
 8    1  0.1128641E+005  0.1043930E+01  0.7957747E-01            NaN
         13   -1    0    0    0    0  0.00000000000E+00  0.00000000000E+00  0.74505805969E-08  0.10566000000E+00  0.10566000000E+00 0. -1.
     999900   -1    0    0    0    0 -0.00000000000E+00 -0.00000000000E+00 -0.74505805969E-08  0.93827000000E+00  0.93827000000E+00 0. -1.
     999902    2    1    2    0    0 -0.16866553603E-01 -0.15263278571E-01  0.64955510131E-02  0.10202732782E+01  0.10199989812E+01 0.  0.
     999903    2    3    3    0    0  0.68527951363E-02  0.12428119136E+00  0.26337175890E-01  0.12874147469E+00  0.19696323109E-01 0.  0.
         14    1    1    2    0    0  0.16866553603E-01  0.15263278571E-01 -0.64955510131E-02  0.23656721796E-01  0.00000000000E+00 0. -1.
     999901    1    3    3    0    0 -0.23719348740E-01 -0.13954446994E+00 -0.19841624877E-01  0.89153180351E+00  0.88000000000E+00 0. -1.
        -11    1    4    4    0    0 -0.44122547550E-02  0.80142488657E-01  0.20247141622E-01  0.82779794304E-01  0.51100000000E-03 0. -1.
         11    1    4    4    0    0  0.11265049891E-01  0.44138702708E-01  0.60900342683E-02  0.45961680389E-01  0.51100000000E-03 0.  1.
</event>
<event>
 8    1  0.1128641E+005  0.1043930E+01  0.7957747E-01            NaN
         13   -1    0    0    0    0  0.00000000000E+00  0.00000000000E+00  0.74505805969E-08  0.10566000000E+00  0.10566000000E+00 0.  1.
     999900   -1    0    0    0    0 -0.00000000000E+00 -0.00000000000E+00 -0.74505805969E-08  0.93827000000E+00  0.93827000000E+00 0.  1.
     999902    2    1    2    0    0  0.80089812680E-02  0.15946357025E-01  0.15672297700E-01  0.10201802421E+01  0.10199037579E+01 0.  0.
     999903    2    3    3    0    0  0.61715993358E-02  0.96488553846E-01  0.89949559593E-01  0.13338402368E+00  0.18768186905E-01 0.  0.
         14    1    1    2    0    0 -0.80089812680E-02 -0.15946357025E-01 -0.15672297700E-01  0.23749757863E-01  0.00000000000E+00 0. -1.
     999901    1    3    3    0    0  0.18373819322E-02 -0.80542196821E-01 -0.74277261892E-01  0.88679621846E+00  0.88000000000E+00 0. -1.
        -11    1    4    4    0    0 -0.26324153951E-02  0.53359128389E-01  0.39591627181E-01  0.66497249996E-01  0.51100000000E-03 0.  1.
         11    1    4    4    0    0  0.88040147309E-02  0.43129425457E-01  0.50357932411E-01  0.66886773681E-01  0.51100000000E-03 0. -1.
</event>
<event>
 8    1  0.1128641E+005  0.1043930E+01  0.7957747E-01            NaN
         13   -1    0    0    0    0  0.00000000000E+00  0.00000000000E+00  0.74505805969E-08  0.10566000000E+00  0.10566000000E+00 0.  1.
     999900   -1    0    0    0    0 -0.00000000000E+00 -0.00000000000E+00 -0.74505805969E-08  0.93827000000E+00  0.93827000000E+00 0. -1.
     999902    2    1    2    0    0 -0.52457503910E-02 -0.14410861361E-02  0.22913248493E-01  0.10203798072E+01  0.10201080037E+01 0.  0.
     999903    2    3    3    0    0  0.81218906130E-01 -0.85014447667E-01  0.55900541716E-01  0.13158916527E+00  0.19153872412E-01 0.  0.
         14    1    1    2    0    0  0.52457503910E-02  0.14410861361E-02 -0.22913248493E-01  0.23550192843E-01  0.00000000000E+00 0. -1.
     999901    1    3    3    0    0 -0.86464656521E-01  0.83573361531E-01 -0.32987293223E-01  0.88879064188E+00  0.88000000000E+00 0. -1.
        -11    1    4    4    0    0  0.14124609020E-01 -0.13117424789E-01  0.17421867353E-01  0.25987573880E-01  0.51100000000E-03 0.  1.
         11    1    4    4    0    0  0.67094297109E-01 -0.71897022878E-01  0.38478674363E-01  0.10560159139E+00  0.51100000000E-03 0. -1.
</event>
<event>
 8    1  0.1128641E+005  0.1043930E+01  0.7957747E-01            NaN
         13   -1    0    0    0    0  0.00000000000E+00  0.00000000000E+00  0.74505805969E-08  0.10566000000E+00  0.10566000000E+00 0.  1.
     999900   -1    0    0    0    0 -0.00000000000E+00 -0.00000000000E+00 -0.74505805969E-08  0.93827000000E+00  0.93827000000E+00 0. -1.
     999902    2    1    2    0    0 -0.11011710765E-01 -0.17456709521E-01  0.12740080899E-01  0.10196750182E+01  0.10193865011E+01 0.  0.
     999903    2    3    3    0    0  0.95486873411E-01  0.77409674032E-01 -0.25447654636E-01  0.12737468629E+00  0.21603864334E-01 0.  0.
         14    1    1    2    0    0  0.11011710765E-01  0.17456709521E-01 -0.12740080899E-01  0.24254981810E-01  0.00000000000E+00 0.  1.
     999901    1    3    3    0    0 -0.10649858418E+00 -0.94866383553E-01  0.38187735535E-01  0.89230033190E+00  0.88000000000E+00 0. -1.
        -11    1    4    4    0    0  0.80578552274E-01  0.64061572276E-01 -0.12893313789E-01  0.10374626157E+00  0.51100000000E-03 0. -1.
         11    1    4    4    0    0  0.14908321136E-01  0.13348101756E-01 -0.12554340846E-01  0.23628424719E-01  0.51100000000E-03 0.  1.
</event>
<event>
 8    1  0.1128641E+005  0.1043930E+01  0.7957747E-01            NaN
         13   -1    0    0    0    0  0.00000000000E+00  0.00000000000E+00  0.74505805969E-08  0.10566000000E+00  0.10566000000E+00 0.  1.
     999900   -1    0    0    0    0 -0.00000000000E+00 -0.00000000000E+00 -0.74505805969E-08  0.93827000000E+00  0.93827000000E+00 0. -1.
     999902    2    1    2    0    0 -0.65286165382E-02  0.58960947552E-03  0.25309470828E-01  0.10177854062E+01  0.10174495532E+01 0.  0.
     999903    2    3    3    0    0  0.45401570987E-01  0.87730400078E-01 -0.75061405713E-01  0.12628971093E+00  0.23599803245E-01 0.  0.
         14    1    1    2    0    0  0.65286165382E-02 -0.58960947552E-03 -0.25309470828E-01  0.26144593836E-01  0.00000000000E+00 0. -1.
     999901    1    3    3    0    0 -0.51930187525E-01 -0.87140790603E-01  0.10037087654E+00  0.89149569523E+00  0.88000000000E+00 0. -1.
        -11    1    4    4    0    0  0.10733126018E-01  0.39208943496E-01 -0.40387819930E-01  0.57306006351E-01  0.51100000000E-03 0.  1.
         11    1    4    4    0    0  0.34668444969E-01  0.48521456583E-01 -0.34673585783E-01  0.68983704580E-01  0.51100000000E-03 0. -1.
</event>
<event>
 8    1  0.1128641E+005  0.1043930E+01  0.7957747E-01            NaN
         13   -1    0    0    0    0  0.00000000000E+00  0.00000000000E+00  0.74505805969E-08  0.10566000000E+00  0.10566000000E+00 0. -1.
     999900   -1    0    0    0    0 -0.00000000000E+00 -0.00000000000E+00 -0.74505805969E-08  0.93827000000E+00  0.93827000000E+00 0. -1.
     999902    2    1    2    0    0 -0.83728679451E-02  0.10343860803E-01 -0.18853698560E-01  0.10208526881E+01  0.10205918129E+01 0.  0.
     999903    2    3    3    0    0 -0.79450167879E-01 -0.10143710326E+00  0.72243939664E-02  0.13055665118E+00  0.19774534252E-01 0.  0.
         14    1    1    2    0    0  0.83728679451E-02 -0.10343860803E-01  0.18853698560E-01  0.23077311874E-01  0.00000000000E+00 0. -1.
     999901    1    3    3    0    0  0.71077299934E-01  0.11178096406E+00 -0.26078092526E-01  0.89029603695E+00  0.88000000000E+00 0.  1.
        -11    1    4    4    0    0 -0.13534249993E-01 -0.12530040175E-01  0.73968702172E-02  0.19878446611E-01  0.51100000000E-03 0.  1.
         11    1    4    4    0    0 -0.65915917886E-01 -0.88907063086E-01 -0.17247625080E-03  0.11067820457E+00  0.51100000000E-03 0. -1.
</event>
<event>
 8    1  0.1128641E+005  0.1043930E+01  0.7957747E-01            NaN
         13   -1    0    0    0    0  0.00000000000E+00  0.00000000000E+00  0.74505805969E-08  0.10566000000E+00  0.10566000000E+00 0.  1.
     999900   -1    0    0    0    0 -0.00000000000E+00 -0.00000000000E+00 -0.74505805969E-08  0.93827000000E+00  0.93827000000E+00 0. -1.
     999902    2    1    2    0    0  0.17430000525E-01 -0.89860222344E-02 -0.13648651182E-01  0.10200377587E+01  0.10197579076E+01 0.  0.
     999903    2    3    3    0    0  0.91017743090E-01 -0.81504526353E-01  0.45762500875E-01  0.13200410267E+00  0.20091273312E-01 0.  0.
         14    1    1    2    0    0 -0.17430000525E-01  0.89860222344E-02  0.13648651182E-01  0.23892241272E-01  0.00000000000E+00 0. -1.
     999901    1    3    3    0    0 -0.73587742564E-01  0.72518504118E-01 -0.59411152058E-01  0.88803365605E+00  0.88000000000E+00 0. -1.
        -11    1    4    4    0    0  0.45720098364E-01 -0.48268237264E-01  0.15837433378E-01  0.68346437654E-01  0.51100000000E-03 0.  1.
         11    1    4    4    0    0  0.45297644725E-01 -0.33236289089E-01  0.29925067498E-01  0.63657665020E-01  0.51100000000E-03 0. -1.
</event>
<event>
 8    1  0.1128641E+005  0.1043930E+01  0.7957747E-01            NaN
         13   -1    0    0    0    0  0.00000000000E+00  0.00000000000E+00  0.74505805969E-08  0.10566000000E+00  0.10566000000E+00 0.  1.
     999900   -1    0    0    0    0 -0.00000000000E+00 -0.00000000000E+00 -0.74505805969E-08  0.93827000000E+00  0.93827000000E+00 0. -1.
     999902    2    1    2    0    0  0.16598143726E-01 -0.13645905807E-01  0.87718050479E-02  0.10207210861E+01  0.10204571926E+01 0.  0.
     999903    2    3    3    0    0 -0.10016020264E+00  0.43455304105E-01  0.66266303720E-01  0.12931844027E+00  0.20288083668E-01 0.  0.
         14    1    1    2    0    0 -0.16598143726E-01  0.13645905807E-01 -0.87718050479E-02  0.23208913896E-01  0.00000000000E+00 0. -1.
     999901    1    3    3    0    0  0.11675834636E+00 -0.57101209912E-01 -0.57494498672E-01  0.89140264583E+00  0.88000000000E+00 0. -1.
        -11    1    4    4    0    0 -0.73373413921E-01  0.21641515284E-01  0.45834008674E-01  0.89179765229E-01  0.51100000000E-03 0.  1.
         11    1    4    4    0    0 -0.26786788715E-01  0.21813788822E-01  0.20432295045E-01  0.40138675043E-01  0.51100000000E-03 0. -1.
</event>
<event>
 8    1  0.1128641E+005  0.1043930E+01  0.7957747E-01            NaN
         13   -1    0    0    0    0  0.00000000000E+00  0.00000000000E+00  0.74505805969E-08  0.10566000000E+00  0.10566000000E+00 0.  1.
     999900   -1    0    0    0    0 -0.00000000000E+00 -0.00000000000E+00 -0.74505805969E-08  0.93827000000E+00  0.93827000000E+00 0. -1.
     999902    2    1    2    0    0 -0.23049417219E-01  0.30547768705E-02  0.25907015911E-02  0.10205351495E+01  0.10202669613E+01 0.  0.
     999903    2    3    3    0    0 -0.79954543574E-01  0.10076309091E+00 -0.26380086143E-01  0.13282775705E+00  0.20034334800E-01 0.  0.
         14    1    1    2    0    0  0.23049417219E-01 -0.30547768705E-02 -0.25907015911E-02  0.23394850514E-01  0.00000000000E+00 0.  1.
     999901    1    3    3    0    0  0.56905126355E-01 -0.97708314040E-01  0.28970787734E-01  0.88770739243E+00  0.88000000000E+00 0.  1.
        -11    1    4    4    0    0 -0.56453634254E-01  0.58106793185E-01 -0.21861597081E-01  0.83914258518E-01  0.51100000000E-03 0.  1.
         11    1    4    4    0    0 -0.23500909320E-01  0.42656297725E-01 -0.45184890617E-02  0.48913498535E-01  0.51100000000E-03 0. -1.
</event>
<event>
 8    1  0.1128641E+005  0.1043930E+01  0.7957747E-01            NaN
         13   -1    0    0    0    0  0.00000000000E+00  0.00000000000E+00  0.74505805969E-08  0.10566000000E+00  0.10566000000E+00 0. -1.
     999900   -1    0    0    0    0 -0.00000000000E+00 -0.00000000000E+00 -0.74505805969E-08  0.93827000000E+00  0.93827000000E+00 0. -1.
     999902    2    1    2    0    0  0.16316252786E-01  0.15862334983E-01 -0.51733401428E-02  0.10205933930E+01  0.10203265540E+01 0.  0.
     999903    2    3    3    0    0  0.10758684497E+00 -0.60609640876E-01  0.40470753211E-01  0.13140181225E+00  0.19496066803E-01 0.  0.
         14    1    1    2    0    0 -0.16316252786E-01 -0.15862334983E-01  0.51733401428E-02  0.23336606958E-01  0.00000000000E+00 0. -1.
     999901    1    3    3    0    0 -0.91270592181E-01  0.76471975858E-01 -0.45644093353E-01  0.88919158079E+00  0.88000000000E+00 0. -1.
        -11    1    4    4    0    0  0.37291102245E-01 -0.31528429685E-01  0.18433019795E-01  0.52198711908E-01  0.51100000000E-03 0.  1.
         11    1    4    4    0    0  0.70295742722E-01 -0.29081211191E-01  0.22037733415E-01  0.79203100345E-01  0.51100000000E-03 0. -1.
</event>
<event>
 8    1  0.1213396E+005  0.1043930E+01  0.7957747E-01            NaN
         13   -1    0    0    0    0  0.00000000000E+00  0.00000000000E+00  0.74505805969E-08  0.10566000000E+00  0.10566000000E+00 0.  1.
     999900   -1    0    0    0    0 -0.00000000000E+00 -0.00000000000E+00 -0.74505805969E-08  0.93827000000E+00  0.93827000000E+00 0.  1.
     999902    2    1    2    0    0  0.21462081009E-01 -0.69946262181E-02  0.75435137699E-02  0.10201297833E+01  0.10198521091E+01 0.  0.
     999903    2    3    3    0    0  0.93405613761E-01  0.37954054968E-01 -0.82103242423E-01  0.13151693350E+00  0.19764675840E-01 0.  0.
         14    1    1    2    0    0 -0.21462081009E-01  0.69946262181E-02 -0.75435137699E-02  0.23800216746E-01  0.00000000000E+00 0. -1.
     999901    1    3    3    0    0 -0.71943532752E-01 -0.44948681186E-01  0.89646756193E-01  0.88861284975E+00  0.88000000000E+00 0.  1.
        -11    1    4    4    0    0  0.55008595369E-01  0.13429364516E-01 -0.38686074980E-01  0.68579639210E-01  0.51100000000E-03 0.  1.
         11    1    4    4    0    0  0.38397018392E-01  0.24524690452E-01 -0.43417167444E-01  0.62937294294E-01  0.51100000000E-03 0. -1.
</event>
<event>
 8    1  0.1128641E+005  0.1043930E+01  0.7957747E-01            NaN
         13   -1    0    0    0    0  0.00000000000E+00  0.00000000000E+00  0.74505805969E-08  0.10566000000E+00  0.10566000000E+00 0.  1.
     999900   -1    0    0    0    0 -0.00000000000E+00 -0.00000000000E+00 -0.74505805969E-08  0.93827000000E+00  0.93827000000E+00 0.  1.
     999902    2    1    2    0    0 -0.14551725717E-01 -0.16650589959E-01 -0.83148807129E-02  0.10203051802E+01  0.10200316312E+01 0.  0.
     999903    2    3    3    0    0  0.89442536968E-01 -0.92582894567E-01 -0.13088951502E-01  0.13092150977E+00  0.19938938853E-01 0.  0.
         14    1    1    2    0    0  0.14551725717E-01  0.16650589959E-01  0.83148807129E-02  0.23624819758E-01  0.00000000000E+00 0.  1.
     999901    1    3    3    0    0 -0.10399426269E+00  0.75932304608E-01  0.47740707886E-02  0.88938367047E+00  0.88000000000E+00 0.  1.
        -11    1    4    4    0    0  0.64486053735E-01 -0.77456626287E-01 -0.13782503787E-01  0.10172609603E+00  0.51100000000E-03 0. -1.
         11    1    4    4    0    0  0.24956483234E-01 -0.15126268280E-01  0.69355228532E-03  0.29195413737E-01  0.51100000000E-03 0.  1.
</event>
<event>
 8    1  0.1128641E+005  0.1043930E+01  0.7957747E-01            NaN
         13   -1    0    0    0    0  0.00000000000E+00  0.00000000000E+00  0.74505805969E-08  0.10566000000E+00  0.10566000000E+00 0. -1.
     999900   -1    0    0    0    0 -0.00000000000E+00 -0.00000000000E+00 -0.74505805969E-08  0.93827000000E+00  0.93827000000E+00 0. -1.
     999902    2    1    2    0    0  0.14239751031E-01  0.36068833146E-02 -0.17773210957E-01  0.10208720915E+01  0.10206116598E+01 0.  0.
     999903    2    3    3    0    0 -0.24128868395E-01  0.99002937709E-01 -0.81882957730E-01  0.13256886749E+00  0.22043182547E-01 0.  0.
         14    1    1    2    0    0 -0.14239751031E-01 -0.36068833146E-02  0.17773210957E-01  0.23057908500E-01  0.00000000000E+00 0. -1.
     999901    1    3    3    0    0  0.38368619427E-01 -0.95396054394E-01  0.64109746773E-01  0.88830322401E+00  0.88000000000E+00 0. -1.
        -11    1    4    4    0    0  0.18667622612E-03  0.10002192523E-01 -0.17150783360E-01  0.19861752041E-01  0.51100000000E-03 0.  1.
         11    1    4    4    0    0 -0.24315544622E-01  0.89000745186E-01 -0.64732174370E-01  0.11270711545E+00  0.51100000000E-03 0. -1.
</event>
<event>
 8    1  0.1128641E+005  0.1043930E+01  0.7957747E-01            NaN
         13   -1    0    0    0    0  0.00000000000E+00  0.00000000000E+00  0.74505805969E-08  0.10566000000E+00  0.10566000000E+00 0.  1.
     999900   -1    0    0    0    0 -0.00000000000E+00 -0.00000000000E+00 -0.74505805969E-08  0.93827000000E+00  0.93827000000E+00 0.  1.
     999902    2    1    2    0    0  0.13224788191E-02 -0.17102619527E-01 -0.14259162822E-01  0.10216236720E+01  0.10213801226E+01 0.  0.
     999903    2    3    3    0    0 -0.60663357812E-01  0.11200901355E+00 -0.88301312639E-02  0.13002873475E+00  0.24564986155E-01 0.  0.
         14    1    1    2    0    0 -0.13224788191E-02  0.17102619527E-01  0.14259162822E-01  0.22306328010E-01  0.00000000000E+00 0. -1.
     999901    1    3    3    0    0  0.61985836631E-01 -0.12911163307E+00 -0.54290315579E-02  0.89159493725E+00  0.88000000000E+00 0.  1.
        -11    1    4    4    0    0 -0.69073832049E-02  0.30532127043E-01  0.40504057378E-02  0.31568807899E-01  0.51100000000E-03 0. -1.
         11    1    4    4    0    0 -0.53755974607E-01  0.81476886503E-01 -0.12880537002E-01  0.98459926846E-01  0.51100000000E-03 0.  1.
</event>
<event>
 8    1  0.1128641E+005  0.1043930E+01  0.7957747E-01            NaN
         13   -1    0    0    0    0  0.00000000000E+00  0.00000000000E+00  0.74505805969E-08  0.10566000000E+00  0.10566000000E+00 0.  1.
     999900   -1    0    0    0    0 -0.00000000000E+00 -0.00000000000E+00 -0.74505805969E-08  0.93827000000E+00  0.93827000000E+00 0.  1.
     999902    2    1    2    0    0  0.10004940524E-01  0.26896324488E-01  0.23879050758E-02  0.10151339378E+01  0.10147254301E+01 0.  0.
     999903    2    3    3    0    0 -0.38444220876E-01  0.80064837738E-01 -0.89158995623E-01  0.12746561741E+00  0.20244030274E-01 0.  0.
         14    1    1    2    0    0 -0.10004940524E-01 -0.26896324488E-01 -0.23879050758E-02  0.28796062170E-01  0.00000000000E+00 0. -1.
     999901    1    3    3    0    0  0.48449161400E-01 -0.53168513250E-01  0.91546900699E-01  0.88766832042E+00  0.88000000000E+00 0. -1.
        -11    1    4    4    0    0 -0.23534064067E-01  0.29776884326E-01 -0.45225318212E-01  0.59043251435E-01  0.51100000000E-03 0.  1.
         11    1    4    4    0    0 -0.14910156810E-01  0.50287953412E-01 -0.43933677411E-01  0.68422365980E-01  0.51100000000E-03 0. -1.
</event>
<event>
 8    1  0.1128641E+005  0.1043930E+01  0.7957747E-01            NaN
         13   -1    0    0    0    0  0.00000000000E+00  0.00000000000E+00  0.74505805969E-08  0.10566000000E+00  0.10566000000E+00 0. -1.
     999900   -1    0    0    0    0 -0.00000000000E+00 -0.00000000000E+00 -0.74505805969E-08  0.93827000000E+00  0.93827000000E+00 0.  1.
     999902    2    1    2    0    0 -0.18837565867E-01 -0.10839873432E-01 -0.11525821548E-01  0.10193291605E+01  0.10190322547E+01 0.  0.
     999903    2    3    3    0    0 -0.67568119763E-01  0.10416080671E+00  0.30579599238E-01  0.12951306161E+00  0.20581466761E-01 0.  0.
         14    1    1    2    0    0  0.18837565867E-01  0.10839873432E-01  0.11525821548E-01  0.24600839542E-01  0.00000000000E+00 0. -1.
     999901    1    3    3    0    0  0.48730553896E-01 -0.11500068014E+00 -0.42105420786E-01  0.88981609885E+00  0.88000000000E+00 0.  1.
        -11    1    4    4    0    0 -0.28789211257E-01  0.57548635416E-01  0.23313374417E-01  0.68442959248E-01  0.51100000000E-03 0. -1.
         11    1    4    4    0    0 -0.38778908506E-01  0.46612171296E-01  0.72662248205E-02  0.61070102358E-01  0.51100000000E-03 0.  1.
</event>
<event>
 8    1  0.1128641E+005  0.1043930E+01  0.7957747E-01            NaN
         13   -1    0    0    0    0  0.00000000000E+00  0.00000000000E+00  0.74505805969E-08  0.10566000000E+00  0.10566000000E+00 0. -1.
     999900   -1    0    0    0    0 -0.00000000000E+00 -0.00000000000E+00 -0.74505805969E-08  0.93827000000E+00  0.93827000000E+00 0. -1.
     999902    2    1    2    0    0  0.15198237371E-02  0.66087963047E-02 -0.23297145708E-01  0.10196659721E+01  0.10193772371E+01 0.  0.
     999903    2    3    3    0    0 -0.96850276607E-01  0.19078180488E-01  0.79317214214E-01  0.12817179428E+00  0.19820073897E-01 0.  0.
         14    1    1    2    0    0 -0.15198237371E-02 -0.66087963047E-02  0.23297145708E-01  0.24264027921E-01  0.00000000000E+00 0. -1.
     999901    1    3    3    0    0  0.98370100344E-01 -0.12469384184E-01 -0.10261435992E+00  0.89149417780E+00  0.88000000000E+00 0. -1.
        -11    1    4    4    0    0 -0.27047890315E-02  0.82729193910E-03  0.84594712956E-02  0.89344317815E-02  0.51100000000E-03 0. -1.
         11    1    4    4    0    0 -0.94145487576E-01  0.18250888549E-01  0.70857742918E-01  0.11923736250E+00  0.51100000000E-03 0.  1.
</event>
<event>
 8    1  0.1128641E+005  0.1043930E+01  0.7957747E-01            NaN
         13   -1    0    0    0    0  0.00000000000E+00  0.00000000000E+00  0.74505805969E-08  0.10566000000E+00  0.10566000000E+00 0. -1.
     999900   -1    0    0    0    0 -0.00000000000E+00 -0.00000000000E+00 -0.74505805969E-08  0.93827000000E+00  0.93827000000E+00 0. -1.
     999902    2    1    2    0    0 -0.13113486925E-01  0.12094502014E-01  0.16246642278E-01  0.10198013054E+01  0.10195158207E+01 0.  0.
     999903    2    3    3    0    0 -0.31162559304E-01  0.85840387981E-02  0.12710837162E+00  0.13265508554E+00  0.19900823044E-01 0.  0.
         14    1    1    2    0    0  0.13113486925E-01 -0.12094502014E-01 -0.16246642278E-01  0.24128694611E-01  0.00000000000E+00 0.  1.
     999901    1    3    3    0    0  0.18049072378E-01  0.35104632164E-02 -0.11086172934E+00  0.88714621985E+00  0.88000000000E+00 0. -1.
        -11    1    4    4    0    0 -0.11995779452E-01  0.10965918309E-01  0.35725502487E-01  0.39252041195E-01  0.51100000000E-03 0.  1.
         11    1    4    4    0    0 -0.19166779851E-01 -0.23818795113E-02  0.91382869136E-01  0.93403044342E-01  0.51100000000E-03 0. -1.
</event>
<event>
 8    1  0.1128641E+005  0.1043930E+01  0.7957747E-01            NaN
         13   -1    0    0    0    0  0.00000000000E+00  0.00000000000E+00  0.74505805969E-08  0.10566000000E+00  0.10566000000E+00 0. -1.
     999900   -1    0    0    0    0 -0.00000000000E+00 -0.00000000000E+00 -0.74505805969E-08  0.93827000000E+00  0.93827000000E+00 0.  1.
     999902    2    1    2    0    0 -0.17303916404E-01 -0.13972116491E-01 -0.67546529838E-02  0.10206862718E+01  0.10204215769E+01 0.  0.
     999903    2    3    3    0    0  0.12398041272E+00 -0.29432304433E-01  0.57721032140E-02  0.12919471344E+00  0.20507401687E-01 0.  0.
         14    1    1    2    0    0  0.17303916404E-01  0.13972116491E-01  0.67546529838E-02  0.23243728166E-01  0.00000000000E+00 0. -1.
     999901    1    3    3    0    0 -0.14128432912E+00  0.15460187942E-01 -0.12526756198E-01  0.89149155839E+00  0.88000000000E+00 0. -1.
        -11    1    4    4    0    0  0.75737658366E-01 -0.14489096466E-01  0.12910379068E-01  0.78186097357E-01  0.51100000000E-03 0. -1.
         11    1    4    4    0    0  0.48242754350E-01 -0.14943207967E-01 -0.71382758541E-02  0.51008616083E-01  0.51100000000E-03 0.  1.
</event>
<event>
 8    1  0.1128641E+005  0.1043930E+01  0.7957747E-01            NaN
         13   -1    0    0    0    0  0.00000000000E+00  0.00000000000E+00  0.74505805969E-08  0.10566000000E+00  0.10566000000E+00 0. -1.
     999900   -1    0    0    0    0 -0.00000000000E+00 -0.00000000000E+00 -0.74505805969E-08  0.93827000000E+00  0.93827000000E+00 0.  1.
     999902    2    1    2    0    0  0.17614037984E-01  0.69227497001E-02 -0.12317883532E-01  0.10213488341E+01  0.10210991783E+01 0.  0.
     999903    2    3    3    0    0  0.33395177426E-01  0.12649169040E+00  0.11390323780E-01  0.13280628870E+00  0.19808715926E-01 0.  0.
         14    1    1    2    0    0 -0.17614037984E-01 -0.69227497001E-02  0.12317883532E-01  0.22581165874E-01  0.00000000000E+00 0. -1.
     999901    1    3    3    0    0 -0.15781139442E-01 -0.11956894070E+00 -0.23708207312E-01  0.88854254543E+00  0.88000000000E+00 0.  1.
        -11    1    4    4    0    0  0.12409717678E-01  0.49852419310E-01  0.14173195009E-01  0.53295453668E-01  0.51100000000E-03 0.  1.
         11    1    4    4    0    0  0.20985459748E-01  0.76639271089E-01 -0.27828712292E-02  0.79510835030E-01  0.51100000000E-03 0. -1.
</event>
<event>
 8    1  0.1128641E+005  0.1043930E+01  0.7957747E-01            NaN
         13   -1    0    0    0    0  0.00000000000E+00  0.00000000000E+00  0.74505805969E-08  0.10566000000E+00  0.10566000000E+00 0.  1.
     999900   -1    0    0    0    0 -0.00000000000E+00 -0.00000000000E+00 -0.74505805969E-08  0.93827000000E+00  0.93827000000E+00 0. -1.
     999902    2    1    2    0    0  0.15448382618E-02  0.22945759893E-01  0.54619419094E-02  0.10202925883E+01  0.10200187442E+01 0.  0.
     999903    2    3    3    0    0  0.13941649697E-01 -0.43190334937E-01 -0.11899473220E+00  0.12899178178E+00  0.20478253079E-01 0.  0.
         14    1    1    2    0    0 -0.15448382618E-02 -0.22945759893E-01 -0.54619419094E-02  0.23637411697E-01  0.00000000000E+00 0. -1.
     999901    1    3    3    0    0 -0.12396811435E-01  0.66136094830E-01  0.12445667410E+00  0.89130080652E+00  0.88000000000E+00 0.  1.
        -11    1    4    4    0    0  0.55479925731E-02 -0.40216566205E-01 -0.91967334708E-01  0.10053061321E+00  0.51100000000E-03 0.  1.
         11    1    4    4    0    0  0.83936571238E-02 -0.29737687315E-02 -0.27027397487E-01  0.28461168569E-01  0.51100000000E-03 0. -1.
</event>
<event>
 8    1  0.1128641E+005  0.1043930E+01  0.7957747E-01            NaN
         13   -1    0    0    0    0  0.00000000000E+00  0.00000000000E+00  0.74505805969E-08  0.10566000000E+00  0.10566000000E+00 0.  1.
     999900   -1    0    0    0    0 -0.00000000000E+00 -0.00000000000E+00 -0.74505805969E-08  0.93827000000E+00  0.93827000000E+00 0.  1.
     999902    2    1    2    0    0  0.84521627960E-02  0.82146775854E-02  0.20537867351E-01  0.10202503890E+01  0.10199755547E+01 0.  0.
     999903    2    3    3    0    0 -0.89164453350E-01 -0.10368112626E-01 -0.88890637042E-01  0.12792257845E+00  0.20120716239E-01 0.  0.
         14    1    1    2    0    0 -0.84521627960E-02 -0.82146775854E-02 -0.20537867351E-01  0.23679611042E-01  0.00000000000E+00 0. -1.
     999901    1    3    3    0    0  0.97616616146E-01  0.18582790212E-01  0.10942850439E+00  0.89232781051E+00  0.88000000000E+00 0. -1.
        -11    1    4    4    0    0 -0.36996010192E-01 -0.80634421722E-03 -0.49744195681E-01  0.62000815205E-01  0.51100000000E-03 0. -1.
         11    1    4    4    0    0 -0.52168443158E-01 -0.95617684090E-02 -0.39146441362E-01  0.65921763242E-01  0.51100000000E-03 0.  1.
</event>
<event>
 8    1  0.1128641E+005  0.1043930E+01  0.7957747E-01            NaN
         13   -1    0    0    0    0  0.00000000000E+00  0.00000000000E+00  0.74505805969E-08  0.10566000000E+00  0.10566000000E+00 0. -1.
     999900   -1    0    0    0    0 -0.00000000000E+00 -0.00000000000E+00 -0.74505805969E-08  0.93827000000E+00  0.93827000000E+00 0. -1.
     999902    2    1    2    0    0  0.41498437797E-02 -0.21194380510E-01 -0.87253201589E-02  0.10206372075E+01  0.10203713810E+01 0.  0.
     999903    2    3    3    0    0 -0.10662498209E+00  0.57857266080E-01 -0.41048414456E-01  0.12959006665E+00  0.19805630508E-01 0.  0.
         14    1    1    2    0    0 -0.41498437797E-02  0.21194380510E-01  0.87253201589E-02  0.23292792458E-01  0.00000000000E+00 0.  1.
     999901    1    3    3    0    0  0.11077482587E+00 -0.79051646590E-01  0.32323094297E-01  0.89104714090E+00  0.88000000000E+00 0.  1.
        -11    1    4    4    0    0 -0.59539685794E-01  0.42855511945E-01 -0.21527247378E-01  0.76454251610E-01  0.51100000000E-03 0. -1.
         11    1    4    4    0    0 -0.47085296296E-01  0.15001754135E-01 -0.19521167078E-01  0.53135815035E-01  0.51100000000E-03 0.  1.
</event>
<event>
 8    1  0.1128641E+005  0.1043930E+01  0.7957747E-01            NaN
         13   -1    0    0    0    0  0.00000000000E+00  0.00000000000E+00  0.74505805969E-08  0.10566000000E+00  0.10566000000E+00 0.  1.
     999900   -1    0    0    0    0 -0.00000000000E+00 -0.00000000000E+00 -0.74505805969E-08  0.93827000000E+00  0.93827000000E+00 0. -1.
     999902    2    1    2    0    0  0.15599161496E-01 -0.12953485581E-01  0.12368663770E-01  0.10201789901E+01  0.10199024764E+01 0.  0.
     999903    2    3    3    0    0  0.12577181634E+00 -0.23626471750E-01  0.30122991646E-01  0.13306730453E+00  0.20560957079E-01 0.  0.
         14    1    1    2    0    0 -0.15599161496E-01  0.12953485581E-01 -0.12368663770E-01  0.23751009905E-01  0.00000000000E+00 0. -1.
     999901    1    3    3    0    0 -0.11017265484E+00  0.10672986169E-01 -0.17754327876E-01  0.88711168557E+00  0.88000000000E+00 0. -1.
        -11    1    4    4    0    0  0.16264219186E-01 -0.10377073042E-01  0.40281325230E-02  0.19715360593E-01  0.51100000000E-03 0. -1.
         11    1    4    4    0    0  0.10950759715E+00 -0.13249398708E-01  0.26094859123E-01  0.11335194394E+00  0.51100000000E-03 0.  1.
</event>
<event>
 8    1  0.1128641E+005  0.1043930E+01  0.7957747E-01            NaN
         13   -1    0    0    0    0  0.00000000000E+00  0.00000000000E+00  0.74505805969E-08  0.10566000000E+00  0.10566000000E+00 0.  1.
     999900   -1    0    0    0    0 -0.00000000000E+00 -0.00000000000E+00 -0.74505805969E-08  0.93827000000E+00  0.93827000000E+00 0. -1.
     999902    2    1    2    0    0  0.90251039777E-03  0.11955805411E-01 -0.21555495182E-01  0.10192643319E+01  0.10189658401E+01 0.  0.
     999903    2    3    3    0    0 -0.33722495211E-01  0.79389503466E-01 -0.98801713720E-01  0.13263409734E+00  0.19751587226E-01 0.  0.
         14    1    1    2    0    0 -0.90251039777E-03 -0.11955805411E-01  0.21555495182E-01  0.24665668054E-01  0.00000000000E+00 0.  1.
     999901    1    3    3    0    0  0.34625005609E-01 -0.67433698055E-01  0.77246218539E-01  0.88663023461E+00  0.88000000000E+00 0.  1.
        -11    1    4    4    0    0 -0.28173061551E-01  0.77668547701E-01 -0.91356406014E-01  0.12317621012E+00  0.51100000000E-03 0. -1.
         11    1    4    4    0    0 -0.55494336608E-02  0.17209557649E-02 -0.74453077064E-02  0.94578872135E-02  0.51100000000E-03 0.  1.
</event>
<event>
 8    1  0.1128641E+005  0.1043930E+01  0.7957747E-01            NaN
         13   -1    0    0    0    0  0.00000000000E+00  0.00000000000E+00  0.74505805969E-08  0.10566000000E+00  0.10566000000E+00 0. -1.
     999900   -1    0    0    0    0 -0.00000000000E+00 -0.00000000000E+00 -0.74505805969E-08  0.93827000000E+00  0.93827000000E+00 0.  1.
     999902    2    1    2    0    0 -0.14902894176E-01  0.13519502631E-02  0.21466659396E-01  0.10177624344E+01  0.10174259832E+01 0.  0.
     999903    2    3    3    0    0 -0.12408839628E+00  0.30496614549E-01  0.85621612347E-02  0.13044207995E+00  0.24776037381E-01 0.  0.
         14    1    1    2    0    0  0.14902894176E-01 -0.13519502631E-02 -0.21466659396E-01  0.26167565610E-01  0.00000000000E+00 0.  1.
     999901    1    3    3    0    0  0.10918550210E+00 -0.29144664286E-01  0.12904498162E-01  0.88732035444E+00  0.88000000000E+00 0.  1.
        -11    1    4    4    0    0 -0.23413416333E-01  0.64218169030E-02  0.11536541672E-01  0.26884581296E-01  0.51100000000E-03 0. -1.
         11    1    4    4    0    0 -0.10067497994E+00  0.24074797646E-01 -0.29743804371E-02  0.10355749866E+00  0.51100000000E-03 0.  1.
</event>
<event>
 8    1  0.1128641E+005  0.1043930E+01  0.7957747E-01            NaN
         13   -1    0    0    0    0  0.00000000000E+00  0.00000000000E+00  0.74505805969E-08  0.10566000000E+00  0.10566000000E+00 0.  1.
     999900   -1    0    0    0    0 -0.00000000000E+00 -0.00000000000E+00 -0.74505805969E-08  0.93827000000E+00  0.93827000000E+00 0.  1.
     999902    2    1    2    0    0 -0.14158073839E-01 -0.11885729348E-01 -0.14703610037E-01  0.10203097171E+01  0.10200362744E+01 0.  0.
     999903    2    3    3    0    0  0.11904885438E+00  0.85000873120E-02  0.41900009722E-01  0.12825386849E+00  0.21179300128E-01 0.  0.
         14    1    1    2    0    0  0.14158073839E-01  0.11885729348E-01  0.14703610037E-01  0.23620282917E-01  0.00000000000E+00 0.  1.
     999901    1    3    3    0    0 -0.13320692822E+00 -0.20385816660E-01 -0.56603619759E-01  0.89205584860E+00  0.88000000000E+00 0.  1.
        -11    1    4    4    0    0  0.22382672873E-01 -0.66721101962E-02  0.84882458884E-02  0.24855835103E-01  0.51100000000E-03 0. -1.
         11    1    4    4    0    0  0.96666181505E-01  0.15172197508E-01  0.33411763833E-01  0.10339803338E+00  0.51100000000E-03 0.  1.
</event>
<event>
 8    1  0.1128641E+005  0.1043930E+01  0.7957747E-01            NaN
         13   -1    0    0    0    0  0.00000000000E+00  0.00000000000E+00  0.74505805969E-08  0.10566000000E+00  0.10566000000E+00 0. -1.
     999900   -1    0    0    0    0 -0.00000000000E+00 -0.00000000000E+00 -0.74505805969E-08  0.93827000000E+00  0.93827000000E+00 0. -1.
     999902    2    1    2    0    0  0.25056219241E-01  0.50389324661E-02 -0.16816747971E-01  0.10133357526E+01  0.10128738023E+01 0.  0.
     999903    2    3    3    0    0 -0.81676666137E-01  0.54868924431E-01 -0.72260612031E-01  0.12375778580E+00  0.20315433414E-01 0.  0.
         14    1    1    2    0    0 -0.25056219241E-01 -0.50389324661E-02  0.16816747971E-01  0.30594247422E-01  0.00000000000E+00 0. -1.
     999901    1    3    3    0    0  0.10673288538E+00 -0.49829991965E-01  0.55443864060E-01  0.88957796678E+00  0.88000000000E+00 0.  1.
        -11    1    4    4    0    0 -0.41997539255E-01  0.21477869656E-01 -0.44879151239E-01  0.65111377849E-01  0.51100000000E-03 0.  1.
         11    1    4    4    0    0 -0.39679126882E-01  0.33391054775E-01 -0.27381460791E-01  0.58646407948E-01  0.51100000000E-03 0. -1.
</event>
<event>
 8    1  0.1128641E+005  0.1043930E+01  0.7957747E-01            NaN
         13   -1    0    0    0    0  0.00000000000E+00  0.00000000000E+00  0.74505805969E-08  0.10566000000E+00  0.10566000000E+00 0. -1.
     999900   -1    0    0    0    0 -0.00000000000E+00 -0.00000000000E+00 -0.74505805969E-08  0.93827000000E+00  0.93827000000E+00 0. -1.
     999902    2    1    2    0    0  0.11813807293E-01  0.62739789655E-02 -0.19471822667E-01  0.10203062676E+01  0.10200327441E+01 0.  0.
     999903    2    3    3    0    0  0.62669217075E-02  0.71076569256E-01  0.10619308319E+00  0.12900283317E+00  0.16541071458E-01 0.  0.
         14    1    1    2    0    0 -0.11813807293E-01 -0.62739789655E-02  0.19471822667E-01  0.23623732406E-01  0.00000000000E+00 0. -1.
     999901    1    3    3    0    0  0.55468855851E-02 -0.64802590291E-01 -0.12566490585E+00  0.89130343442E+00  0.88000000000E+00 0. -1.
        -11    1    4    4    0    0  0.95794379404E-02  0.48967985787E-01  0.63024022800E-01  0.80386054973E-01  0.51100000000E-03 0.  1.
         11    1    4    4    0    0 -0.33125162329E-02  0.22108583469E-01  0.43169060387E-01  0.48616778200E-01  0.51100000000E-03 0. -1.
</event>
<event>
 8    1  0.1214976E+005  0.1043930E+01  0.7957747E-01            NaN
         13   -1    0    0    0    0  0.00000000000E+00  0.00000000000E+00  0.74505805969E-08  0.10566000000E+00  0.10566000000E+00 0.  1.
     999900   -1    0    0    0    0 -0.00000000000E+00 -0.00000000000E+00 -0.74505805969E-08  0.93827000000E+00  0.93827000000E+00 0. -1.
     999902    2    1    2    0    0  0.93423844627E-02 -0.16689032452E-01  0.14403739563E-01  0.10199869078E+01  0.10197058499E+01 0.  0.
     999903    2    3    3    0    0  0.75402494103E-01  0.88584425933E-01  0.55405702904E-01  0.13030853886E+00  0.19436737144E-01 0.  0.
         14    1    1    2    0    0 -0.93423844627E-02  0.16689032452E-01 -0.14403739563E-01  0.23943092220E-01  0.00000000000E+00 0. -1.
     999901    1    3    3    0    0 -0.66060109640E-01 -0.10527345839E+00 -0.41001963342E-01  0.88967836892E+00  0.88000000000E+00 0. -1.
        -11    1    4    4    0    0  0.28330741335E-01  0.34743286386E-01  0.31910488661E-01  0.55029694357E-01  0.51100000000E-03 0. -1.
         11    1    4    4    0    0  0.47071752768E-01  0.53841139547E-01  0.23495214243E-01  0.75278844503E-01  0.51100000000E-03 0.  1.
</event>
<event>
 8    1  0.1128641E+005  0.1043930E+01  0.7957747E-01            NaN
         13   -1    0    0    0    0  0.00000000000E+00  0.00000000000E+00  0.74505805969E-08  0.10566000000E+00  0.10566000000E+00 0. -1.
     999900   -1    0    0    0    0 -0.00000000000E+00 -0.00000000000E+00 -0.74505805969E-08  0.93827000000E+00  0.93827000000E+00 0.  1.
     999902    2    1    2    0    0  0.13067464612E-02  0.22854601741E-01 -0.68835291699E-02  0.10200255364E+01  0.10197453954E+01 0.  0.
     999903    2    3    3    0    0 -0.87428492840E-01  0.75234834741E-01 -0.62280516846E-01  0.13228319891E+00  0.17775269774E-01 0.  0.
         14    1    1    2    0    0 -0.13067464612E-02 -0.22854601741E-01  0.68835291699E-02  0.23904463618E-01  0.00000000000E+00 0. -1.
     999901    1    3    3    0    0  0.88735239301E-01 -0.52380233000E-01  0.55396987676E-01  0.88774233748E+00  0.88000000000E+00 0. -1.
        -11    1    4    4    0    0 -0.51136535551E-01  0.39219155969E-01 -0.25552586331E-01  0.69327362940E-01  0.51100000000E-03 0.  1.
         11    1    4    4    0    0 -0.36291957289E-01  0.36015678772E-01 -0.36727930515E-01  0.62955835966E-01  0.51100000000E-03 0. -1.
</event>
<event>
 8    1  0.1128641E+005  0.1043930E+01  0.7957747E-01            NaN
         13   -1    0    0    0    0  0.00000000000E+00  0.00000000000E+00  0.74505805969E-08  0.10566000000E+00  0.10566000000E+00 0.  1.
     999900   -1    0    0    0    0 -0.00000000000E+00 -0.00000000000E+00 -0.74505805969E-08  0.93827000000E+00  0.93827000000E+00 0.  1.
     999902    2    1    2    0    0 -0.19899254191E-02 -0.10722893471E-01  0.20606767855E-01  0.10206152165E+01  0.10203488820E+01 0.  0.
     999903    2    3    3    0    0  0.83527603853E-01 -0.77107345299E-02  0.10089629686E+00  0.13282654268E+00  0.20652159420E-01 0.  0.
         14    1    1    2    0    0  0.19899254191E-02  0.10722893471E-01 -0.20606767855E-01  0.23314783486E-01  0.00000000000E+00 0. -1.
     999901    1    3    3    0    0 -0.85517529272E-01 -0.30121589414E-02 -0.80289529005E-01  0.88778867383E+00  0.88000000000E+00 0.  1.
        -11    1    4    4    0    0  0.51648217641E-01  0.46297380279E-02  0.66500402818E-01  0.84329932738E-01  0.51100000000E-03 0. -1.
         11    1    4    4    0    0  0.31879386212E-01 -0.12340472558E-01  0.34395894042E-01  0.48496609945E-01  0.51100000000E-03 0.  1.
</event>
<event>
 8    1  0.1128641E+005  0.1043930E+01  0.7957747E-01            NaN
         13   -1    0    0    0    0  0.00000000000E+00  0.00000000000E+00  0.74505805969E-08  0.10566000000E+00  0.10566000000E+00 0. -1.
     999900   -1    0    0    0    0 -0.00000000000E+00 -0.00000000000E+00 -0.74505805969E-08  0.93827000000E+00  0.93827000000E+00 0. -1.
     999902    2    1    2    0    0  0.64072933777E-03  0.16379211671E-01 -0.16911387165E-01  0.10203782671E+01  0.10201064277E+01 0.  0.
     999903    2    3    3    0    0 -0.91246225460E-01  0.37030776564E-01  0.82027072535E-01  0.12983993638E+00  0.20804239374E-01 0.  0.
         14    1    1    2    0    0 -0.64072933777E-03 -0.16379211671E-01  0.16911387165E-01  0.23551732948E-01  0.00000000000E+00 0. -1.
     999901    1    3    3    0    0  0.91886954798E-01 -0.20651564893E-01 -0.98938459699E-01  0.89053833068E+00  0.88000000000E+00 0. -1.
        -11    1    4    4    0    0 -0.22584144761E-01  0.58709149043E-03  0.14326896460E-01  0.26756482470E-01  0.51100000000E-03 0. -1.
         11    1    4    4    0    0 -0.68662080699E-01  0.36443685073E-01  0.67700176075E-01  0.10308345391E+00  0.51100000000E-03 0.  1.
</event>
<event>
 8    1  0.1128641E+005  0.1043930E+01  0.7957747E-01            NaN
         13   -1    0    0    0    0  0.00000000000E+00  0.00000000000E+00  0.74505805969E-08  0.10566000000E+00  0.10566000000E+00 0. -1.
     999900   -1    0    0    0    0 -0.00000000000E+00 -0.00000000000E+00 -0.74505805969E-08  0.93827000000E+00  0.93827000000E+00 0.  1.
     999902    2    1    2    0    0 -0.94356838165E-02 -0.52821548551E-02  0.21359640205E-01  0.10199890828E+01  0.10197080766E+01 0.  0.
     999903    2    3    3    0    0  0.10688914868E+00  0.41234356157E-02 -0.67275861362E-01  0.12787015350E+00  0.19556119468E-01 0.  0.
         14    1    1    2    0    0  0.94356838165E-02  0.52821548551E-02 -0.21359640205E-01  0.23940917248E-01  0.00000000000E+00 0. -1.
     999901    1    3    3    0    0 -0.11632483249E+00 -0.94055904708E-02  0.88635501567E-01  0.89211892925E+00  0.88000000000E+00 0.  1.
        -11    1    4    4    0    0  0.50583923771E-01  0.23273751971E-02 -0.20446429934E-01  0.54611973389E-01  0.51100000000E-03 0.  1.
         11    1    4    4    0    0  0.56305224906E-01  0.17960604186E-02 -0.46829431428E-01  0.73258180114E-01  0.51100000000E-03 0. -1.
</event>
<event>
 8    1  0.1128641E+005  0.1043930E+01  0.7957747E-01            NaN
         13   -1    0    0    0    0  0.00000000000E+00  0.00000000000E+00  0.74505805969E-08  0.10566000000E+00  0.10566000000E+00 0. -1.
     999900   -1    0    0    0    0 -0.00000000000E+00 -0.00000000000E+00 -0.74505805969E-08  0.93827000000E+00  0.93827000000E+00 0.  1.
     999902    2    1    2    0    0  0.18872803326E-01  0.10492390837E-01 -0.13113394173E-01  0.10186667049E+01  0.10183533874E+01 0.  0.
     999903    2    3    3    0    0  0.46327924115E-01 -0.49818319438E-01 -0.10967343487E+00  0.13090828797E+00  0.21922044598E-01 0.  0.
         14    1    1    2    0    0 -0.18872803326E-01 -0.10492390837E-01  0.13113394173E-01  0.25263295067E-01  0.00000000000E+00 0. -1.
     999901    1    3    3    0    0 -0.27455120788E-01  0.60310710275E-01  0.96560040693E-01  0.88775841696E+00  0.88000000000E+00 0. -1.
        -11    1    4    4    0    0  0.27549434025E-01 -0.41909508272E-01 -0.67777873498E-01  0.84317729190E-01  0.51100000000E-03 0. -1.
         11    1    4    4    0    0  0.18778490090E-01 -0.79088111658E-02 -0.41895561368E-01  0.46590558780E-01  0.51100000000E-03 0.  1.
</event>
<event>
 8    1  0.1128641E+005  0.1043930E+01  0.7957747E-01            NaN
         13   -1    0    0    0    0  0.00000000000E+00  0.00000000000E+00  0.74505805969E-08  0.10566000000E+00  0.10566000000E+00 0. -1.
     999900   -1    0    0    0    0 -0.00000000000E+00 -0.00000000000E+00 -0.74505805969E-08  0.93827000000E+00  0.93827000000E+00 0.  1.
     999902    2    1    2    0    0 -0.19124302923E-01 -0.13611794090E-01 -0.56761687691E-02  0.10197796627E+01  0.10194936594E+01 0.  0.
     999903    2    3    3    0    0 -0.36994629179E-01  0.35304733427E-01 -0.11919910578E+00  0.13096042771E+00  0.18088118102E-01 0.  0.
         14    1    1    2    0    0  0.19124302923E-01  0.13611794090E-01  0.56761687691E-02  0.24150337318E-01  0.00000000000E+00 0.  1.
     999901    1    3    3    0    0  0.17870326255E-01 -0.48916527517E-01  0.11352293701E+00  0.88881923497E+00  0.88000000000E+00 0. -1.
        -11    1    4    4    0    0 -0.96878921972E-02  0.18525697722E-01 -0.61463651245E-01  0.64923788219E-01  0.51100000000E-03 0. -1.
         11    1    4    4    0    0 -0.27306736982E-01  0.16779035705E-01 -0.57735454538E-01  0.66036639493E-01  0.51100000000E-03 0.  1.
</event>
<event>
 8    1  0.1128641E+005  0.1043930E+01  0.7957747E-01            NaN
         13   -1    0    0    0    0  0.00000000000E+00  0.00000000000E+00  0.74505805969E-08  0.10566000000E+00  0.10566000000E+00 0. -1.
     999900   -1    0    0    0    0 -0.00000000000E+00 -0.00000000000E+00 -0.74505805969E-08  0.93827000000E+00  0.93827000000E+00 0. -1.
     999902    2    1    2    0    0 -0.21018537064E-01  0.55231309674E-02  0.12035023293E-01  0.10190879860E+01  0.10187851577E+01 0.  0.
     999903    2    3    3    0    0 -0.55576237320E-01  0.31115822860E-01 -0.11106310792E+00  0.12947999902E+00  0.19316925684E-01 0.  0.
         14    1    1    2    0    0  0.21018537064E-01 -0.55231309674E-02 -0.12035023293E-01  0.24842014042E-01  0.00000000000E+00 0.  1.
     999901    1    3    3    0    0  0.34557700256E-01 -0.25592691892E-01  0.12309813121E+00  0.88960798694E+00  0.88000000000E+00 0.  1.
        -11    1    4    4    0    0 -0.40715522875E-01  0.16185952019E-01 -0.87574957133E-01  0.97925344439E-01  0.51100000000E-03 0. -1.
         11    1    4    4    0    0 -0.14860714445E-01  0.14929870841E-01 -0.23488150784E-01  0.31554654576E-01  0.51100000000E-03 0.  1.
</event>
<event>
 8    1  0.1128641E+005  0.1043930E+01  0.7957747E-01            NaN
         13   -1    0    0    0    0  0.00000000000E+00  0.00000000000E+00  0.74505805969E-08  0.10566000000E+00  0.10566000000E+00 0. -1.
     999900   -1    0    0    0    0 -0.00000000000E+00 -0.00000000000E+00 -0.74505805969E-08  0.93827000000E+00  0.93827000000E+00 0. -1.
     999902    2    1    2    0    0 -0.91896318278E-02 -0.18961461015E-01 -0.10544183663E-01  0.10203680360E+01  0.10200959576E+01 0.  0.
     999903    2    3    3    0    0 -0.33643185565E-01 -0.11293802826E+00  0.56927404338E-01  0.13245926444E+00  0.20441751587E-01 0.  0.
         14    1    1    2    0    0  0.91896318278E-02  0.18961461015E-01  0.10544183663E-01  0.23561963969E-01  0.00000000000E+00 0. -1.
     999901    1    3    3    0    0  0.24453553737E-01  0.93976567249E-01 -0.67471588000E-01  0.88790877159E+00  0.88000000000E+00 0. -1.
        -11    1    4    4    0    0 -0.70044598945E-02 -0.39915843713E-01  0.10305656036E-01  0.41818712379E-01  0.51100000000E-03 0. -1.
         11    1    4    4    0    0 -0.26638725670E-01 -0.73022184552E-01  0.46621748302E-01  0.90640552060E-01  0.51100000000E-03 0.  1.
</event>
<event>
 8    1  0.1128641E+005  0.1043930E+01  0.7957747E-01            NaN
         13   -1    0    0    0    0  0.00000000000E+00  0.00000000000E+00  0.74505805969E-08  0.10566000000E+00  0.10566000000E+00 0. -1.
     999900   -1    0    0    0    0 -0.00000000000E+00 -0.00000000000E+00 -0.74505805969E-08  0.93827000000E+00  0.93827000000E+00 0.  1.
     999902    2    1    2    0    0  0.15398766083E-01  0.16648252296E-02 -0.17950019595E-01  0.10202214184E+01  0.10199459033E+01 0.  0.
     999903    2    3    3    0    0  0.88908803896E-01 -0.38719393226E-01 -0.89440822263E-01  0.13334738806E+00  0.19439608858E-01 0.  0.
         14    1    1    2    0    0 -0.15398766083E-01 -0.16648252296E-02  0.17950019595E-01  0.23708581640E-01  0.00000000000E+00 0. -1.
     999901    1    3    3    0    0 -0.73510037812E-01  0.40384218456E-01  0.71490802668E-01  0.88687403030E+00  0.88000000000E+00 0. -1.
        -11    1    4    4    0    0  0.60974844869E-01 -0.18070090790E-01 -0.64493939258E-01  0.90576979471E-01  0.51100000000E-03 0. -1.
         11    1    4    4    0    0  0.27933959026E-01 -0.20649302436E-01 -0.24946883005E-01  0.42770408586E-01  0.51100000000E-03 0.  1.
</event>
<event>
 8    1  0.1128641E+005  0.1043930E+01  0.7957747E-01            NaN
         13   -1    0    0    0    0  0.00000000000E+00  0.00000000000E+00  0.74505805969E-08  0.10566000000E+00  0.10566000000E+00 0. -1.
     999900   -1    0    0    0    0 -0.00000000000E+00 -0.00000000000E+00 -0.74505805969E-08  0.93827000000E+00  0.93827000000E+00 0. -1.
     999902    2    1    2    0    0 -0.18308534146E-01 -0.17065940285E-01  0.12279548638E-02  0.10188709375E+01  0.10185627279E+01 0.  0.
     999903    2    3    3    0    0 -0.55461827547E-02 -0.11392901178E-01  0.12758626024E+00  0.12973569338E+00  0.19812571663E-01 0.  0.
         14    1    1    2    0    0  0.18308534146E-01  0.17065940285E-01 -0.12279548638E-02  0.25059062503E-01  0.00000000000E+00 0. -1.
     999901    1    3    3    0    0 -0.12762351391E-01 -0.56730391067E-02 -0.12635830537E+00  0.88913524411E+00  0.88000000000E+00 0. -1.
        -11    1    4    4    0    0 -0.39857173828E-02 -0.16583905985E-01  0.11030544042E+00  0.11161748603E+00  0.51100000000E-03 0.  1.
         11    1    4    4    0    0 -0.15604653719E-02  0.51910048068E-02  0.17280819817E-01  0.18118207352E-01  0.51100000000E-03 0. -1.
</event>
<event>
 8    1  0.1128641E+005  0.1043930E+01  0.7957747E-01            NaN
         13   -1    0    0    0    0  0.00000000000E+00  0.00000000000E+00  0.74505805969E-08  0.10566000000E+00  0.10566000000E+00 0.  1.
     999900   -1    0    0    0    0 -0.00000000000E+00 -0.00000000000E+00 -0.74505805969E-08  0.93827000000E+00  0.93827000000E+00 0. -1.
     999902    2    1    2    0    0 -0.22951831190E-01  0.11710639057E-01 -0.26438407867E-02  0.10180279631E+01  0.10176983925E+01 0.  0.
     999903    2    3    3    0    0  0.10260799727E+00  0.55148153368E-01  0.45770368028E-01  0.12673899548E+00  0.19953106565E-01 0.  0.
         14    1    1    2    0    0  0.22951831190E-01 -0.11710639057E-01  0.26438407867E-02  0.25902036913E-01  0.00000000000E+00 0. -1.
     999901    1    3    3    0    0 -0.12555982846E+00 -0.43437514311E-01 -0.48414208814E-01  0.89128896761E+00  0.88000000000E+00 0. -1.
        -11    1    4    4    0    0  0.91668025502E-01  0.41343625810E-01  0.39268574002E-01  0.10795649272E+00  0.51100000000E-03 0. -1.
         11    1    4    4    0    0  0.10939971765E-01  0.13804527558E-01  0.65017940257E-02  0.18782502758E-01  0.51100000000E-03 0.  1.
</event>
<event>
 8    1  0.1128641E+005  0.1043930E+01  0.7957747E-01            NaN
         13   -1    0    0    0    0  0.00000000000E+00  0.00000000000E+00  0.74505805969E-08  0.10566000000E+00  0.10566000000E+00 0.  1.
     999900   -1    0    0    0    0 -0.00000000000E+00 -0.00000000000E+00 -0.74505805969E-08  0.93827000000E+00  0.93827000000E+00 0. -1.
     999902    2    1    2    0    0 -0.15435059283E-01  0.12920844752E-01  0.15124765698E-01  0.10187516795E+01  0.10184404925E+01 0.  0.
     999903    2    3    3    0    0  0.12435757891E-01 -0.11756253935E+00 -0.41604319798E-01  0.12688796510E+00  0.19850378567E-01 0.  0.
         14    1    1    2    0    0  0.15435059283E-01 -0.12920844752E-01 -0.15124765698E-01  0.25178320468E-01  0.00000000000E+00 0. -1.
     999901    1    3    3    0    0 -0.27870817174E-01  0.13048338410E+00  0.56729085496E-01  0.89186371443E+00  0.88000000000E+00 0.  1.
        -11    1    4    4    0    0 -0.72182236585E-03 -0.41780753221E-01 -0.23205845290E-01  0.47800886434E-01  0.51100000000E-03 0. -1.
         11    1    4    4    0    0  0.13157580257E-01 -0.75781786128E-01 -0.18398474508E-01  0.79087078668E-01  0.51100000000E-03 0.  1.
</event>
<event>
 8    1  0.1128641E+005  0.1043930E+01  0.7957747E-01            NaN
         13   -1    0    0    0    0  0.00000000000E+00  0.00000000000E+00  0.74505805969E-08  0.10566000000E+00  0.10566000000E+00 0. -1.
     999900   -1    0    0    0    0 -0.00000000000E+00 -0.00000000000E+00 -0.74505805969E-08  0.93827000000E+00  0.93827000000E+00 0. -1.
     999902    2    1    2    0    0 -0.13382508726E-01 -0.91994463360E-02 -0.17100295846E-01  0.10203473481E+01  0.10200747861E+01 0.  0.
     999903    2    3    3    0    0 -0.62125495245E-01  0.79493807147E-01  0.78463196253E-01  0.12940697244E+00  0.20269405933E-01 0.  0.
         14    1    1    2    0    0  0.13382508726E-01  0.91994463360E-02  0.17100295846E-01  0.23582651902E-01  0.00000000000E+00 0. -1.
     999901    1    3    3    0    0  0.48742986519E-01 -0.88693253483E-01 -0.95563492098E-01  0.89094037565E+00  0.88000000000E+00 0. -1.
        -11    1    4    4    0    0 -0.55915688437E-01  0.77748484139E-01  0.69399799737E-01  0.11827080926E+00  0.51100000000E-03 0.  1.
         11    1    4    4    0    0 -0.62098068077E-02  0.17453230084E-02  0.90633965160E-02  0.11136163181E-01  0.51100000000E-03 0. -1.
</event>
<event>
 7    1  0.1128641E+005  0.1043930E+01  0.7957747E-01            NaN
         13   -1    0    0    0    0  0.00000000000E+00  0.00000000000E+00  0.74505805969E-08  0.10566000000E+00  0.10566000000E+00 0. -1.
     999900   -1    0    0    0    0 -0.00000000000E+00 -0.00000000000E+00 -0.74505805969E-08  0.93827000000E+00  0.93827000000E+00 0. -1.
     999903    2    1    2    0    0 -0.71529673997E-01  0.87633158692E-01 -0.18496899277E-01  0.11622063329E+00  0.19210298145E-01 0.  0.
         14    1    1    2    0    0  0.60498574046E-02  0.83915713601E-02  0.38476068333E-01  0.39842528520E-01  0.00000000000E+00 0. -1.
     999901    1    1    2    0    0  0.65479816593E-01 -0.96024730052E-01 -0.19979169057E-01  0.88786683819E+00  0.88000000000E+00 0. -1.
        -11    1    3    3    0    0 -0.51499182036E-01  0.51353499580E-01 -0.17296678223E-01  0.74758169239E-01  0.51100000000E-03 0. -1.
         11    1    3    3    0    0 -0.20030491961E-01  0.36279659112E-01 -0.12002210538E-02  0.41462464050E-01  0.51100000000E-03 0.  1.
</event>
<event>
 8    1  0.1128641E+005  0.1043930E+01  0.7957747E-01            NaN
         13   -1    0    0    0    0  0.00000000000E+00  0.00000000000E+00  0.74505805969E-08  0.10566000000E+00  0.10566000000E+00 0. -1.
     999900   -1    0    0    0    0 -0.00000000000E+00 -0.00000000000E+00 -0.74505805969E-08  0.93827000000E+00  0.93827000000E+00 0.  1.
     999902    2    1    2    0    0  0.11424268120E-01  0.94839364162E-02 -0.88705858376E-02  0.10266341553E+01  0.10264884522E+01 0.  0.
     999903    2    3    3    0    0 -0.11287890196E+00  0.90729696182E-02 -0.71257819835E-01  0.13571125515E+00  0.22713489381E-01 0.  0.
         14    1    1    2    0    0 -0.11424268120E-01 -0.94839364162E-02  0.88705858376E-02  0.17295844736E-01  0.00000000000E+00 0.  1.
     999901    1    3    3    0    0  0.12430317008E+00  0.41096679798E-03  0.62387233997E-01  0.89092290012E+00  0.88000000000E+00 0.  1.
        -11    1    4    4    0    0 -0.31186445828E-01 -0.27603077573E-03 -0.31667176295E-01  0.44449316889E-01  0.51100000000E-03 0.  1.
         11    1    4    4    0    0 -0.81692456136E-01  0.93490003939E-02 -0.39590643540E-01  0.91261938259E-01  0.51100000000E-03 0. -1.
</event>
<event>
 8    1  0.1128641E+005  0.1043930E+01  0.7957747E-01            NaN
         13   -1    0    0    0    0  0.00000000000E+00  0.00000000000E+00  0.74505805969E-08  0.10566000000E+00  0.10566000000E+00 0. -1.
     999900   -1    0    0    0    0 -0.00000000000E+00 -0.00000000000E+00 -0.74505805969E-08  0.93827000000E+00  0.93827000000E+00 0. -1.
     999902    2    1    2    0    0 -0.20763156454E-02  0.19610702392E-01 -0.14647653851E-01  0.10193648927E+01  0.10190688593E+01 0.  0.
     999903    2    3    3    0    0 -0.86995327918E-01 -0.85785877992E-01 -0.35295285512E-01  0.12877744469E+00  0.20260037981E-01 0.  0.
         14    1    1    2    0    0  0.20763156454E-02 -0.19610702392E-01  0.14647653851E-01  0.24565107333E-01  0.00000000000E+00 0. -1.
     999901    1    3    3    0    0  0.84919012272E-01  0.10539658038E+00  0.20647631661E-01  0.89058744798E+00  0.88000000000E+00 0. -1.
        -11    1    4    4    0    0 -0.40558539329E-01 -0.45202314022E-01 -0.27302732278E-01  0.66587871390E-01  0.51100000000E-03 0.  1.
         11    1    4    4    0    0 -0.46436788588E-01 -0.40583563970E-01 -0.79925532342E-02  0.62189573299E-01  0.51100000000E-03 0. -1.
</event>
<event>
 8    1  0.1128641E+005  0.1043930E+01  0.7957747E-01            NaN
         13   -1    0    0    0    0  0.00000000000E+00  0.00000000000E+00  0.74505805969E-08  0.10566000000E+00  0.10566000000E+00 0.  1.
     999900   -1    0    0    0    0 -0.00000000000E+00 -0.00000000000E+00 -0.74505805969E-08  0.93827000000E+00  0.93827000000E+00 0. -1.
     999902    2    1    2    0    0 -0.87542576436E-02  0.27123481132E-03  0.22255126215E-01  0.10200134526E+01  0.10197330250E+01 0.  0.
     999903    2    3    3    0    0 -0.43927253741E-01 -0.47655109790E-01 -0.10896048367E+00  0.12830071277E+00  0.19699563051E-01 0.  0.
         14    1    1    2    0    0  0.87542576436E-02 -0.27123481132E-03 -0.22255126215E-01  0.23916547369E-01  0.00000000000E+00 0. -1.
     999901    1    3    3    0    0  0.35172996098E-01  0.47926344601E-01  0.13121560988E+00  0.89171273987E+00  0.88000000000E+00 0.  1.
        -11    1    4    4    0    0 -0.24920690003E-02 -0.10535928502E-01 -0.98592903453E-02  0.14652062121E-01  0.51100000000E-03 0. -1.
         11    1    4    4    0    0 -0.41435184741E-01 -0.37119181288E-01 -0.99101193324E-01  0.11364865064E+00  0.51100000000E-03 0.  1.
</event>
<event>
 8    1  0.1128641E+005  0.1043930E+01  0.7957747E-01            NaN
         13   -1    0    0    0    0  0.00000000000E+00  0.00000000000E+00  0.74505805969E-08  0.10566000000E+00  0.10566000000E+00 0. -1.
     999900   -1    0    0    0    0 -0.00000000000E+00 -0.00000000000E+00 -0.74505805969E-08  0.93827000000E+00  0.93827000000E+00 0.  1.
     999902    2    1    2    0    0 -0.16614108864E-01  0.48846515016E-02 -0.14933573079E-01  0.10210629924E+01  0.10208069035E+01 0.  0.
     999903    2    3    3    0    0 -0.71491599519E-01  0.10677602419E+00  0.26053160473E-01  0.13253989016E+00  0.19387809829E-01 0.  0.
         14    1    1    2    0    0  0.16614108864E-01 -0.48846515016E-02  0.14933573079E-01  0.22867007643E-01  0.00000000000E+00 0. -1.
     999901    1    3    3    0    0  0.54877490655E-01 -0.10189137269E+00 -0.40986733552E-01  0.88852310220E+00  0.88000000000E+00 0. -1.
        -11    1    4    4    0    0 -0.12679962968E-01  0.24502170565E-01  0.13214172765E-01  0.30594334543E-01  0.51100000000E-03 0.  1.
         11    1    4    4    0    0 -0.58811636550E-01  0.82273853624E-01  0.12838987707E-01  0.10194555562E+00  0.51100000000E-03 0. -1.
</event>
<event>
 8    1  0.1128641E+005  0.1043930E+01  0.7957747E-01            NaN
         13   -1    0    0    0    0  0.00000000000E+00  0.00000000000E+00  0.74505805969E-08  0.10566000000E+00  0.10566000000E+00 0. -1.
     999900   -1    0    0    0    0 -0.00000000000E+00 -0.00000000000E+00 -0.74505805969E-08  0.93827000000E+00  0.93827000000E+00 0. -1.
     999902    2    1    2    0    0 -0.15702016179E-01  0.16524964194E-01  0.35662061108E-02  0.10208573846E+01  0.10205966168E+01 0.  0.
     999903    2    3    3    0    0 -0.89248845308E-01  0.96990970705E-01 -0.10829423244E-01  0.13401402281E+00  0.21676649042E-01 0.  0.
         14    1    1    2    0    0  0.15702016179E-01 -0.16524964194E-01 -0.35662061108E-02  0.23072615364E-01  0.00000000000E+00 0. -1.
     999901    1    3    3    0    0  0.73546829128E-01 -0.80466006511E-01  0.14395629355E-01  0.88684336183E+00  0.88000000000E+00 0.  1.
        -11    1    4    4    0    0 -0.76717793035E-01  0.74766917416E-01 -0.24467650173E-02  0.10715390561E+00  0.51100000000E-03 0. -1.
         11    1    4    4    0    0 -0.12531052272E-01  0.22224053289E-01 -0.83826582269E-02  0.26860117192E-01  0.51100000000E-03 0.  1.
</event>
<event>
 8    1  0.1128641E+005  0.1043930E+01  0.7957747E-01            NaN
         13   -1    0    0    0    0  0.00000000000E+00  0.00000000000E+00  0.74505805969E-08  0.10566000000E+00  0.10566000000E+00 0. -1.
     999900   -1    0    0    0    0 -0.00000000000E+00 -0.00000000000E+00 -0.74505805969E-08  0.93827000000E+00  0.93827000000E+00 0. -1.
     999902    2    1    2    0    0  0.84347162030E-03 -0.22629862927E-01  0.83233916873E-02  0.10198032308E+01  0.10195177922E+01 0.  0.
     999903    2    3    3    0    0  0.36993800533E-01  0.60212984314E-01 -0.10443838365E+00  0.12801569920E+00  0.22056711127E-01 0.  0.
         14    1    1    2    0    0 -0.84347162030E-03  0.22629862927E-01 -0.83233916873E-02  0.24126769151E-01  0.00000000000E+00 0.  1.
     999901    1    3    3    0    0 -0.36150328912E-01 -0.82842847241E-01  0.11276177534E+00  0.89178753164E+00  0.88000000000E+00 0.  1.
        -11    1    4    4    0    0  0.27005027432E-01  0.23595333385E-01 -0.45956830923E-01  0.58294962850E-01  0.51100000000E-03 0.  1.
         11    1    4    4    0    0  0.99887731007E-02  0.36617650929E-01 -0.58481552726E-01  0.69720736355E-01  0.51100000000E-03 0. -1.
</event>
<event>
 8    1  0.1128641E+005  0.1043930E+01  0.7957747E-01            NaN
         13   -1    0    0    0    0  0.00000000000E+00  0.00000000000E+00  0.74505805969E-08  0.10566000000E+00  0.10566000000E+00 0.  1.
     999900   -1    0    0    0    0 -0.00000000000E+00 -0.00000000000E+00 -0.74505805969E-08  0.93827000000E+00  0.93827000000E+00 0.  1.
     999902    2    1    2    0    0  0.21798933191E-01 -0.67504047336E-02  0.56041427395E-02  0.10204317476E+01  0.10201611557E+01 0.  0.
     999903    2    3    3    0    0 -0.87727886672E-01 -0.69754540475E-01 -0.60649353833E-01  0.12894132629E+00  0.19637807629E-01 0.  0.
         14    1    1    2    0    0 -0.21798933191E-01  0.67504047336E-02 -0.56041427395E-02  0.23498252449E-01  0.00000000000E+00 0. -1.
     999901    1    3    3    0    0  0.10952681986E+00  0.63004135742E-01  0.66253496572E-01  0.89149042126E+00  0.88000000000E+00 0. -1.
        -11    1    4    4    0    0 -0.19509602256E-01 -0.73688871234E-02 -0.15934500228E-01  0.26250609443E-01  0.51100000000E-03 0.  1.
         11    1    4    4    0    0 -0.68218284417E-01 -0.62385653352E-01 -0.44714853605E-01  0.10269071685E+00  0.51100000000E-03 0. -1.
</event>
<event>
 8    1  0.1128641E+005  0.1043930E+01  0.7957747E-01            NaN
         13   -1    0    0    0    0  0.00000000000E+00  0.00000000000E+00  0.74505805969E-08  0.10566000000E+00  0.10566000000E+00 0.  1.
     999900   -1    0    0    0    0 -0.00000000000E+00 -0.00000000000E+00 -0.74505805969E-08  0.93827000000E+00  0.93827000000E+00 0.  1.
     999902    2    1    2    0    0 -0.69940306509E-02 -0.70933932120E-03  0.23086293595E-01  0.10197971059E+01  0.10195115206E+01 0.  0.
     999903    2    3    3    0    0  0.15960642376E-01  0.11737228401E+00 -0.46545822692E-01  0.12888812152E+00  0.20362688896E-01 0.  0.
         14    1    1    2    0    0  0.69940306509E-02  0.70933932120E-03 -0.23086293595E-01  0.24132894127E-01  0.00000000000E+00 0. -1.
     999901    1    3    3    0    0 -0.22954673027E-01 -0.11808162333E+00  0.69632116287E-01  0.89090898435E+00  0.88000000000E+00 0. -1.
        -11    1    4    4    0    0  0.16458719231E-01  0.53223877048E-01 -0.16921197406E-01  0.58225926951E-01  0.51100000000E-03 0.  1.
         11    1    4    4    0    0 -0.49807685438E-03  0.64148406966E-01 -0.29624625287E-01  0.70662194568E-01  0.51100000000E-03 0. -1.
</event>
<event>
 8    1  0.1128641E+005  0.1043930E+01  0.7957747E-01            NaN
         13   -1    0    0    0    0  0.00000000000E+00  0.00000000000E+00  0.74505805969E-08  0.10566000000E+00  0.10566000000E+00 0. -1.
     999900   -1    0    0    0    0 -0.00000000000E+00 -0.00000000000E+00 -0.74505805969E-08  0.93827000000E+00  0.93827000000E+00 0. -1.
     999902    2    1    2    0    0  0.16769456070E-01  0.17092293776E-01  0.22617943772E-02  0.10198784537E+01  0.10195948134E+01 0.  0.
     999903    2    3    3    0    0 -0.30966772080E-02 -0.25790762077E-01 -0.12470596120E+00  0.12951087196E+00  0.23382394682E-01 0.  0.
         14    1    1    2    0    0 -0.16769456070E-01 -0.17092293776E-01 -0.22617943772E-02  0.24051546254E-01  0.00000000000E+00 0.  1.
     999901    1    3    3    0    0  0.19866133278E-01  0.42883055853E-01  0.12696775557E+00  0.89036758178E+00  0.88000000000E+00 0.  1.
        -11    1    4    4    0    0  0.71366282980E-02 -0.22290365097E-01 -0.96475290059E-01  0.99275044964E-01  0.51100000000E-03 0. -1.
         11    1    4    4    0    0 -0.10233305506E-01 -0.35003969801E-02 -0.28230671137E-01  0.30235827001E-01  0.51100000000E-03 0.  1.
</event>
<event>
 8    1  0.1128641E+005  0.1043930E+01  0.7957747E-01            NaN
         13   -1    0    0    0    0  0.00000000000E+00  0.00000000000E+00  0.74505805969E-08  0.10566000000E+00  0.10566000000E+00 0.  1.
     999900   -1    0    0    0    0 -0.00000000000E+00 -0.00000000000E+00 -0.74505805969E-08  0.93827000000E+00  0.93827000000E+00 0. -1.
     999902    2    1    2    0    0 -0.29222053973E-02 -0.66221114104E-02 -0.21925795449E-01  0.10208403454E+01  0.10205791878E+01 0.  0.
     999903    2    3    3    0    0 -0.93833841107E-02  0.12827745508E+00  0.20635909539E-02  0.13021408790E+00  0.20206357905E-01 0.  0.
         14    1    1    2    0    0  0.29222053973E-02  0.66221114104E-02  0.21925795449E-01  0.23089654610E-01  0.00000000000E+00 0.  1.
     999901    1    3    3    0    0  0.64611787135E-02 -0.13489956649E+00 -0.23989386403E-01  0.89062625749E+00  0.88000000000E+00 0. -1.
        -11    1    4    4    0    0 -0.11199890837E-01  0.43222030016E-01  0.59605029183E-02  0.45048531047E-01  0.51100000000E-03 0. -1.
         11    1    4    4    0    0  0.18165067264E-02  0.85055425069E-01 -0.38969119643E-02  0.85165556853E-01  0.51100000000E-03 0.  1.
</event>
<event>
 8    1  0.1128641E+005  0.1043930E+01  0.7957747E-01            NaN
         13   -1    0    0    0    0  0.00000000000E+00  0.00000000000E+00  0.74505805969E-08  0.10566000000E+00  0.10566000000E+00 0. -1.
     999900   -1    0    0    0    0 -0.00000000000E+00 -0.00000000000E+00 -0.74505805969E-08  0.93827000000E+00  0.93827000000E+00 0.  1.
     999902    2    1    2    0    0 -0.37547642473E-04 -0.20130427097E-01 -0.12706465958E-01  0.10201247531E+01  0.10198469601E+01 0.  0.
     999903    2    3    3    0    0  0.56053748805E-01 -0.10270814907E+00  0.57227390166E-01  0.13172391000E+00  0.19627216829E-01 0.  0.
         14    1    1    2    0    0  0.37547642473E-04  0.20130427097E-01  0.12706465958E-01  0.23805246944E-01  0.00000000000E+00 0. -1.
     999901    1    3    3    0    0 -0.56091296447E-01  0.82577721976E-01 -0.69933856124E-01  0.88840084305E+00  0.88000000000E+00 0. -1.
        -11    1    4    4    0    0  0.18419331616E-01 -0.18062136721E-01  0.93334610363E-02  0.27438789624E-01  0.51100000000E-03 0. -1.
         11    1    4    4    0    0  0.37634417189E-01 -0.84646012351E-01  0.47893929130E-01  0.10428512038E+00  0.51100000000E-03 0.  1.
</event>
<event>
 8    1  0.1128641E+005  0.1043930E+01  0.7957747E-01            NaN
         13   -1    0    0    0    0  0.00000000000E+00  0.00000000000E+00  0.74505805969E-08  0.10566000000E+00  0.10566000000E+00 0. -1.
     999900   -1    0    0    0    0 -0.00000000000E+00 -0.00000000000E+00 -0.74505805969E-08  0.93827000000E+00  0.93827000000E+00 0. -1.
     999902    2    1    2    0    0  0.11831255999E-01 -0.18289602659E-01  0.89432017765E-02  0.10203828337E+01  0.10201111009E+01 0.  0.
     999903    2    3    3    0    0 -0.11129131407E+00  0.39746785325E-01 -0.45572769770E-01  0.12825090355E+00  0.20145803175E-01 0.  0.
         14    1    1    2    0    0 -0.11831255999E-01  0.18289602659E-01 -0.89432017765E-02  0.23547166325E-01  0.00000000000E+00 0. -1.
     999901    1    3    3    0    0  0.12312257007E+00 -0.58036387984E-01  0.54515971547E-01  0.89213193012E+00  0.88000000000E+00 0.  1.
        -11    1    4    4    0    0 -0.87669410997E-01  0.24584951452E-01 -0.40793097373E-01  0.99773159600E-01  0.51100000000E-03 0.  1.
         11    1    4    4    0    0 -0.23621903076E-01  0.15161833873E-01 -0.47796723977E-02  0.28477743951E-01  0.51100000000E-03 0. -1.
</event>
<event>
 8    1  0.1128641E+005  0.1043930E+01  0.7957747E-01            NaN
         13   -1    0    0    0    0  0.00000000000E+00  0.00000000000E+00  0.74505805969E-08  0.10566000000E+00  0.10566000000E+00 0.  1.
     999900   -1    0    0    0    0 -0.00000000000E+00 -0.00000000000E+00 -0.74505805969E-08  0.93827000000E+00  0.93827000000E+00 0. -1.
     999902    2    1    2    0    0  0.40542128789E-02  0.14952931504E-01 -0.17960234969E-01  0.10202108760E+01  0.10199351130E+01 0.  0.
     999903    2    3    3    0    0  0.26918323942E-01 -0.80312778178E-01  0.93642919408E-01  0.12776839210E+00  0.19519917090E-01 0.  0.
         14    1    1    2    0    0 -0.40542128789E-02 -0.14952931504E-01  0.17960234969E-01  0.23719123988E-01  0.00000000000E+00 0.  1.
     999901    1    3    3    0    0 -0.22864111063E-01  0.95265709682E-01 -0.11160315438E+00  0.89244248391E+00  0.88000000000E+00 0. -1.
        -11    1    4    4    0    0  0.11460250693E-01 -0.61499719474E-01  0.66579182802E-01  0.91359737001E-01  0.51100000000E-03 0. -1.
         11    1    4    4    0    0  0.15458073249E-01 -0.18813058704E-01  0.27063736606E-01  0.36408655103E-01  0.51100000000E-03 0.  1.
</event>
<event>
 8    1  0.1128641E+005  0.1043930E+01  0.7957747E-01            NaN
         13   -1    0    0    0    0  0.00000000000E+00  0.00000000000E+00  0.74505805969E-08  0.10566000000E+00  0.10566000000E+00 0. -1.
     999900   -1    0    0    0    0 -0.00000000000E+00 -0.00000000000E+00 -0.74505805969E-08  0.93827000000E+00  0.93827000000E+00 0. -1.
     999902    2    1    2    0    0 -0.15359175754E-01 -0.18265697393E-01 -0.10248993686E-03  0.10200647431E+01  0.10197855312E+01 0.  0.
     999903    2    3    3    0    0  0.94396705544E-01 -0.35320898647E-01  0.78929752296E-01  0.12956862934E+00  0.19995499816E-01 0.  0.
         14    1    1    2    0    0  0.15359175754E-01  0.18265697393E-01  0.10248993686E-03  0.23865256866E-01  0.00000000000E+00 0. -1.
     999901    1    3    3    0    0 -0.10975588130E+00  0.17055201254E-01 -0.79032242233E-01  0.89049611379E+00  0.88000000000E+00 0. -1.
        -11    1    4    4    0    0  0.34311279486E-01 -0.15131349316E-01  0.17825204546E-01  0.41523736226E-01  0.51100000000E-03 0.  1.
         11    1    4    4    0    0  0.60085426058E-01 -0.20189549331E-01  0.61104547750E-01  0.88044893114E-01  0.51100000000E-03 0. -1.
</event>
<event>
 8    1  0.1128641E+005  0.1043930E+01  0.7957747E-01            NaN
         13   -1    0    0    0    0  0.00000000000E+00  0.00000000000E+00  0.74505805969E-08  0.10566000000E+00  0.10566000000E+00 0. -1.
     999900   -1    0    0    0    0 -0.00000000000E+00 -0.00000000000E+00 -0.74505805969E-08  0.93827000000E+00  0.93827000000E+00 0.  1.
     999902    2    1    2    0    0 -0.12610145612E-01  0.76910158632E-02 -0.19851803812E-01  0.10191860793E+01  0.10188856671E+01 0.  0.
     999903    2    3    3    0    0 -0.81886130005E-02 -0.73088691094E-01  0.10181051849E+00  0.12713976229E+00  0.19751641251E-01 0.  0.
         14    1    1    2    0    0  0.12610145612E-01 -0.76910158632E-02  0.19851803812E-01  0.24743920707E-01  0.00000000000E+00 0. -1.
     999901    1    3    3    0    0 -0.44215326111E-02  0.80779706958E-01 -0.12166232230E+00  0.89204631700E+00  0.88000000000E+00 0.  1.
        -11    1    4    4    0    0 -0.89266166114E-02 -0.35939128934E-01  0.36504404324E-01  0.52001328144E-01  0.51100000000E-03 0.  1.
         11    1    4    4    0    0  0.73800361084E-03 -0.37149562160E-01  0.65306114165E-01  0.75138434148E-01  0.51100000000E-03 0. -1.
</event>
<event>
 8    1  0.1128641E+005  0.1043930E+01  0.7957747E-01            NaN
         13   -1    0    0    0    0  0.00000000000E+00  0.00000000000E+00  0.74505805969E-08  0.10566000000E+00  0.10566000000E+00 0. -1.
     999900   -1    0    0    0    0 -0.00000000000E+00 -0.00000000000E+00 -0.74505805969E-08  0.93827000000E+00  0.93827000000E+00 0. -1.
     999902    2    1    2    0    0  0.71921716283E-02 -0.13610046936E-01 -0.17113223907E-01  0.10209121125E+01  0.10206525944E+01 0.  0.
     999903    2    3    3    0    0  0.17833812639E-01 -0.12945110242E+00  0.92192666690E-02  0.13286605816E+00  0.22198237347E-01 0.  0.
         14    1    1    2    0    0 -0.71921716283E-02  0.13610046936E-01  0.17113223907E-01  0.23017887453E-01  0.00000000000E+00 0. -1.
     999901    1    3    3    0    0 -0.10641641011E-01  0.11584105548E+00 -0.26332490576E-01  0.88804605439E+00  0.88000000000E+00 0. -1.
        -11    1    4    4    0    0  0.12298783310E-01 -0.98373859924E-01  0.16402563643E-01  0.10048871381E+00  0.51100000000E-03 0.  1.
         11    1    4    4    0    0  0.55350293298E-02 -0.31077242495E-01 -0.71832969742E-02  0.32377344350E-01  0.51100000000E-03 0. -1.
</event>
<event>
 8    1  0.1128641E+005  0.1043930E+01  0.7957747E-01            NaN
         13   -1    0    0    0    0  0.00000000000E+00  0.00000000000E+00  0.74505805969E-08  0.10566000000E+00  0.10566000000E+00 0.  1.
     999900   -1    0    0    0    0 -0.00000000000E+00 -0.00000000000E+00 -0.74505805969E-08  0.93827000000E+00  0.93827000000E+00 0. -1.
     999902    2    1    2    0    0  0.18283204751E-01  0.79730248401E-02 -0.12746681249E-01  0.10202588660E+01  0.10199842308E+01 0.  0.
     999903    2    3    3    0    0  0.83388134432E-01  0.41499019783E-01 -0.93581476159E-01  0.13352502305E+00  0.19891945416E-01 0.  0.
         14    1    1    2    0    0 -0.18283204751E-01 -0.79730248401E-02  0.12746681249E-01  0.23671133980E-01  0.00000000000E+00 0. -1.
     999901    1    3    3    0    0 -0.65104929681E-01 -0.33525994943E-01  0.80834794910E-01  0.88673384297E+00  0.88000000000E+00 0. -1.
        -11    1    4    4    0    0  0.37256590021E-02 -0.20044564313E-02 -0.62600605433E-02  0.75728369579E-02  0.51100000000E-03 0. -1.
         11    1    4    4    0    0  0.79662475430E-01  0.43503476214E-01 -0.87321415616E-01  0.12595218609E+00  0.51100000000E-03 0.  1.
</event>
<event>
 8    1  0.1128641E+005  0.1043930E+01  0.7957747E-01            NaN
         13   -1    0    0    0    0  0.00000000000E+00  0.00000000000E+00  0.74505805969E-08  0.10566000000E+00  0.10566000000E+00 0.  1.
     999900   -1    0    0    0    0 -0.00000000000E+00 -0.00000000000E+00 -0.74505805969E-08  0.93827000000E+00  0.93827000000E+00 0.  1.
     999902    2    1    2    0    0 -0.17669583478E-01  0.56157633648E-02  0.22086319512E-02  0.10252583896E+01  0.10250883555E+01 0.  0.
     999903    2    3    3    0    0 -0.45641446618E-02  0.22492718186E-01 -0.13112402245E+00  0.13495833861E+00  0.22214637284E-01 0.  0.
         14    1    1    2    0    0  0.17669583478E-01 -0.56157633648E-02 -0.22086319512E-02  0.18671610363E-01  0.00000000000E+00 0.  1.
     999901    1    3    3    0    0 -0.13105438817E-01 -0.16876954821E-01  0.13333265440E+00  0.89030005103E+00  0.88000000000E+00 0. -1.
        -11    1    4    4    0    0 -0.98731898781E-02  0.12193532384E-01 -0.10750712862E+00  0.10864716258E+00  0.51100000000E-03 0. -1.
         11    1    4    4    0    0  0.53090452163E-02  0.10299185802E-01 -0.23616893824E-01  0.26311176032E-01  0.51100000000E-03 0.  1.
</event>
<event>
 8    1  0.1342171E+005  0.1043930E+01  0.7957747E-01            NaN
         13   -1    0    0    0    0  0.00000000000E+00  0.00000000000E+00  0.74505805969E-08  0.10566000000E+00  0.10566000000E+00 0. -1.
     999900   -1    0    0    0    0 -0.00000000000E+00 -0.00000000000E+00 -0.74505805969E-08  0.93827000000E+00  0.93827000000E+00 0.  1.
     999902    2    1    2    0    0 -0.20351576305E-01  0.68954068278E-02 -0.86669643412E-02  0.10207599857E+01  0.10204969862E+01 0.  0.
     999903    2    3    3    0    0 -0.88495363403E-01 -0.77322598187E-01  0.56895760251E-01  0.13169602905E+00  0.17219262458E-01 0.  0.
         14    1    1    2    0    0  0.20351576305E-01 -0.68954068278E-02  0.86669643412E-02  0.23170014336E-01  0.00000000000E+00 0. -1.
     999901    1    3    3    0    0  0.68143787097E-01  0.84218005015E-01 -0.65562724592E-01  0.88906395661E+00  0.88000000000E+00 0.  1.
        -11    1    4    4    0    0 -0.28678312477E-01 -0.34945669307E-01  0.25910350657E-01  0.52108087683E-01  0.51100000000E-03 0.  1.
         11    1    4    4    0    0 -0.59817050926E-01 -0.42376928880E-01  0.30985409594E-01  0.79587941370E-01  0.51100000000E-03 0. -1.
</event>
<event>
 8    1  0.1128641E+005  0.1043930E+01  0.7957747E-01            NaN
         13   -1    0    0    0    0  0.00000000000E+00  0.00000000000E+00  0.74505805969E-08  0.10566000000E+00  0.10566000000E+00 0.  1.
     999900   -1    0    0    0    0 -0.00000000000E+00 -0.00000000000E+00 -0.74505805969E-08  0.93827000000E+00  0.93827000000E+00 0.  1.
     999902    2    1    2    0    0  0.86269522740E-02  0.16158932738E-01  0.15783019490E-01  0.10197506882E+01  0.10194639901E+01 0.  0.
     999903    2    3    3    0    0  0.72507213271E-01 -0.47663193463E-01 -0.92938831187E-01  0.12847385563E+00  0.18407315143E-01 0.  0.
         14    1    1    2    0    0 -0.86269522740E-02 -0.16158932738E-01 -0.15783019490E-01  0.24179311756E-01  0.00000000000E+00 0. -1.
     999901    1    3    3    0    0 -0.63880260997E-01  0.63822126201E-01  0.10872185068E+00  0.89127683261E+00  0.88000000000E+00 0. -1.
        -11    1    4    4    0    0  0.51093512697E-01 -0.35157725705E-01 -0.53631196658E-01  0.81994994313E-01  0.51100000000E-03 0. -1.
         11    1    4    4    0    0  0.21413700575E-01 -0.12505467759E-01 -0.39307634529E-01  0.46478861318E-01  0.51100000000E-03 0.  1.
</event>
<event>
 8    1  0.1128641E+005  0.1043930E+01  0.7957747E-01            NaN
         13   -1    0    0    0    0  0.00000000000E+00  0.00000000000E+00  0.74505805969E-08  0.10566000000E+00  0.10566000000E+00 0.  1.
     999900   -1    0    0    0    0 -0.00000000000E+00 -0.00000000000E+00 -0.74505805969E-08  0.93827000000E+00  0.93827000000E+00 0.  1.
     999902    2    1    2    0    0 -0.10564757807E-01 -0.13858513091E-01 -0.15501315160E-01  0.10206069799E+01  0.10203404551E+01 0.  0.
     999903    2    3    3    0    0 -0.17248077582E-01 -0.10383800480E-01  0.12571429793E+00  0.12931657286E+00  0.22657709944E-01 0.  0.
         14    1    1    2    0    0  0.10564757807E-01  0.13858513091E-01  0.15501315160E-01  0.23323020051E-01  0.00000000000E+00 0.  1.
     999901    1    3    3    0    0  0.66833197755E-02 -0.34747126107E-02 -0.14121561309E+00  0.89129040709E+00  0.88000000000E+00 0.  1.
        -11    1    4    4    0    0 -0.20901010989E-01 -0.39085479465E-02  0.71625040710E-01  0.74716374277E-01  0.51100000000E-03 0. -1.
         11    1    4    4    0    0  0.36529334063E-02 -0.64752525336E-02  0.54089257218E-01  0.54600198582E-01  0.51100000000E-03 0.  1.
</event>
<event>
 8    1  0.1128641E+005  0.1043930E+01  0.7957747E-01            NaN
         13   -1    0    0    0    0  0.00000000000E+00  0.00000000000E+00  0.74505805969E-08  0.10566000000E+00  0.10566000000E+00 0. -1.
     999900   -1    0    0    0    0 -0.00000000000E+00 -0.00000000000E+00 -0.74505805969E-08  0.93827000000E+00  0.93827000000E+00 0.  1.
     999902    2    1    2    0    0  0.43605381482E-02 -0.20931406335E-01 -0.97923840330E-02  0.10204134346E+01  0.10201424159E+01 0.  0.
     999903    2    3    3    0    0  0.70852262378E-01 -0.36024881854E-01  0.10225771181E+00  0.13069202516E+00  0.17490872463E-01 0.  0.
         14    1    1    2    0    0 -0.43605381482E-02  0.20931406335E-01  0.97923840330E-02  0.23516565420E-01  0.00000000000E+00 0.  1.
     999901    1    3    3    0    0 -0.66491724230E-01  0.15093475519E-01 -0.11205009585E+00  0.88972140942E+00  0.88000000000E+00 0.  1.
        -11    1    4    4    0    0  0.37159401673E-01 -0.21606312733E-01  0.41596907260E-01  0.59818205399E-01  0.51100000000E-03 0.  1.
         11    1    4    4    0    0  0.33692860706E-01 -0.14418569121E-01  0.60660804553E-01  0.70873819765E-01  0.51100000000E-03 0. -1.
</event>
<event>
 8    1  0.1128641E+005  0.1043930E+01  0.7957747E-01            NaN
         13   -1    0    0    0    0  0.00000000000E+00  0.00000000000E+00  0.74505805969E-08  0.10566000000E+00  0.10566000000E+00 0.  1.
     999900   -1    0    0    0    0 -0.00000000000E+00 -0.00000000000E+00 -0.74505805969E-08  0.93827000000E+00  0.93827000000E+00 0. -1.
     999902    2    1    2    0    0  0.16644382851E-01  0.14158135148E-02 -0.18004149280E-01  0.10193700855E+01  0.10190741788E+01 0.  0.
     999903    2    3    3    0    0  0.94815317519E-01  0.84518193996E-01  0.25097215463E-01  0.13095890351E+00  0.19674720610E-01 0.  0.
         14    1    1    2    0    0 -0.16644382851E-01 -0.14158135148E-02  0.18004149280E-01  0.24559914489E-01  0.00000000000E+00 0.  1.
     999901    1    3    3    0    0 -0.78170934668E-01 -0.83102380481E-01 -0.43101364743E-01  0.88841118200E+00  0.88000000000E+00 0.  1.
        -11    1    4    4    0    0  0.71366668275E-01  0.73140843676E-01  0.23397161696E-01  0.10483545512E+00  0.51100000000E-03 0.  1.
         11    1    4    4    0    0  0.23448649244E-01  0.11377350320E-01  0.17000537665E-02  0.26123448384E-01  0.51100000000E-03 0. -1.
</event>
<event>
 8    1  0.1128641E+005  0.1043930E+01  0.7957747E-01            NaN
         13   -1    0    0    0    0  0.00000000000E+00  0.00000000000E+00  0.74505805969E-08  0.10566000000E+00  0.10566000000E+00 0. -1.
     999900   -1    0    0    0    0 -0.00000000000E+00 -0.00000000000E+00 -0.74505805969E-08  0.93827000000E+00  0.93827000000E+00 0.  1.
     999902    2    1    2    0    0  0.57568346854E-02 -0.79350381544E-02  0.22276744104E-01  0.10195915673E+01  0.10193010374E+01 0.  0.
     999903    2    3    3    0    0 -0.29979984588E-01 -0.40039045052E-01  0.12124115914E+00  0.13274223237E+00  0.20473323643E-01 0.  0.
         14    1    1    2    0    0 -0.57568346854E-02  0.79350381544E-02 -0.22276744104E-01  0.24338432653E-01  0.00000000000E+00 0.  1.
     999901    1    3    3    0    0  0.35736819273E-01  0.32104006898E-01 -0.98964415031E-01  0.88684933498E+00  0.88000000000E+00 0.  1.
        -11    1    4    4    0    0 -0.32995434298E-01 -0.34840161188E-01  0.10899631476E+00  0.11909237284E+00  0.51100000000E-03 0. -1.
         11    1    4    4    0    0  0.30154497103E-02 -0.51988838644E-02  0.12244844375E-01  0.13649859529E-01  0.51100000000E-03 0.  1.
</event>
<event>
 8    1  0.1128641E+005  0.1043930E+01  0.7957747E-01            NaN
         13   -1    0    0    0    0  0.00000000000E+00  0.00000000000E+00  0.74505805969E-08  0.10566000000E+00  0.10566000000E+00 0.  1.
     999900   -1    0    0    0    0 -0.00000000000E+00 -0.00000000000E+00 -0.74505805969E-08  0.93827000000E+00  0.93827000000E+00 0. -1.
     999902    2    1    2    0    0 -0.11643656125E-01 -0.43878640418E-03  0.32384435928E-01  0.10095131589E+01  0.10089263100E+01 0.  0.
     999903    2    3    3    0    0 -0.39774928953E-01 -0.30590162097E-01  0.11277906764E+00  0.12488681360E+00  0.18968266218E-01 0.  0.
         14    1    1    2    0    0  0.11643656125E-01  0.43878640418E-03 -0.32384435928E-01  0.34416841108E-01  0.00000000000E+00 0. -1.
     999901    1    3    3    0    0  0.28131272828E-01  0.30151375693E-01 -0.80394631715E-01  0.88462634529E+00  0.88000000000E+00 0. -1.
        -11    1    4    4    0    0 -0.24052222456E-01 -0.14739337068E-01  0.83001282002E-01  0.87665451560E-01  0.51100000000E-03 0.  1.
         11    1    4    4    0    0 -0.15722706498E-01 -0.15850825029E-01  0.29777785642E-01  0.37221362045E-01  0.51100000000E-03 0. -1.
</event>
<event>
 8    1  0.1128641E+005  0.1043930E+01  0.7957747E-01            NaN
         13   -1    0    0    0    0  0.00000000000E+00  0.00000000000E+00  0.74505805969E-08  0.10566000000E+00  0.10566000000E+00 0. -1.
     999900   -1    0    0    0    0 -0.00000000000E+00 -0.00000000000E+00 -0.74505805969E-08  0.93827000000E+00  0.93827000000E+00 0.  1.
     999902    2    1    2    0    0 -0.52837757895E-02  0.70272850802E-02 -0.21549141221E-01  0.10206562700E+01  0.10203908834E+01 0.  0.
     999903    2    3    3    0    0  0.16923922569E-01 -0.70243230714E-01  0.10381230479E+00  0.12814329717E+00  0.20571323885E-01 0.  0.
         14    1    1    2    0    0  0.52837757895E-02 -0.70272850802E-02  0.21549141221E-01  0.23273730031E-01  0.00000000000E+00 0. -1.
     999901    1    3    3    0    0 -0.22207698358E-01  0.77270515795E-01 -0.12536144601E+00  0.89251297280E+00  0.88000000000E+00 0.  1.
        -11    1    4    4    0    0 -0.60511109176E-03 -0.41126177400E-01  0.57110720825E-01  0.70381987618E-01  0.51100000000E-03 0.  1.
         11    1    4    4    0    0  0.17529033661E-01 -0.29117053315E-01  0.46701583964E-01  0.57761309547E-01  0.51100000000E-03 0. -1.
</event>
<event>
 8    1  0.1128641E+005  0.1043930E+01  0.7957747E-01            NaN
         13   -1    0    0    0    0  0.00000000000E+00  0.00000000000E+00  0.74505805969E-08  0.10566000000E+00  0.10566000000E+00 0.  1.
     999900   -1    0    0    0    0 -0.00000000000E+00 -0.00000000000E+00 -0.74505805969E-08  0.93827000000E+00  0.93827000000E+00 0.  1.
     999902    2    1    2    0    0 -0.15651154707E-01  0.18701042827E-01 -0.40821357981E-02  0.10192044772E+01  0.10189045170E+01 0.  0.
     999903    2    3    3    0    0  0.71938362953E-01  0.75032674069E-01 -0.75826529305E-01  0.13016430132E+00  0.19699049442E-01 0.  0.
         14    1    1    2    0    0  0.15651154707E-01 -0.18701042827E-01  0.40821357981E-02  0.24725522829E-01  0.00000000000E+00 0.  1.
     999901    1    3    3    0    0 -0.87589517660E-01 -0.56331631242E-01  0.71744393507E-01  0.88904017585E+00  0.88000000000E+00 0. -1.
        -11    1    4    4    0    0  0.32140434256E-01  0.47353681048E-01 -0.38453654838E-01  0.68951601246E-01  0.51100000000E-03 0. -1.
         11    1    4    4    0    0  0.39797928696E-01  0.27678993020E-01 -0.37372874467E-01  0.61212700072E-01  0.51100000000E-03 0.  1.
</event>
<event>
 8    1  0.1128641E+005  0.1043930E+01  0.7957747E-01            NaN
         13   -1    0    0    0    0  0.00000000000E+00  0.00000000000E+00  0.74505805969E-08  0.10566000000E+00  0.10566000000E+00 0. -1.
     999900   -1    0    0    0    0 -0.00000000000E+00 -0.00000000000E+00 -0.74505805969E-08  0.93827000000E+00  0.93827000000E+00 0.  1.
     999902    2    1    2    0    0  0.11860989427E-01  0.18316262356E-01 -0.99519660778E-02  0.10199464605E+01  0.10196644410E+01 0.  0.
     999903    2    3    3    0    0 -0.55245700572E-01  0.11156693376E+00  0.34630528255E-01  0.13135960807E+00  0.23596715943E-01 0.  0.
         14    1    1    2    0    0 -0.11860989427E-01 -0.18316262356E-01  0.99519660778E-02  0.23983539474E-01  0.00000000000E+00 0. -1.
     999901    1    3    3    0    0  0.67106689999E-01 -0.93250671407E-01 -0.44582494333E-01  0.88858685246E+00  0.88000000000E+00 0.  1.
        -11    1    4    4    0    0 -0.11017287050E-01  0.21033856745E-01  0.16656424767E-01  0.29008642687E-01  0.51100000000E-03 0.  1.
         11    1    4    4    0    0 -0.44228413521E-01  0.90533077019E-01  0.17974103488E-01  0.10235096538E+00  0.51100000000E-03 0. -1.
</event>
<event>
 8    1  0.1128641E+005  0.1043930E+01  0.7957747E-01            NaN
         13   -1    0    0    0    0  0.00000000000E+00  0.00000000000E+00  0.74505805969E-08  0.10566000000E+00  0.10566000000E+00 0.  1.
     999900   -1    0    0    0    0 -0.00000000000E+00 -0.00000000000E+00 -0.74505805969E-08  0.93827000000E+00  0.93827000000E+00 0. -1.
     999902    2    1    2    0    0  0.17141005885E-02 -0.21304055330E-01  0.10498608310E-01  0.10201177827E+01  0.10198398252E+01 0.  0.
     999903    2    3    3    0    0 -0.98112560460E-01  0.58670361770E-01 -0.55043768773E-01  0.12845805345E+00  0.20084052006E-01 0.  0.
         14    1    1    2    0    0 -0.17141005885E-02  0.21304055330E-01 -0.10498608310E-01  0.23812217259E-01  0.00000000000E+00 0. -1.
     999901    1    3    3    0    0  0.99826661048E-01 -0.79974417101E-01  0.65542377084E-01  0.89165972929E+00  0.88000000000E+00 0.  1.
        -11    1    4    4    0    0 -0.51620463079E-01  0.40703842606E-01 -0.37067818998E-01  0.75470254655E-01  0.51100000000E-03 0. -1.
         11    1    4    4    0    0 -0.46492097381E-01  0.17966519164E-01 -0.17975949775E-01  0.52987798794E-01  0.51100000000E-03 0.  1.
</event>
<event>
 8    1  0.1128641E+005  0.1043930E+01  0.7957747E-01            NaN
         13   -1    0    0    0    0  0.00000000000E+00  0.00000000000E+00  0.74505805969E-08  0.10566000000E+00  0.10566000000E+00 0.  1.
     999900   -1    0    0    0    0 -0.00000000000E+00 -0.00000000000E+00 -0.74505805969E-08  0.93827000000E+00  0.93827000000E+00 0. -1.
     999902    2    1    2    0    0 -0.87655782983E-02 -0.47731877141E-02  0.21936367501E-01  0.10198297323E+01  0.10195449279E+01 0.  0.
     999903    2    3    3    0    0 -0.12936312888E-01  0.10331510364E+00  0.77964227403E-01  0.13143815488E+00  0.18873499205E-01 0.  0.
         14    1    1    2    0    0  0.87655782983E-02  0.47731877141E-02 -0.21936367501E-01  0.24100267696E-01  0.00000000000E+00 0. -1.
     999901    1    3    3    0    0  0.41707345901E-02 -0.10808829135E+00 -0.56027859902E-01  0.88839157743E+00  0.88000000000E+00 0.  1.
        -11    1    4    4    0    0 -0.48040553025E-02  0.36741197468E-01  0.39321579204E-01  0.54031863292E-01  0.51100000000E-03 0. -1.
         11    1    4    4    0    0 -0.81322575858E-02  0.66573906172E-01  0.38642648199E-01  0.77406291587E-01  0.51100000000E-03 0.  1.
</event>
<event>
 8    1  0.1128641E+005  0.1043930E+01  0.7957747E-01            NaN
         13   -1    0    0    0    0  0.00000000000E+00  0.00000000000E+00  0.74505805969E-08  0.10566000000E+00  0.10566000000E+00 0.  1.
     999900   -1    0    0    0    0 -0.00000000000E+00 -0.00000000000E+00 -0.74505805969E-08  0.93827000000E+00  0.93827000000E+00 0. -1.
     999902    2    1    2    0    0 -0.47186186041E-02 -0.23745024713E-01 -0.27422674823E-02  0.10195658544E+01  0.10192747028E+01 0.  0.
     999903    2    3    3    0    0 -0.95872194780E-01  0.71654366601E-01  0.42538398114E-01  0.12857743865E+00  0.19920251773E-01 0.  0.
         14    1    1    2    0    0  0.47186186041E-02  0.23745024713E-01  0.27422674823E-02  0.24364145606E-01  0.00000000000E+00 0. -1.
     999901    1    3    3    0    0  0.91153576176E-01 -0.95399391315E-01 -0.45280665596E-01  0.89098841574E+00  0.88000000000E+00 0. -1.
        -11    1    4    4    0    0 -0.57484839165E-01  0.41284363996E-01  0.35313700242E-01  0.79096295680E-01  0.51100000000E-03 0.  1.
         11    1    4    4    0    0 -0.38387355615E-01  0.30370002605E-01  0.72246978723E-02  0.49481142970E-01  0.51100000000E-03 0. -1.
</event>
<event>
 8    1  0.1128641E+005  0.1043930E+01  0.7957747E-01            NaN
         13   -1    0    0    0    0  0.00000000000E+00  0.00000000000E+00  0.74505805969E-08  0.10566000000E+00  0.10566000000E+00 0.  1.
     999900   -1    0    0    0    0 -0.00000000000E+00 -0.00000000000E+00 -0.74505805969E-08  0.93827000000E+00  0.93827000000E+00 0.  1.
     999902    2    1    2    0    0 -0.14929403747E-01  0.11818333557E-01  0.20209543183E-01  0.10161633700E+01  0.10157839381E+01 0.  0.
     999903    2    3    3    0    0 -0.73950580043E-01  0.62619795709E-01  0.84790188611E-01  0.13036714765E+00  0.20403186011E-01 0.  0.
         14    1    1    2    0    0  0.14929403747E-01 -0.11818333557E-01 -0.20209543183E-01  0.27766629972E-01  0.00000000000E+00 0. -1.
     999901    1    3    3    0    0  0.59021176296E-01 -0.50801462152E-01 -0.64580645428E-01  0.88579622237E+00  0.88000000000E+00 0.  1.
        -11    1    4    4    0    0 -0.31193612907E-01  0.13806746805E-01  0.28083374938E-01  0.44188288181E-01  0.51100000000E-03 0.  1.
         11    1    4    4    0    0 -0.42756967136E-01  0.48813048904E-01  0.56706813673E-01  0.86178859473E-01  0.51100000000E-03 0. -1.
</event>
<event>
 8    1  0.1128641E+005  0.1043930E+01  0.7957747E-01            NaN
         13   -1    0    0    0    0  0.00000000000E+00  0.00000000000E+00  0.74505805969E-08  0.10566000000E+00  0.10566000000E+00 0.  1.
     999900   -1    0    0    0    0 -0.00000000000E+00 -0.00000000000E+00 -0.74505805969E-08  0.93827000000E+00  0.93827000000E+00 0.  1.
     999902    2    1    2    0    0  0.45393518034E-03 -0.16025755757E-01 -0.17246738451E-01  0.10203825821E+01  0.10201108434E+01 0.  0.
     999903    2    3    3    0    0  0.77432266949E-01  0.88839601315E-01  0.49228708893E-01  0.12833920207E+00  0.12619599110E-01 0.  0.
         14    1    1    2    0    0 -0.45393518034E-03  0.16025755757E-01  0.17246738451E-01  0.23547417946E-01  0.00000000000E+00 0.  1.
     999901    1    3    3    0    0 -0.76978331769E-01 -0.10486535707E+00 -0.66475447344E-01  0.89204337999E+00  0.88000000000E+00 0.  1.
        -11    1    4    4    0    0  0.11786617814E-01  0.19247047272E-01  0.60177544796E-02  0.23363383277E-01  0.51100000000E-03 0. -1.
         11    1    4    4    0    0  0.65645649136E-01  0.69592554042E-01  0.43210954413E-01  0.10497581879E+00  0.51100000000E-03 0.  1.
</event>
<event>
 8    1  0.1128641E+005  0.1043930E+01  0.7957747E-01            NaN
         13   -1    0    0    0    0  0.00000000000E+00  0.00000000000E+00  0.74505805969E-08  0.10566000000E+00  0.10566000000E+00 0. -1.
     999900   -1    0    0    0    0 -0.00000000000E+00 -0.00000000000E+00 -0.74505805969E-08  0.93827000000E+00  0.93827000000E+00 0. -1.
     999902    2    1    2    0    0  0.43564143706E-03 -0.72745411073E-02 -0.23023941901E-01  0.10197802457E+01  0.10194942564E+01 0.  0.
     999903    2    3    3    0    0 -0.54711227371E-01 -0.24381026242E-01 -0.11700043795E+00  0.13289502721E+00  0.19601860535E-01 0.  0.
         14    1    1    2    0    0 -0.43564143706E-03  0.72745411073E-02  0.23023941901E-01  0.24149754294E-01  0.00000000000E+00 0. -1.
     999901    1    3    3    0    0  0.55146868808E-01  0.17106485135E-01  0.93976496048E-01  0.88688521849E+00  0.88000000000E+00 0.  1.
        -11    1    4    4    0    0  0.76833632559E-03 -0.30965331777E-02 -0.98915402493E-02  0.10405890060E-01  0.51100000000E-03 0. -1.
         11    1    4    4    0    0 -0.55479563696E-01 -0.21284493064E-01 -0.10710889770E+00  0.12248913715E+00  0.51100000000E-03 0.  1.
</event>
<event>
 8    1  0.1128641E+005  0.1043930E+01  0.7957747E-01            NaN
         13   -1    0    0    0    0  0.00000000000E+00  0.00000000000E+00  0.74505805969E-08  0.10566000000E+00  0.10566000000E+00 0.  1.
     999900   -1    0    0    0    0 -0.00000000000E+00 -0.00000000000E+00 -0.74505805969E-08  0.93827000000E+00  0.93827000000E+00 0.  1.
     999902    2    1    2    0    0 -0.17057606117E-01  0.13433590202E-01 -0.62551116954E-02  0.10213346533E+01  0.10210846803E+01 0.  0.
     999903    2    3    3    0    0  0.12266615255E+00  0.25085213951E-01 -0.28574154684E-01  0.12995559317E+00  0.19892735879E-01 0.  0.
         14    1    1    2    0    0  0.17057606117E-01 -0.13433590202E-01  0.62551116954E-02  0.22595346744E-01  0.00000000000E+00 0. -1.
     999901    1    3    3    0    0 -0.13972375867E+00 -0.11651623749E-01  0.22319042989E-01  0.89137906008E+00  0.88000000000E+00 0. -1.
        -11    1    4    4    0    0  0.92746297571E-01  0.26712043426E-01 -0.18036567608E-01  0.98188532269E-01  0.51100000000E-03 0.  1.
         11    1    4    4    0    0  0.29919854980E-01 -0.16268294745E-02 -0.10537587076E-01  0.31767060905E-01  0.51100000000E-03 0. -1.
</event>
<event>
 8    1  0.1128641E+005  0.1043930E+01  0.7957747E-01            NaN
         13   -1    0    0    0    0  0.00000000000E+00  0.00000000000E+00  0.74505805969E-08  0.10566000000E+00  0.10566000000E+00 0.  1.
     999900   -1    0    0    0    0 -0.00000000000E+00 -0.00000000000E+00 -0.74505805969E-08  0.93827000000E+00  0.93827000000E+00 0. -1.
     999902    2    1    2    0    0 -0.27457210496E-02  0.16696576118E-01  0.17539526137E-01  0.10195589185E+01  0.10192675991E+01 0.  0.
     999903    2    3    3    0    0  0.61497885636E-01  0.70951998877E-01  0.91136794986E-01  0.13249215103E+00  0.20786500491E-01 0.  0.
         14    1    1    2    0    0  0.27457210496E-02 -0.16696576118E-01 -0.17539526137E-01  0.24371081536E-01  0.00000000000E+00 0. -1.
     999901    1    3    3    0    0 -0.64243606686E-01 -0.54255422759E-01 -0.73597268849E-01  0.88706676743E+00  0.88000000000E+00 0.  1.
        -11    1    4    4    0    0  0.93494007460E-02  0.59853909366E-02  0.36787699862E-02  0.11706009934E-01  0.51100000000E-03 0. -1.
         11    1    4    4    0    0  0.52148484890E-01  0.64966607940E-01  0.87458025000E-01  0.12078614110E+00  0.51100000000E-03 0.  1.
</event>
<event>
 8    1  0.1128641E+005  0.1043930E+01  0.7957747E-01            NaN
         13   -1    0    0    0    0  0.00000000000E+00  0.00000000000E+00  0.74505805969E-08  0.10566000000E+00  0.10566000000E+00 0. -1.
     999900   -1    0    0    0    0 -0.00000000000E+00 -0.00000000000E+00 -0.74505805969E-08  0.93827000000E+00  0.93827000000E+00 0. -1.
     999902    2    1    2    0    0 -0.51975079453E-02  0.14984791298E-01 -0.16855516535E-01  0.10207855299E+01  0.10205231166E+01 0.  0.
     999903    2    3    3    0    0 -0.22918078522E-01 -0.12520279319E+00  0.82376375175E-02  0.12915991123E+00  0.20333377751E-01 0.  0.
         14    1    1    2    0    0  0.51975079453E-02 -0.14984791298E-01  0.16855516535E-01  0.23144470112E-01  0.00000000000E+00 0. -1.
     999901    1    3    3    0    0  0.17720570577E-01  0.14018758449E+00 -0.25093154053E-01  0.89162561866E+00  0.88000000000E+00 0. -1.
        -11    1    4    4    0    0  0.17141365468E-02 -0.30143603044E-02  0.26375016734E-02  0.43865895891E-02  0.51100000000E-03 0.  1.
         11    1    4    4    0    0 -0.24632215069E-01 -0.12218843289E+00  0.56001358440E-02  0.12477332164E+00  0.51100000000E-03 0. -1.
</event>
<event>
 8    1  0.1128641E+005  0.1043930E+01  0.7957747E-01            NaN
         13   -1    0    0    0    0  0.00000000000E+00  0.00000000000E+00  0.74505805969E-08  0.10566000000E+00  0.10566000000E+00 0. -1.
     999900   -1    0    0    0    0 -0.00000000000E+00 -0.00000000000E+00 -0.74505805969E-08  0.93827000000E+00  0.93827000000E+00 0.  1.
     999902    2    1    2    0    0 -0.24143227000E-01 -0.27344980866E-02  0.69110970391E-02  0.10186686431E+01  0.10183553743E+01 0.  0.
     999903    2    3    3    0    0 -0.13033527264E+00  0.10189378908E-01  0.23800073758E-03  0.13216522666E+00  0.19403189387E-01 0.  0.
         14    1    1    2    0    0  0.24143227000E-01  0.27344980866E-02 -0.69110970391E-02  0.25261356892E-01  0.00000000000E+00 0.  1.
     999901    1    3    3    0    0  0.10619204564E+00 -0.12923876994E-01  0.66730963015E-02  0.88650341644E+00  0.88000000000E+00 0.  1.
        -11    1    4    4    0    0 -0.98908025070E-01  0.12075295655E-01  0.72461090808E-02  0.99906843641E-01  0.51100000000E-03 0.  1.
         11    1    4    4    0    0 -0.31427247568E-01 -0.18859167473E-02 -0.70081083432E-02  0.32258383023E-01  0.51100000000E-03 0. -1.
</event>
<event>
 8    1  0.1128641E+005  0.1043930E+01  0.7957747E-01            NaN
         13   -1    0    0    0    0  0.00000000000E+00  0.00000000000E+00  0.74505805969E-08  0.10566000000E+00  0.10566000000E+00 0. -1.
     999900   -1    0    0    0    0 -0.00000000000E+00 -0.00000000000E+00 -0.74505805969E-08  0.93827000000E+00  0.93827000000E+00 0. -1.
     999902    2    1    2    0    0 -0.19492205446E-01  0.13265570629E-01 -0.77753040576E-02  0.10191030632E+01  0.10188006069E+01 0.  0.
     999903    2    3    3    0    0  0.30131701651E-01 -0.12153201453E+00  0.10574502643E-01  0.12726808042E+00  0.20184008204E-01 0.  0.
         14    1    1    2    0    0  0.19492205446E-01 -0.13265570629E-01  0.77753040576E-02  0.24826936791E-01  0.00000000000E+00 0.  1.
     999901    1    3    3    0    0 -0.49623907097E-01  0.13479758516E+00 -0.18349806700E-01  0.89183498279E+00  0.88000000000E+00 0. -1.
        -11    1    4    4    0    0  0.14975160269E-01 -0.88662808195E-01  0.14276679044E-02  0.89931353480E-01  0.51100000000E-03 0.  1.
         11    1    4    4    0    0  0.15156541382E-01 -0.32869206336E-01  0.91468347385E-02  0.37336726940E-01  0.51100000000E-03 0. -1.
</event>
<event>
 8    1  0.1128641E+005  0.1043930E+01  0.7957747E-01            NaN
         13   -1    0    0    0    0  0.00000000000E+00  0.00000000000E+00  0.74505805969E-08  0.10566000000E+00  0.10566000000E+00 0. -1.
     999900   -1    0    0    0    0 -0.00000000000E+00 -0.00000000000E+00 -0.74505805969E-08  0.93827000000E+00  0.93827000000E+00 0. -1.
     999902    2    1    2    0    0 -0.13019472746E-01  0.19696863009E-01 -0.49581271937E-02  0.10198041610E+01  0.10195187446E+01 0.  0.
     999903    2    3    3    0    0 -0.12631947858E-01 -0.45633551096E-01  0.11808782695E+00  0.12884483530E+00  0.20353614361E-01 0.  0.
         14    1    1    2    0    0  0.13019472746E-01 -0.19696863009E-01  0.49581271937E-02  0.24125839016E-01  0.00000000000E+00 0.  1.
     999901    1    3    3    0    0 -0.38752488759E-03  0.65330414105E-01 -0.12304595415E+00  0.89095932568E+00  0.88000000000E+00 0. -1.
        -11    1    4    4    0    0 -0.23703753549E-02 -0.39244702375E-01  0.86414749818E-01  0.94939641093E-01  0.51100000000E-03 0. -1.
         11    1    4    4    0    0 -0.10261572503E-01 -0.63888487205E-02  0.31673077136E-01  0.33905194211E-01  0.51100000000E-03 0.  1.
</event>
<event>
 8    1  0.1128641E+005  0.1043930E+01  0.7957747E-01            NaN
         13   -1    0    0    0    0  0.00000000000E+00  0.00000000000E+00  0.74505805969E-08  0.10566000000E+00  0.10566000000E+00 0. -1.
     999900   -1    0    0    0    0 -0.00000000000E+00 -0.00000000000E+00 -0.74505805969E-08  0.93827000000E+00  0.93827000000E+00 0.  1.
     999902    2    1    2    0    0  0.56665785336E-03 -0.68159324233E-02 -0.24396709672E-01  0.10185927255E+01  0.10182775471E+01 0.  0.
     999903    2    3    3    0    0  0.12655827807E+00  0.57744868164E-02 -0.21838526897E-01  0.12952638866E+00  0.15805747545E-01 0.  0.
         14    1    1    2    0    0 -0.56665785336E-03  0.68159324233E-02  0.24396709672E-01  0.25337274494E-01  0.00000000000E+00 0. -1.
     999901    1    3    3    0    0 -0.12599162022E+00 -0.12590419240E-01 -0.25581827755E-02  0.88906633685E+00  0.88000000000E+00 0.  1.
        -11    1    4    4    0    0  0.31141903985E-01 -0.51558299065E-03  0.11703446025E-02  0.31172340899E-01  0.51100000000E-03 0. -1.
         11    1    4    4    0    0  0.95416374084E-01  0.62900698070E-02 -0.23008871499E-01  0.98354047757E-01  0.51100000000E-03 0.  1.
</event>
<event>
 8    1  0.1128641E+005  0.1043930E+01  0.7957747E-01            NaN
         13   -1    0    0    0    0  0.00000000000E+00  0.00000000000E+00  0.74505805969E-08  0.10566000000E+00  0.10566000000E+00 0.  1.
     999900   -1    0    0    0    0 -0.00000000000E+00 -0.00000000000E+00 -0.74505805969E-08  0.93827000000E+00  0.93827000000E+00 0.  1.
     999902    2    1    2    0    0  0.10001131985E-01 -0.14131776209E-01  0.15409099292E-01  0.10207530701E+01  0.10204899118E+01 0.  0.
     999903    2    3    3    0    0  0.11385976802E+00 -0.65663550164E-01  0.58363487853E-02  0.13309673029E+00  0.20122824205E-01 0.  0.
         14    1    1    2    0    0 -0.10001131985E-01  0.14131776209E-01 -0.15409099292E-01  0.23176929926E-01  0.00000000000E+00 0. -1.
     999901    1    3    3    0    0 -0.10385863603E+00  0.51531773955E-01  0.95727505069E-02  0.88765633978E+00  0.88000000000E+00 0. -1.
        -11    1    4    4    0    0  0.10788680126E+00 -0.62775847809E-01  0.10040924348E-01  0.12522559737E+00  0.51100000000E-03 0. -1.
         11    1    4    4    0    0  0.59729667551E-02 -0.28877023557E-02 -0.42045755629E-02  0.78711329183E-02  0.51100000000E-03 0.  1.
</event>
<event>
 8    1  0.1128641E+005  0.1043930E+01  0.7957747E-01            NaN
         13   -1    0    0    0    0  0.00000000000E+00  0.00000000000E+00  0.74505805969E-08  0.10566000000E+00  0.10566000000E+00 0. -1.
     999900   -1    0    0    0    0 -0.00000000000E+00 -0.00000000000E+00 -0.74505805969E-08  0.93827000000E+00  0.93827000000E+00 0. -1.
     999902    2    1    2    0    0  0.15933565984E-01  0.50775552147E-02 -0.55846757448E-02  0.10262990983E+01  0.10261476455E+01 0.  0.
     999903    2    3    3    0    0  0.40991592818E-02  0.10952600669E+00 -0.79769654826E-01  0.13694374562E+00  0.19433023101E-01 0.  0.
         14    1    1    2    0    0 -0.15933565984E-01 -0.50775552147E-02  0.55846757448E-02  0.17630901709E-01  0.00000000000E+00 0. -1.
     999901    1    3    3    0    0  0.11834406702E-01 -0.10444845147E+00  0.74184979082E-01  0.88935535267E+00  0.88000000000E+00 0.  1.
        -11    1    4    4    0    0  0.75696955241E-02  0.71278436779E-01 -0.42016864730E-01  0.83087868445E-01  0.51100000000E-03 0.  1.
         11    1    4    4    0    0 -0.34705362423E-02  0.38247569907E-01 -0.37752790096E-01  0.53855877178E-01  0.51100000000E-03 0. -1.
</event>
<event>
 8    1  0.1128641E+005  0.1043930E+01  0.7957747E-01            NaN
         13   -1    0    0    0    0  0.00000000000E+00  0.00000000000E+00  0.74505805969E-08  0.10566000000E+00  0.10566000000E+00 0. -1.
     999900   -1    0    0    0    0 -0.00000000000E+00 -0.00000000000E+00 -0.74505805969E-08  0.93827000000E+00  0.93827000000E+00 0. -1.
     999902    2    1    2    0    0  0.92009610965E-02  0.11272956577E-01  0.14315682983E-01  0.10235173565E+01  0.10233137852E+01 0.  0.
     999903    2    3    3    0    0 -0.11952606518E+00 -0.37184623554E-02 -0.49978349292E-01  0.13170509346E+00  0.23411301262E-01 0.  0.
         14    1    1    2    0    0 -0.92009610965E-02 -0.11272956577E-01 -0.14315682983E-01  0.20412643492E-01  0.00000000000E+00 0. -1.
     999901    1    3    3    0    0  0.12872702627E+00  0.14991418932E-01  0.64294032275E-01  0.89181226305E+00  0.88000000000E+00 0.  1.
        -11    1    4    4    0    0 -0.93786659231E-01 -0.12505779430E-01 -0.40087215262E-01  0.10275980692E+00  0.51100000000E-03 0. -1.
         11    1    4    4    0    0 -0.25739405945E-01  0.87873170746E-02 -0.98911340294E-02  0.28945286545E-01  0.51100000000E-03 0.  1.
</event>
<event>
 8    1  0.1128641E+005  0.1043930E+01  0.7957747E-01            NaN
         13   -1    0    0    0    0  0.00000000000E+00  0.00000000000E+00  0.74505805969E-08  0.10566000000E+00  0.10566000000E+00 0.  1.
     999900   -1    0    0    0    0 -0.00000000000E+00 -0.00000000000E+00 -0.74505805969E-08  0.93827000000E+00  0.93827000000E+00 0. -1.
     999902    2    1    2    0    0  0.15317478075E-01 -0.67467317613E-03 -0.16806686661E-01  0.10211803839E+01  0.10209269471E+01 0.  0.
     999903    2    3    3    0    0 -0.46441960936E-01  0.11947450943E+00  0.10987954364E-01  0.13043766204E+00  0.21499637148E-01 0.  0.
         14    1    1    2    0    0 -0.15317478075E-01  0.67467317613E-03  0.16806686661E-01  0.22749616150E-01  0.00000000000E+00 0.  1.
     999901    1    3    3    0    0  0.61759439011E-01 -0.12014918261E+00 -0.27794641024E-01  0.89074272181E+00  0.88000000000E+00 0. -1.
        -11    1    4    4    0    0 -0.16877068766E-01  0.67985347826E-01 -0.16779824010E-04  0.70050727132E-01  0.51100000000E-03 0. -1.
         11    1    4    4    0    0 -0.29564892171E-01  0.51489161607E-01  0.11004734188E-01  0.60386934908E-01  0.51100000000E-03 0.  1.
</event>
<event>
 8    1  0.1128641E+005  0.1043930E+01  0.7957747E-01            NaN
         13   -1    0    0    0    0  0.00000000000E+00  0.00000000000E+00  0.74505805969E-08  0.10566000000E+00  0.10566000000E+00 0. -1.
     999900   -1    0    0    0    0 -0.00000000000E+00 -0.00000000000E+00 -0.74505805969E-08  0.93827000000E+00  0.93827000000E+00 0.  1.
     999902    2    1    2    0    0 -0.16655895017E-01  0.10605840421E-01  0.15155025275E-01  0.10190386866E+01  0.10187346403E+01 0.  0.
     999903    2    3    3    0    0 -0.14657729814E-01 -0.93767527500E-01  0.86574991793E-01  0.12999504079E+00  0.19906862395E-01 0.  0.
         14    1    1    2    0    0  0.16655895017E-01 -0.10605840421E-01 -0.15155025275E-01  0.24891313363E-01  0.00000000000E+00 0.  1.
     999901    1    3    3    0    0 -0.19981652034E-02  0.10437336792E+00 -0.71419966518E-01  0.88904364584E+00  0.88000000000E+00 0. -1.
        -11    1    4    4    0    0 -0.19031530827E-01 -0.61160191419E-01  0.56171303009E-01  0.85195331931E-01  0.51100000000E-03 0. -1.
         11    1    4    4    0    0  0.43738010136E-02 -0.32607336080E-01  0.30403688785E-01  0.44799708864E-01  0.51100000000E-03 0.  1.
</event>
<event>
 8    1  0.1128641E+005  0.1043930E+01  0.7957747E-01            NaN
         13   -1    0    0    0    0  0.00000000000E+00  0.00000000000E+00  0.74505805969E-08  0.10566000000E+00  0.10566000000E+00 0.  1.
     999900   -1    0    0    0    0 -0.00000000000E+00 -0.00000000000E+00 -0.74505805969E-08  0.93827000000E+00  0.93827000000E+00 0. -1.
     999902    2    1    2    0    0  0.81215035178E-02 -0.14309039318E-01 -0.15735510332E-01  0.10211634959E+01  0.10209096785E+01 0.  0.
     999903    2    3    3    0    0 -0.88701013668E-01  0.91759290934E-01 -0.82856883119E-02  0.12949057916E+00  0.20285959728E-01 0.  0.
         14    1    1    2    0    0 -0.81215035178E-02  0.14309039318E-01  0.15735510332E-01  0.22766504145E-01  0.00000000000E+00 0.  1.
     999901    1    3    3    0    0  0.96822517186E-01 -0.10606833025E+00 -0.74498220201E-02  0.89167291669E+00  0.88000000000E+00 0. -1.
        -11    1    4    4    0    0 -0.61277734991E-01  0.49237859980E-01 -0.59962077342E-02  0.78838716943E-01  0.51100000000E-03 0. -1.
         11    1    4    4    0    0 -0.27423278677E-01  0.42521430955E-01 -0.22894805777E-02  0.50651862218E-01  0.51100000000E-03 0.  1.
</event>
<event>
 8    1  0.1128641E+005  0.1043930E+01  0.7957747E-01            NaN
         13   -1    0    0    0    0  0.00000000000E+00  0.00000000000E+00  0.74505805969E-08  0.10566000000E+00  0.10566000000E+00 0. -1.
     999900   -1    0    0    0    0 -0.00000000000E+00 -0.00000000000E+00 -0.74505805969E-08  0.93827000000E+00  0.93827000000E+00 0. -1.
     999902    2    1    2    0    0 -0.21909116839E-01  0.16642888512E-02  0.68954138902E-02  0.10209011922E+01  0.10206414249E+01 0.  0.
     999903    2    3    3    0    0 -0.71556765832E-01 -0.10045230594E+00  0.45944180802E-01  0.13274721103E+00  0.17318134496E-01 0.  0.
         14    1    1    2    0    0  0.21909116839E-01 -0.16642888512E-02 -0.68954138902E-02  0.23028807845E-01  0.00000000000E+00 0. -1.
     999901    1    3    3    0    0  0.49647648993E-01  0.10211659479E+00 -0.39048766911E-01  0.88815398112E+00  0.88000000000E+00 0. -1.
        -11    1    4    4    0    0 -0.59519133006E-01 -0.90639957474E-01  0.44247291842E-01  0.11711623731E+00  0.51100000000E-03 0. -1.
         11    1    4    4    0    0 -0.12037632826E-01 -0.98123484686E-02  0.16968889598E-02  0.15630973727E-01  0.51100000000E-03 0.  1.
</event>
<event>
 8    1  0.1128641E+005  0.1043930E+01  0.7957747E-01            NaN
         13   -1    0    0    0    0  0.00000000000E+00  0.00000000000E+00  0.74505805969E-08  0.10566000000E+00  0.10566000000E+00 0. -1.
     999900   -1    0    0    0    0 -0.00000000000E+00 -0.00000000000E+00 -0.74505805969E-08  0.93827000000E+00  0.93827000000E+00 0.  1.
     999902    2    1    2    0    0 -0.62982301935E-02  0.11257551285E-01 -0.20454934924E-01  0.10197472680E+01  0.10194604877E+01 0.  0.
     999903    2    3    3    0    0  0.93371474987E-01  0.87743136045E-01 -0.14081244966E-01  0.13080142109E+00  0.22218011500E-01 0.  0.
         14    1    1    2    0    0  0.62982301935E-02 -0.11257551285E-01  0.20454934924E-01  0.24182732006E-01  0.00000000000E+00 0. -1.
     999901    1    3    3    0    0 -0.99669705180E-01 -0.76485584759E-01 -0.63736899582E-02  0.88894584691E+00  0.88000000000E+00 0.  1.
        -11    1    4    4    0    0  0.48087354526E-01  0.57157151377E-01 -0.14413818435E-02  0.74710590424E-01  0.51100000000E-03 0. -1.
         11    1    4    4    0    0  0.45284120461E-01  0.30585984668E-01 -0.12639863122E-01  0.56090830665E-01  0.51100000000E-03 0.  1.
</event>
<event>
 8    1  0.1128641E+005  0.1043930E+01  0.7957747E-01            NaN
         13   -1    0    0    0    0  0.00000000000E+00  0.00000000000E+00  0.74505805969E-08  0.10566000000E+00  0.10566000000E+00 0.  1.
     999900   -1    0    0    0    0 -0.00000000000E+00 -0.00000000000E+00 -0.74505805969E-08  0.93827000000E+00  0.93827000000E+00 0.  1.
     999902    2    1    2    0    0 -0.23102471834E-02 -0.23937101406E-01 -0.10501351632E-02  0.10198587547E+01  0.10195746440E+01 0.  0.
     999903    2    3    3    0    0  0.15530144176E-01  0.10140611755E+00  0.73463978342E-01  0.12768077067E+00  0.19520169835E-01 0.  0.
         14    1    1    2    0    0  0.23102471834E-02  0.23937101406E-01  0.10501351632E-02  0.24071245287E-01  0.00000000000E+00 0.  1.
     999901    1    3    3    0    0 -0.17840391360E-01 -0.12534321896E+00 -0.74514113505E-01  0.89217798404E+00  0.88000000000E+00 0. -1.
        -11    1    4    4    0    0  0.17997465560E-01  0.63642269302E-01  0.40998864016E-01  0.77816548241E-01  0.51100000000E-03 0.  1.
         11    1    4    4    0    0 -0.24673213832E-02  0.37763848246E-01  0.32465114326E-01  0.49864222428E-01  0.51100000000E-03 0. -1.
</event>
<event>
 8    1  0.1128641E+005  0.1043930E+01  0.7957747E-01            NaN
         13   -1    0    0    0    0  0.00000000000E+00  0.00000000000E+00  0.74505805969E-08  0.10566000000E+00  0.10566000000E+00 0.  1.
     999900   -1    0    0    0    0 -0.00000000000E+00 -0.00000000000E+00 -0.74505805969E-08  0.93827000000E+00  0.93827000000E+00 0. -1.
     999902    2    1    2    0    0  0.18172567074E-01  0.15809768018E-01  0.81272369279E-02  0.10185086912E+01  0.10181913922E+01 0.  0.
     999903    2    3    3    0    0 -0.87347974006E-01 -0.40228028612E-01  0.80468154707E-01  0.12749352435E+00  0.23054543616E-01 0.  0.
         14    1    1    2    0    0 -0.18172567074E-01 -0.15809768018E-01 -0.81272369279E-02  0.25421308757E-01  0.00000000000E+00 0. -1.
     999901    1    3    3    0    0  0.10552054108E+00  0.56037796630E-01 -0.72340917779E-01  0.89101516689E+00  0.88000000000E+00 0. -1.
        -11    1    4    4    0    0 -0.63572349508E-01 -0.17410593047E-01  0.52472498615E-01  0.84250795866E-01  0.51100000000E-03 0.  1.
         11    1    4    4    0    0 -0.23775624498E-01 -0.22817435565E-01  0.27995656093E-01  0.43242728488E-01  0.51100000000E-03 0. -1.
</event>
<event>
 8    1  0.1128641E+005  0.1043930E+01  0.7957747E-01            NaN
         13   -1    0    0    0    0  0.00000000000E+00  0.00000000000E+00  0.74505805969E-08  0.10566000000E+00  0.10566000000E+00 0.  1.
     999900   -1    0    0    0    0 -0.00000000000E+00 -0.00000000000E+00 -0.74505805969E-08  0.93827000000E+00  0.93827000000E+00 0.  1.
     999902    2    1    2    0    0 -0.49048834023E-02  0.11192497216E-01  0.20085178793E-01  0.10204194857E+01  0.10201486081E+01 0.  0.
     999903    2    3    3    0    0 -0.83631575042E-02 -0.65594568555E-01 -0.10780703282E+00  0.12785877017E+00  0.18786137328E-01 0.  0.
         14    1    1    2    0    0  0.49048834023E-02 -0.11192497216E-01 -0.20085178793E-01  0.23510514292E-01  0.00000000000E+00 0. -1.
     999901    1    3    3    0    0  0.34582741019E-02  0.76787065771E-01  0.12789221162E+00  0.89256071554E+00  0.88000000000E+00 0. -1.
        -11    1    4    4    0    0  0.58518888934E-02 -0.26410617576E-01 -0.42668053644E-01  0.50523155554E-01  0.51100000000E-03 0. -1.
         11    1    4    4    0    0 -0.14215046398E-01 -0.39183950980E-01 -0.65138979180E-01  0.77335614616E-01  0.51100000000E-03 0.  1.
</event>
<event>
 8    1  0.1128641E+005  0.1043930E+01  0.7957747E-01            NaN
         13   -1    0    0    0    0  0.00000000000E+00  0.00000000000E+00  0.74505805969E-08  0.10566000000E+00  0.10566000000E+00 0. -1.
     999900   -1    0    0    0    0 -0.00000000000E+00 -0.00000000000E+00 -0.74505805969E-08  0.93827000000E+00  0.93827000000E+00 0.  1.
     999902    2    1    2    0    0  0.15718230875E-01  0.10371188780E-01  0.12946008741E-01  0.10210777905E+01  0.10208220367E+01 0.  0.
     999903    2    3    3    0    0 -0.31638366185E-01 -0.56485050466E-01 -0.10961419173E+00  0.12881470888E+00  0.19657340968E-01 0.  0.
         14    1    1    2    0    0 -0.15718230875E-01 -0.10371188780E-01 -0.12946008741E-01  0.22852209540E-01  0.00000000000E+00 0.  1.
     999901    1    3    3    0    0  0.47356597060E-01  0.66856239246E-01  0.12256020047E+00  0.89226308158E+00  0.88000000000E+00 0. -1.
        -11    1    4    4    0    0 -0.31083656415E-01 -0.39177835556E-01 -0.86667230513E-01  0.10006281258E+00  0.51100000000E-03 0. -1.
         11    1    4    4    0    0 -0.55470976974E-03 -0.17307214910E-01 -0.22946961218E-01  0.28751896302E-01  0.51100000000E-03 0.  1.
</event>
<event>
 8    1  0.1128641E+005  0.1043930E+01  0.7957747E-01            NaN
         13   -1    0    0    0    0  0.00000000000E+00  0.00000000000E+00  0.74505805969E-08  0.10566000000E+00  0.10566000000E+00 0.  1.
     999900   -1    0    0    0    0 -0.00000000000E+00 -0.00000000000E+00 -0.74505805969E-08  0.93827000000E+00  0.93827000000E+00 0. -1.
     999902    2    1    2    0    0  0.18942338438E-01  0.47461998340E-02  0.10856656205E-01  0.10215870910E+01  0.10213427333E+01 0.  0.
     999903    2    3    3    0    0 -0.10100907060E+00 -0.76607071396E-01  0.17673764133E-01  0.12970527808E+00  0.20967152680E-01 0.  0.
         14    1    1    2    0    0 -0.18942338438E-01 -0.47461998340E-02 -0.10856656205E-01  0.22342908994E-01  0.00000000000E+00 0. -1.
     999901    1    3    3    0    0  0.11995140904E+00  0.81353271230E-01 -0.68171079282E-02  0.89188181293E+00  0.88000000000E+00 0.  1.
        -11    1    4    4    0    0 -0.79879948594E-01 -0.60639677764E-01  0.51975830807E-02  0.10042535884E+00  0.51100000000E-03 0. -1.
         11    1    4    4    0    0 -0.21129122006E-01 -0.15967393632E-01  0.12476181052E-01  0.29279919241E-01  0.51100000000E-03 0.  1.
</event>
<event>
 8    1  0.1128641E+005  0.1043930E+01  0.7957747E-01            NaN
         13   -1    0    0    0    0  0.00000000000E+00  0.00000000000E+00  0.74505805969E-08  0.10566000000E+00  0.10566000000E+00 0. -1.
     999900   -1    0    0    0    0 -0.00000000000E+00 -0.00000000000E+00 -0.74505805969E-08  0.93827000000E+00  0.93827000000E+00 0.  1.
     999902    2    1    2    0    0 -0.17840756995E-01 -0.44080968559E-02 -0.13308827459E-01  0.10212397198E+01  0.10209876182E+01 0.  0.
     999903    2    3    3    0    0 -0.58153572296E-02 -0.13024124178E+00 -0.13849465529E-01  0.13220716532E+00  0.17038997200E-01 0.  0.
         14    1    1    2    0    0  0.17840756995E-01  0.44080968559E-02  0.13308827459E-01  0.22690280218E-01  0.00000000000E+00 0. -1.
     999901    1    3    3    0    0 -0.12025399766E-01  0.12583314493E+00  0.54063807017E-03  0.88903255446E+00  0.88000000000E+00 0. -1.
        -11    1    4    4    0    0 -0.31905721685E-02 -0.20843406937E-01  0.35900813583E-02  0.21395727814E-01  0.51100000000E-03 0.  1.
         11    1    4    4    0    0 -0.26247850611E-02 -0.10939783485E+00 -0.17439546887E-01  0.11081143751E+00  0.51100000000E-03 0. -1.
</event>
<event>
 8    1  0.1128641E+005  0.1043930E+01  0.7957747E-01            NaN
         13   -1    0    0    0    0  0.00000000000E+00  0.00000000000E+00  0.74505805969E-08  0.10566000000E+00  0.10566000000E+00 0.  1.
     999900   -1    0    0    0    0 -0.00000000000E+00 -0.00000000000E+00 -0.74505805969E-08  0.93827000000E+00  0.93827000000E+00 0. -1.
     999902    2    1    2    0    0 -0.14732373181E-01 -0.17267662318E-01 -0.58549388264E-02  0.10204886841E+01  0.10202194171E+01 0.  0.
     999903    2    3    3    0    0 -0.88378827651E-01  0.93574992804E-01  0.57272093309E-02  0.13040776611E+00  0.20156588996E-01 0.  0.
         14    1    1    2    0    0  0.14732373181E-01  0.17267662318E-01  0.58549388264E-02  0.23441315879E-01  0.00000000000E+00 0.  1.
     999901    1    3    3    0    0  0.73646454470E-01 -0.11084265512E+00 -0.11582148157E-01  0.89008091801E+00  0.88000000000E+00 0. -1.
        -11    1    4    4    0    0 -0.48928450649E-01  0.49558250867E-01 -0.68300963335E-02  0.69978031187E-01  0.51100000000E-03 0. -1.
         11    1    4    4    0    0 -0.39450377002E-01  0.44016741937E-01  0.12557305664E-01  0.60429734923E-01  0.51100000000E-03 0.  1.
</event>
<event>
 8    1  0.1128641E+005  0.1043930E+01  0.7957747E-01            NaN
         13   -1    0    0    0    0  0.00000000000E+00  0.00000000000E+00  0.74505805969E-08  0.10566000000E+00  0.10566000000E+00 0. -1.
     999900   -1    0    0    0    0 -0.00000000000E+00 -0.00000000000E+00 -0.74505805969E-08  0.93827000000E+00  0.93827000000E+00 0. -1.
     999902    2    1    2    0    0 -0.69100185903E-02 -0.11281268494E-01 -0.19765235822E-01  0.10201459734E+01  0.10198686813E+01 0.  0.
     999903    2    3    3    0    0 -0.97897732193E-01  0.19506767894E-01  0.79730320979E-01  0.12934519147E+00  0.20218172765E-01 0.  0.
         14    1    1    2    0    0  0.69100185903E-02  0.11281268494E-01  0.19765235822E-01  0.23784026632E-01  0.00000000000E+00 0. -1.
     999901    1    3    3    0    0  0.90987713603E-01 -0.30788036388E-01 -0.99495556801E-01  0.89080078190E+00  0.88000000000E+00 0. -1.
        -11    1    4    4    0    0 -0.72708372414E-01  0.52916463875E-02  0.55959059110E-01  0.91903135736E-01  0.51100000000E-03 0.  1.
         11    1    4    4    0    0 -0.25189359779E-01  0.14215121507E-01  0.23771261869E-01  0.37442055731E-01  0.51100000000E-03 0. -1.
</event>
<event>
 8    1  0.1128641E+005  0.1043930E+01  0.7957747E-01            NaN
         13   -1    0    0    0    0  0.00000000000E+00  0.00000000000E+00  0.74505805969E-08  0.10566000000E+00  0.10566000000E+00 0. -1.
     999900   -1    0    0    0    0 -0.00000000000E+00 -0.00000000000E+00 -0.74505805969E-08  0.93827000000E+00  0.93827000000E+00 0. -1.
     999902    2    1    2    0    0  0.57666883246E-02  0.23078803127E-01  0.25980717970E-02  0.10200001896E+01  0.10197194472E+01 0.  0.
     999903    2    3    3    0    0  0.10542251279E+00  0.46053106069E-01  0.61518793772E-01  0.13212026900E+00  0.20890397604E-01 0.  0.
         14    1    1    2    0    0 -0.57666883246E-02 -0.23078803127E-01 -0.25980717970E-02  0.23929810385E-01  0.00000000000E+00 0. -1.
     999901    1    3    3    0    0 -0.99655824469E-01 -0.22974302942E-01 -0.58920721975E-01  0.88787992061E+00  0.88000000000E+00 0. -1.
        -11    1    4    4    0    0  0.16690833499E-01  0.58193591815E-02  0.18577595541E-01  0.25648334084E-01  0.51100000000E-03 0.  1.
         11    1    4    4    0    0  0.88731679294E-01  0.40233746888E-01  0.42941198231E-01  0.10647193492E+00  0.51100000000E-03 0. -1.
</event>
<event>
 8    1  0.1128641E+005  0.1043930E+01  0.7957747E-01            NaN
         13   -1    0    0    0    0  0.00000000000E+00  0.00000000000E+00  0.74505805969E-08  0.10566000000E+00  0.10566000000E+00 0.  1.
     999900   -1    0    0    0    0 -0.00000000000E+00 -0.00000000000E+00 -0.74505805969E-08  0.93827000000E+00  0.93827000000E+00 0.  1.
     999902    2    1    2    0    0  0.19382453097E-01  0.19318742268E-02  0.11908583502E-01  0.10210996258E+01  0.10208443661E+01 0.  0.
     999903    2    3    3    0    0  0.88640979709E-01 -0.49374070450E-01 -0.82104068024E-01  0.13190480904E+00  0.19046746315E-01 0.  0.
         14    1    1    2    0    0 -0.19382453097E-01 -0.19318742268E-02 -0.11908583502E-01  0.22830374222E-01  0.00000000000E+00 0. -1.
     999901    1    3    3    0    0 -0.69258526612E-01  0.51305944677E-01  0.94012651526E-01  0.88919481674E+00  0.88000000000E+00 0.  1.
        -11    1    4    4    0    0  0.61700219868E-01 -0.28633121232E-01 -0.44912801398E-01  0.81511923138E-01  0.51100000000E-03 0. -1.
         11    1    4    4    0    0  0.26940759841E-01 -0.20740949218E-01 -0.37191266626E-01  0.50392885902E-01  0.51100000000E-03 0.  1.
</event>
<event>
 8    1  0.1128641E+005  0.1043930E+01  0.7957747E-01            NaN
         13   -1    0    0    0    0  0.00000000000E+00  0.00000000000E+00  0.74505805969E-08  0.10566000000E+00  0.10566000000E+00 0. -1.
     999900   -1    0    0    0    0 -0.00000000000E+00 -0.00000000000E+00 -0.74505805969E-08  0.93827000000E+00  0.93827000000E+00 0. -1.
     999902    2    1    2    0    0 -0.45619415857E-02 -0.54033818450E-02  0.23896514312E-01  0.10190091003E+01  0.10187043218E+01 0.  0.
     999903    2    3    3    0    0  0.35957264617E-01 -0.72779039725E-01 -0.96121081939E-01  0.12738950160E+00  0.19977718169E-01 0.  0.
         14    1    1    2    0    0  0.45619415857E-02  0.54033818450E-02 -0.23896514312E-01  0.24920899716E-01  0.00000000000E+00 0.  1.
     999901    1    3    3    0    0 -0.40519206202E-01  0.67375657880E-01  0.12001759625E+00  0.89161959868E+00  0.88000000000E+00 0.  1.
        -11    1    4    4    0    0  0.10294785547E-01 -0.36010830203E-01 -0.55031588657E-01  0.66569507828E-01  0.51100000000E-03 0. -1.
         11    1    4    4    0    0  0.25662479070E-01 -0.36768209522E-01 -0.41089493282E-01  0.60819993774E-01  0.51100000000E-03 0.  1.
</event>
<event>
 8    1  0.1128641E+005  0.1043930E+01  0.7957747E-01            NaN
         13   -1    0    0    0    0  0.00000000000E+00  0.00000000000E+00  0.74505805969E-08  0.10566000000E+00  0.10566000000E+00 0.  1.
     999900   -1    0    0    0    0 -0.00000000000E+00 -0.00000000000E+00 -0.74505805969E-08  0.93827000000E+00  0.93827000000E+00 0. -1.
     999902    2    1    2    0    0  0.14519110964E-01  0.16757708715E-01  0.92921531099E-02  0.10198890039E+01  0.10196056153E+01 0.  0.
     999903    2    3    3    0    0  0.91205051648E-01 -0.63534018064E-01  0.66572036342E-01  0.13106479185E+00  0.19779048053E-01 0.  0.
         14    1    1    2    0    0 -0.14519110964E-01 -0.16757708715E-01 -0.92921531099E-02  0.24040996111E-01  0.00000000000E+00 0. -1.
     999901    1    3    3    0    0 -0.76685940684E-01  0.80291726780E-01 -0.57279883232E-01  0.88882421204E+00  0.88000000000E+00 0. -1.
        -11    1    4    4    0    0  0.65941205720E-01 -0.35152248582E-01  0.47505069876E-01  0.88548946787E-01  0.51100000000E-03 0. -1.
         11    1    4    4    0    0  0.25263845928E-01 -0.28381769482E-01  0.19066966466E-01  0.42515845061E-01  0.51100000000E-03 0.  1.
</event>
<event>
 8    1  0.1128641E+005  0.1043930E+01  0.7957747E-01            NaN
         13   -1    0    0    0    0  0.00000000000E+00  0.00000000000E+00  0.74505805969E-08  0.10566000000E+00  0.10566000000E+00 0.  1.
     999900   -1    0    0    0    0 -0.00000000000E+00 -0.00000000000E+00 -0.74505805969E-08  0.93827000000E+00  0.93827000000E+00 0.  1.
     999902    2    1    2    0    0 -0.92834691005E-02 -0.21141166809E-01 -0.32093640549E-02  0.10206183774E+01  0.10203521159E+01 0.  0.
     999903    2    3    3    0    0  0.33056365401E-01 -0.72460595112E-01  0.10305803213E+00  0.13173193647E+00  0.19725211340E-01 0.  0.
         14    1    1    2    0    0  0.92834691005E-02  0.21141166809E-01  0.32093640549E-02  0.23311622643E-01  0.00000000000E+00 0.  1.
     999901    1    3    3    0    0 -0.42339834502E-01  0.51319428302E-01 -0.10626739618E+00  0.88888644089E+00  0.88000000000E+00 0.  1.
        -11    1    4    4    0    0  0.71420199021E-02 -0.38211934757E-01  0.53823206248E-01  0.66395474680E-01  0.51100000000E-03 0. -1.
         11    1    4    4    0    0  0.25914345499E-01 -0.34248660355E-01  0.49234825877E-01  0.65336461787E-01  0.51100000000E-03 0.  1.
</event>
<event>
 8    1  0.1128641E+005  0.1043930E+01  0.7957747E-01            NaN
         13   -1    0    0    0    0  0.00000000000E+00  0.00000000000E+00  0.74505805969E-08  0.10566000000E+00  0.10566000000E+00 0. -1.
     999900   -1    0    0    0    0 -0.00000000000E+00 -0.00000000000E+00 -0.74505805969E-08  0.93827000000E+00  0.93827000000E+00 0.  1.
     999902    2    1    2    0    0 -0.11632848141E-01  0.70182745802E-02 -0.19972867765E-01  0.10197743634E+01  0.10194882331E+01 0.  0.
     999903    2    3    3    0    0 -0.31835923801E-01  0.85940279762E-01  0.89093499239E-01  0.12930689088E+00  0.19579649939E-01 0.  0.
         14    1    1    2    0    0  0.11632848141E-01 -0.70182745802E-02  0.19972867765E-01  0.24155636624E-01  0.00000000000E+00 0.  1.
     999901    1    3    3    0    0  0.20203075660E-01 -0.78922005182E-01 -0.10906636700E+00  0.89046747250E+00  0.88000000000E+00 0.  1.
        -11    1    4    4    0    0 -0.18783813179E-01  0.70994599366E-01  0.74962316772E-01  0.10494129232E+00  0.51100000000E-03 0.  1.
         11    1    4    4    0    0 -0.13052110621E-01  0.14945680397E-01  0.14131182467E-01  0.24365598558E-01  0.51100000000E-03 0. -1.
</event>
<event>
 8    1  0.1128641E+005  0.1043930E+01  0.7957747E-01            NaN
         13   -1    0    0    0    0  0.00000000000E+00  0.00000000000E+00  0.74505805969E-08  0.10566000000E+00  0.10566000000E+00 0. -1.
     999900   -1    0    0    0    0 -0.00000000000E+00 -0.00000000000E+00 -0.74505805969E-08  0.93827000000E+00  0.93827000000E+00 0.  1.
     999902    2    1    2    0    0  0.17370709897E-01 -0.14928738945E-01 -0.35468535287E-02  0.10207526624E+01  0.10204894947E+01 0.  0.
     999903    2    3    3    0    0  0.24320427061E-01  0.12191170751E+00 -0.29946063491E-01  0.12975854084E+00  0.22058209385E-01 0.  0.
         14    1    1    2    0    0 -0.17370709897E-01  0.14928738945E-01  0.35468535287E-02  0.23177337611E-01  0.00000000000E+00 0. -1.
     999901    1    3    3    0    0 -0.69497171639E-02 -0.13684044645E+00  0.26399209962E-01  0.89099412155E+00  0.88000000000E+00 0. -1.
        -11    1    4    4    0    0  0.13303589905E-01  0.10203323398E+00 -0.29412897311E-01  0.10701937203E+00  0.51100000000E-03 0. -1.
         11    1    4    4    0    0  0.11016837156E-01  0.19878473527E-01 -0.53316617979E-03  0.22739168803E-01  0.51100000000E-03 0.  1.
</event>
<event>
 8    1  0.1128641E+005  0.1043930E+01  0.7957747E-01            NaN
         13   -1    0    0    0    0  0.00000000000E+00  0.00000000000E+00  0.74505805969E-08  0.10566000000E+00  0.10566000000E+00 0.  1.
     999900   -1    0    0    0    0 -0.00000000000E+00 -0.00000000000E+00 -0.74505805969E-08  0.93827000000E+00  0.93827000000E+00 0. -1.
     999902    2    1    2    0    0  0.19354340206E-01  0.17424324571E-02  0.12404787484E-01  0.10208756011E+01  0.10206152496E+01 0.  0.
     999903    2    3    3    0    0 -0.73045444098E-01  0.97746134921E-01  0.41667127715E-01  0.13036411012E+00  0.19201767630E-01 0.  0.
         14    1    1    2    0    0 -0.19354340206E-01 -0.17424324571E-02 -0.12404787484E-01  0.23054398891E-01  0.00000000000E+00 0. -1.
     999901    1    3    3    0    0  0.92399784305E-01 -0.96003702464E-01 -0.29262340230E-01  0.89051149099E+00  0.88000000000E+00 0. -1.
        -11    1    4    4    0    0 -0.14033835832E-01  0.33276388667E-01  0.12789072771E-01  0.38315637724E-01  0.51100000000E-03 0.  1.
         11    1    4    4    0    0 -0.59011608266E-01  0.64469746254E-01  0.28878054944E-01  0.92048472396E-01  0.51100000000E-03 0. -1.
</event>
<event>
 8    1  0.1128641E+005  0.1043930E+01  0.7957747E-01            NaN
         13   -1    0    0    0    0  0.00000000000E+00  0.00000000000E+00  0.74505805969E-08  0.10566000000E+00  0.10566000000E+00 0. -1.
     999900   -1    0    0    0    0 -0.00000000000E+00 -0.00000000000E+00 -0.74505805969E-08  0.93827000000E+00  0.93827000000E+00 0.  1.
     999902    2    1    2    0    0 -0.10212293452E-01  0.77117558741E-02  0.20187350469E-01  0.10200283006E+01  0.10197482252E+01 0.  0.
     999903    2    3    3    0    0 -0.16529627256E-02 -0.10328126960E+00 -0.73150443004E-01  0.12811762258E+00  0.19833934722E-01 0.  0.
         14    1    1    2    0    0  0.10212293452E-01 -0.77117558741E-02 -0.20187350469E-01  0.23901699420E-01  0.00000000000E+00 0.  1.
     999901    1    3    3    0    0 -0.85593307264E-02  0.11099302548E+00  0.93337793473E-01  0.89191067800E+00  0.88000000000E+00 0. -1.
        -11    1    4    4    0    0  0.29571845493E-02 -0.97253158248E-01 -0.70104790859E-01  0.11992441183E+00  0.51100000000E-03 0.  1.
         11    1    4    4    0    0 -0.46101472749E-02 -0.60281113537E-02 -0.30456521447E-02  0.81932107489E-02  0.51100000000E-03 0. -1.
</event>
<event>
 8    1  0.1128641E+005  0.1043930E+01  0.7957747E-01            NaN
         13   -1    0    0    0    0  0.00000000000E+00  0.00000000000E+00  0.74505805969E-08  0.10566000000E+00  0.10566000000E+00 0. -1.
     999900   -1    0    0    0    0 -0.00000000000E+00 -0.00000000000E+00 -0.74505805969E-08  0.93827000000E+00  0.93827000000E+00 0. -1.
     999902    2    1    2    0    0  0.15095576513E-01 -0.15154211524E-01 -0.10255108763E-01  0.10202088320E+01  0.10199330208E+01 0.  0.
     999903    2    3    3    0    0  0.78042345081E-01 -0.61894250098E-01 -0.85823915446E-01  0.13349717002E+00  0.23113721490E-01 0.  0.
         14    1    1    2    0    0 -0.15095576513E-01  0.15154211524E-01  0.10255108763E-01  0.23721168035E-01  0.00000000000E+00 0. -1.
     999901    1    3    3    0    0 -0.62946768568E-01  0.46740038574E-01  0.75568806683E-01  0.88671166194E+00  0.88000000000E+00 0.  1.
        -11    1    4    4    0    0  0.32252685569E-01 -0.33251403981E-01 -0.26928475926E-01  0.53584470977E-01  0.51100000000E-03 0.  1.
         11    1    4    4    0    0  0.45789659512E-01 -0.28642846117E-01 -0.58895439519E-01  0.79912699048E-01  0.51100000000E-03 0. -1.
</event>
<event>
 8    1  0.1128641E+005  0.1043930E+01  0.7957747E-01            NaN
         13   -1    0    0    0    0  0.00000000000E+00  0.00000000000E+00  0.74505805969E-08  0.10566000000E+00  0.10566000000E+00 0.  1.
     999900   -1    0    0    0    0 -0.00000000000E+00 -0.00000000000E+00 -0.74505805969E-08  0.93827000000E+00  0.93827000000E+00 0. -1.
     999902    2    1    2    0    0  0.13921926902E-01 -0.22456900246E-02 -0.18411715353E-01  0.10207383111E+01  0.10204748136E+01 0.  0.
     999903    2    3    3    0    0  0.18011529730E-01 -0.77403127331E-01  0.10038207094E+00  0.12957203654E+00  0.19917157522E-01 0.  0.
         14    1    1    2    0    0 -0.13921926902E-01  0.22456900246E-02  0.18411715353E-01  0.23191688912E-01  0.00000000000E+00 0.  1.
     999901    1    3    3    0    0 -0.40896028275E-02  0.75157437306E-01 -0.11879378629E+00  0.89116627455E+00  0.88000000000E+00 0. -1.
        -11    1    4    4    0    0  0.11714333158E-01 -0.41780070541E-01  0.69848153964E-01  0.82230320618E-01  0.51100000000E-03 0. -1.
         11    1    4    4    0    0  0.62971965720E-02 -0.35623056790E-01  0.30533916971E-01  0.47341715921E-01  0.51100000000E-03 0.  1.
</event>
<event>
 8    1  0.1128641E+005  0.1043930E+01  0.7957747E-01            NaN
         13   -1    0    0    0    0  0.00000000000E+00  0.00000000000E+00  0.74505805969E-08  0.10566000000E+00  0.10566000000E+00 0.  1.
     999900   -1    0    0    0    0 -0.00000000000E+00 -0.00000000000E+00 -0.74505805969E-08  0.93827000000E+00  0.93827000000E+00 0. -1.
     999902    2    1    2    0    0 -0.79139634434E-02 -0.18779099222E-01 -0.92665962503E-02  0.10215435043E+01  0.10212981817E+01 0.  0.
     999903    2    3    3    0    0  0.82721456505E-01  0.92943587178E-01 -0.30371754726E-01  0.12961179964E+00  0.19885305073E-01 0.  0.
         14    1    1    2    0    0  0.79139634434E-02  0.18779099222E-01  0.92665962503E-02  0.22386495729E-01  0.00000000000E+00 0.  1.
     999901    1    3    3    0    0 -0.90635419948E-01 -0.11172268640E+00  0.21105158476E-01  0.89193170463E+00  0.88000000000E+00 0.  1.
        -11    1    4    4    0    0  0.48751010710E-01  0.64034589930E-01 -0.26938380021E-01  0.84870649768E-01  0.51100000000E-03 0.  1.
         11    1    4    4    0    0  0.33970445794E-01  0.28908997248E-01 -0.34333747053E-02  0.44741149876E-01  0.51100000000E-03 0. -1.
</event>
<event>
 8    1  0.1128641E+005  0.1043930E+01  0.7957747E-01            NaN
         13   -1    0    0    0    0  0.00000000000E+00  0.00000000000E+00  0.74505805969E-08  0.10566000000E+00  0.10566000000E+00 0. -1.
     999900   -1    0    0    0    0 -0.00000000000E+00 -0.00000000000E+00 -0.74505805969E-08  0.93827000000E+00  0.93827000000E+00 0.  1.
     999902    2    1    2    0    0 -0.22359733371E-01 -0.10288341142E-01 -0.35298613458E-02  0.10190650134E+01  0.10187616178E+01 0.  0.
     999903    2    3    3    0    0 -0.11295279916E+00 -0.66515358599E-01  0.18077612095E-02  0.13261305680E+00  0.20008174996E-01 0.  0.
         14    1    1    2    0    0  0.22359733371E-01  0.10288341142E-01  0.35298613458E-02  0.24864986648E-01  0.00000000000E+00 0. -1.
     999901    1    3    3    0    0  0.90593065785E-01  0.56227017457E-01 -0.53376225552E-02  0.88645195655E+00  0.88000000000E+00 0.  1.
        -11    1    4    4    0    0 -0.34196185281E-01 -0.30197717456E-01  0.44802121871E-02  0.45843370835E-01  0.51100000000E-03 0. -1.
         11    1    4    4    0    0 -0.78756613875E-01 -0.36317641143E-01 -0.26724509776E-02  0.86769685965E-01  0.51100000000E-03 0.  1.
</event>
<event>
 8    1  0.1180537E+005  0.1043930E+01  0.7957747E-01            NaN
         13   -1    0    0    0    0  0.00000000000E+00  0.00000000000E+00  0.74505805969E-08  0.10566000000E+00  0.10566000000E+00 0. -1.
     999900   -1    0    0    0    0 -0.00000000000E+00 -0.00000000000E+00 -0.74505805969E-08  0.93827000000E+00  0.93827000000E+00 0.  1.
     999902    2    1    2    0    0  0.17920742554E-01 -0.10700685035E-01 -0.10163311458E-01  0.10207146910E+01  0.10204506503E+01 0.  0.
     999903    2    3    3    0    0 -0.34868393260E-02  0.90338628398E-01  0.90364381156E-01  0.12898993275E+00  0.17304783752E-01 0.  0.
         14    1    1    2    0    0 -0.17920742554E-01  0.10700685035E-01  0.10163311458E-01  0.23215309037E-01  0.00000000000E+00 0. -1.
     999901    1    3    3    0    0  0.21407581880E-01 -0.10103931343E+00 -0.10052769261E+00  0.89172475821E+00  0.88000000000E+00 0.  1.
        -11    1    4    4    0    0  0.66226603092E-02  0.42066176120E-01  0.45395236036E-01  0.62244769891E-01  0.51100000000E-03 0. -1.
         11    1    4    4    0    0 -0.10109499635E-01  0.48272452277E-01  0.44969145120E-01  0.66745162863E-01  0.51100000000E-03 0.  1.
</event>
<event>
 8    1  0.1128641E+005  0.1043930E+01  0.7957747E-01            NaN
         13   -1    0    0    0    0  0.00000000000E+00  0.00000000000E+00  0.74505805969E-08  0.10566000000E+00  0.10566000000E+00 0.  1.
     999900   -1    0    0    0    0 -0.00000000000E+00 -0.00000000000E+00 -0.74505805969E-08  0.93827000000E+00  0.93827000000E+00 0.  1.
     999902    2    1    2    0    0  0.14049129770E-01 -0.11645154045E-01  0.18946661787E-01  0.10176247980E+01  0.10172847516E+01 0.  0.
     999903    2    3    3    0    0  0.98234365174E-01  0.65974253981E-01  0.48974024671E-01  0.12969824197E+00  0.20508198063E-01 0.  0.
         14    1    1    2    0    0 -0.14049129770E-01  0.11645154045E-01 -0.18946661787E-01  0.26305202012E-01  0.00000000000E+00 0. -1.
     999901    1    3    3    0    0 -0.84185235404E-01 -0.77619408026E-01 -0.30027362884E-01  0.88792655602E+00  0.88000000000E+00 0. -1.
        -11    1    4    4    0    0  0.48779629761E-01  0.22444665317E-01  0.16054095425E-01  0.56046501958E-01  0.51100000000E-03 0. -1.
         11    1    4    4    0    0  0.49454735413E-01  0.43529588663E-01  0.32919929246E-01  0.73651740010E-01  0.51100000000E-03 0.  1.
</event>
<event>
 8    1  0.1128641E+005  0.1043930E+01  0.7957747E-01            NaN
         13   -1    0    0    0    0  0.00000000000E+00  0.00000000000E+00  0.74505805969E-08  0.10566000000E+00  0.10566000000E+00 0. -1.
     999900   -1    0    0    0    0 -0.00000000000E+00 -0.00000000000E+00 -0.74505805969E-08  0.93827000000E+00  0.93827000000E+00 0.  1.
     999902    2    1    2    0    0 -0.12987863263E-01 -0.60720827060E-02  0.18493559868E-01  0.10205298603E+01  0.10202615494E+01 0.  0.
     999903    2    3    3    0    0  0.68819706577E-01  0.85384041761E-01  0.67877415220E-01  0.13064477428E+00  0.20835713300E-01 0.  0.
         14    1    1    2    0    0  0.12987863263E-01  0.60720827060E-02 -0.18493559868E-01  0.23400139681E-01  0.00000000000E+00 0.  1.
     999901    1    3    3    0    0 -0.81807569839E-01 -0.91456124467E-01 -0.49383855352E-01  0.88988508604E+00  0.88000000000E+00 0.  1.
        -11    1    4    4    0    0  0.32921053677E-01  0.50500966373E-01  0.46848525943E-01  0.76349124971E-01  0.51100000000E-03 0. -1.
         11    1    4    4    0    0  0.35898652900E-01  0.34883075388E-01  0.21028889277E-01  0.54295649308E-01  0.51100000000E-03 0.  1.
</event>
<event>
 8    1  0.1128641E+005  0.1043930E+01  0.7957747E-01            NaN
         13   -1    0    0    0    0  0.00000000000E+00  0.00000000000E+00  0.74505805969E-08  0.10566000000E+00  0.10566000000E+00 0. -1.
     999900   -1    0    0    0    0 -0.00000000000E+00 -0.00000000000E+00 -0.74505805969E-08  0.93827000000E+00  0.93827000000E+00 0.  1.
     999902    2    1    2    0    0 -0.82546351414E-02  0.18072802225E-01 -0.13987807627E-01  0.10196313592E+01  0.10193417900E+01 0.  0.
     999903    2    3    3    0    0  0.14130079810E-01 -0.72916322133E-02 -0.12890905131E+00  0.13151463139E+00  0.20633170028E-01 0.  0.
         14    1    1    2    0    0  0.82546351414E-02 -0.18072802225E-01  0.13987807627E-01  0.24298640781E-01  0.00000000000E+00 0.  1.
     999901    1    3    3    0    0 -0.22384714951E-01  0.25364434438E-01  0.11492124368E+00  0.88811672783E+00  0.88000000000E+00 0. -1.
        -11    1    4    4    0    0  0.11476819453E-01  0.33005619307E-02 -0.35285051345E-01  0.37254624723E-01  0.51100000000E-03 0. -1.
         11    1    4    4    0    0  0.26532603567E-02 -0.10592194144E-01 -0.93623999962E-01  0.94260006669E-01  0.51100000000E-03 0.  1.
</event>
<event>
 8    1  0.1128641E+005  0.1043930E+01  0.7957747E-01            NaN
         13   -1    0    0    0    0  0.00000000000E+00  0.00000000000E+00  0.74505805969E-08  0.10566000000E+00  0.10566000000E+00 0. -1.
     999900   -1    0    0    0    0 -0.00000000000E+00 -0.00000000000E+00 -0.74505805969E-08  0.93827000000E+00  0.93827000000E+00 0. -1.
     999902    2    1    2    0    0  0.12346702023E-01 -0.19147195266E-01 -0.36956473772E-02  0.10208494032E+01  0.10205884529E+01 0.  0.
     999903    2    3    3    0    0 -0.72607419633E-01 -0.51373569895E-01 -0.94787610657E-01  0.13149374447E+00  0.19870395842E-01 0.  0.
         14    1    1    2    0    0 -0.12346702023E-01  0.19147195266E-01  0.36956473772E-02  0.23080596763E-01  0.00000000000E+00 0. -1.
     999901    1    3    3    0    0  0.84954121657E-01  0.32226374630E-01  0.91091963280E-01  0.88935565877E+00  0.88000000000E+00 0.  1.
        -11    1    4    4    0    0 -0.46716309430E-01 -0.22321014900E-01 -0.60441676126E-01  0.79587050497E-01  0.51100000000E-03 0.  1.
         11    1    4    4    0    0 -0.25891110203E-01 -0.29052554995E-01 -0.34345934531E-01  0.51906693972E-01  0.51100000000E-03 0. -1.
</event>
<event>
 8    1  0.1128641E+005  0.1043930E+01  0.7957747E-01            NaN
         13   -1    0    0    0    0  0.00000000000E+00  0.00000000000E+00  0.74505805969E-08  0.10566000000E+00  0.10566000000E+00 0. -1.
     999900   -1    0    0    0    0 -0.00000000000E+00 -0.00000000000E+00 -0.74505805969E-08  0.93827000000E+00  0.93827000000E+00 0. -1.
     999902    2    1    2    0    0 -0.20394456213E-01 -0.10349801758E-01  0.56367519510E-02  0.10203752720E+01  0.10201033626E+01 0.  0.
     999903    2    3    3    0    0  0.26034257249E-01 -0.12480658891E+00 -0.29353634171E-01  0.13106075578E+00  0.77986333085E-02 0.  0.
         14    1    1    2    0    0  0.20394456213E-01  0.10349801758E-01 -0.56367519510E-02  0.23554728044E-01  0.00000000000E+00 0. -1.
     999901    1    3    3    0    0 -0.46428713462E-01  0.11445678715E+00  0.34990386122E-01  0.88931451617E+00  0.88000000000E+00 0.  1.
        -11    1    4    4    0    0  0.33979472149E-02 -0.27308361264E-01 -0.86318044682E-02  0.28845481615E-01  0.51100000000E-03 0.  1.
         11    1    4    4    0    0  0.22636310034E-01 -0.97498227644E-01 -0.20721829703E-01  0.10221527417E+00  0.51100000000E-03 0. -1.
</event>
<event>
 7    1  0.1128641E+005  0.1043930E+01  0.7957747E-01            NaN
         13   -1    0    0    0    0  0.00000000000E+00  0.00000000000E+00  0.74505805969E-08  0.10566000000E+00  0.10566000000E+00 0.  1.
     999900   -1    0    0    0    0 -0.00000000000E+00 -0.00000000000E+00 -0.74505805969E-08  0.93827000000E+00  0.93827000000E+00 0.  1.
     999903    2    1    2    0    0  0.37385753335E-01 -0.79856532306E-01  0.78936910709E-02  0.90821727790E-01  0.20285846683E-01 0.  0.
         14    1    1    2    0    0  0.27795014067E-01 -0.31846762314E-01  0.45436123928E-01  0.62058201992E-01  0.00000000000E+00 0.  1.
     999901    1    1    2    0    0 -0.65180767402E-01  0.11170329462E+00 -0.53329814999E-01  0.89105007022E+00  0.88000000000E+00 0.  1.
        -11    1    3    3    0    0  0.24035156283E-01 -0.34216976890E-01  0.10761073370E-01  0.43180459309E-01  0.51100000000E-03 0. -1.
         11    1    3    3    0    0  0.13350597051E-01 -0.45639555417E-01 -0.28673822990E-02  0.47641268481E-01  0.51100000000E-03 0.  1.
</event>
<event>
 8    1  0.1128641E+005  0.1043930E+01  0.7957747E-01            NaN
         13   -1    0    0    0    0  0.00000000000E+00  0.00000000000E+00  0.74505805969E-08  0.10566000000E+00  0.10566000000E+00 0. -1.
     999900   -1    0    0    0    0 -0.00000000000E+00 -0.00000000000E+00 -0.74505805969E-08  0.93827000000E+00  0.93827000000E+00 0.  1.
     999902    2    1    2    0    0  0.93860892025E-02 -0.21981537928E-01  0.67488132864E-02  0.10190938739E+01  0.10187911909E+01 0.  0.
     999903    2    3    3    0    0  0.10463494927E+00  0.61041124051E-01 -0.40239902219E-01  0.12882815672E+00  0.17405539370E-01 0.  0.
         14    1    1    2    0    0 -0.93860892025E-02  0.21981537928E-01 -0.67488132864E-02  0.24836126126E-01  0.00000000000E+00 0.  1.
     999901    1    3    3    0    0 -0.95248860066E-01 -0.83022661978E-01  0.46988715505E-01  0.89026571715E+00  0.88000000000E+00 0. -1.
        -11    1    4    4    0    0  0.46008920897E-01  0.20473953608E-01 -0.97958142019E-02  0.51305191505E-01  0.51100000000E-03 0.  1.
         11    1    4    4    0    0  0.58626028371E-01  0.40567170443E-01 -0.30444088017E-01  0.77522965220E-01  0.51100000000E-03 0. -1.
</event>
<event>
 8    1  0.1128641E+005  0.1043930E+01  0.7957747E-01            NaN
         13   -1    0    0    0    0  0.00000000000E+00  0.00000000000E+00  0.74505805969E-08  0.10566000000E+00  0.10566000000E+00 0. -1.
     999900   -1    0    0    0    0 -0.00000000000E+00 -0.00000000000E+00 -0.74505805969E-08  0.93827000000E+00  0.93827000000E+00 0.  1.
     999902    2    1    2    0    0 -0.60869974027E-02 -0.20695731480E-01  0.93619072020E-02  0.10204138323E+01  0.10201428228E+01 0.  0.
     999903    2    3    3    0    0 -0.78921404631E-01 -0.10551971916E+00 -0.92854030326E-03  0.13328032873E+00  0.19994614252E-01 0.  0.
         14    1    1    2    0    0  0.60869974027E-02  0.20695731480E-01 -0.93619072020E-02  0.23516167743E-01  0.00000000000E+00 0.  1.
     999901    1    3    3    0    0  0.72834407228E-01  0.84823987683E-01  0.10290447505E-01  0.88713350352E+00  0.88000000000E+00 0.  1.
        -11    1    4    4    0    0 -0.47704766305E-01 -0.78630743822E-01  0.17634939823E-02  0.91988638616E-01  0.51100000000E-03 0. -1.
         11    1    4    4    0    0 -0.31216638326E-01 -0.26888975341E-01 -0.26920342855E-02  0.41291690118E-01  0.51100000000E-03 0.  1.
</event>
<event>
 8    1  0.1128641E+005  0.1043930E+01  0.7957747E-01            NaN
         13   -1    0    0    0    0  0.00000000000E+00  0.00000000000E+00  0.74505805969E-08  0.10566000000E+00  0.10566000000E+00 0.  1.
     999900   -1    0    0    0    0 -0.00000000000E+00 -0.00000000000E+00 -0.74505805969E-08  0.93827000000E+00  0.93827000000E+00 0.  1.
     999902    2    1    2    0    0  0.12641159250E-01  0.38118615787E-02  0.19731096117E-01  0.10201887837E+01  0.10199125007E+01 0.  0.
     999903    2    3    3    0    0 -0.82316445447E-01  0.95133442754E-01 -0.22464855679E-01  0.12938180339E+00  0.20214158075E-01 0.  0.
         14    1    1    2    0    0 -0.12641159250E-01 -0.38118615787E-02 -0.19731096117E-01  0.23741216267E-01  0.00000000000E+00 0. -1.
     999901    1    3    3    0    0  0.94957604697E-01 -0.91321581176E-01  0.42195951795E-01  0.89080698034E+00  0.88000000000E+00 0.  1.
        -11    1    4    4    0    0 -0.42765347856E-01  0.57758303478E-01 -0.42479624410E-02  0.71994464397E-01  0.51100000000E-03 0. -1.
         11    1    4    4    0    0 -0.39551097591E-01  0.37375139277E-01 -0.18216893238E-01  0.57387338994E-01  0.51100000000E-03 0.  1.
</event>
<event>
 8    1  0.1128641E+005  0.1043930E+01  0.7957747E-01            NaN
         13   -1    0    0    0    0  0.00000000000E+00  0.00000000000E+00  0.74505805969E-08  0.10566000000E+00  0.10566000000E+00 0. -1.
     999900   -1    0    0    0    0 -0.00000000000E+00 -0.00000000000E+00 -0.74505805969E-08  0.93827000000E+00  0.93827000000E+00 0. -1.
     999902    2    1    2    0    0 -0.93170400373E-02 -0.62674693774E-02  0.21818212566E-01  0.10193918092E+01  0.10190964321E+01 0.  0.
     999903    2    3    3    0    0 -0.10950145387E+00 -0.19684971366E-02  0.71490296363E-01  0.13230516528E+00  0.19983766067E-01 0.  0.
         14    1    1    2    0    0  0.93170400373E-02  0.62674693774E-02 -0.21818212566E-01  0.24538190786E-01  0.00000000000E+00 0.  1.
     999901    1    3    3    0    0  0.10018441383E+00 -0.42989722408E-02 -0.49672083797E-01  0.88708664393E+00  0.88000000000E+00 0.  1.
        -11    1    4    4    0    0 -0.17692358556E-01  0.26207223586E-03  0.21133466505E-01  0.27567603462E-01  0.51100000000E-03 0. -1.
         11    1    4    4    0    0 -0.91809095310E-01 -0.22305693725E-02  0.50356829858E-01  0.10473756182E+00  0.51100000000E-03 0.  1.
</event>
<event>
 8    1  0.1128641E+005  0.1043930E+01  0.7957747E-01            NaN
         13   -1    0    0    0    0  0.00000000000E+00  0.00000000000E+00  0.74505805969E-08  0.10566000000E+00  0.10566000000E+00 0.  1.
     999900   -1    0    0    0    0 -0.00000000000E+00 -0.00000000000E+00 -0.74505805969E-08  0.93827000000E+00  0.93827000000E+00 0. -1.
     999902    2    1    2    0    0 -0.95173025840E-02 -0.20509049176E-01 -0.78581186424E-02  0.10199936223E+01  0.10197127240E+01 0.  0.
     999903    2    3    3    0    0 -0.70737071730E-01 -0.39625758348E-01 -0.10268560474E+00  0.13257852172E+00  0.21419546171E-01 0.  0.
         14    1    1    2    0    0  0.95173025840E-02  0.20509049176E-01  0.78581186424E-02  0.23936377653E-01  0.00000000000E+00 0.  1.
     999901    1    3    3    0    0  0.61219769146E-01  0.19116709172E-01  0.94827486100E-01  0.88741510063E+00  0.88000000000E+00 0.  1.
        -11    1    4    4    0    0 -0.61335425876E-01 -0.38428998453E-01 -0.79440393924E-01  0.10747027355E+00  0.51100000000E-03 0.  1.
         11    1    4    4    0    0 -0.94016458546E-02 -0.11967598945E-02 -0.23245210818E-01  0.25108248167E-01  0.51100000000E-03 0. -1.
</event>
<event>
 8    1  0.2091933E+005  0.1043930E+01  0.7957747E-01            NaN
         13   -1    0    0    0    0  0.00000000000E+00  0.00000000000E+00  0.74505805969E-08  0.10566000000E+00  0.10566000000E+00 0.  1.
     999900   -1    0    0    0    0 -0.00000000000E+00 -0.00000000000E+00 -0.74505805969E-08  0.93827000000E+00  0.93827000000E+00 0. -1.
     999902    2    1    2    0    0  0.14208066353E-01 -0.81505905851E-02 -0.18012989507E-01  0.10195831508E+01  0.10192924174E+01 0.  0.
     999903    2    3    3    0    0  0.11998033604E+00 -0.14098698819E-01  0.45802781302E-01  0.13093496075E+00  0.21260640293E-01 0.  0.
         14    1    1    2    0    0 -0.14208066353E-01  0.81505905851E-02  0.18012989507E-01  0.24346849229E-01  0.00000000000E+00 0.  1.
     999901    1    3    3    0    0 -0.10577226969E+00  0.59481082341E-02 -0.63815770809E-01  0.88864819002E+00  0.88000000000E+00 0. -1.
        -11    1    4    4    0    0  0.45785046403E-01 -0.65842203012E-02  0.28646097244E-01  0.54410315561E-01  0.51100000000E-03 0.  1.
         11    1    4    4    0    0  0.74195289640E-01 -0.75144785180E-02  0.17156684058E-01  0.76524645187E-01  0.51100000000E-03 0. -1.
</event>
<event>
 8    1  0.1128641E+005  0.1043930E+01  0.7957747E-01            NaN
         13   -1    0    0    0    0  0.00000000000E+00  0.00000000000E+00  0.74505805969E-08  0.10566000000E+00  0.10566000000E+00 0.  1.
     999900   -1    0    0    0    0 -0.00000000000E+00 -0.00000000000E+00 -0.74505805969E-08  0.93827000000E+00  0.93827000000E+00 0.  1.
     999902    2    1    2    0    0 -0.89772558459E-02 -0.23967606506E-02 -0.22070229624E-01  0.10199835886E+01  0.10197024519E+01 0.  0.
     999903    2    3    3    0    0  0.73841981997E-01  0.87346739425E-01  0.55129191171E-01  0.12820296952E+00  0.17739292018E-01 0.  0.
         14    1    1    2    0    0  0.89772558459E-02  0.23967606506E-02  0.22070229624E-01  0.23946411418E-01  0.00000000000E+00 0.  1.
     999901    1    3    3    0    0 -0.82819237843E-01 -0.89743500075E-01 -0.77199420795E-01  0.89178061906E+00  0.88000000000E+00 0.  1.
        -11    1    4    4    0    0  0.46172641457E-01  0.60250700938E-01  0.44698851170E-01  0.88092611492E-01  0.51100000000E-03 0. -1.
         11    1    4    4    0    0  0.27669340540E-01  0.27096038487E-01  0.10430340001E-01  0.40110358028E-01  0.51100000000E-03 0.  1.
</event>
<event>
 8    1  0.1128641E+005  0.1043930E+01  0.7957747E-01            NaN
         13   -1    0    0    0    0  0.00000000000E+00  0.00000000000E+00  0.74505805969E-08  0.10566000000E+00  0.10566000000E+00 0. -1.
     999900   -1    0    0    0    0 -0.00000000000E+00 -0.00000000000E+00 -0.74505805969E-08  0.93827000000E+00  0.93827000000E+00 0.  1.
     999902    2    1    2    0    0 -0.14557432221E-01  0.16452241723E-01 -0.85163778479E-02  0.10203689350E+01  0.10200968777E+01 0.  0.
     999903    2    3    3    0    0  0.11405170371E+00  0.52514031936E-01 -0.28659370297E-01  0.13006196398E+00  0.18144980048E-01 0.  0.
         14    1    1    2    0    0  0.14557432221E-01 -0.16452241723E-01  0.85163778479E-02  0.23561064964E-01  0.00000000000E+00 0. -1.
     999901    1    3    3    0    0 -0.12860913593E+00 -0.36061790212E-01  0.20142992449E-01  0.89030697105E+00  0.88000000000E+00 0.  1.
        -11    1    4    4    0    0  0.81035070154E-01  0.41257888000E-01 -0.28076817505E-01  0.95170713558E-01  0.51100000000E-03 0.  1.
         11    1    4    4    0    0  0.33016633554E-01  0.11256143936E-01 -0.58255279199E-03  0.34891250426E-01  0.51100000000E-03 0. -1.
</event>
<event>
 8    1  0.1128641E+005  0.1043930E+01  0.7957747E-01            NaN
         13   -1    0    0    0    0  0.00000000000E+00  0.00000000000E+00  0.74505805969E-08  0.10566000000E+00  0.10566000000E+00 0.  1.
     999900   -1    0    0    0    0 -0.00000000000E+00 -0.00000000000E+00 -0.74505805969E-08  0.93827000000E+00  0.93827000000E+00 0. -1.
     999902    2    1    2    0    0 -0.11913009771E-01 -0.20162985434E-01  0.44323542369E-02  0.10200949093E+01  0.10198164112E+01 0.  0.
     999903    2    3    3    0    0  0.10519072554E+00 -0.71962277455E-01  0.20723939664E-01  0.13067832120E+00  0.20091884925E-01 0.  0.
         14    1    1    2    0    0  0.11913009771E-01  0.20162985434E-01 -0.44323542369E-02  0.23835090675E-01  0.00000000000E+00 0. -1.
     999901    1    3    3    0    0 -0.11710373531E+00  0.51799292021E-01 -0.16291585427E-01  0.88941658813E+00  0.88000000000E+00 0. -1.
        -11    1    4    4    0    0  0.57212883390E-01 -0.29510615561E-01  0.41851826942E-02  0.64513311275E-01  0.51100000000E-03 0.  1.
         11    1    4    4    0    0  0.47977842151E-01 -0.42451661894E-01  0.16538756970E-01  0.66165009924E-01  0.51100000000E-03 0. -1.
</event>
<event>
 8    1  0.1128641E+005  0.1043930E+01  0.7957747E-01            NaN
         13   -1    0    0    0    0  0.00000000000E+00  0.00000000000E+00  0.74505805969E-08  0.10566000000E+00  0.10566000000E+00 0.  1.
     999900   -1    0    0    0    0 -0.00000000000E+00 -0.00000000000E+00 -0.74505805969E-08  0.93827000000E+00  0.93827000000E+00 0.  1.
     999902    2    1    2    0    0  0.50064497698E-03  0.23496923613E-01 -0.46998945619E-02  0.10199624162E+01  0.10196807762E+01 0.  0.
     999903    2    3    3    0    0 -0.76636368330E-01 -0.45871207929E-01  0.90232308661E-01  0.12879790854E+00  0.21673279624E-01 0.  0.
         14    1    1    2    0    0 -0.50064497698E-03 -0.23496923613E-01  0.46998945619E-02  0.23967583807E-01  0.00000000000E+00 0.  1.
     999901    1    3    3    0    0  0.77137013307E-01  0.69368131542E-01 -0.94932203223E-01  0.89116450766E+00  0.88000000000E+00 0.  1.
        -11    1    4    4    0    0 -0.61729139104E-01 -0.26514700679E-01  0.70530644787E-01  0.97408156443E-01  0.51100000000E-03 0. -1.
         11    1    4    4    0    0 -0.14907229225E-01 -0.19356507250E-01  0.19701663874E-01  0.31389752094E-01  0.51100000000E-03 0.  1.
</event>
<event>
 8    1  0.1128641E+005  0.1043930E+01  0.7957747E-01            NaN
         13   -1    0    0    0    0  0.00000000000E+00  0.00000000000E+00  0.74505805969E-08  0.10566000000E+00  0.10566000000E+00 0.  1.
     999900   -1    0    0    0    0 -0.00000000000E+00 -0.00000000000E+00 -0.74505805969E-08  0.93827000000E+00  0.93827000000E+00 0. -1.
     999902    2    1    2    0    0  0.33428457027E-02 -0.60314463835E-02 -0.22210902322E-01  0.10206732344E+01  0.10204082391E+01 0.  0.
     999903    2    3    3    0    0 -0.61066397581E-01 -0.34361471342E-01 -0.11171057499E+00  0.13333940078E+00  0.19756710493E-01 0.  0.
         14    1    1    2    0    0 -0.33428457027E-02  0.60314463835E-02  0.22210902322E-01  0.23256765571E-01  0.00000000000E+00 0.  1.
     999901    1    3    3    0    0  0.64409243284E-01  0.28330024959E-01  0.89499672665E-01  0.88733383365E+00  0.88000000000E+00 0.  1.
        -11    1    4    4    0    0 -0.16211749156E-01 -0.16925131054E-02 -0.35492294352E-01  0.39059563371E-01  0.51100000000E-03 0.  1.
         11    1    4    4    0    0 -0.44854648425E-01 -0.32668958237E-01 -0.76218280635E-01  0.94279837407E-01  0.51100000000E-03 0. -1.
</event>
<event>
 8    1  0.1128641E+005  0.1043930E+01  0.7957747E-01            NaN
         13   -1    0    0    0    0  0.00000000000E+00  0.00000000000E+00  0.74505805969E-08  0.10566000000E+00  0.10566000000E+00 0.  1.
     999900   -1    0    0    0    0 -0.00000000000E+00 -0.00000000000E+00 -0.74505805969E-08  0.93827000000E+00  0.93827000000E+00 0. -1.
     999902    2    1    2    0    0  0.59558964005E-02 -0.57851011878E-02 -0.22927350358E-01  0.10195455071E+01  0.10192538632E+01 0.  0.
     999903    2    3    3    0    0 -0.39281581414E-01 -0.95289049771E-01 -0.79363840655E-01  0.13205327413E+00  0.22724488127E-01 0.  0.
         14    1    1    2    0    0 -0.59558964005E-02  0.57851011878E-02  0.22927350358E-01  0.24384492862E-01  0.00000000000E+00 0.  1.
     999901    1    3    3    0    0  0.45237477814E-01  0.89503948583E-01  0.56436490297E-01  0.88749223301E+00  0.88000000000E+00 0.  1.
        -11    1    4    4    0    0 -0.26198371127E-01 -0.79437374625E-01 -0.54704982557E-01  0.99947723208E-01  0.51100000000E-03 0. -1.
         11    1    4    4    0    0 -0.13083210287E-01 -0.15851675146E-01 -0.24658858098E-01  0.32105550923E-01  0.51100000000E-03 0.  1.
</event>
<event>
 8    1  0.1128641E+005  0.1043930E+01  0.7957747E-01            NaN
         13   -1    0    0    0    0  0.00000000000E+00  0.00000000000E+00  0.74505805969E-08  0.10566000000E+00  0.10566000000E+00 0. -1.
     999900   -1    0    0    0    0 -0.00000000000E+00 -0.00000000000E+00 -0.74505805969E-08  0.93827000000E+00  0.93827000000E+00 0.  1.
     999902    2    1    2    0    0  0.10022188339E-01 -0.10265873067E-01 -0.19193858524E-01  0.10199667654E+01  0.10196852288E+01 0.  0.
     999903    2    3    3    0    0 -0.15623819712E-01  0.70820269365E-01 -0.10746661464E+00  0.13147098052E+00  0.21815846556E-01 0.  0.
         14    1    1    2    0    0 -0.10022188339E-01  0.10265873067E-01  0.19193858524E-01  0.23963234630E-01  0.00000000000E+00 0. -1.
     999901    1    3    3    0    0  0.25646008051E-01 -0.81086142432E-01  0.88272756118E-01  0.88849578485E+00  0.88000000000E+00 0. -1.
        -11    1    4    4    0    0 -0.10886776343E-01  0.48698982885E-01 -0.54626279547E-01  0.73989217940E-01  0.51100000000E-03 0.  1.
         11    1    4    4    0    0 -0.47370433699E-02  0.22121286480E-01 -0.52840335094E-01  0.57481762580E-01  0.51100000000E-03 0. -1.
</event>
<event>
 8    1  0.1128641E+005  0.1043930E+01  0.7957747E-01            NaN
         13   -1    0    0    0    0  0.00000000000E+00  0.00000000000E+00  0.74505805969E-08  0.10566000000E+00  0.10566000000E+00 0.  1.
     999900   -1    0    0    0    0 -0.00000000000E+00 -0.00000000000E+00 -0.74505805969E-08  0.93827000000E+00  0.93827000000E+00 0.  1.
     999902    2    1    2    0    0  0.59568456598E-02 -0.19274913491E-01 -0.12684113646E-01  0.10200994935E+01  0.10198211037E+01 0.  0.
     999903    2    3    3    0    0 -0.10170390157E+00  0.55552463188E-02 -0.79366231309E-01  0.13068739660E+00  0.20140819242E-01 0.  0.
         14    1    1    2    0    0 -0.59568456598E-02  0.19274913491E-01  0.12684113646E-01  0.23830506484E-01  0.00000000000E+00 0. -1.
     999901    1    3    3    0    0  0.10766074723E+00 -0.24830159809E-01  0.66682117663E-01  0.88941209692E+00  0.88000000000E+00 0. -1.
        -11    1    4    4    0    0 -0.10484606869E-01  0.37819028825E-02 -0.26141843107E-02  0.11459705547E-01  0.51100000000E-03 0.  1.
         11    1    4    4    0    0 -0.91219294706E-01  0.17733434363E-02 -0.76752046999E-01  0.11922769105E+00  0.51100000000E-03 0. -1.
</event>
<event>
 8    1  0.1128641E+005  0.1043930E+01  0.7957747E-01            NaN
         13   -1    0    0    0    0  0.00000000000E+00  0.00000000000E+00  0.74505805969E-08  0.10566000000E+00  0.10566000000E+00 0. -1.
     999900   -1    0    0    0    0 -0.00000000000E+00 -0.00000000000E+00 -0.74505805969E-08  0.93827000000E+00  0.93827000000E+00 0.  1.
     999902    2    1    2    0    0 -0.23933782898E-01  0.33711233582E-02 -0.14691798689E-02  0.10197153572E+01  0.10194278105E+01 0.  0.
     999903    2    3    3    0    0  0.48834065655E-01 -0.48515625331E-01  0.10666528482E+00  0.12860343554E+00  0.20562800808E-01 0.  0.
         14    1    1    2    0    0  0.23933782898E-01 -0.33711233582E-02  0.14691798689E-02  0.24214642802E-01  0.00000000000E+00 0. -1.
     999901    1    3    3    0    0 -0.72767848553E-01  0.51886748689E-01 -0.10813446469E+00  0.89111192166E+00  0.88000000000E+00 0.  1.
        -11    1    4    4    0    0  0.33000677389E-01 -0.35540155774E-01  0.56757553200E-01  0.74658076233E-01  0.51100000000E-03 0. -1.
         11    1    4    4    0    0  0.15833388266E-01 -0.12975469556E-01  0.49907731618E-01  0.53945359304E-01  0.51100000000E-03 0.  1.
</event>
<event>
 8    1  0.1128641E+005  0.1043930E+01  0.7957747E-01            NaN
         13   -1    0    0    0    0  0.00000000000E+00  0.00000000000E+00  0.74505805969E-08  0.10566000000E+00  0.10566000000E+00 0. -1.
     999900   -1    0    0    0    0 -0.00000000000E+00 -0.00000000000E+00 -0.74505805969E-08  0.93827000000E+00  0.93827000000E+00 0. -1.
     999902    2    1    2    0    0  0.12906487560E-01  0.18527426450E-01  0.58556783787E-02  0.10206033646E+01  0.10203367561E+01 0.  0.
     999903    2    3    3    0    0  0.12754449542E+00  0.31087557262E-02  0.30373757396E-01  0.13269529248E+00  0.20204277593E-01 0.  0.
         14    1    1    2    0    0 -0.12906487560E-01 -0.18527426450E-01 -0.58556783787E-02  0.23326635447E-01  0.00000000000E+00 0.  1.
     999901    1    3    3    0    0 -0.11463800786E+00  0.15418670724E-01 -0.24518079017E-01  0.88790807207E+00  0.88000000000E+00 0.  1.
        -11    1    4    4    0    0  0.51225698197E-01  0.10966991759E-01  0.10353515631E-01  0.53402279642E-01  0.51100000000E-03 0. -1.
         11    1    4    4    0    0  0.76318797227E-01 -0.78582360331E-02  0.20020241765E-01  0.79293012838E-01  0.51100000000E-03 0.  1.
</event>
<event>
 8    1  0.1128641E+005  0.1043930E+01  0.7957747E-01            NaN
         13   -1    0    0    0    0  0.00000000000E+00  0.00000000000E+00  0.74505805969E-08  0.10566000000E+00  0.10566000000E+00 0. -1.
     999900   -1    0    0    0    0 -0.00000000000E+00 -0.00000000000E+00 -0.74505805969E-08  0.93827000000E+00  0.93827000000E+00 0. -1.
     999902    2    1    2    0    0  0.53350251577E-02 -0.23875838713E-01 -0.10568400198E-03  0.10194651408E+01  0.10191715478E+01 0.  0.
     999903    2    3    3    0    0  0.51280661464E-01 -0.18158565160E-01 -0.11701191827E+00  0.13052714726E+00  0.19649616383E-01 0.  0.
         14    1    1    2    0    0 -0.53350251577E-02  0.23875838713E-01  0.10568400198E-03  0.24464859223E-01  0.00000000000E+00 0.  1.
     999901    1    3    3    0    0 -0.45945636306E-01 -0.57172735528E-02  0.11690623427E+00  0.88893799352E+00  0.88000000000E+00 0.  1.
        -11    1    4    4    0    0  0.15985805022E-01 -0.67323199276E-02 -0.60378378982E-01  0.62822606308E-01  0.51100000000E-03 0. -1.
         11    1    4    4    0    0  0.35294856442E-01 -0.11426245233E-01 -0.56633539292E-01  0.67704540949E-01  0.51100000000E-03 0.  1.
</event>
<event>
 8    1  0.1128641E+005  0.1043930E+01  0.7957747E-01            NaN
         13   -1    0    0    0    0  0.00000000000E+00  0.00000000000E+00  0.74505805969E-08  0.10566000000E+00  0.10566000000E+00 0. -1.
     999900   -1    0    0    0    0 -0.00000000000E+00 -0.00000000000E+00 -0.74505805969E-08  0.93827000000E+00  0.93827000000E+00 0. -1.
     999902    2    1    2    0    0  0.34237017329E-02  0.97320782553E-02  0.10368118500E-01  0.10293035527E+01  0.10291996262E+01 0.  0.
     999903    2    3    3    0    0 -0.10331662894E+00 -0.22297066830E-01  0.88263607085E-01  0.13886148746E+00  0.17904283271E-01 0.  0.
         14    1    1    2    0    0 -0.34237017329E-02 -0.97320782553E-02 -0.10368118500E-01  0.14626447345E-01  0.00000000000E+00 0.  1.
     999901    1    3    3    0    0  0.10674033067E+00  0.32029145085E-01 -0.77895488585E-01  0.89044206519E+00  0.88000000000E+00 0. -1.
        -11    1    4    4    0    0 -0.72667550239E-01 -0.23905373842E-01  0.63602129292E-01  0.99486339403E-01  0.51100000000E-03 0.  1.
         11    1    4    4    0    0 -0.30649078700E-01  0.16083070128E-02  0.24661477793E-01  0.39375148057E-01  0.51100000000E-03 0. -1.
</event>
<event>
 8    1  0.1128641E+005  0.1043930E+01  0.7957747E-01            NaN
         13   -1    0    0    0    0  0.00000000000E+00  0.00000000000E+00  0.74505805969E-08  0.10566000000E+00  0.10566000000E+00 0. -1.
     999900   -1    0    0    0    0 -0.00000000000E+00 -0.00000000000E+00 -0.74505805969E-08  0.93827000000E+00  0.93827000000E+00 0. -1.
     999902    2    1    2    0    0  0.27230350023E-02  0.16629969103E-01  0.16875382882E-01  0.10200815338E+01  0.10198027193E+01 0.  0.
     999903    2    3    3    0    0 -0.87883738349E-01  0.58436617217E-01 -0.73628901625E-01  0.12982965445E+00  0.17208553722E-01 0.  0.
         14    1    1    2    0    0 -0.27230350023E-02 -0.16629969103E-01 -0.16875382882E-01  0.23848466186E-01  0.00000000000E+00 0.  1.
     999901    1    3    3    0    0  0.90606773352E-01 -0.41806648114E-01  0.90504284507E-01  0.89025187937E+00  0.88000000000E+00 0. -1.
        -11    1    4    4    0    0 -0.72778719017E-02  0.10408466679E-01 -0.12599548356E-01  0.17897299735E-01  0.51100000000E-03 0.  1.
         11    1    4    4    0    0 -0.80605866448E-01  0.48028150538E-01 -0.61029353268E-01  0.11193235471E+00  0.51100000000E-03 0. -1.
</event>
<event>
 8    1  0.1128641E+005  0.1043930E+01  0.7957747E-01            NaN
         13   -1    0    0    0    0  0.00000000000E+00  0.00000000000E+00  0.74505805969E-08  0.10566000000E+00  0.10566000000E+00 0. -1.
     999900   -1    0    0    0    0 -0.00000000000E+00 -0.00000000000E+00 -0.74505805969E-08  0.93827000000E+00  0.93827000000E+00 0. -1.
     999902    2    1    2    0    0  0.24737732428E-01  0.87647860494E-02 -0.76041515467E-02  0.10166060178E+01  0.10162387493E+01 0.  0.
     999903    2    3    3    0    0  0.78993040986E-01 -0.19278786246E-01 -0.99189802258E-01  0.12974751060E+00  0.19601722151E-01 0.  0.
         14    1    1    2    0    0 -0.24737732428E-01 -0.87647860494E-02  0.76041515467E-02  0.27323982157E-01  0.00000000000E+00 0. -1.
     999901    1    3    3    0    0 -0.54255308557E-01  0.28043572295E-01  0.91585650712E-01  0.88685850724E+00  0.88000000000E+00 0.  1.
        -11    1    4    4    0    0  0.38264899722E-01 -0.17029983460E-01 -0.40430859545E-01  0.58216307096E-01  0.51100000000E-03 0. -1.
         11    1    4    4    0    0  0.40728141264E-01 -0.22488027860E-02 -0.58758942713E-01  0.71531203503E-01  0.51100000000E-03 0.  1.
</event>
<event>
 8    1  0.1128641E+005  0.1043930E+01  0.7957747E-01            NaN
         13   -1    0    0    0    0  0.00000000000E+00  0.00000000000E+00  0.74505805969E-08  0.10566000000E+00  0.10566000000E+00 0. -1.
     999900   -1    0    0    0    0 -0.00000000000E+00 -0.00000000000E+00 -0.74505805969E-08  0.93827000000E+00  0.93827000000E+00 0. -1.
     999902    2    1    2    0    0 -0.22224920759E-01  0.75853903658E-03 -0.73949636867E-02  0.10204948134E+01  0.10202256888E+01 0.  0.
     999903    2    3    3    0    0 -0.39898368131E-01 -0.50860464022E-01 -0.11361766101E+00  0.13242942522E+00  0.21211157217E-01 0.  0.
         14    1    1    2    0    0  0.22224920759E-01 -0.75853903658E-03  0.73949636867E-02  0.23435186625E-01  0.00000000000E+00 0. -1.
     999901    1    3    3    0    0  0.17673447372E-01  0.51619003058E-01  0.10622269732E+00  0.88806538816E+00  0.88000000000E+00 0.  1.
        -11    1    4    4    0    0 -0.26120852559E-01 -0.42501297161E-01 -0.98074384772E-01  0.11003410957E+00  0.51100000000E-03 0. -1.
         11    1    4    4    0    0 -0.13777515572E-01 -0.83591668603E-02 -0.15543276236E-01  0.22395315650E-01  0.51100000000E-03 0.  1.
</event>
<event>
 8    1  0.1128641E+005  0.1043930E+01  0.7957747E-01            NaN
         13   -1    0    0    0    0  0.00000000000E+00  0.00000000000E+00  0.74505805969E-08  0.10566000000E+00  0.10566000000E+00 0.  1.
     999900   -1    0    0    0    0 -0.00000000000E+00 -0.00000000000E+00 -0.74505805969E-08  0.93827000000E+00  0.93827000000E+00 0. -1.
     999902    2    1    2    0    0 -0.51222905561E-02 -0.13789297305E-01  0.18530562608E-01  0.10202706608E+01  0.10199963024E+01 0.  0.
     999903    2    3    3    0    0  0.51234693609E-01 -0.36701198675E-01 -0.11054142302E+00  0.12877717100E+00  0.19803579294E-01 0.  0.
         14    1    1    2    0    0  0.51222905561E-02  0.13789297305E-01 -0.18530562608E-01  0.23659339198E-01  0.00000000000E+00 0. -1.
     999901    1    3    3    0    0 -0.56356984166E-01  0.22911901370E-01  0.12907198563E+00  0.89149348980E+00  0.88000000000E+00 0.  1.
        -11    1    4    4    0    0  0.16678311870E-01 -0.32951390341E-02 -0.39461334562E-01  0.42970711822E-01  0.51100000000E-03 0. -1.
         11    1    4    4    0    0  0.34556381739E-01 -0.33406059641E-01 -0.71080088460E-01  0.85806459175E-01  0.51100000000E-03 0.  1.
</event>
<event>
 7    1  0.1128641E+005  0.1043930E+01  0.7957747E-01            NaN
         13   -1    0    0    0    0  0.00000000000E+00  0.00000000000E+00  0.74505805969E-08  0.10566000000E+00  0.10566000000E+00 0.  1.
     999900   -1    0    0    0    0 -0.00000000000E+00 -0.00000000000E+00 -0.74505805969E-08  0.93827000000E+00  0.93827000000E+00 0.  1.
     999903    2    1    2    0    0  0.52662072231E-01 -0.26576263499E-01 -0.96238033735E-01  0.11477222806E+00  0.20768090009E-01 0.  0.
         14    1    1    2    0    0 -0.25318389886E-01  0.32968144248E-01 -0.87289162127E-02  0.42474855854E-01  0.00000000000E+00 0.  1.
     999901    1    1    2    0    0 -0.27343682345E-01 -0.63918807489E-02  0.10496694995E+00  0.88668291609E+00  0.88000000000E+00 0. -1.
        -11    1    3    3    0    0  0.13144890791E-01 -0.50090376457E-02 -0.93088007511E-02  0.16875826038E-01  0.51100000000E-03 0. -1.
         11    1    3    3    0    0  0.39517181440E-01 -0.21567225853E-01 -0.86929232984E-01  0.97896402018E-01  0.51100000000E-03 0.  1.
</event>
<event>
 8    1  0.1128641E+005  0.1043930E+01  0.7957747E-01            NaN
         13   -1    0    0    0    0  0.00000000000E+00  0.00000000000E+00  0.74505805969E-08  0.10566000000E+00  0.10566000000E+00 0.  1.
     999900   -1    0    0    0    0 -0.00000000000E+00 -0.00000000000E+00 -0.74505805969E-08  0.93827000000E+00  0.93827000000E+00 0. -1.
     999902    2    1    2    0    0 -0.47294574786E-02  0.15566435046E-01  0.17217177905E-01  0.10202421786E+01  0.10199671515E+01 0.  0.
     999903    2    3    3    0    0 -0.21173965947E-01  0.64671143777E-01  0.11295881592E+00  0.13353582611E+00  0.21010213925E-01 0.  0.
         14    1    1    2    0    0  0.47294574786E-02 -0.15566435046E-01 -0.17217177905E-01  0.23687821409E-01  0.00000000000E+00 0.  1.
     999901    1    3    3    0    0  0.16444508469E-01 -0.49104708731E-01 -0.95741638017E-01  0.88670635248E+00  0.88000000000E+00 0. -1.
        -11    1    4    4    0    0 -0.12294078216E-01  0.39961691340E-01  0.49122093516E-01  0.64508312072E-01  0.51100000000E-03 0.  1.
         11    1    4    4    0    0 -0.88798877313E-02  0.24709452437E-01  0.63836722406E-01  0.69027514039E-01  0.51100000000E-03 0. -1.
</event>
<event>
 7    1  0.1128641E+005  0.1043930E+01  0.7957747E-01            NaN
         13   -1    0    0    0    0  0.00000000000E+00  0.00000000000E+00  0.74505805969E-08  0.10566000000E+00  0.10566000000E+00 0. -1.
     999900   -1    0    0    0    0 -0.00000000000E+00 -0.00000000000E+00 -0.74505805969E-08  0.93827000000E+00  0.93827000000E+00 0.  1.
     999903    2    1    2    0    0 -0.14103890418E-01  0.46050329245E-01 -0.55364557403E-02  0.52099534368E-01  0.19082887379E-01 0.  0.
         14    1    1    2    0    0  0.48933638793E-01 -0.93681841774E-01 -0.27585808552E-01  0.10923262021E+00  0.00000000000E+00 0. -1.
     999901    1    1    2    0    0 -0.34829748375E-01  0.47631512529E-01  0.33122264292E-01  0.88259784543E+00  0.88000000000E+00 0. -1.
        -11    1    3    3    0    0 -0.31855598468E-02  0.35294331500E-01  0.93772656362E-03  0.35453886665E-01  0.51100000000E-03 0. -1.
         11    1    3    3    0    0 -0.10918330571E-01  0.10755997745E-01 -0.64741823039E-02  0.16645647703E-01  0.51100000000E-03 0.  1.
</event>
<event>
 8    1  0.1128641E+005  0.1043930E+01  0.7957747E-01            NaN
         13   -1    0    0    0    0  0.00000000000E+00  0.00000000000E+00  0.74505805969E-08  0.10566000000E+00  0.10566000000E+00 0. -1.
     999900   -1    0    0    0    0 -0.00000000000E+00 -0.00000000000E+00 -0.74505805969E-08  0.93827000000E+00  0.93827000000E+00 0. -1.
     999902    2    1    2    0    0  0.53362565879E-02  0.83511177247E-02  0.22584657128E-01  0.10192665951E+01  0.10189681587E+01 0.  0.
     999903    2    3    3    0    0 -0.16871870160E-01 -0.81399716527E-01 -0.93735335097E-01  0.12681001147E+00  0.19593164894E-01 0.  0.
         14    1    1    2    0    0 -0.53362565879E-02 -0.83511177247E-02 -0.22584657128E-01  0.24663404858E-01  0.00000000000E+00 0.  1.
     999901    1    3    3    0    0  0.22208126748E-01  0.89750834252E-01  0.11631999222E+00  0.89245658367E+00  0.88000000000E+00 0.  1.
        -11    1    4    4    0    0 -0.66854103281E-02 -0.28511882451E-01 -0.47603250904E-01  0.55892331941E-01  0.51100000000E-03 0. -1.
         11    1    4    4    0    0 -0.10186459832E-01 -0.52887834077E-01 -0.46132084193E-01  0.70917679532E-01  0.51100000000E-03 0.  1.
</event>
<event>
 8    1  0.1128641E+005  0.1043930E+01  0.7957747E-01            NaN
         13   -1    0    0    0    0  0.00000000000E+00  0.00000000000E+00  0.74505805969E-08  0.10566000000E+00  0.10566000000E+00 0.  1.
     999900   -1    0    0    0    0 -0.00000000000E+00 -0.00000000000E+00 -0.74505805969E-08  0.93827000000E+00  0.93827000000E+00 0.  1.
     999902    2    1    2    0    0  0.27044144323E-02 -0.20215050054E-01  0.95200966469E-02  0.10214223492E+01  0.10211743343E+01 0.  0.
     999903    2    3    3    0    0  0.75115198347E-01  0.95461087438E-01  0.42561448349E-01  0.13029047265E+00  0.20224196903E-01 0.  0.
         14    1    1    2    0    0 -0.27044144323E-02  0.20215050054E-01 -0.95200966469E-02  0.22507650838E-01  0.00000000000E+00 0. -1.
     999901    1    3    3    0    0 -0.72410783915E-01 -0.11567613749E+00 -0.33041351702E-01  0.89113187651E+00  0.88000000000E+00 0.  1.
        -11    1    4    4    0    0  0.57937109223E-01  0.76437257009E-01  0.41840293252E-01  0.10464336646E+00  0.51100000000E-03 0. -1.
         11    1    4    4    0    0  0.17178089124E-01  0.19023830429E-01  0.72115509657E-03  0.25647106188E-01  0.51100000000E-03 0.  1.
</event>
<event>
 8    1  0.1128641E+005  0.1043930E+01  0.7957747E-01            NaN
         13   -1    0    0    0    0  0.00000000000E+00  0.00000000000E+00  0.74505805969E-08  0.10566000000E+00  0.10566000000E+00 0.  1.
     999900   -1    0    0    0    0 -0.00000000000E+00 -0.00000000000E+00 -0.74505805969E-08  0.93827000000E+00  0.93827000000E+00 0. -1.
     999902    2    1    2    0    0  0.15228424573E-01  0.10906403443E-01 -0.14701902952E-01  0.10201182277E+01  0.10198402806E+01 0.  0.
     999903    2    3    3    0    0 -0.11345386276E+00  0.50138417902E-01  0.29401062884E-01  0.12880270911E+00  0.18441134735E-01 0.  0.
         14    1    1    2    0    0 -0.15228424573E-01 -0.10906403443E-01  0.14701902952E-01  0.23811772329E-01  0.00000000000E+00 0.  1.
     999901    1    3    3    0    0  0.12868228733E+00 -0.39232014459E-01 -0.44102965836E-01  0.89131551856E+00  0.88000000000E+00 0. -1.
        -11    1    4    4    0    0 -0.13410080480E-01  0.96571763145E-02 -0.13333425512E-02  0.16587050257E-01  0.51100000000E-03 0. -1.
         11    1    4    4    0    0 -0.10004378228E+00  0.40481241587E-01  0.30734405435E-01  0.11221565885E+00  0.51100000000E-03 0.  1.
</event>
<event>
 8    1  0.1128641E+005  0.1043930E+01  0.7957747E-01            NaN
         13   -1    0    0    0    0  0.00000000000E+00  0.00000000000E+00  0.74505805969E-08  0.10566000000E+00  0.10566000000E+00 0. -1.
     999900   -1    0    0    0    0 -0.00000000000E+00 -0.00000000000E+00 -0.74505805969E-08  0.93827000000E+00  0.93827000000E+00 0. -1.
     999902    2    1    2    0    0 -0.82458112505E-02 -0.43490343875E-02  0.21616437608E-01  0.10203890171E+01  0.10201174287E+01 0.  0.
     999903    2    3    3    0    0 -0.49914506681E-01  0.86948285749E-01  0.84288084490E-01  0.13247054322E+00  0.19811644635E-01 0.  0.
         14    1    1    2    0    0  0.82458112505E-02  0.43490343875E-02 -0.21616437608E-01  0.23540982948E-01  0.00000000000E+00 0.  1.
     999901    1    3    3    0    0  0.41668695431E-01 -0.91297320136E-01 -0.62671646882E-01  0.88791847383E+00  0.88000000000E+00 0.  1.
        -11    1    4    4    0    0 -0.42151527433E-02  0.54608433768E-02  0.43537208910E-03  0.69310167285E-02  0.51100000000E-03 0. -1.
         11    1    4    4    0    0 -0.45699353938E-01  0.81487442372E-01  0.83852712401E-01  0.12553952650E+00  0.51100000000E-03 0.  1.
</event>
<event>
 8    1  0.1128641E+005  0.1043930E+01  0.7957747E-01            NaN
         13   -1    0    0    0    0  0.00000000000E+00  0.00000000000E+00  0.74505805969E-08  0.10566000000E+00  0.10566000000E+00 0.  1.
     999900   -1    0    0    0    0 -0.00000000000E+00 -0.00000000000E+00 -0.74505805969E-08  0.93827000000E+00  0.93827000000E+00 0.  1.
     999902    2    1    2    0    0  0.15602297396E-01 -0.10035547776E-01  0.64327928772E-02  0.10242952164E+01  0.10241070089E+01 0.  0.
     999903    2    3    3    0    0 -0.53601543915E-01 -0.12170576760E+00  0.12848501557E-02  0.13452788109E+00  0.20265255344E-01 0.  0.
         14    1    1    2    0    0 -0.15602297396E-01  0.10035547776E-01 -0.64327928772E-02  0.19634783609E-01  0.00000000000E+00 0.  1.
     999901    1    3    3    0    0  0.69203841310E-01  0.11167021982E+00  0.51479427215E-02  0.88976733530E+00  0.88000000000E+00 0. -1.
        -11    1    4    4    0    0 -0.16159173957E-01 -0.56070191679E-01 -0.57396740626E-02  0.58636083406E-01  0.51100000000E-03 0. -1.
         11    1    4    4    0    0 -0.37442369958E-01 -0.65635575922E-01  0.70245242183E-02  0.75891797687E-01  0.51100000000E-03 0.  1.
</event>
<event>
 8    1  0.1128641E+005  0.1043930E+01  0.7957747E-01            NaN
         13   -1    0    0    0    0  0.00000000000E+00  0.00000000000E+00  0.74505805969E-08  0.10566000000E+00  0.10566000000E+00 0. -1.
     999900   -1    0    0    0    0 -0.00000000000E+00 -0.00000000000E+00 -0.74505805969E-08  0.93827000000E+00  0.93827000000E+00 0. -1.
     999902    2    1    2    0    0 -0.21171879970E-01 -0.79851760314E-02  0.63107081585E-02  0.10204387979E+01  0.10201683703E+01 0.  0.
     999903    2    3    3    0    0 -0.14680493826E-01  0.69221466264E-01  0.10834175657E+00  0.13116193521E+00  0.21410014970E-01 0.  0.
         14    1    1    2    0    0  0.21171879970E-01  0.79851760314E-02 -0.63107081585E-02  0.23491202080E-01  0.00000000000E+00 0.  1.
     999901    1    3    3    0    0 -0.64913861437E-02 -0.77206642295E-01 -0.10203104841E+00  0.88927686271E+00  0.88000000000E+00 0. -1.
        -11    1    4    4    0    0 -0.93441149245E-02  0.16141565456E-01  0.16294904286E-01  0.24771912437E-01  0.51100000000E-03 0.  1.
         11    1    4    4    0    0 -0.53363789018E-02  0.53079900808E-01  0.92046852284E-01  0.10639002277E+00  0.51100000000E-03 0. -1.
</event>
<event>
 8    1  0.1128641E+005  0.1043930E+01  0.7957747E-01            NaN
         13   -1    0    0    0    0  0.00000000000E+00  0.00000000000E+00  0.74505805969E-08  0.10566000000E+00  0.10566000000E+00 0. -1.
     999900   -1    0    0    0    0 -0.00000000000E+00 -0.00000000000E+00 -0.74505805969E-08  0.93827000000E+00  0.93827000000E+00 0.  1.
     999902    2    1    2    0    0 -0.10906255923E-01  0.57563789523E-02 -0.12431222983E-01  0.10264194997E+01  0.10262701261E+01 0.  0.
     999903    2    3    3    0    0  0.40176704115E-01  0.10781738303E+00  0.67582370414E-01  0.13544919013E+00  0.23245444239E-01 0.  0.
         14    1    1    2    0    0  0.10906255923E-01 -0.57563789523E-02  0.12431222983E-01  0.17510500328E-01  0.00000000000E+00 0. -1.
     999901    1    3    3    0    0 -0.51082960038E-01 -0.10206100408E+00 -0.80013593397E-01  0.89097030954E+00  0.88000000000E+00 0.  1.
        -11    1    4    4    0    0  0.39627270542E-01  0.10500385018E+00  0.69455784706E-01  0.13198672764E+00  0.51100000000E-03 0. -1.
         11    1    4    4    0    0  0.54943357365E-03  0.28135328573E-02 -0.18734142917E-02  0.34624624907E-02  0.51100000000E-03 0.  1.
</event>
<event>
 8    1  0.1128641E+005  0.1043930E+01  0.7957747E-01            NaN
         13   -1    0    0    0    0  0.00000000000E+00  0.00000000000E+00  0.74505805969E-08  0.10566000000E+00  0.10566000000E+00 0. -1.
     999900   -1    0    0    0    0 -0.00000000000E+00 -0.00000000000E+00 -0.74505805969E-08  0.93827000000E+00  0.93827000000E+00 0.  1.
     999902    2    1    2    0    0  0.13676002779E-01  0.17913605492E-01  0.64901419389E-02  0.10204768071E+01  0.10202072640E+01 0.  0.
     999903    2    3    3    0    0  0.25299896596E-01 -0.13846420588E-01 -0.12515345055E+00  0.13004216628E+00  0.20390456028E-01 0.  0.
         14    1    1    2    0    0 -0.13676002779E-01 -0.17913605492E-01 -0.64901419389E-02  0.23453192877E-01  0.00000000000E+00 0. -1.
     999901    1    3    3    0    0 -0.11623893817E-01  0.31760026080E-01  0.13164359249E+00  0.89043464084E+00  0.88000000000E+00 0. -1.
        -11    1    4    4    0    0  0.17057673426E-01  0.22115884602E-02 -0.64735675290E-01  0.66983760140E-01  0.51100000000E-03 0.  1.
         11    1    4    4    0    0  0.82422231699E-02 -0.16058009048E-01 -0.60417775257E-01  0.63058406144E-01  0.51100000000E-03 0. -1.
</event>
<event>
 8    1  0.1128641E+005  0.1043930E+01  0.7957747E-01            NaN
         13   -1    0    0    0    0  0.00000000000E+00  0.00000000000E+00  0.74505805969E-08  0.10566000000E+00  0.10566000000E+00 0.  1.
     999900   -1    0    0    0    0 -0.00000000000E+00 -0.00000000000E+00 -0.74505805969E-08  0.93827000000E+00  0.93827000000E+00 0. -1.
     999902    2    1    2    0    0  0.22236352631E-02  0.15638434567E-01  0.17714297462E-01  0.10201960260E+01  0.10199199134E+01 0.  0.
     999903    2    3    3    0    0  0.73052907956E-01 -0.50186457938E-01 -0.90712036512E-01  0.12828461093E+00  0.19309580864E-01 0.  0.
         14    1    1    2    0    0 -0.22236352631E-02 -0.15638434567E-01 -0.17714297462E-01  0.23733974047E-01  0.00000000000E+00 0. -1.
     999901    1    3    3    0    0 -0.70829272693E-01  0.65824892505E-01  0.10842633397E+00  0.89191141502E+00  0.88000000000E+00 0.  1.
        -11    1    4    4    0    0  0.32490775052E-01 -0.32689257129E-01 -0.52613321990E-01  0.69947557262E-01  0.51100000000E-03 0. -1.
         11    1    4    4    0    0  0.40562132904E-01 -0.17497200808E-01 -0.38098714522E-01  0.58337053672E-01  0.51100000000E-03 0.  1.
</event>
<event>
 7    1  0.1128641E+005  0.1043930E+01  0.7957747E-01            NaN
         13   -1    0    0    0    0  0.00000000000E+00  0.00000000000E+00  0.74505805969E-08  0.10566000000E+00  0.10566000000E+00 0. -1.
     999900   -1    0    0    0    0 -0.00000000000E+00 -0.00000000000E+00 -0.74505805969E-08  0.93827000000E+00  0.93827000000E+00 0.  1.
     999903    2    1    2    0    0 -0.35532882899E-01  0.94596307429E-01  0.56621887369E-01  0.11759215767E+00  0.20268948420E-01 0.  0.
         14    1    1    2    0    0  0.38731083282E-01  0.44614911446E-02 -0.44229637454E-02  0.39237282319E-01  0.00000000000E+00 0.  1.
     999901    1    1    2    0    0 -0.31982003831E-02 -0.99057798573E-01 -0.52198923624E-01  0.88710056001E+00  0.88000000000E+00 0. -1.
        -11    1    3    3    0    0  0.26506691122E-02  0.70449515308E-02  0.42884304741E-02  0.86780842210E-02  0.51100000000E-03 0. -1.
         11    1    3    3    0    0 -0.38183552012E-01  0.87551355898E-01  0.52333456895E-01  0.10891407345E+00  0.51100000000E-03 0.  1.
</event>
<event>
 8    1  0.1128641E+005  0.1043930E+01  0.7957747E-01            NaN
         13   -1    0    0    0    0  0.00000000000E+00  0.00000000000E+00  0.74505805969E-08  0.10566000000E+00  0.10566000000E+00 0.  1.
     999900   -1    0    0    0    0 -0.00000000000E+00 -0.00000000000E+00 -0.74505805969E-08  0.93827000000E+00  0.93827000000E+00 0. -1.
     999902    2    1    2    0    0  0.24215836866E-01 -0.49544307390E-02  0.15175671139E-02  0.10191659909E+01  0.10188650847E+01 0.  0.
     999903    2    3    3    0    0  0.10723799923E+00 -0.21772870648E-01  0.71876295555E-01  0.13230304201E+00  0.19074765749E-01 0.  0.
         14    1    1    2    0    0 -0.24215836866E-01  0.49544307390E-02 -0.15175671139E-02  0.24764009146E-01  0.00000000000E+00 0. -1.
     999901    1    3    3    0    0 -0.83022162359E-01  0.16818439909E-01 -0.70358728441E-01  0.88686294884E+00  0.88000000000E+00 0. -1.
        -11    1    4    4    0    0  0.50389333997E-01 -0.17023080528E-01  0.26595911245E-01  0.59468259326E-01  0.51100000000E-03 0.  1.
         11    1    4    4    0    0  0.56848665229E-01 -0.47497901200E-02  0.45280384309E-01  0.72834782684E-01  0.51100000000E-03 0. -1.
</event>
<event>
 8    1  0.1128641E+005  0.1043930E+01  0.7957747E-01            NaN
         13   -1    0    0    0    0  0.00000000000E+00  0.00000000000E+00  0.74505805969E-08  0.10566000000E+00  0.10566000000E+00 0. -1.
     999900   -1    0    0    0    0 -0.00000000000E+00 -0.00000000000E+00 -0.74505805969E-08  0.93827000000E+00  0.93827000000E+00 0.  1.
     999902    2    1    2    0    0  0.17481029429E-01  0.15772916868E-01  0.15820221264E-02  0.10203318202E+01  0.10200588950E+01 0.  0.
     999903    2    3    3    0    0 -0.12535516308E+00 -0.51667787444E-02  0.18292159102E-01  0.12841261005E+00  0.20361306988E-01 0.  0.
         14    1    1    2    0    0 -0.17481029429E-01 -0.15772916868E-01 -0.15820221264E-02  0.23598179812E-01  0.00000000000E+00 0.  1.
     999901    1    3    3    0    0  0.14283619250E+00  0.20939695612E-01 -0.16710136976E-01  0.89191921014E+00  0.88000000000E+00 0. -1.
        -11    1    4    4    0    0 -0.38573161148E-01 -0.87771556253E-02 -0.40461796119E-03  0.39564530308E-01  0.51100000000E-03 0. -1.
         11    1    4    4    0    0 -0.86782001927E-01  0.36103768808E-02  0.18696777063E-01  0.88848079739E-01  0.51100000000E-03 0.  1.
</event>
<event>
 8    1  0.1128641E+005  0.1043930E+01  0.7957747E-01            NaN
         13   -1    0    0    0    0  0.00000000000E+00  0.00000000000E+00  0.74505805969E-08  0.10566000000E+00  0.10566000000E+00 0.  1.
     999900   -1    0    0    0    0 -0.00000000000E+00 -0.00000000000E+00 -0.74505805969E-08  0.93827000000E+00  0.93827000000E+00 0.  1.
     999902    2    1    2    0    0  0.13487739384E-01  0.15661458727E-01 -0.12171595235E-01  0.10199435844E+01  0.10196614964E+01 0.  0.
     999903    2    3    3    0    0  0.37028065715E-01 -0.11407109449E+00  0.41665520624E-01  0.12849357605E+00  0.19781082586E-01 0.  0.
         14    1    1    2    0    0 -0.13487739384E-01 -0.15661458727E-01  0.12171595235E-01  0.23986415608E-01  0.00000000000E+00 0.  1.
     999901    1    3    3    0    0 -0.23540326332E-01  0.12973255322E+00 -0.53837115858E-01  0.89145000834E+00  0.88000000000E+00 0. -1.
        -11    1    4    4    0    0  0.84273086024E-02 -0.30807363653E-01  0.20464616818E-01  0.37936458032E-01  0.51100000000E-03 0. -1.
         11    1    4    4    0    0  0.28600757113E-01 -0.83263730839E-01  0.21200903806E-01  0.90557118019E-01  0.51100000000E-03 0.  1.
</event>
<event>
 8    1  0.1128641E+005  0.1043930E+01  0.7957747E-01            NaN
         13   -1    0    0    0    0  0.00000000000E+00  0.00000000000E+00  0.74505805969E-08  0.10566000000E+00  0.10566000000E+00 0.  1.
     999900   -1    0    0    0    0 -0.00000000000E+00 -0.00000000000E+00 -0.74505805969E-08  0.93827000000E+00  0.93827000000E+00 0.  1.
     999902    2    1    2    0    0 -0.26353223691E-02  0.24787745616E-01 -0.52906191118E-02  0.10184473018E+01  0.10181284490E+01 0.  0.
     999903    2    3    3    0    0  0.64449285098E-01 -0.76723944971E-01  0.74539385169E-01  0.12649562292E+00  0.20118364609E-01 0.  0.
         14    1    1    2    0    0  0.26353223691E-02 -0.24787745616E-01  0.52906191118E-02  0.25482698195E-01  0.00000000000E+00 0.  1.
     999901    1    3    3    0    0 -0.67084607467E-01  0.10151169059E+00 -0.79830004280E-01  0.89195167889E+00  0.88000000000E+00 0.  1.
        -11    1    4    4    0    0  0.27319844217E-01 -0.21931150797E-01  0.17722170347E-01  0.39264305751E-01  0.51100000000E-03 0.  1.
         11    1    4    4    0    0  0.37129440881E-01 -0.54792794174E-01  0.56817214822E-01  0.87231317167E-01  0.51100000000E-03 0. -1.
</event>
<event>
 7    1  0.1128641E+005  0.1043930E+01  0.7957747E-01            NaN
         13   -1    0    0    0    0  0.00000000000E+00  0.00000000000E+00  0.74505805969E-08  0.10566000000E+00  0.10566000000E+00 0. -1.
     999900   -1    0    0    0    0 -0.00000000000E+00 -0.00000000000E+00 -0.74505805969E-08  0.93827000000E+00  0.93827000000E+00 0.  1.
     999903    2    1    2    0    0  0.96988298215E-02 -0.10996663069E+00 -0.36800447590E-01  0.11801557514E+00  0.19664075556E-01 0.  0.
         14    1    1    2    0    0  0.41255898250E-02  0.29396730936E-01  0.29850958395E-01  0.42098313484E-01  0.00000000000E+00 0. -1.
     999901    1    1    2    0    0 -0.13824419646E-01  0.80569899756E-01  0.69494891946E-02  0.88381611137E+00  0.88000000000E+00 0. -1.
        -11    1    3    3    0    0  0.52797362461E-02 -0.77202992114E-01 -0.34916763863E-01  0.84897698001E-01  0.51100000000E-03 0. -1.
         11    1    3    3    0    0  0.44190935754E-02 -0.32763638577E-01 -0.18836837265E-02  0.33117877140E-01  0.51100000000E-03 0.  1.
</event>
<event>
 8    1  0.1129137E+005  0.1043930E+01  0.7957747E-01            NaN
         13   -1    0    0    0    0  0.00000000000E+00  0.00000000000E+00  0.74505805969E-08  0.10566000000E+00  0.10566000000E+00 0.  1.
     999900   -1    0    0    0    0 -0.00000000000E+00 -0.00000000000E+00 -0.74505805969E-08  0.93827000000E+00  0.93827000000E+00 0.  1.
     999902    2    1    2    0    0  0.22223869050E-01  0.45441985986E-02 -0.51532703210E-02  0.10206683085E+01  0.10204031996E+01 0.  0.
     999903    2    3    3    0    0 -0.55810238122E-01  0.11567964629E+00  0.47546048788E-02  0.13019732323E+00  0.20788782165E-01 0.  0.
         14    1    1    2    0    0 -0.22223869050E-01 -0.45441985986E-02  0.51532703210E-02  0.23261691501E-01  0.00000000000E+00 0. -1.
     999901    1    3    3    0    0  0.78034107172E-01 -0.11113544769E+00 -0.99078751998E-02  0.89047098527E+00  0.88000000000E+00 0. -1.
        -11    1    4    4    0    0 -0.32916552950E-01  0.46445050627E-01  0.61538783880E-02  0.57260575670E-01  0.51100000000E-03 0. -1.
         11    1    4    4    0    0 -0.22893685171E-01  0.69234595662E-01 -0.13992735092E-02  0.72936747560E-01  0.51100000000E-03 0.  1.
</event>
<event>
 8    1  0.1128641E+005  0.1043930E+01  0.7957747E-01            NaN
         13   -1    0    0    0    0  0.00000000000E+00  0.00000000000E+00  0.74505805969E-08  0.10566000000E+00  0.10566000000E+00 0.  1.
     999900   -1    0    0    0    0 -0.00000000000E+00 -0.00000000000E+00 -0.74505805969E-08  0.93827000000E+00  0.93827000000E+00 0. -1.
     999902    2    1    2    0    0 -0.15626792141E-01 -0.16024638195E-01  0.11061193518E-01  0.10189633089E+01  0.10186573954E+01 0.  0.
     999903    2    3    3    0    0 -0.88555401574E-01 -0.43822240713E-01  0.85884397665E-01  0.13234625479E+00  0.19415289480E-01 0.  0.
         14    1    1    2    0    0  0.15626792141E-01  0.16024638195E-01 -0.11061193518E-01  0.24966691089E-01  0.00000000000E+00 0. -1.
     999901    1    3    3    0    0  0.72928609433E-01  0.27797602518E-01 -0.74823204146E-01  0.88661705412E+00  0.88000000000E+00 0. -1.
        -11    1    4    4    0    0 -0.12761983363E-01 -0.13415868461E-01  0.21302555823E-01  0.28229660846E-01  0.51100000000E-03 0.  1.
         11    1    4    4    0    0 -0.75793418212E-01 -0.30406372252E-01  0.64581841842E-01  0.10411659394E+00  0.51100000000E-03 0. -1.
</event>
<event>
 8    1  0.1128641E+005  0.1043930E+01  0.7957747E-01            NaN
         13   -1    0    0    0    0  0.00000000000E+00  0.00000000000E+00  0.74505805969E-08  0.10566000000E+00  0.10566000000E+00 0. -1.
     999900   -1    0    0    0    0 -0.00000000000E+00 -0.00000000000E+00 -0.74505805969E-08  0.93827000000E+00  0.93827000000E+00 0.  1.
     999902    2    1    2    0    0  0.17292633100E-01  0.76242363488E-02 -0.14469142243E-01  0.10201283148E+01  0.10198506060E+01 0.  0.
     999903    2    3    3    0    0  0.12929585167E+00  0.18604218474E-01 -0.13578213995E-01  0.13296087025E+00  0.20753094187E-01 0.  0.
         14    1    1    2    0    0 -0.17292633100E-01 -0.76242363488E-02  0.14469142243E-01  0.23801685165E-01  0.00000000000E+00 0. -1.
     999901    1    3    3    0    0 -0.11200321857E+00 -0.10979982125E-01 -0.89092824840E-03  0.88716744458E+00  0.88000000000E+00 0. -1.
        -11    1    4    4    0    0  0.93331735724E-01  0.22706931478E-01 -0.10558642912E-01  0.96634174553E-01  0.51100000000E-03 0. -1.
         11    1    4    4    0    0  0.35964115946E-01 -0.41027130036E-02 -0.30195710835E-02  0.36326695698E-01  0.51100000000E-03 0.  1.
</event>
<event>
 8    1  0.1128641E+005  0.1043930E+01  0.7957747E-01            NaN
         13   -1    0    0    0    0  0.00000000000E+00  0.00000000000E+00  0.74505805969E-08  0.10566000000E+00  0.10566000000E+00 0. -1.
     999900   -1    0    0    0    0 -0.00000000000E+00 -0.00000000000E+00 -0.74505805969E-08  0.93827000000E+00  0.93827000000E+00 0. -1.
     999902    2    1    2    0    0 -0.11911482246E-01  0.19742757720E-01 -0.58053729002E-02  0.10201526527E+01  0.10198755181E+01 0.  0.
     999903    2    3    3    0    0 -0.55103165593E-01  0.50987365892E-01  0.10618984579E+00  0.13145434837E+00  0.19180511410E-01 0.  0.
         14    1    1    2    0    0  0.11911482246E-01 -0.19742757720E-01  0.58053729002E-02  0.23777347333E-01  0.00000000000E+00 0. -1.
     999901    1    3    3    0    0  0.43191683348E-01 -0.31244608173E-01 -0.11199521869E+00  0.88869830430E+00  0.88000000000E+00 0. -1.
        -11    1    4    4    0    0 -0.35623198991E-01  0.43574176706E-01  0.82825891974E-01  0.10014045478E+00  0.51100000000E-03 0. -1.
         11    1    4    4    0    0 -0.19479966603E-01  0.74131891860E-02  0.23363953815E-01  0.31313893587E-01  0.51100000000E-03 0.  1.
</event>
<event>
 8    1  0.1128641E+005  0.1043930E+01  0.7957747E-01            NaN
         13   -1    0    0    0    0  0.00000000000E+00  0.00000000000E+00  0.74505805969E-08  0.10566000000E+00  0.10566000000E+00 0.  1.
     999900   -1    0    0    0    0 -0.00000000000E+00 -0.00000000000E+00 -0.74505805969E-08  0.93827000000E+00  0.93827000000E+00 0. -1.
     999902    2    1    2    0    0 -0.16440962747E-01  0.92558295940E-02 -0.14004842474E-01  0.10204329523E+01  0.10201623885E+01 0.  0.
     999903    2    3    3    0    0 -0.83474063196E-01 -0.96504644690E-01 -0.24715398927E-01  0.13150470408E+00  0.20039225986E-01 0.  0.
         14    1    1    2    0    0  0.16440962747E-01 -0.92558295940E-02  0.14004842474E-01  0.23497047692E-01  0.00000000000E+00 0.  1.
     999901    1    3    3    0    0  0.67033100449E-01  0.10576047428E+00  0.10710556453E-01  0.88892824823E+00  0.88000000000E+00 0. -1.
        -11    1    4    4    0    0 -0.52737191249E-01 -0.74757494222E-01 -0.18476789786E-01  0.93335669307E-01  0.51100000000E-03 0. -1.
         11    1    4    4    0    0 -0.30736871947E-01 -0.21747150468E-01 -0.62386091414E-02  0.38169034774E-01  0.51100000000E-03 0.  1.
</event>
<event>
 8    1  0.1128641E+005  0.1043930E+01  0.7957747E-01            NaN
         13   -1    0    0    0    0  0.00000000000E+00  0.00000000000E+00  0.74505805969E-08  0.10566000000E+00  0.10566000000E+00 0. -1.
     999900   -1    0    0    0    0 -0.00000000000E+00 -0.00000000000E+00 -0.74505805969E-08  0.93827000000E+00  0.93827000000E+00 0.  1.
     999902    2    1    2    0    0  0.23872672261E-01 -0.91717466985E-02  0.17569965493E-01  0.10129021237E+01  0.10124267792E+01 0.  0.
     999903    2    3    3    0    0 -0.28983876808E-02 -0.11481963997E+00 -0.43327495430E-01  0.12409018201E+00  0.18142520146E-01 0.  0.
         14    1    1    2    0    0 -0.23872672261E-01  0.91717466985E-02 -0.17569965493E-01  0.31027876270E-01  0.00000000000E+00 0.  1.
     999901    1    3    3    0    0  0.26771059942E-01  0.10564789327E+00  0.60897460923E-01  0.88881194172E+00  0.88000000000E+00 0. -1.
        -11    1    4    4    0    0  0.30334379777E-02 -0.65303541982E-01 -0.16353929606E-01  0.67390403441E-01  0.51100000000E-03 0.  1.
         11    1    4    4    0    0 -0.59318256585E-02 -0.49516097984E-01 -0.26973565824E-01  0.56699778567E-01  0.51100000000E-03 0. -1.
</event>
<event>
 8    1  0.1128641E+005  0.1043930E+01  0.7957747E-01            NaN
         13   -1    0    0    0    0  0.00000000000E+00  0.00000000000E+00  0.74505805969E-08  0.10566000000E+00  0.10566000000E+00 0. -1.
     999900   -1    0    0    0    0 -0.00000000000E+00 -0.00000000000E+00 -0.74505805969E-08  0.93827000000E+00  0.93827000000E+00 0. -1.
     999902    2    1    2    0    0  0.45241119582E-02 -0.11623852217E-01 -0.18307740001E-01  0.10217770121E+01  0.10215368361E+01 0.  0.
     999903    2    3    3    0    0  0.59408592018E-01  0.32517498783E-01 -0.11360048143E+00  0.13383474393E+00  0.20491480375E-01 0.  0.
         14    1    1    2    0    0 -0.45241119582E-02  0.11623852217E-01  0.18307740001E-01  0.22152987909E-01  0.00000000000E+00 0.  1.
     999901    1    3    3    0    0 -0.54884480060E-01 -0.44141351000E-01  0.95292741432E-01  0.88794226816E+00  0.88000000000E+00 0.  1.
        -11    1    4    4    0    0  0.42364333537E-01  0.11944146732E-01 -0.72129514335E-01  0.84500457729E-01  0.51100000000E-03 0. -1.
         11    1    4    4    0    0  0.17044258481E-01  0.20573352051E-01 -0.41470967098E-01  0.49334286199E-01  0.51100000000E-03 0.  1.
</event>
<event>
 8    1  0.1128641E+005  0.1043930E+01  0.7957747E-01            NaN
         13   -1    0    0    0    0  0.00000000000E+00  0.00000000000E+00  0.74505805969E-08  0.10566000000E+00  0.10566000000E+00 0. -1.
     999900   -1    0    0    0    0 -0.00000000000E+00 -0.00000000000E+00 -0.74505805969E-08  0.93827000000E+00  0.93827000000E+00 0. -1.
     999902    2    1    2    0    0  0.38719209297E-02 -0.21090453062E-01 -0.10759268108E-01  0.10199391511E+01  0.10196569575E+01 0.  0.
     999903    2    3    3    0    0  0.86587322191E-01  0.72708591365E-01  0.57534137573E-01  0.12847738094E+00  0.20306570498E-01 0.  0.
         14    1    1    2    0    0 -0.38719209297E-02  0.21090453062E-01  0.10759268108E-01  0.23990848927E-01  0.00000000000E+00 0. -1.
     999901    1    3    3    0    0 -0.82715401262E-01 -0.93799044427E-01 -0.68293405681E-01  0.89146177013E+00  0.88000000000E+00 0. -1.
        -11    1    4    4    0    0  0.20434722720E-01  0.12575703627E-01  0.21035799872E-01  0.31913824772E-01  0.51100000000E-03 0. -1.
         11    1    4    4    0    0  0.66152599472E-01  0.60132887738E-01  0.36498337701E-01  0.96563556172E-01  0.51100000000E-03 0.  1.
</event>
<event>
 8    1  0.1128641E+005  0.1043930E+01  0.7957747E-01            NaN
         13   -1    0    0    0    0  0.00000000000E+00  0.00000000000E+00  0.74505805969E-08  0.10566000000E+00  0.10566000000E+00 0.  1.
     999900   -1    0    0    0    0 -0.00000000000E+00 -0.00000000000E+00 -0.74505805969E-08  0.93827000000E+00  0.93827000000E+00 0.  1.
     999902    2    1    2    0    0  0.96698302467E-02 -0.86354732937E-02 -0.19887025984E-01  0.10201903534E+01  0.10199141074E+01 0.  0.
     999903    2    3    3    0    0 -0.53484897809E-01  0.81431401915E-01 -0.85438582406E-01  0.13092235771E+00  0.18687024222E-01 0.  0.
         14    1    1    2    0    0 -0.96698302467E-02  0.86354732937E-02  0.19887025984E-01  0.23739646553E-01  0.00000000000E+00 0.  1.
     999901    1    3    3    0    0  0.63154728056E-01 -0.90066875209E-01  0.65551556422E-01  0.88926799573E+00  0.88000000000E+00 0. -1.
        -11    1    4    4    0    0 -0.10347104910E-01  0.21968361815E-01 -0.31532424384E-01  0.39802341758E-01  0.51100000000E-03 0. -1.
         11    1    4    4    0    0 -0.43137792899E-01  0.59463040100E-01 -0.53906158021E-01  0.91120015956E-01  0.51100000000E-03 0.  1.
</event>
<event>
 8    1  0.1128641E+005  0.1043930E+01  0.7957747E-01            NaN
         13   -1    0    0    0    0  0.00000000000E+00  0.00000000000E+00  0.74505805969E-08  0.10566000000E+00  0.10566000000E+00 0.  1.
     999900   -1    0    0    0    0 -0.00000000000E+00 -0.00000000000E+00 -0.74505805969E-08  0.93827000000E+00  0.93827000000E+00 0.  1.
     999902    2    1    2    0    0 -0.14192369836E-01  0.10363300955E-01  0.16393648227E-01  0.10198972500E+01  0.10196140581E+01 0.  0.
     999903    2    3    3    0    0 -0.10727170158E+00  0.72636692721E-01 -0.17627167552E-01  0.13214776217E+00  0.19209552823E-01 0.  0.
         14    1    1    2    0    0  0.14192369836E-01 -0.10363300955E-01 -0.16393648227E-01  0.24032749956E-01  0.00000000000E+00 0. -1.
     999901    1    3    3    0    0  0.93079331747E-01 -0.62273391766E-01  0.34020815780E-01  0.88774948788E+00  0.88000000000E+00 0. -1.
        -11    1    4    4    0    0 -0.12294084453E-01  0.69810336877E-02  0.39453164114E-02  0.14686932507E-01  0.51100000000E-03 0.  1.
         11    1    4    4    0    0 -0.94977617130E-01  0.65655659034E-01 -0.21572483964E-01  0.11746082966E+00  0.51100000000E-03 0. -1.
</event>
<event>
 8    1  0.1128641E+005  0.1043930E+01  0.7957747E-01            NaN
         13   -1    0    0    0    0  0.00000000000E+00  0.00000000000E+00  0.74505805969E-08  0.10566000000E+00  0.10566000000E+00 0.  1.
     999900   -1    0    0    0    0 -0.00000000000E+00 -0.00000000000E+00 -0.74505805969E-08  0.93827000000E+00  0.93827000000E+00 0. -1.
     999902    2    1    2    0    0  0.11218585350E-01  0.60667891694E-02  0.19334806825E-01  0.10207675877E+01  0.10205047627E+01 0.  0.
     999903    2    3    3    0    0 -0.11701068658E+00  0.44527093999E-01  0.30824568605E-01  0.13056875832E+00  0.20588437156E-01 0.  0.
         14    1    1    2    0    0 -0.11218585350E-01 -0.60667891694E-02 -0.19334806825E-01  0.23162412288E-01  0.00000000000E+00 0. -1.
     999901    1    3    3    0    0  0.12822927193E+00 -0.38460304829E-01 -0.11489761781E-01  0.89019882939E+00  0.88000000000E+00 0. -1.
        -11    1    4    4    0    0 -0.47916452418E-01  0.16440435259E-01  0.22973998671E-02  0.50713050500E-01  0.51100000000E-03 0. -1.
         11    1    4    4    0    0 -0.69094234164E-01  0.28086658740E-01  0.28527168738E-01  0.79855707818E-01  0.51100000000E-03 0.  1.
</event>
<event>
 8    1  0.1128641E+005  0.1043930E+01  0.7957747E-01            NaN
         13   -1    0    0    0    0  0.00000000000E+00  0.00000000000E+00  0.74505805969E-08  0.10566000000E+00  0.10566000000E+00 0.  1.
     999900   -1    0    0    0    0 -0.00000000000E+00 -0.00000000000E+00 -0.74505805969E-08  0.93827000000E+00  0.93827000000E+00 0.  1.
     999902    2    1    2    0    0  0.13423495782E-01  0.13462709017E-01  0.10210370079E-01  0.10223502310E+01  0.10221224527E+01 0.  0.
     999903    2    3    3    0    0 -0.12459905768E-01 -0.73316887717E-01 -0.10494760571E+00  0.13023924672E+00  0.20436393128E-01 0.  0.
         14    1    1    2    0    0 -0.13423495782E-01 -0.13462709017E-01 -0.10210370079E-01  0.21579769003E-01  0.00000000000E+00 0. -1.
     999901    1    3    3    0    0  0.25883401550E-01  0.86779596734E-01  0.11515797579E+00  0.89211098428E+00  0.88000000000E+00 0. -1.
        -11    1    4    4    0    0 -0.13999434270E-01 -0.65373200552E-01 -0.81411142567E-01  0.10534550188E+00  0.51100000000E-03 0.  1.
         11    1    4    4    0    0  0.15395285015E-02 -0.79436871646E-02 -0.23536463146E-01  0.24893744841E-01  0.51100000000E-03 0. -1.
</event>
<event>
 8    1  0.1128641E+005  0.1043930E+01  0.7957747E-01            NaN
         13   -1    0    0    0    0  0.00000000000E+00  0.00000000000E+00  0.74505805969E-08  0.10566000000E+00  0.10566000000E+00 0. -1.
     999900   -1    0    0    0    0 -0.00000000000E+00 -0.00000000000E+00 -0.74505805969E-08  0.93827000000E+00  0.93827000000E+00 0. -1.
     999902    2    1    2    0    0 -0.45195924997E-02  0.48909659485E-02 -0.23049664578E-01  0.10199375991E+01  0.10196553686E+01 0.  0.
     999903    2    3    3    0    0  0.88302593522E-01  0.32008239570E-02 -0.96510606937E-01  0.13201005427E+00  0.17457487797E-01 0.  0.
         14    1    1    2    0    0  0.45195924997E-02 -0.48909659485E-02  0.23049664578E-01  0.23992400910E-01  0.00000000000E+00 0. -1.
     999901    1    3    3    0    0 -0.92822186022E-01  0.16901419915E-02  0.73460942359E-01  0.88792754482E+00  0.88000000000E+00 0. -1.
        -11    1    4    4    0    0  0.23475116954E-01 -0.36617423478E-02 -0.35517329402E-01  0.42734427361E-01  0.51100000000E-03 0. -1.
         11    1    4    4    0    0  0.64827476568E-01  0.68625663049E-02 -0.60993277535E-01  0.89275626908E-01  0.51100000000E-03 0.  1.
</event>
<event>
 8    1  0.1128641E+005  0.1043930E+01  0.7957747E-01            NaN
         13   -1    0    0    0    0  0.00000000000E+00  0.00000000000E+00  0.74505805969E-08  0.10566000000E+00  0.10566000000E+00 0.  1.
     999900   -1    0    0    0    0 -0.00000000000E+00 -0.00000000000E+00 -0.74505805969E-08  0.93827000000E+00  0.93827000000E+00 0. -1.
     999902    2    1    2    0    0  0.18794419618E-01  0.76570734799E-02 -0.15922697810E-01  0.10181347817E+01  0.10178079585E+01 0.  0.
     999903    2    3    3    0    0 -0.29338691226E-01  0.12261854531E+00  0.16888656073E-01  0.12874762115E+00  0.19865970633E-01 0.  0.
         14    1    1    2    0    0 -0.18794419618E-01 -0.76570734799E-02  0.15922697810E-01  0.25795218328E-01  0.00000000000E+00 0.  1.
     999901    1    3    3    0    0  0.48133110844E-01 -0.11496147183E+00 -0.32811353883E-01  0.88938716053E+00  0.88000000000E+00 0.  1.
        -11    1    4    4    0    0 -0.25606191910E-01  0.84956199981E-01  0.19347623399E-01  0.90817534825E-01  0.51100000000E-03 0. -1.
         11    1    4    4    0    0 -0.37324993158E-02  0.37662345331E-01 -0.24589673260E-02  0.37930086321E-01  0.51100000000E-03 0.  1.
</event>
<event>
 8    1  0.1128641E+005  0.1043930E+01  0.7957747E-01            NaN
         13   -1    0    0    0    0  0.00000000000E+00  0.00000000000E+00  0.74505805969E-08  0.10566000000E+00  0.10566000000E+00 0.  1.
     999900   -1    0    0    0    0 -0.00000000000E+00 -0.00000000000E+00 -0.74505805969E-08  0.93827000000E+00  0.93827000000E+00 0.  1.
     999902    2    1    2    0    0 -0.10081350783E-01  0.68567793673E-02  0.20467815758E-01  0.10201060511E+01  0.10198278164E+01 0.  0.
     999903    2    3    3    0    0 -0.10432561509E+00  0.57975384404E-01 -0.49726620387E-01  0.13082412060E+00  0.19930744972E-01 0.  0.
         14    1    1    2    0    0  0.10081350783E-01 -0.68567793673E-02 -0.20467815758E-01  0.23823948850E-01  0.00000000000E+00 0. -1.
     999901    1    3    3    0    0  0.94244264307E-01 -0.51118605037E-01  0.70194436146E-01  0.88928193055E+00  0.88000000000E+00 0.  1.
        -11    1    4    4    0    0 -0.62277313368E-01  0.42485815830E-01 -0.23835550246E-01  0.79068975481E-01  0.51100000000E-03 0. -1.
         11    1    4    4    0    0 -0.42048301721E-01  0.15489568574E-01 -0.25891070141E-01  0.51755145119E-01  0.51100000000E-03 0.  1.
</event>
<event>
 8    1  0.1128641E+005  0.1043930E+01  0.7957747E-01            NaN
         13   -1    0    0    0    0  0.00000000000E+00  0.00000000000E+00  0.74505805969E-08  0.10566000000E+00  0.10566000000E+00 0. -1.
     999900   -1    0    0    0    0 -0.00000000000E+00 -0.00000000000E+00 -0.74505805969E-08  0.93827000000E+00  0.93827000000E+00 0.  1.
     999902    2    1    2    0    0  0.71245109541E-02  0.22199888997E-01  0.20468632434E-02  0.10205252275E+01  0.10202568091E+01 0.  0.
     999903    2    3    3    0    0  0.47723664165E-01  0.65856092588E-02 -0.12011680454E+00  0.13102196233E+00  0.20439899943E-01 0.  0.
         14    1    1    2    0    0 -0.71245109541E-02 -0.22199888997E-01 -0.20468632434E-02  0.23404772525E-01  0.00000000000E+00 0.  1.
     999901    1    3    3    0    0 -0.40599153211E-01  0.15614279738E-01  0.12216366778E+00  0.88950326514E+00  0.88000000000E+00 0. -1.
        -11    1    4    4    0    0  0.23334534340E-01  0.63069749215E-02 -0.84206326432E-01  0.87608475376E-01  0.51100000000E-03 0. -1.
         11    1    4    4    0    0  0.24389129825E-01  0.27863433725E-03 -0.35910478108E-01  0.43413486956E-01  0.51100000000E-03 0.  1.
</event>
<event>
 8    1  0.1128641E+005  0.1043930E+01  0.7957747E-01            NaN
         13   -1    0    0    0    0  0.00000000000E+00  0.00000000000E+00  0.74505805969E-08  0.10566000000E+00  0.10566000000E+00 0. -1.
     999900   -1    0    0    0    0 -0.00000000000E+00 -0.00000000000E+00 -0.74505805969E-08  0.93827000000E+00  0.93827000000E+00 0.  1.
     999902    2    1    2    0    0 -0.14402061897E-01  0.96594843961E-02 -0.16130903460E-01  0.10202460165E+01  0.10199710796E+01 0.  0.
     999903    2    3    3    0    0  0.24567536845E-01  0.60516104101E-01 -0.11354480806E+00  0.13255547689E+00  0.20316699888E-01 0.  0.
         14    1    1    2    0    0  0.14402061897E-01 -0.96594843961E-02  0.16130903460E-01  0.23683983451E-01  0.00000000000E+00 0. -1.
     999901    1    3    3    0    0 -0.38969598742E-01 -0.50856619704E-01  0.97413904596E-01  0.88769053966E+00  0.88000000000E+00 0. -1.
        -11    1    4    4    0    0  0.12199839546E-01  0.30448720952E-01 -0.37343239942E-01  0.49706532598E-01  0.51100000000E-03 0.  1.
         11    1    4    4    0    0  0.12367697299E-01  0.30067383148E-01 -0.76201568114E-01  0.82848944290E-01  0.51100000000E-03 0. -1.
</event>
<event>
 8    1  0.1128641E+005  0.1043930E+01  0.7957747E-01            NaN
         13   -1    0    0    0    0  0.00000000000E+00  0.00000000000E+00  0.74505805969E-08  0.10566000000E+00  0.10566000000E+00 0. -1.
     999900   -1    0    0    0    0 -0.00000000000E+00 -0.00000000000E+00 -0.74505805969E-08  0.93827000000E+00  0.93827000000E+00 0.  1.
     999902    2    1    2    0    0  0.44768558111E-02  0.18553755485E-01  0.13108721931E-01  0.10207756771E+01  0.10205130377E+01 0.  0.
     999903    2    3    3    0    0 -0.11445900423E+00  0.21201370560E-01 -0.55056328374E-01  0.13015835028E+00  0.18964047300E-01 0.  0.
         14    1    1    2    0    0 -0.44768558111E-02 -0.18553755485E-01 -0.13108721931E-01  0.23154322949E-01  0.00000000000E+00 0. -1.
     999901    1    3    3    0    0  0.11893586004E+00 -0.26476150745E-02  0.68165050305E-01  0.89061732678E+00  0.88000000000E+00 0. -1.
        -11    1    4    4    0    0 -0.63617095362E-01  0.18550294020E-01 -0.23782180036E-01  0.70406686038E-01  0.51100000000E-03 0. -1.
         11    1    4    4    0    0 -0.50841908866E-01  0.26510765396E-02 -0.31274148338E-01  0.59751664238E-01  0.51100000000E-03 0.  1.
</event>
<event>
 8    1  0.1128641E+005  0.1043930E+01  0.7957747E-01            NaN
         13   -1    0    0    0    0  0.00000000000E+00  0.00000000000E+00  0.74505805969E-08  0.10566000000E+00  0.10566000000E+00 0. -1.
     999900   -1    0    0    0    0 -0.00000000000E+00 -0.00000000000E+00 -0.74505805969E-08  0.93827000000E+00  0.93827000000E+00 0.  1.
     999902    2    1    2    0    0 -0.35057255463E-02 -0.39143208242E-02  0.21925454095E-01  0.10213836576E+01  0.10211347798E+01 0.  0.
     999903    2    3    3    0    0  0.14814563769E-01 -0.11355831401E+00  0.65575500230E-01  0.13331678804E+00  0.18927698294E-01 0.  0.
         14    1    1    2    0    0  0.35057255463E-02  0.39143208242E-02 -0.21925454095E-01  0.22546342417E-01  0.00000000000E+00 0.  1.
     999901    1    3    3    0    0 -0.18320289315E-01  0.10964399319E+00 -0.43650046135E-01  0.88806686954E+00  0.88000000000E+00 0. -1.
        -11    1    4    4    0    0  0.53965082472E-02 -0.94950844084E-01  0.55943245131E-01  0.11033899080E+00  0.51100000000E-03 0. -1.
         11    1    4    4    0    0  0.94180555219E-02 -0.18607469930E-01  0.96322550991E-02  0.22977797247E-01  0.51100000000E-03 0.  1.
</event>
<event>
 8    1  0.1128641E+005  0.1043930E+01  0.7957747E-01            NaN
         13   -1    0    0    0    0  0.00000000000E+00  0.00000000000E+00  0.74505805969E-08  0.10566000000E+00  0.10566000000E+00 0.  1.
     999900   -1    0    0    0    0 -0.00000000000E+00 -0.00000000000E+00 -0.74505805969E-08  0.93827000000E+00  0.93827000000E+00 0.  1.
     999902    2    1    2    0    0  0.15789157381E-01 -0.18627891336E-01 -0.61763134437E-02  0.10187418545E+01  0.10184304215E+01 0.  0.
     999903    2    3    3    0    0 -0.81175632442E-01  0.37641043425E-01  0.87410838055E-01  0.12670658702E+00  0.20188440570E-01 0.  0.
         14    1    1    2    0    0 -0.15789157381E-01  0.18627891336E-01  0.61763134437E-02  0.25188145509E-01  0.00000000000E+00 0.  1.
     999901    1    3    3    0    0  0.96964789823E-01 -0.56268934761E-01 -0.93587151499E-01  0.89203526747E+00  0.88000000000E+00 0.  1.
        -11    1    4    4    0    0 -0.60598926792E-01  0.36620162586E-01  0.71916464204E-01  0.10092326382E+00  0.51100000000E-03 0. -1.
         11    1    4    4    0    0 -0.20576705650E-01  0.10208808388E-02  0.15494373851E-01  0.25783323198E-01  0.51100000000E-03 0.  1.
</event>
<event>
 8    1  0.1128641E+005  0.1043930E+01  0.7957747E-01            NaN
         13   -1    0    0    0    0  0.00000000000E+00  0.00000000000E+00  0.74505805969E-08  0.10566000000E+00  0.10566000000E+00 0.  1.
     999900   -1    0    0    0    0 -0.00000000000E+00 -0.00000000000E+00 -0.74505805969E-08  0.93827000000E+00  0.93827000000E+00 0.  1.
     999902    2    1    2    0    0  0.23298364322E-02  0.31527466443E-02 -0.23721369407E-01  0.10198868863E+01  0.10196034472E+01 0.  0.
     999903    2    3    3    0    0  0.79395327921E-01 -0.67621768125E-01  0.72312025112E-01  0.12850002598E+00  0.20171913149E-01 0.  0.
         14    1    1    2    0    0 -0.23298364322E-02 -0.31527466443E-02  0.23721369407E-01  0.24043113687E-01  0.00000000000E+00 0.  1.
     999901    1    3    3    0    0 -0.77065491489E-01  0.70774514769E-01 -0.96033394519E-01  0.89138686034E+00  0.88000000000E+00 0.  1.
        -11    1    4    4    0    0  0.29956066288E-01 -0.36582569659E-01  0.38950767058E-01  0.61262334968E-01  0.51100000000E-03 0.  1.
         11    1    4    4    0    0  0.49439261632E-01 -0.31039198466E-01  0.33361258054E-01  0.67237691008E-01  0.51100000000E-03 0. -1.
</event>
<event>
 8    1  0.1128641E+005  0.1043930E+01  0.7957747E-01            NaN
         13   -1    0    0    0    0  0.00000000000E+00  0.00000000000E+00  0.74505805969E-08  0.10566000000E+00  0.10566000000E+00 0. -1.
     999900   -1    0    0    0    0 -0.00000000000E+00 -0.00000000000E+00 -0.74505805969E-08  0.93827000000E+00  0.93827000000E+00 0. -1.
     999902    2    1    2    0    0  0.13769724391E-01 -0.18165649893E-01 -0.63316909895E-02  0.10202723066E+01  0.10199979868E+01 0.  0.
     999903    2    3    3    0    0  0.86994612052E-01 -0.77836501645E-01  0.59919085141E-01  0.13274109022E+00  0.20082747695E-01 0.  0.
         14    1    1    2    0    0 -0.13769724391E-01  0.18165649893E-01  0.63316909895E-02  0.23657693392E-01  0.00000000000E+00 0.  1.
     999901    1    3    3    0    0 -0.73224887661E-01  0.59670851752E-01 -0.66250776130E-01  0.88753121639E+00  0.88000000000E+00 0. -1.
        -11    1    4    4    0    0  0.34268722919E-01 -0.37187394374E-01  0.35664494247E-01  0.61882670771E-01  0.51100000000E-03 0.  1.
         11    1    4    4    0    0  0.52725889133E-01 -0.40649107271E-01  0.24254590893E-01  0.70858419452E-01  0.51100000000E-03 0. -1.
</event>
<event>
 8    1  0.1128641E+005  0.1043930E+01  0.7957747E-01            NaN
         13   -1    0    0    0    0  0.00000000000E+00  0.00000000000E+00  0.74505805969E-08  0.10566000000E+00  0.10566000000E+00 0. -1.
     999900   -1    0    0    0    0 -0.00000000000E+00 -0.00000000000E+00 -0.74505805969E-08  0.93827000000E+00  0.93827000000E+00 0.  1.
     999902    2    1    2    0    0 -0.22659695387E-01  0.11301905492E-01 -0.20296888211E-01  0.10114775959E+01  0.10109568578E+01 0.  0.
     999903    2    3    3    0    0 -0.40635896965E-01 -0.42546075906E-01 -0.10911834507E+00  0.12518644725E+00  0.17418055188E-01 0.  0.
         14    1    1    2    0    0  0.22659695387E-01 -0.11301905492E-01  0.20296888211E-01  0.32452404130E-01  0.00000000000E+00 0. -1.
     999901    1    3    3    0    0  0.17976201578E-01  0.53847981398E-01  0.88821456862E-01  0.88629114862E+00  0.88000000000E+00 0. -1.
        -11    1    4    4    0    0 -0.22218440547E-01 -0.34969871054E-01 -0.74205344335E-01  0.84989677201E-01  0.51100000000E-03 0. -1.
         11    1    4    4    0    0 -0.18417456417E-01 -0.75762048524E-02 -0.34913000737E-01  0.40196770049E-01  0.51100000000E-03 0.  1.
</event>
<event>
 8    1  0.1128641E+005  0.1043930E+01  0.7957747E-01            NaN
         13   -1    0    0    0    0  0.00000000000E+00  0.00000000000E+00  0.74505805969E-08  0.10566000000E+00  0.10566000000E+00 0.  1.
     999900   -1    0    0    0    0 -0.00000000000E+00 -0.00000000000E+00 -0.74505805969E-08  0.93827000000E+00  0.93827000000E+00 0. -1.
     999902    2    1    2    0    0 -0.16300536843E-01  0.15799442505E-01  0.32287291261E-02  0.10210006612E+01  0.10207431585E+01 0.  0.
     999903    2    3    3    0    0  0.11449497623E+00  0.51365877765E-01 -0.27743441509E-01  0.13008444019E+00  0.20117406653E-01 0.  0.
         14    1    1    2    0    0  0.16300536843E-01 -0.15799442505E-01 -0.32287291261E-02  0.22929338774E-01  0.00000000000E+00 0.  1.
     999901    1    3    3    0    0 -0.13079551308E+00 -0.35566435260E-01  0.30972170635E-01  0.89091622104E+00  0.88000000000E+00 0. -1.
        -11    1    4    4    0    0  0.53033887104E-01  0.32059605726E-01 -0.20394005884E-01  0.65242532888E-01  0.51100000000E-03 0. -1.
         11    1    4    4    0    0  0.61461089129E-01  0.19306272039E-01 -0.73494356255E-02  0.64841907298E-01  0.51100000000E-03 0.  1.
</event>
<event>
 8    1  0.1128641E+005  0.1043930E+01  0.7957747E-01            NaN
         13   -1    0    0    0    0  0.00000000000E+00  0.00000000000E+00  0.74505805969E-08  0.10566000000E+00  0.10566000000E+00 0.  1.
     999900   -1    0    0    0    0 -0.00000000000E+00 -0.00000000000E+00 -0.74505805969E-08  0.93827000000E+00  0.93827000000E+00 0.  1.
     999902    2    1    2    0    0  0.14068479734E-01  0.50961635182E-02  0.17831015047E-01  0.10206525839E+01  0.10203871122E+01 0.  0.
     999903    2    3    3    0    0  0.82928729339E-02 -0.25141850479E-02  0.13144532311E+00  0.13329725140E+00  0.20376245866E-01 0.  0.
         14    1    1    2    0    0 -0.14068479734E-01 -0.50961635182E-02 -0.17831015047E-01  0.23277416142E-01  0.00000000000E+00 0. -1.
     999901    1    3    3    0    0  0.57756067999E-02  0.76103485661E-02 -0.11361430807E+00  0.88735533246E+00  0.88000000000E+00 0.  1.
        -11    1    4    4    0    0  0.14316231323E-01  0.17634403651E-02  0.96725495374E-01  0.97796455854E-01  0.51100000000E-03 0. -1.
         11    1    4    4    0    0 -0.60233583892E-02 -0.42776254130E-02  0.34719827738E-01  0.35500795549E-01  0.51100000000E-03 0.  1.
</event>
<event>
 8    1  0.1128641E+005  0.1043930E+01  0.7957747E-01            NaN
         13   -1    0    0    0    0  0.00000000000E+00  0.00000000000E+00  0.74505805969E-08  0.10566000000E+00  0.10566000000E+00 0. -1.
     999900   -1    0    0    0    0 -0.00000000000E+00 -0.00000000000E+00 -0.74505805969E-08  0.93827000000E+00  0.93827000000E+00 0. -1.
     999902    2    1    2    0    0 -0.23695196418E-01 -0.50616800293E-02  0.42645740806E-02  0.10193277739E+01  0.10190308342E+01 0.  0.
     999903    2    3    3    0    0  0.11209616252E+00  0.34568298004E-01 -0.43736959016E-01  0.12673941663E+00  0.19734266279E-01 0.  0.
         14    1    1    2    0    0  0.23695196418E-01  0.50616800293E-02 -0.42645740806E-02  0.24602226120E-01  0.00000000000E+00 0.  1.
     999901    1    3    3    0    0 -0.13579135893E+00 -0.39629978034E-01  0.48001533097E-01  0.89258835725E+00  0.88000000000E+00 0.  1.
        -11    1    4    4    0    0  0.10818799696E+00  0.36958552814E-01 -0.41631685529E-01  0.12167183599E+00  0.51100000000E-03 0. -1.
         11    1    4    4    0    0  0.39081655610E-02 -0.23902548100E-02 -0.21052734875E-02  0.50675806423E-02  0.51100000000E-03 0.  1.
</event>
<event>
 8    1  0.1128641E+005  0.1043930E+01  0.7957747E-01            NaN
         13   -1    0    0    0    0  0.00000000000E+00  0.00000000000E+00  0.74505805969E-08  0.10566000000E+00  0.10566000000E+00 0.  1.
     999900   -1    0    0    0    0 -0.00000000000E+00 -0.00000000000E+00 -0.74505805969E-08  0.93827000000E+00  0.93827000000E+00 0. -1.
     999902    2    1    2    0    0  0.13452655215E-01 -0.29796521689E-01  0.45047875492E-02  0.10109284887E+01  0.10103896820E+01 0.  0.
     999903    2    3    3    0    0 -0.66592449003E-01 -0.21253832089E-01  0.98467505473E-01  0.12227265621E+00  0.19195655260E-01 0.  0.
         14    1    1    2    0    0 -0.13452655215E-01  0.29796521689E-01 -0.45047875492E-02  0.33001511298E-01  0.00000000000E+00 0. -1.
     999901    1    3    3    0    0  0.80045104218E-01 -0.85426896003E-02 -0.93962717924E-01  0.88865583249E+00  0.88000000000E+00 0.  1.
        -11    1    4    4    0    0 -0.36525707643E-01 -0.15587910028E-01  0.40499495116E-01  0.56723720642E-01  0.51100000000E-03 0.  1.
         11    1    4    4    0    0 -0.30066741359E-01 -0.56659220611E-02  0.57968010357E-01  0.65548935572E-01  0.51100000000E-03 0. -1.
</event>
<event>
 8    1  0.1128641E+005  0.1043930E+01  0.7957747E-01            NaN
         13   -1    0    0    0    0  0.00000000000E+00  0.00000000000E+00  0.74505805969E-08  0.10566000000E+00  0.10566000000E+00 0. -1.
     999900   -1    0    0    0    0 -0.00000000000E+00 -0.00000000000E+00 -0.74505805969E-08  0.93827000000E+00  0.93827000000E+00 0.  1.
     999902    2    1    2    0    0 -0.25838990575E-02 -0.10592614729E-02  0.23100432271E-01  0.10206613829E+01  0.10203961143E+01 0.  0.
     999903    2    3    3    0    0  0.50891636009E-02  0.65010978964E-01  0.11462799596E+00  0.13341764670E+00  0.20208018723E-01 0.  0.
         14    1    1    2    0    0  0.25838990575E-02  0.10592614729E-02 -0.23100432271E-01  0.23268617069E-01  0.00000000000E+00 0.  1.
     999901    1    3    3    0    0 -0.76730626583E-02 -0.66070240437E-01 -0.91527563692E-01  0.88724373623E+00  0.88000000000E+00 0.  1.
        -11    1    4    4    0    0 -0.68347901007E-02  0.35842230204E-01  0.55656354475E-01  0.66552766555E-01  0.51100000000E-03 0.  1.
         11    1    4    4    0    0  0.11923953702E-01  0.29168748759E-01  0.58971641489E-01  0.66864880146E-01  0.51100000000E-03 0. -1.
</event>
<event>
 8    1  0.1128641E+005  0.1043930E+01  0.7957747E-01            NaN
         13   -1    0    0    0    0  0.00000000000E+00  0.00000000000E+00  0.74505805969E-08  0.10566000000E+00  0.10566000000E+00 0.  1.
     999900   -1    0    0    0    0 -0.00000000000E+00 -0.00000000000E+00 -0.74505805969E-08  0.93827000000E+00  0.93827000000E+00 0. -1.
     999902    2    1    2    0    0 -0.10957270926E-01 -0.19137424303E-01  0.16613679289E-01  0.10163199088E+01  0.10159448016E+01 0.  0.
     999903    2    3    3    0    0 -0.88374593370E-01  0.47455039485E-01 -0.73334192507E-01  0.12586013001E+00  0.20020464779E-01 0.  0.
         14    1    1    2    0    0  0.10957270926E-01  0.19137424303E-01 -0.16613679289E-01  0.27610091173E-01  0.00000000000E+00 0. -1.
     999901    1    3    3    0    0  0.77417322444E-01 -0.66592463787E-01  0.89947871795E-01  0.89045977882E+00  0.88000000000E+00 0.  1.
        -11    1    4    4    0    0 -0.56104654126E-01  0.18930792257E-01 -0.42173219040E-01  0.72697652199E-01  0.51100000000E-03 0. -1.
         11    1    4    4    0    0 -0.32269939244E-01  0.28524247227E-01 -0.31160973467E-01  0.53162477812E-01  0.51100000000E-03 0.  1.
</event>
<event>
 8    1  0.1128641E+005  0.1043930E+01  0.7957747E-01            NaN
         13   -1    0    0    0    0  0.00000000000E+00  0.00000000000E+00  0.74505805969E-08  0.10566000000E+00  0.10566000000E+00 0.  1.
     999900   -1    0    0    0    0 -0.00000000000E+00 -0.00000000000E+00 -0.74505805969E-08  0.93827000000E+00  0.93827000000E+00 0.  1.
     999902    2    1    2    0    0  0.10696677366E-01  0.63113405745E-02  0.21254525086E-01  0.10193127954E+01  0.10190154896E+01 0.  0.
     999903    2    3    3    0    0 -0.14496771845E-01 -0.68591025709E-01  0.10919818852E+00  0.13140561426E+00  0.20695552207E-01 0.  0.
         14    1    1    2    0    0 -0.10696677366E-01 -0.63113405745E-02 -0.21254525086E-01  0.24617204617E-01  0.00000000000E+00 0.  1.
     999901    1    3    3    0    0  0.25193449212E-01  0.74902366284E-01 -0.87943663431E-01  0.88790718113E+00  0.88000000000E+00 0.  1.
        -11    1    4    4    0    0 -0.12141822038E-02 -0.25859513196E-01  0.57292219449E-01  0.62871680362E-01  0.51100000000E-03 0.  1.
         11    1    4    4    0    0 -0.13282589642E-01 -0.42731512513E-01  0.51905969067E-01  0.68533933894E-01  0.51100000000E-03 0. -1.
</event>
<event>
 8    1  0.1128641E+005  0.1043930E+01  0.7957747E-01            NaN
         13   -1    0    0    0    0  0.00000000000E+00  0.00000000000E+00  0.74505805969E-08  0.10566000000E+00  0.10566000000E+00 0.  1.
     999900   -1    0    0    0    0 -0.00000000000E+00 -0.00000000000E+00 -0.74505805969E-08  0.93827000000E+00  0.93827000000E+00 0. -1.
     999902    2    1    2    0    0  0.37232430241E-02 -0.89360475864E-02 -0.23414963733E-01  0.10185927545E+01  0.10182775768E+01 0.  0.
     999903    2    3    3    0    0 -0.39690191368E-01 -0.15301397019E-02 -0.12293237304E+00  0.13188914642E+00  0.26546675529E-01 0.  0.
         14    1    1    2    0    0 -0.37232430241E-02  0.89360475864E-02  0.23414963733E-01  0.25337245543E-01  0.00000000000E+00 0.  1.
     999901    1    3    3    0    0  0.43413434392E-01 -0.74059078845E-02  0.99517409311E-01  0.88670360804E+00  0.88000000000E+00 0.  1.
        -11    1    4    4    0    0 -0.29947332678E-01 -0.12937744283E-01 -0.79424374284E-01  0.85864546310E-01  0.51100000000E-03 0.  1.
         11    1    4    4    0    0 -0.97428586895E-02  0.11407604582E-01 -0.43507998761E-01  0.46024600106E-01  0.51100000000E-03 0. -1.
</event>
<event>
 8    1  0.1128641E+005  0.1043930E+01  0.7957747E-01            NaN
         13   -1    0    0    0    0  0.00000000000E+00  0.00000000000E+00  0.74505805969E-08  0.10566000000E+00  0.10566000000E+00 0. -1.
     999900   -1    0    0    0    0 -0.00000000000E+00 -0.00000000000E+00 -0.74505805969E-08  0.93827000000E+00  0.93827000000E+00 0. -1.
     999902    2    1    2    0    0  0.47436823488E-02  0.16172668335E-01  0.20401081964E-01  0.10174675385E+01  0.10171233603E+01 0.  0.
     999903    2    3    3    0    0  0.31736393322E-01 -0.11562082210E+00 -0.32178251770E-01  0.12569250134E+00  0.19692431096E-01 0.  0.
         14    1    1    2    0    0 -0.47436823488E-02 -0.16172668335E-01 -0.20401081964E-01  0.26462461499E-01  0.00000000000E+00 0.  1.
     999901    1    3    3    0    0 -0.26992710973E-01  0.13179349043E+00  0.52579333733E-01  0.89177503716E+00  0.88000000000E+00 0. -1.
        -11    1    4    4    0    0  0.12128763620E-01 -0.18033275109E-01 -0.28634631849E-02  0.21926387311E-01  0.51100000000E-03 0.  1.
         11    1    4    4    0    0  0.19607629702E-01 -0.97587546989E-01 -0.29314788585E-01  0.10376611403E+00  0.51100000000E-03 0. -1.
</event>
<event>
 8    1  0.1128641E+005  0.1043930E+01  0.7957747E-01            NaN
         13   -1    0    0    0    0  0.00000000000E+00  0.00000000000E+00  0.74505805969E-08  0.10566000000E+00  0.10566000000E+00 0.  1.
     999900   -1    0    0    0    0 -0.00000000000E+00 -0.00000000000E+00 -0.74505805969E-08  0.93827000000E+00  0.93827000000E+00 0. -1.
     999902    2    1    2    0    0  0.58409671062E-02 -0.21664624186E-01  0.47354494740E-02  0.10209975488E+01  0.10207399753E+01 0.  0.
     999903    2    3    3    0    0 -0.40395572976E-01 -0.11338704674E+00  0.54676786141E-01  0.13361659475E+00  0.19375726198E-01 0.  0.
         14    1    1    2    0    0 -0.58409671062E-02  0.21664624186E-01 -0.47354494740E-02  0.22932451234E-01  0.00000000000E+00 0. -1.
     999901    1    3    3    0    0  0.46236540082E-01  0.91722422556E-01 -0.49941336667E-01  0.88738095401E+00  0.88000000000E+00 0. -1.
        -11    1    4    4    0    0 -0.36152647135E-01 -0.75948049907E-01  0.40479819579E-01  0.93348792674E-01  0.51100000000E-03 0. -1.
         11    1    4    4    0    0 -0.42429258410E-02 -0.37438996835E-01  0.14196966562E-01  0.40267802079E-01  0.51100000000E-03 0.  1.
</event>
<event>
 8    1  0.1128641E+005  0.1043930E+01  0.7957747E-01            NaN
         13   -1    0    0    0    0  0.00000000000E+00  0.00000000000E+00  0.74505805969E-08  0.10566000000E+00  0.10566000000E+00 0. -1.
     999900   -1    0    0    0    0 -0.00000000000E+00 -0.00000000000E+00 -0.74505805969E-08  0.93827000000E+00  0.93827000000E+00 0. -1.
     999902    2    1    2    0    0  0.21757099485E-01 -0.11412281212E-01  0.10601208809E-01  0.10171718766E+01  0.10168198608E+01 0.  0.
     999903    2    3    3    0    0 -0.54481531177E-01  0.77412565809E-01 -0.79053812859E-01  0.12490498537E+00  0.19768850687E-01 0.  0.
         14    1    1    2    0    0 -0.21757099485E-01  0.11412281212E-01 -0.10601208809E-01  0.26758123415E-01  0.00000000000E+00 0. -1.
     999901    1    3    3    0    0  0.76238630663E-01 -0.88824847021E-01  0.89655021668E-01  0.89226689122E+00  0.88000000000E+00 0.  1.
        -11    1    4    4    0    0 -0.23644759781E-01  0.23914111288E-01 -0.38027388087E-01  0.50767142420E-01  0.51100000000E-03 0.  1.
         11    1    4    4    0    0 -0.30836771396E-01  0.53498454521E-01 -0.41026424772E-01  0.74137842947E-01  0.51100000000E-03 0. -1.
</event>
<event>
 8    1  0.1128641E+005  0.1043930E+01  0.7957747E-01            NaN
         13   -1    0    0    0    0  0.00000000000E+00  0.00000000000E+00  0.74505805969E-08  0.10566000000E+00  0.10566000000E+00 0.  1.
     999900   -1    0    0    0    0 -0.00000000000E+00 -0.00000000000E+00 -0.74505805969E-08  0.93827000000E+00  0.93827000000E+00 0. -1.
     999902    2    1    2    0    0  0.28961464059E-02 -0.10878287697E-01  0.12999150912E-01  0.10267339908E+01  0.10265899791E+01 0.  0.
     999903    2    3    3    0    0  0.31697282898E-01 -0.12090480061E+00 -0.52536786827E-01  0.13699790740E+00  0.19637314217E-01 0.  0.
         14    1    1    2    0    0 -0.28961464059E-02  0.10878287697E-01 -0.12999150912E-01  0.17196009178E-01  0.00000000000E+00 0. -1.
     999901    1    3    3    0    0 -0.28801136492E-01  0.11002651291E+00  0.65535937739E-01  0.88973608342E+00  0.88000000000E+00 0.  1.
        -11    1    4    4    0    0  0.16875887139E-01 -0.71938704401E-01 -0.41167730873E-01  0.84587327324E-01  0.51100000000E-03 0.  1.
         11    1    4    4    0    0  0.14821395759E-01 -0.48966096204E-01 -0.11369055954E-01  0.52410580077E-01  0.51100000000E-03 0. -1.
</event>
<event>
 8    1  0.1128641E+005  0.1043930E+01  0.7957747E-01            NaN
         13   -1    0    0    0    0  0.00000000000E+00  0.00000000000E+00  0.74505805969E-08  0.10566000000E+00  0.10566000000E+00 0. -1.
     999900   -1    0    0    0    0 -0.00000000000E+00 -0.00000000000E+00 -0.74505805969E-08  0.93827000000E+00  0.93827000000E+00 0.  1.
     999902    2    1    2    0    0 -0.72508587453E-02 -0.11676219215E-01  0.19646671917E-01  0.10199529117E+01  0.10196710456E+01 0.  0.
     999903    2    3    3    0    0 -0.36629047712E-01 -0.61780973482E-01  0.11064567423E+00  0.13335583136E+00  0.19563657899E-01 0.  0.
         14    1    1    2    0    0  0.72508587453E-02  0.11676219215E-01 -0.19646671917E-01  0.23977088336E-01  0.00000000000E+00 0.  1.
     999901    1    3    3    0    0  0.29378188967E-01  0.50104754268E-01 -0.90999002313E-01  0.88659708031E+00  0.88000000000E+00 0.  1.
        -11    1    4    4    0    0 -0.12922906424E-01 -0.31358952275E-01  0.67080126160E-01  0.75169075056E-01  0.51100000000E-03 0.  1.
         11    1    4    4    0    0 -0.23706141288E-01 -0.30422021208E-01  0.43565548069E-01  0.58186756300E-01  0.51100000000E-03 0. -1.
</event>
<event>
 8    1  0.1128641E+005  0.1043930E+01  0.7957747E-01            NaN
         13   -1    0    0    0    0  0.00000000000E+00  0.00000000000E+00  0.74505805969E-08  0.10566000000E+00  0.10566000000E+00 0. -1.
     999900   -1    0    0    0    0 -0.00000000000E+00 -0.00000000000E+00 -0.74505805969E-08  0.93827000000E+00  0.93827000000E+00 0.  1.
     999902    2    1    2    0    0 -0.74165165137E-02 -0.21070839900E-01 -0.45625736165E-02  0.10211308314E+01  0.10208762769E+01 0.  0.
     999903    2    3    3    0    0 -0.68578398361E-01 -0.97667965980E-02  0.11001396953E+00  0.13152623303E+00  0.19942152477E-01 0.  0.
         14    1    1    2    0    0  0.74165165137E-02  0.21070839900E-01  0.45625736165E-02  0.22799168610E-01  0.00000000000E+00 0.  1.
     999901    1    3    3    0    0  0.61161881847E-01 -0.11304043302E-01 -0.11457654315E+00  0.88960459836E+00  0.88000000000E+00 0.  1.
        -11    1    4    4    0    0 -0.82624109408E-02 -0.28879354564E-03  0.28504750235E-01  0.29683880191E-01  0.51100000000E-03 0.  1.
         11    1    4    4    0    0 -0.60315987420E-01 -0.94780030524E-02  0.81509219295E-01  0.10184235284E+00  0.51100000000E-03 0. -1.
</event>
<event>
 8    1  0.1128641E+005  0.1043930E+01  0.7957747E-01            NaN
         13   -1    0    0    0    0  0.00000000000E+00  0.00000000000E+00  0.74505805969E-08  0.10566000000E+00  0.10566000000E+00 0. -1.
     999900   -1    0    0    0    0 -0.00000000000E+00 -0.00000000000E+00 -0.74505805969E-08  0.93827000000E+00  0.93827000000E+00 0.  1.
     999902    2    1    2    0    0 -0.16298101766E-03  0.20709559005E-01 -0.94154417750E-02  0.10211799903E+01  0.10209265447E+01 0.  0.
     999903    2    3    3    0    0  0.55697587736E-01  0.96418506313E-01  0.69398015557E-01  0.13266223084E+00  0.19606970405E-01 0.  0.
         14    1    1    2    0    0  0.16298101766E-03 -0.20709559005E-01  0.94154417750E-02  0.22750009688E-01  0.00000000000E+00 0. -1.
     999901    1    3    3    0    0 -0.55860568754E-01 -0.75708947308E-01 -0.78813457332E-01  0.88851775947E+00  0.88000000000E+00 0.  1.
        -11    1    4    4    0    0 -0.71022815982E-03  0.28223168064E-02  0.50287586018E-02  0.58326177888E-02  0.51100000000E-03 0.  1.
         11    1    4    4    0    0  0.56407815896E-01  0.93596189506E-01  0.64369256955E-01  0.12682961305E+00  0.51100000000E-03 0. -1.
</event>
<event>
 8    1  0.1128641E+005  0.1043930E+01  0.7957747E-01            NaN
         13   -1    0    0    0    0  0.00000000000E+00  0.00000000000E+00  0.74505805969E-08  0.10566000000E+00  0.10566000000E+00 0.  1.
     999900   -1    0    0    0    0 -0.00000000000E+00 -0.00000000000E+00 -0.74505805969E-08  0.93827000000E+00  0.93827000000E+00 0.  1.
     999902    2    1    2    0    0 -0.67572483749E-02  0.92105691123E-02  0.21539826002E-01  0.10195484682E+01  0.10192568959E+01 0.  0.
     999903    2    3    3    0    0  0.42554769431E-01  0.61887256783E-01 -0.10173261883E+00  0.12803144414E+00  0.20039560900E-01 0.  0.
         14    1    1    2    0    0  0.67572483749E-02 -0.92105691123E-02 -0.21539826002E-01  0.24381531805E-01  0.00000000000E+00 0. -1.
     999901    1    3    3    0    0 -0.49312017806E-01 -0.52676687671E-01  0.12327244483E+00  0.89151702405E+00  0.88000000000E+00 0. -1.
        -11    1    4    4    0    0  0.23851881339E-01  0.50180034340E-01 -0.75687215091E-01  0.93892298614E-01  0.51100000000E-03 0. -1.
         11    1    4    4    0    0  0.18702888092E-01  0.11707222444E-01 -0.26045403739E-01  0.34139145527E-01  0.51100000000E-03 0.  1.
</event>
<event>
 8    1  0.1128641E+005  0.1043930E+01  0.7957747E-01            NaN
         13   -1    0    0    0    0  0.00000000000E+00  0.00000000000E+00  0.74505805969E-08  0.10566000000E+00  0.10566000000E+00 0. -1.
     999900   -1    0    0    0    0 -0.00000000000E+00 -0.00000000000E+00 -0.74505805969E-08  0.93827000000E+00  0.93827000000E+00 0. -1.
     999902    2    1    2    0    0  0.46424384795E-02  0.41391025265E-02  0.23175043119E-01  0.10199348541E+01  0.10196525582E+01 0.  0.
     999903    2    3    3    0    0 -0.54318168976E-01 -0.11449293803E+00 -0.15406273407E-01  0.12918324320E+00  0.19795472284E-01 0.  0.
         14    1    1    2    0    0 -0.46424384795E-02 -0.41391025265E-02 -0.23175043119E-01  0.23995145933E-01  0.00000000000E+00 0.  1.
     999901    1    3    3    0    0  0.58960607455E-01  0.11863204056E+00  0.38581316526E-01  0.89075161087E+00  0.88000000000E+00 0.  1.
        -11    1    4    4    0    0 -0.18295626012E-01 -0.58792207101E-01 -0.12183707582E-01  0.62769079955E-01  0.51100000000E-03 0.  1.
         11    1    4    4    0    0 -0.36022542964E-01 -0.55700730932E-01 -0.32225658253E-02  0.66414163244E-01  0.51100000000E-03 0. -1.
</event>
<event>
 8    1  0.1128641E+005  0.1043930E+01  0.7957747E-01            NaN
         13   -1    0    0    0    0  0.00000000000E+00  0.00000000000E+00  0.74505805969E-08  0.10566000000E+00  0.10566000000E+00 0. -1.
     999900   -1    0    0    0    0 -0.00000000000E+00 -0.00000000000E+00 -0.74505805969E-08  0.93827000000E+00  0.93827000000E+00 0. -1.
     999902    2    1    2    0    0  0.62111943464E-02 -0.99313745504E-02  0.19668103221E-01  0.10210379616E+01  0.10207813055E+01 0.  0.
     999903    2    3    3    0    0 -0.24425500554E-01 -0.88019712897E-01  0.95656871620E-01  0.13378901767E+00  0.20129312606E-01 0.  0.
         14    1    1    2    0    0 -0.62111943464E-02  0.99313745504E-02 -0.19668103221E-01  0.22892038353E-01  0.00000000000E+00 0.  1.
     999901    1    3    3    0    0  0.30636694901E-01  0.78088338347E-01 -0.75988768399E-01  0.88724894397E+00  0.88000000000E+00 0. -1.
        -11    1    4    4    0    0 -0.26432293189E-01 -0.68451198638E-01  0.69601229796E-01  0.10113765386E+00  0.51100000000E-03 0.  1.
         11    1    4    4    0    0  0.20067926347E-02 -0.19568514259E-01  0.26055641823E-01  0.32651363813E-01  0.51100000000E-03 0. -1.
</event>
<event>
 8    1  0.1128641E+005  0.1043930E+01  0.7957747E-01            NaN
         13   -1    0    0    0    0  0.00000000000E+00  0.00000000000E+00  0.74505805969E-08  0.10566000000E+00  0.10566000000E+00 0.  1.
     999900   -1    0    0    0    0 -0.00000000000E+00 -0.00000000000E+00 -0.74505805969E-08  0.93827000000E+00  0.93827000000E+00 0. -1.
     999902    2    1    2    0    0 -0.16081856412E-01  0.16133842189E-01  0.63757320858E-02  0.10202746216E+01  0.10200003561E+01 0.  0.
     999903    2    3    3    0    0 -0.11267072358E+00  0.10049302279E-01 -0.65043317398E-01  0.13209270803E+00  0.20546774653E-01 0.  0.
         14    1    1    2    0    0  0.16081856412E-01 -0.16133842189E-01 -0.63757320858E-02  0.23655378439E-01  0.00000000000E+00 0. -1.
     999901    1    3    3    0    0  0.96588867172E-01  0.60845399102E-02  0.71419049483E-01  0.88818191353E+00  0.88000000000E+00 0.  1.
        -11    1    4    4    0    0 -0.40948515560E-01  0.61368958731E-02 -0.35050960173E-01  0.54251943261E-01  0.51100000000E-03 0. -1.
         11    1    4    4    0    0 -0.71722208024E-01  0.39124064058E-02 -0.29992357225E-01  0.77840764774E-01  0.51100000000E-03 0.  1.
</event>
<event>
 8    1  0.1128641E+005  0.1043930E+01  0.7957747E-01            NaN
         13   -1    0    0    0    0  0.00000000000E+00  0.00000000000E+00  0.74505805969E-08  0.10566000000E+00  0.10566000000E+00 0.  1.
     999900   -1    0    0    0    0 -0.00000000000E+00 -0.00000000000E+00 -0.74505805969E-08  0.93827000000E+00  0.93827000000E+00 0.  1.
     999902    2    1    2    0    0 -0.60942499114E-02  0.12164653851E-01 -0.19522822609E-01  0.10201337968E+01  0.10198562173E+01 0.  0.
     999903    2    3    3    0    0 -0.73668367609E-01  0.50956658650E-01  0.92497488181E-01  0.12961729999E+00  0.14874464352E-01 0.  0.
         14    1    1    2    0    0  0.60942499114E-02 -0.12164653851E-01  0.19522822609E-01  0.23796203225E-01  0.00000000000E+00 0.  1.
     999901    1    3    3    0    0  0.67574117698E-01 -0.38792004798E-01 -0.11202031079E+00  0.89051649679E+00  0.88000000000E+00 0.  1.
        -11    1    4    4    0    0 -0.95379509692E-02  0.12946749922E-01  0.19487751545E-01  0.25271019440E-01  0.51100000000E-03 0.  1.
         11    1    4    4    0    0 -0.64130416640E-01  0.38009908727E-01  0.73009736636E-01  0.10434628055E+00  0.51100000000E-03 0. -1.
</event>
<event>
 8    1  0.1128641E+005  0.1043930E+01  0.7957747E-01            NaN
         13   -1    0    0    0    0  0.00000000000E+00  0.00000000000E+00  0.74505805969E-08  0.10566000000E+00  0.10566000000E+00 0. -1.
     999900   -1    0    0    0    0 -0.00000000000E+00 -0.00000000000E+00 -0.74505805969E-08  0.93827000000E+00  0.93827000000E+00 0.  1.
     999902    2    1    2    0    0 -0.18483080099E-01  0.12848818441E-01  0.88722882732E-02  0.10197342590E+01  0.10194471664E+01 0.  0.
     999903    2    3    3    0    0 -0.70856402532E-01  0.63367072099E-01 -0.88320021373E-01  0.13139794657E+00  0.20711798125E-01 0.  0.
         14    1    1    2    0    0  0.18483080099E-01 -0.12848818441E-01 -0.88722882732E-02  0.24195741040E-01  0.00000000000E+00 0. -1.
     999901    1    3    3    0    0  0.52373322433E-01 -0.50518253659E-01  0.97192309646E-01  0.88833631239E+00  0.88000000000E+00 0. -1.
        -11    1    4    4    0    0 -0.14057454992E-01  0.33269230051E-02 -0.16130248667E-01  0.21659328258E-01  0.51100000000E-03 0. -1.
         11    1    4    4    0    0 -0.56798947540E-01  0.60040149094E-01 -0.72189772706E-01  0.10973861831E+00  0.51100000000E-03 0.  1.
</event>
<event>
 8    1  0.1128641E+005  0.1043930E+01  0.7957747E-01            NaN
         13   -1    0    0    0    0  0.00000000000E+00  0.00000000000E+00  0.74505805969E-08  0.10566000000E+00  0.10566000000E+00 0. -1.
     999900   -1    0    0    0    0 -0.00000000000E+00 -0.00000000000E+00 -0.74505805969E-08  0.93827000000E+00  0.93827000000E+00 0.  1.
     999902    2    1    2    0    0  0.22212611235E-01 -0.75522371198E-02 -0.16185558766E-02  0.10204128551E+01  0.10201418228E+01 0.  0.
     999903    2    3    3    0    0  0.15680472517E-01  0.41027340504E-01 -0.12159809352E+00  0.13091989069E+00  0.20610714301E-01 0.  0.
         14    1    1    2    0    0 -0.22212611235E-01  0.75522371198E-02  0.16185558766E-02  0.23517144948E-01  0.00000000000E+00 0. -1.
     999901    1    3    3    0    0  0.65321387179E-02 -0.48579577624E-01  0.11997953764E+00  0.88949296436E+00  0.88000000000E+00 0. -1.
        -11    1    4    4    0    0  0.75943954217E-02  0.17605516557E-02 -0.13125675398E-01  0.15274778545E-01  0.51100000000E-03 0.  1.
         11    1    4    4    0    0  0.80860770955E-02  0.39266788849E-01 -0.10847241812E+00  0.11564511214E+00  0.51100000000E-03 0. -1.
</event>
<event>
 8    1  0.1128641E+005  0.1043930E+01  0.7957747E-01            NaN
         13   -1    0    0    0    0  0.00000000000E+00  0.00000000000E+00  0.74505805969E-08  0.10566000000E+00  0.10566000000E+00 0.  1.
     999900   -1    0    0    0    0 -0.00000000000E+00 -0.00000000000E+00 -0.74505805969E-08  0.93827000000E+00  0.93827000000E+00 0. -1.
     999902    2    1    2    0    0 -0.19189156208E-01 -0.38318023441E-02  0.14329665944E-01  0.10196762219E+01  0.10193877338E+01 0.  0.
     999903    2    3    3    0    0 -0.17513644387E-01  0.86257142813E-01 -0.91781126955E-01  0.12873384121E+00  0.20040064387E-01 0.  0.
         14    1    1    2    0    0  0.19189156208E-01  0.38318023441E-02 -0.14329665944E-01  0.24253778082E-01  0.00000000000E+00 0. -1.
     999901    1    3    3    0    0 -0.16755118205E-02 -0.90088945157E-01  0.10611079290E+00  0.89094238071E+00  0.88000000000E+00 0.  1.
        -11    1    4    4    0    0 -0.14705508488E-02  0.55971675121E-01 -0.57095947863E-01  0.79969990116E-01  0.51100000000E-03 0. -1.
         11    1    4    4    0    0 -0.16043093538E-01  0.30285467691E-01 -0.34685179091E-01  0.48763851091E-01  0.51100000000E-03 0.  1.
</event>
<event>
 8    1  0.1128641E+005  0.1043930E+01  0.7957747E-01            NaN
         13   -1    0    0    0    0  0.00000000000E+00  0.00000000000E+00  0.74505805969E-08  0.10566000000E+00  0.10566000000E+00 0. -1.
     999900   -1    0    0    0    0 -0.00000000000E+00 -0.00000000000E+00 -0.74505805969E-08  0.93827000000E+00  0.93827000000E+00 0.  1.
     999902    2    1    2    0    0 -0.59788149272E-02 -0.11857391409E-01  0.20010749503E-01  0.10199138793E+01  0.10196310838E+01 0.  0.
     999903    2    3    3    0    0 -0.44076353272E-01  0.47198482046E-01  0.11350355286E+00  0.13217522241E+00  0.20415956563E-01 0.  0.
         14    1    1    2    0    0  0.59788149272E-02  0.11857391409E-01 -0.20010749503E-01  0.24016120724E-01  0.00000000000E+00 0.  1.
     999901    1    3    3    0    0  0.38097538345E-01 -0.59055873456E-01 -0.93492803355E-01  0.88773865687E+00  0.88000000000E+00 0.  1.
        -11    1    4    4    0    0 -0.20152474371E-01  0.28363918460E-01  0.77938511824E-01  0.85354008927E-01  0.51100000000E-03 0. -1.
         11    1    4    4    0    0 -0.23923878901E-01  0.18834563587E-01  0.35565041034E-01  0.46821213482E-01  0.51100000000E-03 0.  1.
</event>
<event>
 8    1  0.1128641E+005  0.1043930E+01  0.7957747E-01            NaN
         13   -1    0    0    0    0  0.00000000000E+00  0.00000000000E+00  0.74505805969E-08  0.10566000000E+00  0.10566000000E+00 0.  1.
     999900   -1    0    0    0    0 -0.00000000000E+00 -0.00000000000E+00 -0.74505805969E-08  0.93827000000E+00  0.93827000000E+00 0.  1.
     999902    2    1    2    0    0 -0.20384866536E-01  0.39371142209E-02 -0.79660203792E-03  0.10231531324E+01  0.10229421558E+01 0.  0.
     999903    2    3    3    0    0  0.24186067677E-01 -0.12789478803E+00 -0.12590821525E-01  0.13213948367E+00  0.18980824084E-01 0.  0.
         14    1    1    2    0    0  0.20384866536E-01 -0.39371142209E-02  0.79660203792E-03  0.20776867591E-01  0.00000000000E+00 0. -1.
     999901    1    3    3    0    0 -0.44570934213E-01  0.13183190225E+00  0.11794219487E-01  0.89101364874E+00  0.88000000000E+00 0. -1.
        -11    1    4    4    0    0  0.48819757402E-02 -0.51088482093E-01 -0.12988628038E-01  0.52941781884E-01  0.51100000000E-03 0. -1.
         11    1    4    4    0    0  0.19304091937E-01 -0.76806305937E-01  0.39780651245E-03  0.79197701786E-01  0.51100000000E-03 0.  1.
</event>
<event>
 8    1  0.1128641E+005  0.1043930E+01  0.7957747E-01            NaN
         13   -1    0    0    0    0  0.00000000000E+00  0.00000000000E+00  0.74505805969E-08  0.10566000000E+00  0.10566000000E+00 0.  1.
     999900   -1    0    0    0    0 -0.00000000000E+00 -0.00000000000E+00 -0.74505805969E-08  0.93827000000E+00  0.93827000000E+00 0.  1.
     999902    2    1    2    0    0  0.21751869673E-01 -0.67117737724E-02 -0.43367052710E-02  0.10207567664E+01  0.10204936930E+01 0.  0.
     999903    2    3    3    0    0 -0.12623624147E+00  0.10122483468E-01  0.12417051746E-01  0.12808405954E+00  0.14604444559E-01 0.  0.
         14    1    1    2    0    0 -0.21751869673E-01  0.67117737724E-02  0.43367052710E-02  0.23173233569E-01  0.00000000000E+00 0. -1.
     999901    1    3    3    0    0  0.14798811115E+00 -0.16834257240E-01 -0.16753757017E-01  0.89267270689E+00  0.88000000000E+00 0.  1.
        -11    1    4    4    0    0 -0.75845681472E-02  0.18207551219E-02 -0.25061579790E-02  0.82087009940E-02  0.51100000000E-03 0. -1.
         11    1    4    4    0    0 -0.11865167333E+00  0.83017283462E-02  0.14923209725E-01  0.11987535854E+00  0.51100000000E-03 0.  1.
</event>
<event>
 7    1  0.1128641E+005  0.1043930E+01  0.7957747E-01            NaN
         13   -1    0    0    0    0  0.00000000000E+00  0.00000000000E+00  0.74505805969E-08  0.10566000000E+00  0.10566000000E+00 0.  1.
     999900   -1    0    0    0    0 -0.00000000000E+00 -0.00000000000E+00 -0.74505805969E-08  0.93827000000E+00  0.93827000000E+00 0. -1.
     999903    2    1    2    0    0 -0.44471122425E-01 -0.83222675091E-01  0.25436181409E-01  0.10295026364E+00  0.32373802375E-01 0.  0.
         14    1    1    2    0    0  0.13644616631E-01 -0.10496803760E-01  0.49396354902E-01  0.52310212481E-01  0.00000000000E+00 0.  1.
     999901    1    1    2    0    0  0.30826505794E-01  0.93719478851E-01 -0.74832536312E-01  0.88866952388E+00  0.88000000000E+00 0. -1.
        -11    1    3    3    0    0 -0.49198370411E-01 -0.74922849099E-01  0.19620882218E-01  0.91755943177E-01  0.51100000000E-03 0.  1.
         11    1    3    3    0    0  0.47272479852E-02 -0.82998259920E-02  0.58152991911E-02  0.11194320466E-01  0.51100000000E-03 0. -1.
</event>
<event>
 8    1  0.1716726E+005  0.1043930E+01  0.7957747E-01            NaN
         13   -1    0    0    0    0  0.00000000000E+00  0.00000000000E+00  0.74505805969E-08  0.10566000000E+00  0.10566000000E+00 0. -1.
     999900   -1    0    0    0    0 -0.00000000000E+00 -0.00000000000E+00 -0.74505805969E-08  0.93827000000E+00  0.93827000000E+00 0.  1.
     999902    2    1    2    0    0  0.11672480675E-01 -0.20177647986E-01  0.10585481770E-01  0.10183285018E+01  0.10180066311E+01 0.  0.
     999903    2    3    3    0    0 -0.95257126464E-02  0.11605830273E+00  0.46228283178E-01  0.12688023809E+00  0.20031770206E-01 0.  0.
         14    1    1    2    0    0 -0.11672480675E-01  0.20177647986E-01 -0.10585481770E-01  0.25601498152E-01  0.00000000000E+00 0.  1.
     999901    1    3    3    0    0  0.21198193321E-01 -0.13623595072E+00 -0.35642801408E-01  0.89144826376E+00  0.88000000000E+00 0.  1.
        -11    1    4    4    0    0  0.49746928561E-02  0.60474342143E-01  0.22277564301E-01  0.64640889682E-01  0.51100000000E-03 0.  1.
         11    1    4    4    0    0 -0.14500405502E-01  0.55583960587E-01  0.23950718877E-01  0.62239348406E-01  0.51100000000E-03 0. -1.
</event>
<event>
 8    1  0.1128641E+005  0.1043930E+01  0.7957747E-01            NaN
         13   -1    0    0    0    0  0.00000000000E+00  0.00000000000E+00  0.74505805969E-08  0.10566000000E+00  0.10566000000E+00 0. -1.
     999900   -1    0    0    0    0 -0.00000000000E+00 -0.00000000000E+00 -0.74505805969E-08  0.93827000000E+00  0.93827000000E+00 0.  1.
     999902    2    1    2    0    0 -0.22067189419E-01 -0.68229904248E-02  0.11797667243E-03  0.10208317757E+01  0.10205704220E+01 0.  0.
     999903    2    3    3    0    0 -0.12743527357E+00 -0.20672879170E-01  0.29346835941E-01  0.13395603537E+00  0.20392786679E-01 0.  0.
         14    1    1    2    0    0  0.22067189419E-01  0.68229904248E-02 -0.11797667243E-03  0.23098224297E-01  0.00000000000E+00 0.  1.
     999901    1    3    3    0    0  0.10536808415E+00  0.13849888745E-01 -0.29228859269E-01  0.88687574033E+00  0.88000000000E+00 0.  1.
        -11    1    4    4    0    0 -0.71424197157E-01 -0.85643945591E-02  0.63873210497E-02  0.72220660374E-01  0.51100000000E-03 0.  1.
         11    1    4    4    0    0 -0.56011076417E-01 -0.12108484611E-01  0.22959514892E-01  0.61735374997E-01  0.51100000000E-03 0. -1.
</event>
<event>
 8    1  0.1128641E+005  0.1043930E+01  0.7957747E-01            NaN
         13   -1    0    0    0    0  0.00000000000E+00  0.00000000000E+00  0.74505805969E-08  0.10566000000E+00  0.10566000000E+00 0. -1.
     999900   -1    0    0    0    0 -0.00000000000E+00 -0.00000000000E+00 -0.74505805969E-08  0.93827000000E+00  0.93827000000E+00 0.  1.
     999902    2    1    2    0    0  0.21746345514E-01 -0.90123733869E-02 -0.28921935035E-02  0.10202131031E+01  0.10199373924E+01 0.  0.
     999903    2    3    3    0    0 -0.89966327087E-01  0.57976512903E-01 -0.68029711523E-01  0.12824330068E+00  0.19054827762E-01 0.  0.
         14    1    1    2    0    0 -0.21746345514E-01  0.90123733869E-02  0.28921935035E-02  0.23716896941E-01  0.00000000000E+00 0. -1.
     999901    1    3    3    0    0  0.11171267260E+00 -0.66988886290E-01  0.65137518019E-01  0.89196980238E+00  0.88000000000E+00 0. -1.
        -11    1    4    4    0    0 -0.79622843095E-01  0.47403544419E-01 -0.51346417496E-01  0.10594153518E+00  0.51100000000E-03 0.  1.
         11    1    4    4    0    0 -0.10343483991E-01  0.10572968484E-01 -0.16683294027E-01  0.22301765496E-01  0.51100000000E-03 0. -1.
</event>
<event>
 8    1  0.1128641E+005  0.1043930E+01  0.7957747E-01            NaN
         13   -1    0    0    0    0  0.00000000000E+00  0.00000000000E+00  0.74505805969E-08  0.10566000000E+00  0.10566000000E+00 0.  1.
     999900   -1    0    0    0    0 -0.00000000000E+00 -0.00000000000E+00 -0.74505805969E-08  0.93827000000E+00  0.93827000000E+00 0.  1.
     999902    2    1    2    0    0  0.98895720530E-02 -0.13174655889E-01  0.19200732529E-01  0.10186309225E+01  0.10183167056E+01 0.  0.
     999903    2    3    3    0    0  0.45073165096E-01  0.10000902911E-01 -0.11662660911E+00  0.12721403995E+00  0.21214092852E-01 0.  0.
         14    1    1    2    0    0 -0.98895720530E-02  0.13174655889E-01 -0.19200732529E-01  0.25299077510E-01  0.00000000000E+00 0. -1.
     999901    1    3    3    0    0 -0.35183593043E-01 -0.23175558801E-01  0.13582734164E+00  0.89141688254E+00  0.88000000000E+00 0. -1.
        -11    1    4    4    0    0 -0.23247429299E-03  0.40237689401E-02 -0.41510805944E-02  0.58083863406E-02  0.51100000000E-03 0.  1.
         11    1    4    4    0    0  0.45305639389E-01  0.59771339713E-02 -0.11247552852E+00  0.12140565361E+00  0.51100000000E-03 0. -1.
</event>
<event>
 8    1  0.1128641E+005  0.1043930E+01  0.7957747E-01            NaN
         13   -1    0    0    0    0  0.00000000000E+00  0.00000000000E+00  0.74505805969E-08  0.10566000000E+00  0.10566000000E+00 0.  1.
     999900   -1    0    0    0    0 -0.00000000000E+00 -0.00000000000E+00 -0.74505805969E-08  0.93827000000E+00  0.93827000000E+00 0. -1.
     999902    2    1    2    0    0  0.10858468641E-01  0.16151559847E-01 -0.11646700418E-01  0.10212490640E+01  0.10209971723E+01 0.  0.
     999903    2    3    3    0    0  0.57544631514E-01 -0.23739782628E-01 -0.11601598527E+00  0.13295639567E+00  0.18513033695E-01 0.  0.
         14    1    1    2    0    0 -0.10858468641E-01 -0.16151559847E-01  0.11646700418E-01  0.22680935989E-01  0.00000000000E+00 0.  1.
     999901    1    3    3    0    0 -0.46686162873E-01  0.39891342475E-01  0.10436928485E+00  0.88829266834E+00  0.88000000000E+00 0.  1.
        -11    1    4    4    0    0  0.55780641812E-01 -0.18326803636E-01 -0.10978700667E+00  0.12450220756E+00  0.51100000000E-03 0.  1.
         11    1    4    4    0    0  0.17639897024E-02 -0.54129789921E-02 -0.62289785931E-02  0.84541881072E-02  0.51100000000E-03 0. -1.
</event>
<event>
 8    1  0.1128641E+005  0.1043930E+01  0.7957747E-01            NaN
         13   -1    0    0    0    0  0.00000000000E+00  0.00000000000E+00  0.74505805969E-08  0.10566000000E+00  0.10566000000E+00 0. -1.
     999900   -1    0    0    0    0 -0.00000000000E+00 -0.00000000000E+00 -0.74505805969E-08  0.93827000000E+00  0.93827000000E+00 0. -1.
     999902    2    1    2    0    0 -0.15237189258E-01 -0.37991473600E-02 -0.17119716440E-01  0.10206987678E+01  0.10204343607E+01 0.  0.
     999903    2    3    3    0    0 -0.91898989109E-01 -0.56072423533E-01  0.72438721004E-01  0.13129995927E+00  0.20069133572E-01 0.  0.
         14    1    1    2    0    0  0.15237189258E-01  0.37991473600E-02  0.17119716440E-01  0.23231232170E-01  0.00000000000E+00 0. -1.
     999901    1    3    3    0    0  0.76661799851E-01  0.52273276173E-01 -0.89558437444E-01  0.88939880856E+00  0.88000000000E+00 0. -1.
        -11    1    4    4    0    0 -0.27920155536E-01 -0.28289866045E-01  0.26968662839E-01  0.48035627427E-01  0.51100000000E-03 0. -1.
         11    1    4    4    0    0 -0.63978833574E-01 -0.27782557488E-01  0.45470058165E-01  0.83264331839E-01  0.51100000000E-03 0.  1.
</event>
<event>
 8    1  0.1128641E+005  0.1043930E+01  0.7957747E-01            NaN
         13   -1    0    0    0    0  0.00000000000E+00  0.00000000000E+00  0.74505805969E-08  0.10566000000E+00  0.10566000000E+00 0.  1.
     999900   -1    0    0    0    0 -0.00000000000E+00 -0.00000000000E+00 -0.74505805969E-08  0.93827000000E+00  0.93827000000E+00 0. -1.
     999902    2    1    2    0    0 -0.15215136011E-02  0.22568399032E-01  0.72732777285E-02  0.10201697768E+01  0.10198930460E+01 0.  0.
     999903    2    3    3    0    0 -0.91713384962E-01 -0.87474715365E-01 -0.83876361934E-02  0.12860411744E+00  0.20136925613E-01 0.  0.
         14    1    1    2    0    0  0.15215136011E-02 -0.22568399032E-01 -0.72732777285E-02  0.23760223219E-01  0.00000000000E+00 0. -1.
     999901    1    3    3    0    0  0.90191871361E-01  0.11004311440E+00  0.15660913922E-01  0.89156565934E+00  0.88000000000E+00 0.  1.
        -11    1    4    4    0    0 -0.57570634094E-01 -0.45610345075E-01  0.25039916366E-02  0.73492942402E-01  0.51100000000E-03 0. -1.
         11    1    4    4    0    0 -0.34142750867E-01 -0.41864370290E-01 -0.10891627830E-01  0.55111175041E-01  0.51100000000E-03 0.  1.
</event>
<event>
 8    1  0.1128641E+005  0.1043930E+01  0.7957747E-01            NaN
         13   -1    0    0    0    0  0.00000000000E+00  0.00000000000E+00  0.74505805969E-08  0.10566000000E+00  0.10566000000E+00 0. -1.
     999900   -1    0    0    0    0 -0.00000000000E+00 -0.00000000000E+00 -0.74505805969E-08  0.93827000000E+00  0.93827000000E+00 0. -1.
     999902    2    1    2    0    0 -0.11440550254E-02 -0.33309384247E-03 -0.23561694935E-01  0.10203381946E+01  0.10200654185E+01 0.  0.
     999903    2    3    3    0    0  0.15149539350E-01 -0.87169522606E-01  0.90960204666E-01  0.12853030494E+00  0.20451069471E-01 0.  0.
         14    1    1    2    0    0  0.11440550254E-02  0.33309384247E-03  0.23561694935E-01  0.23591805391E-01  0.00000000000E+00 0. -1.
     999901    1    3    3    0    0 -0.16293594375E-01  0.86836428763E-01 -0.11452189960E+00  0.89180788966E+00  0.88000000000E+00 0. -1.
        -11    1    4    4    0    0 -0.90318888816E-03 -0.52947373239E-02  0.14068675271E-01  0.15067804697E-01  0.51100000000E-03 0. -1.
         11    1    4    4    0    0  0.16052728238E-01 -0.81874785282E-01  0.76891529394E-01  0.11346250025E+00  0.51100000000E-03 0.  1.
</event>
<event>
 8    1  0.1128641E+005  0.1043930E+01  0.7957747E-01            NaN
         13   -1    0    0    0    0  0.00000000000E+00  0.00000000000E+00  0.74505805969E-08  0.10566000000E+00  0.10566000000E+00 0. -1.
     999900   -1    0    0    0    0 -0.00000000000E+00 -0.00000000000E+00 -0.74505805969E-08  0.93827000000E+00  0.93827000000E+00 0. -1.
     999902    2    1    2    0    0  0.24524271281E-03  0.15105605598E-01 -0.18016038442E-01  0.10204179370E+01  0.10201470233E+01 0.  0.
     999903    2    3    3    0    0  0.11854761467E+00 -0.44044759328E-01  0.21268287736E-01  0.12966686339E+00  0.19174921894E-01 0.  0.
         14    1    1    2    0    0 -0.24524271281E-03 -0.15105605598E-01  0.18016038442E-01  0.23512062981E-01  0.00000000000E+00 0. -1.
     999901    1    3    3    0    0 -0.11830237196E+00  0.59150364926E-01 -0.39284326178E-01  0.89075107363E+00  0.88000000000E+00 0.  1.
        -11    1    4    4    0    0  0.44499650418E-01 -0.89483646866E-02  0.13475854259E-01  0.47351366262E-01  0.51100000000E-03 0.  1.
         11    1    4    4    0    0  0.74047964257E-01 -0.35096394641E-01  0.77924334768E-02  0.82315497131E-01  0.51100000000E-03 0. -1.
</event>
<event>
 8    1  0.1128641E+005  0.1043930E+01  0.7957747E-01            NaN
         13   -1    0    0    0    0  0.00000000000E+00  0.00000000000E+00  0.74505805969E-08  0.10566000000E+00  0.10566000000E+00 0.  1.
     999900   -1    0    0    0    0 -0.00000000000E+00 -0.00000000000E+00 -0.74505805969E-08  0.93827000000E+00  0.93827000000E+00 0.  1.
     999902    2    1    2    0    0  0.11782595777E-01 -0.16876315190E-01 -0.11906533980E-01  0.10201517509E+01  0.10198745951E+01 0.  0.
     999903    2    3    3    0    0  0.50272213132E-01 -0.88469477761E-01  0.80883731025E-01  0.13154775316E+00  0.20211123356E-01 0.  0.
         14    1    1    2    0    0 -0.11782595777E-01  0.16876315190E-01  0.11906533980E-01  0.23778249075E-01  0.00000000000E+00 0.  1.
     999901    1    3    3    0    0 -0.38489617355E-01  0.71593162571E-01 -0.92790265006E-01  0.88860399777E+00  0.88000000000E+00 0.  1.
        -11    1    4    4    0    0  0.27983216329E-01 -0.64356974130E-01  0.62131627908E-01  0.93730895775E-01  0.51100000000E-03 0.  1.
         11    1    4    4    0    0  0.22288996804E-01 -0.24112503632E-01  0.18752103117E-01  0.37816857382E-01  0.51100000000E-03 0. -1.
</event>
<event>
 8    1  0.1128641E+005  0.1043930E+01  0.7957747E-01            NaN
         13   -1    0    0    0    0  0.00000000000E+00  0.00000000000E+00  0.74505805969E-08  0.10566000000E+00  0.10566000000E+00 0.  1.
     999900   -1    0    0    0    0 -0.00000000000E+00 -0.00000000000E+00 -0.74505805969E-08  0.93827000000E+00  0.93827000000E+00 0.  1.
     999902    2    1    2    0    0 -0.21432975852E-01  0.39023689143E-02  0.65315604123E-02  0.10211866006E+01  0.10209333039E+01 0.  0.
     999903    2    3    3    0    0  0.60779548718E-01 -0.79715948396E-01 -0.79792941529E-01  0.12922088270E+00  0.16802887769E-01 0.  0.
         14    1    1    2    0    0  0.21432975852E-01 -0.39023689143E-02 -0.65315604123E-02  0.22743399447E-01  0.00000000000E+00 0. -1.
     999901    1    3    3    0    0 -0.82212524569E-01  0.83618317311E-01  0.86324501941E-01  0.89196571785E+00  0.88000000000E+00 0.  1.
        -11    1    4    4    0    0  0.51004506223E-01 -0.57372540132E-01 -0.65735952726E-01  0.10106703032E+00  0.51100000000E-03 0.  1.
         11    1    4    4    0    0  0.97750424948E-02 -0.22343408265E-01 -0.14056988803E-01  0.28153852381E-01  0.51100000000E-03 0. -1.
</event>
<event>
 8    1  0.1128641E+005  0.1043930E+01  0.7957747E-01            NaN
         13   -1    0    0    0    0  0.00000000000E+00  0.00000000000E+00  0.74505805969E-08  0.10566000000E+00  0.10566000000E+00 0. -1.
     999900   -1    0    0    0    0 -0.00000000000E+00 -0.00000000000E+00 -0.74505805969E-08  0.93827000000E+00  0.93827000000E+00 0.  1.
     999902    2    1    2    0    0 -0.16247176868E-01  0.46934570418E-02  0.17605053443E-01  0.10195181750E+01  0.10192258689E+01 0.  0.
     999903    2    3    3    0    0 -0.39891939211E-02  0.12738736720E+00 -0.15284232961E-01  0.13031304739E+00  0.22459464659E-01 0.  0.
         14    1    1    2    0    0  0.16247176868E-01 -0.46934570418E-02 -0.17605053443E-01  0.24411825043E-01  0.00000000000E+00 0.  1.
     999901    1    3    3    0    0 -0.12257982947E-01 -0.12269391016E+00  0.32889286404E-01  0.88920512757E+00  0.88000000000E+00 0.  1.
        -11    1    4    4    0    0  0.64698856650E-02  0.97101937489E-01 -0.99257751244E-02  0.97823452287E-01  0.51100000000E-03 0.  1.
         11    1    4    4    0    0 -0.10459079586E-01  0.30285429708E-01 -0.53584578371E-02  0.32489595101E-01  0.51100000000E-03 0. -1.
</event>
<event>
 8    1  0.1128641E+005  0.1043930E+01  0.7957747E-01            NaN
         13   -1    0    0    0    0  0.00000000000E+00  0.00000000000E+00  0.74505805969E-08  0.10566000000E+00  0.10566000000E+00 0. -1.
     999900   -1    0    0    0    0 -0.00000000000E+00 -0.00000000000E+00 -0.74505805969E-08  0.93827000000E+00  0.93827000000E+00 0.  1.
     999902    2    1    2    0    0 -0.14895586955E-01  0.17631013585E-01  0.65171806104E-02  0.10199465725E+01  0.10196645556E+01 0.  0.
     999903    2    3    3    0    0  0.12656261856E-01 -0.11376917278E+00 -0.53249762514E-01  0.12775982029E+00  0.19581338920E-01 0.  0.
         14    1    1    2    0    0  0.14895586955E-01 -0.17631013585E-01 -0.65171806104E-02  0.23983427484E-01  0.00000000000E+00 0. -1.
     999901    1    3    3    0    0 -0.27551848812E-01  0.13140018637E+00  0.59766943124E-01  0.89218675222E+00  0.88000000000E+00 0. -1.
        -11    1    4    4    0    0 -0.12054041794E-02 -0.51981485403E-01 -0.31542456919E-01  0.60817066136E-01  0.51100000000E-03 0. -1.
         11    1    4    4    0    0  0.13861666036E-01 -0.61787687379E-01 -0.21707305595E-01  0.66942754157E-01  0.51100000000E-03 0.  1.
</event>
<event>
 8    1  0.1128641E+005  0.1043930E+01  0.7957747E-01            NaN
         13   -1    0    0    0    0  0.00000000000E+00  0.00000000000E+00  0.74505805969E-08  0.10566000000E+00  0.10566000000E+00 0.  1.
     999900   -1    0    0    0    0 -0.00000000000E+00 -0.00000000000E+00 -0.74505805969E-08  0.93827000000E+00  0.93827000000E+00 0. -1.
     999902    2    1    2    0    0  0.10508096886E-01  0.19560626999E-01  0.82652990368E-02  0.10202371024E+01  0.10199619560E+01 0.  0.
     999903    2    3    3    0    0  0.12665307134E+00 -0.21053576375E-01  0.20725949308E-01  0.13158957024E+00  0.20049849423E-01 0.  0.
         14    1    1    2    0    0 -0.10508096886E-01 -0.19560626999E-01 -0.82652990368E-02  0.23692897605E-01  0.00000000000E+00 0.  1.
     999901    1    3    3    0    0 -0.11614497445E+00  0.40614203374E-01 -0.12460650271E-01  0.88864753216E+00  0.88000000000E+00 0.  1.
        -11    1    4    4    0    0  0.10716428577E-01  0.35709891340E-02  0.33895385892E-02  0.11804401623E-01  0.51100000000E-03 0. -1.
         11    1    4    4    0    0  0.11593664276E+00 -0.24624565509E-01  0.17336410719E-01  0.11978516861E+00  0.51100000000E-03 0.  1.
</event>
<event>
 8    1  0.1128641E+005  0.1043930E+01  0.7957747E-01            NaN
         13   -1    0    0    0    0  0.00000000000E+00  0.00000000000E+00  0.74505805969E-08  0.10566000000E+00  0.10566000000E+00 0.  1.
     999900   -1    0    0    0    0 -0.00000000000E+00 -0.00000000000E+00 -0.74505805969E-08  0.93827000000E+00  0.93827000000E+00 0.  1.
     999902    2    1    2    0    0 -0.14151762458E-01  0.19184994943E-01  0.25286030028E-02  0.10199564678E+01  0.10196746864E+01 0.  0.
     999903    2    3    3    0    0 -0.10043275789E+00  0.33934474981E-02 -0.82409854362E-01  0.13152620907E+00  0.20236235640E-01 0.  0.
         14    1    1    2    0    0  0.14151762458E-01 -0.19184994943E-01 -0.25286030028E-02  0.23973532172E-01  0.00000000000E+00 0. -1.
     999901    1    3    3    0    0  0.86280995430E-01  0.15791547445E-01  0.84938457365E-01  0.88843025876E+00  0.88000000000E+00 0.  1.
        -11    1    4    4    0    0 -0.44859681541E-01  0.69481575027E-02 -0.47981972462E-01  0.66054513267E-01  0.51100000000E-03 0.  1.
         11    1    4    4    0    0 -0.55573076346E-01 -0.35547100045E-02 -0.34427881900E-01  0.65471695800E-01  0.51100000000E-03 0. -1.
</event>
<event>
 8    1  0.1128641E+005  0.1043930E+01  0.7957747E-01            NaN
         13   -1    0    0    0    0  0.00000000000E+00  0.00000000000E+00  0.74505805969E-08  0.10566000000E+00  0.10566000000E+00 0.  1.
     999900   -1    0    0    0    0 -0.00000000000E+00 -0.00000000000E+00 -0.74505805969E-08  0.93827000000E+00  0.93827000000E+00 0. -1.
     999902    2    1    2    0    0 -0.18272081968E-01 -0.14294263725E-01  0.42099388079E-02  0.10203520752E+01  0.10200796237E+01 0.  0.
     999903    2    3    3    0    0 -0.10995905724E-01 -0.11328471614E+00 -0.64016019622E-01  0.13214780034E+00  0.20264587677E-01 0.  0.
         14    1    1    2    0    0  0.18272081968E-01  0.14294263725E-01 -0.42099388079E-02  0.23577924838E-01  0.00000000000E+00 0. -1.
     999901    1    3    3    0    0 -0.72761762442E-02  0.98990452411E-01  0.68225958430E-01  0.88820427482E+00  0.88000000000E+00 0. -1.
        -11    1    4    4    0    0 -0.49507156966E-02 -0.88629736693E-02 -0.14549849870E-02  0.10268397659E-01  0.51100000000E-03 0. -1.
         11    1    4    4    0    0 -0.60451900273E-02 -0.10442174247E+00 -0.62561034635E-01  0.12187940268E+00  0.51100000000E-03 0.  1.
</event>
<event>
 8    1  0.1128641E+005  0.1043930E+01  0.7957747E-01            NaN
         13   -1    0    0    0    0  0.00000000000E+00  0.00000000000E+00  0.74505805969E-08  0.10566000000E+00  0.10566000000E+00 0.  1.
     999900   -1    0    0    0    0 -0.00000000000E+00 -0.00000000000E+00 -0.74505805969E-08  0.93827000000E+00  0.93827000000E+00 0. -1.
     999902    2    1    2    0    0  0.14628433452E-01 -0.19109583079E-01  0.16436646370E-02  0.10198080419E+01  0.10195227184E+01 0.  0.
     999903    2    3    3    0    0 -0.84154658951E-02  0.10729846219E+00  0.66522112082E-01  0.12811345954E+00  0.20101916932E-01 0.  0.
         14    1    1    2    0    0 -0.14628433452E-01  0.19109583079E-01 -0.16436646370E-02  0.24121958132E-01  0.00000000000E+00 0.  1.
     999901    1    3    3    0    0  0.23043899347E-01 -0.12640804527E+00 -0.64878447445E-01  0.89169458233E+00  0.88000000000E+00 0.  1.
        -11    1    4    4    0    0  0.18251876937E-02  0.71553008945E-01  0.50621861142E-01  0.87669825743E-01  0.51100000000E-03 0.  1.
         11    1    4    4    0    0 -0.10240653589E-01  0.35745453249E-01  0.15900250940E-01  0.40443633799E-01  0.51100000000E-03 0. -1.
</event>
<event>
 8    1  0.1128641E+005  0.1043930E+01  0.7957747E-01            NaN
         13   -1    0    0    0    0  0.00000000000E+00  0.00000000000E+00  0.74505805969E-08  0.10566000000E+00  0.10566000000E+00 0.  1.
     999900   -1    0    0    0    0 -0.00000000000E+00 -0.00000000000E+00 -0.74505805969E-08  0.93827000000E+00  0.93827000000E+00 0. -1.
     999902    2    1    2    0    0  0.85083504863E-02 -0.12265936427E-01 -0.17773498356E-01  0.10207191735E+01  0.10204552360E+01 0.  0.
     999903    2    3    3    0    0 -0.12580526166E+00 -0.22721796284E-01 -0.15903433246E-01  0.13046473312E+00  0.20612702682E-01 0.  0.
         14    1    1    2    0    0 -0.85083504863E-02  0.12265936427E-01  0.17773498356E-01  0.23210826531E-01  0.00000000000E+00 0.  1.
     999901    1    3    3    0    0  0.13431361215E+00  0.10455859856E-01 -0.18700651101E-02  0.89025444035E+00  0.88000000000E+00 0.  1.
        -11    1    4    4    0    0 -0.78357300576E-01 -0.62196586678E-02 -0.16044646614E-01  0.80226195931E-01  0.51100000000E-03 0.  1.
         11    1    4    4    0    0 -0.47447961084E-01 -0.16502137616E-01  0.14121336792E-03  0.50238537191E-01  0.51100000000E-03 0. -1.
</event>
<event>
 8    1  0.1128641E+005  0.1043930E+01  0.7957747E-01            NaN
         13   -1    0    0    0    0  0.00000000000E+00  0.00000000000E+00  0.74505805969E-08  0.10566000000E+00  0.10566000000E+00 0. -1.
     999900   -1    0    0    0    0 -0.00000000000E+00 -0.00000000000E+00 -0.74505805969E-08  0.93827000000E+00  0.93827000000E+00 0.  1.
     999902    2    1    2    0    0  0.15999087016E-01 -0.17040341807E-01  0.14038873314E-02  0.10205138745E+01  0.10202451926E+01 0.  0.
     999903    2    3    3    0    0  0.91808533413E-01 -0.17358144792E-01  0.92001842784E-01  0.13262020817E+00  0.19841082151E-01 0.  0.
         14    1    1    2    0    0 -0.15999087016E-01  0.17040341807E-01 -0.14038873314E-02  0.23416125510E-01  0.00000000000E+00 0.  1.
     999901    1    3    3    0    0 -0.75809446397E-01  0.31780298450E-03 -0.90597955453E-01  0.88789366632E+00  0.88000000000E+00 0.  1.
        -11    1    4    4    0    0  0.67645307199E-01 -0.17164183234E-01  0.57133241907E-01  0.90194042064E-01  0.51100000000E-03 0. -1.
         11    1    4    4    0    0  0.24163226214E-01 -0.19396155828E-03  0.34868600878E-01  0.42426166104E-01  0.51100000000E-03 0.  1.
</event>
<event>
 8    1  0.1128641E+005  0.1043930E+01  0.7957747E-01            NaN
         13   -1    0    0    0    0  0.00000000000E+00  0.00000000000E+00  0.74505805969E-08  0.10566000000E+00  0.10566000000E+00 0.  1.
     999900   -1    0    0    0    0 -0.00000000000E+00 -0.00000000000E+00 -0.74505805969E-08  0.93827000000E+00  0.93827000000E+00 0.  1.
     999902    2    1    2    0    0 -0.12918080317E-01 -0.15811435763E-01  0.12792056073E-01  0.10198361211E+01  0.10195514695E+01 0.  0.
     999903    2    3    3    0    0 -0.35168212978E-01  0.10437131892E+00  0.65258662707E-01  0.12984077973E+00  0.21673938365E-01 0.  0.
         14    1    1    2    0    0  0.12918080317E-01  0.15811435763E-01 -0.12792056073E-01  0.24093878860E-01  0.00000000000E+00 0. -1.
     999901    1    3    3    0    0  0.22250132662E-01 -0.12018275468E+00 -0.52466606634E-01  0.88999534141E+00  0.88000000000E+00 0.  1.
        -11    1    4    4    0    0 -0.12435378072E-01  0.46861355520E-01  0.16937766299E-01  0.51359267101E-01  0.51100000000E-03 0.  1.
         11    1    4    4    0    0 -0.22732834906E-01  0.57509963400E-01  0.48320896408E-01  0.78481512625E-01  0.51100000000E-03 0. -1.
</event>
<event>
 8    1  0.1358541E+005  0.1043930E+01  0.7957747E-01            NaN
         13   -1    0    0    0    0  0.00000000000E+00  0.00000000000E+00  0.74505805969E-08  0.10566000000E+00  0.10566000000E+00 0. -1.
     999900   -1    0    0    0    0 -0.00000000000E+00 -0.00000000000E+00 -0.74505805969E-08  0.93827000000E+00  0.93827000000E+00 0. -1.
     999902    2    1    2    0    0 -0.70439033806E-02 -0.16185898689E-01  0.15905430045E-01  0.10201690531E+01  0.10198923053E+01 0.  0.
     999903    2    3    3    0    0 -0.93108199113E-01 -0.26605232720E-01 -0.84017486816E-01  0.13028129907E+00  0.23179811152E-01 0.  0.
         14    1    1    2    0    0  0.70439033806E-02  0.16185898689E-01 -0.15905430045E-01  0.23760946869E-01  0.00000000000E+00 0.  1.
     999901    1    3    3    0    0  0.86064295733E-01  0.10419334030E-01  0.99922916861E-01  0.88988775407E+00  0.88000000000E+00 0.  1.
        -11    1    4    4    0    0 -0.65626939659E-01 -0.25428437091E-01 -0.49048964461E-01  0.85787893421E-01  0.51100000000E-03 0.  1.
         11    1    4    4    0    0 -0.27481259454E-01 -0.11767956287E-02 -0.34968522355E-01  0.44493405644E-01  0.51100000000E-03 0. -1.
</event>
<event>
 8    1  0.1128641E+005  0.1043930E+01  0.7957747E-01            NaN
         13   -1    0    0    0    0  0.00000000000E+00  0.00000000000E+00  0.74505805969E-08  0.10566000000E+00  0.10566000000E+00 0. -1.
     999900   -1    0    0    0    0 -0.00000000000E+00 -0.00000000000E+00 -0.74505805969E-08  0.93827000000E+00  0.93827000000E+00 0.  1.
     999902    2    1    2    0    0  0.14834639979E-01 -0.19291308095E-01  0.84264905635E-02  0.10181768088E+01  0.10178510634E+01 0.  0.
     999903    2    3    3    0    0 -0.10583985852E-01  0.11694295728E+00 -0.41018762369E-01  0.12596006688E+00  0.19892801940E-01 0.  0.
         14    1    1    2    0    0 -0.14834639979E-01  0.19291308095E-01 -0.84264905635E-02  0.25753191152E-01  0.00000000000E+00 0.  1.
     999901    1    3    3    0    0  0.25418625831E-01 -0.13623426538E+00  0.49445252933E-01  0.89221674196E+00  0.88000000000E+00 0.  1.
        -11    1    4    4    0    0 -0.78423841845E-02  0.99689113685E-01 -0.27067649530E-01  0.10359701322E+00  0.51100000000E-03 0. -1.
         11    1    4    4    0    0 -0.27416016674E-02  0.17253843597E-01 -0.13951112839E-01  0.22363053660E-01  0.51100000000E-03 0.  1.
</event>
<event>
 8    1  0.1128641E+005  0.1043930E+01  0.7957747E-01            NaN
         13   -1    0    0    0    0  0.00000000000E+00  0.00000000000E+00  0.74505805969E-08  0.10566000000E+00  0.10566000000E+00 0.  1.
     999900   -1    0    0    0    0 -0.00000000000E+00 -0.00000000000E+00 -0.74505805969E-08  0.93827000000E+00  0.93827000000E+00 0. -1.
     999902    2    1    2    0    0 -0.14705112844E-01  0.18167063761E-02  0.17733994395E-01  0.10208207957E+01  0.10205591907E+01 0.  0.
     999903    2    3    3    0    0  0.47036600782E-01  0.27980911126E-01 -0.11445512691E+00  0.12842482496E+00  0.19939568438E-01 0.  0.
         14    1    1    2    0    0  0.14705112844E-01 -0.18167063761E-02 -0.17733994395E-01  0.23109204292E-01  0.00000000000E+00 0. -1.
     999901    1    3    3    0    0 -0.61741713626E-01 -0.26164204750E-01  0.13218912131E+00  0.89239597075E+00  0.88000000000E+00 0.  1.
        -11    1    4    4    0    0  0.59842472137E-02  0.76159540991E-02 -0.38604056138E-01  0.39803872210E-01  0.51100000000E-03 0.  1.
         11    1    4    4    0    0  0.41052353569E-01  0.20364957027E-01 -0.75851070773E-01  0.88620952752E-01  0.51100000000E-03 0. -1.
</event>
<event>
 8    1  0.1128641E+005  0.1043930E+01  0.7957747E-01            NaN
         13   -1    0    0    0    0  0.00000000000E+00  0.00000000000E+00  0.74505805969E-08  0.10566000000E+00  0.10566000000E+00 0. -1.
     999900   -1    0    0    0    0 -0.00000000000E+00 -0.00000000000E+00 -0.74505805969E-08  0.93827000000E+00  0.93827000000E+00 0. -1.
     999902    2    1    2    0    0 -0.16657542266E-01 -0.81225129512E-02 -0.13965900587E-01  0.10207244983E+01  0.10204606833E+01 0.  0.
     999903    2    3    3    0    0  0.12192392907E+00  0.27750380891E-01 -0.24765221911E-01  0.12909211099E+00  0.20394332163E-01 0.  0.
         14    1    1    2    0    0  0.16657542266E-01  0.81225129512E-02  0.13965900587E-01  0.23205501723E-01  0.00000000000E+00 0. -1.
     999901    1    3    3    0    0 -0.13858147134E+00 -0.35872893842E-01  0.10799321324E-01  0.89163238728E+00  0.88000000000E+00 0.  1.
        -11    1    4    4    0    0  0.30709570075E-01  0.15505313630E-01 -0.10403894675E-01  0.35944326261E-01  0.51100000000E-03 0.  1.
         11    1    4    4    0    0  0.91214358998E-01  0.12245067261E-01 -0.14361327237E-01  0.93147784733E-01  0.51100000000E-03 0. -1.
</event>
<event>
 8    1  0.1128641E+005  0.1043930E+01  0.7957747E-01            NaN
         13   -1    0    0    0    0  0.00000000000E+00  0.00000000000E+00  0.74505805969E-08  0.10566000000E+00  0.10566000000E+00 0.  1.
     999900   -1    0    0    0    0 -0.00000000000E+00 -0.00000000000E+00 -0.74505805969E-08  0.93827000000E+00  0.93827000000E+00 0. -1.
     999902    2    1    2    0    0 -0.41120474867E-02 -0.21290152240E-01 -0.89293055849E-02  0.10204797971E+01  0.10202103236E+01 0.  0.
     999903    2    3    3    0    0  0.71873925198E-01  0.51523283242E-01  0.91112011990E-01  0.12858073912E+00  0.20275549436E-01 0.  0.
         14    1    1    2    0    0  0.41120474867E-02  0.21290152240E-01  0.89293055849E-02  0.23450202881E-01  0.00000000000E+00 0.  1.
     999901    1    3    3    0    0 -0.75985972685E-01 -0.72813435483E-01 -0.10004131758E+00  0.89189905800E+00  0.88000000000E+00 0. -1.
        -11    1    4    4    0    0  0.51469545581E-01  0.42182069794E-01  0.78205760820E-01  0.10268808734E+00  0.51100000000E-03 0.  1.
         11    1    4    4    0    0  0.20404379617E-01  0.93412134483E-02  0.12906251171E-01  0.25892651786E-01  0.51100000000E-03 0. -1.
</event>
<event>
 8    1  0.1128641E+005  0.1043930E+01  0.7957747E-01            NaN
         13   -1    0    0    0    0  0.00000000000E+00  0.00000000000E+00  0.74505805969E-08  0.10566000000E+00  0.10566000000E+00 0. -1.
     999900   -1    0    0    0    0 -0.00000000000E+00 -0.00000000000E+00 -0.74505805969E-08  0.93827000000E+00  0.93827000000E+00 0.  1.
     999902    2    1    2    0    0  0.86369703596E-02 -0.81463881486E-02 -0.20165516100E-01  0.10205289544E+01  0.10202606225E+01 0.  0.
     999903    2    3    3    0    0  0.53898172189E-01  0.49967666764E-01 -0.10918152529E+00  0.13297632514E+00  0.18982015033E-01 0.  0.
         14    1    1    2    0    0 -0.86369703596E-02  0.81463881486E-02  0.20165516100E-01  0.23401045627E-01  0.00000000000E+00 0. -1.
     999901    1    3    3    0    0 -0.45261201829E-01 -0.58114054912E-01  0.89016009194E-01  0.88755262924E+00  0.88000000000E+00 0. -1.
        -11    1    4    4    0    0  0.46746782594E-01  0.32532921955E-01 -0.78980651286E-01  0.97374827817E-01  0.51100000000E-03 0.  1.
         11    1    4    4    0    0  0.71513895944E-02  0.17434744809E-01 -0.30200874008E-01  0.35601497321E-01  0.51100000000E-03 0. -1.
</event>
<event>
 8    1  0.1128641E+005  0.1043930E+01  0.7957747E-01            NaN
         13   -1    0    0    0    0  0.00000000000E+00  0.00000000000E+00  0.74505805969E-08  0.10566000000E+00  0.10566000000E+00 0. -1.
     999900   -1    0    0    0    0 -0.00000000000E+00 -0.00000000000E+00 -0.74505805969E-08  0.93827000000E+00  0.93827000000E+00 0. -1.
     999902    2    1    2    0    0  0.34212264481E-02 -0.22708233908E-01  0.57315220787E-02  0.10202610536E+01  0.10199864698E+01 0.  0.
     999903    2    3    3    0    0 -0.65491317425E-02  0.11420832294E+00  0.56029211752E-01  0.12819860672E+00  0.14462988593E-01 0.  0.
         14    1    1    2    0    0 -0.34212264481E-02  0.22708233908E-01 -0.57315220787E-02  0.23668946385E-01  0.00000000000E+00 0.  1.
     999901    1    3    3    0    0  0.99703581907E-02 -0.13691655685E+00 -0.50297689674E-01  0.89206244690E+00  0.88000000000E+00 0. -1.
        -11    1    4    4    0    0 -0.43057140058E-02  0.83059441957E-02  0.50102263650E-02  0.10625035120E-01  0.51100000000E-03 0.  1.
         11    1    4    4    0    0 -0.22434177367E-02  0.10590237874E+00  0.51018985387E-01  0.11757357160E+00  0.51100000000E-03 0. -1.
</event>
<event>
 8    1  0.1128641E+005  0.1043930E+01  0.7957747E-01            NaN
         13   -1    0    0    0    0  0.00000000000E+00  0.00000000000E+00  0.74505805969E-08  0.10566000000E+00  0.10566000000E+00 0. -1.
     999900   -1    0    0    0    0 -0.00000000000E+00 -0.00000000000E+00 -0.74505805969E-08  0.93827000000E+00  0.93827000000E+00 0. -1.
     999902    2    1    2    0    0  0.29537683885E-03  0.35881263357E-02 -0.23638316052E-01  0.10200190844E+01  0.10197387904E+01 0.  0.
     999903    2    3    3    0    0  0.39483633617E-01  0.10888945369E+00  0.54330833943E-01  0.12945562382E+00  0.19774948122E-01 0.  0.
         14    1    1    2    0    0 -0.29537683885E-03 -0.35881263357E-02  0.23638316052E-01  0.23910915579E-01  0.00000000000E+00 0. -1.
     999901    1    3    3    0    0 -0.39188256778E-01 -0.10530132735E+00 -0.77969149995E-01  0.89056346060E+00  0.88000000000E+00 0. -1.
        -11    1    4    4    0    0  0.21083024310E-01  0.42728731906E-01  0.13353684689E-01  0.49485558097E-01  0.51100000000E-03 0.  1.
         11    1    4    4    0    0  0.18400609308E-01  0.66160721780E-01  0.40977149254E-01  0.79970065721E-01  0.51100000000E-03 0. -1.
</event>
<event>
 8    1  0.1128641E+005  0.1043930E+01  0.7957747E-01            NaN
         13   -1    0    0    0    0  0.00000000000E+00  0.00000000000E+00  0.74505805969E-08  0.10566000000E+00  0.10566000000E+00 0. -1.
     999900   -1    0    0    0    0 -0.00000000000E+00 -0.00000000000E+00 -0.74505805969E-08  0.93827000000E+00  0.93827000000E+00 0. -1.
     999902    2    1    2    0    0 -0.23719886379E-01  0.94677200272E-02  0.11443005553E-02  0.10183647862E+01  0.10180438388E+01 0.  0.
     999903    2    3    3    0    0  0.95345445149E-02 -0.10716894795E+00 -0.65410931048E-01  0.12755640707E+00  0.20395002806E-01 0.  0.
         14    1    1    2    0    0  0.23719886379E-01 -0.94677200272E-02 -0.11443005553E-02  0.25565213789E-01  0.00000000000E+00 0. -1.
     999901    1    3    3    0    0 -0.33254430894E-01  0.11663666798E+00  0.66555231603E-01  0.89080837914E+00  0.88000000000E+00 0.  1.
        -11    1    4    4    0    0 -0.56202617711E-02 -0.37333587028E-01 -0.27062731024E-01  0.46454672469E-01  0.51100000000E-03 0.  1.
         11    1    4    4    0    0  0.15154806286E-01 -0.69835360926E-01 -0.38348200024E-01  0.81101734601E-01  0.51100000000E-03 0. -1.
</event>
<event>
 8    1  0.1310823E+005  0.1043930E+01  0.7957747E-01            NaN
         13   -1    0    0    0    0  0.00000000000E+00  0.00000000000E+00  0.74505805969E-08  0.10566000000E+00  0.10566000000E+00 0.  1.
     999900   -1    0    0    0    0 -0.00000000000E+00 -0.00000000000E+00 -0.74505805969E-08  0.93827000000E+00  0.93827000000E+00 0. -1.
     999902    2    1    2    0    0 -0.17763027395E-01 -0.16674329538E-01  0.28564409314E-02  0.10194000660E+01  0.10191048900E+01 0.  0.
     999903    2    3    3    0    0  0.11820411605E+00 -0.14186074077E-01 -0.42774824834E-01  0.12778609799E+00  0.18059442152E-01 0.  0.
         14    1    1    2    0    0  0.17763027395E-01  0.16674329538E-01 -0.28564409314E-02  0.24529934010E-01  0.00000000000E+00 0.  1.
     999901    1    3    3    0    0 -0.13596714345E+00 -0.24882554610E-02  0.45631265766E-01  0.89161396800E+00  0.88000000000E+00 0.  1.
        -11    1    4    4    0    0  0.48559671186E-01 -0.11795386281E-01 -0.10871766896E-01  0.51143222813E-01  0.51100000000E-03 0. -1.
         11    1    4    4    0    0  0.69644444867E-01 -0.23906877961E-02 -0.31903057938E-01  0.76642875179E-01  0.51100000000E-03 0.  1.
</event>
<event>
 8    1  0.1128641E+005  0.1043930E+01  0.7957747E-01            NaN
         13   -1    0    0    0    0  0.00000000000E+00  0.00000000000E+00  0.74505805969E-08  0.10566000000E+00  0.10566000000E+00 0. -1.
     999900   -1    0    0    0    0 -0.00000000000E+00 -0.00000000000E+00 -0.74505805969E-08  0.93827000000E+00  0.93827000000E+00 0. -1.
     999902    2    1    2    0    0  0.66116294770E-02 -0.91764619226E-02  0.21341934808E-01  0.10197763403E+01  0.10194902574E+01 0.  0.
     999903    2    3    3    0    0 -0.18683839123E-01  0.12164394097E-01 -0.12371682849E+00  0.12728693546E+00  0.19976284916E-01 0.  0.
         14    1    1    2    0    0 -0.66116294770E-02  0.91764619226E-02 -0.21341934808E-01  0.24153659745E-01  0.00000000000E+00 0.  1.
     999901    1    3    3    0    0  0.25295468599E-01 -0.21340856020E-01  0.14505876329E+00  0.89248940480E+00  0.88000000000E+00 0.  1.
        -11    1    4    4    0    0 -0.18928810020E-01  0.23588161696E-02 -0.96082220835E-01  0.97958757363E-01  0.51100000000E-03 0. -1.
         11    1    4    4    0    0  0.24497089787E-03  0.98055779274E-02 -0.27634607652E-01  0.29328178094E-01  0.51100000000E-03 0.  1.
</event>
<event>
 8    1  0.1128641E+005  0.1043930E+01  0.7957747E-01            NaN
         13   -1    0    0    0    0  0.00000000000E+00  0.00000000000E+00  0.74505805969E-08  0.10566000000E+00  0.10566000000E+00 0. -1.
     999900   -1    0    0    0    0 -0.00000000000E+00 -0.00000000000E+00 -0.74505805969E-08  0.93827000000E+00  0.93827000000E+00 0. -1.
     999902    2    1    2    0    0 -0.13343637155E-01 -0.55172733490E-02  0.19346091486E-01  0.10197894902E+01  0.10195037225E+01 0.  0.
     999903    2    3    3    0    0  0.26271327265E-02  0.98684856091E-01  0.83850332110E-01  0.13115348692E+00  0.20609616378E-01 0.  0.
         14    1    1    2    0    0  0.13343637155E-01  0.55172733490E-02 -0.19346091486E-01  0.24140509802E-01  0.00000000000E+00 0.  1.
     999901    1    3    3    0    0 -0.15970769881E-01 -0.10420212944E+00 -0.64504240624E-01  0.88863600328E+00  0.88000000000E+00 0. -1.
        -11    1    4    4    0    0 -0.23277707216E-02  0.51890769362E-01  0.31450490037E-01  0.60724500048E-01  0.51100000000E-03 0. -1.
         11    1    4    4    0    0  0.49549034480E-02  0.46794086729E-01  0.52399842073E-01  0.70428986868E-01  0.51100000000E-03 0.  1.
</event>
<event>
 8    1  0.1128641E+005  0.1043930E+01  0.7957747E-01            NaN
         13   -1    0    0    0    0  0.00000000000E+00  0.00000000000E+00  0.74505805969E-08  0.10566000000E+00  0.10566000000E+00 0.  1.
     999900   -1    0    0    0    0 -0.00000000000E+00 -0.00000000000E+00 -0.74505805969E-08  0.93827000000E+00  0.93827000000E+00 0.  1.
     999902    2    1    2    0    0 -0.21567000800E-01 -0.66686085702E-02 -0.78967345973E-02  0.10200142253E+01  0.10197338160E+01 0.  0.
     999903    2    3    3    0    0 -0.18570192232E-01 -0.12424896757E+00 -0.33890304546E-01  0.13180828779E+00  0.21028885065E-01 0.  0.
         14    1    1    2    0    0  0.21567000800E-01  0.66686085702E-02  0.78967345973E-02  0.23915774732E-01  0.00000000000E+00 0. -1.
     999901    1    3    3    0    0 -0.29968085672E-02  0.11758035900E+00  0.25993569948E-01  0.88820593747E+00  0.88000000000E+00 0.  1.
        -11    1    4    4    0    0 -0.64196109762E-02 -0.80104885409E-01 -0.12724912569E-01  0.81364541370E-01  0.51100000000E-03 0. -1.
         11    1    4    4    0    0 -0.12150581256E-01 -0.44144082162E-01 -0.21165391977E-01  0.50443746425E-01  0.51100000000E-03 0.  1.
</event>
<event>
 8    1  0.1128641E+005  0.1043930E+01  0.7957747E-01            NaN
         13   -1    0    0    0    0  0.00000000000E+00  0.00000000000E+00  0.74505805969E-08  0.10566000000E+00  0.10566000000E+00 0.  1.
     999900   -1    0    0    0    0 -0.00000000000E+00 -0.00000000000E+00 -0.74505805969E-08  0.93827000000E+00  0.93827000000E+00 0. -1.
     999902    2    1    2    0    0 -0.76490760986E-02 -0.71029829443E-02 -0.20574995056E-01  0.10208585641E+01  0.10205978232E+01 0.  0.
     999903    2    3    3    0    0  0.11888778343E+00  0.48109704123E-01 -0.75699867231E-02  0.12999990649E+00  0.19844956765E-01 0.  0.
         14    1    1    2    0    0  0.76490760986E-02  0.71029829443E-02  0.20574995056E-01  0.23071435877E-01  0.00000000000E+00 0.  1.
     999901    1    3    3    0    0 -0.12653685953E+00 -0.55212687067E-01 -0.13005008333E-01  0.89085865763E+00  0.88000000000E+00 0. -1.
        -11    1    4    4    0    0  0.36699901204E-01  0.22655781231E-01 -0.84601429908E-02  0.43954548251E-01  0.51100000000E-03 0. -1.
         11    1    4    4    0    0  0.82187882228E-01  0.25453922892E-01  0.89015626774E-03  0.86045358242E-01  0.51100000000E-03 0.  1.
</event>
<event>
 8    1  0.1128641E+005  0.1043930E+01  0.7957747E-01            NaN
         13   -1    0    0    0    0  0.00000000000E+00  0.00000000000E+00  0.74505805969E-08  0.10566000000E+00  0.10566000000E+00 0. -1.
     999900   -1    0    0    0    0 -0.00000000000E+00 -0.00000000000E+00 -0.74505805969E-08  0.93827000000E+00  0.93827000000E+00 0. -1.
     999902    2    1    2    0    0 -0.45313924547E-03 -0.51229054947E-02 -0.98296287720E-02  0.10328362586E+01  0.10327766777E+01 0.  0.
     999903    2    3    3    0    0  0.18458820305E-01  0.24044855113E-01  0.13549798171E+00  0.14023974573E+00  0.19712943172E-01 0.  0.
         14    1    1    2    0    0  0.45313924547E-03  0.51229054947E-02  0.98296287720E-02  0.11093741374E-01  0.00000000000E+00 0. -1.
     999901    1    3    3    0    0 -0.18911959550E-01 -0.29167760607E-01 -0.14532761048E+00  0.89259651290E+00  0.88000000000E+00 0. -1.
        -11    1    4    4    0    0  0.17052737951E-01  0.12177455924E-01  0.55014044419E-01  0.58871831199E-01  0.51100000000E-03 0. -1.
         11    1    4    4    0    0  0.14060823541E-02  0.11867399188E-01  0.80483937293E-01  0.81367914526E-01  0.51100000000E-03 0.  1.
</event>
<event>
 8    1  0.1128641E+005  0.1043930E+01  0.7957747E-01            NaN
         13   -1    0    0    0    0  0.00000000000E+00  0.00000000000E+00  0.74505805969E-08  0.10566000000E+00  0.10566000000E+00 0. -1.
     999900   -1    0    0    0    0 -0.00000000000E+00 -0.00000000000E+00 -0.74505805969E-08  0.93827000000E+00  0.93827000000E+00 0.  1.
     999902    2    1    2    0    0 -0.57963461023E-02  0.14137170475E-01 -0.12652064706E-01  0.10240923601E+01  0.10239002051E+01 0.  0.
     999903    2    3    3    0    0  0.25230986435E-01 -0.98883504548E-01  0.80306719218E-01  0.13146830489E+00  0.20498680251E-01 0.  0.
         14    1    1    2    0    0  0.57963461023E-02 -0.14137170475E-01  0.12652064706E-01  0.19837639943E-01  0.00000000000E+00 0. -1.
     999901    1    3    3    0    0 -0.31027332538E-01  0.11302067502E+00 -0.92958783924E-01  0.89262405516E+00  0.88000000000E+00 0.  1.
        -11    1    4    4    0    0  0.25974628799E-01 -0.80906540104E-01  0.73058721229E-01  0.11206421124E+00  0.51100000000E-03 0. -1.
         11    1    4    4    0    0 -0.74364236376E-03 -0.17976964444E-01  0.72479979884E-02  0.19404093651E-01  0.51100000000E-03 0.  1.
</event>
<event>
 8    1  0.1128641E+005  0.1043930E+01  0.7957747E-01            NaN
         13   -1    0    0    0    0  0.00000000000E+00  0.00000000000E+00  0.74505805969E-08  0.10566000000E+00  0.10566000000E+00 0.  1.
     999900   -1    0    0    0    0 -0.00000000000E+00 -0.00000000000E+00 -0.74505805969E-08  0.93827000000E+00  0.93827000000E+00 0. -1.
     999902    2    1    2    0    0  0.17431013929E-01 -0.53612448292E-02  0.14410607184E-01  0.10206867474E+01  0.10204220634E+01 0.  0.
     999903    2    3    3    0    0  0.45811166001E-01 -0.44132737788E-02 -0.12034124718E+00  0.12997669696E+00  0.17140188546E-01 0.  0.
         14    1    1    2    0    0 -0.17431013929E-01  0.53612448292E-02 -0.14410607184E-01  0.23243252615E-01  0.00000000000E+00 0. -1.
     999901    1    3    3    0    0 -0.28380152072E-01 -0.94797105044E-03  0.13475185436E+00  0.89071005043E+00  0.88000000000E+00 0.  1.
        -11    1    4    4    0    0  0.39848435093E-01 -0.33412471741E-02 -0.82865164296E-01  0.92010642247E-01  0.51100000000E-03 0. -1.
         11    1    4    4    0    0  0.59627309081E-02 -0.10720266047E-02 -0.37476082882E-01  0.37966054708E-01  0.51100000000E-03 0.  1.
</event>
<event>
 8    1  0.1128641E+005  0.1043930E+01  0.7957747E-01            NaN
         13   -1    0    0    0    0  0.00000000000E+00  0.00000000000E+00  0.74505805969E-08  0.10566000000E+00  0.10566000000E+00 0. -1.
     999900   -1    0    0    0    0 -0.00000000000E+00 -0.00000000000E+00 -0.74505805969E-08  0.93827000000E+00  0.93827000000E+00 0. -1.
     999902    2    1    2    0    0 -0.10875352626E-01 -0.50577024565E-02  0.20220625495E-01  0.10204198459E+01  0.10201489767E+01 0.  0.
     999903    2    3    3    0    0  0.87496614151E-02  0.12770779447E+00 -0.34286778117E-02  0.12993059395E+00  0.22008318147E-01 0.  0.
         14    1    1    2    0    0  0.10875352626E-01  0.50577024565E-02 -0.20220625495E-01  0.23510154068E-01  0.00000000000E+00 0.  1.
     999901    1    3    3    0    0 -0.19625014041E-01 -0.13276549693E+00  0.23649303307E-01  0.89048925198E+00  0.88000000000E+00 0.  1.
        -11    1    4    4    0    0  0.13115703650E-01  0.59284958380E-01  0.46190176071E-02  0.60896013145E-01  0.51100000000E-03 0.  1.
         11    1    4    4    0    0 -0.43660422348E-02  0.68422836095E-01 -0.80476954188E-02  0.69034580803E-01  0.51100000000E-03 0. -1.
</event>
<event>
 8    1  0.1128641E+005  0.1043930E+01  0.7957747E-01            NaN
         13   -1    0    0    0    0  0.00000000000E+00  0.00000000000E+00  0.74505805969E-08  0.10566000000E+00  0.10566000000E+00 0.  1.
     999900   -1    0    0    0    0 -0.00000000000E+00 -0.00000000000E+00 -0.74505805969E-08  0.93827000000E+00  0.93827000000E+00 0. -1.
     999902    2    1    2    0    0  0.16513674953E-01  0.97020197927E-02 -0.12958252666E-01  0.10208054036E+01  0.10205434459E+01 0.  0.
     999903    2    3    3    0    0 -0.91850761840E-01  0.80806217184E-01 -0.42111731837E-01  0.13083428976E+00  0.19442382364E-01 0.  0.
         14    1    1    2    0    0 -0.16513674953E-01 -0.97020197927E-02  0.12958252666E-01  0.23124596444E-01  0.00000000000E+00 0. -1.
     999901    1    3    3    0    0  0.10836443679E+00 -0.71104197391E-01  0.29153479171E-01  0.88997111380E+00  0.88000000000E+00 0. -1.
        -11    1    4    4    0    0 -0.22616533364E-01  0.11335489173E-01 -0.13426446145E-01  0.28644920549E-01  0.51100000000E-03 0.  1.
         11    1    4    4    0    0 -0.69234228476E-01  0.69470728010E-01 -0.28685285693E-01  0.10218936921E+00  0.51100000000E-03 0. -1.
</event>
<event>
 8    1  0.1128641E+005  0.1043930E+01  0.7957747E-01            NaN
         13   -1    0    0    0    0  0.00000000000E+00  0.00000000000E+00  0.74505805969E-08  0.10566000000E+00  0.10566000000E+00 0.  1.
     999900   -1    0    0    0    0 -0.00000000000E+00 -0.00000000000E+00 -0.74505805969E-08  0.93827000000E+00  0.93827000000E+00 0. -1.
     999902    2    1    2    0    0  0.15127913337E-01 -0.15622170704E-01  0.91612677749E-02  0.10203326525E+01  0.10200597468E+01 0.  0.
     999903    2    3    3    0    0 -0.19612421908E-01 -0.90129317419E-01 -0.90707042460E-01  0.13087670356E+00  0.19824304057E-01 0.  0.
         14    1    1    2    0    0 -0.15127913337E-01  0.15622170704E-01 -0.91612677749E-02  0.23597347450E-01  0.00000000000E+00 0.  1.
     999901    1    3    3    0    0  0.34740335246E-01  0.74507146715E-01  0.99868310235E-01  0.88945594899E+00  0.88000000000E+00 0.  1.
        -11    1    4    4    0    0 -0.50146505498E-02 -0.62716895270E-02 -0.14711218505E-01  0.16767882411E-01  0.51100000000E-03 0. -1.
         11    1    4    4    0    0 -0.14597771359E-01 -0.83857627892E-01 -0.75995823955E-01  0.11410882115E+00  0.51100000000E-03 0.  1.
</event>
<event>
 8    1  0.1128641E+005  0.1043930E+01  0.7957747E-01            NaN
         13   -1    0    0    0    0  0.00000000000E+00  0.00000000000E+00  0.74505805969E-08  0.10566000000E+00  0.10566000000E+00 0. -1.
     999900   -1    0    0    0    0 -0.00000000000E+00 -0.00000000000E+00 -0.74505805969E-08  0.93827000000E+00  0.93827000000E+00 0. -1.
     999902    2    1    2    0    0 -0.18208630190E-01 -0.13040239442E-02 -0.14369717755E-01  0.10206976200E+01  0.10204331864E+01 0.  0.
     999903    2    3    3    0    0  0.52634169534E-01  0.96216090502E-01 -0.68770145834E-01  0.13081657089E+00  0.18861346402E-01 0.  0.
         14    1    1    2    0    0  0.18208630190E-01  0.13040239442E-02  0.14369717755E-01  0.23232379995E-01  0.00000000000E+00 0. -1.
     999901    1    3    3    0    0 -0.70842799725E-01 -0.97520114446E-01  0.54400428079E-01  0.88988104911E+00  0.88000000000E+00 0.  1.
        -11    1    4    4    0    0  0.24779870792E-01  0.34807343515E-01 -0.17806619592E-01  0.46291791727E-01  0.51100000000E-03 0.  1.
         11    1    4    4    0    0  0.27854298743E-01  0.61408746987E-01 -0.50963526243E-01  0.84524779166E-01  0.51100000000E-03 0. -1.
</event>
<event>
 8    1  0.1128641E+005  0.1043930E+01  0.7957747E-01            NaN
         13   -1    0    0    0    0  0.00000000000E+00  0.00000000000E+00  0.74505805969E-08  0.10566000000E+00  0.10566000000E+00 0.  1.
     999900   -1    0    0    0    0 -0.00000000000E+00 -0.00000000000E+00 -0.74505805969E-08  0.93827000000E+00  0.93827000000E+00 0. -1.
     999902    2    1    2    0    0 -0.11036581972E-01  0.12917952189E-01  0.17495606814E-01  0.10195419724E+01  0.10192502429E+01 0.  0.
     999903    2    3    3    0    0  0.21522626002E-01 -0.18696288630E-01 -0.12239223716E+00  0.12733786399E+00  0.20549872235E-01 0.  0.
         14    1    1    2    0    0  0.11036581972E-01 -0.12917952189E-01 -0.17495606814E-01  0.24388027558E-01  0.00000000000E+00 0. -1.
     999901    1    3    3    0    0 -0.32559207974E-01  0.31614240819E-01  0.13988784398E+00  0.89220410845E+00  0.88000000000E+00 0.  1.
        -11    1    4    4    0    0  0.74702534020E-02 -0.20903084491E-02 -0.72388385676E-01  0.72804626069E-01  0.51100000000E-03 0. -1.
         11    1    4    4    0    0  0.14052372600E-01 -0.16605980181E-01 -0.50003851488E-01  0.54533237920E-01  0.51100000000E-03 0.  1.
</event>
<event>
 8    1  0.1128641E+005  0.1043930E+01  0.7957747E-01            NaN
         13   -1    0    0    0    0  0.00000000000E+00  0.00000000000E+00  0.74505805969E-08  0.10566000000E+00  0.10566000000E+00 0. -1.
     999900   -1    0    0    0    0 -0.00000000000E+00 -0.00000000000E+00 -0.74505805969E-08  0.93827000000E+00  0.93827000000E+00 0.  1.
     999902    2    1    2    0    0 -0.40947440533E-02  0.11809695663E-01  0.20127402115E-01  0.10202372130E+01  0.10199620692E+01 0.  0.
     999903    2    3    3    0    0  0.47068057665E-01  0.14925932482E-01 -0.11647575968E+00  0.12822389076E+00  0.20894450384E-01 0.  0.
         14    1    1    2    0    0  0.40947440533E-02 -0.11809695663E-01 -0.20127402115E-01  0.23692787013E-01  0.00000000000E+00 0. -1.
     999901    1    3    3    0    0 -0.51162801718E-01 -0.31162368185E-02  0.13660316180E+00  0.89201332222E+00  0.88000000000E+00 0. -1.
        -11    1    4    4    0    0  0.25051295695E-01  0.91009023970E-02 -0.86870625672E-01  0.90868919693E-01  0.51100000000E-03 0.  1.
         11    1    4    4    0    0  0.22016761970E-01  0.58250300848E-02 -0.29605134008E-01  0.37354971071E-01  0.51100000000E-03 0. -1.
</event>
<event>
 8    1  0.1128641E+005  0.1043930E+01  0.7957747E-01            NaN
         13   -1    0    0    0    0  0.00000000000E+00  0.00000000000E+00  0.74505805969E-08  0.10566000000E+00  0.10566000000E+00 0.  1.
     999900   -1    0    0    0    0 -0.00000000000E+00 -0.00000000000E+00 -0.74505805969E-08  0.93827000000E+00  0.93827000000E+00 0. -1.
     999902    2    1    2    0    0  0.20435357843E-01  0.71532604521E-02  0.89632267960E-02  0.10204968521E+01  0.10202277749E+01 0.  0.
     999903    2    3    3    0    0  0.13634605974E-01  0.14245494558E-01 -0.12692043265E+00  0.13001332115E+00  0.20145244012E-01 0.  0.
         14    1    1    2    0    0 -0.20435357843E-01 -0.71532604521E-02 -0.89632267960E-02  0.23433147887E-01  0.00000000000E+00 0. -1.
     999901    1    3    3    0    0  0.68007518692E-02 -0.70922341055E-02  0.13588365945E+00  0.89048353096E+00  0.88000000000E+00 0.  1.
        -11    1    4    4    0    0  0.41372279475E-02 -0.49632741294E-02 -0.37785934461E-01  0.38337823481E-01  0.51100000000E-03 0. -1.
         11    1    4    4    0    0  0.94973780266E-02  0.19208768687E-01 -0.89134498193E-01  0.91675497669E-01  0.51100000000E-03 0.  1.
</event>
<event>
 8    1  0.1128641E+005  0.1043930E+01  0.7957747E-01            NaN
         13   -1    0    0    0    0  0.00000000000E+00  0.00000000000E+00  0.74505805969E-08  0.10566000000E+00  0.10566000000E+00 0. -1.
     999900   -1    0    0    0    0 -0.00000000000E+00 -0.00000000000E+00 -0.74505805969E-08  0.93827000000E+00  0.93827000000E+00 0.  1.
     999902    2    1    2    0    0 -0.44476347072E-02  0.57687394529E-02 -0.21619494848E-01  0.10211163557E+01  0.10208614742E+01 0.  0.
     999903    2    3    3    0    0 -0.10481291749E+00 -0.45738486110E-01  0.58958152365E-01  0.13026342646E+00  0.20365160451E-01 0.  0.
         14    1    1    2    0    0  0.44476347072E-02 -0.57687394529E-02  0.21619494848E-01  0.22813644313E-01  0.00000000000E+00 0. -1.
     999901    1    3    3    0    0  0.10036528278E+00  0.51507225563E-01 -0.80577647213E-01  0.89085292922E+00  0.88000000000E+00 0.  1.
        -11    1    4    4    0    0 -0.18207591765E-01 -0.88859469187E-02  0.19761447679E-01  0.28306401853E-01  0.51100000000E-03 0. -1.
         11    1    4    4    0    0 -0.86605325723E-01 -0.36852539191E-01  0.39196704686E-01  0.10195702461E+00  0.51100000000E-03 0.  1.
</event>
<event>
 8    1  0.1128641E+005  0.1043930E+01  0.7957747E-01            NaN
         13   -1    0    0    0    0  0.00000000000E+00  0.00000000000E+00  0.74505805969E-08  0.10566000000E+00  0.10566000000E+00 0.  1.
     999900   -1    0    0    0    0 -0.00000000000E+00 -0.00000000000E+00 -0.74505805969E-08  0.93827000000E+00  0.93827000000E+00 0. -1.
     999902    2    1    2    0    0 -0.96797475457E-02  0.30508267676E-01  0.87710865664E-02  0.10107428960E+01  0.10101979103E+01 0.  0.
     999903    2    3    3    0    0 -0.95362407596E-01 -0.10221767861E-01 -0.73185715156E-01  0.12185743021E+00  0.17164238231E-01 0.  0.
         14    1    1    2    0    0  0.96797475457E-02 -0.30508267676E-01 -0.87710865664E-02  0.33187103952E-01  0.00000000000E+00 0. -1.
     999901    1    3    3    0    0  0.85682660050E-01  0.40730035537E-01  0.81956801722E-01  0.88888546584E+00  0.88000000000E+00 0. -1.
        -11    1    4    4    0    0 -0.53106383064E-01  0.85609707309E-03 -0.46994834545E-01  0.70921057658E-01  0.51100000000E-03 0. -1.
         11    1    4    4    0    0 -0.42256024531E-01 -0.11077864934E-01 -0.26190880611E-01  0.50936372553E-01  0.51100000000E-03 0.  1.
</event>
<event>
 8    1  0.1128641E+005  0.1043930E+01  0.7957747E-01            NaN
         13   -1    0    0    0    0  0.00000000000E+00  0.00000000000E+00  0.74505805969E-08  0.10566000000E+00  0.10566000000E+00 0. -1.
     999900   -1    0    0    0    0 -0.00000000000E+00 -0.00000000000E+00 -0.74505805969E-08  0.93827000000E+00  0.93827000000E+00 0. -1.
     999902    2    1    2    0    0  0.19041093901E-01 -0.99802706486E-02  0.29550158417E-01  0.10073871358E+01  0.10067241233E+01 0.  0.
     999903    2    3    3    0    0 -0.54313274321E-01 -0.48186294340E-01  0.94770874136E-01  0.12110596975E+00  0.20329451441E-01 0.  0.
         14    1    1    2    0    0 -0.19041093901E-01  0.99802706486E-02 -0.29550158417E-01  0.36542864169E-01  0.00000000000E+00 0.  1.
     999901    1    3    3    0    0  0.73354368223E-01  0.38206023691E-01 -0.65220715719E-01  0.88628116608E+00  0.88000000000E+00 0. -1.
        -11    1    4    4    0    0 -0.26597007254E-01 -0.24156785320E-01  0.30638809066E-01  0.47222333846E-01  0.51100000000E-03 0. -1.
         11    1    4    4    0    0 -0.27716267067E-01 -0.24029509020E-01  0.64132065070E-01  0.73883635908E-01  0.51100000000E-03 0.  1.
</event>
<event>
 8    1  0.1128641E+005  0.1043930E+01  0.7957747E-01            NaN
         13   -1    0    0    0    0  0.00000000000E+00  0.00000000000E+00  0.74505805969E-08  0.10566000000E+00  0.10566000000E+00 0. -1.
     999900   -1    0    0    0    0 -0.00000000000E+00 -0.00000000000E+00 -0.74505805969E-08  0.93827000000E+00  0.93827000000E+00 0.  1.
     999902    2    1    2    0    0  0.61380325142E-02 -0.23156112411E-01 -0.27613733127E-02  0.10198155610E+01  0.10195304176E+01 0.  0.
     999903    2    3    3    0    0  0.99584298229E-01 -0.80552936231E-01 -0.27102075820E-01  0.13267460842E+00  0.21499330627E-01 0.  0.
         14    1    1    2    0    0 -0.61380325142E-02  0.23156112411E-01  0.27613733127E-02  0.24114438988E-01  0.00000000000E+00 0.  1.
     999901    1    3    3    0    0 -0.93446265715E-01  0.57396823820E-01  0.24340702508E-01  0.88714095259E+00  0.88000000000E+00 0. -1.
        -11    1    4    4    0    0  0.44059247337E-01 -0.44062187669E-01 -0.21809200148E-01  0.66019663663E-01  0.51100000000E-03 0. -1.
         11    1    4    4    0    0  0.55525050892E-01 -0.36490748562E-01 -0.52928756729E-02  0.66654944761E-01  0.51100000000E-03 0.  1.
</event>
<event>
 8    1  0.1128641E+005  0.1043930E+01  0.7957747E-01            NaN
         13   -1    0    0    0    0  0.00000000000E+00  0.00000000000E+00  0.74505805969E-08  0.10566000000E+00  0.10566000000E+00 0.  1.
     999900   -1    0    0    0    0 -0.00000000000E+00 -0.00000000000E+00 -0.74505805969E-08  0.93827000000E+00  0.93827000000E+00 0.  1.
     999902    2    1    2    0    0 -0.14254199078E-01 -0.17413104282E-01  0.41757203211E-02  0.10210425573E+01  0.10207860054E+01 0.  0.
     999903    2    3    3    0    0 -0.32876737289E-01  0.50387903182E-01  0.11517932455E+00  0.13128664939E+00  0.18710608283E-01 0.  0.
         14    1    1    2    0    0  0.14254199078E-01  0.17413104282E-01 -0.41757203211E-02  0.22887442677E-01  0.00000000000E+00 0. -1.
     999901    1    3    3    0    0  0.18622538211E-01 -0.67801007464E-01 -0.11100360423E+00  0.88975590793E+00  0.88000000000E+00 0.  1.
        -11    1    4    4    0    0 -0.42454242864E-02  0.21454666305E-01  0.47735218675E-01  0.52509413981E-01  0.51100000000E-03 0.  1.
         11    1    4    4    0    0 -0.28631313002E-01  0.28933236877E-01  0.67444105879E-01  0.78777235412E-01  0.51100000000E-03 0. -1.
</event>
<event>
 8    1  0.1128641E+005  0.1043930E+01  0.7957747E-01            NaN
         13   -1    0    0    0    0  0.00000000000E+00  0.00000000000E+00  0.74505805969E-08  0.10566000000E+00  0.10566000000E+00 0. -1.
     999900   -1    0    0    0    0 -0.00000000000E+00 -0.00000000000E+00 -0.74505805969E-08  0.93827000000E+00  0.93827000000E+00 0.  1.
     999902    2    1    2    0    0 -0.10723574333E-01 -0.21300863839E-01 -0.21120853004E-02  0.10199887646E+01  0.10197077509E+01 0.  0.
     999903    2    3    3    0    0 -0.11528600506E+00 -0.23738702299E-01  0.55998581484E-01  0.13189186982E+00  0.20130455688E-01 0.  0.
         14    1    1    2    0    0  0.10723574333E-01  0.21300863839E-01  0.21120853004E-02  0.23941235371E-01  0.00000000000E+00 0. -1.
     999901    1    3    3    0    0  0.10456243073E+00  0.24378384596E-02 -0.58110666785E-01  0.88809689481E+00  0.88000000000E+00 0.  1.
        -11    1    4    4    0    0 -0.50059243815E-01 -0.74610558414E-02  0.13600870276E-01  0.52410304701E-01  0.51100000000E-03 0. -1.
         11    1    4    4    0    0 -0.65226761247E-01 -0.16277646457E-01  0.42397711208E-01  0.79481565119E-01  0.51100000000E-03 0.  1.
</event>
<event>
 8    1  0.1128641E+005  0.1043930E+01  0.7957747E-01            NaN
         13   -1    0    0    0    0  0.00000000000E+00  0.00000000000E+00  0.74505805969E-08  0.10566000000E+00  0.10566000000E+00 0. -1.
     999900   -1    0    0    0    0 -0.00000000000E+00 -0.00000000000E+00 -0.74505805969E-08  0.93827000000E+00  0.93827000000E+00 0.  1.
     999902    2    1    2    0    0 -0.15144063677E-01 -0.17328450589E-01  0.51118201970E-02  0.10203556799E+01  0.10200833127E+01 0.  0.
     999903    2    3    3    0    0  0.95781461680E-01  0.77520078713E-01 -0.27144959053E-01  0.12775206375E+00  0.20007248290E-01 0.  0.
         14    1    1    2    0    0  0.15144063677E-01  0.17328450589E-01 -0.51118201970E-02  0.23574320143E-01  0.00000000000E+00 0.  1.
     999901    1    3    3    0    0 -0.11092552536E+00 -0.94848529303E-01  0.32256779250E-01  0.89260361611E+00  0.88000000000E+00 0.  1.
        -11    1    4    4    0    0  0.79795352416E-01  0.64962769457E-01 -0.14779251384E-01  0.10395261938E+00  0.51100000000E-03 0.  1.
         11    1    4    4    0    0  0.15986109263E-01  0.12557309256E-01 -0.12365707669E-01  0.23799444369E-01  0.51100000000E-03 0. -1.
</event>
<event>
 8    1  0.1128641E+005  0.1043930E+01  0.7957747E-01            NaN
         13   -1    0    0    0    0  0.00000000000E+00  0.00000000000E+00  0.74505805969E-08  0.10566000000E+00  0.10566000000E+00 0.  1.
     999900   -1    0    0    0    0 -0.00000000000E+00 -0.00000000000E+00 -0.74505805969E-08  0.93827000000E+00  0.93827000000E+00 0.  1.
     999902    2    1    2    0    0  0.13629492561E-01 -0.99704546472E-02  0.16178225269E-01  0.10205439356E+01  0.10202759512E+01 0.  0.
     999903    2    3    3    0    0 -0.20777568250E-01  0.10579136772E+00 -0.66730346463E-01  0.12843493074E+00  0.20471235174E-01 0.  0.
         14    1    1    2    0    0 -0.13629492561E-01  0.99704546472E-02 -0.16178225269E-01  0.23386064359E-01  0.00000000000E+00 0.  1.
     999901    1    3    3    0    0  0.34407060811E-01 -0.11576182237E+00  0.82908571732E-01  0.89210900490E+00  0.88000000000E+00 0. -1.
        -11    1    4    4    0    0 -0.27718426977E-02  0.51893514950E-01 -0.23519343954E-01  0.57044199240E-01  0.51100000000E-03 0.  1.
         11    1    4    4    0    0 -0.18005725553E-01  0.53897852771E-01 -0.43211002509E-01  0.71390731505E-01  0.51100000000E-03 0. -1.
</event>
<event>
 8    1  0.1128641E+005  0.1043930E+01  0.7957747E-01            NaN
         13   -1    0    0    0    0  0.00000000000E+00  0.00000000000E+00  0.74505805969E-08  0.10566000000E+00  0.10566000000E+00 0.  1.
     999900   -1    0    0    0    0 -0.00000000000E+00 -0.00000000000E+00 -0.74505805969E-08  0.93827000000E+00  0.93827000000E+00 0.  1.
     999902    2    1    2    0    0  0.16720622339E-01  0.16234527399E-01  0.87527120337E-02  0.10190352403E+01  0.10187311088E+01 0.  0.
     999903    2    3    3    0    0 -0.11865082135E+00 -0.18721237378E-01 -0.35848298299E-01  0.12688246004E+00  0.19635580892E-01 0.  0.
         14    1    1    2    0    0 -0.16720622339E-01 -0.16234527399E-01 -0.87527120337E-02  0.24894759674E-01  0.00000000000E+00 0.  1.
     999901    1    3    3    0    0  0.13537144369E+00  0.34955764776E-01  0.44601010333E-01  0.89215278029E+00  0.88000000000E+00 0.  1.
        -11    1    4    4    0    0 -0.10109526105E+00 -0.16162369486E-01 -0.22892876917E-01  0.10490862180E+00  0.51100000000E-03 0. -1.
         11    1    4    4    0    0 -0.17555560303E-01 -0.25588678919E-02 -0.12955421383E-01  0.21973838232E-01  0.51100000000E-03 0.  1.
</event>
<event>
 8    1  0.1128641E+005  0.1043930E+01  0.7957747E-01            NaN
         13   -1    0    0    0    0  0.00000000000E+00  0.00000000000E+00  0.74505805969E-08  0.10566000000E+00  0.10566000000E+00 0. -1.
     999900   -1    0    0    0    0 -0.00000000000E+00 -0.00000000000E+00 -0.74505805969E-08  0.93827000000E+00  0.93827000000E+00 0.  1.
     999902    2    1    2    0    0  0.60220074356E-02 -0.13069027856E-01 -0.23478765626E-01  0.10163924529E+01  0.10160193413E+01 0.  0.
     999903    2    3    3    0    0  0.25482512617E-01  0.65705549457E-01  0.10017863670E+00  0.12404986265E+00  0.19647684207E-01 0.  0.
         14    1    1    2    0    0 -0.60220074356E-02  0.13069027856E-01  0.23478765626E-01  0.27537547058E-01  0.00000000000E+00 0. -1.
     999901    1    3    3    0    0 -0.19460505181E-01 -0.78774577313E-01 -0.12365740233E+00  0.89234259029E+00  0.88000000000E+00 0.  1.
        -11    1    4    4    0    0  0.12196353158E-01  0.18967933923E-01  0.19251147677E-01  0.29654702081E-01  0.51100000000E-03 0. -1.
         11    1    4    4    0    0  0.13286159459E-01  0.46737615534E-01  0.80927489022E-01  0.94395160572E-01  0.51100000000E-03 0.  1.
</event>
<event>
 8    1  0.1128641E+005  0.1043930E+01  0.7957747E-01            NaN
         13   -1    0    0    0    0  0.00000000000E+00  0.00000000000E+00  0.74505805969E-08  0.10566000000E+00  0.10566000000E+00 0. -1.
     999900   -1    0    0    0    0 -0.00000000000E+00 -0.00000000000E+00 -0.74505805969E-08  0.93827000000E+00  0.93827000000E+00 0.  1.
     999902    2    1    2    0    0 -0.22532554732E-01 -0.33351383771E-02  0.27757521305E-02  0.10209834541E+01  0.10207255603E+01 0.  0.
     999903    2    3    3    0    0 -0.11505534924E+00  0.29125743898E-01 -0.58271419201E-01  0.13343574632E+00  0.17986043308E-01 0.  0.
         14    1    1    2    0    0  0.22532554732E-01  0.33351383771E-02 -0.27757521305E-02  0.22946545941E-01  0.00000000000E+00 0.  1.
     999901    1    3    3    0    0  0.92522794511E-01 -0.32460882275E-01  0.61047171331E-01  0.88754770774E+00  0.88000000000E+00 0.  1.
        -11    1    4    4    0    0 -0.52393169883E-01  0.12115507652E-01 -0.36318355376E-01  0.64893095428E-01  0.51100000000E-03 0.  1.
         11    1    4    4    0    0 -0.62662179359E-01  0.17010236246E-01 -0.21953063825E-01  0.68542650893E-01  0.51100000000E-03 0. -1.
</event>
<event>
 8    1  0.1128641E+005  0.1043930E+01  0.7957747E-01            NaN
         13   -1    0    0    0    0  0.00000000000E+00  0.00000000000E+00  0.74505805969E-08  0.10566000000E+00  0.10566000000E+00 0.  1.
     999900   -1    0    0    0    0 -0.00000000000E+00 -0.00000000000E+00 -0.74505805969E-08  0.93827000000E+00  0.93827000000E+00 0. -1.
     999902    2    1    2    0    0 -0.14129174332E-01 -0.16311665278E-01 -0.78667380608E-02  0.10209606822E+01  0.10207022705E+01 0.  0.
     999903    2    3    3    0    0  0.18343296579E-01  0.12323299249E+00  0.24983358883E-01  0.12876882968E+00  0.20842176166E-01 0.  0.
         14    1    1    2    0    0  0.14129174332E-01  0.16311665278E-01  0.78667380608E-02  0.22969317778E-01  0.00000000000E+00 0. -1.
     999901    1    3    3    0    0 -0.32472470911E-01 -0.13954465777E+00 -0.32850096944E-01  0.89219185255E+00  0.88000000000E+00 0. -1.
        -11    1    4    4    0    0 -0.28691944000E-02  0.25475372064E-01  0.10430797950E-01  0.27681934997E-01  0.51100000000E-03 0.  1.
         11    1    4    4    0    0  0.21212490979E-01  0.97757620428E-01  0.14552560933E-01  0.10108689468E+00  0.51100000000E-03 0. -1.
</event>
<event>
 8    1  0.1128641E+005  0.1043930E+01  0.7957747E-01            NaN
         13   -1    0    0    0    0  0.00000000000E+00  0.00000000000E+00  0.74505805969E-08  0.10566000000E+00  0.10566000000E+00 0.  1.
     999900   -1    0    0    0    0 -0.00000000000E+00 -0.00000000000E+00 -0.74505805969E-08  0.93827000000E+00  0.93827000000E+00 0.  1.
     999902    2    1    2    0    0  0.28384792362E-01  0.45040250008E-02 -0.18268812012E-01  0.10098751594E+01  0.10093008002E+01 0.  0.
     999903    2    3    3    0    0 -0.78282055187E-01  0.87047538160E-01 -0.13412675507E-01  0.11958597601E+00  0.20385085969E-01 0.  0.
         14    1    1    2    0    0 -0.28384792362E-01 -0.45040250008E-02  0.18268812012E-01  0.34054840639E-01  0.00000000000E+00 0.  1.
     999901    1    3    3    0    0  0.10666684755E+00 -0.82543513159E-01 -0.48561365058E-02  0.89028918335E+00  0.88000000000E+00 0. -1.
        -11    1    4    4    0    0 -0.42030756217E-01  0.42383733081E-01 -0.16641740222E-01  0.61969136969E-01  0.51100000000E-03 0.  1.
         11    1    4    4    0    0 -0.36251298970E-01  0.44663805079E-01  0.32290647150E-02  0.57616839041E-01  0.51100000000E-03 0. -1.
</event>
<event>
 8    1  0.1128641E+005  0.1043930E+01  0.7957747E-01            NaN
         13   -1    0    0    0    0  0.00000000000E+00  0.00000000000E+00  0.74505805969E-08  0.10566000000E+00  0.10566000000E+00 0. -1.
     999900   -1    0    0    0    0 -0.00000000000E+00 -0.00000000000E+00 -0.74505805969E-08  0.93827000000E+00  0.93827000000E+00 0.  1.
     999902    2    1    2    0    0  0.18181606688E-01 -0.10886956664E-01  0.12307384892E-02  0.10227023915E+01  0.10224820635E+01 0.  0.
     999903    2    3    3    0    0 -0.66193168915E-01  0.42504525235E-01 -0.10275621532E+00  0.13097202881E+00  0.20165868884E-01 0.  0.
         14    1    1    2    0    0 -0.18181606688E-01  0.10886956664E-01 -0.12307384892E-02  0.21227608542E-01  0.00000000000E+00 0.  1.
     999901    1    3    3    0    0  0.84374775603E-01 -0.53391481900E-01  0.10398695381E+00  0.89173036264E+00  0.88000000000E+00 0. -1.
        -11    1    4    4    0    0 -0.15711097745E-01  0.19407417870E-01 -0.24184015203E-01  0.34765128694E-01  0.51100000000E-03 0.  1.
         11    1    4    4    0    0 -0.50482071170E-01  0.23097107365E-01 -0.78572200119E-01  0.96206900120E-01  0.51100000000E-03 0. -1.
</event>
<event>
 8    1  0.1128641E+005  0.1043930E+01  0.7957747E-01            NaN
         13   -1    0    0    0    0  0.00000000000E+00  0.00000000000E+00  0.74505805969E-08  0.10566000000E+00  0.10566000000E+00 0. -1.
     999900   -1    0    0    0    0 -0.00000000000E+00 -0.00000000000E+00 -0.74505805969E-08  0.93827000000E+00  0.93827000000E+00 0.  1.
     999902    2    1    2    0    0 -0.79938258415E-02 -0.55830491912E-02 -0.18273341262E-01  0.10232180061E+01  0.10230083584E+01 0.  0.
     999903    2    3    3    0    0  0.10220561363E+00  0.11763116482E-02 -0.84177013245E-01  0.13387392231E+00  0.19725271840E-01 0.  0.
         14    1    1    2    0    0  0.79938258415E-02  0.55830491912E-02  0.18273341262E-01  0.20711993886E-01  0.00000000000E+00 0. -1.
     999901    1    3    3    0    0 -0.11019943947E+00 -0.67593608395E-02  0.65903671982E-01  0.88934408381E+00  0.88000000000E+00 0.  1.
        -11    1    4    4    0    0  0.66854139269E-01  0.76610330160E-02 -0.62845179529E-01  0.92075757262E-01  0.51100000000E-03 0.  1.
         11    1    4    4    0    0  0.35351474359E-01 -0.64847213678E-02 -0.21331833716E-01  0.41798165047E-01  0.51100000000E-03 0. -1.
</event>
<event>
 8    1  0.1128641E+005  0.1043930E+01  0.7957747E-01            NaN
         13   -1    0    0    0    0  0.00000000000E+00  0.00000000000E+00  0.74505805969E-08  0.10566000000E+00  0.10566000000E+00 0. -1.
     999900   -1    0    0    0    0 -0.00000000000E+00 -0.00000000000E+00 -0.74505805969E-08  0.93827000000E+00  0.93827000000E+00 0. -1.
     999902    2    1    2    0    0  0.22117880229E-01  0.10042519109E-01 -0.53287922992E-02  0.10190613683E+01  0.10187578827E+01 0.  0.
     999903    2    3    3    0    0  0.28004627750E-01  0.12661697672E+00 -0.71813181185E-02  0.13135213109E+00  0.19639069280E-01 0.  0.
         14    1    1    2    0    0 -0.22117880229E-01 -0.10042519109E-01  0.53287922992E-02  0.24868631712E-01  0.00000000000E+00 0. -1.
     999901    1    3    3    0    0 -0.58867475209E-02 -0.11657445761E+00  0.18525258193E-02  0.88770923720E+00  0.88000000000E+00 0.  1.
        -11    1    4    4    0    0  0.21908249654E-02  0.44224286456E-01  0.31476342115E-02  0.44393197099E-01  0.51100000000E-03 0. -1.
         11    1    4    4    0    0  0.25813802784E-01  0.82392690262E-01 -0.10328952330E-01  0.86958933986E-01  0.51100000000E-03 0.  1.
</event>
<event>
 8    1  0.1128641E+005  0.1043930E+01  0.7957747E-01            NaN
         13   -1    0    0    0    0  0.00000000000E+00  0.00000000000E+00  0.74505805969E-08  0.10566000000E+00  0.10566000000E+00 0. -1.
     999900   -1    0    0    0    0 -0.00000000000E+00 -0.00000000000E+00 -0.74505805969E-08  0.93827000000E+00  0.93827000000E+00 0.  1.
     999902    2    1    2    0    0  0.21829735708E-01  0.31895294467E-02 -0.85449101675E-02  0.10202714720E+01  0.10199971326E+01 0.  0.
     999903    2    3    3    0    0  0.11806074432E+00  0.17704476682E-01 -0.57048136039E-01  0.13357893583E+00  0.18359042110E-01 0.  0.
         14    1    1    2    0    0 -0.21829735708E-01 -0.31895294467E-02  0.85449101675E-02  0.23658528038E-01  0.00000000000E+00 0. -1.
     999901    1    3    3    0    0 -0.96231008615E-01 -0.14514947235E-01  0.48503225872E-01  0.88669253613E+00  0.88000000000E+00 0.  1.
        -11    1    4    4    0    0  0.50865115039E-01 -0.36583868499E-03 -0.19238851930E-01  0.54385552406E-01  0.51100000000E-03 0. -1.
         11    1    4    4    0    0  0.67195629283E-01  0.18070315367E-01 -0.37809284109E-01  0.79193383423E-01  0.51100000000E-03 0.  1.
</event>
<event>
 8    1  0.1128641E+005  0.1043930E+01  0.7957747E-01            NaN
         13   -1    0    0    0    0  0.00000000000E+00  0.00000000000E+00  0.74505805969E-08  0.10566000000E+00  0.10566000000E+00 0. -1.
     999900   -1    0    0    0    0 -0.00000000000E+00 -0.00000000000E+00 -0.74505805969E-08  0.93827000000E+00  0.93827000000E+00 0. -1.
     999902    2    1    2    0    0 -0.19907338760E-01 -0.23628245356E-02 -0.12189784271E-01  0.10204677768E+01  0.10201980237E+01 0.  0.
     999903    2    3    3    0    0  0.27361383077E-01  0.85505019468E-01  0.90303874254E-01  0.12891854087E+00  0.20135710480E-01 0.  0.
         14    1    1    2    0    0  0.19907338760E-01  0.23628245356E-02  0.12189784271E-01  0.23462223187E-01  0.00000000000E+00 0. -1.
     999901    1    3    3    0    0 -0.47268721838E-01 -0.87867844004E-01 -0.10249365852E+00  0.89154923594E+00  0.88000000000E+00 0. -1.
        -11    1    4    4    0    0  0.14684844220E-01  0.19058227892E-01  0.19294379023E-01  0.30844689705E-01  0.51100000000E-03 0.  1.
         11    1    4    4    0    0  0.12676538857E-01  0.66446791576E-01  0.71009495231E-01  0.98073851164E-01  0.51100000000E-03 0. -1.
</event>
<event>
 8    1  0.1128641E+005  0.1043930E+01  0.7957747E-01            NaN
         13   -1    0    0    0    0  0.00000000000E+00  0.00000000000E+00  0.74505805969E-08  0.10566000000E+00  0.10566000000E+00 0. -1.
     999900   -1    0    0    0    0 -0.00000000000E+00 -0.00000000000E+00 -0.74505805969E-08  0.93827000000E+00  0.93827000000E+00 0. -1.
     999902    2    1    2    0    0  0.37993336711E-02 -0.11387460137E-01 -0.14641377031E-01  0.10249964555E+01  0.10248215722E+01 0.  0.
     999903    2    3    3    0    0 -0.35106667916E-01 -0.10499481010E-01  0.12673236725E+00  0.13286361731E+00  0.15777536616E-01 0.  0.
         14    1    1    2    0    0 -0.37993336711E-02  0.11387460137E-01  0.14641377031E-01  0.18933544467E-01  0.00000000000E+00 0. -1.
     999901    1    3    3    0    0  0.38906001587E-01 -0.88797912668E-03 -0.14137374428E+00  0.89213283822E+00  0.88000000000E+00 0. -1.
        -11    1    4    4    0    0 -0.68047153385E-02 -0.92713043099E-02  0.39710308480E-01  0.41345265206E-01  0.51100000000E-03 0. -1.
         11    1    4    4    0    0 -0.28301952577E-01 -0.12281767004E-02  0.87022058771E-01  0.91518352102E-01  0.51100000000E-03 0.  1.
</event>
<event>
 8    1  0.1128641E+005  0.1043930E+01  0.7957747E-01            NaN
         13   -1    0    0    0    0  0.00000000000E+00  0.00000000000E+00  0.74505805969E-08  0.10566000000E+00  0.10566000000E+00 0.  1.
     999900   -1    0    0    0    0 -0.00000000000E+00 -0.00000000000E+00 -0.74505805969E-08  0.93827000000E+00  0.93827000000E+00 0.  1.
     999902    2    1    2    0    0  0.84579112085E-02  0.21117902518E-01 -0.10418103514E-01  0.10189092296E+01  0.10186019729E+01 0.  0.
     999903    2    3    3    0    0  0.10359922819E+00  0.76679516516E-01  0.17180436071E-01  0.13160959449E+00  0.20331493874E-01 0.  0.
         14    1    1    2    0    0 -0.84579112085E-02 -0.21117902518E-01  0.10418103514E-01  0.25020770364E-01  0.00000000000E+00 0.  1.
     999901    1    3    3    0    0 -0.95141316980E-01 -0.55561613998E-01 -0.27598539585E-01  0.88729963515E+00  0.88000000000E+00 0.  1.
        -11    1    4    4    0    0  0.45396481899E-01  0.39478208219E-01 -0.10280894851E-02  0.60172149554E-01  0.51100000000E-03 0.  1.
         11    1    4    4    0    0  0.58202746290E-01  0.37201308297E-01  0.18208525556E-01  0.71437444934E-01  0.51100000000E-03 0. -1.
</event>
<event>
 8    1  0.1128641E+005  0.1043930E+01  0.7957747E-01            NaN
         13   -1    0    0    0    0  0.00000000000E+00  0.00000000000E+00  0.74505805969E-08  0.10566000000E+00  0.10566000000E+00 0. -1.
     999900   -1    0    0    0    0 -0.00000000000E+00 -0.00000000000E+00 -0.74505805969E-08  0.93827000000E+00  0.93827000000E+00 0.  1.
     999902    2    1    2    0    0  0.31538872715E-01 -0.45893106490E-02  0.84998830751E-03  0.10120476421E+01  0.10115453253E+01 0.  0.
     999903    2    3    3    0    0  0.34912557892E-01 -0.52363431552E-01 -0.10594968631E+00  0.12429772300E+00  0.16241066838E-01 0.  0.
         14    1    1    2    0    0 -0.31538872715E-01  0.45893106490E-02 -0.84998830751E-03  0.31882357887E-01  0.00000000000E+00 0. -1.
     999901    1    3    3    0    0 -0.33736851773E-02  0.47774120903E-01  0.10679967462E+00  0.88774991911E+00  0.88000000000E+00 0. -1.
        -11    1    4    4    0    0  0.12870465046E-01 -0.12747794884E-01 -0.19117393512E-01  0.26341810883E-01  0.51100000000E-03 0. -1.
         11    1    4    4    0    0  0.22042092846E-01 -0.39615636668E-01 -0.86832292799E-01  0.97955912120E-01  0.51100000000E-03 0.  1.
</event>
<event>
 8    1  0.1128641E+005  0.1043930E+01  0.7957747E-01            NaN
         13   -1    0    0    0    0  0.00000000000E+00  0.00000000000E+00  0.74505805969E-08  0.10566000000E+00  0.10566000000E+00 0. -1.
     999900   -1    0    0    0    0 -0.00000000000E+00 -0.00000000000E+00 -0.74505805969E-08  0.93827000000E+00  0.93827000000E+00 0. -1.
     999902    2    1    2    0    0  0.14965825561E-01 -0.48880827183E-02  0.17971690034E-01  0.10200375131E+01  0.10197576561E+01 0.  0.
     999903    2    3    3    0    0  0.10766991123E-01 -0.11841169756E+00  0.53633278392E-01  0.13201893772E+00  0.20376779695E-01 0.  0.
         14    1    1    2    0    0 -0.14965825561E-01  0.48880827183E-02 -0.17971690034E-01  0.23892486896E-01  0.00000000000E+00 0.  1.
     999901    1    3    3    0    0  0.41988344382E-02  0.11352361484E+00 -0.35661588358E-01  0.88801857538E+00  0.88000000000E+00 0. -1.
        -11    1    4    4    0    0  0.11034209711E-01 -0.55063768675E-01  0.34200378286E-01  0.65754843172E-01  0.51100000000E-03 0. -1.
         11    1    4    4    0    0 -0.26721858784E-03 -0.63347928881E-01  0.19432900106E-01  0.66264094552E-01  0.51100000000E-03 0.  1.
</event>
<event>
 8    1  0.1128641E+005  0.1043930E+01  0.7957747E-01            NaN
         13   -1    0    0    0    0  0.00000000000E+00  0.00000000000E+00  0.74505805969E-08  0.10566000000E+00  0.10566000000E+00 0. -1.
     999900   -1    0    0    0    0 -0.00000000000E+00 -0.00000000000E+00 -0.74505805969E-08  0.93827000000E+00  0.93827000000E+00 0.  1.
     999902    2    1    2    0    0  0.18017259093E-01  0.15557562092E-01 -0.24701070213E-02  0.10199975786E+01  0.10197167742E+01 0.  0.
     999903    2    3    3    0    0 -0.45944000987E-02  0.11764434354E+00 -0.56652080033E-01  0.13215261229E+00  0.19838212705E-01 0.  0.
         14    1    1    2    0    0 -0.18017259093E-01 -0.15557562092E-01  0.24701070213E-02  0.23932421361E-01  0.00000000000E+00 0. -1.
     999901    1    3    3    0    0  0.22611659192E-01 -0.10208678145E+00  0.54181973011E-01  0.88784496635E+00  0.88000000000E+00 0. -1.
        -11    1    4    4    0    0  0.34307970917E-02  0.27232952698E-01 -0.21283480514E-01  0.34736893142E-01  0.51100000000E-03 0. -1.
         11    1    4    4    0    0 -0.80251971904E-02  0.90411390841E-01 -0.35368599518E-01  0.97415719145E-01  0.51100000000E-03 0.  1.
</event>
<event>
 8    1  0.1128641E+005  0.1043930E+01  0.7957747E-01            NaN
         13   -1    0    0    0    0  0.00000000000E+00  0.00000000000E+00  0.74505805969E-08  0.10566000000E+00  0.10566000000E+00 0. -1.
     999900   -1    0    0    0    0 -0.00000000000E+00 -0.00000000000E+00 -0.74505805969E-08  0.93827000000E+00  0.93827000000E+00 0.  1.
     999902    2    1    2    0    0 -0.73022725781E-02  0.13402478491E-01  0.17805666195E-01  0.10204781053E+01  0.10202085925E+01 0.  0.
     999903    2    3    3    0    0 -0.80828669328E-01  0.10216360508E+00  0.17696702257E-01  0.13296208831E+00  0.19876309207E-01 0.  0.
         14    1    1    2    0    0  0.73022725781E-02 -0.13402478491E-01 -0.17805666195E-01  0.23451894660E-01  0.00000000000E+00 0.  1.
     999901    1    3    3    0    0  0.73526396750E-01 -0.88761126593E-01  0.10896393799E-03  0.88751601703E+00  0.88000000000E+00 0.  1.
        -11    1    4    4    0    0 -0.58827258953E-01  0.86705261116E-01  0.16223039914E-01  0.10602781166E+00  0.51100000000E-03 0.  1.
         11    1    4    4    0    0 -0.22001410375E-01  0.15458343968E-01  0.14736623430E-02  0.26934276646E-01  0.51100000000E-03 0. -1.
</event>
<event>
 8    1  0.1128641E+005  0.1043930E+01  0.7957747E-01            NaN
         13   -1    0    0    0    0  0.00000000000E+00  0.00000000000E+00  0.74505805969E-08  0.10566000000E+00  0.10566000000E+00 0. -1.
     999900   -1    0    0    0    0 -0.00000000000E+00 -0.00000000000E+00 -0.74505805969E-08  0.93827000000E+00  0.93827000000E+00 0.  1.
     999902    2    1    2    0    0  0.22729506799E-01 -0.87841728468E-03 -0.65305927945E-02  0.10202646088E+01  0.10199901084E+01 0.  0.
     999903    2    3    3    0    0 -0.10540970235E+00  0.57672228052E-01  0.38942997670E-01  0.12789939078E+00  0.20109844759E-01 0.  0.
         14    1    1    2    0    0 -0.22729506799E-01  0.87841728468E-03  0.65305927945E-02  0.23665391155E-01  0.00000000000E+00 0. -1.
     999901    1    3    3    0    0  0.12813920915E+00 -0.58550645337E-01 -0.45473590465E-01  0.89236521807E+00  0.88000000000E+00 0.  1.
        -11    1    4    4    0    0 -0.23564937689E-01  0.10983315024E-01  0.17257923522E-01  0.31209558511E-01  0.51100000000E-03 0.  1.
         11    1    4    4    0    0 -0.81844764657E-01  0.46688913029E-01  0.21685074148E-01  0.96689832265E-01  0.51100000000E-03 0. -1.
</event>
<event>
 8    1  0.1128641E+005  0.1043930E+01  0.7957747E-01            NaN
         13   -1    0    0    0    0  0.00000000000E+00  0.00000000000E+00  0.74505805969E-08  0.10566000000E+00  0.10566000000E+00 0.  1.
     999900   -1    0    0    0    0 -0.00000000000E+00 -0.00000000000E+00 -0.74505805969E-08  0.93827000000E+00  0.93827000000E+00 0.  1.
     999902    2    1    2    0    0 -0.13107363369E-01 -0.16949662614E-01  0.10191518616E-01  0.10202031989E+01  0.10199272553E+01 0.  0.
     999903    2    3    3    0    0  0.12346707397E+00 -0.33673813570E-01 -0.71596881689E-03  0.12944439463E+00  0.19424073036E-01 0.  0.
         14    1    1    2    0    0  0.13107363369E-01  0.16949662614E-01 -0.10191518616E-01  0.23726801068E-01  0.00000000000E+00 0.  1.
     999901    1    3    3    0    0 -0.13657443734E+00  0.16724150956E-01  0.10907487433E-01  0.89075880430E+00  0.88000000000E+00 0.  1.
        -11    1    4    4    0    0  0.10219754975E+00 -0.34652495012E-01 -0.34656565739E-02  0.10796947013E+00  0.51100000000E-03 0.  1.
         11    1    4    4    0    0  0.21269524229E-01  0.97868144207E-03  0.27496877570E-02  0.21474924495E-01  0.51100000000E-03 0. -1.
</event>
<event>
 8    1  0.1128641E+005  0.1043930E+01  0.7957747E-01            NaN
         13   -1    0    0    0    0  0.00000000000E+00  0.00000000000E+00  0.74505805969E-08  0.10566000000E+00  0.10566000000E+00 0.  1.
     999900   -1    0    0    0    0 -0.00000000000E+00 -0.00000000000E+00 -0.74505805969E-08  0.93827000000E+00  0.93827000000E+00 0.  1.
     999902    2    1    2    0    0 -0.18197002473E-01  0.72186464851E-02 -0.14540917483E-01  0.10195439786E+01  0.10192522977E+01 0.  0.
     999903    2    3    3    0    0  0.34613886884E-01 -0.88269999089E-01 -0.86455731448E-01  0.12989302915E+00  0.20196326854E-01 0.  0.
         14    1    1    2    0    0  0.18197002473E-01 -0.72186464851E-02  0.14540917483E-01  0.24386021351E-01  0.00000000000E+00 0.  1.
     999901    1    3    3    0    0 -0.52810889358E-01  0.95488645574E-01  0.71914813965E-01  0.88965094949E+00  0.88000000000E+00 0. -1.
        -11    1    4    4    0    0  0.16000273340E-01 -0.20618677330E-01 -0.30507014660E-01  0.40150686996E-01  0.51100000000E-03 0. -1.
         11    1    4    4    0    0  0.18613613544E-01 -0.67651321759E-01 -0.55948716787E-01  0.89742342158E-01  0.51100000000E-03 0.  1.
</event>
<event>
 8    1  0.1128641E+005  0.1043930E+01  0.7957747E-01            NaN
         13   -1    0    0    0    0  0.00000000000E+00  0.00000000000E+00  0.74505805969E-08  0.10566000000E+00  0.10566000000E+00 0. -1.
     999900   -1    0    0    0    0 -0.00000000000E+00 -0.00000000000E+00 -0.74505805969E-08  0.93827000000E+00  0.93827000000E+00 0. -1.
     999902    2    1    2    0    0  0.21961291450E-01  0.11086217348E-02 -0.76000945010E-02  0.10206643859E+01  0.10203991865E+01 0.  0.
     999903    2    3    3    0    0 -0.11756364667E+00  0.38277637597E-01 -0.29562246898E-01  0.12862678564E+00  0.19609563578E-01 0.  0.
         14    1    1    2    0    0 -0.21961291450E-01 -0.11086217348E-02  0.76000945010E-02  0.23265614128E-01  0.00000000000E+00 0. -1.
     999901    1    3    3    0    0  0.13952493812E+00 -0.37169015863E-01  0.21962152397E-01  0.89203760024E+00  0.88000000000E+00 0.  1.
        -11    1    4    4    0    0 -0.28688785596E-01  0.18387163461E-01 -0.68112896154E-02  0.34753258644E-01  0.51100000000E-03 0.  1.
         11    1    4    4    0    0 -0.88874861071E-01  0.19890474136E-01 -0.22750957283E-01  0.93873526993E-01  0.51100000000E-03 0. -1.
</event>
<event>
 8    1  0.1128641E+005  0.1043930E+01  0.7957747E-01            NaN
         13   -1    0    0    0    0  0.00000000000E+00  0.00000000000E+00  0.74505805969E-08  0.10566000000E+00  0.10566000000E+00 0. -1.
     999900   -1    0    0    0    0 -0.00000000000E+00 -0.00000000000E+00 -0.74505805969E-08  0.93827000000E+00  0.93827000000E+00 0. -1.
     999902    2    1    2    0    0  0.23259573546E-01 -0.19021054321E-02 -0.57794952301E-02  0.10198877802E+01  0.10196043624E+01 0.  0.
     999903    2    3    3    0    0  0.36309850122E-01 -0.12272202920E+00  0.20032086409E-01  0.13116172488E+00  0.20567253584E-01 0.  0.
         14    1    1    2    0    0 -0.23259573546E-01  0.19021054321E-02  0.57794952301E-02  0.24042219775E-01  0.00000000000E+00 0. -1.
     999901    1    3    3    0    0 -0.13050276576E-01  0.12081992377E+00 -0.25811581639E-01  0.88872605534E+00  0.88000000000E+00 0.  1.
        -11    1    4    4    0    0  0.18790695767E-01 -0.68627526923E-01  0.88248991621E-03  0.71160857277E-01  0.51100000000E-03 0.  1.
         11    1    4    4    0    0  0.17519154355E-01 -0.54094502282E-01  0.19149596493E-01  0.60000867604E-01  0.51100000000E-03 0. -1.
</event>
<event>
 8    1  0.1128641E+005  0.1043930E+01  0.7957747E-01            NaN
         13   -1    0    0    0    0  0.00000000000E+00  0.00000000000E+00  0.74505805969E-08  0.10566000000E+00  0.10566000000E+00 0.  1.
     999900   -1    0    0    0    0 -0.00000000000E+00 -0.00000000000E+00 -0.74505805969E-08  0.93827000000E+00  0.93827000000E+00 0. -1.
     999902    2    1    2    0    0 -0.12075277801E-01  0.20019986342E-01  0.47678961637E-03  0.10205454000E+01  0.10202774495E+01 0.  0.
     999903    2    3    3    0    0 -0.63231315228E-01  0.11493521364E+00  0.19233742576E-01  0.13376602284E+00  0.17751322565E-01 0.  0.
         14    1    1    2    0    0  0.12075277801E-01 -0.20019986342E-01 -0.47678961637E-03  0.23384599963E-01  0.00000000000E+00 0.  1.
     999901    1    3    3    0    0  0.51156037428E-01 -0.94915227299E-01 -0.18756952959E-01  0.88677937720E+00  0.88000000000E+00 0. -1.
        -11    1    4    4    0    0 -0.33403447683E-02  0.16934583772E-01 -0.25790444510E-03  0.17270369608E-01  0.51100000000E-03 0. -1.
         11    1    4    4    0    0 -0.59890970460E-01  0.98000629868E-01  0.19491647021E-01  0.11649565323E+00  0.51100000000E-03 0.  1.
</event>
<event>
 8    1  0.1128641E+005  0.1043930E+01  0.7957747E-01            NaN
         13   -1    0    0    0    0  0.00000000000E+00  0.00000000000E+00  0.74505805969E-08  0.10566000000E+00  0.10566000000E+00 0.  1.
     999900   -1    0    0    0    0 -0.00000000000E+00 -0.00000000000E+00 -0.74505805969E-08  0.93827000000E+00  0.93827000000E+00 0.  1.
     999902    2    1    2    0    0 -0.10546197820E-01  0.16086985261E-01 -0.16809932092E-01  0.10183842137E+01  0.10180637600E+01 0.  0.
     999903    2    3    3    0    0  0.55814791775E-01 -0.92268340793E-01  0.61769070396E-01  0.12579286412E+00  0.19485607833E-01 0.  0.
         14    1    1    2    0    0  0.10546197820E-01 -0.16086985261E-01  0.16809932092E-01  0.25545786349E-01  0.00000000000E+00 0.  1.
     999901    1    3    3    0    0 -0.66360989595E-01  0.10835532605E+00 -0.78579002488E-01  0.89259134953E+00  0.88000000000E+00 0.  1.
        -11    1    4    4    0    0  0.10777986612E-01 -0.73091981948E-02  0.40814495112E-02  0.13656819717E-01  0.51100000000E-03 0. -1.
         11    1    4    4    0    0  0.45036805163E-01 -0.84959142598E-01  0.57687620885E-01  0.11213604440E+00  0.51100000000E-03 0.  1.
</event>
<event>
 8    1  0.1128641E+005  0.1043930E+01  0.7957747E-01            NaN
         13   -1    0    0    0    0  0.00000000000E+00  0.00000000000E+00  0.74505805969E-08  0.10566000000E+00  0.10566000000E+00 0. -1.
     999900   -1    0    0    0    0 -0.00000000000E+00 -0.00000000000E+00 -0.74505805969E-08  0.93827000000E+00  0.93827000000E+00 0.  1.
     999902    2    1    2    0    0  0.13903483532E-01  0.19203749530E-01  0.92284335313E-02  0.10184887965E+01  0.10181709944E+01 0.  0.
     999903    2    3    3    0    0  0.12412829262E+00 -0.34113130528E-02  0.36036708075E-01  0.13091928757E+00  0.20536441841E-01 0.  0.
         14    1    1    2    0    0 -0.13903483532E-01 -0.19203749530E-01 -0.92284335313E-02  0.25441203505E-01  0.00000000000E+00 0.  1.
     999901    1    3    3    0    0 -0.11022480909E+00  0.22615062583E-01 -0.26808274544E-01  0.88756950893E+00  0.88000000000E+00 0. -1.
        -11    1    4    4    0    0  0.15540756677E-01  0.63654855238E-02  0.38102071074E-02  0.17228271046E-01  0.51100000000E-03 0.  1.
         11    1    4    4    0    0  0.10858753594E+00 -0.97767985766E-02  0.32226500968E-01  0.11369101652E+00  0.51100000000E-03 0. -1.
</event>
<event>
 8    1  0.1128641E+005  0.1043930E+01  0.7957747E-01            NaN
         13   -1    0    0    0    0  0.00000000000E+00  0.00000000000E+00  0.74505805969E-08  0.10566000000E+00  0.10566000000E+00 0. -1.
     999900   -1    0    0    0    0 -0.00000000000E+00 -0.00000000000E+00 -0.74505805969E-08  0.93827000000E+00  0.93827000000E+00 0.  1.
     999902    2    1    2    0    0 -0.25113211310E-02 -0.17265146384E-01 -0.16411662322E-01  0.10199772408E+01  0.10196959532E+01 0.  0.
     999903    2    3    3    0    0  0.17249096862E-01 -0.12234996939E+00  0.40627181145E-01  0.13167170563E+00  0.20489603767E-01 0.  0.
         14    1    1    2    0    0  0.25113211310E-02  0.17265146384E-01  0.16411662322E-01  0.23952759207E-01  0.00000000000E+00 0.  1.
     999901    1    3    3    0    0 -0.19760417993E-01  0.10508482300E+00 -0.57038843467E-01  0.88830553517E+00  0.88000000000E+00 0.  1.
        -11    1    4    4    0    0  0.64482062775E-02 -0.11587691612E-01  0.87921421876E-02  0.15919071780E-01  0.51100000000E-03 0.  1.
         11    1    4    4    0    0  0.10800890584E-01 -0.11076227778E+00  0.31835038957E-01  0.11575263385E+00  0.51100000000E-03 0. -1.
</event>
<event>
 8    1  0.1128641E+005  0.1043930E+01  0.7957747E-01            NaN
         13   -1    0    0    0    0  0.00000000000E+00  0.00000000000E+00  0.74505805969E-08  0.10566000000E+00  0.10566000000E+00 0. -1.
     999900   -1    0    0    0    0 -0.00000000000E+00 -0.00000000000E+00 -0.74505805969E-08  0.93827000000E+00  0.93827000000E+00 0. -1.
     999902    2    1    2    0    0  0.11261629520E-01  0.35278266295E-02 -0.18681166947E-01  0.10218334876E+01  0.10215945480E+01 0.  0.
     999903    2    3    3    0    0  0.10982319383E+00 -0.34613084576E-01  0.61071738716E-01  0.13192920232E+00  0.20404843212E-01 0.  0.
         14    1    1    2    0    0 -0.11261629520E-01 -0.35278266295E-02  0.18681166947E-01  0.22096512365E-01  0.00000000000E+00 0. -1.
     999901    1    3    3    0    0 -0.98561564313E-01  0.38140911206E-01 -0.79752905664E-01  0.88990428532E+00  0.88000000000E+00 0. -1.
        -11    1    4    4    0    0  0.39316404646E-01 -0.41375394494E-02  0.14564340298E-01  0.42134072155E-01  0.51100000000E-03 0. -1.
         11    1    4    4    0    0  0.70506789186E-01 -0.30475545127E-01  0.46507398418E-01  0.89795130161E-01  0.51100000000E-03 0.  1.
</event>
<event>
 8    1  0.1128641E+005  0.1043930E+01  0.7957747E-01            NaN
         13   -1    0    0    0    0  0.00000000000E+00  0.00000000000E+00  0.74505805969E-08  0.10566000000E+00  0.10566000000E+00 0. -1.
     999900   -1    0    0    0    0 -0.00000000000E+00 -0.00000000000E+00 -0.74505805969E-08  0.93827000000E+00  0.93827000000E+00 0. -1.
     999902    2    1    2    0    0  0.10628962448E-01 -0.18265603086E-01  0.83797885071E-02  0.10211961496E+01  0.10209430679E+01 0.  0.
     999903    2    3    3    0    0 -0.78045131048E-01 -0.76079128479E-01 -0.65484262004E-01  0.13177982608E+00  0.34621636606E-01 0.  0.
         14    1    1    2    0    0 -0.10628962448E-01  0.18265603086E-01 -0.83797885071E-02  0.22733850405E-01  0.00000000000E+00 0.  1.
     999901    1    3    3    0    0  0.88674093495E-01  0.57813525393E-01  0.73864050511E-01  0.88941632351E+00  0.88000000000E+00 0. -1.
        -11    1    4    4    0    0 -0.32885562465E-01 -0.46942456977E-01 -0.49429625289E-01  0.75687538360E-01  0.51100000000E-03 0.  1.
         11    1    4    4    0    0 -0.45159568582E-01 -0.29136671502E-01 -0.16054636715E-01  0.56092287721E-01  0.51100000000E-03 0. -1.
</event>
<event>
 8    1  0.1217954E+005  0.1043930E+01  0.7957747E-01            NaN
         13   -1    0    0    0    0  0.00000000000E+00  0.00000000000E+00  0.74505805969E-08  0.10566000000E+00  0.10566000000E+00 0. -1.
     999900   -1    0    0    0    0 -0.00000000000E+00 -0.00000000000E+00 -0.74505805969E-08  0.93827000000E+00  0.93827000000E+00 0. -1.
     999902    2    1    2    0    0 -0.50209205056E-03  0.66911939651E-02  0.22367086831E-01  0.10205781104E+01  0.10203109177E+01 0.  0.
     999903    2    3    3    0    0 -0.11283269438E+00 -0.45369228284E-01 -0.40963337077E-01  0.12965769065E+00  0.18534777203E-01 0.  0.
         14    1    1    2    0    0  0.50209205056E-03 -0.66911939651E-02 -0.22367086831E-01  0.23351889569E-01  0.00000000000E+00 0.  1.
     999901    1    3    3    0    0  0.11233060233E+00  0.52060422249E-01  0.63330423908E-01  0.89092041978E+00  0.88000000000E+00 0. -1.
        -11    1    4    4    0    0 -0.56320113021E-01 -0.27203298726E-01 -0.12335894604E-01  0.63752725503E-01  0.51100000000E-03 0.  1.
         11    1    4    4    0    0 -0.56512581355E-01 -0.18165929558E-01 -0.28627442473E-01  0.65904965152E-01  0.51100000000E-03 0. -1.
</event>
<event>
 8    1  0.1128641E+005  0.1043930E+01  0.7957747E-01            NaN
         13   -1    0    0    0    0  0.00000000000E+00  0.00000000000E+00  0.74505805969E-08  0.10566000000E+00  0.10566000000E+00 0. -1.
     999900   -1    0    0    0    0 -0.00000000000E+00 -0.00000000000E+00 -0.74505805969E-08  0.93827000000E+00  0.93827000000E+00 0. -1.
     999902    2    1    2    0    0  0.38304406302E-02 -0.18540893166E-01 -0.28827062664E-01  0.10094417913E+01  0.10088524637E+01 0.  0.
     999903    2    3    3    0    0 -0.51417754037E-01  0.22341375681E-01  0.10035238587E+00  0.11735936642E+00  0.23657917048E-01 0.  0.
         14    1    1    2    0    0 -0.38304406302E-02  0.18540893166E-01  0.28827062664E-01  0.34488208661E-01  0.00000000000E+00 0. -1.
     999901    1    3    3    0    0  0.55248194667E-01 -0.40882268847E-01 -0.12917944854E+00  0.89208242492E+00  0.88000000000E+00 0. -1.
        -11    1    4    4    0    0 -0.30997628211E-01  0.19185090031E-01  0.42883015753E-01  0.56286186541E-01  0.51100000000E-03 0. -1.
         11    1    4    4    0    0 -0.20420125826E-01  0.31562856495E-02  0.57469370120E-01  0.61073179881E-01  0.51100000000E-03 0.  1.
</event>
<event>
 8    1  0.1128641E+005  0.1043930E+01  0.7957747E-01            NaN
         13   -1    0    0    0    0  0.00000000000E+00  0.00000000000E+00  0.74505805969E-08  0.10566000000E+00  0.10566000000E+00 0.  1.
     999900   -1    0    0    0    0 -0.00000000000E+00 -0.00000000000E+00 -0.74505805969E-08  0.93827000000E+00  0.93827000000E+00 0. -1.
     999902    2    1    2    0    0 -0.22350343704E-01 -0.55800252235E-02 -0.82456134261E-02  0.10194623747E+01  0.10191687146E+01 0.  0.
     999903    2    3    3    0    0  0.10804126247E-01  0.18817094288E-01 -0.12709515611E+00  0.13051937763E+00  0.20280952852E-01 0.  0.
         14    1    1    2    0    0  0.22350343704E-01  0.55800252235E-02  0.82456134261E-02  0.24467625262E-01  0.00000000000E+00 0.  1.
     999901    1    3    3    0    0 -0.33154469951E-01 -0.24397119512E-01  0.11884954268E+00  0.88894299711E+00  0.88000000000E+00 0. -1.
        -11    1    4    4    0    0  0.12514009621E-01  0.41952793687E-02 -0.82598237190E-01  0.83647658148E-01  0.51100000000E-03 0.  1.
         11    1    4    4    0    0 -0.17098833743E-02  0.14621814919E-01 -0.44496918918E-01  0.46871719479E-01  0.51100000000E-03 0. -1.
</event>
<event>
 8    1  0.1128641E+005  0.1043930E+01  0.7957747E-01            NaN
         13   -1    0    0    0    0  0.00000000000E+00  0.00000000000E+00  0.74505805969E-08  0.10566000000E+00  0.10566000000E+00 0.  1.
     999900   -1    0    0    0    0 -0.00000000000E+00 -0.00000000000E+00 -0.74505805969E-08  0.93827000000E+00  0.93827000000E+00 0.  1.
     999902    2    1    2    0    0  0.10204227868E-01  0.14778266719E-01  0.15519411526E-01  0.10201944661E+01  0.10199183169E+01 0.  0.
     999903    2    3    3    0    0 -0.12102751254E-01 -0.11475165866E+00 -0.51122651674E-01  0.12794070881E+00  0.20997135551E-01 0.  0.
         14    1    1    2    0    0 -0.10204227868E-01 -0.14778266719E-01 -0.15519411526E-01  0.23735533862E-01  0.00000000000E+00 0. -1.
     999901    1    3    3    0    0  0.22306979122E-01  0.12952992538E+00  0.66642063200E-01  0.89225375733E+00  0.88000000000E+00 0.  1.
        -11    1    4    4    0    0 -0.80962338596E-02 -0.22615854618E-01 -0.17717309309E-01  0.29852806450E-01  0.51100000000E-03 0. -1.
         11    1    4    4    0    0 -0.40065173943E-02 -0.92135804046E-01 -0.33405342365E-01  0.98087902355E-01  0.51100000000E-03 0.  1.
</event>
<event>
 8    1  0.1128641E+005  0.1043930E+01  0.7957747E-01            NaN
         13   -1    0    0    0    0  0.00000000000E+00  0.00000000000E+00  0.74505805969E-08  0.10566000000E+00  0.10566000000E+00 0. -1.
     999900   -1    0    0    0    0 -0.00000000000E+00 -0.00000000000E+00 -0.74505805969E-08  0.93827000000E+00  0.93827000000E+00 0.  1.
     999902    2    1    2    0    0  0.92831329343E-02 -0.13437451077E-01 -0.18026829112E-01  0.10196049467E+01  0.10193147400E+01 0.  0.
     999903    2    3    3    0    0 -0.31640546423E-01  0.11852263590E-01  0.12069310570E+00  0.12744042294E+00  0.23078893081E-01 0.  0.
         14    1    1    2    0    0 -0.92831329343E-02  0.13437451077E-01  0.18026829112E-01  0.24325053265E-01  0.00000000000E+00 0. -1.
     999901    1    3    3    0    0  0.40923679358E-01 -0.25289714667E-01 -0.13871993481E+00  0.89216452379E+00  0.88000000000E+00 0.  1.
        -11    1    4    4    0    0 -0.32033550421E-01  0.14083739555E-01  0.88569666097E-01  0.95233118956E-01  0.51100000000E-03 0.  1.
         11    1    4    4    0    0  0.39300399778E-03 -0.22314759656E-02  0.32123439603E-01  0.32207303987E-01  0.51100000000E-03 0. -1.
</event>
<event>
 8    1  0.1128641E+005  0.1043930E+01  0.7957747E-01            NaN
         13   -1    0    0    0    0  0.00000000000E+00  0.00000000000E+00  0.74505805969E-08  0.10566000000E+00  0.10566000000E+00 0. -1.
     999900   -1    0    0    0    0 -0.00000000000E+00 -0.00000000000E+00 -0.74505805969E-08  0.93827000000E+00  0.93827000000E+00 0.  1.
     999902    2    1    2    0    0  0.82169368166E-02 -0.28711354694E-02 -0.21130105309E-01  0.10210773673E+01  0.10208216040E+01 0.  0.
     999903    2    3    3    0    0 -0.30611600883E-01  0.35224371442E-01 -0.12342718818E+00  0.13348308155E+00  0.20140402851E-01 0.  0.
         14    1    1    2    0    0 -0.82169368166E-02  0.28711354694E-02  0.21130105309E-01  0.22852632669E-01  0.00000000000E+00 0. -1.
     999901    1    3    3    0    0  0.38828537699E-01 -0.38095506911E-01  0.10229708287E+00  0.88759428578E+00  0.88000000000E+00 0. -1.
        -11    1    4    4    0    0 -0.24866608463E-01  0.24586441849E-01 -0.64952611950E-01  0.73769534764E-01  0.51100000000E-03 0.  1.
         11    1    4    4    0    0 -0.57449924201E-02  0.10637929593E-01 -0.58474576226E-01  0.59713546786E-01  0.51100000000E-03 0. -1.
</event>
<event>
 8    1  0.1128641E+005  0.1043930E+01  0.7957747E-01            NaN
         13   -1    0    0    0    0  0.00000000000E+00  0.00000000000E+00  0.74505805969E-08  0.10566000000E+00  0.10566000000E+00 0.  1.
     999900   -1    0    0    0    0 -0.00000000000E+00 -0.00000000000E+00 -0.74505805969E-08  0.93827000000E+00  0.93827000000E+00 0. -1.
     999902    2    1    2    0    0  0.76660223540E-02  0.11790887052E-01  0.19945946022E-01  0.10195243925E+01  0.10192322371E+01 0.  0.
     999903    2    3    3    0    0  0.89619842566E-01  0.90390036264E-01  0.30338504998E-01  0.13216749686E+00  0.18594286851E-01 0.  0.
         14    1    1    2    0    0 -0.76660223540E-02 -0.11790887052E-01 -0.19945946022E-01  0.24405607530E-01  0.00000000000E+00 0.  1.
     999901    1    3    3    0    0 -0.81953820212E-01 -0.78599149213E-01 -0.10392558976E-01  0.88735689561E+00  0.88000000000E+00 0. -1.
        -11    1    4    4    0    0  0.66214670514E-01  0.64132174862E-01  0.30152251332E-01  0.96988338605E-01  0.51100000000E-03 0. -1.
         11    1    4    4    0    0  0.23405172052E-01  0.26257861402E-01  0.18625366564E-03  0.35179158256E-01  0.51100000000E-03 0.  1.
</event>
<event>
 8    1  0.1128641E+005  0.1043930E+01  0.7957747E-01            NaN
         13   -1    0    0    0    0  0.00000000000E+00  0.00000000000E+00  0.74505805969E-08  0.10566000000E+00  0.10566000000E+00 0.  1.
     999900   -1    0    0    0    0 -0.00000000000E+00 -0.00000000000E+00 -0.74505805969E-08  0.93827000000E+00  0.93827000000E+00 0.  1.
     999902    2    1    2    0    0 -0.80808974101E-02 -0.18263330258E-01  0.11225376323E-01  0.10210201940E+01  0.10207631348E+01 0.  0.
     999903    2    3    3    0    0  0.40222414516E-01  0.94222268542E-01  0.77447290437E-01  0.13008160930E+00  0.20675196839E-01 0.  0.
         14    1    1    2    0    0  0.80808974101E-02  0.18263330258E-01 -0.11225376323E-01  0.22909805950E-01  0.00000000000E+00 0. -1.
     999901    1    3    3    0    0 -0.48303311926E-01 -0.11248559880E+00 -0.66221914114E-01  0.89093858475E+00  0.88000000000E+00 0.  1.
        -11    1    4    4    0    0  0.12409749628E-01  0.54858442523E-01  0.44010042342E-01  0.71418453847E-01  0.51100000000E-03 0. -1.
         11    1    4    4    0    0  0.27812664888E-01  0.39363826019E-01  0.33437248095E-01  0.58663155457E-01  0.51100000000E-03 0.  1.
</event>
<event>
 8    1  0.1128641E+005  0.1043930E+01  0.7957747E-01            NaN
         13   -1    0    0    0    0  0.00000000000E+00  0.00000000000E+00  0.74505805969E-08  0.10566000000E+00  0.10566000000E+00 0. -1.
     999900   -1    0    0    0    0 -0.00000000000E+00 -0.00000000000E+00 -0.74505805969E-08  0.93827000000E+00  0.93827000000E+00 0.  1.
     999902    2    1    2    0    0  0.18146839005E-01 -0.26062533489E-01  0.41715382201E-02  0.10118993093E+01  0.10113922320E+01 0.  0.
     999903    2    3    3    0    0  0.46605969468E-01 -0.89769134516E-01  0.73129583130E-01  0.12644820103E+00  0.20263210827E-01 0.  0.
         14    1    1    2    0    0 -0.18146839005E-01  0.26062533489E-01 -0.41715382201E-02  0.32030690733E-01  0.00000000000E+00 0. -1.
     999901    1    3    3    0    0 -0.28459130463E-01  0.63706601027E-01 -0.68958044910E-01  0.88545110824E+00  0.88000000000E+00 0. -1.
        -11    1    4    4    0    0  0.16120166521E-01 -0.33838394121E-01  0.15558659999E-01  0.40586077753E-01  0.51100000000E-03 0. -1.
         11    1    4    4    0    0  0.30485802947E-01 -0.55930740394E-01  0.57570923132E-01  0.85862123277E-01  0.51100000000E-03 0.  1.
</event>
<event>
 8    1  0.1128641E+005  0.1043930E+01  0.7957747E-01            NaN
         13   -1    0    0    0    0  0.00000000000E+00  0.00000000000E+00  0.74505805969E-08  0.10566000000E+00  0.10566000000E+00 0. -1.
     999900   -1    0    0    0    0 -0.00000000000E+00 -0.00000000000E+00 -0.74505805969E-08  0.93827000000E+00  0.93827000000E+00 0.  1.
     999902    2    1    2    0    0  0.16455545005E-01  0.88782701527E-03 -0.19412308930E-01  0.10184660856E+01  0.10181477086E+01 0.  0.
     999903    2    3    3    0    0 -0.38827650776E-01  0.10397770009E+00 -0.63950781423E-01  0.12960871280E+00  0.19742527887E-01 0.  0.
         14    1    1    2    0    0 -0.16455545005E-01 -0.88782701527E-03  0.19412308930E-01  0.25463914393E-01  0.00000000000E+00 0. -1.
     999901    1    3    3    0    0  0.55283195781E-01 -0.10308987308E+00  0.44538472493E-01  0.88885737281E+00  0.88000000000E+00 0. -1.
        -11    1    4    4    0    0 -0.31489824414E-01  0.85459087758E-01 -0.60617954771E-01  0.10940595177E+00  0.51100000000E-03 0.  1.
         11    1    4    4    0    0 -0.73378263620E-02  0.18518612332E-01 -0.33328266520E-02  0.20202761022E-01  0.51100000000E-03 0. -1.
</event>
<event>
 8    1  0.1128641E+005  0.1043930E+01  0.7957747E-01            NaN
         13   -1    0    0    0    0  0.00000000000E+00  0.00000000000E+00  0.74505805969E-08  0.10566000000E+00  0.10566000000E+00 0. -1.
     999900   -1    0    0    0    0 -0.00000000000E+00 -0.00000000000E+00 -0.74505805969E-08  0.93827000000E+00  0.93827000000E+00 0.  1.
     999902    2    1    2    0    0  0.18796332100E-01 -0.15351698705E-01  0.57721837744E-04  0.10196610881E+01  0.10193722355E+01 0.  0.
     999903    2    3    3    0    0 -0.37630069202E-01 -0.11143977671E+00 -0.54075187616E-01  0.13098385231E+00  0.19944866738E-01 0.  0.
         14    1    1    2    0    0 -0.18796332100E-01  0.15351698705E-01 -0.57721837744E-04  0.24268911911E-01  0.00000000000E+00 0.  1.
     999901    1    3    3    0    0  0.56426401302E-01  0.96088078008E-01  0.54132909454E-01  0.88867723578E+00  0.88000000000E+00 0. -1.
        -11    1    4    4    0    0 -0.23829705638E-01 -0.93527856837E-01 -0.46473682792E-01  0.10712319631E+00  0.51100000000E-03 0. -1.
         11    1    4    4    0    0 -0.13800363563E-01 -0.17911919876E-01 -0.76015048244E-02  0.23860655999E-01  0.51100000000E-03 0.  1.
</event>
<event>
 8    1  0.1128641E+005  0.1043930E+01  0.7957747E-01            NaN
         13   -1    0    0    0    0  0.00000000000E+00  0.00000000000E+00  0.74505805969E-08  0.10566000000E+00  0.10566000000E+00 0. -1.
     999900   -1    0    0    0    0 -0.00000000000E+00 -0.00000000000E+00 -0.74505805969E-08  0.93827000000E+00  0.93827000000E+00 0.  1.
     999902    2    1    2    0    0 -0.13733707902E-01  0.39527549968E-02  0.18561732660E-01  0.10205040118E+01  0.10202351009E+01 0.  0.
     999903    2    3    3    0    0 -0.94118896796E-01  0.29565863026E-01  0.87961351387E-01  0.13374918829E+00  0.20472885496E-01 0.  0.
         14    1    1    2    0    0  0.13733707902E-01 -0.39527549968E-02 -0.18561732660E-01  0.23425988221E-01  0.00000000000E+00 0.  1.
     999901    1    3    3    0    0  0.80385188894E-01 -0.25613108029E-01 -0.69399618728E-01  0.88675482349E+00  0.88000000000E+00 0.  1.
        -11    1    4    4    0    0 -0.65582230204E-01  0.25300164409E-01  0.72607919255E-01  0.10106086432E+00  0.51100000000E-03 0. -1.
         11    1    4    4    0    0 -0.28536666592E-01  0.42656986168E-02  0.15353432132E-01  0.32688323972E-01  0.51100000000E-03 0.  1.
</event>
<event>
 8    1  0.1128641E+005  0.1043930E+01  0.7957747E-01            NaN
         13   -1    0    0    0    0  0.00000000000E+00  0.00000000000E+00  0.74505805969E-08  0.10566000000E+00  0.10566000000E+00 0.  1.
     999900   -1    0    0    0    0 -0.00000000000E+00 -0.00000000000E+00 -0.74505805969E-08  0.93827000000E+00  0.93827000000E+00 0. -1.
     999902    2    1    2    0    0  0.17127291754E-01  0.49640462557E-02 -0.15402199971E-01  0.10203670282E+01  0.10200949262E+01 0.  0.
     999903    2    3    3    0    0 -0.59859065963E-01  0.79427831382E-01  0.79460934556E-01  0.12881177532E+00  0.19660751893E-01 0.  0.
         14    1    1    2    0    0 -0.17127291754E-01 -0.49640462557E-02  0.15402199971E-01  0.23562971841E-01  0.00000000000E+00 0.  1.
     999901    1    3    3    0    0  0.76986357716E-01 -0.74463785127E-01 -0.94863134526E-01  0.89155525284E+00  0.88000000000E+00 0. -1.
        -11    1    4    4    0    0 -0.23145721487E-01  0.30820299888E-01  0.18965571012E-01  0.42960089771E-01  0.51100000000E-03 0.  1.
         11    1    4    4    0    0 -0.36713344476E-01  0.48607531495E-01  0.60495363543E-01  0.85851685551E-01  0.51100000000E-03 0. -1.
</event>
<event>
 8    1  0.1128641E+005  0.1043930E+01  0.7957747E-01            NaN
         13   -1    0    0    0    0  0.00000000000E+00  0.00000000000E+00  0.74505805969E-08  0.10566000000E+00  0.10566000000E+00 0.  1.
     999900   -1    0    0    0    0 -0.00000000000E+00 -0.00000000000E+00 -0.74505805969E-08  0.93827000000E+00  0.93827000000E+00 0.  1.
     999902    2    1    2    0    0  0.89226502872E-02 -0.32271623920E-01  0.76748198329E-03  0.10104388008E+01  0.10098836119E+01 0.  0.
     999903    2    3    3    0    0  0.31267701685E-01  0.61739525657E-01  0.95784721192E-01  0.12006490552E+00  0.21246894498E-01 0.  0.
         14    1    1    2    0    0 -0.89226502872E-02  0.32271623920E-01 -0.76748198329E-03  0.33491199250E-01  0.00000000000E+00 0.  1.
     999901    1    3    3    0    0 -0.22345051398E-01 -0.94011149577E-01 -0.95017239209E-01  0.89037389523E+00  0.88000000000E+00 0.  1.
        -11    1    4    4    0    0  0.18380075139E-02  0.11680692452E-01  0.30360525016E-01  0.32585878046E-01  0.51100000000E-03 0. -1.
         11    1    4    4    0    0  0.29429694171E-01  0.50058833205E-01  0.65424196176E-01  0.87479027470E-01  0.51100000000E-03 0.  1.
</event>
<event>
 8    1  0.1128641E+005  0.1043930E+01  0.7957747E-01            NaN
         13   -1    0    0    0    0  0.00000000000E+00  0.00000000000E+00  0.74505805969E-08  0.10566000000E+00  0.10566000000E+00 0.  1.
     999900   -1    0    0    0    0 -0.00000000000E+00 -0.00000000000E+00 -0.74505805969E-08  0.93827000000E+00  0.93827000000E+00 0. -1.
     999902    2    1    2    0    0 -0.35049907045E-02 -0.19676160003E-01 -0.12627584134E-01  0.10202891008E+01  0.10200151750E+01 0.  0.
     999903    2    3    3    0    0  0.16200796402E-01  0.12058038459E+00 -0.36275430968E-01  0.12865047616E+00  0.20807286515E-01 0.  0.
         14    1    1    2    0    0  0.35049907045E-02  0.19676160003E-01  0.12627584134E-01  0.23640899166E-01  0.00000000000E+00 0. -1.
     999901    1    3    3    0    0 -0.19705787107E-01 -0.14025654460E+00  0.23647846834E-01  0.89163862467E+00  0.88000000000E+00 0.  1.
        -11    1    4    4    0    0 -0.47226563806E-02  0.18459324547E-01 -0.35318581130E-02  0.19385182196E-01  0.51100000000E-03 0. -1.
         11    1    4    4    0    0  0.20923452783E-01  0.10212106005E+00 -0.32743572855E-01  0.10926529397E+00  0.51100000000E-03 0.  1.
</event>
<event>
 8    1  0.1128641E+005  0.1043930E+01  0.7957747E-01            NaN
         13   -1    0    0    0    0  0.00000000000E+00  0.00000000000E+00  0.74505805969E-08  0.10566000000E+00  0.10566000000E+00 0. -1.
     999900   -1    0    0    0    0 -0.00000000000E+00 -0.00000000000E+00 -0.74505805969E-08  0.93827000000E+00  0.93827000000E+00 0. -1.
     999902    2    1    2    0    0 -0.12329379349E-02 -0.56504395991E-02 -0.23010529535E-01  0.10202038104E+01  0.10199278811E+01 0.  0.
     999903    2    3    3    0    0 -0.12364327006E+00 -0.14071031932E-01 -0.37894946284E-01  0.13156623430E+00  0.19697585705E-01 0.  0.
         14    1    1    2    0    0  0.12329379349E-02  0.56504395991E-02  0.23010529535E-01  0.23726189604E-01  0.00000000000E+00 0. -1.
     999901    1    3    3    0    0  0.12241033213E+00  0.84205923333E-02  0.14884416749E-01  0.88863757610E+00  0.88000000000E+00 0.  1.
        -11    1    4    4    0    0 -0.81187048851E-01 -0.41917058560E-02 -0.32845727116E-01  0.87681299089E-01  0.51100000000E-03 0. -1.
         11    1    4    4    0    0 -0.42456221213E-01 -0.98793260764E-02 -0.50492191683E-02  0.43884935212E-01  0.51100000000E-03 0.  1.
</event>
<event>
 8    1  0.1128641E+005  0.1043930E+01  0.7957747E-01            NaN
         13   -1    0    0    0    0  0.00000000000E+00  0.00000000000E+00  0.74505805969E-08  0.10566000000E+00  0.10566000000E+00 0. -1.
     999900   -1    0    0    0    0 -0.00000000000E+00 -0.00000000000E+00 -0.74505805969E-08  0.93827000000E+00  0.93827000000E+00 0. -1.
     999902    2    1    2    0    0  0.22533588137E-01 -0.46927960121E-02  0.46100943776E-02  0.10204558036E+01  0.10201857719E+01 0.  0.
     999903    2    3    3    0    0 -0.37061984830E-01 -0.92023801808E-01 -0.81571879413E-01  0.12994714582E+00  0.19756476826E-01 0.  0.
         14    1    1    2    0    0 -0.22533588137E-01  0.46927960121E-02 -0.46100943776E-02  0.23474196449E-01  0.00000000000E+00 0.  1.
     999901    1    3    3    0    0  0.59595572968E-01  0.87331005796E-01  0.86181973790E-01  0.89050865773E+00  0.88000000000E+00 0.  1.
        -11    1    4    4    0    0 -0.18552245375E-01 -0.31781090061E-01 -0.40484275482E-01  0.54712532168E-01  0.51100000000E-03 0. -1.
         11    1    4    4    0    0 -0.18509739456E-01 -0.60242711747E-01 -0.41087603931E-01  0.75234613650E-01  0.51100000000E-03 0.  1.
</event>
<event>
 8    1  0.1128641E+005  0.1043930E+01  0.7957747E-01            NaN
         13   -1    0    0    0    0  0.00000000000E+00  0.00000000000E+00  0.74505805969E-08  0.10566000000E+00  0.10566000000E+00 0.  1.
     999900   -1    0    0    0    0 -0.00000000000E+00 -0.00000000000E+00 -0.74505805969E-08  0.93827000000E+00  0.93827000000E+00 0. -1.
     999902    2    1    2    0    0  0.20889801240E-01 -0.10922615724E-01  0.23206429785E-02  0.10202430265E+01  0.10199680193E+01 0.  0.
     999903    2    3    3    0    0  0.12565744670E+00  0.11211809505E-01  0.36966628180E-01  0.13307532160E+00  0.20664245355E-01 0.  0.
         14    1    1    2    0    0 -0.20889801240E-01  0.10922615724E-01 -0.23206429785E-02  0.23686973507E-01  0.00000000000E+00 0.  1.
     999901    1    3    3    0    0 -0.10476764546E+00 -0.22134425228E-01 -0.34645985202E-01  0.88716770489E+00  0.88000000000E+00 0. -1.
        -11    1    4    4    0    0  0.46563497379E-01  0.76569829380E-03  0.39794246435E-02  0.46742299082E-01  0.51100000000E-03 0. -1.
         11    1    4    4    0    0  0.79093949322E-01  0.10446111211E-01  0.32987203537E-01  0.86333022517E-01  0.51100000000E-03 0.  1.
</event>
<event>
 8    1  0.1128641E+005  0.1043930E+01  0.7957747E-01            NaN
         13   -1    0    0    0    0  0.00000000000E+00  0.00000000000E+00  0.74505805969E-08  0.10566000000E+00  0.10566000000E+00 0. -1.
     999900   -1    0    0    0    0 -0.00000000000E+00 -0.00000000000E+00 -0.74505805969E-08  0.93827000000E+00  0.93827000000E+00 0. -1.
     999902    2    1    2    0    0 -0.11179681911E-01  0.90355453666E-02 -0.18363687089E-01  0.10206093788E+01  0.10203429094E+01 0.  0.
     999903    2    3    3    0    0 -0.11475527797E+00  0.38524726327E-01 -0.52318819326E-01  0.13339437283E+00  0.20096554057E-01 0.  0.
         14    1    1    2    0    0  0.11179681911E-01 -0.90355453666E-02  0.18363687089E-01  0.23320621158E-01  0.00000000000E+00 0.  1.
     999901    1    3    3    0    0  0.10357559606E+00 -0.29489180961E-01  0.33955132238E-01  0.88721500602E+00  0.88000000000E+00 0.  1.
        -11    1    4    4    0    0 -0.44148158291E-01  0.90445654138E-02 -0.28215118260E-01  0.53171590755E-01  0.51100000000E-03 0.  1.
         11    1    4    4    0    0 -0.70607119682E-01  0.29480160913E-01 -0.24103701067E-01  0.80222782072E-01  0.51100000000E-03 0. -1.
</event>
<event>
 8    1  0.1139936E+005  0.1043930E+01  0.7957747E-01            NaN
         13   -1    0    0    0    0  0.00000000000E+00  0.00000000000E+00  0.74505805969E-08  0.10566000000E+00  0.10566000000E+00 0.  1.
     999900   -1    0    0    0    0 -0.00000000000E+00 -0.00000000000E+00 -0.74505805969E-08  0.93827000000E+00  0.93827000000E+00 0.  1.
     999902    2    1    2    0    0 -0.14412338550E-01 -0.90535700475E-02 -0.16133669078E-01  0.10204783921E+01  0.10202088859E+01 0.  0.
     999903    2    3    3    0    0  0.11302001682E+00 -0.26968799121E-01  0.51411354037E-01  0.12855782910E+00  0.19574160849E-01 0.  0.
         14    1    1    2    0    0  0.14412338550E-01  0.90535700475E-02  0.16133669078E-01  0.23451607856E-01  0.00000000000E+00 0. -1.
     999901    1    3    3    0    0 -0.12743235537E+00  0.17915229074E-01 -0.67545023115E-01  0.89192056304E+00  0.88000000000E+00 0. -1.
        -11    1    4    4    0    0  0.86035401084E-01 -0.18711741961E-01  0.47559569428E-01  0.10007194058E+00  0.51100000000E-03 0. -1.
         11    1    4    4    0    0  0.26984615732E-01 -0.82570571608E-02  0.38517846085E-02  0.28485888521E-01  0.51100000000E-03 0.  1.
</event>
<event>
 8    1  0.1128641E+005  0.1043930E+01  0.7957747E-01            NaN
         13   -1    0    0    0    0  0.00000000000E+00  0.00000000000E+00  0.74505805969E-08  0.10566000000E+00  0.10566000000E+00 0.  1.
     999900   -1    0    0    0    0 -0.00000000000E+00 -0.00000000000E+00 -0.74505805969E-08  0.93827000000E+00  0.93827000000E+00 0.  1.
     999902    2    1    2    0    0 -0.13913737029E-01 -0.17660214745E-01 -0.38525547140E-02  0.10211195322E+01  0.10208647225E+01 0.  0.
     999903    2    3    3    0    0 -0.78615536861E-01  0.61747189641E-01 -0.83218879586E-01  0.13163042475E+00  0.20200711247E-01 0.  0.
         14    1    1    2    0    0  0.13913737029E-01  0.17660214745E-01  0.38525547140E-02  0.22810467790E-01  0.00000000000E+00 0. -1.
     999901    1    3    3    0    0  0.64701799832E-01 -0.79407404386E-01  0.79366324872E-01  0.88948910746E+00  0.88000000000E+00 0. -1.
        -11    1    4    4    0    0 -0.30529543382E-01  0.25180748977E-01 -0.45961104466E-01  0.60653172900E-01  0.51100000000E-03 0.  1.
         11    1    4    4    0    0 -0.48085993480E-01  0.36566440664E-01 -0.37257775120E-01  0.70977251846E-01  0.51100000000E-03 0. -1.
</event>
<event>
 8    1  0.1128641E+005  0.1043930E+01  0.7957747E-01            NaN
         13   -1    0    0    0    0  0.00000000000E+00  0.00000000000E+00  0.74505805969E-08  0.10566000000E+00  0.10566000000E+00 0. -1.
     999900   -1    0    0    0    0 -0.00000000000E+00 -0.00000000000E+00 -0.74505805969E-08  0.93827000000E+00  0.93827000000E+00 0.  1.
     999902    2    1    2    0    0  0.19027329971E-01 -0.15634441799E-01 -0.50564311884E-02  0.10187895435E+01  0.10184793034E+01 0.  0.
     999903    2    3    3    0    0 -0.87270741224E-01 -0.22725745359E-01 -0.89083526521E-01  0.12839068947E+00  0.20387561629E-01 0.  0.
         14    1    1    2    0    0 -0.19027329971E-01  0.15634441799E-01  0.50564311884E-02  0.25140456490E-01  0.00000000000E+00 0. -1.
     999901    1    3    3    0    0  0.10629807119E+00  0.70913035601E-02  0.84027095332E-01  0.89039885404E+00  0.88000000000E+00 0. -1.
        -11    1    4    4    0    0 -0.68748709837E-01 -0.12707376773E-01 -0.57994090696E-01  0.90837427338E-01  0.51100000000E-03 0.  1.
         11    1    4    4    0    0 -0.18522031387E-01 -0.10018368586E-01 -0.31089435824E-01  0.37553262131E-01  0.51100000000E-03 0. -1.
</event>
<event>
 8    1  0.1128641E+005  0.1043930E+01  0.7957747E-01            NaN
         13   -1    0    0    0    0  0.00000000000E+00  0.00000000000E+00  0.74505805969E-08  0.10566000000E+00  0.10566000000E+00 0.  1.
     999900   -1    0    0    0    0 -0.00000000000E+00 -0.00000000000E+00 -0.74505805969E-08  0.93827000000E+00  0.93827000000E+00 0.  1.
     999902    2    1    2    0    0  0.23743475832E-01 -0.33563118303E-03 -0.69536995220E-03  0.10201739727E+01  0.10198973408E+01 0.  0.
     999903    2    3    3    0    0 -0.10966030489E+00  0.39159742988E-01 -0.48528717496E-01  0.12796072330E+00  0.21448597784E-01 0.  0.
         14    1    1    2    0    0 -0.23743475832E-01  0.33563118303E-03  0.69536995220E-03  0.23756027282E-01  0.00000000000E+00 0. -1.
     999901    1    3    3    0    0  0.13340378072E+00 -0.39495374171E-01  0.47833347544E-01  0.89221324941E+00  0.88000000000E+00 0.  1.
        -11    1    4    4    0    0 -0.12566547573E-01  0.10543237973E-01 -0.19270959664E-02  0.16524309508E-01  0.51100000000E-03 0. -1.
         11    1    4    4    0    0 -0.97093757318E-01  0.28616505015E-01 -0.46601621530E-01  0.11143641380E+00  0.51100000000E-03 0.  1.
</event>
<event>
 8    1  0.1128641E+005  0.1043930E+01  0.7957747E-01            NaN
         13   -1    0    0    0    0  0.00000000000E+00  0.00000000000E+00  0.74505805969E-08  0.10566000000E+00  0.10566000000E+00 0.  1.
     999900   -1    0    0    0    0 -0.00000000000E+00 -0.00000000000E+00 -0.74505805969E-08  0.93827000000E+00  0.93827000000E+00 0. -1.
     999902    2    1    2    0    0  0.15158975911E-01 -0.15808304635E-01 -0.11143135063E-01  0.10193563046E+01  0.10190600616E+01 0.  0.
     999903    2    3    3    0    0  0.82584759522E-01 -0.10101668549E+00 -0.14574328719E-01  0.13266668724E+00  0.19063724510E-01 0.  0.
         14    1    1    2    0    0 -0.15158975911E-01  0.15808304635E-01  0.11143135063E-01  0.24573695390E-01  0.00000000000E+00 0.  1.
     999901    1    3    3    0    0 -0.67425783611E-01  0.85208380857E-01  0.34311936554E-02  0.88668961737E+00  0.88000000000E+00 0.  1.
        -11    1    4    4    0    0  0.22600045313E-01 -0.20519462797E-01  0.32637946820E-02  0.30703808858E-01  0.51100000000E-03 0. -1.
         11    1    4    4    0    0  0.59984714209E-01 -0.80497222694E-01 -0.17838123401E-01  0.10196287838E+00  0.51100000000E-03 0.  1.
</event>
<event>
 8    1  0.1128641E+005  0.1043930E+01  0.7957747E-01            NaN
         13   -1    0    0    0    0  0.00000000000E+00  0.00000000000E+00  0.74505805969E-08  0.10566000000E+00  0.10566000000E+00 0.  1.
     999900   -1    0    0    0    0 -0.00000000000E+00 -0.00000000000E+00 -0.74505805969E-08  0.93827000000E+00  0.93827000000E+00 0.  1.
     999902    2    1    2    0    0  0.17699197516E-01  0.15536149930E-01 -0.39493433298E-02  0.10200504929E+01  0.10197709435E+01 0.  0.
     999903    2    3    3    0    0  0.68028613963E-01 -0.96027432449E-01 -0.51832943878E-01  0.13029079371E+00  0.20973238996E-01 0.  0.
         14    1    1    2    0    0 -0.17699197516E-01 -0.15536149930E-01  0.39493433298E-02  0.23879507116E-01  0.00000000000E+00 0.  1.
     999901    1    3    3    0    0 -0.50329416447E-01  0.11156358238E+00  0.47883600548E-01  0.88975969917E+00  0.88000000000E+00 0. -1.
        -11    1    4    4    0    0  0.23154607038E-01 -0.23777034239E-01 -0.61911588583E-02  0.33764993015E-01  0.51100000000E-03 0. -1.
         11    1    4    4    0    0  0.44874006925E-01 -0.72250398209E-01 -0.45641785020E-01  0.96525800695E-01  0.51100000000E-03 0.  1.
</event>
<event>
 8    1  0.1128641E+005  0.1043930E+01  0.7957747E-01            NaN
         13   -1    0    0    0    0  0.00000000000E+00  0.00000000000E+00  0.74505805969E-08  0.10566000000E+00  0.10566000000E+00 0.  1.
     999900   -1    0    0    0    0 -0.00000000000E+00 -0.00000000000E+00 -0.74505805969E-08  0.93827000000E+00  0.93827000000E+00 0.  1.
     999902    2    1    2    0    0 -0.13193926678E-01 -0.15245342568E-01  0.70756045424E-02  0.10225626335E+01  0.10223393640E+01 0.  0.
     999903    2    3    3    0    0  0.58131022044E-01 -0.25928346569E-01  0.11374265797E+00  0.13319249955E+00  0.27410852154E-01 0.  0.
         14    1    1    2    0    0  0.13193926678E-01  0.15245342568E-01 -0.70756045424E-02  0.21367366493E-01  0.00000000000E+00 0. -1.
     999901    1    3    3    0    0 -0.71324948722E-01  0.10683004001E-01 -0.10666705342E+00  0.88937013395E+00  0.88000000000E+00 0.  1.
        -11    1    4    4    0    0  0.54469642291E-01 -0.14590163494E-01  0.84262507092E-01  0.10139154809E+00  0.51100000000E-03 0. -1.
         11    1    4    4    0    0  0.36613797532E-02 -0.11338183075E-01  0.29480150875E-01  0.31800951460E-01  0.51100000000E-03 0.  1.
</event>
<event>
 8    1  0.1128641E+005  0.1043930E+01  0.7957747E-01            NaN
         13   -1    0    0    0    0  0.00000000000E+00  0.00000000000E+00  0.74505805969E-08  0.10566000000E+00  0.10566000000E+00 0.  1.
     999900   -1    0    0    0    0 -0.00000000000E+00 -0.00000000000E+00 -0.74505805969E-08  0.93827000000E+00  0.93827000000E+00 0. -1.
     999902    2    1    2    0    0  0.72210551082E-02 -0.18260456381E-01 -0.11134743693E-01  0.10213563335E+01  0.10211068453E+01 0.  0.
     999903    2    3    3    0    0 -0.18898902398E-01 -0.13079655239E+00  0.33754345298E-02  0.13368681705E+00  0.19896353057E-01 0.  0.
         14    1    1    2    0    0 -0.72210551082E-02  0.18260456381E-01  0.11134743693E-01  0.22573666544E-01  0.00000000000E+00 0.  1.
     999901    1    3    3    0    0  0.26119957507E-01  0.11253609601E+00 -0.14510178223E-01  0.88766951641E+00  0.88000000000E+00 0. -1.
        -11    1    4    4    0    0 -0.13248696609E-01 -0.87807205237E-01  0.11583066057E-01  0.89554797715E-01  0.51100000000E-03 0.  1.
         11    1    4    4    0    0 -0.56502057891E-02 -0.42989347155E-01 -0.82076315274E-02  0.44132019334E-01  0.51100000000E-03 0. -1.
</event>
<event>
 8    1  0.1128641E+005  0.1043930E+01  0.7957747E-01            NaN
         13   -1    0    0    0    0  0.00000000000E+00  0.00000000000E+00  0.74505805969E-08  0.10566000000E+00  0.10566000000E+00 0.  1.
     999900   -1    0    0    0    0 -0.00000000000E+00 -0.00000000000E+00 -0.74505805969E-08  0.93827000000E+00  0.93827000000E+00 0.  1.
     999902    2    1    2    0    0 -0.13266288819E-01  0.56633252211E-03  0.20260553264E-01  0.10197059382E+01  0.10194181650E+01 0.  0.
     999903    2    3    3    0    0 -0.72505794982E-01  0.51806458879E-01  0.95980434466E-01  0.13298818714E+00  0.23078445141E-01 0.  0.
         14    1    1    2    0    0  0.13266288819E-01 -0.56633252211E-03 -0.20260553264E-01  0.24224061801E-01  0.00000000000E+00 0.  1.
     999901    1    3    3    0    0  0.59239506163E-01 -0.51240126357E-01 -0.75719881202E-01  0.88671775106E+00  0.88000000000E+00 0.  1.
        -11    1    4    4    0    0 -0.35082335711E-01  0.34231561280E-01  0.64538583155E-01  0.81043567932E-01  0.51100000000E-03 0. -1.
         11    1    4    4    0    0 -0.37423459271E-01  0.17574897600E-01  0.31441851311E-01  0.51944619205E-01  0.51100000000E-03 0.  1.
</event>
<event>
 8    1  0.1128641E+005  0.1043930E+01  0.7957747E-01            NaN
         13   -1    0    0    0    0  0.00000000000E+00  0.00000000000E+00  0.74505805969E-08  0.10566000000E+00  0.10566000000E+00 0. -1.
     999900   -1    0    0    0    0 -0.00000000000E+00 -0.00000000000E+00 -0.74505805969E-08  0.93827000000E+00  0.93827000000E+00 0. -1.
     999902    2    1    2    0    0  0.45470400970E-02 -0.16106600221E-01 -0.17279022000E-01  0.10198745901E+01  0.10195908575E+01 0.  0.
     999903    2    3    3    0    0  0.64558975367E-02  0.12437351777E+00 -0.24519804331E-01  0.12870079323E+00  0.21265531721E-01 0.  0.
         14    1    1    2    0    0 -0.45470400970E-02  0.16106600221E-01  0.17279022000E-01  0.24055409903E-01  0.00000000000E+00 0. -1.
     999901    1    3    3    0    0 -0.19088574397E-02 -0.14048011799E+00  0.72407823309E-02  0.89117379686E+00  0.88000000000E+00 0.  1.
        -11    1    4    4    0    0  0.12258198573E-01  0.94310500746E-01 -0.13027840786E-01  0.95993331746E-01  0.51100000000E-03 0.  1.
         11    1    4    4    0    0 -0.58023010367E-02  0.30063017023E-01 -0.11491963545E-01  0.32707461487E-01  0.51100000000E-03 0. -1.
</event>
<event>
 8    1  0.1128641E+005  0.1043930E+01  0.7957747E-01            NaN
         13   -1    0    0    0    0  0.00000000000E+00  0.00000000000E+00  0.74505805969E-08  0.10566000000E+00  0.10566000000E+00 0. -1.
     999900   -1    0    0    0    0 -0.00000000000E+00 -0.00000000000E+00 -0.74505805969E-08  0.93827000000E+00  0.93827000000E+00 0.  1.
     999902    2    1    2    0    0 -0.14586986302E-03  0.23629145413E-01  0.31670318285E-04  0.10203003831E+01  0.10200267217E+01 0.  0.
     999903    2    3    3    0    0  0.72636834734E-01  0.10922581147E+00 -0.14265424201E-01  0.13304139148E+00  0.17032964137E-01 0.  0.
         14    1    1    2    0    0  0.14586986302E-03 -0.23629145413E-01 -0.31670318285E-04  0.23629616882E-01  0.00000000000E+00 0. -1.
     999901    1    3    3    0    0 -0.72782704597E-01 -0.85596666061E-01  0.14297094519E-01  0.88725899164E+00  0.88000000000E+00 0. -1.
        -11    1    4    4    0    0  0.39150407070E-01  0.52808070857E-01  0.71557697305E-03  0.65743592029E-01  0.51100000000E-03 0.  1.
         11    1    4    4    0    0  0.33486427664E-01  0.56417740617E-01 -0.14981001174E-01  0.67297799452E-01  0.51100000000E-03 0. -1.
</event>
<event>
 8    1  0.1128641E+005  0.1043930E+01  0.7957747E-01            NaN
         13   -1    0    0    0    0  0.00000000000E+00  0.00000000000E+00  0.74505805969E-08  0.10566000000E+00  0.10566000000E+00 0. -1.
     999900   -1    0    0    0    0 -0.00000000000E+00 -0.00000000000E+00 -0.74505805969E-08  0.93827000000E+00  0.93827000000E+00 0. -1.
     999902    2    1    2    0    0  0.15691207960E-01  0.51596242494E-02 -0.16494168382E-01  0.10205870499E+01  0.10203200640E+01 0.  0.
     999903    2    3    3    0    0  0.25179607200E-01 -0.12522225436E+00 -0.20714022553E-01  0.13092010593E+00  0.19909239066E-01 0.  0.
         14    1    1    2    0    0 -0.15691207960E-01 -0.51596242494E-02  0.16494168382E-01  0.23342950119E-01  0.00000000000E+00 0. -1.
     999901    1    3    3    0    0 -0.94883992399E-02  0.13038187861E+00  0.42198541712E-02  0.88966694395E+00  0.88000000000E+00 0. -1.
        -11    1    4    4    0    0  0.64053493842E-02 -0.33290147628E-01 -0.14525994464E-01  0.36885336735E-01  0.51100000000E-03 0. -1.
         11    1    4    4    0    0  0.18774257816E-01 -0.91932106733E-01 -0.61880280889E-02  0.94034769195E-01  0.51100000000E-03 0.  1.
</event>
<event>
 8    1  0.1128641E+005  0.1043930E+01  0.7957747E-01            NaN
         13   -1    0    0    0    0  0.00000000000E+00  0.00000000000E+00  0.74505805969E-08  0.10566000000E+00  0.10566000000E+00 0. -1.
     999900   -1    0    0    0    0 -0.00000000000E+00 -0.00000000000E+00 -0.74505805969E-08  0.93827000000E+00  0.93827000000E+00 0. -1.
     999902    2    1    2    0    0  0.22494441931E-01 -0.21383051157E-02 -0.71331044946E-02  0.10202349911E+01  0.10199597951E+01 0.  0.
     999903    2    3    3    0    0  0.24195605768E-01 -0.51030465550E-01  0.11568776396E+00  0.13035954868E+00  0.20504083725E-01 0.  0.
         14    1    1    2    0    0 -0.22494441931E-01  0.21383051157E-02  0.71331044946E-02  0.23695008890E-01  0.00000000000E+00 0.  1.
     999901    1    3    3    0    0 -0.17011638370E-02  0.48892160434E-01 -0.12282086846E+00  0.88987544243E+00  0.88000000000E+00 0. -1.
        -11    1    4    4    0    0  0.77398600667E-02 -0.33283693952E-01  0.51987952452E-01  0.62215094937E-01  0.51100000000E-03 0. -1.
         11    1    4    4    0    0  0.16455745701E-01 -0.17746771597E-01  0.63699811509E-01  0.68144453744E-01  0.51100000000E-03 0.  1.
</event>
<event>
 8    1  0.1128641E+005  0.1043930E+01  0.7957747E-01            NaN
         13   -1    0    0    0    0  0.00000000000E+00  0.00000000000E+00  0.74505805969E-08  0.10566000000E+00  0.10566000000E+00 0. -1.
     999900   -1    0    0    0    0 -0.00000000000E+00 -0.00000000000E+00 -0.74505805969E-08  0.93827000000E+00  0.93827000000E+00 0.  1.
     999902    2    1    2    0    0 -0.64429968477E-02  0.66471398039E-02 -0.22246944816E-01  0.10198338752E+01  0.10195491699E+01 0.  0.
     999903    2    3    3    0    0  0.12119041964E+00 -0.27907261835E-01  0.26773292923E-01  0.12860591370E+00  0.18887528942E-01 0.  0.
         14    1    1    2    0    0  0.64429968477E-02 -0.66471398039E-02  0.22246944816E-01  0.24096124784E-01  0.00000000000E+00 0. -1.
     999901    1    3    3    0    0 -0.12763341649E+00  0.34554401639E-01 -0.49020237739E-01  0.89122796151E+00  0.88000000000E+00 0.  1.
        -11    1    4    4    0    0  0.42678515919E-01 -0.15938068995E-01  0.28013879950E-02  0.45646321430E-01  0.51100000000E-03 0.  1.
         11    1    4    4    0    0  0.78511903721E-01 -0.11969192840E-01  0.23971904928E-01  0.82959592272E-01  0.51100000000E-03 0. -1.
</event>
<event>
 8    1  0.1128641E+005  0.1043930E+01  0.7957747E-01            NaN
         13   -1    0    0    0    0  0.00000000000E+00  0.00000000000E+00  0.74505805969E-08  0.10566000000E+00  0.10566000000E+00 0.  1.
     999900   -1    0    0    0    0 -0.00000000000E+00 -0.00000000000E+00 -0.74505805969E-08  0.93827000000E+00  0.93827000000E+00 0.  1.
     999902    2    1    2    0    0 -0.16625959839E-01 -0.14718707872E-01  0.12518797437E-01  0.10184391548E+01  0.10181200954E+01 0.  0.
     999903    2    3    3    0    0 -0.11428150574E+00 -0.24676825340E-01 -0.54146656346E-01  0.13047516197E+00  0.20559650659E-01 0.  0.
         14    1    1    2    0    0  0.16625959839E-01  0.14718707872E-01 -0.12518797437E-01  0.25490845244E-01  0.00000000000E+00 0. -1.
     999901    1    3    3    0    0  0.97655545902E-01  0.99581174687E-02  0.66665453784E-01  0.88796399278E+00  0.88000000000E+00 0.  1.
        -11    1    4    4    0    0 -0.68937010319E-01 -0.87134065035E-02 -0.40807511578E-01  0.80583800895E-01  0.51100000000E-03 0.  1.
         11    1    4    4    0    0 -0.45344495423E-01 -0.15963418837E-01 -0.13339144768E-01  0.49891361078E-01  0.51100000000E-03 0. -1.
</event>
<event>
 8    1  0.1128641E+005  0.1043930E+01  0.7957747E-01            NaN
         13   -1    0    0    0    0  0.00000000000E+00  0.00000000000E+00  0.74505805969E-08  0.10566000000E+00  0.10566000000E+00 0. -1.
     999900   -1    0    0    0    0 -0.00000000000E+00 -0.00000000000E+00 -0.74505805969E-08  0.93827000000E+00  0.93827000000E+00 0. -1.
     999902    2    1    2    0    0  0.51439332445E-02 -0.19668131900E-01 -0.11945519927E-01  0.10203505405E+01  0.10200780532E+01 0.  0.
     999903    2    3    3    0    0  0.72286471944E-01 -0.98766186280E-01 -0.49190726174E-01  0.13347296833E+00  0.20376755285E-01 0.  0.
         14    1    1    2    0    0 -0.51439332445E-02  0.19668131900E-01  0.11945519927E-01  0.23579459450E-01  0.00000000000E+00 0. -1.
     999901    1    3    3    0    0 -0.67142538700E-01  0.79098054380E-01  0.37245206247E-01  0.88687757222E+00  0.88000000000E+00 0. -1.
        -11    1    4    4    0    0  0.41869581917E-02 -0.17116120697E-01 -0.49223107886E-02  0.18302526359E-01  0.51100000000E-03 0.  1.
         11    1    4    4    0    0  0.68099513753E-01 -0.81650065583E-01 -0.44268415385E-01  0.11517044198E+00  0.51100000000E-03 0. -1.
</event>
<event>
 8    1  0.1128641E+005  0.1043930E+01  0.7957747E-01            NaN
         13   -1    0    0    0    0  0.00000000000E+00  0.00000000000E+00  0.74505805969E-08  0.10566000000E+00  0.10566000000E+00 0. -1.
     999900   -1    0    0    0    0 -0.00000000000E+00 -0.00000000000E+00 -0.74505805969E-08  0.93827000000E+00  0.93827000000E+00 0.  1.
     999902    2    1    2    0    0 -0.13279992890E-01  0.18553707037E-01 -0.60797268707E-02  0.10203172633E+01  0.10200439973E+01 0.  0.
     999903    2    3    3    0    0 -0.16273319805E-01 -0.14224345525E-01  0.12644420009E+00  0.12978598818E+00  0.19725973926E-01 0.  0.
         14    1    1    2    0    0  0.13279992890E-01 -0.18553707037E-01  0.60797268707E-02  0.23612736707E-01  0.00000000000E+00 0. -1.
     999901    1    3    3    0    0  0.29933269142E-02  0.32778052562E-01 -0.13252392696E+00  0.89053127511E+00  0.88000000000E+00 0.  1.
        -11    1    4    4    0    0 -0.74135138896E-02  0.26403390853E-02  0.64398174924E-01  0.64879254259E-01  0.51100000000E-03 0.  1.
         11    1    4    4    0    0 -0.88598059151E-02 -0.16864684611E-01  0.62046025171E-01  0.64906733921E-01  0.51100000000E-03 0. -1.
</event>
<event>
 8    1  0.1128641E+005  0.1043930E+01  0.7957747E-01            NaN
         13   -1    0    0    0    0  0.00000000000E+00  0.00000000000E+00  0.74505805969E-08  0.10566000000E+00  0.10566000000E+00 0. -1.
     999900   -1    0    0    0    0 -0.00000000000E+00 -0.00000000000E+00 -0.74505805969E-08  0.93827000000E+00  0.93827000000E+00 0.  1.
     999902    2    1    2    0    0 -0.68069355377E-03  0.32108283842E-02 -0.22496305491E-01  0.10211955213E+01  0.10209424255E+01 0.  0.
     999903    2    3    3    0    0  0.69188378639E-02  0.72557738272E-01  0.10489688101E+00  0.12928982515E+00  0.20000188537E-01 0.  0.
         14    1    1    2    0    0  0.68069355377E-03 -0.32108283842E-02  0.22496305491E-01  0.22734478735E-01  0.00000000000E+00 0. -1.
     999901    1    3    3    0    0 -0.75995314177E-02 -0.69346909888E-01 -0.12739318650E+00  0.89190569611E+00  0.88000000000E+00 0. -1.
        -11    1    4    4    0    0 -0.72468805288E-03  0.36688094176E-01  0.67958619072E-01  0.77234554794E-01  0.51100000000E-03 0. -1.
         11    1    4    4    0    0  0.76435259168E-02  0.35869644096E-01  0.36938261940E-01  0.52055270359E-01  0.51100000000E-03 0.  1.
</event>
<event>
 8    1  0.1128641E+005  0.1043930E+01  0.7957747E-01            NaN
         13   -1    0    0    0    0  0.00000000000E+00  0.00000000000E+00  0.74505805969E-08  0.10566000000E+00  0.10566000000E+00 0.  1.
     999900   -1    0    0    0    0 -0.00000000000E+00 -0.00000000000E+00 -0.74505805969E-08  0.93827000000E+00  0.93827000000E+00 0.  1.
     999902    2    1    2    0    0 -0.94814081795E-02 -0.16147409744E-01  0.13390956742E-01  0.10209092775E+01  0.10206496947E+01 0.  0.
     999903    2    3    3    0    0  0.10648453440E+00  0.42193001150E-01 -0.54329729353E-01  0.12881186425E+00  0.22837939236E-01 0.  0.
         14    1    1    2    0    0  0.94814081795E-02  0.16147409744E-01 -0.13390956742E-01  0.23020722511E-01  0.00000000000E+00 0. -1.
     999901    1    3    3    0    0 -0.11596594258E+00 -0.58340410894E-01  0.67720686094E-01  0.89209741324E+00  0.88000000000E+00 0. -1.
        -11    1    4    4    0    0  0.59118415422E-01  0.12798988699E-01 -0.34532999084E-01  0.69653358142E-01  0.51100000000E-03 0. -1.
         11    1    4    4    0    0  0.47366118975E-01  0.29394012451E-01 -0.19796730268E-01  0.59158506109E-01  0.51100000000E-03 0.  1.
</event>
<event>
 8    1  0.1128641E+005  0.1043930E+01  0.7957747E-01            NaN
         13   -1    0    0    0    0  0.00000000000E+00  0.00000000000E+00  0.74505805969E-08  0.10566000000E+00  0.10566000000E+00 0.  1.
     999900   -1    0    0    0    0 -0.00000000000E+00 -0.00000000000E+00 -0.74505805969E-08  0.93827000000E+00  0.93827000000E+00 0.  1.
     999902    2    1    2    0    0  0.11454319520E-01  0.20466988456E-02 -0.20606882149E-01  0.10202649624E+01  0.10199904703E+01 0.  0.
     999903    2    3    3    0    0 -0.52879434354E-01 -0.11118666965E+00  0.33708847986E-01  0.12902379070E+00  0.18765448280E-01 0.  0.
         14    1    1    2    0    0 -0.11454319520E-01 -0.20466988456E-02  0.20606882149E-01  0.23665037582E-01  0.00000000000E+00 0.  1.
     999901    1    3    3    0    0  0.64333753874E-01  0.11323336849E+00 -0.54315730136E-01  0.89124117172E+00  0.88000000000E+00 0. -1.
        -11    1    4    4    0    0 -0.46671053760E-01 -0.86776941632E-01  0.20748968186E-01  0.10069362274E+00  0.51100000000E-03 0.  1.
         11    1    4    4    0    0 -0.62083805944E-02 -0.24409728014E-01  0.12959879801E-01  0.28330167962E-01  0.51100000000E-03 0. -1.
</event>
<event>
 8    1  0.1128641E+005  0.1043930E+01  0.7957747E-01            NaN
         13   -1    0    0    0    0  0.00000000000E+00  0.00000000000E+00  0.74505805969E-08  0.10566000000E+00  0.10566000000E+00 0.  1.
     999900   -1    0    0    0    0 -0.00000000000E+00 -0.00000000000E+00 -0.74505805969E-08  0.93827000000E+00  0.93827000000E+00 0. -1.
     999902    2    1    2    0    0  0.22677900193E-01  0.48928327069E-02 -0.50774407783E-02  0.10201811606E+01  0.10199046980E+01 0.  0.
     999903    2    3    3    0    0  0.33951715668E-01 -0.93674814979E-01 -0.82965200864E-01  0.13118780669E+00  0.19983145684E-01 0.  0.
         14    1    1    2    0    0 -0.22677900193E-01 -0.48928327069E-02  0.50774407783E-02  0.23748839422E-01  0.00000000000E+00 0.  1.
     999901    1    3    3    0    0 -0.11273815476E-01  0.98567647686E-01  0.77887760086E-01  0.88899335389E+00  0.88000000000E+00 0.  1.
        -11    1    4    4    0    0  0.14486245916E-01 -0.52345849002E-01 -0.56571530240E-01  0.78425368237E-01  0.51100000000E-03 0. -1.
         11    1    4    4    0    0  0.19465469753E-01 -0.41328965977E-01 -0.26393670624E-01  0.52762438453E-01  0.51100000000E-03 0.  1.
</event>
<event>
 8    1  0.1128641E+005  0.1043930E+01  0.7957747E-01            NaN
         13   -1    0    0    0    0  0.00000000000E+00  0.00000000000E+00  0.74505805969E-08  0.10566000000E+00  0.10566000000E+00 0.  1.
     999900   -1    0    0    0    0 -0.00000000000E+00 -0.00000000000E+00 -0.74505805969E-08  0.93827000000E+00  0.93827000000E+00 0.  1.
     999902    2    1    2    0    0  0.84027407710E-02  0.21893575301E-01  0.21970534512E-02  0.10203766194E+01  0.10201047416E+01 0.  0.
     999903    2    3    3    0    0 -0.94754777455E-01 -0.26634542781E-01 -0.81327756401E-01  0.12910065450E+00  0.19102573458E-01 0.  0.
         14    1    1    2    0    0 -0.84027407710E-02 -0.21893575301E-01 -0.21970534512E-02  0.23553380560E-01  0.00000000000E+00 0. -1.
     999901    1    3    3    0    0  0.10315751823E+00  0.48528118081E-01  0.83524809852E-01  0.89127596494E+00  0.88000000000E+00 0. -1.
        -11    1    4    4    0    0 -0.62031055676E-01 -0.85772989056E-02 -0.55384449830E-01  0.83600958899E-01  0.51100000000E-03 0. -1.
         11    1    4    4    0    0 -0.32723721779E-01 -0.18057243875E-01 -0.25943306571E-01  0.45499695606E-01  0.51100000000E-03 0.  1.
</event>
<event>
 8    1  0.1128641E+005  0.1043930E+01  0.7957747E-01            NaN
         13   -1    0    0    0    0  0.00000000000E+00  0.00000000000E+00  0.74505805969E-08  0.10566000000E+00  0.10566000000E+00 0.  1.
     999900   -1    0    0    0    0 -0.00000000000E+00 -0.00000000000E+00 -0.74505805969E-08  0.93827000000E+00  0.93827000000E+00 0. -1.
     999902    2    1    2    0    0  0.68561078359E-02 -0.17852493723E-01 -0.89293516510E-02  0.10228242883E+01  0.10226065097E+01 0.  0.
     999903    2    3    3    0    0 -0.12728779949E+00 -0.11307343414E-01 -0.24383496304E-01  0.13250060699E+00  0.25135951259E-01 0.  0.
         14    1    1    2    0    0 -0.68561078359E-02  0.17852493723E-01  0.89293516510E-02  0.21105711732E-01  0.00000000000E+00 0.  1.
     999901    1    3    3    0    0  0.13414390733E+00 -0.65451503097E-02  0.15454144653E-01  0.89032368128E+00  0.88000000000E+00 0.  1.
        -11    1    4    4    0    0 -0.96583436159E-01 -0.38343197282E-02 -0.28139171491E-01  0.10067341378E+00  0.51100000000E-03 0. -1.
         11    1    4    4    0    0 -0.30704363330E-01 -0.74730236855E-02  0.37556751871E-02  0.31827193210E-01  0.51100000000E-03 0.  1.
</event>
<event>
 8    1  0.1128641E+005  0.1043930E+01  0.7957747E-01            NaN
         13   -1    0    0    0    0  0.00000000000E+00  0.00000000000E+00  0.74505805969E-08  0.10566000000E+00  0.10566000000E+00 0. -1.
     999900   -1    0    0    0    0 -0.00000000000E+00 -0.00000000000E+00 -0.74505805969E-08  0.93827000000E+00  0.93827000000E+00 0. -1.
     999902    2    1    2    0    0 -0.24548769736E-01 -0.28832984953E-02  0.11520372463E-01  0.10166596042E+01  0.10162937943E+01 0.  0.
     999903    2    3    3    0    0  0.81348891227E-01  0.62564470708E-01  0.70147859458E-01  0.12596610623E+00  0.20366213004E-01 0.  0.
         14    1    1    2    0    0  0.24548769736E-01  0.28832984953E-02 -0.11520372463E-01  0.27270395807E-01  0.00000000000E+00 0. -1.
     999901    1    3    3    0    0 -0.10589766096E+00 -0.65447769203E-01 -0.58627486995E-01  0.89069349797E+00  0.88000000000E+00 0. -1.
        -11    1    4    4    0    0  0.27432841953E-01  0.32132643129E-01  0.34305815709E-01  0.54426259145E-01  0.51100000000E-03 0.  1.
         11    1    4    4    0    0  0.53916049274E-01  0.30431827579E-01  0.35842043750E-01  0.71539847080E-01  0.51100000000E-03 0. -1.
</event>
<event>
 8    1  0.1128641E+005  0.1043930E+01  0.7957747E-01            NaN
         13   -1    0    0    0    0  0.00000000000E+00  0.00000000000E+00  0.74505805969E-08  0.10566000000E+00  0.10566000000E+00 0.  1.
     999900   -1    0    0    0    0 -0.00000000000E+00 -0.00000000000E+00 -0.74505805969E-08  0.93827000000E+00  0.93827000000E+00 0.  1.
     999902    2    1    2    0    0 -0.98198924065E-02  0.66431637826E-03  0.21290341904E-01  0.10204747178E+01  0.10202051262E+01 0.  0.
     999903    2    3    3    0    0 -0.88502011359E-01 -0.95066333241E-01  0.16734974020E-01  0.13178130360E+00  0.14698261580E-01 0.  0.
         14    1    1    2    0    0  0.98198924065E-02 -0.66431637826E-03 -0.21290341904E-01  0.23455282166E-01  0.00000000000E+00 0. -1.
     999901    1    3    3    0    0  0.78682118952E-01  0.95730649619E-01  0.45553678839E-02  0.88869341423E+00  0.88000000000E+00 0.  1.
        -11    1    4    4    0    0 -0.58486763253E-01 -0.54642463645E-01  0.57710766635E-02  0.80250026516E-01  0.51100000000E-03 0.  1.
         11    1    4    4    0    0 -0.30015248106E-01 -0.40423869596E-01  0.10963897357E-01  0.51531277088E-01  0.51100000000E-03 0. -1.
</event>
<event>
 8    1  0.1128641E+005  0.1043930E+01  0.7957747E-01            NaN
         13   -1    0    0    0    0  0.00000000000E+00  0.00000000000E+00  0.74505805969E-08  0.10566000000E+00  0.10566000000E+00 0. -1.
     999900   -1    0    0    0    0 -0.00000000000E+00 -0.00000000000E+00 -0.74505805969E-08  0.93827000000E+00  0.93827000000E+00 0.  1.
     999902    2    1    2    0    0 -0.23640489427E-01 -0.28395747484E-02 -0.49859430652E-02  0.10196031516E+01  0.10193129015E+01 0.  0.
     999903    2    3    3    0    0  0.68442499702E-01 -0.75075144610E-01  0.75739107609E-01  0.12819202970E+00  0.19394095809E-01 0.  0.
         14    1    1    2    0    0  0.23640489427E-01  0.28395747484E-02  0.49859430652E-02  0.24326848405E-01  0.00000000000E+00 0. -1.
     999901    1    3    3    0    0 -0.92082989128E-01  0.72235569862E-01 -0.80725050675E-01  0.89141112190E+00  0.88000000000E+00 0. -1.
        -11    1    4    4    0    0  0.29626661129E-01 -0.19372821348E-01  0.22953838036E-01  0.42192239312E-01  0.51100000000E-03 0. -1.
         11    1    4    4    0    0  0.38815838573E-01 -0.55702323262E-01  0.52785269574E-01  0.85999790383E-01  0.51100000000E-03 0.  1.
</event>
<event>
 8    1  0.1128641E+005  0.1043930E+01  0.7957747E-01            NaN
         13   -1    0    0    0    0  0.00000000000E+00  0.00000000000E+00  0.74505805969E-08  0.10566000000E+00  0.10566000000E+00 0. -1.
     999900   -1    0    0    0    0 -0.00000000000E+00 -0.00000000000E+00 -0.74505805969E-08  0.93827000000E+00  0.93827000000E+00 0. -1.
     999902    2    1    2    0    0  0.21355455500E-01  0.87117438030E-02  0.94754290881E-02  0.10189954113E+01  0.10186902937E+01 0.  0.
     999903    2    3    3    0    0  0.10743935157E+00  0.67089142829E-01  0.33268099974E-01  0.13255057424E+00  0.20462670978E-01 0.  0.
         14    1    1    2    0    0 -0.21355455500E-01 -0.87117438030E-02 -0.94754290881E-02  0.24934588749E-01  0.00000000000E+00 0.  1.
     999901    1    3    3    0    0 -0.86083896070E-01 -0.58377399026E-01 -0.23792670886E-01  0.88644483701E+00  0.88000000000E+00 0. -1.
        -11    1    4    4    0    0  0.76021160592E-01  0.37223845699E-01  0.26334229305E-01  0.88648656507E-01  0.51100000000E-03 0.  1.
         11    1    4    4    0    0  0.31418190977E-01  0.29865297130E-01  0.69338706696E-02  0.43901917730E-01  0.51100000000E-03 0. -1.
</event>
<event>
 8    1  0.1128641E+005  0.1043930E+01  0.7957747E-01            NaN
         13   -1    0    0    0    0  0.00000000000E+00  0.00000000000E+00  0.74505805969E-08  0.10566000000E+00  0.10566000000E+00 0. -1.
     999900   -1    0    0    0    0 -0.00000000000E+00 -0.00000000000E+00 -0.74505805969E-08  0.93827000000E+00  0.93827000000E+00 0.  1.
     999902    2    1    2    0    0  0.11730509053E-01  0.42332348424E-02 -0.22716773113E-01  0.10180151992E+01  0.10176852995E+01 0.  0.
     999903    2    3    3    0    0 -0.29707552420E-01  0.34324840703E-01  0.11556576518E+00  0.12574580150E+00  0.19895405301E-01 0.  0.
         14    1    1    2    0    0 -0.11730509053E-01 -0.42332348424E-02  0.22716773113E-01  0.25914800801E-01  0.00000000000E+00 0. -1.
     999901    1    3    3    0    0  0.41438061473E-01 -0.30091605860E-01 -0.13828253829E+00  0.89226939770E+00  0.88000000000E+00 0.  1.
        -11    1    4    4    0    0  0.16603654607E-02  0.64519685180E-02  0.25860376099E-01  0.26709640285E-01  0.51100000000E-03 0.  1.
         11    1    4    4    0    0 -0.31367917881E-01  0.27872872185E-01  0.89705389081E-01  0.99036161210E-01  0.51100000000E-03 0. -1.
</event>
<event>
 8    1  0.1128641E+005  0.1043930E+01  0.7957747E-01            NaN
         13   -1    0    0    0    0  0.00000000000E+00  0.00000000000E+00  0.74505805969E-08  0.10566000000E+00  0.10566000000E+00 0.  1.
     999900   -1    0    0    0    0 -0.00000000000E+00 -0.00000000000E+00 -0.74505805969E-08  0.93827000000E+00  0.93827000000E+00 0. -1.
     999902    2    1    2    0    0 -0.43233194017E-02 -0.19400315977E-01 -0.11850856879E-01  0.10207889940E+01  0.10205266602E+01 0.  0.
     999903    2    3    3    0    0 -0.43910792735E-01 -0.54808231076E-01 -0.11242814171E+00  0.13346905241E+00  0.15549951462E-01 0.  0.
         14    1    1    2    0    0  0.43233194017E-02  0.19400315977E-01  0.11850856879E-01  0.23141006016E-01  0.00000000000E+00 0. -1.
     999901    1    3    3    0    0  0.39587473334E-01  0.35407915099E-01  0.10057728483E+00  0.88731994158E+00  0.88000000000E+00 0.  1.
        -11    1    4    4    0    0 -0.27716887863E-01 -0.31914539470E-01 -0.80845504725E-01  0.91230589484E-01  0.51100000000E-03 0. -1.
         11    1    4    4    0    0 -0.16193904872E-01 -0.22893691606E-01 -0.31582636982E-01  0.42238462923E-01  0.51100000000E-03 0.  1.
</event>
<event>
 8    1  0.1128641E+005  0.1043930E+01  0.7957747E-01            NaN
         13   -1    0    0    0    0  0.00000000000E+00  0.00000000000E+00  0.74505805969E-08  0.10566000000E+00  0.10566000000E+00 0.  1.
     999900   -1    0    0    0    0 -0.00000000000E+00 -0.00000000000E+00 -0.74505805969E-08  0.93827000000E+00  0.93827000000E+00 0. -1.
     999902    2    1    2    0    0  0.23899995729E-02  0.14776529566E-01  0.17867549230E-01  0.10206210481E+01  0.10203548483E+01 0.  0.
     999903    2    3    3    0    0 -0.41291308460E-01  0.51449194868E-01 -0.10968216797E+00  0.12959811268E+00  0.20334724816E-01 0.  0.
         14    1    1    2    0    0 -0.23899995729E-02 -0.14776529566E-01 -0.17867549230E-01  0.23308951917E-01  0.00000000000E+00 0. -1.
     999901    1    3    3    0    0  0.43681308033E-01 -0.36672665302E-01  0.12754971720E+00  0.89102293540E+00  0.88000000000E+00 0.  1.
        -11    1    4    4    0    0 -0.29382895270E-01  0.48343661236E-01 -0.86760004206E-01  0.10357617278E+00  0.51100000000E-03 0. -1.
         11    1    4    4    0    0 -0.11908413191E-01  0.31055336316E-02 -0.22922163764E-01  0.26021939906E-01  0.51100000000E-03 0.  1.
</event>
<event>
 8    1  0.1128641E+005  0.1043930E+01  0.7957747E-01            NaN
         13   -1    0    0    0    0  0.00000000000E+00  0.00000000000E+00  0.74505805969E-08  0.10566000000E+00  0.10566000000E+00 0. -1.
     999900   -1    0    0    0    0 -0.00000000000E+00 -0.00000000000E+00 -0.74505805969E-08  0.93827000000E+00  0.93827000000E+00 0.  1.
     999902    2    1    2    0    0  0.21054089213E-01  0.68330248968E-02  0.13985822032E-02  0.10217507093E+01  0.10215099564E+01 0.  0.
     999903    2    3    3    0    0 -0.25076861696E-01 -0.24630015039E-01  0.12494154876E+00  0.13136829032E+00  0.20291635263E-01 0.  0.
         14    1    1    2    0    0 -0.21054089213E-01 -0.68330248968E-02 -0.13985822032E-02  0.22179290656E-01  0.00000000000E+00 0. -1.
     999901    1    3    3    0    0  0.46130950909E-01  0.31463039936E-01 -0.12354296656E+00  0.89038241902E+00  0.88000000000E+00 0.  1.
        -11    1    4    4    0    0 -0.15279350712E-01 -0.43396243828E-02  0.73625464423E-01  0.75321053036E-01  0.51100000000E-03 0. -1.
         11    1    4    4    0    0 -0.97975109841E-02 -0.20290390656E-01  0.51316084341E-01  0.56047237287E-01  0.51100000000E-03 0.  1.
</event>
<event>
 8    1  0.1128641E+005  0.1043930E+01  0.7957747E-01            NaN
         13   -1    0    0    0    0  0.00000000000E+00  0.00000000000E+00  0.74505805969E-08  0.10566000000E+00  0.10566000000E+00 0. -1.
     999900   -1    0    0    0    0 -0.00000000000E+00 -0.00000000000E+00 -0.74505805969E-08  0.93827000000E+00  0.93827000000E+00 0. -1.
     999902    2    1    2    0    0  0.53210127989E-03  0.16279068689E-02 -0.24543819202E-01  0.10193264988E+01  0.10190295279E+01 0.  0.
     999903    2    3    3    0    0  0.40406859693E-01 -0.11457680628E+00 -0.43863655261E-01  0.13058199791E+00  0.19159307828E-01 0.  0.
         14    1    1    2    0    0 -0.53210127989E-03 -0.16279068689E-02  0.24543819202E-01  0.24603501246E-01  0.00000000000E+00 0. -1.
     999901    1    3    3    0    0 -0.39874758413E-01  0.11620471315E+00  0.19319836059E-01  0.88874450085E+00  0.88000000000E+00 0. -1.
        -11    1    4    4    0    0  0.20423317638E-01 -0.83969311393E-01 -0.29786294882E-01  0.91408104908E-01  0.51100000000E-03 0. -1.
         11    1    4    4    0    0  0.19983542054E-01 -0.30607494892E-01 -0.14077360379E-01  0.39173893001E-01  0.51100000000E-03 0.  1.
</event>
<event>
 8    1  0.1128641E+005  0.1043930E+01  0.7957747E-01            NaN
         13   -1    0    0    0    0  0.00000000000E+00  0.00000000000E+00  0.74505805969E-08  0.10566000000E+00  0.10566000000E+00 0. -1.
     999900   -1    0    0    0    0 -0.00000000000E+00 -0.00000000000E+00 -0.74505805969E-08  0.93827000000E+00  0.93827000000E+00 0. -1.
     999902    2    1    2    0    0 -0.15626492178E-01 -0.16787161403E-01 -0.45641113898E-02  0.10205456642E+01  0.10202777199E+01 0.  0.
     999903    2    3    3    0    0 -0.11795354895E+00 -0.58508245104E-01  0.53741495102E-02  0.13357878527E+00  0.21866776986E-01 0.  0.
         14    1    1    2    0    0  0.15626492178E-01  0.16787161403E-01  0.45641113898E-02  0.23384335751E-01  0.00000000000E+00 0. -1.
     999901    1    3    3    0    0  0.10232705678E+00  0.41721083701E-01 -0.99382609000E-02  0.88696687898E+00  0.88000000000E+00 0.  1.
        -11    1    4    4    0    0 -0.31279969646E-01 -0.70330844490E-02 -0.41022243217E-02  0.32326307295E-01  0.51100000000E-03 0.  1.
         11    1    4    4    0    0 -0.86673579307E-01 -0.51475160655E-01  0.94763738319E-02  0.10125247798E+00  0.51100000000E-03 0. -1.
</event>
<event>
 8    1  0.1128641E+005  0.1043930E+01  0.7957747E-01            NaN
         13   -1    0    0    0    0  0.00000000000E+00  0.00000000000E+00  0.74505805969E-08  0.10566000000E+00  0.10566000000E+00 0.  1.
     999900   -1    0    0    0    0 -0.00000000000E+00 -0.00000000000E+00 -0.74505805969E-08  0.93827000000E+00  0.93827000000E+00 0. -1.
     999902    2    1    2    0    0  0.14249382216E-01 -0.18202009678E-01 -0.52262659343E-02  0.10202303817E+01  0.10199550774E+01 0.  0.
     999903    2    3    3    0    0  0.74871342781E-02 -0.91102563537E-01  0.93756655380E-01  0.13165971069E+00  0.13719866168E-01 0.  0.
         14    1    1    2    0    0 -0.14249382216E-01  0.18202009678E-01  0.52262659343E-02  0.23699618256E-01  0.00000000000E+00 0.  1.
     999901    1    3    3    0    0  0.67622479378E-02  0.72900553858E-01 -0.98982921314E-01  0.88857067106E+00  0.88000000000E+00 0. -1.
        -11    1    4    4    0    0 -0.37402191140E-02 -0.25944281832E-01  0.23961577293E-01  0.35517788588E-01  0.51100000000E-03 0.  1.
         11    1    4    4    0    0  0.11227353392E-01 -0.65158281704E-01  0.69795078086E-01  0.96141922099E-01  0.51100000000E-03 0. -1.
</event>
<event>
 8    1  0.1128641E+005  0.1043930E+01  0.7957747E-01            NaN
         13   -1    0    0    0    0  0.00000000000E+00  0.00000000000E+00  0.74505805969E-08  0.10566000000E+00  0.10566000000E+00 0. -1.
     999900   -1    0    0    0    0 -0.00000000000E+00 -0.00000000000E+00 -0.74505805969E-08  0.93827000000E+00  0.93827000000E+00 0. -1.
     999902    2    1    2    0    0 -0.66054985966E-02 -0.22702674633E-01  0.15532948663E-02  0.10202349209E+01  0.10199597233E+01 0.  0.
     999903    2    3    3    0    0  0.10897134114E+00  0.33988207722E-01 -0.56664350136E-01  0.12896551373E+00  0.19781397843E-01 0.  0.
         14    1    1    2    0    0  0.66054985966E-02  0.22702674633E-01 -0.15532948663E-02  0.23695079070E-01  0.00000000000E+00 0.  1.
     999901    1    3    3    0    0 -0.11557683974E+00 -0.56690882354E-01  0.58217645003E-01  0.89126940720E+00  0.88000000000E+00 0.  1.
        -11    1    4    4    0    0  0.82853924813E-01  0.18136416087E-01 -0.46712612792E-01  0.96829911496E-01  0.51100000000E-03 0. -1.
         11    1    4    4    0    0  0.26117416327E-01  0.15851791635E-01 -0.99517373443E-02  0.32135602232E-01  0.51100000000E-03 0.  1.
</event>
<event>
 8    1  0.1128641E+005  0.1043930E+01  0.7957747E-01            NaN
         13   -1    0    0    0    0  0.00000000000E+00  0.00000000000E+00  0.74505805969E-08  0.10566000000E+00  0.10566000000E+00 0. -1.
     999900   -1    0    0    0    0 -0.00000000000E+00 -0.00000000000E+00 -0.74505805969E-08  0.93827000000E+00  0.93827000000E+00 0.  1.
     999902    2    1    2    0    0 -0.16856335143E-02  0.18407650707E-01  0.15259873028E-01  0.10199602964E+01  0.10196786060E+01 0.  0.
     999903    2    3    3    0    0  0.73801915527E-01 -0.72453025034E-01 -0.72444515681E-01  0.12774614485E+00  0.19357326793E-01 0.  0.
         14    1    1    2    0    0  0.16856335143E-02 -0.18407650707E-01 -0.15259873028E-01  0.23969703581E-01  0.00000000000E+00 0.  1.
     999901    1    3    3    0    0 -0.75487549041E-01  0.90860675741E-01  0.87704388709E-01  0.89221415157E+00  0.88000000000E+00 0. -1.
        -11    1    4    4    0    0  0.38946639710E-01 -0.24937015023E-01 -0.33558047173E-01  0.57141045790E-01  0.51100000000E-03 0.  1.
         11    1    4    4    0    0  0.34855275817E-01 -0.47516010011E-01 -0.38886468507E-01  0.70605099063E-01  0.51100000000E-03 0. -1.
</event>
<event>
 8    1  0.1128641E+005  0.1043930E+01  0.7957747E-01            NaN
         13   -1    0    0    0    0  0.00000000000E+00  0.00000000000E+00  0.74505805969E-08  0.10566000000E+00  0.10566000000E+00 0. -1.
     999900   -1    0    0    0    0 -0.00000000000E+00 -0.00000000000E+00 -0.74505805969E-08  0.93827000000E+00  0.93827000000E+00 0. -1.
     999902    2    1    2    0    0  0.54556790578E-02 -0.20537461659E-01  0.13174706385E-01  0.10189275071E+01  0.10186207047E+01 0.  0.
     999903    2    3    3    0    0 -0.65004272110E-01  0.18565907652E-01  0.10922625957E+00  0.13004079938E+00  0.20248096277E-01 0.  0.
         14    1    1    2    0    0 -0.54556790578E-02  0.20537461659E-01 -0.13174706385E-01  0.25002492950E-01  0.00000000000E+00 0.  1.
     999901    1    3    3    0    0  0.70459951167E-01 -0.39103369311E-01 -0.96051553187E-01  0.88888670767E+00  0.88000000000E+00 0. -1.
        -11    1    4    4    0    0 -0.31313359368E-01  0.15710414016E-01  0.69792925094E-01  0.78093899234E-01  0.51100000000E-03 0.  1.
         11    1    4    4    0    0 -0.33690912742E-01  0.28554936360E-02  0.39433334478E-01  0.51946900142E-01  0.51100000000E-03 0. -1.
</event>
<event>
 8    1  0.1128641E+005  0.1043930E+01  0.7957747E-01            NaN
         13   -1    0    0    0    0  0.00000000000E+00  0.00000000000E+00  0.74505805969E-08  0.10566000000E+00  0.10566000000E+00 0. -1.
     999900   -1    0    0    0    0 -0.00000000000E+00 -0.00000000000E+00 -0.74505805969E-08  0.93827000000E+00  0.93827000000E+00 0.  1.
     999902    2    1    2    0    0 -0.21099617784E-01  0.26676515525E-02  0.85814119214E-02  0.10209963813E+01  0.10207387814E+01 0.  0.
     999903    2    3    3    0    0 -0.49642496450E-01 -0.87463913638E-01  0.84232176839E-01  0.13270508157E+00  0.20031610451E-01 0.  0.
         14    1    1    2    0    0  0.21099617784E-01 -0.26676515525E-02 -0.85814119214E-02  0.22933618685E-01  0.00000000000E+00 0.  1.
     999901    1    3    3    0    0  0.28542878666E-01  0.90131565191E-01 -0.75650764918E-01  0.88829129974E+00  0.88000000000E+00 0.  1.
        -11    1    4    4    0    0 -0.17289376929E-01 -0.50217356970E-01  0.46506037429E-01  0.70595879015E-01  0.51100000000E-03 0.  1.
         11    1    4    4    0    0 -0.32353119521E-01 -0.37246556668E-01  0.37726139411E-01  0.62109202556E-01  0.51100000000E-03 0. -1.
</event>
<event>
 8    1  0.1128641E+005  0.1043930E+01  0.7957747E-01            NaN
         13   -1    0    0    0    0  0.00000000000E+00  0.00000000000E+00  0.74505805969E-08  0.10566000000E+00  0.10566000000E+00 0. -1.
     999900   -1    0    0    0    0 -0.00000000000E+00 -0.00000000000E+00 -0.74505805969E-08  0.93827000000E+00  0.93827000000E+00 0. -1.
     999902    2    1    2    0    0  0.15051676724E-01 -0.18071589295E-01 -0.31725250637E-02  0.10201981601E+01  0.10199220978E+01 0.  0.
     999903    2    3    3    0    0 -0.12390507463E+00  0.25062589301E-01  0.75394992701E-02  0.12818679041E+00  0.19859715144E-01 0.  0.
         14    1    1    2    0    0 -0.15051676724E-01  0.18071589295E-01  0.31725250637E-02  0.23731839944E-01  0.00000000000E+00 0. -1.
     999901    1    3    3    0    0  0.13895675135E+00 -0.43134178596E-01 -0.10712024334E-01  0.89201136964E+00  0.88000000000E+00 0. -1.
        -11    1    4    4    0    0 -0.84106418211E-01  0.84011683797E-02  0.90655802097E-02  0.85011264430E-01  0.51100000000E-03 0. -1.
         11    1    4    4    0    0 -0.39798656417E-01  0.16661420922E-01 -0.15260809396E-02  0.43175525982E-01  0.51100000000E-03 0.  1.
</event>
<event>
 8    1  0.1128641E+005  0.1043930E+01  0.7957747E-01            NaN
         13   -1    0    0    0    0  0.00000000000E+00  0.00000000000E+00  0.74505805969E-08  0.10566000000E+00  0.10566000000E+00 0.  1.
     999900   -1    0    0    0    0 -0.00000000000E+00 -0.00000000000E+00 -0.74505805969E-08  0.93827000000E+00  0.93827000000E+00 0.  1.
     999902    2    1    2    0    0 -0.20134479742E-02 -0.41647189722E-02 -0.23258480997E-01  0.10202159578E+01  0.10199403144E+01 0.  0.
     999903    2    3    3    0    0 -0.27276981987E-02  0.28484031556E-01 -0.12776454564E+00  0.13343077044E+00  0.25714023117E-01 0.  0.
         14    1    1    2    0    0  0.20134479742E-02  0.41647189722E-02  0.23258480997E-01  0.23714042151E-01  0.00000000000E+00 0.  1.
     999901    1    3    3    0    0  0.71425022442E-03 -0.32648750529E-01  0.10450606465E+00  0.88678518741E+00  0.88000000000E+00 0. -1.
        -11    1    4    4    0    0 -0.50646657516E-03  0.34840679011E-02 -0.74094834395E-01  0.74180191713E-01  0.51100000000E-03 0.  1.
         11    1    4    4    0    0 -0.22212316235E-02  0.24999963655E-01 -0.53669711249E-01  0.59250578725E-01  0.51100000000E-03 0. -1.
</event>
<event>
 8    1  0.1128641E+005  0.1043930E+01  0.7957747E-01            NaN
         13   -1    0    0    0    0  0.00000000000E+00  0.00000000000E+00  0.74505805969E-08  0.10566000000E+00  0.10566000000E+00 0. -1.
     999900   -1    0    0    0    0 -0.00000000000E+00 -0.00000000000E+00 -0.74505805969E-08  0.93827000000E+00  0.93827000000E+00 0.  1.
     999902    2    1    2    0    0  0.46706414763E-02 -0.16597788765E-01 -0.17456318243E-01  0.10193938118E+01  0.10190984835E+01 0.  0.
     999903    2    3    3    0    0  0.78570658793E-01  0.77001408065E-01  0.61761036009E-01  0.12782361749E+00  0.20539872257E-01 0.  0.
         14    1    1    2    0    0 -0.46706414763E-02  0.16597788765E-01  0.17456318243E-01  0.24536188177E-01  0.00000000000E+00 0. -1.
     999901    1    3    3    0    0 -0.73900017316E-01 -0.93599196830E-01 -0.79217354252E-01  0.89157019433E+00  0.88000000000E+00 0. -1.
        -11    1    4    4    0    0  0.46764932157E-01  0.46681479564E-01  0.48347320898E-01  0.81877005154E-01  0.51100000000E-03 0.  1.
         11    1    4    4    0    0  0.31805726636E-01  0.30319928501E-01  0.13413715111E-01  0.45946612337E-01  0.51100000000E-03 0. -1.
</event>
<event>
 8    1  0.1128641E+005  0.1043930E+01  0.7957747E-01            NaN
         13   -1    0    0    0    0  0.00000000000E+00  0.00000000000E+00  0.74505805969E-08  0.10566000000E+00  0.10566000000E+00 0.  1.
     999900   -1    0    0    0    0 -0.00000000000E+00 -0.00000000000E+00 -0.74505805969E-08  0.93827000000E+00  0.93827000000E+00 0. -1.
     999902    2    1    2    0    0  0.16748884294E-02 -0.34081879932E-02 -0.24143480155E-01  0.10194896925E+01  0.10191966957E+01 0.  0.
     999903    2    3    3    0    0  0.90471321554E-01  0.89763513900E-01 -0.16791871680E-01  0.13009674295E+00  0.20016171449E-01 0.  0.
         14    1    1    2    0    0 -0.16748884294E-02  0.34081879932E-02  0.24143480155E-01  0.24440307499E-01  0.00000000000E+00 0.  1.
     999901    1    3    3    0    0 -0.88796433125E-01 -0.93171701894E-01 -0.73516084744E-02  0.88939294955E+00  0.88000000000E+00 0. -1.
        -11    1    4    4    0    0  0.61374402231E-01  0.50727490513E-01 -0.16931931655E-01  0.81406676468E-01  0.51100000000E-03 0. -1.
         11    1    4    4    0    0  0.29096919323E-01  0.39036023387E-01  0.14005997430E-03  0.48690066480E-01  0.51100000000E-03 0.  1.
</event>
<event>
 8    1  0.1128641E+005  0.1043930E+01  0.7957747E-01            NaN
         13   -1    0    0    0    0  0.00000000000E+00  0.00000000000E+00  0.74505805969E-08  0.10566000000E+00  0.10566000000E+00 0. -1.
     999900   -1    0    0    0    0 -0.00000000000E+00 -0.00000000000E+00 -0.74505805969E-08  0.93827000000E+00  0.93827000000E+00 0.  1.
     999902    2    1    2    0    0  0.22803455453E-01 -0.54611341627E-02 -0.41419132090E-02  0.10201187209E+01  0.10198407855E+01 0.  0.
     999903    2    3    3    0    0  0.12495916907E+00  0.35902808288E-01 -0.19818414502E-01  0.13310546382E+00  0.20505837396E-01 0.  0.
         14    1    1    2    0    0 -0.22803455453E-01  0.54611341627E-02  0.41419132090E-02  0.23811279092E-01  0.00000000000E+00 0.  1.
     999901    1    3    3    0    0 -0.10215571362E+00 -0.41363942451E-01  0.15676501294E-01  0.88701325709E+00  0.88000000000E+00 0.  1.
        -11    1    4    4    0    0  0.10162000093E+00  0.20571722980E-01 -0.14929455676E-01  0.10475194577E+00  0.51100000000E-03 0.  1.
         11    1    4    4    0    0  0.23339168142E-01  0.15331085308E-01 -0.48889588264E-02  0.28353518048E-01  0.51100000000E-03 0. -1.
</event>
<event>
 8    1  0.1128641E+005  0.1043930E+01  0.7957747E-01            NaN
         13   -1    0    0    0    0  0.00000000000E+00  0.00000000000E+00  0.74505805969E-08  0.10566000000E+00  0.10566000000E+00 0.  1.
     999900   -1    0    0    0    0 -0.00000000000E+00 -0.00000000000E+00 -0.74505805969E-08  0.93827000000E+00  0.93827000000E+00 0. -1.
     999902    2    1    2    0    0 -0.14694806855E-01  0.16304936443E-01 -0.17817113815E-01  0.10156592051E+01  0.10152656711E+01 0.  0.
     999903    2    3    3    0    0  0.14266776412E-01 -0.37674429664E-01  0.11499666148E+00  0.12358743432E+00  0.20657158831E-01 0.  0.
         14    1    1    2    0    0  0.14694806855E-01 -0.16304936443E-01  0.17817113815E-01  0.28270794924E-01  0.00000000000E+00 0.  1.
     999901    1    3    3    0    0 -0.28961583268E-01  0.53979366107E-01 -0.13281377529E+00  0.89207177076E+00  0.88000000000E+00 0. -1.
        -11    1    4    4    0    0  0.16696796383E-01 -0.26009447727E-01  0.62165340316E-01  0.69426688226E-01  0.51100000000E-03 0. -1.
         11    1    4    4    0    0 -0.24300199706E-02 -0.11664981938E-01  0.52831321164E-01  0.54160746095E-01  0.51100000000E-03 0.  1.
</event>
<event>
 8    1  0.1128641E+005  0.1043930E+01  0.7957747E-01            NaN
         13   -1    0    0    0    0  0.00000000000E+00  0.00000000000E+00  0.74505805969E-08  0.10566000000E+00  0.10566000000E+00 0.  1.
     999900   -1    0    0    0    0 -0.00000000000E+00 -0.00000000000E+00 -0.74505805969E-08  0.93827000000E+00  0.93827000000E+00 0.  1.
     999902    2    1    2    0    0  0.57888698328E-02  0.52228581054E-04 -0.22348865701E-01  0.10208435204E+01  0.10205824355E+01 0.  0.
     999903    2    3    3    0    0 -0.17872345323E-01  0.44142369306E-01  0.11765243723E+00  0.12837270384E+00  0.19222008437E-01 0.  0.
         14    1    1    2    0    0 -0.57888698328E-02 -0.52228581054E-04  0.22348865701E-01  0.23086479591E-01  0.00000000000E+00 0.  1.
     999901    1    3    3    0    0  0.23661215156E-01 -0.44090140724E-01 -0.14000130293E+00  0.89247081657E+00  0.88000000000E+00 0.  1.
        -11    1    4    4    0    0 -0.27451855698E-02  0.13936789195E-01  0.16770599658E-01  0.21983727409E-01  0.51100000000E-03 0.  1.
         11    1    4    4    0    0 -0.15127159753E-01  0.30205580110E-01  0.10088183757E+00  0.10638897643E+00  0.51100000000E-03 0. -1.
</event>
<event>
 8    1  0.1128641E+005  0.1043930E+01  0.7957747E-01            NaN
         13   -1    0    0    0    0  0.00000000000E+00  0.00000000000E+00  0.74505805969E-08  0.10566000000E+00  0.10566000000E+00 0. -1.
     999900   -1    0    0    0    0 -0.00000000000E+00 -0.00000000000E+00 -0.74505805969E-08  0.93827000000E+00  0.93827000000E+00 0. -1.
     999902    2    1    2    0    0  0.10811483077E-01 -0.16303399212E-01  0.13398375056E-01  0.10202191281E+01  0.10199435592E+01 0.  0.
     999903    2    3    3    0    0  0.66346657271E-01  0.10800267364E+00 -0.15818738434E-01  0.12927031080E+00  0.19852564676E-01 0.  0.
         14    1    1    2    0    0 -0.10811483077E-01  0.16303399212E-01 -0.13398375056E-01  0.23710871902E-01  0.00000000000E+00 0.  1.
     999901    1    3    3    0    0 -0.55535174194E-01 -0.12430607285E+00  0.29217113490E-01  0.89094881730E+00  0.88000000000E+00 0. -1.
        -11    1    4    4    0    0  0.24053103257E-01  0.57637747213E-01 -0.98680595950E-02  0.63232123175E-01  0.51100000000E-03 0.  1.
         11    1    4    4    0    0  0.42293554014E-01  0.50364926430E-01 -0.59506788390E-02  0.66038187627E-01  0.51100000000E-03 0. -1.
</event>
<event>
 8    1  0.1128641E+005  0.1043930E+01  0.7957747E-01            NaN
         13   -1    0    0    0    0  0.00000000000E+00  0.00000000000E+00  0.74505805969E-08  0.10566000000E+00  0.10566000000E+00 0.  1.
     999900   -1    0    0    0    0 -0.00000000000E+00 -0.00000000000E+00 -0.74505805969E-08  0.93827000000E+00  0.93827000000E+00 0.  1.
     999902    2    1    2    0    0  0.15827184164E-01  0.17997334117E-01 -0.68185800603E-03  0.10199535798E+01  0.10196717297E+01 0.  0.
     999903    2    3    3    0    0  0.12779726675E+00  0.13465982117E-01  0.25546806045E-01  0.13245948105E+00  0.19478212437E-01 0.  0.
         14    1    1    2    0    0 -0.15827184164E-01 -0.17997334117E-01  0.68185800603E-03  0.23976420171E-01  0.00000000000E+00 0. -1.
     999901    1    3    3    0    0 -0.11197008258E+00  0.45313520002E-02 -0.26228664051E-01  0.88749409878E+00  0.88000000000E+00 0.  1.
        -11    1    4    4    0    0  0.44122196130E-01  0.35741775020E-03  0.47422704227E-03  0.44129150808E-01  0.51100000000E-03 0. -1.
         11    1    4    4    0    0  0.83675070616E-01  0.13108564367E-01  0.25072579003E-01  0.88330330245E-01  0.51100000000E-03 0.  1.
</event>
<event>
 8    1  0.1128641E+005  0.1043930E+01  0.7957747E-01            NaN
         13   -1    0    0    0    0  0.00000000000E+00  0.00000000000E+00  0.74505805969E-08  0.10566000000E+00  0.10566000000E+00 0.  1.
     999900   -1    0    0    0    0 -0.00000000000E+00 -0.00000000000E+00 -0.74505805969E-08  0.93827000000E+00  0.93827000000E+00 0.  1.
     999902    2    1    2    0    0  0.17704071023E-01 -0.13677242259E-01  0.77590009485E-02  0.10202508281E+01  0.10199760041E+01 0.  0.
     999903    2    3    3    0    0 -0.65714307077E-01  0.10753951056E+00 -0.80582363345E-02  0.12789310164E+00  0.20213702974E-01 0.  0.
         14    1    1    2    0    0 -0.17704071023E-01  0.13677242259E-01 -0.77590009485E-02  0.23679171909E-01  0.00000000000E+00 0. -1.
     999901    1    3    3    0    0  0.83418378100E-01 -0.12121675282E+00  0.15817237283E-01  0.89235772645E+00  0.88000000000E+00 0.  1.
        -11    1    4    4    0    0 -0.33885922826E-01  0.73814756604E-01 -0.66870919816E-02  0.81497560568E-01  0.51100000000E-03 0. -1.
         11    1    4    4    0    0 -0.31828384252E-01  0.33724753952E-01 -0.13711443529E-02  0.46395541068E-01  0.51100000000E-03 0.  1.
</event>
<event>
 8    1  0.1128641E+005  0.1043930E+01  0.7957747E-01            NaN
         13   -1    0    0    0    0  0.00000000000E+00  0.00000000000E+00  0.74505805969E-08  0.10566000000E+00  0.10566000000E+00 0.  1.
     999900   -1    0    0    0    0 -0.00000000000E+00 -0.00000000000E+00 -0.74505805969E-08  0.93827000000E+00  0.93827000000E+00 0.  1.
     999902    2    1    2    0    0  0.22669114545E-01 -0.31013464604E-02 -0.82375158022E-02  0.10196120278E+01  0.10193219921E+01 0.  0.
     999903    2    3    3    0    0 -0.10168206190E-01  0.12638803248E+00 -0.84882225270E-02  0.12953009241E+00  0.25073247661E-01 0.  0.
         14    1    1    2    0    0 -0.22669114545E-01  0.31013464604E-02  0.82375158022E-02  0.24317972175E-01  0.00000000000E+00 0. -1.
     999901    1    3    3    0    0  0.32837320736E-01 -0.12948937894E+00  0.25070672476E-03  0.89008193541E+00  0.88000000000E+00 0. -1.
        -11    1    4    4    0    0  0.71999070846E-02  0.16664701652E-01 -0.12962780608E-02  0.18206932772E-01  0.51100000000E-03 0. -1.
         11    1    4    4    0    0 -0.17368113275E-01  0.10972333083E+00 -0.71919444662E-02  0.11132315964E+00  0.51100000000E-03 0.  1.
</event>
<event>
 8    1  0.1128641E+005  0.1043930E+01  0.7957747E-01            NaN
         13   -1    0    0    0    0  0.00000000000E+00  0.00000000000E+00  0.74505805969E-08  0.10566000000E+00  0.10566000000E+00 0.  1.
     999900   -1    0    0    0    0 -0.00000000000E+00 -0.00000000000E+00 -0.74505805969E-08  0.93827000000E+00  0.93827000000E+00 0.  1.
     999902    2    1    2    0    0  0.93427274829E-02  0.71637380563E-02  0.21700561866E-01  0.10192415394E+01  0.10189424889E+01 0.  0.
     999903    2    3    3    0    0  0.94738825800E-01  0.75008966478E-01  0.49437477078E-01  0.13207481041E+00  0.19947461950E-01 0.  0.
         14    1    1    2    0    0 -0.93427274829E-02 -0.71637380563E-02 -0.21700561866E-01  0.24688460565E-01  0.00000000000E+00 0. -1.
     999901    1    3    3    0    0 -0.85396098318E-01 -0.67845228422E-01 -0.27736915212E-01  0.88716672903E+00  0.88000000000E+00 0. -1.
        -11    1    4    4    0    0  0.22082663967E-01  0.75945042442E-02  0.94127892908E-02  0.25182975714E-01  0.51100000000E-03 0. -1.
         11    1    4    4    0    0  0.72656161833E-01  0.67414462234E-01  0.40024687787E-01  0.10689183469E+00  0.51100000000E-03 0.  1.
</event>
<event>
 8    1  0.1128641E+005  0.1043930E+01  0.7957747E-01            NaN
         13   -1    0    0    0    0  0.00000000000E+00  0.00000000000E+00  0.74505805969E-08  0.10566000000E+00  0.10566000000E+00 0.  1.
     999900   -1    0    0    0    0 -0.00000000000E+00 -0.00000000000E+00 -0.74505805969E-08  0.93827000000E+00  0.93827000000E+00 0.  1.
     999902    2    1    2    0    0 -0.11941133334E-01 -0.26681008190E-02 -0.19957964462E-01  0.10205199643E+01  0.10202514238E+01 0.  0.
     999903    2    3    3    0    0 -0.79921868193E-01 -0.82797531860E-01 -0.64079692595E-01  0.13317063457E+00  0.19628413360E-01 0.  0.
         14    1    1    2    0    0  0.11941133334E-01  0.26681008190E-02  0.19957964462E-01  0.23410035727E-01  0.00000000000E+00 0.  1.
     999901    1    3    3    0    0  0.67980734859E-01  0.80129431041E-01  0.44121728133E-01  0.88734932970E+00  0.88000000000E+00 0. -1.
        -11    1    4    4    0    0 -0.50130113634E-01 -0.48801530973E-01 -0.28104002643E-01  0.75397041082E-01  0.51100000000E-03 0.  1.
         11    1    4    4    0    0 -0.29791754559E-01 -0.33996000887E-01 -0.35975689952E-01  0.57773593488E-01  0.51100000000E-03 0. -1.
</event>
<event>
 8    1  0.1128641E+005  0.1043930E+01  0.7957747E-01            NaN
         13   -1    0    0    0    0  0.00000000000E+00  0.00000000000E+00  0.74505805969E-08  0.10566000000E+00  0.10566000000E+00 0. -1.
     999900   -1    0    0    0    0 -0.00000000000E+00 -0.00000000000E+00 -0.74505805969E-08  0.93827000000E+00  0.93827000000E+00 0. -1.
     999902    2    1    2    0    0  0.85442761921E-02 -0.16021282441E-02  0.21448147060E-01  0.10207870857E+01  0.10205247081E+01 0.  0.
     999903    2    3    3    0    0  0.75055944522E-01  0.87129794229E-01  0.63578996815E-01  0.13282753447E+00  0.19387347110E-01 0.  0.
         14    1    1    2    0    0 -0.85442761921E-02  0.16021282441E-02 -0.21448147060E-01  0.23142914313E-01  0.00000000000E+00 0.  1.
     999901    1    3    3    0    0 -0.66511668330E-01 -0.88731922473E-01 -0.42130849755E-01  0.88795955121E+00  0.88000000000E+00 0. -1.
        -11    1    4    4    0    0  0.57090825236E-01  0.55240116532E-01  0.49534585977E-01  0.93620345703E-01  0.51100000000E-03 0. -1.
         11    1    4    4    0    0  0.17965119286E-01  0.31889677696E-01  0.14044410838E-01  0.39207188771E-01  0.51100000000E-03 0.  1.
</event>
<event>
 8    1  0.1128641E+005  0.1043930E+01  0.7957747E-01            NaN
         13   -1    0    0    0    0  0.00000000000E+00  0.00000000000E+00  0.74505805969E-08  0.10566000000E+00  0.10566000000E+00 0.  1.
     999900   -1    0    0    0    0 -0.00000000000E+00 -0.00000000000E+00 -0.74505805969E-08  0.93827000000E+00  0.93827000000E+00 0. -1.
     999902    2    1    2    0    0  0.14056872137E-01  0.18507828171E-01 -0.55173693718E-02  0.10200432522E+01  0.10197635312E+01 0.  0.
     999903    2    3    3    0    0 -0.72978871087E-01  0.91723387153E-01 -0.56491520625E-01  0.13126088128E+00  0.17292532392E-01 0.  0.
         14    1    1    2    0    0 -0.14056872137E-01 -0.18507828171E-01  0.55173693718E-02  0.23886747846E-01  0.00000000000E+00 0.  1.
     999901    1    3    3    0    0  0.87035743223E-01 -0.73215558982E-01  0.50974151253E-01  0.88878237087E+00  0.88000000000E+00 0. -1.
        -11    1    4    4    0    0 -0.62756163231E-01  0.69563583891E-01 -0.48990305618E-01  0.10572482865E+00  0.51100000000E-03 0.  1.
         11    1    4    4    0    0 -0.10222707855E-01  0.22159803263E-01 -0.75012150073E-02  0.25536052634E-01  0.51100000000E-03 0. -1.
</event>
<event>
 8    1  0.1128641E+005  0.1043930E+01  0.7957747E-01            NaN
         13   -1    0    0    0    0  0.00000000000E+00  0.00000000000E+00  0.74505805969E-08  0.10566000000E+00  0.10566000000E+00 0.  1.
     999900   -1    0    0    0    0 -0.00000000000E+00 -0.00000000000E+00 -0.74505805969E-08  0.93827000000E+00  0.93827000000E+00 0. -1.
     999902    2    1    2    0    0  0.14779047455E-02  0.28726469354E-01 -0.75016846226E-02  0.10142034207E+01  0.10137676800E+01 0.  0.
     999903    2    3    3    0    0  0.36017759569E-01  0.10429911694E+00  0.60009966411E-01  0.12771481410E+00  0.23114776039E-01 0.  0.
         14    1    1    2    0    0 -0.14779047455E-02 -0.28726469354E-01  0.75016846226E-02  0.29726579288E-01  0.00000000000E+00 0. -1.
     999901    1    3    3    0    0 -0.34539854824E-01 -0.75572647590E-01 -0.67511651034E-01  0.88648860662E+00  0.88000000000E+00 0. -1.
        -11    1    4    4    0    0  0.21055387224E-01  0.35230283431E-01  0.13924007813E-01  0.43343296095E-01  0.51100000000E-03 0.  1.
         11    1    4    4    0    0  0.14962372346E-01  0.69068833512E-01  0.46085958598E-01  0.84371518002E-01  0.51100000000E-03 0. -1.
</event>
<event>
 8    1  0.1128641E+005  0.1043930E+01  0.7957747E-01            NaN
         13   -1    0    0    0    0  0.00000000000E+00  0.00000000000E+00  0.74505805969E-08  0.10566000000E+00  0.10566000000E+00 0. -1.
     999900   -1    0    0    0    0 -0.00000000000E+00 -0.00000000000E+00 -0.74505805969E-08  0.93827000000E+00  0.93827000000E+00 0.  1.
     999902    2    1    2    0    0  0.96857132560E-02 -0.19090616213E-01  0.10187445365E-01  0.10202224334E+01  0.10199469422E+01 0.  0.
     999903    2    3    3    0    0 -0.60721142826E-02 -0.11122871754E-01  0.12977759368E+00  0.13195805971E+00  0.20251341993E-01 0.  0.
         14    1    1    2    0    0 -0.96857132560E-02  0.19090616213E-01 -0.10187445365E-01  0.23707566550E-01  0.00000000000E+00 0.  1.
     999901    1    3    3    0    0  0.15757827539E-01 -0.79677444588E-02 -0.11959014832E+00  0.88826437374E+00  0.88000000000E+00 0.  1.
        -11    1    4    4    0    0 -0.99645901795E-02 -0.12728783687E-01  0.62897756790E-01  0.64943852070E-01  0.51100000000E-03 0.  1.
         11    1    4    4    0    0  0.38924758969E-02  0.16059119327E-02  0.66879836893E-01  0.67014207640E-01  0.51100000000E-03 0. -1.
</event>
<event>
 7    1  0.1128641E+005  0.1043930E+01  0.7957747E-01            NaN
         13   -1    0    0    0    0  0.00000000000E+00  0.00000000000E+00  0.74505805969E-08  0.10566000000E+00  0.10566000000E+00 0.  1.
     999900   -1    0    0    0    0 -0.00000000000E+00 -0.00000000000E+00 -0.74505805969E-08  0.93827000000E+00  0.93827000000E+00 0. -1.
     999902    2    1    2    0    0  0.12840219352E-01  0.19212483094E-01 -0.48277306178E-02  0.10203228459E+01  0.10200497107E+01 0.  0.
         14    1    1    2    0    0 -0.12840219352E-01 -0.19212483094E-01  0.48277306178E-02  0.23607154055E-01  0.00000000000E+00 0. -1.
     999901    1    3    3    0    0  0.26380520760E-01  0.26184619918E-01 -0.10045491985E+00  0.88649464585E+00  0.88000000000E+00 0. -1.
        -11    1    3    3    0    0  0.53867723988E-02 -0.45504621318E-01  0.27933277469E-01  0.53667653100E-01  0.51100000000E-03 0.  1.
         11    1    3    3    0    0 -0.18927073807E-01  0.38532484494E-01  0.67693911762E-01  0.80160546997E-01  0.51100000000E-03 0. -1.
</event>
<event>
 8    1  0.1128641E+005  0.1043930E+01  0.7957747E-01            NaN
         13   -1    0    0    0    0  0.00000000000E+00  0.00000000000E+00  0.74505805969E-08  0.10566000000E+00  0.10566000000E+00 0. -1.
     999900   -1    0    0    0    0 -0.00000000000E+00 -0.00000000000E+00 -0.74505805969E-08  0.93827000000E+00  0.93827000000E+00 0. -1.
     999902    2    1    2    0    0  0.12538223965E-02 -0.21952651593E-01 -0.68498093521E-02  0.10208993493E+01  0.10206395400E+01 0.  0.
     999903    2    3    3    0    0  0.51920228881E-01  0.88906436350E-01 -0.76628914201E-01  0.12976190448E+00  0.19133655447E-01 0.  0.
         14    1    1    2    0    0 -0.12538223965E-02  0.21952651593E-01  0.68498093521E-02  0.23030650679E-01  0.00000000000E+00 0.  1.
     999901    1    3    3    0    0 -0.50666406485E-01 -0.11085908794E+00  0.69779104849E-01  0.89113744484E+00  0.88000000000E+00 0. -1.
        -11    1    4    4    0    0  0.52059901474E-01  0.78917736222E-01 -0.71395153122E-01  0.11847266116E+00  0.51100000000E-03 0.  1.
         11    1    4    4    0    0 -0.13967259304E-03  0.99887001284E-02 -0.52337610783E-02  0.11289243319E-01  0.51100000000E-03 0. -1.
</event>
<event>
 8    1  0.1128641E+005  0.1043930E+01  0.7957747E-01            NaN
         13   -1    0    0    0    0  0.00000000000E+00  0.00000000000E+00  0.74505805969E-08  0.10566000000E+00  0.10566000000E+00 0. -1.
     999900   -1    0    0    0    0 -0.00000000000E+00 -0.00000000000E+00 -0.74505805969E-08  0.93827000000E+00  0.93827000000E+00 0.  1.
     999902    2    1    2    0    0 -0.15116858524E-01 -0.17404920783E-01 -0.63445494938E-03  0.10208680571E+01  0.10206075331E+01 0.  0.
     999903    2    3    3    0    0 -0.38918551349E-01  0.49401138197E-01  0.11285262761E+00  0.13075071198E+00  0.20122301835E-01 0.  0.
         14    1    1    2    0    0  0.15116858524E-01  0.17404920783E-01  0.63445494938E-03  0.23061942940E-01  0.00000000000E+00 0.  1.
     999901    1    3    3    0    0  0.23801692825E-01 -0.66806058980E-01 -0.11348708256E+00  0.89011734508E+00  0.88000000000E+00 0.  1.
        -11    1    4    4    0    0 -0.21841223629E-01  0.12167430841E-01  0.45440505942E-01  0.51867004195E-01  0.51100000000E-03 0.  1.
         11    1    4    4    0    0 -0.17077327720E-01  0.37233707355E-01  0.67412121670E-01  0.78883707789E-01  0.51100000000E-03 0. -1.
</event>
<event>
 8    1  0.1128641E+005  0.1043930E+01  0.7957747E-01            NaN
         13   -1    0    0    0    0  0.00000000000E+00  0.00000000000E+00  0.74505805969E-08  0.10566000000E+00  0.10566000000E+00 0.  1.
     999900   -1    0    0    0    0 -0.00000000000E+00 -0.00000000000E+00 -0.74505805969E-08  0.93827000000E+00  0.93827000000E+00 0.  1.
     999902    2    1    2    0    0  0.17645875819E-01 -0.25210662312E-01  0.14630870739E-01  0.10098563033E+01  0.10092812970E+01 0.  0.
     999903    2    3    3    0    0  0.62587314190E-01 -0.10594670849E+00 -0.44274929407E-02  0.12481321777E+00  0.20417142260E-01 0.  0.
         14    1    1    2    0    0 -0.17645875819E-01  0.25210662312E-01 -0.14630870739E-01  0.34073696691E-01  0.00000000000E+00 0. -1.
     999901    1    3    3    0    0 -0.44941438371E-01  0.80736046181E-01  0.19058363680E-01  0.88504308554E+00  0.88000000000E+00 0. -1.
        -11    1    4    4    0    0  0.39247576828E-01 -0.62933689767E-01 -0.12485820489E-01  0.75214216933E-01  0.51100000000E-03 0. -1.
         11    1    4    4    0    0  0.23339737362E-01 -0.43013018726E-01  0.80583275483E-02  0.49599000836E-01  0.51100000000E-03 0.  1.
</event>
<event>
 8    1  0.1128641E+005  0.1043930E+01  0.7957747E-01            NaN
         13   -1    0    0    0    0  0.00000000000E+00  0.00000000000E+00  0.74505805969E-08  0.10566000000E+00  0.10566000000E+00 0. -1.
     999900   -1    0    0    0    0 -0.00000000000E+00 -0.00000000000E+00 -0.74505805969E-08  0.93827000000E+00  0.93827000000E+00 0.  1.
     999902    2    1    2    0    0 -0.16220742961E-01 -0.16127781253E-01 -0.10126750901E-01  0.10189146264E+01  0.10186075039E+01 0.  0.
     999903    2    3    3    0    0  0.12293550246E+00  0.92589596084E-02 -0.26136298925E-01  0.12747463807E+00  0.19178402698E-01 0.  0.
         14    1    1    2    0    0  0.16220742961E-01  0.16127781253E-01  0.10126750901E-01  0.25015373557E-01  0.00000000000E+00 0. -1.
     999901    1    3    3    0    0 -0.13915624542E+00 -0.25386740861E-01  0.16009548024E-01  0.89143998838E+00  0.88000000000E+00 0.  1.
        -11    1    4    4    0    0  0.60315221024E-01  0.14056034101E-01 -0.14306418945E-01  0.63564398258E-01  0.51100000000E-03 0. -1.
         11    1    4    4    0    0  0.62620281437E-01 -0.47970744930E-02 -0.11829879981E-01  0.63910239808E-01  0.51100000000E-03 0.  1.
</event>
<event>
 8    1  0.1128641E+005  0.1043930E+01  0.7957747E-01            NaN
         13   -1    0    0    0    0  0.00000000000E+00  0.00000000000E+00  0.74505805969E-08  0.10566000000E+00  0.10566000000E+00 0. -1.
     999900   -1    0    0    0    0 -0.00000000000E+00 -0.00000000000E+00 -0.74505805969E-08  0.93827000000E+00  0.93827000000E+00 0.  1.
     999902    2    1    2    0    0  0.15991922531E-01  0.36638671786E-02 -0.17729303813E-01  0.10197743853E+01  0.10194882555E+01 0.  0.
     999903    2    3    3    0    0  0.39539895797E-01  0.30824096426E-01  0.11701205509E+00  0.12879323009E+00  0.19553690231E-01 0.  0.
         14    1    1    2    0    0 -0.15991922531E-01 -0.36638671786E-02  0.17729303813E-01  0.24155614722E-01  0.00000000000E+00 0. -1.
     999901    1    3    3    0    0 -0.23547973266E-01 -0.27160229247E-01 -0.13474135890E+00  0.89098115519E+00  0.88000000000E+00 0.  1.
        -11    1    4    4    0    0  0.18436889075E-01  0.81240676517E-02  0.66889053608E-01  0.69859329853E-01  0.51100000000E-03 0.  1.
         11    1    4    4    0    0  0.21103006722E-01  0.22700028774E-01  0.50123001479E-01  0.58933900239E-01  0.51100000000E-03 0. -1.
</event>
<event>
 8    1  0.1128641E+005  0.1043930E+01  0.7957747E-01            NaN
         13   -1    0    0    0    0  0.00000000000E+00  0.00000000000E+00  0.74505805969E-08  0.10566000000E+00  0.10566000000E+00 0.  1.
     999900   -1    0    0    0    0 -0.00000000000E+00 -0.00000000000E+00 -0.74505805969E-08  0.93827000000E+00  0.93827000000E+00 0. -1.
     999902    2    1    2    0    0 -0.70110966023E-02 -0.12952608833E-01  0.19808252841E-01  0.10192461504E+01  0.10189472129E+01 0.  0.
     999903    2    3    3    0    0  0.42436143010E-01 -0.11084871165E+00  0.53316352801E-01  0.13180518378E+00  0.21016895284E-01 0.  0.
         14    1    1    2    0    0  0.70110966023E-02  0.12952608833E-01 -0.19808252841E-01  0.24683849614E-01  0.00000000000E+00 0. -1.
     999901    1    3    3    0    0 -0.49447239613E-01  0.97896102814E-01 -0.33508099960E-01  0.88744096661E+00  0.88000000000E+00 0.  1.
        -11    1    4    4    0    0  0.29126198057E-01 -0.96276616285E-01  0.41616795624E-01  0.10885651591E+00  0.51100000000E-03 0. -1.
         11    1    4    4    0    0  0.13309944953E-01 -0.14572095362E-01  0.11699557176E-01  0.22948667870E-01  0.51100000000E-03 0.  1.
</event>
<event>
 8    1  0.1128641E+005  0.1043930E+01  0.7957747E-01            NaN
         13   -1    0    0    0    0  0.00000000000E+00  0.00000000000E+00  0.74505805969E-08  0.10566000000E+00  0.10566000000E+00 0.  1.
     999900   -1    0    0    0    0 -0.00000000000E+00 -0.00000000000E+00 -0.74505805969E-08  0.93827000000E+00  0.93827000000E+00 0. -1.
     999902    2    1    2    0    0 -0.80352267396E-02  0.16203079706E-01 -0.15789601134E-01  0.10199213315E+01  0.10196387136E+01 0.  0.
     999903    2    3    3    0    0  0.49323323993E-01  0.89634220578E-01  0.77577733547E-01  0.13009011434E+00  0.20929627752E-01 0.  0.
         14    1    1    2    0    0  0.80352267396E-02 -0.16203079706E-01  0.15789601134E-01  0.24008668533E-01  0.00000000000E+00 0. -1.
     999901    1    3    3    0    0 -0.57358550733E-01 -0.73431140872E-01 -0.93367334681E-01  0.88983121713E+00  0.88000000000E+00 0. -1.
        -11    1    4    4    0    0  0.32844097163E-01  0.60158294474E-01  0.63715015642E-01  0.93582153490E-01  0.51100000000E-03 0. -1.
         11    1    4    4    0    0  0.16479226830E-01  0.29475926104E-01  0.13862717905E-01  0.36507960848E-01  0.51100000000E-03 0.  1.
</event>
<event>
 8    1  0.1128641E+005  0.1043930E+01  0.7957747E-01            NaN
         13   -1    0    0    0    0  0.00000000000E+00  0.00000000000E+00  0.74505805969E-08  0.10566000000E+00  0.10566000000E+00 0.  1.
     999900   -1    0    0    0    0 -0.00000000000E+00 -0.00000000000E+00 -0.74505805969E-08  0.93827000000E+00  0.93827000000E+00 0.  1.
     999902    2    1    2    0    0  0.19369454302E-01 -0.13231350829E-01  0.51070269067E-02  0.10199232066E+01  0.10196406334E+01 0.  0.
     999903    2    3    3    0    0 -0.95698894463E-01 -0.66899408924E-01  0.52397028729E-01  0.12955399690E+00  0.20124119269E-01 0.  0.
         14    1    1    2    0    0 -0.19369454302E-01  0.13231350829E-01 -0.51070269067E-02  0.24006793383E-01  0.00000000000E+00 0.  1.
     999901    1    3    3    0    0  0.11506834876E+00  0.53668058096E-01 -0.47290001822E-01  0.89036920972E+00  0.88000000000E+00 0.  1.
        -11    1    4    4    0    0 -0.30785834873E-01 -0.11495033570E-01  0.18579859688E-01  0.37754148549E-01  0.51100000000E-03 0.  1.
         11    1    4    4    0    0 -0.64913059589E-01 -0.55404375354E-01  0.33817169041E-01  0.91799848347E-01  0.51100000000E-03 0. -1.
</event>
<event>
 8    1  0.1128641E+005  0.1043930E+01  0.7957747E-01            NaN
         13   -1    0    0    0    0  0.00000000000E+00  0.00000000000E+00  0.74505805969E-08  0.10566000000E+00  0.10566000000E+00 0. -1.
     999900   -1    0    0    0    0 -0.00000000000E+00 -0.00000000000E+00 -0.74505805969E-08  0.93827000000E+00  0.93827000000E+00 0.  1.
     999902    2    1    2    0    0  0.42653488844E-02  0.10639381042E-01 -0.20847959808E-01  0.10201386768E+01  0.10198612126E+01 0.  0.
     999903    2    3    3    0    0 -0.18153065586E-01  0.10738289119E+00 -0.73591641930E-01  0.13298379291E+00  0.20207431866E-01 0.  0.
         14    1    1    2    0    0 -0.42653488844E-02 -0.10639381042E-01  0.20847959808E-01  0.23791323171E-01  0.00000000000E+00 0. -1.
     999901    1    3    3    0    0  0.22418414470E-01 -0.96743510152E-01  0.52743682122E-01  0.88715488392E+00  0.88000000000E+00 0. -1.
        -11    1    4    4    0    0 -0.20246785593E-01  0.70630250665E-01 -0.54713910873E-01  0.91610249426E-01  0.51100000000E-03 0.  1.
         11    1    4    4    0    0  0.20937200077E-02  0.36752640529E-01 -0.18877731057E-01  0.41373543481E-01  0.51100000000E-03 0. -1.
</event>
<event>
 8    1  0.1128641E+005  0.1043930E+01  0.7957747E-01            NaN
         13   -1    0    0    0    0  0.00000000000E+00  0.00000000000E+00  0.74505805969E-08  0.10566000000E+00  0.10566000000E+00 0.  1.
     999900   -1    0    0    0    0 -0.00000000000E+00 -0.00000000000E+00 -0.74505805969E-08  0.93827000000E+00  0.93827000000E+00 0. -1.
     999902    2    1    2    0    0  0.20198506629E-01  0.12131652265E-01 -0.51354451440E-02  0.10198150782E+01  0.10195299232E+01 0.  0.
     999903    2    3    3    0    0  0.12397690191E+00 -0.64487279420E-02  0.41649961071E-01  0.13228814334E+00  0.18803598365E-01 0.  0.
         14    1    1    2    0    0 -0.20198506629E-01 -0.12131652265E-01  0.51354451440E-02  0.24114921803E-01  0.00000000000E+00 0.  1.
     999901    1    3    3    0    0 -0.10377839529E+00  0.18580380207E-01 -0.46785406215E-01  0.88752693485E+00  0.88000000000E+00 0. -1.
        -11    1    4    4    0    0  0.11487946559E+00 -0.89516536566E-02  0.34028614041E-01  0.12014837249E+00  0.51100000000E-03 0.  1.
         11    1    4    4    0    0  0.90974363253E-02  0.25029257146E-02  0.76213470299E-02  0.12139770854E-01  0.51100000000E-03 0. -1.
</event>
<event>
 8    1  0.1128641E+005  0.1043930E+01  0.7957747E-01            NaN
         13   -1    0    0    0    0  0.00000000000E+00  0.00000000000E+00  0.74505805969E-08  0.10566000000E+00  0.10566000000E+00 0.  1.
     999900   -1    0    0    0    0 -0.00000000000E+00 -0.00000000000E+00 -0.74505805969E-08  0.93827000000E+00  0.93827000000E+00 0. -1.
     999902    2    1    2    0    0  0.12144867911E-01 -0.11712687373E-01 -0.15025134926E-01  0.10213370909E+01  0.10210871724E+01 0.  0.
     999903    2    3    3    0    0 -0.31359383166E-01 -0.83268391197E-01 -0.97796271076E-01  0.13349481910E+00  0.18431500358E-01 0.  0.
         14    1    1    2    0    0 -0.12144867911E-01  0.11712687373E-01  0.15025134926E-01  0.22592909101E-01  0.00000000000E+00 0.  1.
     999901    1    3    3    0    0  0.43504251078E-01  0.71555703823E-01  0.82771136151E-01  0.88784227180E+00  0.88000000000E+00 0.  1.
        -11    1    4    4    0    0 -0.29964143699E-01 -0.67527170744E-01 -0.87977851204E-01  0.11488312374E+00  0.51100000000E-03 0.  1.
         11    1    4    4    0    0 -0.13952394668E-02 -0.15741220453E-01 -0.98184198721E-02  0.18611695363E-01  0.51100000000E-03 0. -1.
</event>
<event>
 8    1  0.1128641E+005  0.1043930E+01  0.7957747E-01            NaN
         13   -1    0    0    0    0  0.00000000000E+00  0.00000000000E+00  0.74505805969E-08  0.10566000000E+00  0.10566000000E+00 0.  1.
     999900   -1    0    0    0    0 -0.00000000000E+00 -0.00000000000E+00 -0.74505805969E-08  0.93827000000E+00  0.93827000000E+00 0.  1.
     999902    2    1    2    0    0  0.42660992645E-02 -0.22520134194E-01  0.67938034631E-02  0.10200236868E+01  0.10197435019E+01 0.  0.
     999903    2    3    3    0    0 -0.79404559459E-01  0.75548496414E-01 -0.62654849089E-01  0.12792428043E+00  0.20647809468E-01 0.  0.
         14    1    1    2    0    0 -0.42660992645E-02  0.22520134194E-01 -0.67938034631E-02  0.23906313236E-01  0.00000000000E+00 0.  1.
     999901    1    3    3    0    0  0.83670658724E-01 -0.98068630607E-01  0.69448652552E-01  0.89209940633E+00  0.88000000000E+00 0. -1.
        -11    1    4    4    0    0 -0.64740581409E-01  0.52533018561E-01 -0.40101880031E-01  0.92517473070E-01  0.51100000000E-03 0.  1.
         11    1    4    4    0    0 -0.14663978050E-01  0.23015477853E-01 -0.22552969059E-01  0.35406807360E-01  0.51100000000E-03 0. -1.
</event>
<event>
 8    1  0.1128641E+005  0.1043930E+01  0.7957747E-01            NaN
         13   -1    0    0    0    0  0.00000000000E+00  0.00000000000E+00  0.74505805969E-08  0.10566000000E+00  0.10566000000E+00 0.  1.
     999900   -1    0    0    0    0 -0.00000000000E+00 -0.00000000000E+00 -0.74505805969E-08  0.93827000000E+00  0.93827000000E+00 0.  1.
     999902    2    1    2    0    0  0.48251835184E-02 -0.32114543484E-02  0.22565860432E-01  0.10206316333E+01  0.10203656781E+01 0.  0.
     999903    2    3    3    0    0 -0.12913597921E-01 -0.10780015132E+00 -0.67972677881E-01  0.12964864420E+00  0.20021297888E-01 0.  0.
         14    1    1    2    0    0 -0.48251835184E-02  0.32114543484E-02 -0.22565860432E-01  0.23298366725E-01  0.00000000000E+00 0. -1.
     999901    1    3    3    0    0  0.17738781439E-01  0.10458869697E+00  0.90538538313E-01  0.89098298907E+00  0.88000000000E+00 0. -1.
        -11    1    4    4    0    0  0.16514655066E-02 -0.56823295238E-01 -0.28803664490E-01  0.63730106143E-01  0.51100000000E-03 0. -1.
         11    1    4    4    0    0 -0.14565063427E-01 -0.50976856080E-01 -0.39169013391E-01  0.65918538057E-01  0.51100000000E-03 0.  1.
</event>
<event>
 8    1  0.1128641E+005  0.1043930E+01  0.7957747E-01            NaN
         13   -1    0    0    0    0  0.00000000000E+00  0.00000000000E+00  0.74505805969E-08  0.10566000000E+00  0.10566000000E+00 0. -1.
     999900   -1    0    0    0    0 -0.00000000000E+00 -0.00000000000E+00 -0.74505805969E-08  0.93827000000E+00  0.93827000000E+00 0.  1.
     999902    2    1    2    0    0 -0.11636190076E-01 -0.20318406530E-01  0.63763106281E-04  0.10205154185E+01  0.10202467724E+01 0.  0.
     999903    2    3    3    0    0  0.39119138317E-01  0.44073898065E-01 -0.11363842773E+00  0.12942021565E+00  0.19054776033E-01 0.  0.
         14    1    1    2    0    0  0.11636190076E-01  0.20318406530E-01 -0.63763106281E-04  0.23414581549E-01  0.00000000000E+00 0. -1.
     999901    1    3    3    0    0 -0.50755328393E-01 -0.64392304594E-01  0.11370219083E+00  0.89109520280E+00  0.88000000000E+00 0. -1.
        -11    1    4    4    0    0  0.33498682708E-02  0.16135260608E-01 -0.32787212912E-01  0.36699192141E-01  0.51100000000E-03 0. -1.
         11    1    4    4    0    0  0.35769270047E-01  0.27938637456E-01 -0.80851214816E-01  0.92721023510E-01  0.51100000000E-03 0.  1.
</event>
<event>
 8    1  0.1128641E+005  0.1043930E+01  0.7957747E-01            NaN
         13   -1    0    0    0    0  0.00000000000E+00  0.00000000000E+00  0.74505805969E-08  0.10566000000E+00  0.10566000000E+00 0. -1.
     999900   -1    0    0    0    0 -0.00000000000E+00 -0.00000000000E+00 -0.74505805969E-08  0.93827000000E+00  0.93827000000E+00 0.  1.
     999902    2    1    2    0    0  0.10396683532E-01  0.10614516882E-01 -0.18904035597E-01  0.10198858415E+01  0.10196023774E+01 0.  0.
     999903    2    3    3    0    0  0.66875874097E-01 -0.24341283921E-01 -0.11014248956E+00  0.13267884057E+00  0.20184798468E-01 0.  0.
         14    1    1    2    0    0 -0.10396683532E-01 -0.10614516882E-01  0.18904035597E-01  0.24044158520E-01  0.00000000000E+00 0. -1.
     999901    1    3    3    0    0 -0.56479190566E-01  0.34955800803E-01  0.91238453966E-01  0.88720700091E+00  0.88000000000E+00 0. -1.
        -11    1    4    4    0    0  0.11826421786E-01 -0.12476311561E-01 -0.32405977186E-01  0.36686933380E-01  0.51100000000E-03 0. -1.
         11    1    4    4    0    0  0.55049452311E-01 -0.11864972360E-01 -0.77736512377E-01  0.95991907192E-01  0.51100000000E-03 0.  1.
</event>
<event>
 8    1  0.1128641E+005  0.1043930E+01  0.7957747E-01            NaN
         13   -1    0    0    0    0  0.00000000000E+00  0.00000000000E+00  0.74505805969E-08  0.10566000000E+00  0.10566000000E+00 0. -1.
     999900   -1    0    0    0    0 -0.00000000000E+00 -0.00000000000E+00 -0.74505805969E-08  0.93827000000E+00  0.93827000000E+00 0.  1.
     999902    2    1    2    0    0 -0.71766579906E-02 -0.21529970775E-01  0.36132308629E-02  0.10209495845E+01  0.10206909202E+01 0.  0.
     999903    2    3    3    0    0 -0.30732873197E-01 -0.10596266291E+00 -0.72150253581E-01  0.13335514984E+00  0.20133093944E-01 0.  0.
         14    1    1    2    0    0  0.71766579906E-02  0.21529970775E-01 -0.36132308629E-02  0.22980415548E-01  0.00000000000E+00 0.  1.
     999901    1    3    3    0    0  0.23556215206E-01  0.84432692135E-01  0.75763484444E-01  0.88759443461E+00  0.88000000000E+00 0. -1.
        -11    1    4    4    0    0 -0.34147041983E-02 -0.39142279596E-01 -0.32494884045E-01  0.50989772178E-01  0.51100000000E-03 0.  1.
         11    1    4    4    0    0 -0.27318168998E-01 -0.66820383314E-01 -0.39655369536E-01  0.82365377664E-01  0.51100000000E-03 0. -1.
</event>
<event>
 8    1  0.1128641E+005  0.1043930E+01  0.7957747E-01            NaN
         13   -1    0    0    0    0  0.00000000000E+00  0.00000000000E+00  0.74505805969E-08  0.10566000000E+00  0.10566000000E+00 0. -1.
     999900   -1    0    0    0    0 -0.00000000000E+00 -0.00000000000E+00 -0.74505805969E-08  0.93827000000E+00  0.93827000000E+00 0.  1.
     999902    2    1    2    0    0  0.16733079541E-01  0.18632124240E-01 -0.34886674298E-02  0.10186451665E+01  0.10183313078E+01 0.  0.
     999903    2    3    3    0    0  0.26145995392E-01  0.95012797259E-01  0.81654339420E-01  0.13119266534E+00  0.28862424983E-01 0.  0.
         14    1    1    2    0    0 -0.16733079541E-01 -0.18632124240E-01  0.34886674298E-02  0.25284833499E-01  0.00000000000E+00 0. -1.
     999901    1    3    3    0    0 -0.94129158514E-02 -0.76380673019E-01 -0.85143006850E-01  0.88745250116E+00  0.88000000000E+00 0. -1.
        -11    1    4    4    0    0  0.60761194076E-02  0.33885560548E-02  0.13673926394E-01  0.15350534949E-01  0.51100000000E-03 0. -1.
         11    1    4    4    0    0  0.20069875985E-01  0.91624241204E-01  0.67980413027E-01  0.11584213040E+00  0.51100000000E-03 0.  1.
</event>
<event>
 8    1  0.1128641E+005  0.1043930E+01  0.7957747E-01            NaN
         13   -1    0    0    0    0  0.00000000000E+00  0.00000000000E+00  0.74505805969E-08  0.10566000000E+00  0.10566000000E+00 0. -1.
     999900   -1    0    0    0    0 -0.00000000000E+00 -0.00000000000E+00 -0.74505805969E-08  0.93827000000E+00  0.93827000000E+00 0.  1.
     999902    2    1    2    0    0 -0.28541985791E-02  0.94300860028E-02  0.20888844679E-01  0.10208341821E+01  0.10205728835E+01 0.  0.
     999903    2    3    3    0    0  0.76160627452E-01  0.96635267404E-01  0.45712708653E-01  0.13265384535E+00  0.19198303951E-01 0.  0.
         14    1    1    2    0    0  0.28541985791E-02 -0.94300860028E-02 -0.20888844679E-01  0.23095817880E-01  0.00000000000E+00 0.  1.
     999901    1    3    3    0    0 -0.79014826031E-01 -0.87205181401E-01 -0.24823863974E-01  0.88818033677E+00  0.88000000000E+00 0.  1.
        -11    1    4    4    0    0  0.32730234398E-01  0.26886063375E-01  0.15245545042E-01  0.45020177834E-01  0.51100000000E-03 0. -1.
         11    1    4    4    0    0  0.43430393054E-01  0.69749204029E-01  0.30467163612E-01  0.87633667520E-01  0.51100000000E-03 0.  1.
</event>
<event>
 8    1  0.1128641E+005  0.1043930E+01  0.7957747E-01            NaN
         13   -1    0    0    0    0  0.00000000000E+00  0.00000000000E+00  0.74505805969E-08  0.10566000000E+00  0.10566000000E+00 0.  1.
     999900   -1    0    0    0    0 -0.00000000000E+00 -0.00000000000E+00 -0.74505805969E-08  0.93827000000E+00  0.93827000000E+00 0. -1.
     999902    2    1    2    0    0 -0.31542630698E-02 -0.27123985321E-01  0.18433613983E-02  0.10165610772E+01  0.10161925830E+01 0.  0.
     999903    2    3    3    0    0 -0.13452855372E-01  0.11953573901E-01  0.12446231645E+00  0.12714074641E+00  0.18709193906E-01 0.  0.
         14    1    1    2    0    0  0.31542630698E-02  0.27123985321E-01 -0.18433613983E-02  0.27368922823E-01  0.00000000000E+00 0.  1.
     999901    1    3    3    0    0  0.10298592302E-01 -0.39077559222E-01 -0.12261895505E+00  0.88942033076E+00  0.88000000000E+00 0. -1.
        -11    1    4    4    0    0 -0.50708608296E-02 -0.18523646370E-03  0.82511346346E-01  0.82668805113E-01  0.51100000000E-03 0. -1.
         11    1    4    4    0    0 -0.83819945420E-02  0.12138810365E-01  0.41950970101E-01  0.44471941300E-01  0.51100000000E-03 0.  1.
</event>
<event>
 8    1  0.1128641E+005  0.1043930E+01  0.7957747E-01            NaN
         13   -1    0    0    0    0  0.00000000000E+00  0.00000000000E+00  0.74505805969E-08  0.10566000000E+00  0.10566000000E+00 0. -1.
     999900   -1    0    0    0    0 -0.00000000000E+00 -0.00000000000E+00 -0.74505805969E-08  0.93827000000E+00  0.93827000000E+00 0. -1.
     999902    2    1    2    0    0  0.22074993831E-01 -0.48344743419E-02  0.54804643471E-02  0.10206767640E+01  0.10204118500E+01 0.  0.
     999903    2    3    3    0    0  0.40443889775E-01 -0.10397324336E+00 -0.64917051874E-01  0.13212641532E+00  0.28231585974E-01 0.  0.
         14    1    1    2    0    0 -0.22074993831E-01  0.48344743419E-02 -0.54804643471E-02  0.23253235995E-01  0.00000000000E+00 0.  1.
     999901    1    3    3    0    0 -0.18368895944E-01  0.99138769015E-01  0.70397516221E-01  0.88855034869E+00  0.88000000000E+00 0.  1.
        -11    1    4    4    0    0  0.22234802774E-01 -0.52220762007E-01 -0.49039863710E-01  0.75010424560E-01  0.51100000000E-03 0. -1.
         11    1    4    4    0    0  0.18209087001E-01 -0.51752481350E-01 -0.15877188163E-01  0.57115990758E-01  0.51100000000E-03 0.  1.
</event>
<event>
 8    1  0.1128641E+005  0.1043930E+01  0.7957747E-01            NaN
         13   -1    0    0    0    0  0.00000000000E+00  0.00000000000E+00  0.74505805969E-08  0.10566000000E+00  0.10566000000E+00 0. -1.
     999900   -1    0    0    0    0 -0.00000000000E+00 -0.00000000000E+00 -0.74505805969E-08  0.93827000000E+00  0.93827000000E+00 0. -1.
     999902    2    1    2    0    0  0.15423686075E-02 -0.14067323096E-01 -0.18553462351E-01  0.10205954881E+01  0.10203286975E+01 0.  0.
     999903    2    3    3    0    0 -0.46467458566E-01  0.34518467270E-02 -0.12294378562E+00  0.13295299002E+00  0.19753055011E-01 0.  0.
         14    1    1    2    0    0 -0.15423686075E-02  0.14067323096E-01  0.18553462351E-01  0.23334511892E-01  0.00000000000E+00 0.  1.
     999901    1    3    3    0    0  0.48009827173E-01 -0.17519169823E-01  0.10439032327E+00  0.88764249809E+00  0.88000000000E+00 0.  1.
        -11    1    4    4    0    0 -0.39698245437E-02  0.43325745463E-02 -0.32325437470E-01  0.32859180418E-01  0.51100000000E-03 0. -1.
         11    1    4    4    0    0 -0.42497634022E-01 -0.88072781934E-03 -0.90618348149E-01  0.10009380960E+00  0.51100000000E-03 0.  1.
</event>
<event>
 8    1  0.1128641E+005  0.1043930E+01  0.7957747E-01            NaN
         13   -1    0    0    0    0  0.00000000000E+00  0.00000000000E+00  0.74505805969E-08  0.10566000000E+00  0.10566000000E+00 0.  1.
     999900   -1    0    0    0    0 -0.00000000000E+00 -0.00000000000E+00 -0.74505805969E-08  0.93827000000E+00  0.93827000000E+00 0. -1.
     999902    2    1    2    0    0 -0.19642902240E-01 -0.39801662939E-02 -0.11494996923E-01  0.10208254488E+01  0.10205639503E+01 0.  0.
     999903    2    3    3    0    0  0.27193383006E-02  0.36722287626E-01 -0.12521063077E+00  0.13229407347E+00  0.21635586625E-01 0.  0.
         14    1    1    2    0    0  0.19642902240E-01  0.39801662939E-02  0.11494996923E-01  0.23104551205E-01  0.00000000000E+00 0.  1.
     999901    1    3    3    0    0 -0.22362240540E-01 -0.40702453920E-01  0.11371563384E+00  0.88853137533E+00  0.88000000000E+00 0.  1.
        -11    1    4    4    0    0  0.60220709198E-02  0.29880443051E-01 -0.67271935128E-01  0.73857163443E-01  0.51100000000E-03 0. -1.
         11    1    4    4    0    0 -0.33027326192E-02  0.68418445756E-02 -0.57938695640E-01  0.58436910026E-01  0.51100000000E-03 0.  1.
</event>
<event>
 8    1  0.1128641E+005  0.1043930E+01  0.7957747E-01            NaN
         13   -1    0    0    0    0  0.00000000000E+00  0.00000000000E+00  0.74505805969E-08  0.10566000000E+00  0.10566000000E+00 0.  1.
     999900   -1    0    0    0    0 -0.00000000000E+00 -0.00000000000E+00 -0.74505805969E-08  0.93827000000E+00  0.93827000000E+00 0.  1.
     999902    2    1    2    0    0  0.54405665959E-02  0.19675340076E-01 -0.11845830571E-01  0.10203282527E+01  0.10200552440E+01 0.  0.
     999903    2    3    3    0    0  0.70371461836E-01  0.98212338445E-01  0.45961576202E-01  0.13256376958E+00  0.29374826900E-01 0.  0.
         14    1    1    2    0    0 -0.54405665959E-02 -0.19675340076E-01  0.11845830571E-01  0.23601747264E-01  0.00000000000E+00 0.  1.
     999901    1    3    3    0    0 -0.64930895240E-01 -0.78536998368E-01 -0.57807406773E-01  0.88776448315E+00  0.88000000000E+00 0.  1.
        -11    1    4    4    0    0  0.39165572784E-01  0.70960246028E-01  0.19383398029E-01  0.83338321605E-01  0.51100000000E-03 0.  1.
         11    1    4    4    0    0  0.31205889053E-01  0.27252092417E-01  0.26578178173E-01  0.49225447978E-01  0.51100000000E-03 0. -1.
</event>
<event>
 8    1  0.1128641E+005  0.1043930E+01  0.7957747E-01            NaN
         13   -1    0    0    0    0  0.00000000000E+00  0.00000000000E+00  0.74505805969E-08  0.10566000000E+00  0.10566000000E+00 0. -1.
     999900   -1    0    0    0    0 -0.00000000000E+00 -0.00000000000E+00 -0.74505805969E-08  0.93827000000E+00  0.93827000000E+00 0. -1.
     999902    2    1    2    0    0 -0.20315705280E-01  0.95070574229E-02 -0.13620287113E-02  0.10214585260E+01  0.10212113166E+01 0.  0.
     999903    2    3    3    0    0 -0.10844021453E+00 -0.30096484808E-01 -0.69286129372E-01  0.13356886329E+00  0.19364787392E-01 0.  0.
         14    1    1    2    0    0  0.20315705280E-01 -0.95070574229E-02  0.13620287113E-02  0.22471474008E-01  0.00000000000E+00 0. -1.
     999901    1    3    3    0    0  0.88124509252E-01  0.39603542230E-01  0.67924100661E-01  0.88788966271E+00  0.88000000000E+00 0. -1.
        -11    1    4    4    0    0 -0.77105226868E-01 -0.29432910015E-01 -0.45708667576E-01  0.94345405903E-01  0.51100000000E-03 0.  1.
         11    1    4    4    0    0 -0.31334987664E-01 -0.66357479235E-03 -0.23577461796E-01  0.39223457384E-01  0.51100000000E-03 0. -1.
</event>
<event>
 8    1  0.1128641E+005  0.1043930E+01  0.7957747E-01            NaN
         13   -1    0    0    0    0  0.00000000000E+00  0.00000000000E+00  0.74505805969E-08  0.10566000000E+00  0.10566000000E+00 0. -1.
     999900   -1    0    0    0    0 -0.00000000000E+00 -0.00000000000E+00 -0.74505805969E-08  0.93827000000E+00  0.93827000000E+00 0. -1.
     999902    2    1    2    0    0 -0.14479585163E-01 -0.12816969157E-01  0.12806738285E-01  0.10207363450E+01  0.10204728024E+01 0.  0.
     999903    2    3    3    0    0 -0.15966706066E-01 -0.10600889702E+00  0.76790904275E-01  0.13350417675E+00  0.20825471921E-01 0.  0.
         14    1    1    2    0    0  0.14479585163E-01  0.12816969157E-01 -0.12806738285E-01  0.23193654960E-01  0.00000000000E+00 0.  1.
     999901    1    3    3    0    0  0.14871209027E-02  0.93191927864E-01 -0.63984165990E-01  0.88723216829E+00  0.88000000000E+00 0. -1.
        -11    1    4    4    0    0 -0.10728548317E-01 -0.29410526914E-01  0.31240312851E-01  0.44230070205E-01  0.51100000000E-03 0. -1.
         11    1    4    4    0    0 -0.52381577484E-02 -0.76598370107E-01  0.45550591424E-01  0.89274106547E-01  0.51100000000E-03 0.  1.
</event>
