<event>
 8    1  0.1075206E+005  0.1043930E+01  0.7957747E-01            NaN
         13   -1    0    0    0    0  0.00000000000E+00  0.00000000000E+00  0.74505805969E-08  0.10566000000E+00  0.10566000000E+00 0. -1.
     999900   -1    0    0    0    0 -0.00000000000E+00 -0.00000000000E+00 -0.74505805969E-08  0.93827000000E+00  0.93827000000E+00 0.  1.
     999902    2    1    2    0    0  0.13064283936E-01  0.90876213021E-02 -0.18468971565E-01  0.10195504330E+01  0.10192589083E+01 0.  0.
     999903    2    3    3    0    0 -0.10516168820E+00 -0.53338568463E-01  0.43543416568E-01  0.12729489454E+00  0.20099191492E-01 0.  0.
         14    1    1    2    0    0 -0.13064283936E-01 -0.90876213021E-02  0.18468971565E-01  0.24379566984E-01  0.00000000000E+00 0. -1.
     999901    1    3    3    0    0  0.11822597214E+00  0.62426189765E-01 -0.62012388133E-01  0.89225553847E+00  0.88000000000E+00 0. -1.
        -11    1    4    4    0    0 -0.88828516571E-01 -0.38658374382E-01  0.40945583867E-01  0.10517498384E+00  0.51100000000E-03 0.  1.
         11    1    4    4    0    0 -0.16333171631E-01 -0.14680194081E-01  0.25978327013E-02  0.22119910703E-01  0.51100000000E-03 0. -1.
</event>
<event>
 8    1  0.1075206E+005  0.1043930E+01  0.7957747E-01            NaN
         13   -1    0    0    0    0  0.00000000000E+00  0.00000000000E+00  0.74505805969E-08  0.10566000000E+00  0.10566000000E+00 0.  1.
     999900   -1    0    0    0    0 -0.00000000000E+00 -0.00000000000E+00 -0.74505805969E-08  0.93827000000E+00  0.93827000000E+00 0. -1.
     999902    2    1    2    0    0 -0.21971123261E-01  0.62610441025E-02 -0.13005401300E-01  0.10176417632E+01  0.10173021610E+01 0.  0.
     999903    2    3    3    0    0 -0.12745153768E+00 -0.18668934934E-01  0.10788934276E-01  0.13067288434E+00  0.19146227075E-01 0.  0.
         14    1    1    2    0    0  0.21971123261E-01 -0.62610441025E-02  0.13005401300E-01  0.26288236790E-01  0.00000000000E+00 0. -1.
     999901    1    3    3    0    0  0.10548041441E+00  0.24929979037E-01 -0.23794335575E-01  0.88696887887E+00  0.88000000000E+00 0. -1.
        -11    1    4    4    0    0 -0.54300949709E-01 -0.33322376473E-03  0.10207205134E-01  0.55255337616E-01  0.51100000000E-03 0. -1.
         11    1    4    4    0    0 -0.73150587966E-01 -0.18335711169E-01  0.58172914140E-03  0.75417546723E-01  0.51100000000E-03 0.  1.
</event>
<event>
 8    1  0.1075206E+005  0.1043930E+01  0.7957747E-01            NaN
         13   -1    0    0    0    0  0.00000000000E+00  0.00000000000E+00  0.74505805969E-08  0.10566000000E+00  0.10566000000E+00 0. -1.
     999900   -1    0    0    0    0 -0.00000000000E+00 -0.00000000000E+00 -0.74505805969E-08  0.93827000000E+00  0.93827000000E+00 0. -1.
     999902    2    1    2    0    0  0.22919779157E-01 -0.12035118574E-04 -0.80065090632E-02  0.10196520139E+01  0.10193629427E+01 0.  0.
     999903    2    3    3    0    0  0.12385369899E+00  0.42993145765E-01  0.47025646603E-02  0.13274806064E+00  0.20292465476E-01 0.  0.
         14    1    1    2    0    0 -0.22919779157E-01  0.12035118574E-04  0.80065090632E-02  0.24277986095E-01  0.00000000000E+00 0.  1.
     999901    1    3    3    0    0 -0.10093391983E+00 -0.43005180884E-01 -0.12709073723E-01  0.88690395326E+00  0.88000000000E+00 0. -1.
        -11    1    4    4    0    0  0.10650364606E+00  0.38595913618E-01 -0.28406808308E-02  0.11331814400E+00  0.51100000000E-03 0.  1.
         11    1    4    4    0    0  0.17350052931E-01  0.43972321477E-02  0.75432454910E-02  0.19429916644E-01  0.51100000000E-03 0. -1.
</event>
<event>
 8    1  0.1075206E+005  0.1043930E+01  0.7957747E-01            NaN
         13   -1    0    0    0    0  0.00000000000E+00  0.00000000000E+00  0.74505805969E-08  0.10566000000E+00  0.10566000000E+00 0. -1.
     999900   -1    0    0    0    0 -0.00000000000E+00 -0.00000000000E+00 -0.74505805969E-08  0.93827000000E+00  0.93827000000E+00 0. -1.
     999902    2    1    2    0    0 -0.28527375858E-02 -0.19744314181E-01  0.12183135051E-01  0.10205546961E+01  0.10202869610E+01 0.  0.
     999903    2    3    3    0    0  0.11949651241E+00  0.33479104872E-01 -0.30811474056E-01  0.12945952286E+00  0.20252263665E-01 0.  0.
         14    1    1    2    0    0  0.28527375858E-02  0.19744314181E-01 -0.12183135051E-01  0.23375303931E-01  0.00000000000E+00 0.  1.
     999901    1    3    3    0    0 -0.12234925000E+00 -0.53223419052E-01  0.42994609107E-01  0.89109517321E+00  0.88000000000E+00 0.  1.
        -11    1    4    4    0    0  0.15926160836E-01  0.80926334383E-04  0.13269650854E-02  0.15989718740E-01  0.51100000000E-03 0.  1.
         11    1    4    4    0    0  0.10357035157E+00  0.33398178538E-01 -0.32138439142E-01  0.11346980412E+00  0.51100000000E-03 0. -1.
</event>
<event>
 8    1  0.1075206E+005  0.1043930E+01  0.7957747E-01            NaN
         13   -1    0    0    0    0  0.00000000000E+00  0.00000000000E+00  0.74505805969E-08  0.10566000000E+00  0.10566000000E+00 0.  1.
     999900   -1    0    0    0    0 -0.00000000000E+00 -0.00000000000E+00 -0.74505805969E-08  0.93827000000E+00  0.93827000000E+00 0. -1.
     999902    2    1    2    0    0 -0.11185159963E-01  0.71516834613E-02 -0.19334996758E-01  0.10204758643E+01  0.10202062993E+01 0.  0.
     999903    2    3    3    0    0  0.58114488503E-01  0.11423236915E+00 -0.20140967686E-01  0.13127995561E+00  0.20060913001E-01 0.  0.
         14    1    1    2    0    0  0.11185159963E-01 -0.71516834613E-02  0.19334996758E-01  0.23454135656E-01  0.00000000000E+00 0.  1.
     999901    1    3    3    0    0 -0.69299648466E-01 -0.10708068568E+00  0.80597092757E-03  0.88919590874E+00  0.88000000000E+00 0.  1.
        -11    1    4    4    0    0  0.36833803204E-01  0.91191371367E-01 -0.14728064704E-01  0.99447334208E-01  0.51100000000E-03 0.  1.
         11    1    4    4    0    0  0.21280685300E-01  0.23040997779E-01 -0.54129029818E-02  0.31832621399E-01  0.51100000000E-03 0. -1.
</event>
<event>
 8    1  0.1075206E+005  0.1043930E+01  0.7957747E-01            NaN
         13   -1    0    0    0    0  0.00000000000E+00  0.00000000000E+00  0.74505805969E-08  0.10566000000E+00  0.10566000000E+00 0.  1.
     999900   -1    0    0    0    0 -0.00000000000E+00 -0.00000000000E+00 -0.74505805969E-08  0.93827000000E+00  0.93827000000E+00 0.  1.
     999902    2    1    2    0    0  0.23693218276E-01  0.10162136817E-02  0.17328492159E-02  0.10201517736E+01  0.10198746184E+01 0.  0.
     999903    2    3    3    0    0 -0.48165028707E-01 -0.61769137256E-01  0.10099232573E+00  0.12944528347E+00  0.20526452406E-01 0.  0.
         14    1    1    2    0    0 -0.23693218276E-01 -0.10162136817E-02 -0.17328492159E-02  0.23778226362E-01  0.00000000000E+00 0.  1.
     999901    1    3    3    0    0  0.71858246982E-01  0.62785350938E-01 -0.99259476514E-01  0.89070649017E+00  0.88000000000E+00 0.  1.
        -11    1    4    4    0    0 -0.20443601543E-01 -0.36201479494E-01  0.39756345091E-01  0.57526655192E-01  0.51100000000E-03 0. -1.
         11    1    4    4    0    0 -0.27721427163E-01 -0.25567657762E-01  0.61235980639E-01  0.71918628277E-01  0.51100000000E-03 0.  1.
</event>
<event>
 8    1  0.1075206E+005  0.1043930E+01  0.7957747E-01            NaN
         13   -1    0    0    0    0  0.00000000000E+00  0.00000000000E+00  0.74505805969E-08  0.10566000000E+00  0.10566000000E+00 0. -1.
     999900   -1    0    0    0    0 -0.00000000000E+00 -0.00000000000E+00 -0.74505805969E-08  0.93827000000E+00  0.93827000000E+00 0. -1.
     999902    2    1    2    0    0 -0.78318293258E-02 -0.20618591610E-01 -0.10657442828E-01  0.10194341849E+01  0.10191398394E+01 0.  0.
     999903    2    3    3    0    0 -0.40480069271E-01  0.75074851002E-01 -0.95775253580E-01  0.12956442799E+00  0.18416637598E-01 0.  0.
         14    1    1    2    0    0  0.78318293258E-02  0.20618591610E-01  0.10657442828E-01  0.24495815116E-01  0.00000000000E+00 0. -1.
     999901    1    3    3    0    0  0.32648239945E-01 -0.95693442612E-01  0.85117810753E-01  0.88986975690E+00  0.88000000000E+00 0.  1.
        -11    1    4    4    0    0 -0.25213520110E-01  0.61805481964E-01 -0.77663309713E-01  0.10240844689E+00  0.51100000000E-03 0.  1.
         11    1    4    4    0    0 -0.15266549161E-01  0.13269369038E-01 -0.18111943867E-01  0.27155981102E-01  0.51100000000E-03 0. -1.
</event>
<event>
 8    1  0.1075206E+005  0.1043930E+01  0.7957747E-01            NaN
         13   -1    0    0    0    0  0.00000000000E+00  0.00000000000E+00  0.74505805969E-08  0.10566000000E+00  0.10566000000E+00 0. -1.
     999900   -1    0    0    0    0 -0.00000000000E+00 -0.00000000000E+00 -0.74505805969E-08  0.93827000000E+00  0.93827000000E+00 0. -1.
     999902    2    1    2    0    0 -0.20134067564E-01 -0.99156356364E-02 -0.83709593374E-02  0.10199764310E+01  0.10196951242E+01 0.  0.
     999903    2    3    3    0    0 -0.65453452915E-01  0.54970940180E-01  0.96134956757E-01  0.13026546620E+00  0.20523231034E-01 0.  0.
         14    1    1    2    0    0  0.20134067564E-01  0.99156356364E-02  0.83709593374E-02  0.23953568982E-01  0.00000000000E+00 0. -1.
     999901    1    3    3    0    0  0.45319385351E-01 -0.64886575816E-01 -0.10450591609E+00  0.88971096481E+00  0.88000000000E+00 0. -1.
        -11    1    4    4    0    0 -0.98134516394E-02  0.17050259424E-01  0.30038761041E-01  0.35911049350E-01  0.51100000000E-03 0.  1.
         11    1    4    4    0    0 -0.55640001276E-01  0.37920680756E-01  0.66096195716E-01  0.94354416855E-01  0.51100000000E-03 0. -1.
</event>
<event>
 8    1  0.1075206E+005  0.1043930E+01  0.7957747E-01            NaN
         13   -1    0    0    0    0  0.00000000000E+00  0.00000000000E+00  0.74505805969E-08  0.10566000000E+00  0.10566000000E+00 0.  1.
     999900   -1    0    0    0    0 -0.00000000000E+00 -0.00000000000E+00 -0.74505805969E-08  0.93827000000E+00  0.93827000000E+00 0. -1.
     999902    2    1    2    0    0 -0.11183377356E-01  0.16472752199E-01 -0.13175493892E-01  0.10200550522E+01  0.10197756108E+01 0.  0.
     999903    2    3    3    0    0  0.36010415845E-01  0.18036163878E-01  0.12067318693E+00  0.12868242094E+00  0.19367347727E-01 0.  0.
         14    1    1    2    0    0  0.11183377356E-01 -0.16472752199E-01  0.13175493892E-01  0.23874947820E-01  0.00000000000E+00 0.  1.
     999901    1    3    3    0    0 -0.47193793202E-01 -0.15634116794E-02 -0.13384868082E+00  0.89137263124E+00  0.88000000000E+00 0. -1.
        -11    1    4    4    0    0  0.31495373469E-01  0.12789165301E-01  0.11433712233E+00  0.11928436596E+00  0.51100000000E-03 0. -1.
         11    1    4    4    0    0  0.45150423765E-02  0.52469985767E-02  0.63360645965E-02  0.93980549741E-02  0.51100000000E-03 0.  1.
</event>
<event>
 8    1  0.1075206E+005  0.1043930E+01  0.7957747E-01            NaN
         13   -1    0    0    0    0  0.00000000000E+00  0.00000000000E+00  0.74505805969E-08  0.10566000000E+00  0.10566000000E+00 0. -1.
     999900   -1    0    0    0    0 -0.00000000000E+00 -0.00000000000E+00 -0.74505805969E-08  0.93827000000E+00  0.93827000000E+00 0. -1.
     999902    2    1    2    0    0 -0.13527239064E-01  0.20929869048E-01  0.13700333261E-01  0.10154915622E+01  0.10150932805E+01 0.  0.
     999903    2    3    3    0    0  0.82502317855E-01  0.94178884705E-01  0.10877778720E-01  0.12723762274E+00  0.19869368229E-01 0.  0.
         14    1    1    2    0    0  0.13527239064E-01 -0.20929869048E-01 -0.13700333261E-01  0.28438437835E-01  0.00000000000E+00 0. -1.
     999901    1    3    3    0    0 -0.96029556919E-01 -0.73249015657E-01  0.28225545403E-02  0.88825393943E+00  0.88000000000E+00 0. -1.
        -11    1    4    4    0    0  0.48582712705E-01  0.40980620044E-01  0.27245871107E-02  0.63618988430E-01  0.51100000000E-03 0. -1.
         11    1    4    4    0    0  0.33919605150E-01  0.53198264661E-01  0.81531916096E-02  0.63618634306E-01  0.51100000000E-03 0.  1.
</event>
<event>
 8    1  0.1075206E+005  0.1043930E+01  0.7957747E-01            NaN
         13   -1    0    0    0    0  0.00000000000E+00  0.00000000000E+00  0.74505805969E-08  0.10566000000E+00  0.10566000000E+00 0.  1.
     999900   -1    0    0    0    0 -0.00000000000E+00 -0.00000000000E+00 -0.74505805969E-08  0.93827000000E+00  0.93827000000E+00 0.  1.
     999902    2    1    2    0    0  0.21777677212E-01  0.10424001072E-01 -0.66943621900E-03  0.10197768394E+01  0.10194907685E+01 0.  0.
     999903    2    3    3    0    0  0.44654202861E-02  0.27979251405E-01 -0.12574503944E+00  0.13059080284E+00  0.20961019911E-01 0.  0.
         14    1    1    2    0    0 -0.21777677212E-01 -0.10424001072E-01  0.66943621900E-03  0.24153160620E-01  0.00000000000E+00 0. -1.
     999901    1    3    3    0    0  0.17312256926E-01 -0.17555250333E-01  0.12507560322E+00  0.88918603654E+00  0.88000000000E+00 0. -1.
        -11    1    4    4    0    0 -0.76590517447E-02  0.53070590360E-02 -0.27713790443E-01  0.29242798275E-01  0.51100000000E-03 0. -1.
         11    1    4    4    0    0  0.12124472031E-01  0.22672192369E-01 -0.98031248996E-01  0.10134800457E+00  0.51100000000E-03 0.  1.
</event>
<event>
 8    1  0.1075206E+005  0.1043930E+01  0.7957747E-01            NaN
         13   -1    0    0    0    0  0.00000000000E+00  0.00000000000E+00  0.74505805969E-08  0.10566000000E+00  0.10566000000E+00 0. -1.
     999900   -1    0    0    0    0 -0.00000000000E+00 -0.00000000000E+00 -0.74505805969E-08  0.93827000000E+00  0.93827000000E+00 0.  1.
     999902    2    1    2    0    0 -0.21619022611E-02 -0.23924920682E-01 -0.13569640895E-02  0.10198693059E+01  0.10195854471E+01 0.  0.
     999903    2    3    3    0    0  0.24810041469E-01 -0.22321629974E-01 -0.12489505561E+00  0.13082953378E+00  0.20094742363E-01 0.  0.
         14    1    1    2    0    0  0.21619022611E-02  0.23924920682E-01  0.13569640895E-02  0.24060694141E-01  0.00000000000E+00 0.  1.
     999901    1    3    3    0    0 -0.26971943731E-01 -0.16032907077E-02  0.12353809152E+00  0.88903977208E+00  0.88000000000E+00 0. -1.
        -11    1    4    4    0    0  0.11946009483E-01 -0.74568629733E-02 -0.22390721481E-01  0.26455953535E-01  0.51100000000E-03 0. -1.
         11    1    4    4    0    0  0.12864031987E-01 -0.14864767001E-01 -0.10250433413E+00  0.10437358024E+00  0.51100000000E-03 0.  1.
</event>
<event>
 8    1  0.1075206E+005  0.1043930E+01  0.7957747E-01            NaN
         13   -1    0    0    0    0  0.00000000000E+00  0.00000000000E+00  0.74505805969E-08  0.10566000000E+00  0.10566000000E+00 0. -1.
     999900   -1    0    0    0    0 -0.00000000000E+00 -0.00000000000E+00 -0.74505805969E-08  0.93827000000E+00  0.93827000000E+00 0. -1.
     999902    2    1    2    0    0 -0.10345077210E-01  0.40963696348E-02  0.22941950217E-01  0.10184322757E+01  0.10181130419E+01 0.  0.
     999903    2    3    3    0    0 -0.16054908222E-01  0.10397786630E+00 -0.69812299248E-01  0.12791991396E+00  0.20508303297E-01 0.  0.
         14    1    1    2    0    0  0.10345077210E-01 -0.40963696348E-02 -0.22941950217E-01  0.25497724338E-01  0.00000000000E+00 0.  1.
     999901    1    3    3    0    0  0.57098310122E-02 -0.99881496663E-01  0.92754249465E-01  0.89051236170E+00  0.88000000000E+00 0.  1.
        -11    1    4    4    0    0 -0.95700492483E-02  0.14007763021E-01 -0.10338652921E-01  0.19873402645E-01  0.51100000000E-03 0. -1.
         11    1    4    4    0    0 -0.64848589738E-02  0.89970103276E-01 -0.59473646327E-01  0.10804651132E+00  0.51100000000E-03 0.  1.
</event>
<event>
 8    1  0.1075206E+005  0.1043930E+01  0.7957747E-01            NaN
         13   -1    0    0    0    0  0.00000000000E+00  0.00000000000E+00  0.74505805969E-08  0.10566000000E+00  0.10566000000E+00 0.  1.
     999900   -1    0    0    0    0 -0.00000000000E+00 -0.00000000000E+00 -0.74505805969E-08  0.93827000000E+00  0.93827000000E+00 0. -1.
     999902    2    1    2    0    0 -0.50090090758E-02  0.71318110476E-02  0.22377207949E-01  0.10199155807E+01  0.10196328257E+01 0.  0.
     999903    2    3    3    0    0  0.53082228141E-01 -0.11271433669E+00 -0.25153331110E-01  0.12862615342E+00  0.19742153801E-01 0.  0.
         14    1    1    2    0    0  0.50090090758E-02 -0.71318110476E-02 -0.22377207949E-01  0.24014419342E-01  0.00000000000E+00 0. -1.
     999901    1    3    3    0    0 -0.58091237217E-01  0.11984614774E+00  0.47530539059E-01  0.89128942724E+00  0.88000000000E+00 0. -1.
        -11    1    4    4    0    0  0.11519199887E-01 -0.98156852557E-02 -0.38248139745E-02  0.15618257458E-01  0.51100000000E-03 0.  1.
         11    1    4    4    0    0  0.41563028254E-01 -0.10289865144E+00 -0.21328517136E-01  0.11300789596E+00  0.51100000000E-03 0. -1.
</event>
<event>
 8    1  0.1075206E+005  0.1043930E+01  0.7957747E-01            NaN
         13   -1    0    0    0    0  0.00000000000E+00  0.00000000000E+00  0.74505805969E-08  0.10566000000E+00  0.10566000000E+00 0. -1.
     999900   -1    0    0    0    0 -0.00000000000E+00 -0.00000000000E+00 -0.74505805969E-08  0.93827000000E+00  0.93827000000E+00 0. -1.
     999902    2    1    2    0    0 -0.41529938927E-03  0.22285287865E-01  0.81369647556E-02  0.10202020265E+01  0.10199260553E+01 0.  0.
     999903    2    3    3    0    0 -0.78566644766E-01 -0.55159928025E-01 -0.83176014525E-01  0.12866209226E+00  0.20502420874E-01 0.  0.
         14    1    1    2    0    0  0.41529938927E-03 -0.22285287865E-01 -0.81369647556E-02  0.23727973455E-01  0.00000000000E+00 0. -1.
     999901    1    3    3    0    0  0.78151345377E-01  0.77445215891E-01  0.91312979281E-01  0.89153993429E+00  0.88000000000E+00 0.  1.
        -11    1    4    4    0    0 -0.52528484195E-01 -0.32831299245E-01 -0.65189045504E-01  0.89927796796E-01  0.51100000000E-03 0. -1.
         11    1    4    4    0    0 -0.26038160571E-01 -0.22328628781E-01 -0.17986969021E-01  0.38734295459E-01  0.51100000000E-03 0.  1.
</event>
<event>
 8    1  0.1075206E+005  0.1043930E+01  0.7957747E-01            NaN
         13   -1    0    0    0    0  0.00000000000E+00  0.00000000000E+00  0.74505805969E-08  0.10566000000E+00  0.10566000000E+00 0.  1.
     999900   -1    0    0    0    0 -0.00000000000E+00 -0.00000000000E+00 -0.74505805969E-08  0.93827000000E+00  0.93827000000E+00 0.  1.
     999902    2    1    2    0    0  0.39152026772E-02  0.10105773229E-01 -0.20015154475E-01  0.10211690274E+01  0.10209153347E+01 0.  0.
     999903    2    3    3    0    0  0.68746654503E-01 -0.97751134248E-01 -0.51253502385E-01  0.13166800773E+00  0.20691930800E-01 0.  0.
         14    1    1    2    0    0 -0.39152026772E-02 -0.10105773229E-01  0.20015154475E-01  0.22760972589E-01  0.00000000000E+00 0.  1.
     999901    1    3    3    0    0 -0.64831451826E-01  0.10785690748E+00  0.31238347910E-01  0.88950101968E+00  0.88000000000E+00 0. -1.
        -11    1    4    4    0    0  0.59195440441E-01 -0.68885102218E-01 -0.39970047486E-01  0.99232672511E-01  0.51100000000E-03 0.  1.
         11    1    4    4    0    0  0.95512140625E-02 -0.28866032029E-01 -0.11283454899E-01  0.32435335217E-01  0.51100000000E-03 0. -1.
</event>
<event>
 8    1  0.1075206E+005  0.1043930E+01  0.7957747E-01            NaN
         13   -1    0    0    0    0  0.00000000000E+00  0.00000000000E+00  0.74505805969E-08  0.10566000000E+00  0.10566000000E+00 0. -1.
     999900   -1    0    0    0    0 -0.00000000000E+00 -0.00000000000E+00 -0.74505805969E-08  0.93827000000E+00  0.93827000000E+00 0.  1.
     999902    2    1    2    0    0 -0.55577245659E-03  0.23697336825E-01 -0.43256362411E-02  0.10198346937E+01  0.10195500080E+01 0.  0.
     999903    2    3    3    0    0 -0.42805891333E-01 -0.10745860893E+00  0.49588632416E-01  0.12748179099E+00  0.20319389829E-01 0.  0.
         14    1    1    2    0    0  0.55577245659E-03 -0.23697336825E-01  0.43256362411E-02  0.24095306275E-01  0.00000000000E+00 0. -1.
     999901    1    3    3    0    0  0.42250118876E-01  0.13115594576E+00 -0.53914268657E-01  0.89235290273E+00  0.88000000000E+00 0.  1.
        -11    1    4    4    0    0 -0.33819185653E-01 -0.60104940362E-01  0.33436442233E-01  0.76645925947E-01  0.51100000000E-03 0.  1.
         11    1    4    4    0    0 -0.89867056795E-02 -0.47353668570E-01  0.16152190183E-01  0.50835865044E-01  0.51100000000E-03 0. -1.
</event>
<event>
 8    1  0.1075206E+005  0.1043930E+01  0.7957747E-01            NaN
         13   -1    0    0    0    0  0.00000000000E+00  0.00000000000E+00  0.74505805969E-08  0.10566000000E+00  0.10566000000E+00 0.  1.
     999900   -1    0    0    0    0 -0.00000000000E+00 -0.00000000000E+00 -0.74505805969E-08  0.93827000000E+00  0.93827000000E+00 0. -1.
     999902    2    1    2    0    0 -0.46925712010E-02 -0.95058416026E-02  0.21271503298E-01  0.10201632564E+01  0.10198863719E+01 0.  0.
     999903    2    3    3    0    0 -0.18179859740E-02  0.10650306619E+00 -0.68065112213E-01  0.12806048160E+00  0.20504128031E-01 0.  0.
         14    1    1    2    0    0  0.46925712010E-02  0.95058416026E-02 -0.21271503298E-01  0.23766743606E-01  0.00000000000E+00 0. -1.
     999901    1    3    3    0    0 -0.28745852270E-02 -0.11600890779E+00  0.89336615511E-01  0.89210277480E+00  0.88000000000E+00 0.  1.
        -11    1    4    4    0    0 -0.71224815534E-02  0.30788199375E-01 -0.28043555137E-01  0.42253343891E-01  0.51100000000E-03 0.  1.
         11    1    4    4    0    0  0.53044955794E-02  0.75714866813E-01 -0.40021557075E-01  0.85807137707E-01  0.51100000000E-03 0. -1.
</event>
<event>
 8    1  0.1075206E+005  0.1043930E+01  0.7957747E-01            NaN
         13   -1    0    0    0    0  0.00000000000E+00  0.00000000000E+00  0.74505805969E-08  0.10566000000E+00  0.10566000000E+00 0. -1.
     999900   -1    0    0    0    0 -0.00000000000E+00 -0.00000000000E+00 -0.74505805969E-08  0.93827000000E+00  0.93827000000E+00 0.  1.
     999902    2    1    2    0    0 -0.13951105964E-01 -0.32510203556E-02 -0.18981313148E-01  0.10201499088E+01  0.10198727095E+01 0.  0.
     999903    2    3    3    0    0  0.52444276684E-01  0.83743902488E-01  0.78950918387E-01  0.12797997796E+00  0.19549523861E-01 0.  0.
         14    1    1    2    0    0  0.13951105964E-01  0.32510203556E-02  0.18981313148E-01  0.23780091248E-01  0.00000000000E+00 0. -1.
     999901    1    3    3    0    0 -0.66395382648E-01 -0.86994922844E-01 -0.97932231535E-01  0.89216993079E+00  0.88000000000E+00 0.  1.
        -11    1    4    4    0    0  0.35225944010E-01  0.69435906000E-01  0.55956037426E-01  0.95883009021E-01  0.51100000000E-03 0.  1.
         11    1    4    4    0    0  0.17218332674E-01  0.14307996489E-01  0.22994880961E-01  0.32096968938E-01  0.51100000000E-03 0. -1.
</event>
<event>
 8    1  0.1075206E+005  0.1043930E+01  0.7957747E-01            NaN
         13   -1    0    0    0    0  0.00000000000E+00  0.00000000000E+00  0.74505805969E-08  0.10566000000E+00  0.10566000000E+00 0. -1.
     999900   -1    0    0    0    0 -0.00000000000E+00 -0.00000000000E+00 -0.74505805969E-08  0.93827000000E+00  0.93827000000E+00 0. -1.
     999902    2    1    2    0    0 -0.15804436178E-01  0.93443537440E-03  0.18241089365E-01  0.10197765176E+01  0.10194904389E+01 0.  0.
     999903    2    3    3    0    0 -0.65146809778E-01 -0.66198071099E-01 -0.87870325521E-01  0.12949505891E+00  0.20530093378E-01 0.  0.
         14    1    1    2    0    0  0.15804436178E-01 -0.93443537440E-03 -0.18241089365E-01  0.24153482431E-01  0.00000000000E+00 0.  1.
     999901    1    3    3    0    0  0.49342373601E-01  0.67132506474E-01  0.10611141489E+00  0.89028145866E+00  0.88000000000E+00 0.  1.
        -11    1    4    4    0    0 -0.11191692985E-01 -0.24444579066E-01 -0.24289361242E-01  0.36235695497E-01  0.51100000000E-03 0. -1.
         11    1    4    4    0    0 -0.53955116793E-01 -0.41753492034E-01 -0.63580964278E-01  0.93259363416E-01  0.51100000000E-03 0.  1.
</event>
<event>
 8    1  0.1075206E+005  0.1043930E+01  0.7957747E-01            NaN
         13   -1    0    0    0    0  0.00000000000E+00  0.00000000000E+00  0.74505805969E-08  0.10566000000E+00  0.10566000000E+00 0. -1.
     999900   -1    0    0    0    0 -0.00000000000E+00 -0.00000000000E+00 -0.74505805969E-08  0.93827000000E+00  0.93827000000E+00 0. -1.
     999902    2    1    2    0    0  0.22970414460E-01 -0.25315652714E-02  0.87050482358E-02  0.10192353320E+01  0.10189361292E+01 0.  0.
     999903    2    3    3    0    0 -0.45429223342E-01  0.43881087479E-01 -0.10891982172E+00  0.12756933241E+00  0.20519328318E-01 0.  0.
         14    1    1    2    0    0 -0.22970414460E-01  0.25315652714E-02 -0.87050482358E-02  0.24694668007E-01  0.00000000000E+00 0. -1.
     999901    1    3    3    0    0  0.68399637802E-01 -0.46412652750E-01  0.11762486996E+00  0.89166599959E+00  0.88000000000E+00 0.  1.
        -11    1    4    4    0    0 -0.45780058722E-01  0.35488276656E-01 -0.96951061570E-01  0.11293804061E+00  0.51100000000E-03 0.  1.
         11    1    4    4    0    0  0.35083538071E-03  0.83928108231E-02 -0.11968760152E-01  0.14631291794E-01  0.51100000000E-03 0. -1.
</event>
<event>
 8    1  0.1075206E+005  0.1043930E+01  0.7957747E-01            NaN
         13   -1    0    0    0    0  0.00000000000E+00  0.00000000000E+00  0.74505805969E-08  0.10566000000E+00  0.10566000000E+00 0.  1.
     999900   -1    0    0    0    0 -0.00000000000E+00 -0.00000000000E+00 -0.74505805969E-08  0.93827000000E+00  0.93827000000E+00 0. -1.
     999902    2    1    2    0    0 -0.21427036784E-01  0.57338641900E-02  0.14643319013E-01  0.10173514015E+01  0.10170041555E+01 0.  0.
     999903    2    3    3    0    0  0.57973412072E-02  0.11817030659E+00 -0.44036134254E-01  0.12784232426E+00  0.20165520776E-01 0.  0.
         14    1    1    2    0    0  0.21427036784E-01 -0.57338641900E-02 -0.14643319013E-01  0.26578598451E-01  0.00000000000E+00 0. -1.
     999901    1    3    3    0    0 -0.27224377991E-01 -0.11243644240E+00  0.58679453267E-01  0.88950907729E+00  0.88000000000E+00 0.  1.
        -11    1    4    4    0    0  0.33319621092E-02  0.10108224775E-01  0.10865439545E-02  0.10710736593E-01  0.51100000000E-03 0. -1.
         11    1    4    4    0    0  0.24653790980E-02  0.10806208182E+00 -0.45122678208E-01  0.11713158767E+00  0.51100000000E-03 0.  1.
</event>
<event>
 8    1  0.1075206E+005  0.1043930E+01  0.7957747E-01            NaN
         13   -1    0    0    0    0  0.00000000000E+00  0.00000000000E+00  0.74505805969E-08  0.10566000000E+00  0.10566000000E+00 0. -1.
     999900   -1    0    0    0    0 -0.00000000000E+00 -0.00000000000E+00 -0.74505805969E-08  0.93827000000E+00  0.93827000000E+00 0.  1.
     999902    2    1    2    0    0 -0.24337421053E-01 -0.89012533980E-02 -0.12096359909E-02  0.10179876486E+01  0.10176570381E+01 0.  0.
     999903    2    3    3    0    0  0.66948911399E-01 -0.89013766578E-01  0.58558394381E-01  0.12763747779E+00  0.21368968274E-01 0.  0.
         14    1    1    2    0    0  0.24337421053E-01  0.89012533980E-02  0.12096359909E-02  0.25942351374E-01  0.00000000000E+00 0. -1.
     999901    1    3    3    0    0 -0.91286332452E-01  0.80112513180E-01 -0.59768030372E-01  0.89035017084E+00  0.88000000000E+00 0. -1.
        -11    1    4    4    0    0  0.10907481520E-01 -0.24683235781E-01  0.67551330579E-02  0.27823159873E-01  0.51100000000E-03 0.  1.
         11    1    4    4    0    0  0.56041429879E-01 -0.64330530798E-01  0.51803261323E-01  0.99814317912E-01  0.51100000000E-03 0. -1.
</event>
<event>
 8    1  0.1075206E+005  0.1043930E+01  0.7957747E-01            NaN
         13   -1    0    0    0    0  0.00000000000E+00  0.00000000000E+00  0.74505805969E-08  0.10566000000E+00  0.10566000000E+00 0.  1.
     999900   -1    0    0    0    0 -0.00000000000E+00 -0.00000000000E+00 -0.74505805969E-08  0.93827000000E+00  0.93827000000E+00 0. -1.
     999902    2    1    2    0    0  0.82188970956E-02  0.20320380103E-01 -0.80891038023E-02  0.10205654603E+01  0.10202979746E+01 0.  0.
     999903    2    3    3    0    0  0.47599036340E-01 -0.11801244251E+00  0.11397095374E-02  0.12884132344E+00  0.20153978282E-01 0.  0.
         14    1    1    2    0    0 -0.82188970956E-02 -0.20320380103E-01  0.80891038023E-02  0.23364539742E-01  0.00000000000E+00 0.  1.
     999901    1    3    3    0    0 -0.39380139244E-01  0.13833282262E+00 -0.92288133397E-02  0.89172413681E+00  0.88000000000E+00 0.  1.
        -11    1    4    4    0    0  0.28046580158E-01 -0.87342140034E-01 -0.53446411985E-02  0.91891710153E-01  0.51100000000E-03 0.  1.
         11    1    4    4    0    0  0.19552456182E-01 -0.30670302480E-01  0.64843507359E-02  0.36949613292E-01  0.51100000000E-03 0. -1.
</event>
<event>
 8    1  0.1075206E+005  0.1043930E+01  0.7957747E-01            NaN
         13   -1    0    0    0    0  0.00000000000E+00  0.00000000000E+00  0.74505805969E-08  0.10566000000E+00  0.10566000000E+00 0.  1.
     999900   -1    0    0    0    0 -0.00000000000E+00 -0.00000000000E+00 -0.74505805969E-08  0.93827000000E+00  0.93827000000E+00 0. -1.
     999902    2    1    2    0    0 -0.21788896766E-01 -0.11905876691E-01 -0.43310319229E-02  0.10187255607E+01  0.10184137196E+01 0.  0.
     999903    2    3    3    0    0  0.14428495091E-01  0.12172325016E+00  0.24746414068E-01  0.12742654193E+00  0.24503213643E-01 0.  0.
         14    1    1    2    0    0  0.21788896766E-01  0.11905876691E-01  0.43310319229E-02  0.25204439283E-01  0.00000000000E+00 0.  1.
     999901    1    3    3    0    0 -0.36217391857E-01 -0.13362912686E+00 -0.29077445991E-01  0.89129901878E+00  0.88000000000E+00 0.  1.
        -11    1    4    4    0    0  0.22541239822E-02  0.35782049181E-01  0.18637633352E-01  0.40411119960E-01  0.51100000000E-03 0. -1.
         11    1    4    4    0    0  0.12174371109E-01  0.85941200984E-01  0.61087807168E-02  0.87015421974E-01  0.51100000000E-03 0.  1.
</event>
<event>
 8    1  0.1075206E+005  0.1043930E+01  0.7957747E-01            NaN
         13   -1    0    0    0    0  0.00000000000E+00  0.00000000000E+00  0.74505805969E-08  0.10566000000E+00  0.10566000000E+00 0.  1.
     999900   -1    0    0    0    0 -0.00000000000E+00 -0.00000000000E+00 -0.74505805969E-08  0.93827000000E+00  0.93827000000E+00 0.  1.
     999902    2    1    2    0    0  0.66648339291E-02  0.21739424669E-01  0.71309910815E-02  0.10200999008E+01  0.10198215206E+01 0.  0.
     999903    2    3    3    0    0 -0.69102163218E-01 -0.44094431334E-01 -0.96623321414E-01  0.12833777338E+00  0.20373757624E-01 0.  0.
         14    1    1    2    0    0 -0.66648339291E-02 -0.21739424669E-01 -0.71309910815E-02  0.23830099245E-01  0.00000000000E+00 0. -1.
     999901    1    3    3    0    0  0.75766997148E-01  0.65833856002E-01  0.10375431250E+00  0.89176212737E+00  0.88000000000E+00 0. -1.
        -11    1    4    4    0    0 -0.64756396426E-02 -0.12599484331E-01 -0.13181815953E-01  0.19357228805E-01  0.51100000000E-03 0.  1.
         11    1    4    4    0    0 -0.62626523576E-01 -0.31494947002E-01 -0.83441505462E-01  0.10898054458E+00  0.51100000000E-03 0. -1.
</event>
<event>
 8    1  0.1075206E+005  0.1043930E+01  0.7957747E-01            NaN
         13   -1    0    0    0    0  0.00000000000E+00  0.00000000000E+00  0.74505805969E-08  0.10566000000E+00  0.10566000000E+00 0.  1.
     999900   -1    0    0    0    0 -0.00000000000E+00 -0.00000000000E+00 -0.74505805969E-08  0.93827000000E+00  0.93827000000E+00 0.  1.
     999902    2    1    2    0    0 -0.83913421815E-02 -0.20733747576E-01 -0.22207004572E-01  0.10124108953E+01  0.10119201386E+01 0.  0.
     999903    2    3    3    0    0  0.45818421392E-01  0.53778477987E-01  0.94895904807E-01  0.11988422248E+00  0.19378896168E-01 0.  0.
         14    1    1    2    0    0  0.83913421815E-02  0.20733747576E-01  0.22207004572E-01  0.31519104750E-01  0.00000000000E+00 0.  1.
     999901    1    3    3    0    0 -0.54209763573E-01 -0.74512225564E-01 -0.11710290938E+00  0.89252667277E+00  0.88000000000E+00 0.  1.
        -11    1    4    4    0    0  0.43490990189E-01  0.39657395326E-01  0.78480706928E-01  0.98100243183E-01  0.51100000000E-03 0. -1.
         11    1    4    4    0    0  0.23274312023E-02  0.14121082661E-01  0.16415197878E-01  0.21783979295E-01  0.51100000000E-03 0.  1.
</event>
<event>
 8    1  0.1075206E+005  0.1043930E+01  0.7957747E-01            NaN
         13   -1    0    0    0    0  0.00000000000E+00  0.00000000000E+00  0.74505805969E-08  0.10566000000E+00  0.10566000000E+00 0.  1.
     999900   -1    0    0    0    0 -0.00000000000E+00 -0.00000000000E+00 -0.74505805969E-08  0.93827000000E+00  0.93827000000E+00 0. -1.
     999902    2    1    2    0    0 -0.13051039611E-01 -0.18503892575E-01  0.73835047817E-02  0.10201132030E+01  0.10198351372E+01 0.  0.
     999903    2    3    3    0    0  0.46731732438E-01 -0.97209183822E-01  0.73506614971E-01  0.13211502262E+00  0.20437135819E-01 0.  0.
         14    1    1    2    0    0  0.13051039611E-01  0.18503892575E-01 -0.73835047817E-02  0.23816796976E-01  0.00000000000E+00 0.  1.
     999901    1    3    3    0    0 -0.59782772049E-01  0.78705291247E-01 -0.66123110190E-01  0.88799818041E+00  0.88000000000E+00 0.  1.
        -11    1    4    4    0    0  0.28014553347E-01 -0.74172235070E-01  0.60353338275E-01  0.99644980889E-01  0.51100000000E-03 0. -1.
         11    1    4    4    0    0  0.18717179091E-01 -0.23036948753E-01  0.13153276697E-01  0.32470041728E-01  0.51100000000E-03 0.  1.
</event>
<event>
 8    1  0.1075206E+005  0.1043930E+01  0.7957747E-01            NaN
         13   -1    0    0    0    0  0.00000000000E+00  0.00000000000E+00  0.74505805969E-08  0.10566000000E+00  0.10566000000E+00 0. -1.
     999900   -1    0    0    0    0 -0.00000000000E+00 -0.00000000000E+00 -0.74505805969E-08  0.93827000000E+00  0.93827000000E+00 0. -1.
     999902    2    1    2    0    0  0.17833565162E-02 -0.22305401422E-02  0.23066206182E-01  0.10206876779E+01  0.10204230153E+01 0.  0.
     999903    2    3    3    0    0 -0.46069277947E-01  0.11985690849E+00  0.16540586338E-01  0.13094737675E+00  0.19635875335E-01 0.  0.
         14    1    1    2    0    0 -0.17833565162E-02  0.22305401422E-02 -0.23066206182E-01  0.23242322117E-01  0.00000000000E+00 0.  1.
     999901    1    3    3    0    0  0.47852634464E-01 -0.12208744863E+00  0.65256198440E-02  0.88974030113E+00  0.88000000000E+00 0. -1.
        -11    1    4    4    0    0 -0.43619881593E-01  0.95487407814E-01  0.17511598929E-01  0.10643052353E+00  0.51100000000E-03 0. -1.
         11    1    4    4    0    0 -0.24493963541E-02  0.24369500671E-01 -0.97101259091E-03  0.24516853222E-01  0.51100000000E-03 0.  1.
</event>
<event>
 8    1  0.1075206E+005  0.1043930E+01  0.7957747E-01            NaN
         13   -1    0    0    0    0  0.00000000000E+00  0.00000000000E+00  0.74505805969E-08  0.10566000000E+00  0.10566000000E+00 0.  1.
     999900   -1    0    0    0    0 -0.00000000000E+00 -0.00000000000E+00 -0.74505805969E-08  0.93827000000E+00  0.93827000000E+00 0.  1.
     999902    2    1    2    0    0  0.17025017720E-01  0.16736437500E-01 -0.14832352767E-01  0.10158238039E+01  0.10154349031E+01 0.  0.
     999903    2    3    3    0    0  0.14492128761E-01  0.12659594904E+00 -0.17609761336E-01  0.12898489985E+00  0.95102358325E-02 0.  0.
         14    1    1    2    0    0 -0.17025017720E-01 -0.16736437500E-01  0.14832352767E-01  0.28106196064E-01  0.00000000000E+00 0.  1.
     999901    1    3    3    0    0  0.25328889593E-02 -0.10985951154E+00  0.27774085687E-02  0.88683890409E+00  0.88000000000E+00 0. -1.
        -11    1    4    4    0    0  0.10035754890E-01  0.50951838589E-01 -0.51131932246E-02  0.52184404737E-01  0.51100000000E-03 0.  1.
         11    1    4    4    0    0  0.44563738711E-02  0.75644110451E-01 -0.12496568111E-01  0.76800495113E-01  0.51100000000E-03 0. -1.
</event>
<event>
 8    1  0.1075206E+005  0.1043930E+01  0.7957747E-01            NaN
         13   -1    0    0    0    0  0.00000000000E+00  0.00000000000E+00  0.74505805969E-08  0.10566000000E+00  0.10566000000E+00 0.  1.
     999900   -1    0    0    0    0 -0.00000000000E+00 -0.00000000000E+00 -0.74505805969E-08  0.93827000000E+00  0.93827000000E+00 0.  1.
     999902    2    1    2    0    0  0.16386485335E-01  0.16793842029E-01  0.40603533130E-02  0.10201174718E+01  0.10198395068E+01 0.  0.
     999903    2    3    3    0    0  0.79699993685E-01 -0.70554825157E-03  0.10483529843E+00  0.13193369655E+00  0.79670381742E-02 0.  0.
         14    1    1    2    0    0 -0.16386485335E-01 -0.16793842029E-01 -0.40603533130E-02  0.23812528231E-01  0.00000000000E+00 0. -1.
     999901    1    3    3    0    0 -0.63313508350E-01  0.17499390281E-01 -0.10077494511E+00  0.88818377522E+00  0.88000000000E+00 0.  1.
        -11    1    4    4    0    0  0.58716128458E-01  0.29240214613E-02  0.76144405130E-01  0.96199611206E-01  0.51100000000E-03 0.  1.
         11    1    4    4    0    0  0.20983865227E-01 -0.36295697128E-02  0.28690893297E-01  0.35734085344E-01  0.51100000000E-03 0. -1.
</event>
<event>
 8    1  0.1075206E+005  0.1043930E+01  0.7957747E-01            NaN
         13   -1    0    0    0    0  0.00000000000E+00  0.00000000000E+00  0.74505805969E-08  0.10566000000E+00  0.10566000000E+00 0.  1.
     999900   -1    0    0    0    0 -0.00000000000E+00 -0.00000000000E+00 -0.74505805969E-08  0.93827000000E+00  0.93827000000E+00 0. -1.
     999902    2    1    2    0    0  0.84071655306E-02  0.14352692258E-01 -0.16828600910E-01  0.10202681739E+01  0.10199937571E+01 0.  0.
     999903    2    3    3    0    0 -0.22107955184E-01  0.11399490329E+00 -0.61516574698E-01  0.13299326843E+00  0.20477324732E-01 0.  0.
         14    1    1    2    0    0 -0.84071655306E-02 -0.14352692258E-01  0.16828600910E-01  0.23661826132E-01  0.00000000000E+00 0.  1.
     999901    1    3    3    0    0  0.30515120715E-01 -0.99642211030E-01  0.44687973788E-01  0.88727490543E+00  0.88000000000E+00 0.  1.
        -11    1    4    4    0    0 -0.16730513696E-02  0.57914187539E-01 -0.34883025714E-01  0.67630901392E-01  0.51100000000E-03 0.  1.
         11    1    4    4    0    0 -0.20434903815E-01  0.56080715749E-01 -0.26633548984E-01  0.65362367042E-01  0.51100000000E-03 0. -1.
</event>
<event>
 8    1  0.1075206E+005  0.1043930E+01  0.7957747E-01            NaN
         13   -1    0    0    0    0  0.00000000000E+00  0.00000000000E+00  0.74505805969E-08  0.10566000000E+00  0.10566000000E+00 0.  1.
     999900   -1    0    0    0    0 -0.00000000000E+00 -0.00000000000E+00 -0.74505805969E-08  0.93827000000E+00  0.93827000000E+00 0. -1.
     999902    2    1    2    0    0 -0.82418104375E-02 -0.65859169605E-02 -0.28680660410E-01  0.10133705166E+01  0.10129096317E+01 0.  0.
     999903    2    3    3    0    0 -0.48858580685E-01 -0.66966124031E-01  0.88255427109E-01  0.12265757748E+00  0.19601995419E-01 0.  0.
         14    1    1    2    0    0  0.82418104375E-02  0.65859169605E-02  0.28680660410E-01  0.30559483357E-01  0.00000000000E+00 0.  1.
     999901    1    3    3    0    0  0.40616770248E-01  0.60380207071E-01 -0.11693608752E+00  0.89071293916E+00  0.88000000000E+00 0. -1.
        -11    1    4    4    0    0 -0.42375737391E-01 -0.48139008604E-01  0.58229937576E-01  0.86625943111E-01  0.51100000000E-03 0. -1.
         11    1    4    4    0    0 -0.64828432939E-02 -0.18827115427E-01  0.30025489533E-01  0.36031634367E-01  0.51100000000E-03 0.  1.
</event>
<event>
 8    1  0.1075206E+005  0.1043930E+01  0.7957747E-01            NaN
         13   -1    0    0    0    0  0.00000000000E+00  0.00000000000E+00  0.74505805969E-08  0.10566000000E+00  0.10566000000E+00 0.  1.
     999900   -1    0    0    0    0 -0.00000000000E+00 -0.00000000000E+00 -0.74505805969E-08  0.93827000000E+00  0.93827000000E+00 0.  1.
     999902    2    1    2    0    0 -0.90850228213E-02 -0.20533141111E-01 -0.22429386154E-02  0.10213650206E+01  0.10211157265E+01 0.  0.
     999903    2    3    3    0    0 -0.58084387038E-01  0.78822742799E-01 -0.83976081928E-01  0.13066145816E+00  0.20823388571E-01 0.  0.
         14    1    1    2    0    0  0.90850228213E-02  0.20533141111E-01  0.22429386154E-02  0.22564979441E-01  0.00000000000E+00 0. -1.
     999901    1    3    3    0    0  0.48999364216E-01 -0.99355883910E-01  0.81733143313E-01  0.89070356240E+00  0.88000000000E+00 0. -1.
        -11    1    4    4    0    0 -0.13164916107E-01  0.17696943486E-01 -0.31355840010E-01  0.38339883263E-01  0.51100000000E-03 0.  1.
         11    1    4    4    0    0 -0.44919470931E-01  0.61125799312E-01 -0.52620241918E-01  0.92321574893E-01  0.51100000000E-03 0. -1.
</event>
<event>
 8    1  0.1075206E+005  0.1043930E+01  0.7957747E-01            NaN
         13   -1    0    0    0    0  0.00000000000E+00  0.00000000000E+00  0.74505805969E-08  0.10566000000E+00  0.10566000000E+00 0. -1.
     999900   -1    0    0    0    0 -0.00000000000E+00 -0.00000000000E+00 -0.74505805969E-08  0.93827000000E+00  0.93827000000E+00 0.  1.
     999902    2    1    2    0    0 -0.15011791310E-01  0.15062434548E-01  0.65886112007E-02  0.10216670125E+01  0.10214244191E+01 0.  0.
     999903    2    3    3    0    0 -0.21066141690E-01 -0.12439689273E+00 -0.24149067773E-01  0.13013441974E+00  0.20818753111E-01 0.  0.
         14    1    1    2    0    0  0.15011791310E-01 -0.15062434548E-01 -0.65886112007E-02  0.22262987454E-01  0.00000000000E+00 0. -1.
     999901    1    3    3    0    0  0.60543503794E-02  0.13945932728E+00  0.30737678973E-01  0.89153259280E+00  0.88000000000E+00 0.  1.
        -11    1    4    4    0    0 -0.24572690221E-01 -0.10292870821E+00 -0.16677034215E-01  0.10712852407E+00  0.51100000000E-03 0. -1.
         11    1    4    4    0    0  0.35065485314E-02 -0.21468184519E-01 -0.74720335580E-02  0.23005895671E-01  0.51100000000E-03 0.  1.
</event>
<event>
 8    1  0.1075206E+005  0.1043930E+01  0.7957747E-01            NaN
         13   -1    0    0    0    0  0.00000000000E+00  0.00000000000E+00  0.74505805969E-08  0.10566000000E+00  0.10566000000E+00 0.  1.
     999900   -1    0    0    0    0 -0.00000000000E+00 -0.00000000000E+00 -0.74505805969E-08  0.93827000000E+00  0.93827000000E+00 0.  1.
     999902    2    1    2    0    0  0.84034971830E-02  0.22446446704E-01  0.51829582918E-02  0.10194080753E+01  0.10191130944E+01 0.  0.
     999903    2    3    3    0    0  0.20218266170E-01 -0.12312649180E+00 -0.11961075135E-01  0.12720575123E+00  0.21663899837E-01 0.  0.
         14    1    1    2    0    0 -0.84034971830E-02 -0.22446446704E-01 -0.51829582918E-02  0.24521924704E-01  0.00000000000E+00 0. -1.
     999901    1    3    3    0    0 -0.11814768987E-01  0.14557293851E+00  0.17144033427E-01  0.89220232407E+00  0.88000000000E+00 0.  1.
        -11    1    4    4    0    0  0.20372839831E-01 -0.65903955655E-01 -0.12943452077E-02  0.68995075362E-01  0.51100000000E-03 0. -1.
         11    1    4    4    0    0 -0.15457366117E-03 -0.57222536148E-01 -0.10666729927E-01  0.58210675865E-01  0.51100000000E-03 0.  1.
</event>
<event>
 8    1  0.1075206E+005  0.1043930E+01  0.7957747E-01            NaN
         13   -1    0    0    0    0  0.00000000000E+00  0.00000000000E+00  0.74505805969E-08  0.10566000000E+00  0.10566000000E+00 0. -1.
     999900   -1    0    0    0    0 -0.00000000000E+00 -0.00000000000E+00 -0.74505805969E-08  0.93827000000E+00  0.93827000000E+00 0. -1.
     999902    2    1    2    0    0  0.12510038200E-01  0.11297330295E-01  0.14936022517E-01  0.10214085547E+01  0.10211602324E+01 0.  0.
     999903    2    3    3    0    0  0.11397974861E+00  0.14099569495E-01  0.66357228776E-01  0.13408218011E+00  0.19610412041E-01 0.  0.
         14    1    1    2    0    0 -0.12510038200E-01 -0.11297330295E-01 -0.14936022517E-01  0.22521445251E-01  0.00000000000E+00 0.  1.
     999901    1    3    3    0    0 -0.10146971041E+00 -0.28022392002E-02 -0.51421206259E-01  0.88732637464E+00  0.88000000000E+00 0. -1.
        -11    1    4    4    0    0  0.99287375172E-01  0.59668100198E-02  0.59714335286E-01  0.11601572587E+00  0.51100000000E-03 0. -1.
         11    1    4    4    0    0  0.14692373434E-01  0.81327594756E-02  0.66428934905E-02  0.18066454238E-01  0.51100000000E-03 0.  1.
</event>
<event>
 8    1  0.1075206E+005  0.1043930E+01  0.7957747E-01            NaN
         13   -1    0    0    0    0  0.00000000000E+00  0.00000000000E+00  0.74505805969E-08  0.10566000000E+00  0.10566000000E+00 0. -1.
     999900   -1    0    0    0    0 -0.00000000000E+00 -0.00000000000E+00 -0.74505805969E-08  0.93827000000E+00  0.93827000000E+00 0. -1.
     999902    2    1    2    0    0 -0.18192170416E-01  0.94945352806E-02  0.10166319546E-01  0.10210290106E+01  0.10207721514E+01 0.  0.
     999903    2    3    3    0    0  0.19234971872E-01  0.14691258202E-03 -0.12661714227E+00  0.12962680926E+00  0.20030058318E-01 0.  0.
         14    1    1    2    0    0  0.18192170416E-01 -0.94945352806E-02 -0.10166319546E-01  0.22900989449E-01  0.00000000000E+00 0.  1.
     999901    1    3    3    0    0 -0.37427142288E-01  0.93476226986E-02  0.13678346182E+00  0.89140220129E+00  0.88000000000E+00 0.  1.
        -11    1    4    4    0    0 -0.14732082608E-02 -0.29848308393E-02 -0.52438877739E-01  0.52546898836E-01  0.51100000000E-03 0.  1.
         11    1    4    4    0    0  0.20708180133E-01  0.31317434213E-02 -0.74178264535E-01  0.77079910429E-01  0.51100000000E-03 0. -1.
</event>
<event>
 8    1  0.1075206E+005  0.1043930E+01  0.7957747E-01            NaN
         13   -1    0    0    0    0  0.00000000000E+00  0.00000000000E+00  0.74505805969E-08  0.10566000000E+00  0.10566000000E+00 0. -1.
     999900   -1    0    0    0    0 -0.00000000000E+00 -0.00000000000E+00 -0.74505805969E-08  0.93827000000E+00  0.93827000000E+00 0. -1.
     999902    2    1    2    0    0  0.10432099399E-02 -0.63366421232E-02 -0.23124726682E-01  0.10199301187E+01  0.10196477101E+01 0.  0.
     999903    2    3    3    0    0 -0.12166058702E+00 -0.21405559737E-01 -0.38703282909E-01  0.13115231432E+00  0.21059179051E-01 0.  0.
         14    1    1    2    0    0 -0.10432099399E-02  0.63366421232E-02  0.23124726682E-01  0.23999881343E-01  0.00000000000E+00 0. -1.
     999901    1    3    3    0    0  0.12270379696E+00  0.15068917614E-01  0.15578556227E-01  0.88877780434E+00  0.88000000000E+00 0. -1.
        -11    1    4    4    0    0 -0.10606601362E+00 -0.12099846245E-01 -0.29337259154E-01  0.11071287830E+00  0.51100000000E-03 0.  1.
         11    1    4    4    0    0 -0.15594573394E-01 -0.93057134920E-02 -0.93660237550E-02  0.20439436023E-01  0.51100000000E-03 0. -1.
</event>
<event>
 8    1  0.1206296E+005  0.1043930E+01  0.7957747E-01            NaN
         13   -1    0    0    0    0  0.00000000000E+00  0.00000000000E+00  0.74505805969E-08  0.10566000000E+00  0.10566000000E+00 0.  1.
     999900   -1    0    0    0    0 -0.00000000000E+00 -0.00000000000E+00 -0.74505805969E-08  0.93827000000E+00  0.93827000000E+00 0.  1.
     999902    2    1    2    0    0  0.20905786971E-01  0.24536227091E-02 -0.24078328053E-01  0.10119481602E+01  0.10114426533E+01 0.  0.
     999903    2    3    3    0    0  0.84383777462E-01 -0.34961283476E-01 -0.85524693216E-01  0.12673350475E+00  0.20099622782E-01 0.  0.
         14    1    1    2    0    0 -0.20905786971E-01 -0.24536227091E-02  0.24078328053E-01  0.31981839770E-01  0.00000000000E+00 0.  1.
     999901    1    3    3    0    0 -0.63477990490E-01  0.37414906185E-01  0.61446365163E-01  0.88521465548E+00  0.88000000000E+00 0. -1.
        -11    1    4    4    0    0  0.12841859005E-01 -0.95905653009E-02 -0.24758908079E-01  0.29498422598E-01  0.51100000000E-03 0.  1.
         11    1    4    4    0    0  0.71541918456E-01 -0.25370718175E-01 -0.60765785137E-01  0.97235082154E-01  0.51100000000E-03 0. -1.
</event>
<event>
 8    1  0.1075206E+005  0.1043930E+01  0.7957747E-01            NaN
         13   -1    0    0    0    0  0.00000000000E+00  0.00000000000E+00  0.74505805969E-08  0.10566000000E+00  0.10566000000E+00 0.  1.
     999900   -1    0    0    0    0 -0.00000000000E+00 -0.00000000000E+00 -0.74505805969E-08  0.93827000000E+00  0.93827000000E+00 0.  1.
     999902    2    1    2    0    0  0.84328683359E-02 -0.64022425940E-02 -0.20853579112E-01  0.10205425303E+01  0.10202745132E+01 0.  0.
     999903    2    3    3    0    0  0.11831703636E+00 -0.56992335074E-01 -0.90642980067E-02  0.13218850456E+00  0.12024636779E-01 0.  0.
         14    1    1    2    0    0 -0.84328683359E-02  0.64022425940E-02  0.20853579112E-01  0.23387469730E-01  0.00000000000E+00 0.  1.
     999901    1    3    3    0    0 -0.10988416803E+00  0.50590092480E-01 -0.11789281105E-01  0.88835402571E+00  0.88000000000E+00 0.  1.
        -11    1    4    4    0    0  0.42592000593E-01 -0.26192421747E-01 -0.67393661110E-03  0.50008367130E-01  0.51100000000E-03 0.  1.
         11    1    4    4    0    0  0.75725035769E-01 -0.30799913328E-01 -0.83903613956E-02  0.82180137433E-01  0.51100000000E-03 0. -1.
</event>
<event>
 8    1  0.1075206E+005  0.1043930E+01  0.7957747E-01            NaN
         13   -1    0    0    0    0  0.00000000000E+00  0.00000000000E+00  0.74505805969E-08  0.10566000000E+00  0.10566000000E+00 0. -1.
     999900   -1    0    0    0    0 -0.00000000000E+00 -0.00000000000E+00 -0.74505805969E-08  0.93827000000E+00  0.93827000000E+00 0.  1.
     999902    2    1    2    0    0 -0.78234176424E-02 -0.20688385794E-01 -0.27880998405E-03  0.10218100338E+01  0.10215705811E+01 0.  0.
     999903    2    3    3    0    0  0.12787254437E+00  0.13793036955E-01  0.10983481487E-01  0.13067076194E+00  0.20311959187E-01 0.  0.
         14    1    1    2    0    0  0.78234176424E-02  0.20688385794E-01  0.27880998405E-03  0.22119966216E-01  0.00000000000E+00 0. -1.
     999901    1    3    3    0    0 -0.13569596202E+00 -0.34481422750E-01 -0.11262291471E-01  0.89113927185E+00  0.88000000000E+00 0.  1.
        -11    1    4    4    0    0  0.58580705143E-01 -0.28921099571E-02  0.69957494920E-03  0.58658450723E-01  0.51100000000E-03 0. -1.
         11    1    4    4    0    0  0.69291839231E-01  0.16685146912E-01  0.10283906538E-01  0.72012311212E-01  0.51100000000E-03 0.  1.
</event>
<event>
 8    1  0.1075206E+005  0.1043930E+01  0.7957747E-01            NaN
         13   -1    0    0    0    0  0.00000000000E+00  0.00000000000E+00  0.74505805969E-08  0.10566000000E+00  0.10566000000E+00 0.  1.
     999900   -1    0    0    0    0 -0.00000000000E+00 -0.00000000000E+00 -0.74505805969E-08  0.93827000000E+00  0.93827000000E+00 0.  1.
     999902    2    1    2    0    0 -0.33017458721E-02 -0.48029203768E-02  0.22897752996E-01  0.10203021211E+01  0.10200285004E+01 0.  0.
     999903    2    3    3    0    0 -0.12359281944E+00  0.26433742977E-01 -0.24634835005E-01  0.13029930174E+00  0.19927497421E-01 0.  0.
         14    1    1    2    0    0  0.33017458721E-02  0.48029203768E-02 -0.22897752996E-01  0.23627878919E-01  0.00000000000E+00 0. -1.
     999901    1    3    3    0    0  0.12029107356E+00 -0.31236663354E-01  0.47532588001E-01  0.89000281934E+00  0.88000000000E+00 0. -1.
        -11    1    4    4    0    0 -0.56567530461E-01  0.10609239804E-01 -0.12572088790E-02  0.57569811245E-01  0.51100000000E-03 0.  1.
         11    1    4    4    0    0 -0.67025288976E-01  0.15824503173E-01 -0.23377626126E-01  0.72729490492E-01  0.51100000000E-03 0. -1.
</event>
<event>
 8    1  0.1075206E+005  0.1043930E+01  0.7957747E-01            NaN
         13   -1    0    0    0    0  0.00000000000E+00  0.00000000000E+00  0.74505805969E-08  0.10566000000E+00  0.10566000000E+00 0.  1.
     999900   -1    0    0    0    0 -0.00000000000E+00 -0.00000000000E+00 -0.74505805969E-08  0.93827000000E+00  0.93827000000E+00 0.  1.
     999902    2    1    2    0    0  0.36512420335E-02 -0.22695782590E-01  0.58552407496E-02  0.10202084073E+01  0.10199325862E+01 0.  0.
     999903    2    3    3    0    0 -0.43321786634E-01 -0.28412823940E-01 -0.11777422237E+00  0.13030762961E+00  0.20621472302E-01 0.  0.
         14    1    1    2    0    0 -0.36512420335E-02  0.22695782590E-01 -0.58552407496E-02  0.23721592695E-01  0.00000000000E+00 0.  1.
     999901    1    3    3    0    0  0.46973028668E-01  0.57170413497E-02  0.12362946312E+00  0.88990077769E+00  0.88000000000E+00 0. -1.
        -11    1    4    4    0    0 -0.10590530062E-01 -0.11274410737E-01 -0.17085829563E-01  0.23053380605E-01  0.51100000000E-03 0. -1.
         11    1    4    4    0    0 -0.32731256573E-01 -0.17138413203E-01 -0.10068839280E+00  0.10725424901E+00  0.51100000000E-03 0.  1.
</event>
<event>
 8    1  0.1075206E+005  0.1043930E+01  0.7957747E-01            NaN
         13   -1    0    0    0    0  0.00000000000E+00  0.00000000000E+00  0.74505805969E-08  0.10566000000E+00  0.10566000000E+00 0. -1.
     999900   -1    0    0    0    0 -0.00000000000E+00 -0.00000000000E+00 -0.74505805969E-08  0.93827000000E+00  0.93827000000E+00 0. -1.
     999902    2    1    2    0    0 -0.11382727308E-01  0.23394056528E-02 -0.94486253927E-02  0.10289528233E+01  0.10288438155E+01 0.  0.
     999903    2    3    3    0    0  0.32152811586E-01 -0.91599265185E-01 -0.96784484635E-01  0.13858920695E+00  0.20383894184E-01 0.  0.
         14    1    1    2    0    0  0.11382727308E-01 -0.23394056528E-02  0.94486253927E-02  0.14977176690E-01  0.00000000000E+00 0. -1.
     999901    1    3    3    0    0 -0.43535538894E-01  0.93938670838E-01  0.87335859242E-01  0.89036361636E+00  0.88000000000E+00 0.  1.
        -11    1    4    4    0    0  0.43585739340E-02 -0.31425707804E-01 -0.41725941640E-01  0.52420297638E-01  0.51100000000E-03 0.  1.
         11    1    4    4    0    0  0.27794237652E-01 -0.60173557381E-01 -0.55058542995E-01  0.86168909313E-01  0.51100000000E-03 0. -1.
</event>
<event>
 8    1  0.1075206E+005  0.1043930E+01  0.7957747E-01            NaN
         13   -1    0    0    0    0  0.00000000000E+00  0.00000000000E+00  0.74505805969E-08  0.10566000000E+00  0.10566000000E+00 0. -1.
     999900   -1    0    0    0    0 -0.00000000000E+00 -0.00000000000E+00 -0.74505805969E-08  0.93827000000E+00  0.93827000000E+00 0.  1.
     999902    2    1    2    0    0 -0.10737842268E-01 -0.20320936671E-01 -0.12640391733E-02  0.10209117568E+01  0.10206522305E+01 0.  0.
     999903    2    3    3    0    0 -0.74722643244E-01  0.55073172939E-01  0.89713581664E-01  0.13071219829E+00  0.20509126177E-01 0.  0.
         14    1    1    2    0    0  0.10737842268E-01  0.20320936671E-01  0.12640391733E-02  0.23018243174E-01  0.00000000000E+00 0. -1.
     999901    1    3    3    0    0  0.63984800975E-01 -0.75394109611E-01 -0.90977620838E-01  0.89019955853E+00  0.88000000000E+00 0.  1.
        -11    1    4    4    0    0 -0.41867679271E-01  0.39540483453E-01  0.44975093430E-01  0.73071010320E-01  0.51100000000E-03 0.  1.
         11    1    4    4    0    0 -0.32854963973E-01  0.15532689486E-01  0.44738488235E-01  0.57641187972E-01  0.51100000000E-03 0. -1.
</event>
<event>
 8    1  0.1075206E+005  0.1043930E+01  0.7957747E-01            NaN
         13   -1    0    0    0    0  0.00000000000E+00  0.00000000000E+00  0.74505805969E-08  0.10566000000E+00  0.10566000000E+00 0.  1.
     999900   -1    0    0    0    0 -0.00000000000E+00 -0.00000000000E+00 -0.74505805969E-08  0.93827000000E+00  0.93827000000E+00 0. -1.
     999902    2    1    2    0    0 -0.38120229378E-02  0.84264437383E-02 -0.23319297057E-01  0.10188436274E+01  0.10185347373E+01 0.  0.
     999903    2    3    3    0    0 -0.23363502588E-01 -0.97366910244E-01 -0.81776555579E-01  0.13036642167E+00  0.16787804878E-01 0.  0.
         14    1    1    2    0    0  0.38120229378E-02 -0.84264437383E-02  0.23319297057E-01  0.25086372559E-01  0.00000000000E+00 0.  1.
     999901    1    3    3    0    0  0.19551479650E-01  0.10579335398E+00  0.58457258522E-01  0.88847720577E+00  0.88000000000E+00 0. -1.
        -11    1    4    4    0    0 -0.25433240297E-02 -0.46145164647E-01 -0.36064951269E-01  0.58624112347E-01  0.51100000000E-03 0. -1.
         11    1    4    4    0    0 -0.20820178558E-01 -0.51221745596E-01 -0.45711604311E-01  0.71742309321E-01  0.51100000000E-03 0.  1.
</event>
<event>
 8    1  0.1075206E+005  0.1043930E+01  0.7957747E-01            NaN
         13   -1    0    0    0    0  0.00000000000E+00  0.00000000000E+00  0.74505805969E-08  0.10566000000E+00  0.10566000000E+00 0.  1.
     999900   -1    0    0    0    0 -0.00000000000E+00 -0.00000000000E+00 -0.74505805969E-08  0.93827000000E+00  0.93827000000E+00 0. -1.
     999902    2    1    2    0    0 -0.19387742923E-01 -0.10831152220E-01  0.66590032751E-02  0.10207450748E+01  0.10204817327E+01 0.  0.
     999903    2    3    3    0    0 -0.15502874720E-01 -0.60581190370E-01  0.11517233769E+00  0.13267677657E+00  0.20689125664E-01 0.  0.
         14    1    1    2    0    0  0.19387742923E-01  0.10831152220E-01 -0.66590032751E-02  0.23184925247E-01  0.00000000000E+00 0. -1.
     999901    1    3    3    0    0 -0.38848682033E-02  0.49750038149E-01 -0.10851333441E+00  0.88806829819E+00  0.88000000000E+00 0. -1.
        -11    1    4    4    0    0 -0.77367452673E-02 -0.69913103173E-02  0.29825093359E-01  0.31599572183E-01  0.51100000000E-03 0.  1.
         11    1    4    4    0    0 -0.77661294527E-02 -0.53589880052E-01  0.85347244329E-01  0.10107720438E+00  0.51100000000E-03 0. -1.
</event>
<event>
 8    1  0.1075206E+005  0.1043930E+01  0.7957747E-01            NaN
         13   -1    0    0    0    0  0.00000000000E+00  0.00000000000E+00  0.74505805969E-08  0.10566000000E+00  0.10566000000E+00 0.  1.
     999900   -1    0    0    0    0 -0.00000000000E+00 -0.00000000000E+00 -0.74505805969E-08  0.93827000000E+00  0.93827000000E+00 0.  1.
     999902    2    1    2    0    0 -0.11307328304E-01 -0.17901347679E-01  0.10434496123E-01  0.10203250719E+01  0.10200519887E+01 0.  0.
     999903    2    3    3    0    0 -0.78914302078E-01 -0.27427669677E-01 -0.98817387294E-01  0.13094471020E+00  0.20047367951E-01 0.  0.
         14    1    1    2    0    0  0.11307328304E-01  0.17901347679E-01 -0.10434496123E-01  0.23604928118E-01  0.00000000000E+00 0. -1.
     999901    1    3    3    0    0  0.67606973774E-01  0.95263219976E-02  0.10925188342E+00  0.88938036168E+00  0.88000000000E+00 0. -1.
        -11    1    4    4    0    0 -0.18457306033E-01 -0.15449636817E-01 -0.23778074137E-01  0.33838164170E-01  0.51100000000E-03 0.  1.
         11    1    4    4    0    0 -0.60456996045E-01 -0.11978032860E-01 -0.75039313157E-01  0.97106546031E-01  0.51100000000E-03 0. -1.
</event>
<event>
 8    1  0.1075206E+005  0.1043930E+01  0.7957747E-01            NaN
         13   -1    0    0    0    0  0.00000000000E+00  0.00000000000E+00  0.74505805969E-08  0.10566000000E+00  0.10566000000E+00 0. -1.
     999900   -1    0    0    0    0 -0.00000000000E+00 -0.00000000000E+00 -0.74505805969E-08  0.93827000000E+00  0.93827000000E+00 0. -1.
     999902    2    1    2    0    0 -0.21460907481E-01 -0.29393580610E-02 -0.89920431729E-02  0.10204764882E+01  0.10202069377E+01 0.  0.
     999903    2    3    3    0    0  0.79308637641E-01  0.98763476310E-01 -0.12807467257E-01  0.12889781796E+00  0.20162638746E-01 0.  0.
         14    1    1    2    0    0  0.21460907481E-01  0.29393580610E-02  0.89920431729E-02  0.23453511808E-01  0.00000000000E+00 0. -1.
     999901    1    3    3    0    0 -0.10076954512E+00 -0.10170283437E+00  0.38154240842E-02  0.89157867023E+00  0.88000000000E+00 0.  1.
        -11    1    4    4    0    0  0.43382041165E-01  0.69127507646E-01 -0.10204972036E-01  0.82249719661E-01  0.51100000000E-03 0. -1.
         11    1    4    4    0    0  0.35926596476E-01  0.29635968664E-01 -0.26024952209E-02  0.46648098304E-01  0.51100000000E-03 0.  1.
</event>
<event>
 8    1  0.1075206E+005  0.1043930E+01  0.7957747E-01            NaN
         13   -1    0    0    0    0  0.00000000000E+00  0.00000000000E+00  0.74505805969E-08  0.10566000000E+00  0.10566000000E+00 0. -1.
     999900   -1    0    0    0    0 -0.00000000000E+00 -0.00000000000E+00 -0.74505805969E-08  0.93827000000E+00  0.93827000000E+00 0.  1.
     999902    2    1    2    0    0 -0.10331356031E-01 -0.22140131642E-01 -0.32907441674E-02  0.10192773867E+01  0.10189792145E+01 0.  0.
     999903    2    3    3    0    0 -0.81513041025E-01 -0.52960753835E-01 -0.86595180163E-01  0.13194634806E+00  0.21491771337E-01 0.  0.
         14    1    1    2    0    0  0.10331356031E-01  0.22140131642E-01  0.32907441674E-02  0.24652613325E-01  0.00000000000E+00 0. -1.
     999901    1    3    3    0    0  0.71181684994E-01  0.30820622193E-01  0.83304435996E-01  0.88733103861E+00  0.88000000000E+00 0. -1.
        -11    1    4    4    0    0 -0.34381760429E-01 -0.18172590699E-01 -0.21761555185E-01  0.44566522278E-01  0.51100000000E-03 0. -1.
         11    1    4    4    0    0 -0.47131280596E-01 -0.34788163136E-01 -0.64833624979E-01  0.87379825783E-01  0.51100000000E-03 0.  1.
</event>
<event>
 8    1  0.1208099E+005  0.1043930E+01  0.7957747E-01            NaN
         13   -1    0    0    0    0  0.00000000000E+00  0.00000000000E+00  0.74505805969E-08  0.10566000000E+00  0.10566000000E+00 0.  1.
     999900   -1    0    0    0    0 -0.00000000000E+00 -0.00000000000E+00 -0.74505805969E-08  0.93827000000E+00  0.93827000000E+00 0.  1.
     999902    2    1    2    0    0 -0.98919213605E-02 -0.21037134858E-01  0.52279900883E-02  0.10201026411E+01  0.10198243257E+01 0.  0.
     999903    2    3    3    0    0 -0.33236878540E-01  0.85904071484E-02  0.12499820715E+00  0.13118887523E+00  0.20186233055E-01 0.  0.
         14    1    1    2    0    0  0.98919213605E-02  0.21037134858E-01 -0.52279900883E-02  0.23827358889E-01  0.00000000000E+00 0. -1.
     999901    1    3    3    0    0  0.23344957179E-01 -0.29627542006E-01 -0.11977021706E+00  0.88891376588E+00  0.88000000000E+00 0.  1.
        -11    1    4    4    0    0 -0.17080379994E-01  0.13676810667E-01  0.55631743954E-01  0.59782493986E-01  0.51100000000E-03 0. -1.
         11    1    4    4    0    0 -0.16156498546E-01 -0.50864035183E-02  0.69366463194E-01  0.71406381249E-01  0.51100000000E-03 0.  1.
</event>
<event>
 8    1  0.1075206E+005  0.1043930E+01  0.7957747E-01            NaN
         13   -1    0    0    0    0  0.00000000000E+00  0.00000000000E+00  0.74505805969E-08  0.10566000000E+00  0.10566000000E+00 0. -1.
     999900   -1    0    0    0    0 -0.00000000000E+00 -0.00000000000E+00 -0.74505805969E-08  0.93827000000E+00  0.93827000000E+00 0.  1.
     999902    2    1    2    0    0 -0.94146825793E-03  0.12738780833E-01 -0.22940975724E-01  0.10176725960E+01  0.10173338003E+01 0.  0.
     999903    2    3    3    0    0 -0.70795546705E-01  0.10700171624E+00  0.78308488406E-03  0.12956904101E+00  0.18059525335E-01 0.  0.
         14    1    1    2    0    0  0.94146825793E-03 -0.12738780833E-01  0.22940975724E-01  0.26257404037E-01  0.00000000000E+00 0. -1.
     999901    1    3    3    0    0  0.69854078447E-01 -0.94262935405E-01 -0.23724060608E-01  0.88810355495E+00  0.88000000000E+00 0. -1.
        -11    1    4    4    0    0 -0.27199851297E-01  0.41230874640E-01  0.90806625327E-02  0.50224859255E-01  0.51100000000E-03 0. -1.
         11    1    4    4    0    0 -0.43595695407E-01  0.65770841599E-01 -0.82975776486E-02  0.79344181756E-01  0.51100000000E-03 0.  1.
</event>
<event>
 8    1  0.1075206E+005  0.1043930E+01  0.7957747E-01            NaN
         13   -1    0    0    0    0  0.00000000000E+00  0.00000000000E+00  0.74505805969E-08  0.10566000000E+00  0.10566000000E+00 0. -1.
     999900   -1    0    0    0    0 -0.00000000000E+00 -0.00000000000E+00 -0.74505805969E-08  0.93827000000E+00  0.93827000000E+00 0.  1.
     999902    2    1    2    0    0  0.21769337828E-02 -0.22966578549E-01  0.39065227155E-02  0.10205320580E+01  0.10202637981E+01 0.  0.
     999903    2    3    3    0    0  0.44411204560E-02 -0.64826725848E-01  0.11400137977E+00  0.13268168994E+00  0.19644040343E-01 0.  0.
         14    1    1    2    0    0 -0.21769337828E-02  0.22966578549E-01 -0.39065227155E-02  0.23397942018E-01  0.00000000000E+00 0. -1.
     999901    1    3    3    0    0 -0.22641866732E-02  0.41860147299E-01 -0.11009485706E+00  0.88785036804E+00  0.88000000000E+00 0.  1.
        -11    1    4    4    0    0  0.36637430241E-02 -0.41574479220E-01  0.53474302626E-01  0.67835259988E-01  0.51100000000E-03 0. -1.
         11    1    4    4    0    0  0.77737743188E-03 -0.23252246628E-01  0.60527077149E-01  0.64846429956E-01  0.51100000000E-03 0.  1.
</event>
<event>
 8    1  0.1075206E+005  0.1043930E+01  0.7957747E-01            NaN
         13   -1    0    0    0    0  0.00000000000E+00  0.00000000000E+00  0.74505805969E-08  0.10566000000E+00  0.10566000000E+00 0. -1.
     999900   -1    0    0    0    0 -0.00000000000E+00 -0.00000000000E+00 -0.74505805969E-08  0.93827000000E+00  0.93827000000E+00 0. -1.
     999902    2    1    2    0    0 -0.27110744954E-02  0.61759770045E-02 -0.22518893308E-01  0.10204226996E+01  0.10201518969E+01 0.  0.
     999903    2    3    3    0    0  0.12228636186E+00  0.35548611610E-01  0.17856145484E-01  0.13018831780E+00  0.20310048661E-01 0.  0.
         14    1    1    2    0    0  0.27110744954E-02 -0.61759770045E-02  0.22518893308E-01  0.23507300413E-01  0.00000000000E+00 0. -1.
     999901    1    3    3    0    0 -0.12499743635E+00 -0.29372634606E-01 -0.40375038792E-01  0.89023438179E+00  0.88000000000E+00 0.  1.
        -11    1    4    4    0    0  0.10674468135E+00  0.24298351501E-01  0.12057634436E-01  0.11013847897E+00  0.51100000000E-03 0.  1.
         11    1    4    4    0    0  0.15541680510E-01  0.11250260109E-01  0.57985110473E-02  0.20049838826E-01  0.51100000000E-03 0. -1.
</event>
<event>
 8    1  0.1075206E+005  0.1043930E+01  0.7957747E-01            NaN
         13   -1    0    0    0    0  0.00000000000E+00  0.00000000000E+00  0.74505805969E-08  0.10566000000E+00  0.10566000000E+00 0. -1.
     999900   -1    0    0    0    0 -0.00000000000E+00 -0.00000000000E+00 -0.74505805969E-08  0.93827000000E+00  0.93827000000E+00 0. -1.
     999902    2    1    2    0    0 -0.15283949140E-02 -0.23191832167E-01 -0.76879086589E-03  0.10206751487E+01  0.10204101974E+01 0.  0.
     999903    2    3    3    0    0  0.58618645058E-01 -0.10829374360E+00  0.45885507681E-01  0.13329888953E+00  0.22348012937E-01 0.  0.
         14    1    1    2    0    0  0.15283949140E-02  0.23191832167E-01  0.76879086589E-03  0.23254851315E-01  0.00000000000E+00 0. -1.
     999901    1    3    3    0    0 -0.60147039972E-01  0.85101911434E-01 -0.46654298547E-01  0.88737625916E+00  0.88000000000E+00 0. -1.
        -11    1    4    4    0    0  0.40794711873E-01 -0.90923005048E-01  0.31346288129E-01  0.10447034155E+00  0.51100000000E-03 0.  1.
         11    1    4    4    0    0  0.17823933185E-01 -0.17370738552E-01  0.14539219551E-01  0.28828547972E-01  0.51100000000E-03 0. -1.
</event>
<event>
 8    1  0.1075206E+005  0.1043930E+01  0.7957747E-01            NaN
         13   -1    0    0    0    0  0.00000000000E+00  0.00000000000E+00  0.74505805969E-08  0.10566000000E+00  0.10566000000E+00 0. -1.
     999900   -1    0    0    0    0 -0.00000000000E+00 -0.00000000000E+00 -0.74505805969E-08  0.93827000000E+00  0.93827000000E+00 0. -1.
     999902    2    1    2    0    0 -0.14285342642E-01 -0.16647631943E-01 -0.40012865605E-02  0.10216314584E+01  0.10213880809E+01 0.  0.
     999903    2    3    3    0    0 -0.61611706339E-01 -0.10780283532E+00 -0.48807378708E-01  0.13452569147E+00  0.17249573578E-01 0.  0.
         14    1    1    2    0    0  0.14285342642E-01  0.16647631943E-01  0.40012865605E-02  0.22298541608E-01  0.00000000000E+00 0.  1.
     999901    1    3    3    0    0  0.47326363697E-01  0.91155203381E-01  0.44806092147E-01  0.88710576692E+00  0.88000000000E+00 0.  1.
        -11    1    4    4    0    0 -0.21255784167E-01 -0.54471082039E-01 -0.23323893492E-01  0.62953731166E-01  0.51100000000E-03 0. -1.
         11    1    4    4    0    0 -0.40355922171E-01 -0.53331753285E-01 -0.25483485216E-01  0.71571960309E-01  0.51100000000E-03 0.  1.
</event>
<event>
 8    1  0.1075206E+005  0.1043930E+01  0.7957747E-01            NaN
         13   -1    0    0    0    0  0.00000000000E+00  0.00000000000E+00  0.74505805969E-08  0.10566000000E+00  0.10566000000E+00 0. -1.
     999900   -1    0    0    0    0 -0.00000000000E+00 -0.00000000000E+00 -0.74505805969E-08  0.93827000000E+00  0.93827000000E+00 0. -1.
     999902    2    1    2    0    0 -0.12063080491E-01  0.48688456702E-02  0.19858897716E-01  0.10201897517E+01  0.10199134915E+01 0.  0.
     999903    2    3    3    0    0 -0.21173834540E-01  0.95287325705E-01 -0.82880029958E-01  0.12956424423E+00  0.19743057174E-01 0.  0.
         14    1    1    2    0    0  0.12063080491E-01 -0.48688456702E-02 -0.19858897716E-01  0.23740248263E-01  0.00000000000E+00 0.  1.
     999901    1    3    3    0    0  0.91107540493E-02 -0.90418480035E-01  0.10273892767E+00  0.89062550751E+00  0.88000000000E+00 0.  1.
        -11    1    4    4    0    0  0.34141289657E-02  0.20137429322E-01 -0.19225416052E-01  0.28054412837E-01  0.51100000000E-03 0. -1.
         11    1    4    4    0    0 -0.24587963506E-01  0.75149896384E-01 -0.63654613907E-01  0.10150983139E+00  0.51100000000E-03 0.  1.
</event>
<event>
 8    1  0.1075206E+005  0.1043930E+01  0.7957747E-01            NaN
         13   -1    0    0    0    0  0.00000000000E+00  0.00000000000E+00  0.74505805969E-08  0.10566000000E+00  0.10566000000E+00 0. -1.
     999900   -1    0    0    0    0 -0.00000000000E+00 -0.00000000000E+00 -0.74505805969E-08  0.93827000000E+00  0.93827000000E+00 0. -1.
     999902    2    1    2    0    0  0.20396373954E-01 -0.11485972051E-01 -0.61936125607E-02  0.10197163580E+01  0.10194288353E+01 0.  0.
     999903    2    3    3    0    0 -0.58061610639E-01 -0.10897853629E+00  0.35128199880E-01  0.12990292380E+00  0.19831973756E-01 0.  0.
         14    1    1    2    0    0 -0.20396373954E-01  0.11485972051E-01  0.61936125607E-02  0.24213642043E-01  0.00000000000E+00 0.  1.
     999901    1    3    3    0    0  0.78457984593E-01  0.97492564236E-01 -0.41321812441E-01  0.88981343416E+00  0.88000000000E+00 0.  1.
        -11    1    4    4    0    0 -0.67478996404E-02 -0.27350234549E-01  0.33037376786E-02  0.28368032767E-01  0.51100000000E-03 0.  1.
         11    1    4    4    0    0 -0.51313710999E-01 -0.81628301738E-01  0.31824462202E-01  0.10153489103E+00  0.51100000000E-03 0. -1.
</event>
<event>
 8    1  0.1075206E+005  0.1043930E+01  0.7957747E-01            NaN
         13   -1    0    0    0    0  0.00000000000E+00  0.00000000000E+00  0.74505805969E-08  0.10566000000E+00  0.10566000000E+00 0. -1.
     999900   -1    0    0    0    0 -0.00000000000E+00 -0.00000000000E+00 -0.74505805969E-08  0.93827000000E+00  0.93827000000E+00 0. -1.
     999902    2    1    2    0    0 -0.79997642216E-02 -0.77764964506E-02  0.20701375175E-01  0.10204136853E+01  0.10201426724E+01 0.  0.
     999903    2    3    3    0    0  0.42931240548E-01  0.11976387463E+00 -0.14290091121E-01  0.12907485170E+00  0.16420522435E-01 0.  0.
         14    1    1    2    0    0  0.79997642216E-02  0.77764964506E-02 -0.20701375175E-01  0.23516314737E-01  0.00000000000E+00 0. -1.
     999901    1    3    3    0    0 -0.50931004770E-01 -0.12754037108E+00  0.34991466297E-01  0.89133883356E+00  0.88000000000E+00 0.  1.
        -11    1    4    4    0    0  0.13622330089E-01  0.60929503417E-01 -0.42533210751E-02  0.62580541104E-01  0.51100000000E-03 0. -1.
         11    1    4    4    0    0  0.29308910459E-01  0.58834371209E-01 -0.10036770046E-01  0.66494310598E-01  0.51100000000E-03 0.  1.
</event>
<event>
 8    1  0.1075206E+005  0.1043930E+01  0.7957747E-01            NaN
         13   -1    0    0    0    0  0.00000000000E+00  0.00000000000E+00  0.74505805969E-08  0.10566000000E+00  0.10566000000E+00 0.  1.
     999900   -1    0    0    0    0 -0.00000000000E+00 -0.00000000000E+00 -0.74505805969E-08  0.93827000000E+00  0.93827000000E+00 0. -1.
     999902    2    1    2    0    0  0.20821802160E-01 -0.47827923038E-02  0.11072930793E-01  0.10198669091E+01  0.10195829932E+01 0.  0.
     999903    2    3    3    0    0  0.38075338270E-01 -0.12079282425E+00 -0.28845551538E-01  0.13118839735E+00  0.18376397379E-01 0.  0.
         14    1    1    2    0    0 -0.20821802160E-01  0.47827923038E-02 -0.11072930793E-01  0.24063090902E-01  0.00000000000E+00 0. -1.
     999901    1    3    3    0    0 -0.17253536110E-01  0.11601003194E+00  0.39918482332E-01  0.88867851175E+00  0.88000000000E+00 0.  1.
        -11    1    4    4    0    0  0.28324470828E-01 -0.63089410493E-01 -0.20063767339E-01  0.72009480243E-01  0.51100000000E-03 0.  1.
         11    1    4    4    0    0  0.97508674427E-02 -0.57703413753E-01 -0.87817841990E-02  0.59178917102E-01  0.51100000000E-03 0. -1.
</event>
<event>
 8    1  0.1075206E+005  0.1043930E+01  0.7957747E-01            NaN
         13   -1    0    0    0    0  0.00000000000E+00  0.00000000000E+00  0.74505805969E-08  0.10566000000E+00  0.10566000000E+00 0. -1.
     999900   -1    0    0    0    0 -0.00000000000E+00 -0.00000000000E+00 -0.74505805969E-08  0.93827000000E+00  0.93827000000E+00 0.  1.
     999902    2    1    2    0    0  0.15455790200E-01 -0.11527749368E-01  0.15025742585E-01  0.10194852992E+01  0.10191921958E+01 0.  0.
     999903    2    3    3    0    0 -0.12369141956E+00 -0.92587617584E-02  0.26274219018E-01  0.12847821590E+00  0.20761152083E-01 0.  0.
         14    1    1    2    0    0 -0.15455790200E-01  0.11527749368E-01 -0.15025742585E-01  0.24444700784E-01  0.00000000000E+00 0.  1.
     999901    1    3    3    0    0  0.13914720976E+00 -0.22689876094E-02 -0.11248476432E-01  0.89100708331E+00  0.88000000000E+00 0.  1.
        -11    1    4    4    0    0 -0.58494681134E-01  0.59958093354E-02  0.12241765136E-01  0.60064127274E-01  0.51100000000E-03 0. -1.
         11    1    4    4    0    0 -0.65196738423E-01 -0.15254571094E-01  0.14032453882E-01  0.68414088631E-01  0.51100000000E-03 0.  1.
</event>
<event>
 8    1  0.1075206E+005  0.1043930E+01  0.7957747E-01            NaN
         13   -1    0    0    0    0  0.00000000000E+00  0.00000000000E+00  0.74505805969E-08  0.10566000000E+00  0.10566000000E+00 0. -1.
     999900   -1    0    0    0    0 -0.00000000000E+00 -0.00000000000E+00 -0.74505805969E-08  0.93827000000E+00  0.93827000000E+00 0.  1.
     999902    2    1    2    0    0 -0.41834537683E-02 -0.16535413761E-01 -0.16928234025E-01  0.10198990553E+01  0.10196159065E+01 0.  0.
     999903    2    3    3    0    0 -0.14834662247E-01 -0.73385256293E-01  0.10406289154E+00  0.12973940377E+00  0.19944032884E-01 0.  0.
         14    1    1    2    0    0  0.41834537683E-02  0.16535413761E-01  0.16928234025E-01  0.24030944652E-01  0.00000000000E+00 0. -1.
     999901    1    3    3    0    0  0.10651208479E-01  0.56849842533E-01 -0.12099112557E+00  0.89015965158E+00  0.88000000000E+00 0.  1.
        -11    1    4    4    0    0 -0.86367396139E-02 -0.67873392240E-01  0.86336940471E-01  0.11016223970E+00  0.51100000000E-03 0.  1.
         11    1    4    4    0    0 -0.61979226332E-02 -0.55118640532E-02  0.17725951073E-01  0.19577164063E-01  0.51100000000E-03 0. -1.
</event>
<event>
 8    1  0.1075206E+005  0.1043930E+01  0.7957747E-01            NaN
         13   -1    0    0    0    0  0.00000000000E+00  0.00000000000E+00  0.74505805969E-08  0.10566000000E+00  0.10566000000E+00 0.  1.
     999900   -1    0    0    0    0 -0.00000000000E+00 -0.00000000000E+00 -0.74505805969E-08  0.93827000000E+00  0.93827000000E+00 0.  1.
     999902    2    1    2    0    0 -0.58841072463E-02  0.22407192751E-01  0.30689997647E-02  0.10205607089E+01  0.10202931132E+01 0.  0.
     999903    2    3    3    0    0 -0.25416759171E-01  0.12987121116E+00 -0.31078760047E-02  0.13378667147E+00  0.19408024996E-01 0.  0.
         14    1    1    2    0    0  0.58841072463E-02 -0.22407192751E-01 -0.30689997647E-02  0.23369291060E-01  0.00000000000E+00 0.  1.
     999901    1    3    3    0    0  0.19532651925E-01 -0.10746401841E+00  0.61768757693E-02  0.88677403747E+00  0.88000000000E+00 0.  1.
        -11    1    4    4    0    0 -0.68917799958E-02  0.58051061868E-01 -0.99405198724E-02  0.59300063000E-01  0.51100000000E-03 0. -1.
         11    1    4    4    0    0 -0.18524979175E-01  0.71820149291E-01  0.68326438677E-02  0.74486608466E-01  0.51100000000E-03 0.  1.
</event>
<event>
 8    1  0.1075206E+005  0.1043930E+01  0.7957747E-01            NaN
         13   -1    0    0    0    0  0.00000000000E+00  0.00000000000E+00  0.74505805969E-08  0.10566000000E+00  0.10566000000E+00 0. -1.
     999900   -1    0    0    0    0 -0.00000000000E+00 -0.00000000000E+00 -0.74505805969E-08  0.93827000000E+00  0.93827000000E+00 0.  1.
     999902    2    1    2    0    0 -0.17012517193E-01 -0.88671347149E-02 -0.12294846089E-01  0.10211437090E+01  0.10208894452E+01 0.  0.
     999903    2    3    3    0    0  0.18721153496E-01 -0.12828428141E+00 -0.16964330314E-01  0.13234724506E+00  0.20510151785E-01 0.  0.
         14    1    1    2    0    0  0.17012517193E-01  0.88671347149E-02  0.12294846089E-01  0.22786291046E-01  0.00000000000E+00 0.  1.
     999901    1    3    3    0    0 -0.35733670689E-01  0.11941714670E+00  0.46694842248E-02  0.88879646389E+00  0.88000000000E+00 0.  1.
        -11    1    4    4    0    0  0.78056722943E-03 -0.63260439785E-03 -0.23599748228E-02  0.26153538361E-02  0.51100000000E-03 0.  1.
         11    1    4    4    0    0  0.17940586267E-01 -0.12765167702E+00 -0.14604355491E-01  0.12973189122E+00  0.51100000000E-03 0. -1.
</event>
<event>
 8    1  0.1075206E+005  0.1043930E+01  0.7957747E-01            NaN
         13   -1    0    0    0    0  0.00000000000E+00  0.00000000000E+00  0.74505805969E-08  0.10566000000E+00  0.10566000000E+00 0. -1.
     999900   -1    0    0    0    0 -0.00000000000E+00 -0.00000000000E+00 -0.74505805969E-08  0.93827000000E+00  0.93827000000E+00 0.  1.
     999902    2    1    2    0    0 -0.30261086253E-02 -0.47628067115E-02  0.28634265194E-01  0.10147450243E+01  0.10143252445E+01 0.  0.
     999903    2    3    3    0    0 -0.26444095180E-01 -0.63545968517E-01  0.10723016239E+00  0.12897915388E+00  0.19998353075E-01 0.  0.
         14    1    1    2    0    0  0.30261086253E-02  0.47628067115E-02 -0.28634265194E-01  0.29184975662E-01  0.00000000000E+00 0.  1.
     999901    1    3    3    0    0  0.23417986555E-01  0.58783161806E-01 -0.78595897196E-01  0.88576587045E+00  0.88000000000E+00 0.  1.
        -11    1    4    4    0    0 -0.17238214069E-01 -0.38120010656E-01  0.81682807922E-01  0.91774906526E-01  0.51100000000E-03 0. -1.
         11    1    4    4    0    0 -0.92058811113E-02 -0.25425957861E-01  0.25547354467E-01  0.37204247358E-01  0.51100000000E-03 0.  1.
</event>
<event>
 8    1  0.1075206E+005  0.1043930E+01  0.7957747E-01            NaN
         13   -1    0    0    0    0  0.00000000000E+00  0.00000000000E+00  0.74505805969E-08  0.10566000000E+00  0.10566000000E+00 0.  1.
     999900   -1    0    0    0    0 -0.00000000000E+00 -0.00000000000E+00 -0.74505805969E-08  0.93827000000E+00  0.93827000000E+00 0. -1.
     999902    2    1    2    0    0 -0.59460877452E-02  0.19621050156E-02 -0.23721729651E-01  0.10193958142E+01  0.10191005346E+01 0.  0.
     999903    2    3    3    0    0  0.73634105008E-02  0.33072730327E-01  0.11986086388E+00  0.12711728430E+00  0.25380149173E-01 0.  0.
         14    1    1    2    0    0  0.59460877452E-02 -0.19621050156E-02  0.23721729651E-01  0.24534185807E-01  0.00000000000E+00 0.  1.
     999901    1    3    3    0    0 -0.13309498246E-01 -0.31110625311E-01 -0.14358259353E+00  0.89227852990E+00  0.88000000000E+00 0. -1.
        -11    1    4    4    0    0 -0.49718299304E-02  0.60063244865E-02  0.73061691725E-02  0.10697488288E-01  0.51100000000E-03 0.  1.
         11    1    4    4    0    0  0.12335240431E-01  0.27066405840E-01  0.11255469470E+00  0.11641979601E+00  0.51100000000E-03 0. -1.
</event>
<event>
 8    1  0.1075206E+005  0.1043930E+01  0.7957747E-01            NaN
         13   -1    0    0    0    0  0.00000000000E+00  0.00000000000E+00  0.74505805969E-08  0.10566000000E+00  0.10566000000E+00 0. -1.
     999900   -1    0    0    0    0 -0.00000000000E+00 -0.00000000000E+00 -0.74505805969E-08  0.93827000000E+00  0.93827000000E+00 0.  1.
     999902    2    1    2    0    0 -0.38954052731E-02 -0.90068735879E-02 -0.22056585372E-01  0.10197889372E+01  0.10195031562E+01 0.  0.
     999903    2    3    3    0    0 -0.82147664378E-01  0.25922227278E-01 -0.98242880126E-01  0.13235003247E+00  0.21087128074E-01 0.  0.
         14    1    1    2    0    0  0.38954052731E-02  0.90068735879E-02  0.22056585372E-01  0.24141062784E-01  0.00000000000E+00 0. -1.
     999901    1    3    3    0    0  0.78252259105E-01 -0.34929100866E-01  0.76186294754E-01  0.88743890474E+00  0.88000000000E+00 0. -1.
        -11    1    4    4    0    0 -0.21272900215E-01  0.65935306470E-02 -0.40615718821E-01  0.46323953483E-01  0.51100000000E-03 0.  1.
         11    1    4    4    0    0 -0.60874764163E-01  0.19328696631E-01 -0.57627161305E-01  0.86026078990E-01  0.51100000000E-03 0. -1.
</event>
<event>
 8    1  0.1075206E+005  0.1043930E+01  0.7957747E-01            NaN
         13   -1    0    0    0    0  0.00000000000E+00  0.00000000000E+00  0.74505805969E-08  0.10566000000E+00  0.10566000000E+00 0. -1.
     999900   -1    0    0    0    0 -0.00000000000E+00 -0.00000000000E+00 -0.74505805969E-08  0.93827000000E+00  0.93827000000E+00 0.  1.
     999902    2    1    2    0    0  0.84162009691E-02 -0.73998245435E-02  0.20936849308E-01  0.10201825475E+01  0.10199061176E+01 0.  0.
     999903    2    3    3    0    0 -0.82876663748E-01  0.59173381691E-01 -0.76485341521E-01  0.12762584777E+00  0.82655342901E-02 0.  0.
         14    1    1    2    0    0 -0.84162009691E-02  0.73998245435E-02 -0.20936849308E-01  0.23747452516E-01  0.00000000000E+00 0.  1.
     999901    1    3    3    0    0  0.91292864717E-01 -0.66573206234E-01  0.97422190829E-01  0.89255669971E+00  0.88000000000E+00 0. -1.
        -11    1    4    4    0    0 -0.49993532867E-01  0.35683719181E-01 -0.51093215572E-01  0.79896551500E-01  0.51100000000E-03 0. -1.
         11    1    4    4    0    0 -0.32883130881E-01  0.23489662510E-01 -0.25392125949E-01  0.47729296271E-01  0.51100000000E-03 0.  1.
</event>
<event>
 8    1  0.1075206E+005  0.1043930E+01  0.7957747E-01            NaN
         13   -1    0    0    0    0  0.00000000000E+00  0.00000000000E+00  0.74505805969E-08  0.10566000000E+00  0.10566000000E+00 0. -1.
     999900   -1    0    0    0    0 -0.00000000000E+00 -0.00000000000E+00 -0.74505805969E-08  0.93827000000E+00  0.93827000000E+00 0. -1.
     999902    2    1    2    0    0 -0.16448678715E-02  0.68103274522E-02 -0.22385736819E-01  0.10204735006E+01  0.10202038807E+01 0.  0.
     999903    2    3    3    0    0  0.58563792366E-02 -0.12046717383E+00  0.40257245478E-01  0.12908134546E+00  0.22242094880E-01 0.  0.
         14    1    1    2    0    0  0.16448678715E-02 -0.68103274522E-02  0.22385736819E-01  0.23456499382E-01  0.00000000000E+00 0.  1.
     999901    1    3    3    0    0 -0.75012471081E-02  0.12727750128E+00 -0.62642982297E-01  0.89139215516E+00  0.88000000000E+00 0. -1.
        -11    1    4    4    0    0  0.13553577178E-01 -0.65712595325E-01  0.26162481135E-01  0.72017922622E-01  0.51100000000E-03 0.  1.
         11    1    4    4    0    0 -0.76971979415E-02 -0.54754578505E-01  0.14094764343E-01  0.57063422841E-01  0.51100000000E-03 0. -1.
</event>
<event>
 8    1  0.1075206E+005  0.1043930E+01  0.7957747E-01            NaN
         13   -1    0    0    0    0  0.00000000000E+00  0.00000000000E+00  0.74505805969E-08  0.10566000000E+00  0.10566000000E+00 0. -1.
     999900   -1    0    0    0    0 -0.00000000000E+00 -0.00000000000E+00 -0.74505805969E-08  0.93827000000E+00  0.93827000000E+00 0. -1.
     999902    2    1    2    0    0  0.11658256308E-01  0.10024007418E-01  0.17218065725E-01  0.10208462947E+01  0.10205852732E+01 0.  0.
     999903    2    3    3    0    0  0.46737032757E-01  0.26845782847E-01  0.12120281062E+00  0.13387035369E+00  0.18058350122E-01 0.  0.
         14    1    1    2    0    0 -0.11658256308E-01 -0.10024007418E-01 -0.17218065725E-01  0.23083705339E-01  0.00000000000E+00 0.  1.
     999901    1    3    3    0    0 -0.35078776449E-01 -0.16821775429E-01 -0.10398474489E+00  0.88697594097E+00  0.88000000000E+00 0. -1.
        -11    1    4    4    0    0  0.31970704288E-01  0.83487554131E-02  0.66236975165E-01  0.74023142662E-01  0.51100000000E-03 0.  1.
         11    1    4    4    0    0  0.14766328469E-01  0.18497027434E-01  0.54965835451E-01  0.59847211031E-01  0.51100000000E-03 0. -1.
</event>
<event>
 8    1  0.1075206E+005  0.1043930E+01  0.7957747E-01            NaN
         13   -1    0    0    0    0  0.00000000000E+00  0.00000000000E+00  0.74505805969E-08  0.10566000000E+00  0.10566000000E+00 0. -1.
     999900   -1    0    0    0    0 -0.00000000000E+00 -0.00000000000E+00 -0.74505805969E-08  0.93827000000E+00  0.93827000000E+00 0.  1.
     999902    2    1    2    0    0 -0.12196900060E-01 -0.18494439041E-01  0.89063823766E-02  0.10200525568E+01  0.10197730563E+01 0.  0.
     999903    2    3    3    0    0  0.83271538269E-01 -0.70698176234E-01 -0.66798622923E-01  0.13012519981E+00  0.23197637672E-01 0.  0.
         14    1    1    2    0    0  0.12196900060E-01  0.18494439041E-01 -0.89063823766E-02  0.23877443196E-01  0.00000000000E+00 0.  1.
     999901    1    3    3    0    0 -0.95468438329E-01  0.52203737193E-01  0.75705005299E-01  0.88992735699E+00  0.88000000000E+00 0. -1.
        -11    1    4    4    0    0  0.24444452750E-01 -0.31868470727E-01 -0.32840094179E-01  0.51883172642E-01  0.51100000000E-03 0.  1.
         11    1    4    4    0    0  0.58827085519E-01 -0.38829705507E-01 -0.33958528744E-01  0.78242027172E-01  0.51100000000E-03 0. -1.
</event>
<event>
 8    1  0.1075206E+005  0.1043930E+01  0.7957747E-01            NaN
         13   -1    0    0    0    0  0.00000000000E+00  0.00000000000E+00  0.74505805969E-08  0.10566000000E+00  0.10566000000E+00 0. -1.
     999900   -1    0    0    0    0 -0.00000000000E+00 -0.00000000000E+00 -0.74505805969E-08  0.93827000000E+00  0.93827000000E+00 0.  1.
     999902    2    1    2    0    0  0.19005290013E-01 -0.14518234630E-01  0.24942460062E-02  0.10198841802E+01  0.10196006766E+01 0.  0.
     999903    2    3    3    0    0  0.14547202877E-01 -0.12968138683E+00  0.81951883562E-02  0.13235112343E+00  0.20512814534E-01 0.  0.
         14    1    1    2    0    0 -0.19005290013E-01  0.14518234630E-01 -0.24942460062E-02  0.24045819769E-01  0.00000000000E+00 0. -1.
     999901    1    3    3    0    0  0.44580871355E-02  0.11516315220E+00 -0.57009423500E-02  0.88753305680E+00  0.88000000000E+00 0.  1.
        -11    1    4    4    0    0 -0.22567050175E-02 -0.69867613075E-01  0.23516706030E-02  0.69945461254E-01  0.51100000000E-03 0.  1.
         11    1    4    4    0    0  0.16803907895E-01 -0.59813773755E-01  0.58435177532E-02  0.62405662179E-01  0.51100000000E-03 0. -1.
</event>
<event>
 8    1  0.1075206E+005  0.1043930E+01  0.7957747E-01            NaN
         13   -1    0    0    0    0  0.00000000000E+00  0.00000000000E+00  0.74505805969E-08  0.10566000000E+00  0.10566000000E+00 0.  1.
     999900   -1    0    0    0    0 -0.00000000000E+00 -0.00000000000E+00 -0.74505805969E-08  0.93827000000E+00  0.93827000000E+00 0. -1.
     999902    2    1    2    0    0  0.25523799955E-02 -0.10285751283E-01  0.20485206747E-01  0.10208658499E+01  0.10206052756E+01 0.  0.
     999903    2    3    3    0    0  0.12241420198E+00  0.39618614272E-01 -0.11234088501E-01  0.13077404805E+00  0.20512812010E-01 0.  0.
         14    1    1    2    0    0 -0.25523799955E-02  0.10285751283E-01 -0.20485206747E-01  0.23064150072E-01  0.00000000000E+00 0. -1.
     999901    1    3    3    0    0 -0.11986182199E+00 -0.49904365555E-01  0.31719295248E-01  0.89009180187E+00  0.88000000000E+00 0.  1.
        -11    1    4    4    0    0  0.36714601898E-01  0.21799531253E-01 -0.19041192845E-02  0.42744220037E-01  0.51100000000E-03 0. -1.
         11    1    4    4    0    0  0.85699600084E-01  0.17819083019E-01 -0.93299692164E-02  0.88029828017E-01  0.51100000000E-03 0.  1.
</event>
<event>
 8    1  0.1075206E+005  0.1043930E+01  0.7957747E-01            NaN
         13   -1    0    0    0    0  0.00000000000E+00  0.00000000000E+00  0.74505805969E-08  0.10566000000E+00  0.10566000000E+00 0. -1.
     999900   -1    0    0    0    0 -0.00000000000E+00 -0.00000000000E+00 -0.74505805969E-08  0.93827000000E+00  0.93827000000E+00 0. -1.
     999902    2    1    2    0    0 -0.22002468537E-01  0.86224395912E-02  0.53614439605E-02  0.10196977866E+01  0.10194098174E+01 0.  0.
     999903    2    3    3    0    0  0.59809361598E-01 -0.40733077367E-01  0.10600731967E+00  0.12882252319E+00  0.11015776474E-01 0.  0.
         14    1    1    2    0    0  0.22002468537E-01 -0.86224395912E-02 -0.53614439605E-02  0.24232213427E-01  0.00000000000E+00 0.  1.
     999901    1    3    3    0    0 -0.81811830134E-01  0.49355516958E-01 -0.10064587571E+00  0.89087526338E+00  0.88000000000E+00 0. -1.
        -11    1    4    4    0    0  0.17315745326E-01 -0.63279452651E-02  0.29331414884E-01  0.34647813028E-01  0.51100000000E-03 0.  1.
         11    1    4    4    0    0  0.42493616271E-01 -0.34405132102E-01  0.76675904788E-01  0.94174710166E-01  0.51100000000E-03 0. -1.
</event>
<event>
 8    1  0.1075206E+005  0.1043930E+01  0.7957747E-01            NaN
         13   -1    0    0    0    0  0.00000000000E+00  0.00000000000E+00  0.74505805969E-08  0.10566000000E+00  0.10566000000E+00 0.  1.
     999900   -1    0    0    0    0 -0.00000000000E+00 -0.00000000000E+00 -0.74505805969E-08  0.93827000000E+00  0.93827000000E+00 0. -1.
     999902    2    1    2    0    0 -0.19734421402E-01  0.85687768175E-02 -0.54655770046E-02  0.10217321655E+01  0.10214910054E+01 0.  0.
     999903    2    3    3    0    0 -0.13278864707E-01  0.12686542860E+00  0.32243622536E-01  0.13299274601E+00  0.19397269800E-01 0.  0.
         14    1    1    2    0    0  0.19734421402E-01 -0.85687768175E-02  0.54655770046E-02  0.22197834494E-01  0.00000000000E+00 0.  1.
     999901    1    3    3    0    0 -0.64555566947E-02 -0.11829665178E+00 -0.37709199541E-01  0.88873941950E+00  0.88000000000E+00 0. -1.
        -11    1    4    4    0    0 -0.12961293208E-01  0.39441044725E-01  0.12565251263E-01  0.43379001728E-01  0.51100000000E-03 0.  1.
         11    1    4    4    0    0 -0.31757149947E-03  0.87424383874E-01  0.19678371274E-01  0.89613744283E-01  0.51100000000E-03 0. -1.
</event>
<event>
 8    1  0.1075206E+005  0.1043930E+01  0.7957747E-01            NaN
         13   -1    0    0    0    0  0.00000000000E+00  0.00000000000E+00  0.74505805969E-08  0.10566000000E+00  0.10566000000E+00 0. -1.
     999900   -1    0    0    0    0 -0.00000000000E+00 -0.00000000000E+00 -0.74505805969E-08  0.93827000000E+00  0.93827000000E+00 0.  1.
     999902    2    1    2    0    0  0.64775703089E-03  0.10403532107E-01  0.22582555260E-01  0.10190578294E+01  0.10187542563E+01 0.  0.
     999903    2    3    3    0    0  0.49859679532E-01 -0.34233401888E-01 -0.10947415378E+00  0.12672759701E+00  0.20429881312E-01 0.  0.
         14    1    1    2    0    0 -0.64775703089E-03 -0.10403532107E-01 -0.22582555260E-01  0.24872170624E-01  0.00000000000E+00 0.  1.
     999901    1    3    3    0    0 -0.49211922501E-01  0.44636933994E-01  0.13205670904E+00  0.89233023237E+00  0.88000000000E+00 0. -1.
        -11    1    4    4    0    0  0.25317470846E-01 -0.11352424003E-01 -0.67541746705E-01  0.73020548681E-01  0.51100000000E-03 0. -1.
         11    1    4    4    0    0  0.24542208685E-01 -0.22880977884E-01 -0.41932407074E-01  0.53707048328E-01  0.51100000000E-03 0.  1.
</event>
<event>
 7    1  0.1075206E+005  0.1043930E+01  0.7957747E-01            NaN
         13   -1    0    0    0    0  0.00000000000E+00  0.00000000000E+00  0.74505805969E-08  0.10566000000E+00  0.10566000000E+00 0.  1.
     999900   -1    0    0    0    0 -0.00000000000E+00 -0.00000000000E+00 -0.74505805969E-08  0.93827000000E+00  0.93827000000E+00 0. -1.
     999902    2    1    2    0    0  0.20211655045E-01 -0.12945042038E-01  0.55188102513E-02  0.10193019189E+01  0.10190043471E+01 0.  0.
         14    1    1    2    0    0 -0.20211655045E-01  0.12945042038E-01 -0.55188102513E-02  0.24628081119E-01  0.00000000000E+00 0. -1.
     999901    1    3    3    0    0  0.70975623519E-01 -0.76103917146E-02 -0.95682498121E-01  0.88806001917E+00  0.88000000000E+00 0. -1.
        -11    1    3    3    0    0 -0.50383013919E-01 -0.27498192322E-01  0.89080164423E-01  0.10597233359E+00  0.51100000000E-03 0. -1.
         11    1    3    3    0    0 -0.38095455480E-03  0.22163541999E-01  0.12121143949E-01  0.25269566121E-01  0.51100000000E-03 0.  1.
</event>
<event>
 8    1  0.1075206E+005  0.1043930E+01  0.7957747E-01            NaN
         13   -1    0    0    0    0  0.00000000000E+00  0.00000000000E+00  0.74505805969E-08  0.10566000000E+00  0.10566000000E+00 0.  1.
     999900   -1    0    0    0    0 -0.00000000000E+00 -0.00000000000E+00 -0.74505805969E-08  0.93827000000E+00  0.93827000000E+00 0.  1.
     999902    2    1    2    0    0 -0.14080324993E-01  0.22078270004E-01 -0.31969826445E-02  0.10175495857E+01  0.10172075664E+01 0.  0.
     999903    2    3    3    0    0  0.65609839936E-01 -0.25583337493E-01  0.10292601922E+00  0.12632332786E+00  0.20116149612E-01 0.  0.
         14    1    1    2    0    0  0.14080324993E-01 -0.22078270004E-01  0.31969826445E-02  0.26380414256E-01  0.00000000000E+00 0. -1.
     999901    1    3    3    0    0 -0.79690164930E-01  0.47661607498E-01 -0.10612300187E+00  0.89122625788E+00  0.88000000000E+00 0.  1.
        -11    1    4    4    0    0  0.10110411735E-01 -0.11442309303E-01  0.29291653537E-01  0.33036479164E-01  0.51100000000E-03 0. -1.
         11    1    4    4    0    0  0.55499428201E-01 -0.14141028190E-01  0.73634365684E-01  0.93286848696E-01  0.51100000000E-03 0.  1.
</event>
<event>
 8    1  0.1075206E+005  0.1043930E+01  0.7957747E-01            NaN
         13   -1    0    0    0    0  0.00000000000E+00  0.00000000000E+00  0.74505805969E-08  0.10566000000E+00  0.10566000000E+00 0. -1.
     999900   -1    0    0    0    0 -0.00000000000E+00 -0.00000000000E+00 -0.74505805969E-08  0.93827000000E+00  0.93827000000E+00 0. -1.
     999902    2    1    2    0    0  0.27874018147E-01 -0.12842265978E-01 -0.64005746742E-02  0.10125795289E+01  0.10120940916E+01 0.  0.
     999903    2    3    3    0    0  0.13397972334E-01 -0.36596155552E-01 -0.11834718156E+00  0.12505158793E+00  0.10632967508E-01 0.  0.
         14    1    1    2    0    0 -0.27874018147E-01  0.12842265978E-01  0.64005746742E-02  0.31350471118E-01  0.00000000000E+00 0.  1.
     999901    1    3    3    0    0  0.14476045814E-01  0.23753889575E-01  0.11194660688E+00  0.88752794095E+00  0.88000000000E+00 0.  1.
        -11    1    4    4    0    0  0.97300471153E-02 -0.33971552713E-01 -0.11016133268E+00  0.11569148866E+00  0.51100000000E-03 0. -1.
         11    1    4    4    0    0  0.36679252183E-02 -0.26246028394E-02 -0.81858488832E-02  0.93600992735E-02  0.51100000000E-03 0.  1.
</event>
<event>
 8    1  0.1075206E+005  0.1043930E+01  0.7957747E-01            NaN
         13   -1    0    0    0    0  0.00000000000E+00  0.00000000000E+00  0.74505805969E-08  0.10566000000E+00  0.10566000000E+00 0. -1.
     999900   -1    0    0    0    0 -0.00000000000E+00 -0.00000000000E+00 -0.74505805969E-08  0.93827000000E+00  0.93827000000E+00 0. -1.
     999902    2    1    2    0    0  0.14330146973E-02 -0.72623586902E-02 -0.21962338396E-01  0.10207537257E+01  0.10204905824E+01 0.  0.
     999903    2    3    3    0    0  0.84297419126E-01 -0.84357740784E-01 -0.54959831814E-01  0.13289166315E+00  0.20428600530E-01 0.  0.
         14    1    1    2    0    0 -0.14330146973E-02  0.72623586902E-02  0.21962338396E-01  0.23176274349E-01  0.00000000000E+00 0. -1.
     999901    1    3    3    0    0 -0.82864404428E-01  0.77095382094E-01  0.32997493418E-01  0.88786206250E+00  0.88000000000E+00 0.  1.
        -11    1    4    4    0    0  0.65454268793E-01 -0.76000402443E-01 -0.43840128930E-01  0.10946479114E+00  0.51100000000E-03 0. -1.
         11    1    4    4    0    0  0.18843150333E-01 -0.83573383412E-02 -0.11119702884E-01  0.23426872003E-01  0.51100000000E-03 0.  1.
</event>
<event>
 8    1  0.1075206E+005  0.1043930E+01  0.7957747E-01            NaN
         13   -1    0    0    0    0  0.00000000000E+00  0.00000000000E+00  0.74505805969E-08  0.10566000000E+00  0.10566000000E+00 0.  1.
     999900   -1    0    0    0    0 -0.00000000000E+00 -0.00000000000E+00 -0.74505805969E-08  0.93827000000E+00  0.93827000000E+00 0.  1.
     999902    2    1    2    0    0 -0.20704533902E-01 -0.68880823791E-02  0.86521715341E-02  0.10204569628E+01  0.10201869581E+01 0.  0.
     999903    2    3    3    0    0  0.64627243174E-01  0.10848109279E+00  0.13961569183E-01  0.12881816348E+00  0.21315857332E-01 0.  0.
         14    1    1    2    0    0  0.20704533902E-01  0.68880823791E-02 -0.86521715341E-02  0.23473037197E-01  0.00000000000E+00 0. -1.
     999901    1    3    3    0    0 -0.85331777077E-01 -0.11536917517E+00 -0.53093976487E-02  0.89163879933E+00  0.88000000000E+00 0. -1.
        -11    1    4    4    0    0  0.37293976986E-01  0.77237741667E-01  0.27501181663E-02  0.85815696281E-01  0.51100000000E-03 0.  1.
         11    1    4    4    0    0  0.27333266188E-01  0.31243351126E-01  0.11211451017E-01  0.43002467197E-01  0.51100000000E-03 0. -1.
</event>
<event>
 8    1  0.1075206E+005  0.1043930E+01  0.7957747E-01            NaN
         13   -1    0    0    0    0  0.00000000000E+00  0.00000000000E+00  0.74505805969E-08  0.10566000000E+00  0.10566000000E+00 0. -1.
     999900   -1    0    0    0    0 -0.00000000000E+00 -0.00000000000E+00 -0.74505805969E-08  0.93827000000E+00  0.93827000000E+00 0. -1.
     999902    2    1    2    0    0 -0.19547785506E-02  0.15605652689E-01 -0.17826531640E-01  0.10201572680E+01  0.10198802423E+01 0.  0.
     999903    2    3    3    0    0 -0.12742270454E+00 -0.25988203395E-02  0.18120429685E-01  0.13034504777E+00  0.20449498945E-01 0.  0.
         14    1    1    2    0    0  0.19547785506E-02 -0.15605652689E-01  0.17826531640E-01  0.23772731971E-01  0.00000000000E+00 0. -1.
     999901    1    3    3    0    0  0.12546792599E+00  0.18204473028E-01 -0.35946961325E-01  0.88981222026E+00  0.88000000000E+00 0. -1.
        -11    1    4    4    0    0 -0.36757506031E-01  0.61898041061E-02 -0.89760940114E-03  0.37289338264E-01  0.51100000000E-03 0. -1.
         11    1    4    4    0    0 -0.90665198509E-01 -0.87886244457E-02  0.19018039086E-01  0.93055709508E-01  0.51100000000E-03 0.  1.
</event>
<event>
 8    1  0.1075206E+005  0.1043930E+01  0.7957747E-01            NaN
         13   -1    0    0    0    0  0.00000000000E+00  0.00000000000E+00  0.74505805969E-08  0.10566000000E+00  0.10566000000E+00 0. -1.
     999900   -1    0    0    0    0 -0.00000000000E+00 -0.00000000000E+00 -0.74505805969E-08  0.93827000000E+00  0.93827000000E+00 0.  1.
     999902    2    1    2    0    0 -0.14756134777E-01  0.66369688422E-02 -0.17766015074E-01  0.10199003483E+01  0.10196172303E+01 0.  0.
     999903    2    3    3    0    0  0.44378904784E-01  0.75074051681E-01  0.92223176715E-01  0.12845309270E+00  0.19735305314E-01 0.  0.
         14    1    1    2    0    0  0.14756134777E-01 -0.66369688422E-02  0.17766015074E-01  0.24029651695E-01  0.00000000000E+00 0. -1.
     999901    1    3    3    0    0 -0.59135039562E-01 -0.68437082839E-01 -0.10998919179E+00  0.89144725560E+00  0.88000000000E+00 0.  1.
        -11    1    4    4    0    0  0.27747325678E-01  0.38642719833E-01  0.37178717000E-01  0.60379566056E-01  0.51100000000E-03 0. -1.
         11    1    4    4    0    0  0.16631579107E-01  0.36431331848E-01  0.55044459715E-01  0.68073526646E-01  0.51100000000E-03 0.  1.
</event>
<event>
 8    1  0.1075206E+005  0.1043930E+01  0.7957747E-01            NaN
         13   -1    0    0    0    0  0.00000000000E+00  0.00000000000E+00  0.74505805969E-08  0.10566000000E+00  0.10566000000E+00 0.  1.
     999900   -1    0    0    0    0 -0.00000000000E+00 -0.00000000000E+00 -0.74505805969E-08  0.93827000000E+00  0.93827000000E+00 0.  1.
     999902    2    1    2    0    0 -0.21759384841E-01 -0.12955337810E-02  0.90751321892E-02  0.10203184083E+01  0.10200451692E+01 0.  0.
     999903    2    3    3    0    0  0.26313602200E-01  0.57951703792E-01  0.11271684857E+00  0.13095748463E+00  0.19848657309E-01 0.  0.
         14    1    1    2    0    0  0.21759384841E-01  0.12955337810E-02 -0.90751321892E-02  0.23611591659E-01  0.00000000000E+00 0. -1.
     999901    1    3    3    0    0 -0.48072987040E-01 -0.59247237573E-01 -0.10364171638E+00  0.88936092371E+00  0.88000000000E+00 0.  1.
        -11    1    4    4    0    0  0.21734801793E-02  0.50811073396E-02  0.25848029397E-01  0.26437159692E-01  0.51100000000E-03 0. -1.
         11    1    4    4    0    0  0.24140122020E-01  0.52870596452E-01  0.86868819173E-01  0.10452032494E+00  0.51100000000E-03 0.  1.
</event>
<event>
 8    1  0.1075206E+005  0.1043930E+01  0.7957747E-01            NaN
         13   -1    0    0    0    0  0.00000000000E+00  0.00000000000E+00  0.74505805969E-08  0.10566000000E+00  0.10566000000E+00 0. -1.
     999900   -1    0    0    0    0 -0.00000000000E+00 -0.00000000000E+00 -0.74505805969E-08  0.93827000000E+00  0.93827000000E+00 0. -1.
     999902    2    1    2    0    0  0.24229792539E-01 -0.26795863931E-02 -0.17231955932E-02  0.10194916606E+01  0.10191987115E+01 0.  0.
     999903    2    3    3    0    0 -0.99441089020E-01 -0.64300448491E-01 -0.44175062196E-01  0.12769920797E+00  0.18236604222E-01 0.  0.
         14    1    1    2    0    0 -0.24229792539E-01  0.26795863931E-02  0.17231955932E-02  0.24438339403E-01  0.00000000000E+00 0.  1.
     999901    1    3    3    0    0  0.12367088156E+00  0.61620862098E-01  0.42451866603E-01  0.89179245263E+00  0.88000000000E+00 0. -1.
        -11    1    4    4    0    0 -0.87860199045E-01 -0.49213704446E-01 -0.35393311794E-01  0.10674432501E+00  0.51100000000E-03 0. -1.
         11    1    4    4    0    0 -0.11580889974E-01 -0.15086744045E-01 -0.87817504020E-02  0.20954882954E-01  0.51100000000E-03 0.  1.
</event>
<event>
 8    1  0.1075206E+005  0.1043930E+01  0.7957747E-01            NaN
         13   -1    0    0    0    0  0.00000000000E+00  0.00000000000E+00  0.74505805969E-08  0.10566000000E+00  0.10566000000E+00 0. -1.
     999900   -1    0    0    0    0 -0.00000000000E+00 -0.00000000000E+00 -0.74505805969E-08  0.93827000000E+00  0.93827000000E+00 0. -1.
     999902    2    1    2    0    0 -0.16007300894E-01  0.15740728683E-01 -0.10543514395E-01  0.10191273808E+01  0.10188255241E+01 0.  0.
     999903    2    3    3    0    0  0.72080972828E-01 -0.22533958584E-01 -0.10288647478E+00  0.12909832627E+00  0.19424346040E-01 0.  0.
         14    1    1    2    0    0  0.16007300894E-01 -0.15740728683E-01  0.10543514395E-01  0.24802619160E-01  0.00000000000E+00 0. -1.
     999901    1    3    3    0    0 -0.88088273722E-01  0.38274687268E-01  0.92342960384E-01  0.89002905457E+00  0.88000000000E+00 0.  1.
        -11    1    4    4    0    0  0.47856954644E-01 -0.59830934385E-02 -0.57471617986E-01  0.75028884504E-01  0.51100000000E-03 0.  1.
         11    1    4    4    0    0  0.24224018184E-01 -0.16550865146E-01 -0.45414856793E-01  0.54069441763E-01  0.51100000000E-03 0. -1.
</event>
<event>
 8    1  0.1075206E+005  0.1043930E+01  0.7957747E-01            NaN
         13   -1    0    0    0    0  0.00000000000E+00  0.00000000000E+00  0.74505805969E-08  0.10566000000E+00  0.10566000000E+00 0.  1.
     999900   -1    0    0    0    0 -0.00000000000E+00 -0.00000000000E+00 -0.74505805969E-08  0.93827000000E+00  0.93827000000E+00 0.  1.
     999902    2    1    2    0    0 -0.53468120379E-02 -0.15863447102E-01  0.15778273592E-01  0.10209258423E+01  0.10206666372E+01 0.  0.
     999903    2    3    3    0    0  0.88902289370E-01 -0.89032371790E-01  0.35818134053E-01  0.13264763103E+00  0.21956206596E-01 0.  0.
         14    1    1    2    0    0  0.53468120379E-02  0.15863447102E-01 -0.15778273592E-01  0.23004157678E-01  0.00000000000E+00 0. -1.
     999901    1    3    3    0    0 -0.94249101408E-01  0.73168924688E-01 -0.20039860461E-01  0.88827821130E+00  0.88000000000E+00 0. -1.
        -11    1    4    4    0    0  0.68965733101E-01 -0.64665335366E-01  0.17279739339E-01  0.96107900054E-01  0.51100000000E-03 0. -1.
         11    1    4    4    0    0  0.19936556269E-01 -0.24367036424E-01  0.18538394714E-01  0.36539730972E-01  0.51100000000E-03 0.  1.
</event>
<event>
 8    1  0.1075206E+005  0.1043930E+01  0.7957747E-01            NaN
         13   -1    0    0    0    0  0.00000000000E+00  0.00000000000E+00  0.74505805969E-08  0.10566000000E+00  0.10566000000E+00 0. -1.
     999900   -1    0    0    0    0 -0.00000000000E+00 -0.00000000000E+00 -0.74505805969E-08  0.93827000000E+00  0.93827000000E+00 0. -1.
     999902    2    1    2    0    0 -0.97759634088E-02  0.27661765907E-01 -0.15964591791E-02  0.10145481785E+01  0.10141226331E+01 0.  0.
     999903    2    3    3    0    0 -0.11984688921E+00 -0.81241139338E-02 -0.34380533846E-01  0.12636405711E+00  0.18883213226E-01 0.  0.
         14    1    1    2    0    0  0.97759634088E-02 -0.27661765907E-01  0.15964591791E-02  0.29381821516E-01  0.00000000000E+00 0. -1.
     999901    1    3    3    0    0  0.11007092580E+00  0.35785879841E-01  0.32784074667E-01  0.88818412137E+00  0.88000000000E+00 0. -1.
        -11    1    4    4    0    0 -0.98587046497E-01  0.41800666773E-03 -0.25973581646E-01  0.10195326641E+00  0.51100000000E-03 0. -1.
         11    1    4    4    0    0 -0.21259842715E-01 -0.85421206015E-02 -0.84069521994E-02  0.24410790706E-01  0.51100000000E-03 0.  1.
</event>
<event>
 8    1  0.1075206E+005  0.1043930E+01  0.7957747E-01            NaN
         13   -1    0    0    0    0  0.00000000000E+00  0.00000000000E+00  0.74505805969E-08  0.10566000000E+00  0.10566000000E+00 0. -1.
     999900   -1    0    0    0    0 -0.00000000000E+00 -0.00000000000E+00 -0.74505805969E-08  0.93827000000E+00  0.93827000000E+00 0.  1.
     999902    2    1    2    0    0  0.17330834478E-01  0.88557519738E-02  0.17628139529E-01  0.10176710307E+01  0.10173321941E+01 0.  0.
     999903    2    3    3    0    0 -0.24785841784E-01 -0.14032621379E-01 -0.12053797759E+00  0.12560176881E+00  0.20860198201E-01 0.  0.
         14    1    1    2    0    0 -0.17330834478E-01 -0.88557519738E-02 -0.17628139529E-01  0.26258969324E-01  0.00000000000E+00 0.  1.
     999901    1    3    3    0    0  0.42116676262E-01  0.22888373353E-01  0.13816611712E+00  0.89206926187E+00  0.88000000000E+00 0. -1.
        -11    1    4    4    0    0 -0.16933412581E-01 -0.86968840751E-02 -0.37865036807E-01  0.42383940209E-01  0.51100000000E-03 0.  1.
         11    1    4    4    0    0 -0.78524292027E-02 -0.53357373042E-02 -0.82672940786E-01  0.83217828596E-01  0.51100000000E-03 0. -1.
</event>
<event>
 8    1  0.1075206E+005  0.1043930E+01  0.7957747E-01            NaN
         13   -1    0    0    0    0  0.00000000000E+00  0.00000000000E+00  0.74505805969E-08  0.10566000000E+00  0.10566000000E+00 0.  1.
     999900   -1    0    0    0    0 -0.00000000000E+00 -0.00000000000E+00 -0.74505805969E-08  0.93827000000E+00  0.93827000000E+00 0.  1.
     999902    2    1    2    0    0  0.20891371366E-01  0.10316922247E-01 -0.24147361810E-02  0.10205052432E+01  0.10202363609E+01 0.  0.
     999903    2    3    3    0    0 -0.67926437090E-01 -0.90825871602E-01  0.56406173542E-01  0.12832904573E+00  0.20575416286E-01 0.  0.
         14    1    1    2    0    0 -0.20891371366E-01 -0.10316922247E-01  0.24147361810E-02  0.23424756840E-01  0.00000000000E+00 0. -1.
     999901    1    3    3    0    0  0.88817808456E-01  0.10114279385E+00 -0.58820909723E-01  0.89217619743E+00  0.88000000000E+00 0.  1.
        -11    1    4    4    0    0 -0.20060827247E-01 -0.43165512489E-01  0.26169917158E-01  0.54321486940E-01  0.51100000000E-03 0.  1.
         11    1    4    4    0    0 -0.47865609843E-01 -0.47660359113E-01  0.30236256383E-01  0.74007558786E-01  0.51100000000E-03 0. -1.
</event>
<event>
 8    1  0.1075206E+005  0.1043930E+01  0.7957747E-01            NaN
         13   -1    0    0    0    0  0.00000000000E+00  0.00000000000E+00  0.74505805969E-08  0.10566000000E+00  0.10566000000E+00 0.  1.
     999900   -1    0    0    0    0 -0.00000000000E+00 -0.00000000000E+00 -0.74505805969E-08  0.93827000000E+00  0.93827000000E+00 0.  1.
     999902    2    1    2    0    0 -0.64019072606E-02  0.71631759577E-02  0.21622568910E-01  0.10202692521E+01  0.10199948606E+01 0.  0.
     999903    2    3    3    0    0 -0.52770526187E-01 -0.10761963348E+00  0.49137868902E-01  0.13117857396E+00  0.20653671849E-01 0.  0.
         14    1    1    2    0    0  0.64019072606E-02 -0.71631759577E-02 -0.21622568910E-01  0.23660747931E-01  0.00000000000E+00 0. -1.
     999901    1    3    3    0    0  0.46368618926E-01  0.11478280944E+00 -0.27515299991E-01  0.88909067811E+00  0.88000000000E+00 0.  1.
        -11    1    4    4    0    0 -0.39331123637E-01 -0.71166364416E-01  0.23550253628E-01  0.84654971960E-01  0.51100000000E-03 0.  1.
         11    1    4    4    0    0 -0.13439402550E-01 -0.36453269069E-01  0.25587615274E-01  0.46523602001E-01  0.51100000000E-03 0. -1.
</event>
<event>
 8    1  0.1075206E+005  0.1043930E+01  0.7957747E-01            NaN
         13   -1    0    0    0    0  0.00000000000E+00  0.00000000000E+00  0.74505805969E-08  0.10566000000E+00  0.10566000000E+00 0. -1.
     999900   -1    0    0    0    0 -0.00000000000E+00 -0.00000000000E+00 -0.74505805969E-08  0.93827000000E+00  0.93827000000E+00 0.  1.
     999902    2    1    2    0    0  0.10470549078E-01  0.20806559606E-01 -0.69868188928E-03  0.10206269213E+01  0.10203608572E+01 0.  0.
     999903    2    3    3    0    0  0.30606443766E-01 -0.61451956924E-02  0.12542568950E+00  0.13099822997E+00  0.21317008215E-01 0.  0.
         14    1    1    2    0    0 -0.10470549078E-01 -0.20806559606E-01  0.69868188928E-03  0.23303078702E-01  0.00000000000E+00 0. -1.
     999901    1    3    3    0    0 -0.20135894688E-01  0.26951755298E-01 -0.12612437139E+00  0.88962869132E+00  0.88000000000E+00 0.  1.
        -11    1    4    4    0    0  0.27936613471E-01  0.19526866066E-02  0.79623814366E-01  0.84406636542E-01  0.51100000000E-03 0.  1.
         11    1    4    4    0    0  0.26698302946E-02 -0.80978822989E-02  0.45801875136E-01  0.46591593432E-01  0.51100000000E-03 0. -1.
</event>
<event>
 8    1  0.1075206E+005  0.1043930E+01  0.7957747E-01            NaN
         13   -1    0    0    0    0  0.00000000000E+00  0.00000000000E+00  0.74505805969E-08  0.10566000000E+00  0.10566000000E+00 0. -1.
     999900   -1    0    0    0    0 -0.00000000000E+00 -0.00000000000E+00 -0.74505805969E-08  0.93827000000E+00  0.93827000000E+00 0. -1.
     999902    2    1    2    0    0 -0.43635369136E-02  0.19849033411E-01  0.11606408997E-01  0.10205262971E+01  0.10202579035E+01 0.  0.
     999903    2    3    3    0    0 -0.12839080841E+00 -0.13049736568E-01 -0.10769662032E-01  0.13093887488E+00  0.19352209857E-01 0.  0.
         14    1    1    2    0    0  0.43635369136E-02 -0.19849033411E-01 -0.11606408997E-01  0.23403702945E-01  0.00000000000E+00 0. -1.
     999901    1    3    3    0    0  0.12402727149E+00  0.32898769979E-01  0.22376071029E-01  0.88958742218E+00  0.88000000000E+00 0. -1.
        -11    1    4    4    0    0 -0.44774787953E-01 -0.13423785304E-01 -0.66700402592E-02  0.47220019125E-01  0.51100000000E-03 0.  1.
         11    1    4    4    0    0 -0.83616020454E-01  0.37404873586E-03 -0.40996217729E-02  0.83718855753E-01  0.51100000000E-03 0. -1.
</event>
<event>
 8    1  0.1075206E+005  0.1043930E+01  0.7957747E-01            NaN
         13   -1    0    0    0    0  0.00000000000E+00  0.00000000000E+00  0.74505805969E-08  0.10566000000E+00  0.10566000000E+00 0. -1.
     999900   -1    0    0    0    0 -0.00000000000E+00 -0.00000000000E+00 -0.74505805969E-08  0.93827000000E+00  0.93827000000E+00 0. -1.
     999902    2    1    2    0    0  0.61087746162E-02  0.12732028429E-01 -0.23801404138E-01  0.10162545865E+01  0.10158776777E+01 0.  0.
     999903    2    3    3    0    0  0.37158123540E-01  0.95912704344E-01 -0.77360798192E-01  0.13016672649E+00  0.19460487861E-01 0.  0.
         14    1    1    2    0    0 -0.61087746162E-02 -0.12732028429E-01  0.23801404138E-01  0.27675413532E-01  0.00000000000E+00 0. -1.
     999901    1    3    3    0    0 -0.31049348924E-01 -0.83180675915E-01  0.53559394054E-01  0.88608785998E+00  0.88000000000E+00 0.  1.
        -11    1    4    4    0    0  0.11438339642E-01  0.30884051223E-01 -0.36531702907E-01  0.49188277791E-01  0.51100000000E-03 0. -1.
         11    1    4    4    0    0  0.25719783898E-01  0.65028653121E-01 -0.40829095285E-01  0.80978448696E-01  0.51100000000E-03 0.  1.
</event>
<event>
 8    1  0.1075206E+005  0.1043930E+01  0.7957747E-01            NaN
         13   -1    0    0    0    0  0.00000000000E+00  0.00000000000E+00  0.74505805969E-08  0.10566000000E+00  0.10566000000E+00 0. -1.
     999900   -1    0    0    0    0 -0.00000000000E+00 -0.00000000000E+00 -0.74505805969E-08  0.93827000000E+00  0.93827000000E+00 0.  1.
     999902    2    1    2    0    0 -0.17871390665E-01 -0.15279177352E-01  0.43254524034E-03  0.10204134747E+01  0.10201424570E+01 0.  0.
     999903    2    3    3    0    0  0.11311826881E+00 -0.29409642911E-01  0.51165286946E-01  0.12916055215E+00  0.20097059719E-01 0.  0.
         14    1    1    2    0    0  0.17871390665E-01  0.15279177352E-01 -0.43254524034E-03  0.23516525258E-01  0.00000000000E+00 0.  1.
     999901    1    3    3    0    0 -0.13098965947E+00  0.14130465559E-01 -0.50732741706E-01  0.89125292259E+00  0.88000000000E+00 0.  1.
        -11    1    4    4    0    0  0.66814746996E-01 -0.73888144108E-02  0.26466896167E-01  0.72246541151E-01  0.51100000000E-03 0. -1.
         11    1    4    4    0    0  0.46303521812E-01 -0.22020828500E-01  0.24698390779E-01  0.56914011000E-01  0.51100000000E-03 0.  1.
</event>
<event>
 8    1  0.1075206E+005  0.1043930E+01  0.7957747E-01            NaN
         13   -1    0    0    0    0  0.00000000000E+00  0.00000000000E+00  0.74505805969E-08  0.10566000000E+00  0.10566000000E+00 0. -1.
     999900   -1    0    0    0    0 -0.00000000000E+00 -0.00000000000E+00 -0.74505805969E-08  0.93827000000E+00  0.93827000000E+00 0. -1.
     999902    2    1    2    0    0  0.17545580156E-01  0.29140028382E-02  0.16398545808E-01  0.10197380365E+01  0.10194510346E+01 0.  0.
     999903    2    3    3    0    0 -0.10811336838E+00 -0.40568285957E-01 -0.49450528403E-01  0.12731606151E+00  0.20730135367E-01 0.  0.
         14    1    1    2    0    0 -0.17545580156E-01 -0.29140028382E-02 -0.16398545808E-01  0.24191963545E-01  0.00000000000E+00 0.  1.
     999901    1    3    3    0    0  0.12565894853E+00  0.43482288795E-01  0.65849074211E-01  0.89242197494E+00  0.88000000000E+00 0. -1.
        -11    1    4    4    0    0 -0.49298556295E-01 -0.23488754425E-01 -0.13339089877E-01  0.56216204754E-01  0.51100000000E-03 0. -1.
         11    1    4    4    0    0 -0.58814812082E-01 -0.17079531532E-01 -0.36111438526E-01  0.71099856758E-01  0.51100000000E-03 0.  1.
</event>
<event>
 8    1  0.1075206E+005  0.1043930E+01  0.7957747E-01            NaN
         13   -1    0    0    0    0  0.00000000000E+00  0.00000000000E+00  0.74505805969E-08  0.10566000000E+00  0.10566000000E+00 0.  1.
     999900   -1    0    0    0    0 -0.00000000000E+00 -0.00000000000E+00 -0.74505805969E-08  0.93827000000E+00  0.93827000000E+00 0. -1.
     999902    2    1    2    0    0 -0.45174081276E-02  0.14938880649E-01 -0.17086414607E-01  0.10207886367E+01  0.10205262947E+01 0.  0.
     999903    2    3    3    0    0  0.32518089465E-01  0.89497810912E-01 -0.88505770329E-01  0.13397896911E+00  0.32400748156E-01 0.  0.
         14    1    1    2    0    0  0.45174081276E-02 -0.14938880649E-01  0.17086414607E-01  0.23141363300E-01  0.00000000000E+00 0.  1.
     999901    1    3    3    0    0 -0.37035497592E-01 -0.74558930263E-01  0.71419355722E-01  0.88680966759E+00  0.88000000000E+00 0.  1.
        -11    1    4    4    0    0  0.29613589632E-01  0.35052355497E-01 -0.36598718870E-01  0.58697186139E-01  0.51100000000E-03 0. -1.
         11    1    4    4    0    0  0.29044998326E-02  0.54445455415E-01 -0.51907051460E-01  0.75281782968E-01  0.51100000000E-03 0.  1.
</event>
<event>
 8    1  0.1075206E+005  0.1043930E+01  0.7957747E-01            NaN
         13   -1    0    0    0    0  0.00000000000E+00  0.00000000000E+00  0.74505805969E-08  0.10566000000E+00  0.10566000000E+00 0. -1.
     999900   -1    0    0    0    0 -0.00000000000E+00 -0.00000000000E+00 -0.74505805969E-08  0.93827000000E+00  0.93827000000E+00 0. -1.
     999902    2    1    2    0    0 -0.13615476713E-02  0.24496809038E-01  0.26423021139E-02  0.10192535086E+01  0.10189547515E+01 0.  0.
     999903    2    3    3    0    0 -0.11554730231E+00 -0.37027704357E-01 -0.38276414028E-01  0.12880531047E+00  0.20087164400E-01 0.  0.
         14    1    1    2    0    0  0.13615476713E-02 -0.24496809038E-01 -0.26423021139E-02  0.24676491354E-01  0.00000000000E+00 0.  1.
     999901    1    3    3    0    0  0.11418575463E+00  0.61524513394E-01  0.40918716142E-01  0.89044819818E+00  0.88000000000E+00 0. -1.
        -11    1    4    4    0    0 -0.29245471103E-01 -0.16863954502E-01 -0.49746116443E-02  0.34127678261E-01  0.51100000000E-03 0. -1.
         11    1    4    4    0    0 -0.86301831202E-01 -0.20163749855E-01 -0.33301802383E-01  0.94677632205E-01  0.51100000000E-03 0.  1.
</event>
<event>
 8    1  0.1075206E+005  0.1043930E+01  0.7957747E-01            NaN
         13   -1    0    0    0    0  0.00000000000E+00  0.00000000000E+00  0.74505805969E-08  0.10566000000E+00  0.10566000000E+00 0.  1.
     999900   -1    0    0    0    0 -0.00000000000E+00 -0.00000000000E+00 -0.74505805969E-08  0.93827000000E+00  0.93827000000E+00 0. -1.
     999902    2    1    2    0    0  0.83124109921E-02 -0.17012885124E-01  0.14056819169E-01  0.10203476209E+01  0.10200750654E+01 0.  0.
     999903    2    3    3    0    0  0.12316912964E+00  0.38505379507E-01  0.13611594903E-01  0.13114880080E+00  0.19011409445E-01 0.  0.
         14    1    1    2    0    0 -0.83124109921E-02  0.17012885124E-01 -0.14056819169E-01  0.23582379055E-01  0.00000000000E+00 0. -1.
     999901    1    3    3    0    0 -0.11485671864E+00 -0.55518264631E-01  0.44522426545E-03  0.88919882015E+00  0.88000000000E+00 0.  1.
        -11    1    4    4    0    0  0.45832085932E-01  0.84620621901E-02 -0.23060817567E-02  0.46666537599E-01  0.51100000000E-03 0.  1.
         11    1    4    4    0    0  0.77337043703E-01  0.30043317317E-01  0.15917676660E-01  0.84482263200E-01  0.51100000000E-03 0. -1.
</event>
<event>
 8    1  0.1075206E+005  0.1043930E+01  0.7957747E-01            NaN
         13   -1    0    0    0    0  0.00000000000E+00  0.00000000000E+00  0.74505805969E-08  0.10566000000E+00  0.10566000000E+00 0. -1.
     999900   -1    0    0    0    0 -0.00000000000E+00 -0.00000000000E+00 -0.74505805969E-08  0.93827000000E+00  0.93827000000E+00 0. -1.
     999902    2    1    2    0    0  0.83481857102E-02  0.12839131463E-01 -0.18177602176E-01  0.10201610976E+01  0.10198841622E+01 0.  0.
     999903    2    3    3    0    0  0.11396518382E+00 -0.14297749490E-01  0.58240993218E-01  0.13014359083E+00  0.18784359983E-01 0.  0.
         14    1    1    2    0    0 -0.83481857102E-02 -0.12839131463E-01  0.18177602176E-01  0.23768902420E-01  0.00000000000E+00 0. -1.
     999901    1    3    3    0    0 -0.10561699811E+00  0.27136880953E-01 -0.76418595394E-01  0.89001750675E+00  0.88000000000E+00 0. -1.
        -11    1    4    4    0    0  0.50957421769E-01  0.27745545909E-02  0.23362436794E-01  0.56128616236E-01  0.51100000000E-03 0.  1.
         11    1    4    4    0    0  0.63007762050E-01 -0.17072304081E-01  0.34878556424E-01  0.74014974595E-01  0.51100000000E-03 0. -1.
</event>
<event>
 8    1  0.1075206E+005  0.1043930E+01  0.7957747E-01            NaN
         13   -1    0    0    0    0  0.00000000000E+00  0.00000000000E+00  0.74505805969E-08  0.10566000000E+00  0.10566000000E+00 0. -1.
     999900   -1    0    0    0    0 -0.00000000000E+00 -0.00000000000E+00 -0.74505805969E-08  0.93827000000E+00  0.93827000000E+00 0. -1.
     999902    2    1    2    0    0 -0.18789554519E-01  0.12579048134E-01  0.60503013079E-02  0.10205230361E+01  0.10202545669E+01 0.  0.
     999903    2    3    3    0    0  0.54806410520E-01  0.93015563573E-01  0.71931770578E-01  0.13135108029E+00  0.20573987800E-01 0.  0.
         14    1    1    2    0    0  0.18789554519E-01 -0.12579048134E-01 -0.60503013079E-02  0.23406963855E-01  0.00000000000E+00 0. -1.
     999901    1    3    3    0    0 -0.73595965039E-01 -0.80436515439E-01 -0.65881469270E-01  0.88917195586E+00  0.88000000000E+00 0. -1.
        -11    1    4    4    0    0  0.56461829626E-02  0.25143345394E-01  0.21300286459E-01  0.33436963437E-01  0.51100000000E-03 0. -1.
         11    1    4    4    0    0  0.49160227557E-01  0.67872218179E-01  0.50631484119E-01  0.97914116853E-01  0.51100000000E-03 0.  1.
</event>
<event>
 8    1  0.1075206E+005  0.1043930E+01  0.7957747E-01            NaN
         13   -1    0    0    0    0  0.00000000000E+00  0.00000000000E+00  0.74505805969E-08  0.10566000000E+00  0.10566000000E+00 0.  1.
     999900   -1    0    0    0    0 -0.00000000000E+00 -0.00000000000E+00 -0.74505805969E-08  0.93827000000E+00  0.93827000000E+00 0. -1.
     999902    2    1    2    0    0  0.13977804248E-01  0.86546210462E-02 -0.16520929869E-01  0.10206228637E+01  0.10203567060E+01 0.  0.
     999903    2    3    3    0    0 -0.85154974576E-01 -0.66152185492E-01 -0.69183268261E-01  0.13034386925E+00  0.23994130600E-01 0.  0.
         14    1    1    2    0    0 -0.13977804248E-01 -0.86546210462E-02  0.16520929869E-01  0.23307136263E-01  0.00000000000E+00 0.  1.
     999901    1    3    3    0    0  0.99132778824E-01  0.74806806538E-01  0.52662338392E-01  0.89027899449E+00  0.88000000000E+00 0. -1.
        -11    1    4    4    0    0 -0.58020888311E-02 -0.12028755496E-01 -0.30036017498E-02  0.13698099797E-01  0.51100000000E-03 0.  1.
         11    1    4    4    0    0 -0.79352885745E-01 -0.54123429996E-01 -0.66179666511E-01  0.11664576945E+00  0.51100000000E-03 0. -1.
</event>
<event>
 8    1  0.1075206E+005  0.1043930E+01  0.7957747E-01            NaN
         13   -1    0    0    0    0  0.00000000000E+00  0.00000000000E+00  0.74505805969E-08  0.10566000000E+00  0.10566000000E+00 0.  1.
     999900   -1    0    0    0    0 -0.00000000000E+00 -0.00000000000E+00 -0.74505805969E-08  0.93827000000E+00  0.93827000000E+00 0.  1.
     999902    2    1    2    0    0  0.38721114523E-03 -0.23420665191E-01  0.95840253790E-02  0.10186212854E+01  0.10183068261E+01 0.  0.
     999903    2    3    3    0    0  0.45032259430E-01 -0.12234181141E+00 -0.14147226724E-03  0.13190083410E+00  0.20059581576E-01 0.  0.
         14    1    1    2    0    0 -0.38721114523E-03  0.23420665191E-01 -0.95840253790E-02  0.25308714565E-01  0.00000000000E+00 0.  1.
     999901    1    3    3    0    0 -0.44645048285E-01  0.98921146223E-01  0.97254976462E-02  0.88672045133E+00  0.88000000000E+00 0.  1.
        -11    1    4    4    0    0  0.90671411943E-02 -0.91181442122E-02 -0.23436590542E-02  0.13080805100E-01  0.51100000000E-03 0. -1.
         11    1    4    4    0    0  0.35965118236E-01 -0.11322366720E+00  0.22021867870E-02  0.11882002900E+00  0.51100000000E-03 0.  1.
</event>
<event>
 8    1  0.1075206E+005  0.1043930E+01  0.7957747E-01            NaN
         13   -1    0    0    0    0  0.00000000000E+00  0.00000000000E+00  0.74505805969E-08  0.10566000000E+00  0.10566000000E+00 0.  1.
     999900   -1    0    0    0    0 -0.00000000000E+00 -0.00000000000E+00 -0.74505805969E-08  0.93827000000E+00  0.93827000000E+00 0.  1.
     999902    2    1    2    0    0 -0.32355914677E-01  0.24085977304E-02 -0.12054962775E-01  0.10093174490E+01  0.10087237899E+01 0.  0.
     999903    2    3    3    0    0 -0.33221907470E-01  0.49404758088E-01  0.10348645158E+00  0.12052095518E+00  0.16472089149E-01 0.  0.
         14    1    1    2    0    0  0.32355914677E-01 -0.24085977304E-02  0.12054962775E-01  0.34612550977E-01  0.00000000000E+00 0.  1.
     999901    1    3    3    0    0  0.86599279346E-03 -0.46996160357E-01 -0.11554141435E+00  0.88879649384E+00  0.88000000000E+00 0.  1.
        -11    1    4    4    0    0 -0.29549024143E-01  0.40486728129E-01  0.96008539441E-01  0.10830614363E+00  0.51100000000E-03 0.  1.
         11    1    4    4    0    0 -0.36728833276E-02  0.89180299585E-02  0.74779121345E-02  0.12214811549E-01  0.51100000000E-03 0. -1.
</event>
<event>
 8    1  0.1075206E+005  0.1043930E+01  0.7957747E-01            NaN
         13   -1    0    0    0    0  0.00000000000E+00  0.00000000000E+00  0.74505805969E-08  0.10566000000E+00  0.10566000000E+00 0. -1.
     999900   -1    0    0    0    0 -0.00000000000E+00 -0.00000000000E+00 -0.74505805969E-08  0.93827000000E+00  0.93827000000E+00 0. -1.
     999902    2    1    2    0    0 -0.15021840711E-01  0.14795737967E-01  0.10161550093E-01  0.10205243028E+01  0.10202558630E+01 0.  0.
     999903    2    3    3    0    0 -0.26482000192E-01 -0.12031601377E+00 -0.32955211260E-01  0.12909535118E+00  0.20058021883E-01 0.  0.
         14    1    1    2    0    0  0.15021840711E-01 -0.14795737967E-01 -0.10161550093E-01  0.23405697183E-01  0.00000000000E+00 0.  1.
     999901    1    3    3    0    0  0.11460159481E-01  0.13511175174E+00  0.43116761354E-01  0.89142895164E+00  0.88000000000E+00 0.  1.
        -11    1    4    4    0    0 -0.13678205792E-01 -0.53625207717E-01 -0.24970342717E-01  0.60716845709E-01  0.51100000000E-03 0. -1.
         11    1    4    4    0    0 -0.12803794400E-01 -0.66690806055E-01 -0.79848685430E-02  0.68378505468E-01  0.51100000000E-03 0.  1.
</event>
<event>
 7    1  0.1075206E+005  0.1043930E+01  0.7957747E-01            NaN
         13   -1    0    0    0    0  0.00000000000E+00  0.00000000000E+00  0.74505805969E-08  0.10566000000E+00  0.10566000000E+00 0. -1.
     999900   -1    0    0    0    0 -0.00000000000E+00 -0.00000000000E+00 -0.74505805969E-08  0.93827000000E+00  0.93827000000E+00 0. -1.
     999903    2    1    2    0    0  0.68906011891E-01  0.21474808050E-01 -0.79940261595E-01  0.10982205277E+00  0.21476312395E-01 0.  0.
         14    1    1    2    0    0  0.35165045439E-01 -0.26688869773E-01 -0.19149202996E-02  0.44187590002E-01  0.00000000000E+00 0. -1.
     999901    1    1    2    0    0 -0.10407105733E+00  0.52140617227E-02  0.81855181895E-01  0.88992035723E+00  0.88000000000E+00 0.  1.
        -11    1    3    3    0    0  0.54369118066E-01  0.93606138490E-02 -0.67462938091E-01  0.87150050073E-01  0.51100000000E-03 0. -1.
         11    1    3    3    0    0  0.14536893825E-01  0.12114194201E-01 -0.12477323505E-01  0.22672002692E-01  0.51100000000E-03 0.  1.
</event>
<event>
 8    1  0.1075206E+005  0.1043930E+01  0.7957747E-01            NaN
         13   -1    0    0    0    0  0.00000000000E+00  0.00000000000E+00  0.74505805969E-08  0.10566000000E+00  0.10566000000E+00 0. -1.
     999900   -1    0    0    0    0 -0.00000000000E+00 -0.00000000000E+00 -0.74505805969E-08  0.93827000000E+00  0.93827000000E+00 0. -1.
     999902    2    1    2    0    0  0.12941265949E-01  0.13987001684E-01 -0.98396936187E-02  0.10224839712E+01  0.10222590372E+01 0.  0.
     999903    2    3    3    0    0  0.84257147098E-01 -0.50200809911E-01 -0.89007406733E-01  0.13373566214E+00  0.18534312045E-01 0.  0.
         14    1    1    2    0    0 -0.12941265949E-01 -0.13987001684E-01  0.98396936187E-02  0.21446028793E-01  0.00000000000E+00 0. -1.
     999901    1    3    3    0    0 -0.71315881149E-01  0.64187811595E-01  0.79167713115E-01  0.88874830906E+00  0.88000000000E+00 0. -1.
        -11    1    4    4    0    0  0.46164974181E-01 -0.24795976295E-01 -0.35434844875E-01  0.63260845978E-01  0.51100000000E-03 0. -1.
         11    1    4    4    0    0  0.38092172918E-01 -0.25404833616E-01 -0.53572561858E-01  0.70474816167E-01  0.51100000000E-03 0.  1.
</event>
<event>
 8    1  0.1075206E+005  0.1043930E+01  0.7957747E-01            NaN
         13   -1    0    0    0    0  0.00000000000E+00  0.00000000000E+00  0.74505805969E-08  0.10566000000E+00  0.10566000000E+00 0.  1.
     999900   -1    0    0    0    0 -0.00000000000E+00 -0.00000000000E+00 -0.74505805969E-08  0.93827000000E+00  0.93827000000E+00 0.  1.
     999902    2    1    2    0    0  0.12874530827E-01 -0.45149662102E-02 -0.19191136320E-01  0.10203834891E+01  0.10201117716E+01 0.  0.
     999903    2    3    3    0    0  0.50299191772E-01 -0.11170876676E+00  0.42167592553E-01  0.13097019384E+00  0.19137098720E-01 0.  0.
         14    1    1    2    0    0 -0.12874530827E-01  0.45149662102E-02  0.19191136320E-01  0.23546510933E-01  0.00000000000E+00 0.  1.
     999901    1    3    3    0    0 -0.37424660945E-01  0.10719380055E+00 -0.61358728873E-01  0.88941329523E+00  0.88000000000E+00 0.  1.
        -11    1    4    4    0    0  0.60075618509E-02 -0.97095919599E-02 -0.14483267804E-02  0.11520666078E-01  0.51100000000E-03 0. -1.
         11    1    4    4    0    0  0.44291629921E-01 -0.10199917480E+00  0.43615919333E-01  0.11944952776E+00  0.51100000000E-03 0.  1.
</event>
<event>
 8    1  0.1075206E+005  0.1043930E+01  0.7957747E-01            NaN
         13   -1    0    0    0    0  0.00000000000E+00  0.00000000000E+00  0.74505805969E-08  0.10566000000E+00  0.10566000000E+00 0. -1.
     999900   -1    0    0    0    0 -0.00000000000E+00 -0.00000000000E+00 -0.74505805969E-08  0.93827000000E+00  0.93827000000E+00 0. -1.
     999902    2    1    2    0    0 -0.33753740066E-02  0.16980499022E-01  0.16360979978E-01  0.10201095852E+01  0.10198314339E+01 0.  0.
     999903    2    3    3    0    0  0.48222031410E-01 -0.73035483331E-01 -0.90569130936E-01  0.12758551382E+00  0.20389941624E-01 0.  0.
         14    1    1    2    0    0  0.33753740066E-02 -0.16980499022E-01 -0.16360979978E-01  0.23820414828E-01  0.00000000000E+00 0.  1.
     999901    1    3    3    0    0 -0.51597405417E-01  0.90015982353E-01  0.10693011091E+00  0.89252407135E+00  0.88000000000E+00 0.  1.
        -11    1    4    4    0    0  0.96075702327E-02 -0.17778706545E-01 -0.10062867219E-01  0.22581191950E-01  0.51100000000E-03 0.  1.
         11    1    4    4    0    0  0.38614461177E-01 -0.55256776786E-01 -0.80506263717E-01  0.10500432187E+00  0.51100000000E-03 0. -1.
</event>
<event>
 8    1  0.1075206E+005  0.1043930E+01  0.7957747E-01            NaN
         13   -1    0    0    0    0  0.00000000000E+00  0.00000000000E+00  0.74505805969E-08  0.10566000000E+00  0.10566000000E+00 0. -1.
     999900   -1    0    0    0    0 -0.00000000000E+00 -0.00000000000E+00 -0.74505805969E-08  0.93827000000E+00  0.93827000000E+00 0. -1.
     999902    2    1    2    0    0 -0.53967431878E-02  0.17924109829E-01 -0.14145568736E-01  0.10204673560E+01  0.10201975931E+01 0.  0.
     999903    2    3    3    0    0 -0.54438647422E-01 -0.91692424825E-01  0.69028011662E-01  0.12842546372E+00  0.18898842164E-01 0.  0.
         14    1    1    2    0    0  0.53967431878E-02 -0.17924109829E-01  0.14145568736E-01  0.23462644034E-01  0.00000000000E+00 0. -1.
     999901    1    3    3    0    0  0.49041904234E-01  0.10961653465E+00 -0.83173580398E-01  0.89204189224E+00  0.88000000000E+00 0. -1.
        -11    1    4    4    0    0 -0.24763246051E-01 -0.31606141528E-01  0.17098648499E-01  0.43643916400E-01  0.51100000000E-03 0.  1.
         11    1    4    4    0    0 -0.29675401371E-01 -0.60086283297E-01  0.51929363163E-01  0.84781547324E-01  0.51100000000E-03 0. -1.
</event>
<event>
 8    1  0.1075206E+005  0.1043930E+01  0.7957747E-01            NaN
         13   -1    0    0    0    0  0.00000000000E+00  0.00000000000E+00  0.74505805969E-08  0.10566000000E+00  0.10566000000E+00 0.  1.
     999900   -1    0    0    0    0 -0.00000000000E+00 -0.00000000000E+00 -0.74505805969E-08  0.93827000000E+00  0.93827000000E+00 0.  1.
     999902    2    1    2    0    0 -0.11018837308E-01 -0.35904209487E-02 -0.20082068766E-01  0.10207438967E+01  0.10204805277E+01 0.  0.
     999903    2    3    3    0    0  0.85715235871E-01 -0.61177458576E-01 -0.77150247255E-01  0.13173853972E+00  0.17694606492E-01 0.  0.
         14    1    1    2    0    0  0.11018837308E-01  0.35904209487E-02  0.20082068766E-01  0.23186103254E-01  0.00000000000E+00 0.  1.
     999901    1    3    3    0    0 -0.96734073179E-01  0.57587037627E-01  0.57068178489E-01  0.88900535702E+00  0.88000000000E+00 0. -1.
        -11    1    4    4    0    0  0.64322718853E-01 -0.50788494989E-01 -0.67070936616E-01  0.10590398974E+00  0.51100000000E-03 0.  1.
         11    1    4    4    0    0  0.21392517018E-01 -0.10388963587E-01 -0.10079310639E-01  0.25834549981E-01  0.51100000000E-03 0. -1.
</event>
<event>
 8    1  0.1075206E+005  0.1043930E+01  0.7957747E-01            NaN
         13   -1    0    0    0    0  0.00000000000E+00  0.00000000000E+00  0.74505805969E-08  0.10566000000E+00  0.10566000000E+00 0.  1.
     999900   -1    0    0    0    0 -0.00000000000E+00 -0.00000000000E+00 -0.74505805969E-08  0.93827000000E+00  0.93827000000E+00 0.  1.
     999902    2    1    2    0    0  0.53160570383E-02  0.13267406222E-01  0.18448280187E-01  0.10205928285E+01  0.10203259764E+01 0.  0.
     999903    2    3    3    0    0 -0.45453393673E-01  0.11488829225E+00  0.44837224274E-01  0.13289878328E+00  0.19656531345E-01 0.  0.
         14    1    1    2    0    0 -0.53160570383E-02 -0.13267406222E-01 -0.18448280187E-01  0.23337171468E-01  0.00000000000E+00 0. -1.
     999901    1    3    3    0    0  0.50769450712E-01 -0.10162088603E+00 -0.26388944087E-01  0.88769404525E+00  0.88000000000E+00 0. -1.
        -11    1    4    4    0    0 -0.21361960329E-01  0.30200464515E-01  0.11364646768E-01  0.38701650135E-01  0.51100000000E-03 0.  1.
         11    1    4    4    0    0 -0.24091433344E-01  0.84687827735E-01  0.33472577506E-01  0.94197133146E-01  0.51100000000E-03 0. -1.
</event>
<event>
 8    1  0.1075206E+005  0.1043930E+01  0.7957747E-01            NaN
         13   -1    0    0    0    0  0.00000000000E+00  0.00000000000E+00  0.74505805969E-08  0.10566000000E+00  0.10566000000E+00 0.  1.
     999900   -1    0    0    0    0 -0.00000000000E+00 -0.00000000000E+00 -0.74505805969E-08  0.93827000000E+00  0.93827000000E+00 0. -1.
     999902    2    1    2    0    0 -0.13495590760E-02  0.73130765267E-02 -0.23010030536E-01  0.10197481079E+01  0.10194613478E+01 0.  0.
     999903    2    3    3    0    0 -0.39178118341E-01 -0.11913395232E+00 -0.27164570830E-01  0.12989581054E+00  0.20178804083E-01 0.  0.
         14    1    1    2    0    0  0.13495590760E-02 -0.73130765267E-02  0.23010030536E-01  0.24181892053E-01  0.00000000000E+00 0.  1.
     999901    1    3    3    0    0  0.37828559265E-01  0.12644702885E+00  0.41545402936E-02  0.88985229741E+00  0.88000000000E+00 0.  1.
        -11    1    4    4    0    0 -0.15502944647E-01 -0.25406971968E-01 -0.11747829669E-01  0.32002002129E-01  0.51100000000E-03 0. -1.
         11    1    4    4    0    0 -0.23675173694E-01 -0.93726980354E-01 -0.15416741161E-01  0.97893808408E-01  0.51100000000E-03 0.  1.
</event>
<event>
 8    1  0.1075206E+005  0.1043930E+01  0.7957747E-01            NaN
         13   -1    0    0    0    0  0.00000000000E+00  0.00000000000E+00  0.74505805969E-08  0.10566000000E+00  0.10566000000E+00 0.  1.
     999900   -1    0    0    0    0 -0.00000000000E+00 -0.00000000000E+00 -0.74505805969E-08  0.93827000000E+00  0.93827000000E+00 0.  1.
     999902    2    1    2    0    0  0.39066528857E-02 -0.23234430736E-01  0.88631862476E-02  0.10187574598E+01  0.10184464174E+01 0.  0.
     999903    2    3    3    0    0  0.74190866811E-01  0.56749730215E-02 -0.10259121415E+00  0.12847789265E+00  0.21097906122E-01 0.  0.
         14    1    1    2    0    0 -0.39066528857E-02  0.23234430736E-01 -0.88631862476E-02  0.25172540175E-01  0.00000000000E+00 0.  1.
     999901    1    3    3    0    0 -0.70284213926E-01 -0.28909403758E-01  0.11145440040E+00  0.89027956717E+00  0.88000000000E+00 0. -1.
        -11    1    4    4    0    0  0.23757793445E-01  0.39138784022E-02 -0.50504668347E-01  0.55952960953E-01  0.51100000000E-03 0.  1.
         11    1    4    4    0    0  0.50433073366E-01  0.17610946193E-02 -0.52086545805E-01  0.72524931701E-01  0.51100000000E-03 0. -1.
</event>
<event>
 8    1  0.1075206E+005  0.1043930E+01  0.7957747E-01            NaN
         13   -1    0    0    0    0  0.00000000000E+00  0.00000000000E+00  0.74505805969E-08  0.10566000000E+00  0.10566000000E+00 0. -1.
     999900   -1    0    0    0    0 -0.00000000000E+00 -0.00000000000E+00 -0.74505805969E-08  0.93827000000E+00  0.93827000000E+00 0.  1.
     999902    2    1    2    0    0 -0.92207059318E-02  0.17967834871E-01 -0.11863223359E-01  0.10205077760E+01  0.10202389526E+01 0.  0.
     999903    2    3    3    0    0  0.16457437556E-01  0.81021558130E-01  0.99473273362E-01  0.13088372364E+00  0.20006920482E-01 0.  0.
         14    1    1    2    0    0  0.92207059318E-02 -0.17967834871E-01  0.11863223359E-01  0.23422223983E-01  0.00000000000E+00 0.  1.
     999901    1    3    3    0    0 -0.25678143488E-01 -0.63053723260E-01 -0.11133649672E+00  0.88962405238E+00  0.88000000000E+00 0.  1.
        -11    1    4    4    0    0 -0.21346262666E-02  0.21004905015E-01  0.16478822273E-01  0.26787597288E-01  0.51100000000E-03 0. -1.
         11    1    4    4    0    0  0.18592063823E-01  0.60016653115E-01  0.82994451089E-01  0.10409612635E+00  0.51100000000E-03 0.  1.
</event>
<event>
 8    1  0.1075206E+005  0.1043930E+01  0.7957747E-01            NaN
         13   -1    0    0    0    0  0.00000000000E+00  0.00000000000E+00  0.74505805969E-08  0.10566000000E+00  0.10566000000E+00 0.  1.
     999900   -1    0    0    0    0 -0.00000000000E+00 -0.00000000000E+00 -0.74505805969E-08  0.93827000000E+00  0.93827000000E+00 0. -1.
     999902    2    1    2    0    0 -0.23069203660E-02 -0.14496154420E-02 -0.23181319475E-01  0.10205891166E+01  0.10203221785E+01 0.  0.
     999903    2    3    3    0    0  0.26576280789E-01  0.10014849244E+00 -0.79445934797E-01  0.13248882845E+00  0.22485859281E-01 0.  0.
         14    1    1    2    0    0  0.23069203660E-02  0.14496154420E-02  0.23181319475E-01  0.23340883426E-01  0.00000000000E+00 0.  1.
     999901    1    3    3    0    0 -0.28883201155E-01 -0.10159810789E+00  0.56264615322E-01  0.88810028813E+00  0.88000000000E+00 0.  1.
        -11    1    4    4    0    0  0.29268448648E-01  0.91139486031E-01 -0.66828161055E-01  0.11674464541E+00  0.51100000000E-03 0.  1.
         11    1    4    4    0    0 -0.26921678591E-02  0.90090064143E-02 -0.12617773742E-01  0.15744183039E-01  0.51100000000E-03 0. -1.
</event>
<event>
 8    1  0.1075206E+005  0.1043930E+01  0.7957747E-01            NaN
         13   -1    0    0    0    0  0.00000000000E+00  0.00000000000E+00  0.74505805969E-08  0.10566000000E+00  0.10566000000E+00 0. -1.
     999900   -1    0    0    0    0 -0.00000000000E+00 -0.00000000000E+00 -0.74505805969E-08  0.93827000000E+00  0.93827000000E+00 0. -1.
     999902    2    1    2    0    0 -0.35955588664E-02 -0.43218972006E-02 -0.22592266021E-01  0.10206487345E+01  0.10203831741E+01 0.  0.
     999903    2    3    3    0    0  0.62815829501E-02  0.66828928681E-01 -0.11311765244E+00  0.13309319059E+00  0.20313298453E-01 0.  0.
         14    1    1    2    0    0  0.35955588664E-02  0.43218972006E-02  0.22592266021E-01  0.23281265493E-01  0.00000000000E+00 0. -1.
     999901    1    3    3    0    0 -0.98771418165E-02 -0.71150825882E-01  0.90525386420E-01  0.88755554392E+00  0.88000000000E+00 0.  1.
        -11    1    4    4    0    0  0.40800441549E-02  0.52983997932E-02 -0.22938757361E-01  0.23899111091E-01  0.51100000000E-03 0.  1.
         11    1    4    4    0    0  0.22015387952E-02  0.61530528888E-01 -0.90178895081E-01  0.10919407950E+00  0.51100000000E-03 0. -1.
</event>
<event>
 8    1  0.1075206E+005  0.1043930E+01  0.7957747E-01            NaN
         13   -1    0    0    0    0  0.00000000000E+00  0.00000000000E+00  0.74505805969E-08  0.10566000000E+00  0.10566000000E+00 0. -1.
     999900   -1    0    0    0    0 -0.00000000000E+00 -0.00000000000E+00 -0.74505805969E-08  0.93827000000E+00  0.93827000000E+00 0. -1.
     999902    2    1    2    0    0 -0.84947318519E-02  0.11202506403E-01 -0.18634999896E-01  0.10205864818E+01  0.10203194828E+01 0.  0.
     999903    2    3    3    0    0  0.45622807573E-01  0.14873822092E-01 -0.12228543012E+00  0.13284462842E+00  0.19781246844E-01 0.  0.
         14    1    1    2    0    0  0.84947318519E-02 -0.11202506403E-01  0.18634999896E-01  0.23343518160E-01  0.00000000000E+00 0. -1.
     999901    1    3    3    0    0 -0.54117539425E-01 -0.36713156895E-02  0.10365043022E+00  0.88774185342E+00  0.88000000000E+00 0.  1.
        -11    1    4    4    0    0  0.15614653452E-01  0.14931775222E-01 -0.58096641065E-01  0.61985934999E-01  0.51100000000E-03 0. -1.
         11    1    4    4    0    0  0.30008154122E-01 -0.57953130007E-04 -0.64188789050E-01  0.70858693419E-01  0.51100000000E-03 0.  1.
</event>
<event>
 8    1  0.1075206E+005  0.1043930E+01  0.7957747E-01            NaN
         13   -1    0    0    0    0  0.00000000000E+00  0.00000000000E+00  0.74505805969E-08  0.10566000000E+00  0.10566000000E+00 0. -1.
     999900   -1    0    0    0    0 -0.00000000000E+00 -0.00000000000E+00 -0.74505805969E-08  0.93827000000E+00  0.93827000000E+00 0. -1.
     999902    2    1    2    0    0  0.21818120328E-02 -0.21155307593E-01  0.18507921066E-01  0.10157369071E+01  0.10153455639E+01 0.  0.
     999903    2    3    3    0    0  0.72751119772E-01 -0.32022143451E-01  0.99840431922E-01  0.12910671780E+00  0.19552228409E-01 0.  0.
         14    1    1    2    0    0 -0.21818120328E-02  0.21155307593E-01 -0.18507921066E-01  0.28193092865E-01  0.00000000000E+00 0.  1.
     999901    1    3    3    0    0 -0.70569307739E-01  0.10866835858E-01 -0.81332510856E-01  0.88663018933E+00  0.88000000000E+00 0. -1.
        -11    1    4    4    0    0  0.28359137457E-01 -0.61311890263E-02  0.48128842745E-01  0.56200345027E-01  0.51100000000E-03 0.  1.
         11    1    4    4    0    0  0.44391982315E-01 -0.25890954425E-01  0.51711589177E-01  0.72906372774E-01  0.51100000000E-03 0. -1.
</event>
<event>
 8    1  0.1075206E+005  0.1043930E+01  0.7957747E-01            NaN
         13   -1    0    0    0    0  0.00000000000E+00  0.00000000000E+00  0.74505805969E-08  0.10566000000E+00  0.10566000000E+00 0.  1.
     999900   -1    0    0    0    0 -0.00000000000E+00 -0.00000000000E+00 -0.74505805969E-08  0.93827000000E+00  0.93827000000E+00 0. -1.
     999902    2    1    2    0    0  0.32403230357E-02  0.18441751507E-01  0.15778099505E-01  0.10194443651E+01  0.10191502673E+01 0.  0.
     999903    2    3    3    0    0  0.42674389906E-01  0.11087645898E+00  0.56130664387E-01  0.13280602268E+00  0.19289776207E-01 0.  0.
         14    1    1    2    0    0 -0.32403230357E-02 -0.18441751507E-01 -0.15778099505E-01  0.24485634891E-01  0.00000000000E+00 0.  1.
     999901    1    3    3    0    0 -0.39434066870E-01 -0.92434707470E-01 -0.40352564882E-01  0.88663834243E+00  0.88000000000E+00 0. -1.
        -11    1    4    4    0    0  0.10781787459E-01  0.18789934106E-01  0.31979279181E-02  0.21904255945E-01  0.51100000000E-03 0. -1.
         11    1    4    4    0    0  0.31892602447E-01  0.92086524871E-01  0.52932736469E-01  0.11090176673E+00  0.51100000000E-03 0.  1.
</event>
<event>
 8    1  0.1075206E+005  0.1043930E+01  0.7957747E-01            NaN
         13   -1    0    0    0    0  0.00000000000E+00  0.00000000000E+00  0.74505805969E-08  0.10566000000E+00  0.10566000000E+00 0. -1.
     999900   -1    0    0    0    0 -0.00000000000E+00 -0.00000000000E+00 -0.74505805969E-08  0.93827000000E+00  0.93827000000E+00 0. -1.
     999902    2    1    2    0    0  0.20180532478E-01 -0.92831389153E-02 -0.73459946670E-02  0.10205335431E+01  0.10202653176E+01 0.  0.
     999903    2    3    3    0    0  0.11757063820E+00 -0.28338289701E-01 -0.53643650584E-01  0.13374641844E+00  0.19609935444E-01 0.  0.
         14    1    1    2    0    0 -0.20180532478E-01  0.92831389153E-02  0.73459946670E-02  0.23396456930E-01  0.00000000000E+00 0. -1.
     999901    1    3    3    0    0 -0.97390105722E-01  0.19055150786E-01  0.46297655917E-01  0.88678712463E+00  0.88000000000E+00 0.  1.
        -11    1    4    4    0    0  0.65043107108E-01 -0.10219361694E-01 -0.37989341735E-01  0.76016395219E-01  0.51100000000E-03 0. -1.
         11    1    4    4    0    0  0.52527531091E-01 -0.18118928007E-01 -0.15654308849E-01  0.57730023222E-01  0.51100000000E-03 0.  1.
</event>
<event>
 8    1  0.1075206E+005  0.1043930E+01  0.7957747E-01            NaN
         13   -1    0    0    0    0  0.00000000000E+00  0.00000000000E+00  0.74505805969E-08  0.10566000000E+00  0.10566000000E+00 0.  1.
     999900   -1    0    0    0    0 -0.00000000000E+00 -0.00000000000E+00 -0.74505805969E-08  0.93827000000E+00  0.93827000000E+00 0.  1.
     999902    2    1    2    0    0  0.12113776010E-01 -0.14880064011E-01  0.49204066814E-02  0.10241216615E+01  0.10239300792E+01 0.  0.
     999903    2    3    3    0    0 -0.59845057660E-01 -0.10364030244E+00  0.59557085585E-01  0.13505382357E+00  0.19228770180E-01 0.  0.
         14    1    1    2    0    0 -0.12113776010E-01  0.14880064011E-01 -0.49204066814E-02  0.19808338550E-01  0.00000000000E+00 0.  1.
     999901    1    3    3    0    0  0.71958833669E-01  0.88760238425E-01 -0.54636678904E-01  0.88906783788E+00  0.88000000000E+00 0. -1.
        -11    1    4    4    0    0 -0.47690054369E-01 -0.94544579799E-01  0.54109974582E-01  0.11891664865E+00  0.51100000000E-03 0.  1.
         11    1    4    4    0    0 -0.12155003290E-01 -0.90957226369E-02  0.54471110029E-02  0.16137174925E-01  0.51100000000E-03 0. -1.
</event>
<event>
 8    1  0.1075206E+005  0.1043930E+01  0.7957747E-01            NaN
         13   -1    0    0    0    0  0.00000000000E+00  0.00000000000E+00  0.74505805969E-08  0.10566000000E+00  0.10566000000E+00 0.  1.
     999900   -1    0    0    0    0 -0.00000000000E+00 -0.00000000000E+00 -0.74505805969E-08  0.93827000000E+00  0.93827000000E+00 0.  1.
     999902    2    1    2    0    0 -0.23285680690E-01  0.51460032741E-02  0.10517942883E-02  0.10200592952E+01  0.10197799543E+01 0.  0.
     999903    2    3    3    0    0 -0.24030290568E-01  0.61160549273E-01 -0.11160176890E+00  0.13111103515E+00  0.20422562629E-01 0.  0.
         14    1    1    2    0    0  0.23285680690E-01 -0.51460032741E-02 -0.10517942883E-02  0.23870704768E-01  0.00000000000E+00 0. -1.
     999901    1    3    3    0    0  0.74460987750E-03 -0.56014545999E-01  0.11265356319E+00  0.88894826008E+00  0.88000000000E+00 0. -1.
        -11    1    4    4    0    0 -0.89154809822E-02  0.39810348845E-01 -0.52601560360E-01  0.66569775046E-01  0.51100000000E-03 0.  1.
         11    1    4    4    0    0 -0.15114809586E-01  0.21350200428E-01 -0.59000208538E-01  0.64541260102E-01  0.51100000000E-03 0. -1.
</event>
<event>
 8    1  0.1075206E+005  0.1043930E+01  0.7957747E-01            NaN
         13   -1    0    0    0    0  0.00000000000E+00  0.00000000000E+00  0.74505805969E-08  0.10566000000E+00  0.10566000000E+00 0.  1.
     999900   -1    0    0    0    0 -0.00000000000E+00 -0.00000000000E+00 -0.74505805969E-08  0.93827000000E+00  0.93827000000E+00 0. -1.
     999902    2    1    2    0    0  0.76238896124E-02 -0.73209416863E-02  0.22423735274E-01  0.10191400064E+01  0.10188384606E+01 0.  0.
     999903    2    3    3    0    0 -0.10689208635E+00  0.62664055743E-01 -0.24007059688E-01  0.12775477690E+00  0.19805102856E-01 0.  0.
         14    1    1    2    0    0 -0.76238896124E-02  0.73209416863E-02 -0.22423735274E-01  0.24789993619E-01  0.00000000000E+00 0. -1.
     999901    1    3    3    0    0  0.11451597596E+00 -0.69984997430E-01  0.46430794962E-01  0.89138522948E+00  0.88000000000E+00 0. -1.
        -11    1    4    4    0    0 -0.10390511631E+00  0.57123310929E-01 -0.25457012487E-01  0.12127516833E+00  0.51100000000E-03 0. -1.
         11    1    4    4    0    0 -0.29869700377E-02  0.55407448143E-02  0.14499527990E-02  0.64796085701E-02  0.51100000000E-03 0.  1.
</event>
<event>
 8    1  0.1075206E+005  0.1043930E+01  0.7957747E-01            NaN
         13   -1    0    0    0    0  0.00000000000E+00  0.00000000000E+00  0.74505805969E-08  0.10566000000E+00  0.10566000000E+00 0. -1.
     999900   -1    0    0    0    0 -0.00000000000E+00 -0.00000000000E+00 -0.74505805969E-08  0.93827000000E+00  0.93827000000E+00 0.  1.
     999902    2    1    2    0    0  0.20785957663E-01 -0.19769404468E-03 -0.38119671424E-03  0.10231396073E+01  0.10229283531E+01 0.  0.
     999903    2    3    3    0    0  0.63582709575E-01 -0.43091631726E-01  0.10839496743E+00  0.13437433694E+00  0.20182759536E-01 0.  0.
         14    1    1    2    0    0 -0.20785957663E-01  0.19769404468E-03  0.38119671424E-03  0.20790392729E-01  0.00000000000E+00 0. -1.
     999901    1    3    3    0    0 -0.42796751912E-01  0.42893937682E-01 -0.10877616414E+00  0.88876527033E+00  0.88000000000E+00 0.  1.
        -11    1    4    4    0    0  0.28508645901E-01 -0.29964274799E-01  0.65080458576E-01  0.77112436512E-01  0.51100000000E-03 0. -1.
         11    1    4    4    0    0  0.35074063673E-01 -0.13127356928E-01  0.43314508851E-01  0.57261900426E-01  0.51100000000E-03 0.  1.
</event>
<event>
 8    1  0.1075206E+005  0.1043930E+01  0.7957747E-01            NaN
         13   -1    0    0    0    0  0.00000000000E+00  0.00000000000E+00  0.74505805969E-08  0.10566000000E+00  0.10566000000E+00 0. -1.
     999900   -1    0    0    0    0 -0.00000000000E+00 -0.00000000000E+00 -0.74505805969E-08  0.93827000000E+00  0.93827000000E+00 0. -1.
     999902    2    1    2    0    0 -0.97384076175E-02  0.10836248469E-01 -0.18864061633E-01  0.10200948645E+01  0.10198163653E+01 0.  0.
     999903    2    3    3    0    0 -0.87730370396E-01 -0.61347843824E-01 -0.74286252111E-01  0.13197048770E+00  0.20918569256E-01 0.  0.
         14    1    1    2    0    0  0.97384076175E-02 -0.10836248469E-01  0.18864061633E-01  0.23835135517E-01  0.00000000000E+00 0. -1.
     999901    1    3    3    0    0  0.77991962778E-01  0.72184092293E-01  0.55422190478E-01  0.88812437678E+00  0.88000000000E+00 0.  1.
        -11    1    4    4    0    0 -0.31048455579E-01 -0.31899901831E-01 -0.37840215172E-01  0.58427333808E-01  0.51100000000E-03 0.  1.
         11    1    4    4    0    0 -0.56681914817E-01 -0.29447941992E-01 -0.36446036938E-01  0.73543153892E-01  0.51100000000E-03 0. -1.
</event>
<event>
 8    1  0.1075206E+005  0.1043930E+01  0.7957747E-01            NaN
         13   -1    0    0    0    0  0.00000000000E+00  0.00000000000E+00  0.74505805969E-08  0.10566000000E+00  0.10566000000E+00 0. -1.
     999900   -1    0    0    0    0 -0.00000000000E+00 -0.00000000000E+00 -0.74505805969E-08  0.93827000000E+00  0.93827000000E+00 0.  1.
     999902    2    1    2    0    0 -0.83001025629E-02 -0.20652135238E-02  0.21412454493E-01  0.10208724629E+01  0.10206120397E+01 0.  0.
     999903    2    3    3    0    0 -0.12436510810E+00 -0.31715821338E-01 -0.22383913706E-01  0.13167711546E+00  0.19111507175E-01 0.  0.
         14    1    1    2    0    0  0.83001025629E-02  0.20652135238E-02 -0.21412454493E-01  0.23057537094E-01  0.00000000000E+00 0.  1.
     999901    1    3    3    0    0  0.11606500554E+00  0.29650607815E-01  0.43796368199E-01  0.88919534745E+00  0.88000000000E+00 0. -1.
        -11    1    4    4    0    0 -0.94819098397E-01 -0.16351852962E-01 -0.20070290848E-01  0.98291007788E-01  0.51100000000E-03 0. -1.
         11    1    4    4    0    0 -0.29546009704E-01 -0.15363968376E-01 -0.23136228580E-02  0.33386107671E-01  0.51100000000E-03 0.  1.
</event>
<event>
 8    1  0.1075206E+005  0.1043930E+01  0.7957747E-01            NaN
         13   -1    0    0    0    0  0.00000000000E+00  0.00000000000E+00  0.74505805969E-08  0.10566000000E+00  0.10566000000E+00 0.  1.
     999900   -1    0    0    0    0 -0.00000000000E+00 -0.00000000000E+00 -0.74505805969E-08  0.93827000000E+00  0.93827000000E+00 0.  1.
     999902    2    1    2    0    0 -0.63449681323E-02  0.14537445467E-01 -0.18204113952E-01  0.10197849031E+01  0.10194990254E+01 0.  0.
     999903    2    3    3    0    0  0.32439635300E-01 -0.99025962502E-01  0.70061222940E-01  0.12726506419E+00  0.20720772531E-01 0.  0.
         14    1    1    2    0    0  0.63449681323E-02 -0.14537445467E-01  0.18204113952E-01  0.24145096937E-01  0.00000000000E+00 0. -1.
     999901    1    3    3    0    0 -0.38784603432E-01  0.11356340797E+00 -0.88265336893E-01  0.89251983888E+00  0.88000000000E+00 0.  1.
        -11    1    4    4    0    0  0.23718062768E-01 -0.40241810248E-01  0.28098887685E-01  0.54513836809E-01  0.51100000000E-03 0. -1.
         11    1    4    4    0    0  0.87215725326E-02 -0.58784152254E-01  0.41962335255E-01  0.72751227376E-01  0.51100000000E-03 0.  1.
</event>
<event>
 8    1  0.1075206E+005  0.1043930E+01  0.7957747E-01            NaN
         13   -1    0    0    0    0  0.00000000000E+00  0.00000000000E+00  0.74505805969E-08  0.10566000000E+00  0.10566000000E+00 0. -1.
     999900   -1    0    0    0    0 -0.00000000000E+00 -0.00000000000E+00 -0.74505805969E-08  0.93827000000E+00  0.93827000000E+00 0.  1.
     999902    2    1    2    0    0  0.10569271279E-01  0.16080049577E-01 -0.14090860806E-01  0.10200798460E+01  0.10198009915E+01 0.  0.
     999903    2    3    3    0    0  0.12209349498E+00 -0.72208430402E-03 -0.46872854563E-01  0.13227658887E+00  0.19816370674E-01 0.  0.
         14    1    1    2    0    0 -0.10569271279E-01 -0.16080049577E-01  0.14090860806E-01  0.23850154046E-01  0.00000000000E+00 0. -1.
     999901    1    3    3    0    0 -0.11152422370E+00  0.16802133881E-01  0.32781993757E-01  0.88780325708E+00  0.88000000000E+00 0. -1.
        -11    1    4    4    0    0  0.72286923877E-01  0.90288384606E-02 -0.30077440974E-01  0.78815181686E-01  0.51100000000E-03 0. -1.
         11    1    4    4    0    0  0.49806571100E-01 -0.97509227647E-02 -0.16795413588E-01  0.53461407184E-01  0.51100000000E-03 0.  1.
</event>
<event>
 8    1  0.1075206E+005  0.1043930E+01  0.7957747E-01            NaN
         13   -1    0    0    0    0  0.00000000000E+00  0.00000000000E+00  0.74505805969E-08  0.10566000000E+00  0.10566000000E+00 0.  1.
     999900   -1    0    0    0    0 -0.00000000000E+00 -0.00000000000E+00 -0.74505805969E-08  0.93827000000E+00  0.93827000000E+00 0.  1.
     999902    2    1    2    0    0  0.12022642691E-01  0.19309112592E-01 -0.69793160981E-02  0.10201372150E+01  0.10198597162E+01 0.  0.
     999903    2    3    3    0    0 -0.10985223141E+00  0.30206043782E-01 -0.59675907563E-01  0.13010959809E+00  0.19681863385E-01 0.  0.
         14    1    1    2    0    0 -0.12022642691E-01 -0.19309112592E-01  0.69793160981E-02  0.23792785032E-01  0.00000000000E+00 0.  1.
     999901    1    3    3    0    0  0.12187487410E+00 -0.10896931190E-01  0.52696591465E-01  0.89002761687E+00  0.88000000000E+00 0. -1.
        -11    1    4    4    0    0 -0.27701652514E-01  0.16370955387E-01 -0.13929026468E-01  0.35066631313E-01  0.51100000000E-03 0.  1.
         11    1    4    4    0    0 -0.82150578896E-01  0.13835088395E-01 -0.45746881095E-01  0.95042966782E-01  0.51100000000E-03 0. -1.
</event>
<event>
 8    1  0.1075206E+005  0.1043930E+01  0.7957747E-01            NaN
         13   -1    0    0    0    0  0.00000000000E+00  0.00000000000E+00  0.74505805969E-08  0.10566000000E+00  0.10566000000E+00 0. -1.
     999900   -1    0    0    0    0 -0.00000000000E+00 -0.00000000000E+00 -0.74505805969E-08  0.93827000000E+00  0.93827000000E+00 0. -1.
     999902    2    1    2    0    0 -0.14359823126E-01 -0.15622035479E-01 -0.73661867211E-02  0.10214686283E+01  0.10212216436E+01 0.  0.
     999903    2    3    3    0    0  0.34770130758E-01 -0.12132702396E+00  0.36448346503E-01  0.13270149889E+00  0.18761586032E-01 0.  0.
         14    1    1    2    0    0  0.14359823126E-01  0.15622035479E-01  0.73661867211E-02  0.22461371719E-01  0.00000000000E+00 0. -1.
     999901    1    3    3    0    0 -0.49129953884E-01  0.10570498848E+00 -0.43814533224E-01  0.88876712939E+00  0.88000000000E+00 0. -1.
        -11    1    4    4    0    0  0.17744616788E-01 -0.37580283708E-01  0.17886884042E-01  0.45247661710E-01  0.51100000000E-03 0.  1.
         11    1    4    4    0    0  0.17025513971E-01 -0.83746740250E-01  0.18561462462E-01  0.87453837183E-01  0.51100000000E-03 0. -1.
</event>
<event>
 8    1  0.1075206E+005  0.1043930E+01  0.7957747E-01            NaN
         13   -1    0    0    0    0  0.00000000000E+00  0.00000000000E+00  0.74505805969E-08  0.10566000000E+00  0.10566000000E+00 0.  1.
     999900   -1    0    0    0    0 -0.00000000000E+00 -0.00000000000E+00 -0.74505805969E-08  0.93827000000E+00  0.93827000000E+00 0. -1.
     999902    2    1    2    0    0 -0.20744045516E-01 -0.80069455072E-02  0.64193093168E-02  0.10207862291E+01  0.10205238318E+01 0.  0.
     999903    2    3    3    0    0  0.24116544208E-02  0.89073196987E-01  0.93739151808E-01  0.13085055982E+00  0.19874353474E-01 0.  0.
         14    1    1    2    0    0  0.20744045516E-01  0.80069455072E-02 -0.64193093168E-02  0.23143770929E-01  0.00000000000E+00 0. -1.
     999901    1    3    3    0    0 -0.23155699936E-01 -0.97080142494E-01 -0.87319842491E-01  0.88993566925E+00  0.88000000000E+00 0. -1.
        -11    1    4    4    0    0  0.89052706677E-02  0.19940858757E-01  0.21539342986E-01  0.30678104748E-01  0.51100000000E-03 0.  1.
         11    1    4    4    0    0 -0.64936162468E-02  0.69132338230E-01  0.72199808821E-01  0.10017245508E+00  0.51100000000E-03 0. -1.
</event>
<event>
 8    1  0.1075206E+005  0.1043930E+01  0.7957747E-01            NaN
         13   -1    0    0    0    0  0.00000000000E+00  0.00000000000E+00  0.74505805969E-08  0.10566000000E+00  0.10566000000E+00 0. -1.
     999900   -1    0    0    0    0 -0.00000000000E+00 -0.00000000000E+00 -0.74505805969E-08  0.93827000000E+00  0.93827000000E+00 0.  1.
     999902    2    1    2    0    0  0.87853626413E-02  0.80916722313E-03 -0.22308738736E-01  0.10199400610E+01  0.10196578891E+01 0.  0.
     999903    2    3    3    0    0 -0.50209988978E-01  0.11852968784E+00 -0.43588457487E-02  0.12996209997E+00  0.17344105647E-01 0.  0.
         14    1    1    2    0    0 -0.87853626413E-02 -0.80916722313E-03  0.22308738736E-01  0.23989938981E-01  0.00000000000E+00 0. -1.
     999901    1    3    3    0    0  0.58995351619E-01 -0.11772052062E+00 -0.17949892987E-01  0.88997796104E+00  0.88000000000E+00 0. -1.
        -11    1    4    4    0    0 -0.35092839922E-01  0.62547261060E-01  0.97181105948E-03  0.71727768804E-01  0.51100000000E-03 0. -1.
         11    1    4    4    0    0 -0.15117149056E-01  0.55982426780E-01 -0.53306568082E-02  0.58234331170E-01  0.51100000000E-03 0.  1.
</event>
<event>
 8    1  0.1075206E+005  0.1043930E+01  0.7957747E-01            NaN
         13   -1    0    0    0    0  0.00000000000E+00  0.00000000000E+00  0.74505805969E-08  0.10566000000E+00  0.10566000000E+00 0.  1.
     999900   -1    0    0    0    0 -0.00000000000E+00 -0.00000000000E+00 -0.74505805969E-08  0.93827000000E+00  0.93827000000E+00 0. -1.
     999902    2    1    2    0    0  0.16228351432E-02 -0.21781182569E-01  0.68917239737E-02  0.10210269572E+01  0.10207700515E+01 0.  0.
     999903    2    3    3    0    0 -0.41545171825E-01 -0.15060671506E-01  0.12312972749E+00  0.13230882670E+00  0.19795724361E-01 0.  0.
         14    1    1    2    0    0 -0.16228351432E-02  0.21781182569E-01 -0.68917239737E-02  0.22903042753E-01  0.00000000000E+00 0. -1.
     999901    1    3    3    0    0  0.43168006969E-01 -0.67205110634E-02 -0.11623800352E+00  0.88871813054E+00  0.88000000000E+00 0. -1.
        -11    1    4    4    0    0 -0.33203561312E-01 -0.19556391143E-01  0.91457443092E-01  0.99245422747E-01  0.51100000000E-03 0. -1.
         11    1    4    4    0    0 -0.83416105137E-02  0.44957196373E-02  0.31672284401E-01  0.33063403957E-01  0.51100000000E-03 0.  1.
</event>
<event>
 8    1  0.1075206E+005  0.1043930E+01  0.7957747E-01            NaN
         13   -1    0    0    0    0  0.00000000000E+00  0.00000000000E+00  0.74505805969E-08  0.10566000000E+00  0.10566000000E+00 0.  1.
     999900   -1    0    0    0    0 -0.00000000000E+00 -0.00000000000E+00 -0.74505805969E-08  0.93827000000E+00  0.93827000000E+00 0.  1.
     999902    2    1    2    0    0  0.15215168654E-01  0.56035410545E-02 -0.16896640257E-01  0.10205121119E+01  0.10202433892E+01 0.  0.
     999903    2    3    3    0    0  0.78138324617E-01 -0.32811489100E-01  0.96383781913E-01  0.13019335320E+00  0.21869709912E-01 0.  0.
         14    1    1    2    0    0 -0.15215168654E-01 -0.56035410545E-02  0.16896640257E-01  0.23417888067E-01  0.00000000000E+00 0.  1.
     999901    1    3    3    0    0 -0.62923155963E-01  0.38415030154E-01 -0.11328042217E+00  0.89031875873E+00  0.88000000000E+00 0.  1.
        -11    1    4    4    0    0  0.39793170446E-01 -0.21002706495E-01  0.65917790444E-01  0.79812444595E-01  0.51100000000E-03 0. -1.
         11    1    4    4    0    0  0.38345154172E-01 -0.11808782605E-01  0.30465991469E-01  0.50380908609E-01  0.51100000000E-03 0.  1.
</event>
<event>
 8    1  0.1075206E+005  0.1043930E+01  0.7957747E-01            NaN
         13   -1    0    0    0    0  0.00000000000E+00  0.00000000000E+00  0.74505805969E-08  0.10566000000E+00  0.10566000000E+00 0.  1.
     999900   -1    0    0    0    0 -0.00000000000E+00 -0.00000000000E+00 -0.74505805969E-08  0.93827000000E+00  0.93827000000E+00 0. -1.
     999902    2    1    2    0    0  0.34494528762E-02 -0.25179349308E-01  0.73821723392E-02  0.10174650264E+01  0.10171207820E+01 0.  0.
     999903    2    3    3    0    0 -0.84362316383E-01 -0.87789547192E-01 -0.39920593967E-01  0.12962016646E+00  0.19588994604E-01 0.  0.
         14    1    1    2    0    0 -0.34494528762E-02  0.25179349308E-01 -0.73821723392E-02  0.26464973553E-01  0.00000000000E+00 0. -1.
     999901    1    3    3    0    0  0.87811769259E-01  0.62610197885E-01  0.47302766306E-01  0.88784485998E+00  0.88000000000E+00 0.  1.
        -11    1    4    4    0    0 -0.59760949531E-01 -0.73504832060E-01 -0.28140641167E-01  0.98825544426E-01  0.51100000000E-03 0. -1.
         11    1    4    4    0    0 -0.24601366852E-01 -0.14284715133E-01 -0.11779952801E-01  0.30794622037E-01  0.51100000000E-03 0.  1.
</event>
<event>
 8    1  0.1075206E+005  0.1043930E+01  0.7957747E-01            NaN
         13   -1    0    0    0    0  0.00000000000E+00  0.00000000000E+00  0.74505805969E-08  0.10566000000E+00  0.10566000000E+00 0. -1.
     999900   -1    0    0    0    0 -0.00000000000E+00 -0.00000000000E+00 -0.74505805969E-08  0.93827000000E+00  0.93827000000E+00 0.  1.
     999902    2    1    2    0    0  0.97321846268E-03  0.15835172955E-01 -0.17736556115E-01  0.10201332507E+01  0.10198556583E+01 0.  0.
     999903    2    3    3    0    0 -0.61864855521E-01  0.70354252096E-01  0.87709331864E-01  0.12994237852E+00  0.20374339335E-01 0.  0.
         14    1    1    2    0    0 -0.97321846268E-03 -0.15835172955E-01  0.17736556115E-01  0.23796749348E-01  0.00000000000E+00 0. -1.
     999901    1    3    3    0    0  0.62838073983E-01 -0.54519079141E-01 -0.10544588798E+00  0.89019087213E+00  0.88000000000E+00 0.  1.
        -11    1    4    4    0    0 -0.45102118951E-01  0.37146998079E-01  0.58031889674E-01  0.82353275225E-01  0.51100000000E-03 0.  1.
         11    1    4    4    0    0 -0.16762736569E-01  0.33207254018E-01  0.29677442191E-01  0.47589103297E-01  0.51100000000E-03 0. -1.
</event>
<event>
 8    1  0.1075206E+005  0.1043930E+01  0.7957747E-01            NaN
         13   -1    0    0    0    0  0.00000000000E+00  0.00000000000E+00  0.74505805969E-08  0.10566000000E+00  0.10566000000E+00 0. -1.
     999900   -1    0    0    0    0 -0.00000000000E+00 -0.00000000000E+00 -0.74505805969E-08  0.93827000000E+00  0.93827000000E+00 0. -1.
     999902    2    1    2    0    0  0.20328143864E-01  0.66141630237E-02 -0.12093891239E-01  0.10193689986E+01  0.10190730653E+01 0.  0.
     999903    2    3    3    0    0 -0.11972761949E+00  0.27324266526E-01 -0.31593556749E-01  0.12783954747E+00  0.16232025737E-01 0.  0.
         14    1    1    2    0    0 -0.20328143864E-01 -0.66141630237E-02  0.12093891239E-01  0.24561001420E-01  0.00000000000E+00 0.  1.
     999901    1    3    3    0    0  0.14005576336E+00 -0.20710103502E-01  0.19499665509E-01  0.89152945111E+00  0.88000000000E+00 0.  1.
        -11    1    4    4    0    0 -0.64181834541E-01  0.87599789791E-02 -0.10702631452E-01  0.65657083074E-01  0.51100000000E-03 0. -1.
         11    1    4    4    0    0 -0.55545784951E-01  0.18564287546E-01 -0.20890925296E-01  0.62182464399E-01  0.51100000000E-03 0.  1.
</event>
<event>
 8    1  0.1075206E+005  0.1043930E+01  0.7957747E-01            NaN
         13   -1    0    0    0    0  0.00000000000E+00  0.00000000000E+00  0.74505805969E-08  0.10566000000E+00  0.10566000000E+00 0. -1.
     999900   -1    0    0    0    0 -0.00000000000E+00 -0.00000000000E+00 -0.74505805969E-08  0.93827000000E+00  0.93827000000E+00 0.  1.
     999902    2    1    2    0    0 -0.11167388825E-01 -0.14962256900E-01  0.12839178912E-01  0.10212711337E+01  0.10210197375E+01 0.  0.
     999903    2    3    3    0    0 -0.22112561764E-02  0.39533079384E-01 -0.12152127009E+00  0.12936156196E+00  0.19981006205E-01 0.  0.
         14    1    1    2    0    0  0.11167388825E-01  0.14962256900E-01 -0.12839178912E-01  0.22658866252E-01  0.00000000000E+00 0.  1.
     999901    1    3    3    0    0 -0.89561326482E-02 -0.54495336284E-01  0.13436044900E+00  0.89190957179E+00  0.88000000000E+00 0. -1.
        -11    1    4    4    0    0 -0.10784716680E-01  0.26043460137E-01 -0.82793616996E-01  0.87462083591E-01  0.51100000000E-03 0. -1.
         11    1    4    4    0    0  0.85734605032E-02  0.13489619247E-01 -0.38727653095E-01  0.41899478370E-01  0.51100000000E-03 0.  1.
</event>
<event>
 8    1  0.1075206E+005  0.1043930E+01  0.7957747E-01            NaN
         13   -1    0    0    0    0  0.00000000000E+00  0.00000000000E+00  0.74505805969E-08  0.10566000000E+00  0.10566000000E+00 0.  1.
     999900   -1    0    0    0    0 -0.00000000000E+00 -0.00000000000E+00 -0.74505805969E-08  0.93827000000E+00  0.93827000000E+00 0.  1.
     999902    2    1    2    0    0 -0.20483226764E-02  0.24300067759E-02  0.22630778628E-01  0.10210771512E+01  0.10208213830E+01 0.  0.
     999903    2    3    3    0    0 -0.11073496477E+00  0.68444007886E-01  0.61971217851E-02  0.13178490471E+00  0.19545898630E-01 0.  0.
         14    1    1    2    0    0  0.20483226764E-02 -0.24300067759E-02 -0.22630778628E-01  0.22852848838E-01  0.00000000000E+00 0. -1.
     999901    1    3    3    0    0  0.10868664210E+00 -0.66014001110E-01  0.16433656843E-01  0.88929224645E+00  0.88000000000E+00 0. -1.
        -11    1    4    4    0    0 -0.60159328373E-01  0.42251352405E-01  0.12163367897E-01  0.74515301851E-01  0.51100000000E-03 0. -1.
         11    1    4    4    0    0 -0.50575636401E-01  0.26192655481E-01 -0.59662461119E-02  0.57269602864E-01  0.51100000000E-03 0.  1.
</event>
<event>
 7    1  0.2381017E+005  0.1043930E+01  0.7957747E-01            NaN
         13   -1    0    0    0    0  0.00000000000E+00  0.00000000000E+00  0.74505805969E-08  0.10566000000E+00  0.10566000000E+00 0. -1.
     999900   -1    0    0    0    0 -0.00000000000E+00 -0.00000000000E+00 -0.74505805969E-08  0.93827000000E+00  0.93827000000E+00 0. -1.
     999903    2    1    2    0    0  0.68654953100E-01 -0.71684230877E-01  0.49566474956E-01  0.11262178630E+00  0.19357163208E-01 0.  0.
         14    1    1    2    0    0 -0.57821975463E-02 -0.25508460613E-01 -0.34891116908E-01  0.43606254258E-01  0.00000000000E+00 0.  1.
     999901    1    1    2    0    0 -0.62872755554E-01  0.97192691490E-01 -0.14675358048E-01  0.88770195945E+00  0.88000000000E+00 0. -1.
        -11    1    3    3    0    0  0.43907010619E-01 -0.31913556982E-01  0.26378469128E-01  0.60352178546E-01  0.51100000000E-03 0. -1.
         11    1    3    3    0    0  0.24747942481E-01 -0.39770673894E-01  0.23188005828E-01  0.52269607750E-01  0.51100000000E-03 0.  1.
</event>
<event>
 8    1  0.1075206E+005  0.1043930E+01  0.7957747E-01            NaN
         13   -1    0    0    0    0  0.00000000000E+00  0.00000000000E+00  0.74505805969E-08  0.10566000000E+00  0.10566000000E+00 0. -1.
     999900   -1    0    0    0    0 -0.00000000000E+00 -0.00000000000E+00 -0.74505805969E-08  0.93827000000E+00  0.93827000000E+00 0. -1.
     999902    2    1    2    0    0 -0.14557322499E-01 -0.13281009269E-01  0.12773141796E-01  0.10204469423E+01  0.10201767044E+01 0.  0.
     999903    2    3    3    0    0 -0.32690415375E-01  0.10892958131E+00  0.61647781925E-01  0.13047336523E+00  0.16986261404E-01 0.  0.
         14    1    1    2    0    0  0.14557322499E-01  0.13281009269E-01 -0.12773141796E-01  0.23483057657E-01  0.00000000000E+00 0. -1.
     999901    1    3    3    0    0  0.18133092876E-01 -0.12221059058E+00 -0.48874640129E-01  0.88997357711E+00  0.88000000000E+00 0.  1.
        -11    1    4    4    0    0 -0.95517417997E-02  0.23929165994E-01  0.66292719053E-02  0.26609192463E-01  0.51100000000E-03 0.  1.
         11    1    4    4    0    0 -0.23138673575E-01  0.85000415319E-01  0.55018510020E-01  0.10386417277E+00  0.51100000000E-03 0. -1.
</event>
<event>
 8    1  0.1201042E+005  0.1043930E+01  0.7957747E-01            NaN
         13   -1    0    0    0    0  0.00000000000E+00  0.00000000000E+00  0.74505805969E-08  0.10566000000E+00  0.10566000000E+00 0. -1.
     999900   -1    0    0    0    0 -0.00000000000E+00 -0.00000000000E+00 -0.74505805969E-08  0.93827000000E+00  0.93827000000E+00 0.  1.
     999902    2    1    2    0    0 -0.20334880407E-01 -0.12407929662E-01  0.41478360675E-02  0.10197500781E+01  0.10194633653E+01 0.  0.
     999903    2    3    3    0    0 -0.49856590556E-01 -0.22469587808E-01  0.11831106104E+00  0.13182777841E+00  0.19760920974E-01 0.  0.
         14    1    1    2    0    0  0.20334880407E-01  0.12407929662E-01 -0.41478360675E-02  0.24179921913E-01  0.00000000000E+00 0.  1.
     999901    1    3    3    0    0  0.29521710149E-01  0.10061658146E-01 -0.11416322497E+00  0.88792229968E+00  0.88000000000E+00 0.  1.
        -11    1    4    4    0    0 -0.97596771129E-02 -0.12497635303E-02  0.41187750167E-01  0.42349794463E-01  0.51100000000E-03 0.  1.
         11    1    4    4    0    0 -0.40096913443E-01 -0.21219824278E-01  0.77123310870E-01  0.89477983944E-01  0.51100000000E-03 0. -1.
</event>
<event>
 8    1  0.1075206E+005  0.1043930E+01  0.7957747E-01            NaN
         13   -1    0    0    0    0  0.00000000000E+00  0.00000000000E+00  0.74505805969E-08  0.10566000000E+00  0.10566000000E+00 0.  1.
     999900   -1    0    0    0    0 -0.00000000000E+00 -0.00000000000E+00 -0.74505805969E-08  0.93827000000E+00  0.93827000000E+00 0. -1.
     999902    2    1    2    0    0 -0.18646821272E-01 -0.54199715597E-02 -0.13165039355E-01  0.10204694310E+01  0.10201997164E+01 0.  0.
     999903    2    3    3    0    0  0.58288729485E-01  0.62681986888E-01  0.93558142072E-01  0.12808678151E+00  0.18069039355E-01 0.  0.
         14    1    1    2    0    0  0.18646821272E-01  0.54199715597E-02  0.13165039355E-01  0.23460568972E-01  0.00000000000E+00 0.  1.
     999901    1    3    3    0    0 -0.76935550757E-01 -0.68101958448E-01 -0.10672318143E+00  0.89238264952E+00  0.88000000000E+00 0. -1.
        -11    1    4    4    0    0  0.34254775994E-01  0.24209007353E-01  0.48908001497E-01  0.64433837747E-01  0.51100000000E-03 0.  1.
         11    1    4    4    0    0  0.24033953491E-01  0.38472979535E-01  0.44650140576E-01  0.63652943758E-01  0.51100000000E-03 0. -1.
</event>
<event>
 8    1  0.1075206E+005  0.1043930E+01  0.7957747E-01            NaN
         13   -1    0    0    0    0  0.00000000000E+00  0.00000000000E+00  0.74505805969E-08  0.10566000000E+00  0.10566000000E+00 0. -1.
     999900   -1    0    0    0    0 -0.00000000000E+00 -0.00000000000E+00 -0.74505805969E-08  0.93827000000E+00  0.93827000000E+00 0.  1.
     999902    2    1    2    0    0 -0.41230280346E-03  0.60830154745E-02 -0.23462168857E-01  0.10196885801E+01  0.10194003894E+01 0.  0.
     999903    2    3    3    0    0  0.93706367005E-01  0.80802974680E-01 -0.39683642151E-01  0.13137302103E+00  0.19341025439E-01 0.  0.
         14    1    1    2    0    0  0.41230280346E-03 -0.60830154745E-02  0.23462168857E-01  0.24241419892E-01  0.00000000000E+00 0. -1.
     999901    1    3    3    0    0 -0.94118669808E-01 -0.74719959206E-01  0.16221473294E-01  0.88831555908E+00  0.88000000000E+00 0.  1.
        -11    1    4    4    0    0  0.77953945239E-01  0.67671611077E-01 -0.25201995288E-01  0.10626225205E+00  0.51100000000E-03 0. -1.
         11    1    4    4    0    0  0.15752421766E-01  0.13131363604E-01 -0.14481646863E-01  0.25110768974E-01  0.51100000000E-03 0.  1.
</event>
<event>
 8    1  0.1075206E+005  0.1043930E+01  0.7957747E-01            NaN
         13   -1    0    0    0    0  0.00000000000E+00  0.00000000000E+00  0.74505805969E-08  0.10566000000E+00  0.10566000000E+00 0. -1.
     999900   -1    0    0    0    0 -0.00000000000E+00 -0.00000000000E+00 -0.74505805969E-08  0.93827000000E+00  0.93827000000E+00 0. -1.
     999902    2    1    2    0    0  0.11065165789E-01  0.10908159364E-01  0.18412841929E-01  0.10198372919E+01  0.10195526683E+01 0.  0.
     999903    2    3    3    0    0  0.11661065954E+00 -0.55374817818E-01  0.94087944503E-02  0.13100977368E+00  0.20263736544E-01 0.  0.
         14    1    1    2    0    0 -0.11065165789E-01 -0.10908159364E-01 -0.18412841929E-01  0.24092708079E-01  0.00000000000E+00 0.  1.
     999901    1    3    3    0    0 -0.10554549375E+00  0.66282977183E-01  0.90040474789E-02  0.88882751824E+00  0.88000000000E+00 0. -1.
        -11    1    4    4    0    0  0.68716898596E-01 -0.34244076294E-01  0.15431629951E-01  0.78313889176E-01  0.51100000000E-03 0. -1.
         11    1    4    4    0    0  0.47893760947E-01 -0.21130741524E-01 -0.60228355009E-02  0.52695884502E-01  0.51100000000E-03 0.  1.
</event>
<event>
 8    1  0.1075206E+005  0.1043930E+01  0.7957747E-01            NaN
         13   -1    0    0    0    0  0.00000000000E+00  0.00000000000E+00  0.74505805969E-08  0.10566000000E+00  0.10566000000E+00 0. -1.
     999900   -1    0    0    0    0 -0.00000000000E+00 -0.00000000000E+00 -0.74505805969E-08  0.93827000000E+00  0.93827000000E+00 0.  1.
     999902    2    1    2    0    0 -0.18521983026E-01  0.21880360941E-02  0.14716774035E-01  0.10201721635E+01  0.10198954890E+01 0.  0.
     999903    2    3    3    0    0 -0.13277767240E-01  0.42656805746E-01 -0.11982487472E+00  0.12901186458E+00  0.17034037150E-01 0.  0.
         14    1    1    2    0    0  0.18521983026E-01 -0.21880360941E-02 -0.14716774035E-01  0.23757836500E-01  0.00000000000E+00 0.  1.
     999901    1    3    3    0    0 -0.52442157865E-02 -0.40468769652E-01  0.13454164876E+00  0.89116029892E+00  0.88000000000E+00 0. -1.
        -11    1    4    4    0    0 -0.30093090380E-02  0.31160929464E-01 -0.66512059121E-01  0.73513091320E-01  0.51100000000E-03 0.  1.
         11    1    4    4    0    0 -0.10268458202E-01  0.11495876282E-01 -0.53312815601E-01  0.55498773262E-01  0.51100000000E-03 0. -1.
</event>
<event>
 8    1  0.1075206E+005  0.1043930E+01  0.7957747E-01            NaN
         13   -1    0    0    0    0  0.00000000000E+00  0.00000000000E+00  0.74505805969E-08  0.10566000000E+00  0.10566000000E+00 0.  1.
     999900   -1    0    0    0    0 -0.00000000000E+00 -0.00000000000E+00 -0.74505805969E-08  0.93827000000E+00  0.93827000000E+00 0. -1.
     999902    2    1    2    0    0  0.14297465678E-01 -0.15959570916E-01 -0.99393826454E-02  0.10203097384E+01  0.10200362962E+01 0.  0.
     999903    2    3    3    0    0  0.11059687395E+00 -0.59968271561E-01  0.37497269411E-01  0.13269463170E+00  0.19337992322E-01 0.  0.
         14    1    1    2    0    0 -0.14297465678E-01  0.15959570916E-01  0.99393826454E-02  0.23620261557E-01  0.00000000000E+00 0.  1.
     999901    1    3    3    0    0 -0.96299408269E-01  0.44008700644E-01 -0.47436652057E-01  0.88761510675E+00  0.88000000000E+00 0. -1.
        -11    1    4    4    0    0  0.47110930847E-01 -0.32030364456E-01  0.25000415742E-01  0.62214676409E-01  0.51100000000E-03 0. -1.
         11    1    4    4    0    0  0.63485943100E-01 -0.27937907105E-01  0.12496853669E-01  0.70479955288E-01  0.51100000000E-03 0.  1.
</event>
<event>
 8    1  0.1075206E+005  0.1043930E+01  0.7957747E-01            NaN
         13   -1    0    0    0    0  0.00000000000E+00  0.00000000000E+00  0.74505805969E-08  0.10566000000E+00  0.10566000000E+00 0. -1.
     999900   -1    0    0    0    0 -0.00000000000E+00 -0.00000000000E+00 -0.74505805969E-08  0.93827000000E+00  0.93827000000E+00 0.  1.
     999902    2    1    2    0    0 -0.19104878331E-01 -0.97195888061E-02 -0.10467816950E-01  0.10200753993E+01  0.10197964396E+01 0.  0.
     999903    2    3    3    0    0 -0.11571307530E+00 -0.44122791100E-01  0.43222946769E-01  0.13249474260E+00  0.18716228266E-01 0.  0.
         14    1    1    2    0    0  0.19104878331E-01  0.97195888061E-02  0.10467816950E-01  0.23854600695E-01  0.00000000000E+00 0. -1.
     999901    1    3    3    0    0  0.96608196965E-01  0.34403202294E-01 -0.53690763719E-01  0.88758065671E+00  0.88000000000E+00 0. -1.
        -11    1    4    4    0    0 -0.83402728499E-01 -0.33330831793E-01  0.22408933304E-01  0.92570950529E-01  0.51100000000E-03 0. -1.
         11    1    4    4    0    0 -0.32310346797E-01 -0.10791959307E-01  0.20814013465E-01  0.39923792071E-01  0.51100000000E-03 0.  1.
</event>
<event>
 8    1  0.1075206E+005  0.1043930E+01  0.7957747E-01            NaN
         13   -1    0    0    0    0  0.00000000000E+00  0.00000000000E+00  0.74505805969E-08  0.10566000000E+00  0.10566000000E+00 0.  1.
     999900   -1    0    0    0    0 -0.00000000000E+00 -0.00000000000E+00 -0.74505805969E-08  0.93827000000E+00  0.93827000000E+00 0. -1.
     999902    2    1    2    0    0  0.18293931782E-01 -0.85273236670E-02 -0.13111065263E-01  0.10198616968E+01  0.10195776563E+01 0.  0.
     999903    2    3    3    0    0  0.11672074168E-01 -0.12849938360E+00 -0.17974062938E-01  0.13168334028E+00  0.19212138518E-01 0.  0.
         14    1    1    2    0    0 -0.18293931782E-01  0.85273236670E-02  0.13111065263E-01  0.24068303249E-01  0.00000000000E+00 0.  1.
     999901    1    3    3    0    0  0.66218576134E-02  0.11997205993E+00  0.48629976748E-02  0.88817835647E+00  0.88000000000E+00 0. -1.
        -11    1    4    4    0    0  0.16875240915E-01 -0.10700220643E+00 -0.14717370205E-01  0.10932112350E+00  0.51100000000E-03 0. -1.
         11    1    4    4    0    0 -0.52031667467E-02 -0.21497177176E-01 -0.32566927323E-02  0.22362216779E-01  0.51100000000E-03 0.  1.
</event>
<event>
 8    1  0.1075206E+005  0.1043930E+01  0.7957747E-01            NaN
         13   -1    0    0    0    0  0.00000000000E+00  0.00000000000E+00  0.74505805969E-08  0.10566000000E+00  0.10566000000E+00 0. -1.
     999900   -1    0    0    0    0 -0.00000000000E+00 -0.00000000000E+00 -0.74505805969E-08  0.93827000000E+00  0.93827000000E+00 0.  1.
     999902    2    1    2    0    0 -0.72875004820E-02  0.17687369492E-01  0.15254824756E-01  0.10194624627E+01  0.10191688047E+01 0.  0.
     999903    2    3    3    0    0 -0.71113513533E-01 -0.10218646085E+00 -0.23641172567E-01  0.12819572724E+00  0.19391618150E-01 0.  0.
         14    1    1    2    0    0  0.72875004820E-02 -0.17687369492E-01 -0.15254824756E-01  0.24467537293E-01  0.00000000000E+00 0.  1.
     999901    1    3    3    0    0  0.63826013051E-01  0.11987383034E+00  0.38895997323E-01  0.89126673547E+00  0.88000000000E+00 0.  1.
        -11    1    4    4    0    0 -0.52328417701E-01 -0.88064302168E-01 -0.17807460322E-01  0.10397572495E+00  0.51100000000E-03 0.  1.
         11    1    4    4    0    0 -0.18785095832E-01 -0.14122158681E-01 -0.58337122451E-02  0.24220002287E-01  0.51100000000E-03 0. -1.
</event>
<event>
 8    1  0.1075206E+005  0.1043930E+01  0.7957747E-01            NaN
         13   -1    0    0    0    0  0.00000000000E+00  0.00000000000E+00  0.74505805969E-08  0.10566000000E+00  0.10566000000E+00 0.  1.
     999900   -1    0    0    0    0 -0.00000000000E+00 -0.00000000000E+00 -0.74505805969E-08  0.93827000000E+00  0.93827000000E+00 0.  1.
     999902    2    1    2    0    0  0.14605111748E-01  0.60594781152E-02  0.16620334674E-01  0.10209895970E+01  0.10207318429E+01 0.  0.
     999903    2    3    3    0    0 -0.61670072402E-01  0.11304581562E+00  0.12108600369E-01  0.13122314683E+00  0.22143662812E-01 0.  0.
         14    1    1    2    0    0 -0.14605111748E-01 -0.60594781152E-02 -0.16620334674E-01  0.22940402980E-01  0.00000000000E+00 0. -1.
     999901    1    3    3    0    0  0.76275184150E-01 -0.10698633751E+00  0.45117343052E-02  0.88976645019E+00  0.88000000000E+00 0.  1.
        -11    1    4    4    0    0 -0.14492927463E-01  0.12227680156E-01  0.53390414093E-02  0.19706029347E-01  0.51100000000E-03 0.  1.
         11    1    4    4    0    0 -0.47177144938E-01  0.10081813546E+00  0.67695589596E-02  0.11151711749E+00  0.51100000000E-03 0. -1.
</event>
<event>
 8    1  0.1075206E+005  0.1043930E+01  0.7957747E-01            NaN
         13   -1    0    0    0    0  0.00000000000E+00  0.00000000000E+00  0.74505805969E-08  0.10566000000E+00  0.10566000000E+00 0. -1.
     999900   -1    0    0    0    0 -0.00000000000E+00 -0.00000000000E+00 -0.74505805969E-08  0.93827000000E+00  0.93827000000E+00 0. -1.
     999902    2    1    2    0    0 -0.21482604276E-01  0.11416504089E-01 -0.24764284723E-02  0.10194765432E+01  0.10191832272E+01 0.  0.
     999903    2    3    3    0    0  0.41574284324E-01 -0.10349802517E+00  0.58644362364E-01  0.12767091901E+00  0.20504633450E-01 0.  0.
         14    1    1    2    0    0  0.21482604276E-01 -0.11416504089E-01  0.24764284723E-02  0.24453456813E-01  0.00000000000E+00 0.  1.
     999901    1    3    3    0    0 -0.63056888600E-01  0.11491452926E+00 -0.61120790837E-01  0.89180562417E+00  0.88000000000E+00 0.  1.
        -11    1    4    4    0    0  0.10013258390E-01 -0.51675386471E-01  0.29737607165E-01  0.60458227822E-01  0.51100000000E-03 0. -1.
         11    1    4    4    0    0  0.31561025934E-01 -0.51822638702E-01  0.28906755199E-01  0.67212691192E-01  0.51100000000E-03 0.  1.
</event>
<event>
 8    1  0.1075206E+005  0.1043930E+01  0.7957747E-01            NaN
         13   -1    0    0    0    0  0.00000000000E+00  0.00000000000E+00  0.74505805969E-08  0.10566000000E+00  0.10566000000E+00 0.  1.
     999900   -1    0    0    0    0 -0.00000000000E+00 -0.00000000000E+00 -0.74505805969E-08  0.93827000000E+00  0.93827000000E+00 0. -1.
     999902    2    1    2    0    0  0.54716318792E-02  0.11338013170E-01  0.20118699965E-01  0.10201970822E+01  0.10199209946E+01 0.  0.
     999903    2    3    3    0    0 -0.72056135095E-01 -0.75231012331E-01 -0.71389006677E-01  0.12785274778E+00  0.19953521494E-01 0.  0.
         14    1    1    2    0    0 -0.54716318792E-02 -0.11338013170E-01 -0.20118699965E-01  0.23732917780E-01  0.00000000000E+00 0. -1.
     999901    1    3    3    0    0  0.77527766974E-01  0.86569025501E-01  0.91507706642E-01  0.89234433444E+00  0.88000000000E+00 0.  1.
        -11    1    4    4    0    0 -0.45011128673E-01 -0.34555744506E-01 -0.44329767137E-01  0.72010350354E-01  0.51100000000E-03 0.  1.
         11    1    4    4    0    0 -0.27045006422E-01 -0.40675267825E-01 -0.27059239540E-01  0.55842397428E-01  0.51100000000E-03 0. -1.
</event>
<event>
 8    1  0.1075206E+005  0.1043930E+01  0.7957747E-01            NaN
         13   -1    0    0    0    0  0.00000000000E+00  0.00000000000E+00  0.74505805969E-08  0.10566000000E+00  0.10566000000E+00 0.  1.
     999900   -1    0    0    0    0 -0.00000000000E+00 -0.00000000000E+00 -0.74505805969E-08  0.93827000000E+00  0.93827000000E+00 0. -1.
     999902    2    1    2    0    0 -0.21059669287E-01  0.66254279210E-02 -0.77128626102E-02  0.10205442305E+01  0.10202762529E+01 0.  0.
     999903    2    3    3    0    0 -0.93719501337E-01  0.89580421563E-01 -0.24814838402E-01  0.13349662200E+00  0.19939283395E-01 0.  0.
         14    1    1    2    0    0  0.21059669287E-01 -0.66254279210E-02  0.77128626102E-02  0.23385769503E-01  0.00000000000E+00 0. -1.
     999901    1    3    3    0    0  0.72659832049E-01 -0.82954993642E-01  0.17101975792E-01  0.88704760850E+00  0.88000000000E+00 0. -1.
        -11    1    4    4    0    0 -0.27959182254E-01  0.38556262327E-01 -0.13426384423E-01  0.49485656070E-01  0.51100000000E-03 0. -1.
         11    1    4    4    0    0 -0.65760319082E-01  0.51024159236E-01 -0.11388453979E-01  0.84010965930E-01  0.51100000000E-03 0.  1.
</event>
<event>
 8    1  0.1075206E+005  0.1043930E+01  0.7957747E-01            NaN
         13   -1    0    0    0    0  0.00000000000E+00  0.00000000000E+00  0.74505805969E-08  0.10566000000E+00  0.10566000000E+00 0. -1.
     999900   -1    0    0    0    0 -0.00000000000E+00 -0.00000000000E+00 -0.74505805969E-08  0.93827000000E+00  0.93827000000E+00 0.  1.
     999902    2    1    2    0    0 -0.42837051944E-02 -0.10191023802E-01  0.20010427110E-01  0.10210690226E+01  0.10208130703E+01 0.  0.
     999903    2    3    3    0    0  0.79874027493E-01 -0.74280174111E-01 -0.68514613968E-01  0.13032403882E+00  0.19816615094E-01 0.  0.
         14    1    1    2    0    0  0.42837051944E-02  0.10191023802E-01 -0.20010427110E-01  0.22860977439E-01  0.00000000000E+00 0.  1.
     999901    1    3    3    0    0 -0.84157732688E-01  0.64089150309E-01  0.88525041078E-01  0.89074498374E+00  0.88000000000E+00 0. -1.
        -11    1    4    4    0    0  0.55201230608E-02 -0.60879145910E-02 -0.12380420671E-01  0.14868436356E-01  0.51100000000E-03 0.  1.
         11    1    4    4    0    0  0.74353904432E-01 -0.68192259520E-01 -0.56134193297E-01  0.11545560247E+00  0.51100000000E-03 0. -1.
</event>
<event>
 8    1  0.1075206E+005  0.1043930E+01  0.7957747E-01            NaN
         13   -1    0    0    0    0  0.00000000000E+00  0.00000000000E+00  0.74505805969E-08  0.10566000000E+00  0.10566000000E+00 0. -1.
     999900   -1    0    0    0    0 -0.00000000000E+00 -0.00000000000E+00 -0.74505805969E-08  0.93827000000E+00  0.93827000000E+00 0.  1.
     999902    2    1    2    0    0 -0.19286921495E-01  0.14750119199E-01  0.12235406338E-01  0.10167407278E+01  0.10163771204E+01 0.  0.
     999903    2    3    3    0    0  0.27092786497E-01  0.30338080883E-03 -0.12046312393E+00  0.12546709665E+00  0.22282661275E-01 0.  0.
         14    1    1    2    0    0  0.19286921495E-01 -0.14750119199E-01 -0.12235406338E-01  0.27189272249E-01  0.00000000000E+00 0. -1.
     999901    1    3    3    0    0 -0.46379707992E-01  0.14446738390E-01  0.13269853027E+00  0.89127363110E+00  0.88000000000E+00 0. -1.
        -11    1    4    4    0    0  0.97154673547E-02 -0.94638766310E-02 -0.68018158292E-01  0.69359110759E-01  0.51100000000E-03 0. -1.
         11    1    4    4    0    0  0.17377319142E-01  0.97672574398E-02 -0.52444965641E-01  0.56107985889E-01  0.51100000000E-03 0.  1.
</event>
<event>
 8    1  0.1075206E+005  0.1043930E+01  0.7957747E-01            NaN
         13   -1    0    0    0    0  0.00000000000E+00  0.00000000000E+00  0.74505805969E-08  0.10566000000E+00  0.10566000000E+00 0.  1.
     999900   -1    0    0    0    0 -0.00000000000E+00 -0.00000000000E+00 -0.74505805969E-08  0.93827000000E+00  0.93827000000E+00 0. -1.
     999902    2    1    2    0    0 -0.83004990789E-02  0.21786261523E-01 -0.56756224530E-02  0.10199351638E+01  0.10196528753E+01 0.  0.
     999903    2    3    3    0    0  0.88441522955E-01 -0.14728911000E-01 -0.91544900379E-01  0.12972962033E+00  0.20259856974E-01 0.  0.
         14    1    1    2    0    0  0.83004990789E-02 -0.21786261523E-01  0.56756224530E-02  0.23994836243E-01  0.00000000000E+00 0. -1.
     999901    1    3    3    0    0 -0.96742022034E-01  0.36515172522E-01  0.85869277926E-01  0.89020554342E+00  0.88000000000E+00 0.  1.
        -11    1    4    4    0    0  0.17539717412E-01  0.38715317147E-03 -0.85287305109E-02  0.19513890939E-01  0.51100000000E-03 0.  1.
         11    1    4    4    0    0  0.70901805543E-01 -0.15116064171E-01 -0.83016169868E-01  0.11021572939E+00  0.51100000000E-03 0. -1.
</event>
<event>
 8    1  0.1075206E+005  0.1043930E+01  0.7957747E-01            NaN
         13   -1    0    0    0    0  0.00000000000E+00  0.00000000000E+00  0.74505805969E-08  0.10566000000E+00  0.10566000000E+00 0.  1.
     999900   -1    0    0    0    0 -0.00000000000E+00 -0.00000000000E+00 -0.74505805969E-08  0.93827000000E+00  0.93827000000E+00 0. -1.
     999902    2    1    2    0    0  0.89382249604E-02  0.20315093502E-01  0.58219133953E-02  0.10209846396E+01  0.10207267728E+01 0.  0.
     999903    2    3    3    0    0  0.11709379009E+00 -0.55039016154E-01  0.42370453963E-02  0.13116534336E+00  0.21122162983E-01 0.  0.
         14    1    1    2    0    0 -0.89382249604E-02 -0.20315093502E-01 -0.58219133953E-02  0.22945360425E-01  0.00000000000E+00 0. -1.
     999901    1    3    3    0    0 -0.10815556513E+00  0.75354109656E-01  0.15848679990E-02  0.88981929621E+00  0.88000000000E+00 0. -1.
        -11    1    4    4    0    0  0.66555170929E-01 -0.40756068984E-01  0.83186432958E-02  0.78486361132E-01  0.51100000000E-03 0.  1.
         11    1    4    4    0    0  0.50538619157E-01 -0.14282947170E-01 -0.40815978995E-02  0.52678982228E-01  0.51100000000E-03 0. -1.
</event>
<event>
 8    1  0.1075206E+005  0.1043930E+01  0.7957747E-01            NaN
         13   -1    0    0    0    0  0.00000000000E+00  0.00000000000E+00  0.74505805969E-08  0.10566000000E+00  0.10566000000E+00 0.  1.
     999900   -1    0    0    0    0 -0.00000000000E+00 -0.00000000000E+00 -0.74505805969E-08  0.93827000000E+00  0.93827000000E+00 0. -1.
     999902    2    1    2    0    0  0.86561314400E-02 -0.21298712103E-01  0.61076904284E-02  0.10201420276E+01  0.10198646424E+01 0.  0.
     999903    2    3    3    0    0 -0.52798142414E-02 -0.13131174324E+00  0.49118679649E-02  0.13318176490E+00  0.21038196310E-01 0.  0.
         14    1    1    2    0    0 -0.86561314400E-02  0.21298712103E-01 -0.61076904284E-02  0.23787972405E-01  0.00000000000E+00 0.  1.
     999901    1    3    3    0    0  0.13935945681E-01  0.11001303114E+00  0.11958224636E-02  0.88696026269E+00  0.88000000000E+00 0.  1.
        -11    1    4    4    0    0 -0.61693616097E-02 -0.26615718403E-01  0.78767686931E-02  0.28438742849E-01  0.51100000000E-03 0.  1.
         11    1    4    4    0    0  0.88954736829E-03 -0.10469602484E+00 -0.29649007282E-02  0.10474302206E+00  0.51100000000E-03 0. -1.
</event>
<event>
 8    1  0.1075206E+005  0.1043930E+01  0.7957747E-01            NaN
         13   -1    0    0    0    0  0.00000000000E+00  0.00000000000E+00  0.74505805969E-08  0.10566000000E+00  0.10566000000E+00 0. -1.
     999900   -1    0    0    0    0 -0.00000000000E+00 -0.00000000000E+00 -0.74505805969E-08  0.93827000000E+00  0.93827000000E+00 0. -1.
     999902    2    1    2    0    0 -0.79114068419E-02 -0.45340634967E-02 -0.21156233731E-01  0.10208923283E+01  0.10206323588E+01 0.  0.
     999903    2    3    3    0    0 -0.16324616883E-01  0.41927121231E-01 -0.12419147427E+00  0.13362366295E+00  0.20183765912E-01 0.  0.
         14    1    1    2    0    0  0.79114068419E-02  0.45340634967E-02  0.21156233731E-01  0.23037671664E-01  0.00000000000E+00 0. -1.
     999901    1    3    3    0    0  0.84132100415E-02 -0.46461184728E-01  0.10303524054E+00  0.88726866539E+00  0.88000000000E+00 0.  1.
        -11    1    4    4    0    0 -0.85823614166E-03  0.13481893634E-01 -0.17423557297E-01  0.22053106246E-01  0.51100000000E-03 0.  1.
         11    1    4    4    0    0 -0.15466380742E-01  0.28445227597E-01 -0.10676791697E+00  0.11157055670E+00  0.51100000000E-03 0. -1.
</event>
<event>
 8    1  0.1075206E+005  0.1043930E+01  0.7957747E-01            NaN
         13   -1    0    0    0    0  0.00000000000E+00  0.00000000000E+00  0.74505805969E-08  0.10566000000E+00  0.10566000000E+00 0.  1.
     999900   -1    0    0    0    0 -0.00000000000E+00 -0.00000000000E+00 -0.74505805969E-08  0.93827000000E+00  0.93827000000E+00 0. -1.
     999902    2    1    2    0    0  0.10495179683E-01 -0.21732196519E-01  0.49938408842E-02  0.10192850084E+01  0.10189870229E+01 0.  0.
     999903    2    3    3    0    0  0.14601253175E-01  0.99832957119E-01  0.75604802316E-01  0.12811675593E+00  0.22759637394E-01 0.  0.
         14    1    1    2    0    0 -0.10495179683E-01  0.21732196519E-01 -0.49938408842E-02  0.24644991558E-01  0.00000000000E+00 0.  1.
     999901    1    3    3    0    0 -0.41060734919E-02 -0.12156515364E+00 -0.70610961432E-01  0.89116825252E+00  0.88000000000E+00 0. -1.
        -11    1    4    4    0    0 -0.38218315031E-02  0.26852487103E-01  0.28365881806E-01  0.39249800398E-01  0.51100000000E-03 0.  1.
         11    1    4    4    0    0  0.18423084678E-01  0.72980470016E-01  0.47238920510E-01  0.88866955528E-01  0.51100000000E-03 0. -1.
</event>
<event>
 7    1  0.1075206E+005  0.1043930E+01  0.7957747E-01            NaN
         13   -1    0    0    0    0  0.00000000000E+00  0.00000000000E+00  0.74505805969E-08  0.10566000000E+00  0.10566000000E+00 0.  1.
     999900   -1    0    0    0    0 -0.00000000000E+00 -0.00000000000E+00 -0.74505805969E-08  0.93827000000E+00  0.93827000000E+00 0.  1.
     999903    2    1    2    0    0  0.22240696362E-02 -0.11633831431E+00 -0.96395874447E-02  0.11960207626E+00  0.25926533453E-01 0.  0.
         14    1    1    2    0    0 -0.27210018664E-01  0.23481355659E-01 -0.14512119954E-01  0.38760299339E-01  0.00000000000E+00 0. -1.
     999901    1    1    2    0    0  0.24985949028E-01  0.92856958651E-01  0.24151707399E-01  0.88556762440E+00  0.88000000000E+00 0. -1.
        -11    1    3    3    0    0 -0.27222191211E-02 -0.82986067609E-01 -0.17775331485E-01  0.84913611538E-01  0.51100000000E-03 0.  1.
         11    1    3    3    0    0  0.49462887573E-02 -0.33352246702E-01  0.81357440408E-02  0.34688464720E-01  0.51100000000E-03 0. -1.
</event>
<event>
 8    1  0.1075206E+005  0.1043930E+01  0.7957747E-01            NaN
         13   -1    0    0    0    0  0.00000000000E+00  0.00000000000E+00  0.74505805969E-08  0.10566000000E+00  0.10566000000E+00 0. -1.
     999900   -1    0    0    0    0 -0.00000000000E+00 -0.00000000000E+00 -0.74505805969E-08  0.93827000000E+00  0.93827000000E+00 0.  1.
     999902    2    1    2    0    0 -0.19742926410E-01  0.30746023797E-02  0.11630045741E-01  0.10208108675E+01  0.10205490351E+01 0.  0.
     999903    2    3    3    0    0 -0.11994691582E+00 -0.28101049533E-01  0.43782644289E-01  0.13399265031E+00  0.29328804890E-01 0.  0.
         14    1    1    2    0    0  0.19742926410E-01 -0.30746023797E-02 -0.11630045741E-01  0.23119132487E-01  0.00000000000E+00 0. -1.
     999901    1    3    3    0    0  0.10020398941E+00  0.31175651912E-01 -0.32152598548E-01  0.88681821720E+00  0.88000000000E+00 0.  1.
        -11    1    4    4    0    0 -0.26830585829E-01 -0.10167206886E-01 -0.18478552487E-02  0.28756357937E-01  0.51100000000E-03 0.  1.
         11    1    4    4    0    0 -0.93116329994E-01 -0.17933842647E-01  0.45630499537E-01  0.10523629237E+00  0.51100000000E-03 0. -1.
</event>
<event>
 8    1  0.1075206E+005  0.1043930E+01  0.7957747E-01            NaN
         13   -1    0    0    0    0  0.00000000000E+00  0.00000000000E+00  0.74505805969E-08  0.10566000000E+00  0.10566000000E+00 0. -1.
     999900   -1    0    0    0    0 -0.00000000000E+00 -0.00000000000E+00 -0.74505805969E-08  0.93827000000E+00  0.93827000000E+00 0.  1.
     999902    2    1    2    0    0 -0.15884305251E-01  0.17141928855E-01  0.25493178213E-02  0.10204213654E+01  0.10201505316E+01 0.  0.
     999903    2    3    3    0    0  0.36031775462E-01  0.84031551743E-01 -0.92328831956E-01  0.13128056421E+00  0.18718514820E-01 0.  0.
         14    1    1    2    0    0  0.15884305251E-01 -0.17141928855E-01 -0.25493178213E-02  0.23508634574E-01  0.00000000000E+00 0. -1.
     999901    1    3    3    0    0 -0.51916080713E-01 -0.66889622888E-01  0.94878149777E-01  0.88914080122E+00  0.88000000000E+00 0. -1.
        -11    1    4    4    0    0  0.20674832569E-01  0.60897886647E-01 -0.73819815349E-01  0.97906218184E-01  0.51100000000E-03 0.  1.
         11    1    4    4    0    0  0.15356942893E-01  0.23133665095E-01 -0.18509016607E-01  0.33374346024E-01  0.51100000000E-03 0. -1.
</event>
<event>
 8    1  0.1075206E+005  0.1043930E+01  0.7957747E-01            NaN
         13   -1    0    0    0    0  0.00000000000E+00  0.00000000000E+00  0.74505805969E-08  0.10566000000E+00  0.10566000000E+00 0.  1.
     999900   -1    0    0    0    0 -0.00000000000E+00 -0.00000000000E+00 -0.74505805969E-08  0.93827000000E+00  0.93827000000E+00 0. -1.
     999902    2    1    2    0    0 -0.49353909666E-03  0.22220174548E-02 -0.14413570487E-01  0.10293378118E+01  0.10292343751E+01 0.  0.
     999903    2    3    3    0    0  0.12469432623E+00 -0.56266990528E-01  0.49822847566E-02  0.13834445330E+00  0.19992883268E-01 0.  0.
         14    1    1    2    0    0  0.49353909666E-03 -0.22220174548E-02  0.14413570487E-01  0.14592188205E-01  0.00000000000E+00 0.  1.
     999901    1    3    3    0    0 -0.12518786532E+00  0.58489007983E-01 -0.19395855244E-01  0.89099335849E+00  0.88000000000E+00 0.  1.
        -11    1    4    4    0    0  0.13296059389E-01 -0.12379096695E-01 -0.26617947530E-02  0.18367729924E-01  0.51100000000E-03 0. -1.
         11    1    4    4    0    0  0.11139826684E+00 -0.43887893834E-01  0.76440795096E-02  0.11997672338E+00  0.51100000000E-03 0.  1.
</event>
<event>
 8    1  0.1075206E+005  0.1043930E+01  0.7957747E-01            NaN
         13   -1    0    0    0    0  0.00000000000E+00  0.00000000000E+00  0.74505805969E-08  0.10566000000E+00  0.10566000000E+00 0. -1.
     999900   -1    0    0    0    0 -0.00000000000E+00 -0.00000000000E+00 -0.74505805969E-08  0.93827000000E+00  0.93827000000E+00 0. -1.
     999902    2    1    2    0    0  0.16662617390E-02  0.25565028947E-03 -0.23858922480E-01  0.10200115977E+01  0.10197311261E+01 0.  0.
     999903    2    3    3    0    0 -0.33238250882E-01  0.12278764113E+00  0.15275678703E-01  0.12997568228E+00  0.21880253385E-01 0.  0.
         14    1    1    2    0    0 -0.16662617390E-02 -0.25565028947E-03  0.23858922480E-01  0.23918402271E-01  0.00000000000E+00 0. -1.
     999901    1    3    3    0    0  0.34904512621E-01 -0.12253199084E+00 -0.39134601184E-01  0.89003591545E+00  0.88000000000E+00 0. -1.
        -11    1    4    4    0    0 -0.10266039390E-01  0.12562109789E-01  0.46277300110E-02  0.16878245559E-01  0.51100000000E-03 0.  1.
         11    1    4    4    0    0 -0.22972211492E-01  0.11022553134E+00  0.10647948692E-01  0.11309743672E+00  0.51100000000E-03 0. -1.
</event>
<event>
 8    1  0.1075206E+005  0.1043930E+01  0.7957747E-01            NaN
         13   -1    0    0    0    0  0.00000000000E+00  0.00000000000E+00  0.74505805969E-08  0.10566000000E+00  0.10566000000E+00 0. -1.
     999900   -1    0    0    0    0 -0.00000000000E+00 -0.00000000000E+00 -0.74505805969E-08  0.93827000000E+00  0.93827000000E+00 0.  1.
     999902    2    1    2    0    0 -0.16351833340E-02 -0.23154306682E-01 -0.74725517767E-03  0.10207060009E+01  0.10204417603E+01 0.  0.
     999903    2    3    3    0    0  0.52741208547E-02 -0.11220173386E+00  0.68959546764E-01  0.13344266854E+00  0.20844214172E-01 0.  0.
         14    1    1    2    0    0  0.16351833340E-02  0.23154306682E-01  0.74725517767E-03  0.23223999069E-01  0.00000000000E+00 0.  1.
     999901    1    3    3    0    0 -0.69093041887E-02  0.89047427180E-01 -0.69706801942E-01  0.88726333239E+00  0.88000000000E+00 0.  1.
        -11    1    4    4    0    0  0.26871397358E-02 -0.44442484977E-01  0.39452305472E-01  0.59490341392E-01  0.51100000000E-03 0.  1.
         11    1    4    4    0    0  0.25869811188E-02 -0.67759248884E-01  0.29507241292E-01  0.73952327146E-01  0.51100000000E-03 0. -1.
</event>
<event>
 8    1  0.1075206E+005  0.1043930E+01  0.7957747E-01            NaN
         13   -1    0    0    0    0  0.00000000000E+00  0.00000000000E+00  0.74505805969E-08  0.10566000000E+00  0.10566000000E+00 0. -1.
     999900   -1    0    0    0    0 -0.00000000000E+00 -0.00000000000E+00 -0.74505805969E-08  0.93827000000E+00  0.93827000000E+00 0. -1.
     999902    2    1    2    0    0 -0.60349293647E-02  0.24177769084E-01 -0.28943725943E-02  0.10188429060E+01  0.10185339979E+01 0.  0.
     999903    2    3    3    0    0 -0.56129169576E-01  0.88003596234E-01  0.77742888695E-01  0.13143908758E+00  0.18361927315E-01 0.  0.
         14    1    1    2    0    0  0.60349293647E-02 -0.24177769084E-01  0.28943725943E-02  0.25087093953E-01  0.00000000000E+00 0. -1.
     999901    1    3    3    0    0  0.50094240212E-01 -0.63825827150E-01 -0.80637261289E-01  0.88740381846E+00  0.88000000000E+00 0. -1.
        -11    1    4    4    0    0 -0.25925768203E-01  0.53544684750E-01  0.51138675724E-01  0.78451284232E-01  0.51100000000E-03 0.  1.
         11    1    4    4    0    0 -0.30203401374E-01  0.34458911484E-01  0.26604212971E-01  0.52987803351E-01  0.51100000000E-03 0. -1.
</event>
<event>
 8    1  0.1075206E+005  0.1043930E+01  0.7957747E-01            NaN
         13   -1    0    0    0    0  0.00000000000E+00  0.00000000000E+00  0.74505805969E-08  0.10566000000E+00  0.10566000000E+00 0.  1.
     999900   -1    0    0    0    0 -0.00000000000E+00 -0.00000000000E+00 -0.74505805969E-08  0.93827000000E+00  0.93827000000E+00 0. -1.
     999902    2    1    2    0    0  0.26826054489E-02 -0.24128484571E-01  0.29830110281E-02  0.10194702679E+01  0.10191767995E+01 0.  0.
     999903    2    3    3    0    0  0.56120444999E-02 -0.81640780435E-01 -0.10086021295E+00  0.13149523393E+00  0.20530511838E-01 0.  0.
         14    1    1    2    0    0 -0.26826054489E-02  0.24128484571E-01 -0.29830110281E-02  0.24459732101E-01  0.00000000000E+00 0. -1.
     999901    1    3    3    0    0 -0.29294390510E-02  0.57512295864E-01  0.10384322398E+00  0.88797503397E+00  0.88000000000E+00 0.  1.
        -11    1    4    4    0    0  0.11064938684E-01 -0.42983206324E-01 -0.63347955605E-01  0.77351234601E-01  0.51100000000E-03 0. -1.
         11    1    4    4    0    0 -0.54528941841E-02 -0.38657574111E-01 -0.37512257343E-01  0.54143999327E-01  0.51100000000E-03 0.  1.
</event>
<event>
 8    1  0.1075206E+005  0.1043930E+01  0.7957747E-01            NaN
         13   -1    0    0    0    0  0.00000000000E+00  0.00000000000E+00  0.74505805969E-08  0.10566000000E+00  0.10566000000E+00 0. -1.
     999900   -1    0    0    0    0 -0.00000000000E+00 -0.00000000000E+00 -0.74505805969E-08  0.93827000000E+00  0.93827000000E+00 0. -1.
     999902    2    1    2    0    0 -0.13322409212E-01 -0.17956236696E-01  0.86212419174E-02  0.10199667190E+01  0.10196851813E+01 0.  0.
     999903    2    3    3    0    0  0.51490561923E-01 -0.96251385943E-01  0.71135530807E-01  0.13191329273E+00  0.20621488592E-01 0.  0.
         14    1    1    2    0    0  0.13322409212E-01  0.17956236696E-01 -0.86212419174E-02  0.23963280988E-01  0.00000000000E+00 0.  1.
     999901    1    3    3    0    0 -0.64812971134E-01  0.78295149247E-01 -0.62514288889E-01  0.88805342629E+00  0.88000000000E+00 0. -1.
        -11    1    4    4    0    0  0.22971736968E-01 -0.35265939602E-01  0.38712999499E-01  0.57186927235E-01  0.51100000000E-03 0.  1.
         11    1    4    4    0    0  0.28518824954E-01 -0.60985446341E-01  0.32422531307E-01  0.74726365492E-01  0.51100000000E-03 0. -1.
</event>
<event>
 8    1  0.1075206E+005  0.1043930E+01  0.7957747E-01            NaN
         13   -1    0    0    0    0  0.00000000000E+00  0.00000000000E+00  0.74505805969E-08  0.10566000000E+00  0.10566000000E+00 0.  1.
     999900   -1    0    0    0    0 -0.00000000000E+00 -0.00000000000E+00 -0.74505805969E-08  0.93827000000E+00  0.93827000000E+00 0.  1.
     999902    2    1    2    0    0 -0.15572661894E-01 -0.14126787552E-01  0.10714429033E-01  0.10203318451E+01  0.10200589205E+01 0.  0.
     999903    2    3    3    0    0 -0.12696746100E+00  0.25749802130E-01  0.19684152271E-01  0.13236821994E+00  0.18710727881E-01 0.  0.
         14    1    1    2    0    0  0.15572661894E-01  0.14126787552E-01 -0.10714429033E-01  0.23598154897E-01  0.00000000000E+00 0. -1.
     999901    1    3    3    0    0  0.11139479911E+00 -0.39876589683E-01 -0.89697232383E-02  0.88796362516E+00  0.88000000000E+00 0.  1.
        -11    1    4    4    0    0 -0.82404757375E-01  0.14514452084E-01  0.38726288393E-02  0.83764382242E-01  0.51100000000E-03 0. -1.
         11    1    4    4    0    0 -0.44562703625E-01  0.11235350046E-01  0.15811523432E-01  0.48603837701E-01  0.51100000000E-03 0.  1.
</event>
<event>
 8    1  0.1075206E+005  0.1043930E+01  0.7957747E-01            NaN
         13   -1    0    0    0    0  0.00000000000E+00  0.00000000000E+00  0.74505805969E-08  0.10566000000E+00  0.10566000000E+00 0.  1.
     999900   -1    0    0    0    0 -0.00000000000E+00 -0.00000000000E+00 -0.74505805969E-08  0.93827000000E+00  0.93827000000E+00 0.  1.
     999902    2    1    2    0    0 -0.15167918803E-01  0.11799956385E-01  0.17114002399E-01  0.10181968733E+01  0.10178716417E+01 0.  0.
     999903    2    3    3    0    0  0.47081333238E-01  0.32844676841E-02 -0.11526263099E+00  0.12608081807E+00  0.19582107035E-01 0.  0.
         14    1    1    2    0    0  0.15167918803E-01 -0.11799956385E-01 -0.17114002399E-01  0.25733126697E-01  0.00000000000E+00 0. -1.
     999901    1    3    3    0    0 -0.62249252042E-01  0.85154887013E-02  0.13237663339E+00  0.89211605523E+00  0.88000000000E+00 0. -1.
        -11    1    4    4    0    0  0.19761818323E-01  0.10717876914E-02 -0.25850386651E-01  0.32560433094E-01  0.51100000000E-03 0.  1.
         11    1    4    4    0    0  0.27319514916E-01  0.22126799927E-02 -0.89412244340E-01  0.93520384981E-01  0.51100000000E-03 0. -1.
</event>
<event>
 8    1  0.1075206E+005  0.1043930E+01  0.7957747E-01            NaN
         13   -1    0    0    0    0  0.00000000000E+00  0.00000000000E+00  0.74505805969E-08  0.10566000000E+00  0.10566000000E+00 0. -1.
     999900   -1    0    0    0    0 -0.00000000000E+00 -0.00000000000E+00 -0.74505805969E-08  0.93827000000E+00  0.93827000000E+00 0. -1.
     999902    2    1    2    0    0 -0.21464015056E-01  0.70436830786E-04  0.10777020813E-01  0.10199122340E+01  0.10196293994E+01 0.  0.
     999903    2    3    3    0    0 -0.60294491715E-01  0.97495404392E-01 -0.61070283762E-01  0.13077699946E+00  0.15240223720E-01 0.  0.
         14    1    1    2    0    0  0.21464015056E-01 -0.70436830786E-04 -0.10777020813E-01  0.24017765951E-01  0.00000000000E+00 0.  1.
     999901    1    3    3    0    0  0.38830476659E-01 -0.97424967562E-01  0.71847304575E-01  0.88913523459E+00  0.88000000000E+00 0. -1.
        -11    1    4    4    0    0 -0.24245804026E-01  0.52028317072E-01 -0.26402699969E-01  0.63183609242E-01  0.51100000000E-03 0.  1.
         11    1    4    4    0    0 -0.36048687689E-01  0.45467087320E-01 -0.34667583793E-01  0.67593390213E-01  0.51100000000E-03 0. -1.
</event>
<event>
 8    1  0.1075206E+005  0.1043930E+01  0.7957747E-01            NaN
         13   -1    0    0    0    0  0.00000000000E+00  0.00000000000E+00  0.74505805969E-08  0.10566000000E+00  0.10566000000E+00 0.  1.
     999900   -1    0    0    0    0 -0.00000000000E+00 -0.00000000000E+00 -0.74505805969E-08  0.93827000000E+00  0.93827000000E+00 0.  1.
     999902    2    1    2    0    0  0.45699414592E-02  0.17483572887E-01  0.14691653890E-01  0.10206404234E+01  0.10203746711E+01 0.  0.
     999903    2    3    3    0    0  0.41749400190E-01  0.11718568632E+00 -0.41590392062E-01  0.13244534779E+00  0.18344261931E-01 0.  0.
         14    1    1    2    0    0 -0.45699414592E-02 -0.17483572887E-01 -0.14691653890E-01  0.23289576636E-01  0.00000000000E+00 0. -1.
     999901    1    3    3    0    0 -0.37179458731E-01 -0.99702113431E-01  0.56282045953E-01  0.88819507557E+00  0.88000000000E+00 0.  1.
        -11    1    4    4    0    0  0.33954764104E-01  0.10244670701E+00 -0.41861265520E-01  0.11576217195E+00  0.51100000000E-03 0. -1.
         11    1    4    4    0    0  0.77946360868E-02  0.14738979309E-01  0.27087345758E-03  0.16683175843E-01  0.51100000000E-03 0.  1.
</event>
<event>
 8    1  0.1075206E+005  0.1043930E+01  0.7957747E-01            NaN
         13   -1    0    0    0    0  0.00000000000E+00  0.00000000000E+00  0.74505805969E-08  0.10566000000E+00  0.10566000000E+00 0. -1.
     999900   -1    0    0    0    0 -0.00000000000E+00 -0.00000000000E+00 -0.74505805969E-08  0.93827000000E+00  0.93827000000E+00 0.  1.
     999902    2    1    2    0    0  0.27043256253E-02 -0.79574281815E-02  0.23313908995E-01  0.10191474983E+01  0.10188461370E+01 0.  0.
     999903    2    3    3    0    0 -0.11966358052E+00 -0.42116349291E-01 -0.14699521476E-01  0.12921168189E+00  0.19657655606E-01 0.  0.
         14    1    1    2    0    0 -0.27043256253E-02  0.79574281815E-02 -0.23313908995E-01  0.24782501749E-01  0.00000000000E+00 0.  1.
     999901    1    3    3    0    0  0.12236790615E+00  0.34158921110E-01  0.38013430471E-01  0.88993581636E+00  0.88000000000E+00 0. -1.
        -11    1    4    4    0    0 -0.95107493395E-01 -0.29270440739E-01 -0.18557375462E-01  0.10122663338E+00  0.51100000000E-03 0. -1.
         11    1    4    4    0    0 -0.24556087128E-01 -0.12845908552E-01  0.38578539854E-02  0.27985048507E-01  0.51100000000E-03 0.  1.
</event>
<event>
 8    1  0.1075206E+005  0.1043930E+01  0.7957747E-01            NaN
         13   -1    0    0    0    0  0.00000000000E+00  0.00000000000E+00  0.74505805969E-08  0.10566000000E+00  0.10566000000E+00 0. -1.
     999900   -1    0    0    0    0 -0.00000000000E+00 -0.00000000000E+00 -0.74505805969E-08  0.93827000000E+00  0.93827000000E+00 0.  1.
     999902    2    1    2    0    0  0.13762162790E-01 -0.18463854509E-01 -0.65040447465E-02  0.10200006530E+01  0.10197199216E+01 0.  0.
     999903    2    3    3    0    0  0.34495998691E-01  0.51798105469E-01 -0.11306005418E+00  0.13055092533E+00  0.19696461578E-01 0.  0.
         14    1    1    2    0    0 -0.13762162790E-01  0.18463854509E-01  0.65040447465E-02  0.23929346963E-01  0.00000000000E+00 0. -1.
     999901    1    3    3    0    0 -0.20733835901E-01 -0.70261959978E-01  0.10655600943E+00  0.88944972771E+00  0.88000000000E+00 0. -1.
        -11    1    4    4    0    0  0.29619486294E-01  0.29351830199E-01 -0.81043765181E-01  0.91143825353E-01  0.51100000000E-03 0. -1.
         11    1    4    4    0    0  0.48765123977E-02  0.22446275270E-01 -0.32016288995E-01  0.39407099977E-01  0.51100000000E-03 0.  1.
</event>
<event>
 8    1  0.1075206E+005  0.1043930E+01  0.7957747E-01            NaN
         13   -1    0    0    0    0  0.00000000000E+00  0.00000000000E+00  0.74505805969E-08  0.10566000000E+00  0.10566000000E+00 0.  1.
     999900   -1    0    0    0    0 -0.00000000000E+00 -0.00000000000E+00 -0.74505805969E-08  0.93827000000E+00  0.93827000000E+00 0.  1.
     999902    2    1    2    0    0 -0.11336069625E-02  0.31027039339E-01 -0.61073938526E-02  0.10122872679E+01  0.10117925925E+01 0.  0.
     999903    2    3    3    0    0 -0.10864842826E+00 -0.41357798511E-01 -0.27907554750E-01  0.12252648625E+00  0.26813424979E-01 0.  0.
         14    1    1    2    0    0  0.11336069625E-02 -0.31027039339E-01  0.61073938526E-02  0.31642732097E-01  0.00000000000E+00 0.  1.
     999901    1    3    3    0    0  0.10751482130E+00  0.72384837850E-01  0.21800160898E-01  0.88976078165E+00  0.88000000000E+00 0.  1.
        -11    1    4    4    0    0 -0.71501606172E-01 -0.18728379934E-01 -0.69504313092E-02  0.74241508043E-01  0.51100000000E-03 0.  1.
         11    1    4    4    0    0 -0.37146822092E-01 -0.22629418578E-01 -0.20957123441E-01  0.48284978209E-01  0.51100000000E-03 0. -1.
</event>
<event>
 8    1  0.1075206E+005  0.1043930E+01  0.7957747E-01            NaN
         13   -1    0    0    0    0  0.00000000000E+00  0.00000000000E+00  0.74505805969E-08  0.10566000000E+00  0.10566000000E+00 0.  1.
     999900   -1    0    0    0    0 -0.00000000000E+00 -0.00000000000E+00 -0.74505805969E-08  0.93827000000E+00  0.93827000000E+00 0. -1.
     999902    2    1    2    0    0 -0.12018259674E-01  0.13868171204E-01  0.15074439223E-01  0.10201812431E+01  0.10199047824E+01 0.  0.
     999903    2    3    3    0    0 -0.44501106080E-01 -0.87793792178E-01  0.84360470301E-01  0.13102948762E+00  0.19077192896E-01 0.  0.
         14    1    1    2    0    0  0.12018259674E-01 -0.13868171204E-01 -0.15074439223E-01  0.23748756936E-01  0.00000000000E+00 0. -1.
     999901    1    3    3    0    0  0.32482846406E-01  0.10166196338E+00 -0.69286031078E-01  0.88915175545E+00  0.88000000000E+00 0. -1.
        -11    1    4    4    0    0 -0.85113577603E-02 -0.15304645460E-01  0.25573148538E-01  0.30998748858E-01  0.51100000000E-03 0.  1.
         11    1    4    4    0    0 -0.35989748319E-01 -0.72489146717E-01  0.58787321763E-01  0.10003073876E+00  0.51100000000E-03 0. -1.
</event>
<event>
 8    1  0.1075206E+005  0.1043930E+01  0.7957747E-01            NaN
         13   -1    0    0    0    0  0.00000000000E+00  0.00000000000E+00  0.74505805969E-08  0.10566000000E+00  0.10566000000E+00 0.  1.
     999900   -1    0    0    0    0 -0.00000000000E+00 -0.00000000000E+00 -0.74505805969E-08  0.93827000000E+00  0.93827000000E+00 0.  1.
     999902    2    1    2    0    0 -0.18771687903E-01  0.31755509832E-02  0.13772276399E-01  0.10204324259E+01  0.10201618498E+01 0.  0.
     999903    2    3    3    0    0 -0.11821548893E-01  0.46501259730E-01  0.12223239980E+00  0.13268864540E+00  0.19063076446E-01 0.  0.
         14    1    1    2    0    0  0.18771687903E-01 -0.31755509832E-02 -0.13772276399E-01  0.23497574087E-01  0.00000000000E+00 0.  1.
     999901    1    3    3    0    0 -0.69501390103E-02 -0.43325708747E-01 -0.10846012340E+00  0.88774378051E+00  0.88000000000E+00 0.  1.
        -11    1    4    4    0    0 -0.89863314539E-02  0.55468043308E-02  0.25205858277E-01  0.27333452101E-01  0.51100000000E-03 0. -1.
         11    1    4    4    0    0 -0.28352174388E-02  0.40954455400E-01  0.97026541519E-01  0.10535519330E+00  0.51100000000E-03 0.  1.
</event>
<event>
 8    1  0.1075206E+005  0.1043930E+01  0.7957747E-01            NaN
         13   -1    0    0    0    0  0.00000000000E+00  0.00000000000E+00  0.74505805969E-08  0.10566000000E+00  0.10566000000E+00 0.  1.
     999900   -1    0    0    0    0 -0.00000000000E+00 -0.00000000000E+00 -0.74505805969E-08  0.93827000000E+00  0.93827000000E+00 0.  1.
     999902    2    1    2    0    0  0.24652004078E-01  0.33429670585E-02 -0.11077395630E-01  0.10166975666E+01  0.10163327883E+01 0.  0.
     999903    2    3    3    0    0 -0.10358589308E+00  0.20940552890E-01 -0.64283783277E-01  0.12563889685E+00  0.22004172488E-01 0.  0.
         14    1    1    2    0    0 -0.24652004078E-01 -0.33429670585E-02  0.11077395630E-01  0.27232433379E-01  0.00000000000E+00 0. -1.
     999901    1    3    3    0    0  0.12823789716E+00 -0.17597585831E-01  0.53206387647E-01  0.89105866978E+00  0.88000000000E+00 0. -1.
        -11    1    4    4    0    0 -0.79151216825E-01  0.24364791232E-01 -0.54214447744E-01  0.98984976849E-01  0.51100000000E-03 0.  1.
         11    1    4    4    0    0 -0.24434676258E-01 -0.34242383423E-02 -0.10069335533E-01  0.26653919996E-01  0.51100000000E-03 0. -1.
</event>
<event>
 8    1  0.1075206E+005  0.1043930E+01  0.7957747E-01            NaN
         13   -1    0    0    0    0  0.00000000000E+00  0.00000000000E+00  0.74505805969E-08  0.10566000000E+00  0.10566000000E+00 0. -1.
     999900   -1    0    0    0    0 -0.00000000000E+00 -0.00000000000E+00 -0.74505805969E-08  0.93827000000E+00  0.93827000000E+00 0. -1.
     999902    2    1    2    0    0 -0.18170969966E-01  0.10614044228E-01  0.16908878274E-01  0.10169345884E+01  0.10165762169E+01 0.  0.
     999903    2    3    3    0    0 -0.52159120540E-01 -0.98397577213E-01  0.60975647562E-01  0.12846365011E+00  0.19550517802E-01 0.  0.
         14    1    1    2    0    0  0.18170969966E-01 -0.10614044228E-01 -0.16908878274E-01  0.26995411626E-01  0.00000000000E+00 0.  1.
     999901    1    3    3    0    0  0.33988150574E-01  0.10901162144E+00 -0.44066769287E-01  0.88847093827E+00  0.88000000000E+00 0. -1.
        -11    1    4    4    0    0 -0.17071381844E-01 -0.17164777056E-01  0.17472708815E-01  0.29859978630E-01  0.51100000000E-03 0. -1.
         11    1    4    4    0    0 -0.35087738696E-01 -0.81232800157E-01  0.43502938746E-01  0.98603671477E-01  0.51100000000E-03 0.  1.
</event>
<event>
 8    1  0.1075206E+005  0.1043930E+01  0.7957747E-01            NaN
         13   -1    0    0    0    0  0.00000000000E+00  0.00000000000E+00  0.74505805969E-08  0.10566000000E+00  0.10566000000E+00 0.  1.
     999900   -1    0    0    0    0 -0.00000000000E+00 -0.00000000000E+00 -0.74505805969E-08  0.93827000000E+00  0.93827000000E+00 0. -1.
     999902    2    1    2    0    0 -0.52332923948E-02  0.16750184976E-01 -0.15018295756E-01  0.10208322674E+01  0.10205709249E+01 0.  0.
     999903    2    3    3    0    0  0.32387634115E-01 -0.41454810765E-02  0.12315270868E+00  0.12901211203E+00  0.20282789205E-01 0.  0.
         14    1    1    2    0    0  0.52332923948E-02 -0.16750184976E-01  0.15018295756E-01  0.23097732647E-01  0.00000000000E+00 0.  1.
     999901    1    3    3    0    0 -0.37620926510E-01  0.20895666052E-01 -0.13817100444E+00  0.89182015532E+00  0.88000000000E+00 0. -1.
        -11    1    4    4    0    0  0.26701933660E-01 -0.12899874037E-02  0.61902911871E-01  0.67430623220E-01  0.51100000000E-03 0.  1.
         11    1    4    4    0    0  0.56857004553E-02 -0.28554936728E-02  0.61249796811E-01  0.61581488811E-01  0.51100000000E-03 0. -1.
</event>
<event>
 8    1  0.1075206E+005  0.1043930E+01  0.7957747E-01            NaN
         13   -1    0    0    0    0  0.00000000000E+00  0.00000000000E+00  0.74505805969E-08  0.10566000000E+00  0.10566000000E+00 0. -1.
     999900   -1    0    0    0    0 -0.00000000000E+00 -0.00000000000E+00 -0.74505805969E-08  0.93827000000E+00  0.93827000000E+00 0.  1.
     999902    2    1    2    0    0 -0.17450665044E-01 -0.76017940241E-02 -0.13871359360E-01  0.10203773442E+01  0.10201054833E+01 0.  0.
     999903    2    3    3    0    0 -0.12393964266E+00 -0.17461240358E-01 -0.42075532627E-01  0.13345424361E+00  0.19332737876E-01 0.  0.
         14    1    1    2    0    0  0.17450665044E-01  0.76017940241E-02  0.13871359360E-01  0.23552655760E-01  0.00000000000E+00 0. -1.
     999901    1    3    3    0    0  0.10648897762E+00  0.98594463340E-02  0.28204173267E-01  0.88692310063E+00  0.88000000000E+00 0. -1.
        -11    1    4    4    0    0 -0.90778614595E-01 -0.21207486624E-01 -0.29362262723E-01  0.97739029819E-01  0.51100000000E-03 0.  1.
         11    1    4    4    0    0 -0.33161028069E-01  0.37462462656E-02 -0.12713269904E-01  0.35715213793E-01  0.51100000000E-03 0. -1.
</event>
<event>
 8    1  0.1075206E+005  0.1043930E+01  0.7957747E-01            NaN
         13   -1    0    0    0    0  0.00000000000E+00  0.00000000000E+00  0.74505805969E-08  0.10566000000E+00  0.10566000000E+00 0. -1.
     999900   -1    0    0    0    0 -0.00000000000E+00 -0.00000000000E+00 -0.74505805969E-08  0.93827000000E+00  0.93827000000E+00 0. -1.
     999902    2    1    2    0    0 -0.91667607644E-02  0.10283291571E-01  0.19584345079E-01  0.10199858533E+01  0.10197047704E+01 0.  0.
     999903    2    3    3    0    0 -0.85944853963E-01  0.95439544262E-01 -0.20849228202E-01  0.13162706497E+00  0.19893953491E-01 0.  0.
         14    1    1    2    0    0  0.91667607644E-02 -0.10283291571E-01 -0.19584345079E-01  0.23944146688E-01  0.00000000000E+00 0.  1.
     999901    1    3    3    0    0  0.76778093198E-01 -0.85156252692E-01  0.40433573281E-01  0.88835878834E+00  0.88000000000E+00 0.  1.
        -11    1    4    4    0    0 -0.36616073988E-01  0.30413038996E-01 -0.93348997295E-03  0.47611157723E-01  0.51100000000E-03 0. -1.
         11    1    4    4    0    0 -0.49328779975E-01  0.65026505267E-01 -0.19915738229E-01  0.84015907251E-01  0.51100000000E-03 0.  1.
</event>
<event>
 8    1  0.1075206E+005  0.1043930E+01  0.7957747E-01            NaN
         13   -1    0    0    0    0  0.00000000000E+00  0.00000000000E+00  0.74505805969E-08  0.10566000000E+00  0.10566000000E+00 0.  1.
     999900   -1    0    0    0    0 -0.00000000000E+00 -0.00000000000E+00 -0.74505805969E-08  0.93827000000E+00  0.93827000000E+00 0.  1.
     999902    2    1    2    0    0  0.24265445323E-02  0.22497786130E-01  0.64033764132E-02  0.10204131607E+01  0.10201421356E+01 0.  0.
     999903    2    3    3    0    0  0.52395029612E-01  0.76118040048E-01 -0.91865340453E-01  0.13191514620E+00  0.20571093116E-01 0.  0.
         14    1    1    2    0    0 -0.24265445323E-02 -0.22497786130E-01 -0.64033764132E-02  0.23516839257E-01  0.00000000000E+00 0.  1.
     999901    1    3    3    0    0 -0.49968485079E-01 -0.53620253917E-01  0.98268716866E-01  0.88849801454E+00  0.88000000000E+00 0. -1.
        -11    1    4    4    0    0  0.27725342920E-01  0.50243855875E-01 -0.67749894439E-01  0.88788788767E-01  0.51100000000E-03 0. -1.
         11    1    4    4    0    0  0.24669686691E-01  0.25874184173E-01 -0.24115446014E-01  0.43126357434E-01  0.51100000000E-03 0.  1.
</event>
<event>
 8    1  0.1075206E+005  0.1043930E+01  0.7957747E-01            NaN
         13   -1    0    0    0    0  0.00000000000E+00  0.00000000000E+00  0.74505805969E-08  0.10566000000E+00  0.10566000000E+00 0. -1.
     999900   -1    0    0    0    0 -0.00000000000E+00 -0.00000000000E+00 -0.74505805969E-08  0.93827000000E+00  0.93827000000E+00 0.  1.
     999902    2    1    2    0    0 -0.50099728053E-02  0.23280582886E-01 -0.42113597798E-02  0.10197469291E+01  0.10194601407E+01 0.  0.
     999903    2    3    3    0    0  0.10209661785E+00  0.31417187724E-01 -0.73257141873E-01  0.13053078770E+00  0.16152976205E-01 0.  0.
         14    1    1    2    0    0  0.50099728053E-02 -0.23280582886E-01  0.42113597798E-02  0.24183070901E-01  0.00000000000E+00 0. -1.
     999901    1    3    3    0    0 -0.10710659066E+00 -0.81366048385E-02  0.69045782094E-01  0.88921614140E+00  0.88000000000E+00 0. -1.
        -11    1    4    4    0    0  0.35071117918E-01  0.98313012395E-02 -0.16056360412E-01  0.39808361267E-01  0.51100000000E-03 0.  1.
         11    1    4    4    0    0  0.67025499935E-01  0.21585886485E-01 -0.57200781461E-01  0.90722426432E-01  0.51100000000E-03 0. -1.
</event>
<event>
 8    1  0.1075206E+005  0.1043930E+01  0.7957747E-01            NaN
         13   -1    0    0    0    0  0.00000000000E+00  0.00000000000E+00  0.74505805969E-08  0.10566000000E+00  0.10566000000E+00 0.  1.
     999900   -1    0    0    0    0 -0.00000000000E+00 -0.00000000000E+00 -0.74505805969E-08  0.93827000000E+00  0.93827000000E+00 0.  1.
     999902    2    1    2    0    0  0.94992377484E-02 -0.12366353299E-01  0.17665878960E-01  0.10203663523E+01  0.10200942346E+01 0.  0.
     999903    2    3    3    0    0  0.10750213810E+00  0.71785756706E-01  0.52471048418E-02  0.13084942049E+00  0.19599341084E-01 0.  0.
         14    1    1    2    0    0 -0.94992377484E-02  0.12366353299E-01 -0.17665878960E-01  0.23563647662E-01  0.00000000000E+00 0. -1.
     999901    1    3    3    0    0 -0.98002900353E-01 -0.84152110004E-01  0.12418774118E-01  0.88951693185E+00  0.88000000000E+00 0. -1.
        -11    1    4    4    0    0  0.82974347229E-01  0.63099360744E-01 -0.28210146567E-03  0.10424304450E+00  0.51100000000E-03 0. -1.
         11    1    4    4    0    0  0.24527790873E-01  0.86863959618E-02  0.55292063075E-02  0.26606375989E-01  0.51100000000E-03 0.  1.
</event>
<event>
 8    1  0.1075206E+005  0.1043930E+01  0.7957747E-01            NaN
         13   -1    0    0    0    0  0.00000000000E+00  0.00000000000E+00  0.74505805969E-08  0.10566000000E+00  0.10566000000E+00 0.  1.
     999900   -1    0    0    0    0 -0.00000000000E+00 -0.00000000000E+00 -0.74505805969E-08  0.93827000000E+00  0.93827000000E+00 0. -1.
     999902    2    1    2    0    0 -0.10774878091E-01  0.19470801965E-01 -0.85245607552E-02  0.10200998035E+01  0.10198214211E+01 0.  0.
     999903    2    3    3    0    0 -0.94521277204E-01 -0.80335678614E-01 -0.34012183624E-01  0.13014226981E+00  0.19801228598E-01 0.  0.
         14    1    1    2    0    0  0.10774878091E-01 -0.19470801965E-01  0.85245607552E-02  0.23830196455E-01  0.00000000000E+00 0.  1.
     999901    1    3    3    0    0  0.83746399113E-01  0.99806480579E-01  0.25487622868E-01  0.88995753373E+00  0.88000000000E+00 0.  1.
        -11    1    4    4    0    0 -0.40580963946E-01 -0.31541675303E-01 -0.23973460095E-01  0.56715781099E-01  0.51100000000E-03 0. -1.
         11    1    4    4    0    0 -0.53940313258E-01 -0.48794003311E-01 -0.10038723529E-01  0.73426488712E-01  0.51100000000E-03 0.  1.
</event>
<event>
 8    1  0.1075206E+005  0.1043930E+01  0.7957747E-01            NaN
         13   -1    0    0    0    0  0.00000000000E+00  0.00000000000E+00  0.74505805969E-08  0.10566000000E+00  0.10566000000E+00 0. -1.
     999900   -1    0    0    0    0 -0.00000000000E+00 -0.00000000000E+00 -0.74505805969E-08  0.93827000000E+00  0.93827000000E+00 0. -1.
     999902    2    1    2    0    0  0.15994569934E-01  0.57718353867E-02 -0.16430959726E-01  0.10202843495E+01  0.10200103122E+01 0.  0.
     999903    2    3    3    0    0 -0.22749449473E-01 -0.31799962844E-01  0.12001249063E+00  0.12813550864E+00  0.22066616835E-01 0.  0.
         14    1    1    2    0    0 -0.15994569934E-01 -0.57718353867E-02  0.16430959726E-01  0.23645650522E-01  0.00000000000E+00 0. -1.
     999901    1    3    3    0    0  0.38744019407E-01  0.37571798231E-01 -0.13644345036E+00  0.89214884084E+00  0.88000000000E+00 0. -1.
        -11    1    4    4    0    0 -0.23152557570E-01 -0.20802571042E-01  0.10498147117E+00  0.10949958125E+00  0.51100000000E-03 0.  1.
         11    1    4    4    0    0  0.40310809642E-03 -0.10997391802E-01  0.15031019457E-01  0.18635927385E-01  0.51100000000E-03 0. -1.
</event>
<event>
 8    1  0.1075206E+005  0.1043930E+01  0.7957747E-01            NaN
         13   -1    0    0    0    0  0.00000000000E+00  0.00000000000E+00  0.74505805969E-08  0.10566000000E+00  0.10566000000E+00 0. -1.
     999900   -1    0    0    0    0 -0.00000000000E+00 -0.00000000000E+00 -0.74505805969E-08  0.93827000000E+00  0.93827000000E+00 0. -1.
     999902    2    1    2    0    0  0.89488292318E-02  0.23960198128E-02  0.20813138479E-01  0.10211482268E+01  0.10208940650E+01 0.  0.
     999903    2    3    3    0    0 -0.25701916028E-03  0.46410893661E-01 -0.11858266622E+00  0.12904215290E+00  0.20880406828E-01 0.  0.
         14    1    1    2    0    0 -0.89488292318E-02 -0.23960198128E-02 -0.20813138479E-01  0.22781773173E-01  0.00000000000E+00 0.  1.
     999901    1    3    3    0    0  0.92058483921E-02 -0.44014873848E-01  0.13939580470E+00  0.89210607392E+00  0.88000000000E+00 0.  1.
        -11    1    4    4    0    0  0.82081767136E-02  0.25536038900E-01 -0.79805657635E-01  0.84194225213E-01  0.51100000000E-03 0. -1.
         11    1    4    4    0    0 -0.84651958739E-02  0.20874854761E-01 -0.38777008583E-01  0.44847927690E-01  0.51100000000E-03 0.  1.
</event>
<event>
 8    1  0.1075206E+005  0.1043930E+01  0.7957747E-01            NaN
         13   -1    0    0    0    0  0.00000000000E+00  0.00000000000E+00  0.74505805969E-08  0.10566000000E+00  0.10566000000E+00 0. -1.
     999900   -1    0    0    0    0 -0.00000000000E+00 -0.00000000000E+00 -0.74505805969E-08  0.93827000000E+00  0.93827000000E+00 0.  1.
     999902    2    1    2    0    0  0.52337700961E-04  0.46098812110E-02 -0.22364126434E-01  0.10210956422E+01  0.10208402924E+01 0.  0.
     999903    2    3    3    0    0 -0.80513108187E-01 -0.10140772005E+00 -0.34695607893E-02  0.13087795679E+00  0.18738074755E-01 0.  0.
         14    1    1    2    0    0 -0.52337700961E-04 -0.46098812110E-02  0.22364126434E-01  0.22834357779E-01  0.00000000000E+00 0. -1.
     999901    1    3    3    0    0  0.80565445888E-01  0.10601760126E+00 -0.18894565644E-01  0.89021768543E+00  0.88000000000E+00 0. -1.
        -11    1    4    4    0    0 -0.41069389708E-01 -0.65751101943E-01 -0.49538384064E-02  0.77683356091E-01  0.51100000000E-03 0.  1.
         11    1    4    4    0    0 -0.39443718479E-01 -0.35656618105E-01  0.14842776170E-02  0.53194600696E-01  0.51100000000E-03 0. -1.
</event>
<event>
 8    1  0.1075206E+005  0.1043930E+01  0.7957747E-01            NaN
         13   -1    0    0    0    0  0.00000000000E+00  0.00000000000E+00  0.74505805969E-08  0.10566000000E+00  0.10566000000E+00 0. -1.
     999900   -1    0    0    0    0 -0.00000000000E+00 -0.00000000000E+00 -0.74505805969E-08  0.93827000000E+00  0.93827000000E+00 0. -1.
     999902    2    1    2    0    0 -0.15253455282E-01 -0.23334282824E-02  0.15759627692E-01  0.10218737390E+01  0.10216356786E+01 0.  0.
     999903    2    3    3    0    0 -0.13109295452E+00  0.12470741536E-01 -0.12077638858E-01  0.13372236311E+00  0.19872566917E-01 0.  0.
         14    1    1    2    0    0  0.15253455282E-01  0.23334282824E-02 -0.15759627692E-01  0.22056261030E-01  0.00000000000E+00 0.  1.
     999901    1    3    3    0    0  0.11583949924E+00 -0.14804169818E-01  0.27837266550E-01  0.88815137586E+00  0.88000000000E+00 0.  1.
        -11    1    4    4    0    0 -0.10141752197E+00  0.15667184532E-01 -0.35769050536E-02  0.10268412635E+00  0.51100000000E-03 0. -1.
         11    1    4    4    0    0 -0.29675432558E-01 -0.31964429966E-02 -0.85007338041E-02  0.31038236766E-01  0.51100000000E-03 0.  1.
</event>
<event>
 8    1  0.1075206E+005  0.1043930E+01  0.7957747E-01            NaN
         13   -1    0    0    0    0  0.00000000000E+00  0.00000000000E+00  0.74505805969E-08  0.10566000000E+00  0.10566000000E+00 0. -1.
     999900   -1    0    0    0    0 -0.00000000000E+00 -0.00000000000E+00 -0.74505805969E-08  0.93827000000E+00  0.93827000000E+00 0. -1.
     999902    2    1    2    0    0 -0.65389315966E-04 -0.23360779423E-01 -0.39327862624E-02  0.10202404010E+01  0.10199653322E+01 0.  0.
     999903    2    3    3    0    0  0.13497820980E-01  0.11836035438E+00  0.42627076287E-01  0.12758332173E+00  0.16403404904E-01 0.  0.
         14    1    1    2    0    0  0.65389315966E-04  0.23360779423E-01  0.39327862624E-02  0.23689598958E-01  0.00000000000E+00 0.  1.
     999901    1    3    3    0    0 -0.13563210296E-01 -0.14172113380E+00 -0.46559862549E-01  0.89265707931E+00  0.88000000000E+00 0.  1.
        -11    1    4    4    0    0  0.15554570974E-01  0.76482998044E-01  0.31778164651E-01  0.84271623561E-01  0.51100000000E-03 0.  1.
         11    1    4    4    0    0 -0.20567499936E-02  0.41877356332E-01  0.10848911636E-01  0.43311698172E-01  0.51100000000E-03 0. -1.
</event>
<event>
 8    1  0.1075206E+005  0.1043930E+01  0.7957747E-01            NaN
         13   -1    0    0    0    0  0.00000000000E+00  0.00000000000E+00  0.74505805969E-08  0.10566000000E+00  0.10566000000E+00 0. -1.
     999900   -1    0    0    0    0 -0.00000000000E+00 -0.00000000000E+00 -0.74505805969E-08  0.93827000000E+00  0.93827000000E+00 0.  1.
     999902    2    1    2    0    0  0.17301285991E-01  0.22038373945E-02 -0.16456869773E-01  0.10199504262E+01  0.10196685010E+01 0.  0.
     999903    2    3    3    0    0 -0.93614628124E-01 -0.69244699439E-01 -0.52516024259E-01  0.12938459707E+00  0.20589175684E-01 0.  0.
         14    1    1    2    0    0 -0.17301285991E-01 -0.22038373945E-02  0.16456869773E-01  0.23979573785E-01  0.00000000000E+00 0. -1.
     999901    1    3    3    0    0  0.11091591412E+00  0.71448536834E-01  0.36059154486E-01  0.89056582915E+00  0.88000000000E+00 0. -1.
        -11    1    4    4    0    0 -0.75918372923E-01 -0.64111654079E-01 -0.40071470714E-01  0.10714423653E+00  0.51100000000E-03 0. -1.
         11    1    4    4    0    0 -0.17696255201E-01 -0.51330453599E-02 -0.12444553545E-01  0.22240360536E-01  0.51100000000E-03 0.  1.
</event>
<event>
 8    1  0.1075206E+005  0.1043930E+01  0.7957747E-01            NaN
         13   -1    0    0    0    0  0.00000000000E+00  0.00000000000E+00  0.74505805969E-08  0.10566000000E+00  0.10566000000E+00 0.  1.
     999900   -1    0    0    0    0 -0.00000000000E+00 -0.00000000000E+00 -0.74505805969E-08  0.93827000000E+00  0.93827000000E+00 0.  1.
     999902    2    1    2    0    0  0.19250802739E-01  0.11938348667E-01 -0.41947189183E-03  0.10212740178E+01  0.10210226862E+01 0.  0.
     999903    2    3    3    0    0 -0.10570973422E+00 -0.70272899686E-01  0.59060973943E-02  0.12862972242E+00  0.19947309749E-01 0.  0.
         14    1    1    2    0    0 -0.19250802739E-01 -0.11938348667E-01  0.41947189183E-03  0.22655982249E-01  0.00000000000E+00 0. -1.
     999901    1    3    3    0    0  0.12496053696E+00  0.82211248353E-01 -0.63255692862E-02  0.89264429533E+00  0.88000000000E+00 0.  1.
        -11    1    4    4    0    0 -0.50651127439E-01 -0.22874526190E-01 -0.15139778218E-02  0.55599765369E-01  0.51100000000E-03 0. -1.
         11    1    4    4    0    0 -0.55058606778E-01 -0.47398373496E-01  0.74200752161E-02  0.73029957056E-01  0.51100000000E-03 0.  1.
</event>
<event>
 8    1  0.1075206E+005  0.1043930E+01  0.7957747E-01            NaN
         13   -1    0    0    0    0  0.00000000000E+00  0.00000000000E+00  0.74505805969E-08  0.10566000000E+00  0.10566000000E+00 0. -1.
     999900   -1    0    0    0    0 -0.00000000000E+00 -0.00000000000E+00 -0.74505805969E-08  0.93827000000E+00  0.93827000000E+00 0. -1.
     999902    2    1    2    0    0  0.12248453448E-01  0.20704513390E-01  0.24405127445E-02  0.10197503063E+01  0.10194635989E+01 0.  0.
     999903    2    3    3    0    0  0.60254592356E-01 -0.82756136812E-01 -0.75664544860E-01  0.12895903131E+00  0.20642536851E-01 0.  0.
         14    1    1    2    0    0 -0.12248453448E-01 -0.20704513390E-01 -0.24405127445E-02  0.24179693734E-01  0.00000000000E+00 0.  1.
     999901    1    3    3    0    0 -0.48006138907E-01  0.10346065020E+00  0.78105057605E-01  0.89079127496E+00  0.88000000000E+00 0.  1.
        -11    1    4    4    0    0  0.32465312777E-01 -0.56793589001E-01 -0.39178818037E-01  0.76254502747E-01  0.51100000000E-03 0. -1.
         11    1    4    4    0    0  0.27789279579E-01 -0.25962547811E-01 -0.36485726823E-01  0.52704528564E-01  0.51100000000E-03 0.  1.
</event>
<event>
 8    1  0.1075206E+005  0.1043930E+01  0.7957747E-01            NaN
         13   -1    0    0    0    0  0.00000000000E+00  0.00000000000E+00  0.74505805969E-08  0.10566000000E+00  0.10566000000E+00 0. -1.
     999900   -1    0    0    0    0 -0.00000000000E+00 -0.00000000000E+00 -0.74505805969E-08  0.93827000000E+00  0.93827000000E+00 0.  1.
     999902    2    1    2    0    0 -0.13044203696E-01 -0.96622722571E-02 -0.16349890878E-01  0.10208902585E+01  0.10206302417E+01 0.  0.
     999903    2    3    3    0    0  0.35184029933E-01 -0.10131784452E+00 -0.75811051717E-01  0.13282363035E+00  0.19788371234E-01 0.  0.
         14    1    1    2    0    0  0.13044203696E-01  0.96622722571E-02  0.16349890878E-01  0.23039741469E-01  0.00000000000E+00 0. -1.
     999901    1    3    3    0    0 -0.48228233629E-01  0.91655572261E-01  0.59461160839E-01  0.88806662818E+00  0.88000000000E+00 0. -1.
        -11    1    4    4    0    0  0.33328178388E-01 -0.10142865571E+00 -0.72711741444E-01  0.12917351949E+00  0.51100000000E-03 0.  1.
         11    1    4    4    0    0  0.18558515449E-02  0.11081119040E-03 -0.30993102732E-02  0.36501108540E-02  0.51100000000E-03 0. -1.
</event>
<event>
 8    1  0.1075206E+005  0.1043930E+01  0.7957747E-01            NaN
         13   -1    0    0    0    0  0.00000000000E+00  0.00000000000E+00  0.74505805969E-08  0.10566000000E+00  0.10566000000E+00 0.  1.
     999900   -1    0    0    0    0 -0.00000000000E+00 -0.00000000000E+00 -0.74505805969E-08  0.93827000000E+00  0.93827000000E+00 0. -1.
     999902    2    1    2    0    0  0.93224682737E-02 -0.18352346625E-01  0.79122187212E-02  0.10218773302E+01  0.10216393481E+01 0.  0.
     999903    2    3    3    0    0 -0.13048844947E-01  0.12730581518E+00 -0.21744967656E-02  0.12956655607E+00  0.20142519281E-01 0.  0.
         14    1    1    2    0    0 -0.93224682737E-02  0.18352346625E-01 -0.79122187212E-02  0.22052669826E-01  0.00000000000E+00 0.  1.
     999901    1    3    3    0    0  0.22371313220E-01 -0.14565816180E+00  0.10086715487E-01  0.89231077411E+00  0.88000000000E+00 0.  1.
        -11    1    4    4    0    0 -0.15982743700E-01  0.10438685381E+00  0.38773074379E-02  0.10567572085E+00  0.51100000000E-03 0.  1.
         11    1    4    4    0    0  0.29338987532E-02  0.22918961372E-01 -0.60518042035E-02  0.23890835217E-01  0.51100000000E-03 0. -1.
</event>
<event>
 8    1  0.1075206E+005  0.1043930E+01  0.7957747E-01            NaN
         13   -1    0    0    0    0  0.00000000000E+00  0.00000000000E+00  0.74505805969E-08  0.10566000000E+00  0.10566000000E+00 0. -1.
     999900   -1    0    0    0    0 -0.00000000000E+00 -0.00000000000E+00 -0.74505805969E-08  0.93827000000E+00  0.93827000000E+00 0. -1.
     999902    2    1    2    0    0 -0.12275134101E-02 -0.12072835757E-01 -0.20925954750E-01  0.10197400076E+01  0.10194530530E+01 0.  0.
     999903    2    3    3    0    0  0.79189364379E-01 -0.86236030822E-01 -0.58169264399E-01  0.13218487245E+00  0.19533784603E-01 0.  0.
         14    1    1    2    0    0  0.12275134101E-02  0.12072835757E-01  0.20925954750E-01  0.24189992447E-01  0.00000000000E+00 0. -1.
     999901    1    3    3    0    0 -0.80416877790E-01  0.74163195065E-01  0.37243309649E-01  0.88755513510E+00  0.88000000000E+00 0.  1.
        -11    1    4    4    0    0  0.22589939081E-01 -0.36975614914E-01 -0.16598820183E-01  0.46403484765E-01  0.51100000000E-03 0. -1.
         11    1    4    4    0    0  0.56599425299E-01 -0.49260415908E-01 -0.41570444216E-01  0.85781387684E-01  0.51100000000E-03 0.  1.
</event>
<event>
 8    1  0.1075206E+005  0.1043930E+01  0.7957747E-01            NaN
         13   -1    0    0    0    0  0.00000000000E+00  0.00000000000E+00  0.74505805969E-08  0.10566000000E+00  0.10566000000E+00 0. -1.
     999900   -1    0    0    0    0 -0.00000000000E+00 -0.00000000000E+00 -0.74505805969E-08  0.93827000000E+00  0.93827000000E+00 0. -1.
     999902    2    1    2    0    0 -0.89526194569E-02 -0.10340850220E-01  0.20437621873E-01  0.10193377458E+01  0.10190410497E+01 0.  0.
     999903    2    3    3    0    0 -0.79853510839E-01  0.23959422886E-01 -0.95209814226E-01  0.12828344072E+00  0.21002268938E-01 0.  0.
         14    1    1    2    0    0  0.89526194569E-02  0.10340850220E-01 -0.20437621873E-01  0.24592254191E-01  0.00000000000E+00 0.  1.
     999901    1    3    3    0    0  0.70900891382E-01 -0.34300273105E-01  0.11564743610E+00  0.89105430508E+00  0.88000000000E+00 0.  1.
        -11    1    4    4    0    0 -0.14355715288E-01  0.88375742707E-02 -0.95020860827E-02  0.19358203464E-01  0.51100000000E-03 0.  1.
         11    1    4    4    0    0 -0.65497795551E-01  0.15121848615E-01 -0.85707728144E-01  0.10892523726E+00  0.51100000000E-03 0. -1.
</event>
<event>
 8    1  0.1075206E+005  0.1043930E+01  0.7957747E-01            NaN
         13   -1    0    0    0    0  0.00000000000E+00  0.00000000000E+00  0.74505805969E-08  0.10566000000E+00  0.10566000000E+00 0. -1.
     999900   -1    0    0    0    0 -0.00000000000E+00 -0.00000000000E+00 -0.74505805969E-08  0.93827000000E+00  0.93827000000E+00 0. -1.
     999902    2    1    2    0    0 -0.13215627525E-01  0.20814825676E-01 -0.76043674537E-02  0.10181281361E+01  0.10178011423E+01 0.  0.
     999903    2    3    3    0    0  0.96644065209E-01 -0.33287434534E-01  0.71678517600E-01  0.12611805623E+00  0.17883668056E-01 0.  0.
         14    1    1    2    0    0  0.13215627525E-01 -0.20814825676E-01  0.76043674537E-02  0.25801863948E-01  0.00000000000E+00 0.  1.
     999901    1    3    3    0    0 -0.10985969273E+00  0.54102260210E-01 -0.79282885054E-01  0.89201007983E+00  0.88000000000E+00 0. -1.
        -11    1    4    4    0    0  0.37863657969E-01 -0.40290756447E-02  0.24947907806E-01  0.45525259695E-01  0.51100000000E-03 0. -1.
         11    1    4    4    0    0  0.58780407239E-01 -0.29258358890E-01  0.46730609794E-01  0.80592796532E-01  0.51100000000E-03 0.  1.
</event>
<event>
 8    1  0.1075206E+005  0.1043930E+01  0.7957747E-01            NaN
         13   -1    0    0    0    0  0.00000000000E+00  0.00000000000E+00  0.74505805969E-08  0.10566000000E+00  0.10566000000E+00 0. -1.
     999900   -1    0    0    0    0 -0.00000000000E+00 -0.00000000000E+00 -0.74505805969E-08  0.93827000000E+00  0.93827000000E+00 0. -1.
     999902    2    1    2    0    0 -0.13537088398E-01 -0.16225893449E-01  0.98240940715E-02  0.10206266697E+01  0.10203605998E+01 0.  0.
     999903    2    3    3    0    0  0.66382804076E-01  0.86169401079E-01  0.66846252315E-01  0.12926618586E+00  0.20235686272E-01 0.  0.
         14    1    1    2    0    0  0.13537088398E-01  0.16225893449E-01 -0.98240940715E-02  0.23303330338E-01  0.00000000000E+00 0. -1.
     999901    1    3    3    0    0 -0.79919892473E-01 -0.10239529453E+00 -0.57022158243E-01  0.89136048380E+00  0.88000000000E+00 0. -1.
        -11    1    4    4    0    0  0.32059893052E-01  0.27470166686E-01  0.20200878645E-01  0.46805805401E-01  0.51100000000E-03 0. -1.
         11    1    4    4    0    0  0.34322911023E-01  0.58699234394E-01  0.46645373670E-01  0.82460380458E-01  0.51100000000E-03 0.  1.
</event>
<event>
 8    1  0.1075206E+005  0.1043930E+01  0.7957747E-01            NaN
         13   -1    0    0    0    0  0.00000000000E+00  0.00000000000E+00  0.74505805969E-08  0.10566000000E+00  0.10566000000E+00 0. -1.
     999900   -1    0    0    0    0 -0.00000000000E+00 -0.00000000000E+00 -0.74505805969E-08  0.93827000000E+00  0.93827000000E+00 0. -1.
     999902    2    1    2    0    0  0.40679061133E-02 -0.22294985421E-01  0.51501513632E-02  0.10206891245E+01  0.10204244953E+01 0.  0.
     999903    2    3    3    0    0  0.97574972389E-02 -0.28107643278E-01 -0.12521871644E+00  0.13104751119E+00  0.24667283558E-01 0.  0.
         14    1    1    2    0    0 -0.40679061133E-02  0.22294985421E-01 -0.51501513632E-02  0.23240875503E-01  0.00000000000E+00 0.  1.
     999901    1    3    3    0    0 -0.56895911256E-02  0.58126578569E-02  0.13036886781E+00  0.88964161331E+00  0.88000000000E+00 0.  1.
        -11    1    4    4    0    0  0.97263824433E-02 -0.24769095307E-01 -0.58801469394E-01  0.64544438348E-01  0.51100000000E-03 0. -1.
         11    1    4    4    0    0  0.31114795595E-04 -0.33385479705E-02 -0.66417247048E-01  0.66503072840E-01  0.51100000000E-03 0.  1.
</event>
<event>
 8    1  0.1075206E+005  0.1043930E+01  0.7957747E-01            NaN
         13   -1    0    0    0    0  0.00000000000E+00  0.00000000000E+00  0.74505805969E-08  0.10566000000E+00  0.10566000000E+00 0. -1.
     999900   -1    0    0    0    0 -0.00000000000E+00 -0.00000000000E+00 -0.74505805969E-08  0.93827000000E+00  0.93827000000E+00 0.  1.
     999902    2    1    2    0    0  0.61940358393E-04 -0.22865989065E-01 -0.22662598841E-02  0.10209518968E+01  0.10206932852E+01 0.  0.
     999903    2    3    3    0    0 -0.21577980402E-02  0.55242791163E-01 -0.11607953358E+00  0.13018853314E+00  0.20449302611E-01 0.  0.
         14    1    1    2    0    0 -0.61940358393E-04  0.22865989065E-01  0.22662598841E-02  0.22978103194E-01  0.00000000000E+00 0.  1.
     999901    1    3    3    0    0  0.22197383986E-02 -0.78108780229E-01  0.11381327369E+00  0.89076336367E+00  0.88000000000E+00 0. -1.
        -11    1    4    4    0    0  0.69165810964E-02  0.72870433825E-02 -0.22431959180E-01  0.24584426147E-01  0.51100000000E-03 0.  1.
         11    1    4    4    0    0 -0.90743791365E-02  0.47955747781E-01 -0.93647574395E-01  0.10560410699E+00  0.51100000000E-03 0. -1.
</event>
<event>
 8    1  0.1075206E+005  0.1043930E+01  0.7957747E-01            NaN
         13   -1    0    0    0    0  0.00000000000E+00  0.00000000000E+00  0.74505805969E-08  0.10566000000E+00  0.10566000000E+00 0. -1.
     999900   -1    0    0    0    0 -0.00000000000E+00 -0.00000000000E+00 -0.74505805969E-08  0.93827000000E+00  0.93827000000E+00 0. -1.
     999902    2    1    2    0    0 -0.15733634148E-01  0.53565157211E-02 -0.17988615315E-01  0.10194385773E+01  0.10191443387E+01 0.  0.
     999903    2    3    3    0    0 -0.89414939270E-01 -0.19003705918E-01 -0.94167861105E-01  0.13274492525E+00  0.19936321405E-01 0.  0.
         14    1    1    2    0    0  0.15733634148E-01 -0.53565157211E-02  0.17988615315E-01  0.24491422685E-01  0.00000000000E+00 0. -1.
     999901    1    3    3    0    0  0.73681305122E-01  0.24360221639E-01  0.76179245790E-01  0.88669365206E+00  0.88000000000E+00 0.  1.
        -11    1    4    4    0    0 -0.73304130444E-01 -0.22075650712E-01 -0.82881056532E-01  0.11282889943E+00  0.51100000000E-03 0. -1.
         11    1    4    4    0    0 -0.16110808827E-01  0.30719447935E-02 -0.11286804574E-01  0.19916025817E-01  0.51100000000E-03 0.  1.
</event>
<event>
 8    1  0.1075206E+005  0.1043930E+01  0.7957747E-01            NaN
         13   -1    0    0    0    0  0.00000000000E+00  0.00000000000E+00  0.74505805969E-08  0.10566000000E+00  0.10566000000E+00 0. -1.
     999900   -1    0    0    0    0 -0.00000000000E+00 -0.00000000000E+00 -0.74505805969E-08  0.93827000000E+00  0.93827000000E+00 0. -1.
     999902    2    1    2    0    0 -0.64647513837E-02  0.17851716103E-01 -0.13024149753E-01  0.10209059853E+01  0.10206463273E+01 0.  0.
     999903    2    3    3    0    0 -0.35713474973E-01  0.30850676565E-01 -0.12302043627E+00  0.13348069609E+00  0.21350689633E-01 0.  0.
         14    1    1    2    0    0  0.64647513837E-02 -0.17851716103E-01  0.13024149753E-01  0.23024014747E-01  0.00000000000E+00 0. -1.
     999901    1    3    3    0    0  0.29248723589E-01 -0.12998960462E-01  0.10999628652E+00  0.88742528917E+00  0.88000000000E+00 0.  1.
        -11    1    4    4    0    0 -0.16707900360E-01  0.16760120385E-01 -0.34416367156E-01  0.41770839338E-01  0.51100000000E-03 0.  1.
         11    1    4    4    0    0 -0.19005574613E-01  0.14090556180E-01 -0.88604069116E-01  0.91709856748E-01  0.51100000000E-03 0. -1.
</event>
<event>
 8    1  0.1075206E+005  0.1043930E+01  0.7957747E-01            NaN
         13   -1    0    0    0    0  0.00000000000E+00  0.00000000000E+00  0.74505805969E-08  0.10566000000E+00  0.10566000000E+00 0. -1.
     999900   -1    0    0    0    0 -0.00000000000E+00 -0.00000000000E+00 -0.74505805969E-08  0.93827000000E+00  0.93827000000E+00 0. -1.
     999902    2    1    2    0    0  0.10917560217E-01  0.59312997168E-02 -0.19459660559E-01  0.10208420848E+01  0.10205809671E+01 0.  0.
     999903    2    3    3    0    0 -0.88472018878E-01 -0.87872873106E-01 -0.30674410759E-01  0.13022247923E+00  0.21634108935E-01 0.  0.
         14    1    1    2    0    0 -0.10917560217E-01 -0.59312997168E-02  0.19459660559E-01  0.23087915161E-01  0.00000000000E+00 0. -1.
     999901    1    3    3    0    0  0.99389579094E-01  0.93804172822E-01  0.11214750200E-01  0.89061960561E+00  0.88000000000E+00 0. -1.
        -11    1    4    4    0    0 -0.23451081269E-01 -0.35599599216E-01 -0.49609396989E-02  0.42920353222E-01  0.51100000000E-03 0. -1.
         11    1    4    4    0    0 -0.65020937608E-01 -0.52273273890E-01 -0.25713471060E-01  0.87302126008E-01  0.51100000000E-03 0.  1.
</event>
<event>
 8    1  0.1075206E+005  0.1043930E+01  0.7957747E-01            NaN
         13   -1    0    0    0    0  0.00000000000E+00  0.00000000000E+00  0.74505805969E-08  0.10566000000E+00  0.10566000000E+00 0.  1.
     999900   -1    0    0    0    0 -0.00000000000E+00 -0.00000000000E+00 -0.74505805969E-08  0.93827000000E+00  0.93827000000E+00 0.  1.
     999902    2    1    2    0    0  0.68525333108E-03  0.92256468268E-02 -0.19945349721E-01  0.10219436609E+01  0.10217071239E+01 0.  0.
     999903    2    3    3    0    0 -0.47225889820E-01  0.83217265256E-01 -0.92455557420E-01  0.13457228010E+00  0.20156154611E-01 0.  0.
         14    1    1    2    0    0 -0.68525333108E-03 -0.92256468268E-02  0.19945349721E-01  0.21986339099E-01  0.00000000000E+00 0.  1.
     999901    1    3    3    0    0  0.47911143151E-01 -0.73991618429E-01  0.72510207700E-01  0.88737138080E+00  0.88000000000E+00 0. -1.
        -11    1    4    4    0    0 -0.96912718174E-02  0.15972346072E-01 -0.81583222176E-02  0.20392545964E-01  0.51100000000E-03 0.  1.
         11    1    4    4    0    0 -0.37534618003E-01  0.67244919184E-01 -0.84297235203E-01  0.11417973414E+00  0.51100000000E-03 0. -1.
</event>
<event>
 8    1  0.1075206E+005  0.1043930E+01  0.7957747E-01            NaN
         13   -1    0    0    0    0  0.00000000000E+00  0.00000000000E+00  0.74505805969E-08  0.10566000000E+00  0.10566000000E+00 0.  1.
     999900   -1    0    0    0    0 -0.00000000000E+00 -0.00000000000E+00 -0.74505805969E-08  0.93827000000E+00  0.93827000000E+00 0.  1.
     999902    2    1    2    0    0 -0.26896714032E-01 -0.45358884603E-02 -0.15978540934E-01  0.10123179567E+01  0.10118242556E+01 0.  0.
     999903    2    3    3    0    0  0.10112572689E+00  0.38168406419E-01  0.47549093489E-01  0.11976590641E+00  0.19992902708E-01 0.  0.
         14    1    1    2    0    0  0.26896714032E-01  0.45358884603E-02  0.15978540934E-01  0.31612043279E-01  0.00000000000E+00 0.  1.
     999901    1    3    3    0    0 -0.12802244092E+00 -0.42704294879E-01 -0.63527634423E-01  0.89255205031E+00  0.88000000000E+00 0.  1.
        -11    1    4    4    0    0  0.64610250034E-01  0.34014121264E-01  0.34553422788E-01  0.80781464472E-01  0.51100000000E-03 0.  1.
         11    1    4    4    0    0  0.36515476857E-01  0.41542851547E-02  0.12995670701E-01  0.38984441937E-01  0.51100000000E-03 0. -1.
</event>
<event>
 8    1  0.1075206E+005  0.1043930E+01  0.7957747E-01            NaN
         13   -1    0    0    0    0  0.00000000000E+00  0.00000000000E+00  0.74505805969E-08  0.10566000000E+00  0.10566000000E+00 0. -1.
     999900   -1    0    0    0    0 -0.00000000000E+00 -0.00000000000E+00 -0.74505805969E-08  0.93827000000E+00  0.93827000000E+00 0.  1.
     999902    2    1    2    0    0  0.13547348574E-01  0.18707241578E-01 -0.67269104059E-02  0.10198729249E+01  0.10195891525E+01 0.  0.
     999903    2    3    3    0    0  0.44616838716E-03  0.12145580884E+00 -0.49701067696E-01  0.13275642338E+00  0.20058894575E-01 0.  0.
         14    1    1    2    0    0 -0.13547348574E-01 -0.18707241578E-01  0.67269104059E-02  0.24057075144E-01  0.00000000000E+00 0.  1.
     999901    1    3    3    0    0  0.13101180187E-01 -0.10274856726E+00  0.42974157290E-01  0.88711650148E+00  0.88000000000E+00 0. -1.
        -11    1    4    4    0    0  0.45154712555E-02  0.11386807455E+00 -0.42876669260E-01  0.12175794747E+00  0.51100000000E-03 0.  1.
         11    1    4    4    0    0 -0.40693028683E-02  0.75877342849E-02 -0.68243984367E-02  0.10998475914E-01  0.51100000000E-03 0. -1.
</event>
<event>
 8    1  0.1075206E+005  0.1043930E+01  0.7957747E-01            NaN
         13   -1    0    0    0    0  0.00000000000E+00  0.00000000000E+00  0.74505805969E-08  0.10566000000E+00  0.10566000000E+00 0.  1.
     999900   -1    0    0    0    0 -0.00000000000E+00 -0.00000000000E+00 -0.74505805969E-08  0.93827000000E+00  0.93827000000E+00 0.  1.
     999902    2    1    2    0    0  0.17767937425E-01  0.16339528117E-01  0.20906108248E-01  0.10119965514E+01  0.10114925975E+01 0.  0.
     999903    2    3    3    0    0 -0.96985153177E-01  0.27000642277E-01  0.69757278750E-01  0.12313865046E+00  0.12723783915E-01 0.  0.
         14    1    1    2    0    0 -0.17767937425E-01 -0.16339528117E-01 -0.20906108248E-01  0.31933448631E-01  0.00000000000E+00 0. -1.
     999901    1    3    3    0    0  0.11475309060E+00 -0.10661114160E-01 -0.48851170503E-01  0.88885790091E+00  0.88000000000E+00 0.  1.
        -11    1    4    4    0    0 -0.79769510517E-01  0.19500623971E-01  0.51439174014E-01  0.96900458655E-01  0.51100000000E-03 0. -1.
         11    1    4    4    0    0 -0.17215642660E-01  0.75000183061E-02  0.18318104737E-01  0.26238191800E-01  0.51100000000E-03 0.  1.
</event>
<event>
 8    1  0.1075206E+005  0.1043930E+01  0.7957747E-01            NaN
         13   -1    0    0    0    0  0.00000000000E+00  0.00000000000E+00  0.74505805969E-08  0.10566000000E+00  0.10566000000E+00 0. -1.
     999900   -1    0    0    0    0 -0.00000000000E+00 -0.00000000000E+00 -0.74505805969E-08  0.93827000000E+00  0.93827000000E+00 0.  1.
     999902    2    1    2    0    0 -0.14603896220E-01  0.16052899959E-01  0.98776034378E-02  0.10200859980E+01  0.10198072891E+01 0.  0.
     999903    2    3    3    0    0  0.51237022008E-01 -0.78547833208E-01 -0.84204459547E-01  0.12759747717E+00  0.19892979832E-01 0.  0.
         14    1    1    2    0    0  0.14603896220E-01 -0.16052899959E-01 -0.98776034378E-02  0.23844002005E-01  0.00000000000E+00 0.  1.
     999901    1    3    3    0    0 -0.65840918229E-01  0.94600733167E-01  0.94082062985E-01  0.89248852083E+00  0.88000000000E+00 0. -1.
        -11    1    4    4    0    0  0.21629540856E-01 -0.16931654168E-01 -0.22645763897E-01  0.35603506765E-01  0.51100000000E-03 0. -1.
         11    1    4    4    0    0  0.29607481152E-01 -0.61616179040E-01 -0.61558695650E-01  0.91993970405E-01  0.51100000000E-03 0.  1.
</event>
<event>
 7    1  0.1075206E+005  0.1043930E+01  0.7957747E-01            NaN
         13   -1    0    0    0    0  0.00000000000E+00  0.00000000000E+00  0.74505805969E-08  0.10566000000E+00  0.10566000000E+00 0. -1.
     999900   -1    0    0    0    0 -0.00000000000E+00 -0.00000000000E+00 -0.74505805969E-08  0.93827000000E+00  0.93827000000E+00 0. -1.
     999902    2    1    2    0    0 -0.13636410342E-03  0.15811859085E-01 -0.18048983923E-01  0.10199341815E+01  0.10196518697E+01 0.  0.
         14    1    1    2    0    0  0.13636410342E-03 -0.15811859085E-01  0.18048983923E-01  0.23995818460E-01  0.00000000000E+00 0. -1.
     999901    1    3    3    0    0  0.72008837310E-02  0.40625519263E-01  0.10229371230E+00  0.88688572495E+00  0.88000000000E+00 0.  1.
        -11    1    3    3    0    0 -0.17587468879E-01 -0.27539307023E-01 -0.11763481957E+00  0.12208990289E+00  0.51100000000E-03 0. -1.
         11    1    3    3    0    0  0.10250221044E-01  0.27256468446E-02 -0.27078766555E-02  0.10958553698E-01  0.51100000000E-03 0.  1.
</event>
<event>
 8    1  0.1075206E+005  0.1043930E+01  0.7957747E-01            NaN
         13   -1    0    0    0    0  0.00000000000E+00  0.00000000000E+00  0.74505805969E-08  0.10566000000E+00  0.10566000000E+00 0. -1.
     999900   -1    0    0    0    0 -0.00000000000E+00 -0.00000000000E+00 -0.74505805969E-08  0.93827000000E+00  0.93827000000E+00 0.  1.
     999902    2    1    2    0    0 -0.18058451475E-01  0.87613645307E-02 -0.13831905518E-01  0.10195539710E+01  0.10192625320E+01 0.  0.
     999903    2    3    3    0    0 -0.12265064084E+00  0.43156354867E-01 -0.17404020662E-01  0.13268571619E+00  0.19923571016E-01 0.  0.
         14    1    1    2    0    0  0.18058451475E-01 -0.87613645307E-02  0.13831905518E-01  0.24376028971E-01  0.00000000000E+00 0. -1.
     999901    1    3    3    0    0  0.10459218936E+00 -0.34394990336E-01  0.35721151444E-02  0.88686825484E+00  0.88000000000E+00 0.  1.
        -11    1    4    4    0    0 -0.54378758661E-01  0.26232716443E-01 -0.66483891837E-03  0.60381354219E-01  0.51100000000E-03 0. -1.
         11    1    4    4    0    0 -0.68271882177E-01  0.16923638424E-01 -0.16739181744E-01  0.72304361971E-01  0.51100000000E-03 0.  1.
</event>
<event>
 8    1  0.1075206E+005  0.1043930E+01  0.7957747E-01            NaN
         13   -1    0    0    0    0  0.00000000000E+00  0.00000000000E+00  0.74505805969E-08  0.10566000000E+00  0.10566000000E+00 0.  1.
     999900   -1    0    0    0    0 -0.00000000000E+00 -0.00000000000E+00 -0.74505805969E-08  0.93827000000E+00  0.93827000000E+00 0. -1.
     999902    2    1    2    0    0  0.40186197032E-02 -0.15200414055E-01  0.18318220398E-01  0.10197895963E+01  0.10195038311E+01 0.  0.
     999903    2    3    3    0    0 -0.10197107692E+00  0.40631312087E-01 -0.63030048605E-01  0.12795522923E+00  0.18728310392E-01 0.  0.
         14    1    1    2    0    0 -0.40186197032E-02  0.15200414055E-01 -0.18318220398E-01  0.24140403690E-01  0.00000000000E+00 0. -1.
     999901    1    3    3    0    0  0.10598969662E+00 -0.55831726142E-01  0.81348269003E-01  0.89183436708E+00  0.88000000000E+00 0. -1.
        -11    1    4    4    0    0 -0.41025174728E-01  0.25994734028E-01 -0.24793313816E-01  0.54532198650E-01  0.51100000000E-03 0. -1.
         11    1    4    4    0    0 -0.60945902193E-01  0.14636578059E-01 -0.38236734790E-01  0.73423030581E-01  0.51100000000E-03 0.  1.
</event>
<event>
 8    1  0.1075206E+005  0.1043930E+01  0.7957747E-01            NaN
         13   -1    0    0    0    0  0.00000000000E+00  0.00000000000E+00  0.74505805969E-08  0.10566000000E+00  0.10566000000E+00 0. -1.
     999900   -1    0    0    0    0 -0.00000000000E+00 -0.00000000000E+00 -0.74505805969E-08  0.93827000000E+00  0.93827000000E+00 0. -1.
     999902    2    1    2    0    0 -0.41725443675E-02  0.16195089591E-01  0.14556219327E-01  0.10217585189E+01  0.10215179374E+01 0.  0.
     999903    2    3    3    0    0  0.10442864450E+00  0.52558825805E-01 -0.56561998447E-01  0.13149207539E+00  0.20570227501E-01 0.  0.
         14    1    1    2    0    0  0.41725443675E-02 -0.16195089591E-01 -0.14556219327E-01  0.22171481107E-01  0.00000000000E+00 0.  1.
     999901    1    3    3    0    0 -0.10860118887E+00 -0.36363736213E-01  0.71118217774E-01  0.89026644351E+00  0.88000000000E+00 0.  1.
        -11    1    4    4    0    0  0.77583850391E-01  0.37588877010E-01 -0.31350086312E-01  0.91734761946E-01  0.51100000000E-03 0. -1.
         11    1    4    4    0    0  0.26844794107E-01  0.14969948794E-01 -0.25211912135E-01  0.39757313441E-01  0.51100000000E-03 0.  1.
</event>
<event>
 8    1  0.1075206E+005  0.1043930E+01  0.7957747E-01            NaN
         13   -1    0    0    0    0  0.00000000000E+00  0.00000000000E+00  0.74505805969E-08  0.10566000000E+00  0.10566000000E+00 0. -1.
     999900   -1    0    0    0    0 -0.00000000000E+00 -0.00000000000E+00 -0.74505805969E-08  0.93827000000E+00  0.93827000000E+00 0. -1.
     999902    2    1    2    0    0 -0.10581637555E-02 -0.17458568896E-01  0.15328045470E-01  0.10206733812E+01  0.10204083892E+01 0.  0.
     999903    2    3    3    0    0 -0.60741434451E-01 -0.91766514358E-01  0.73236369910E-01  0.13363497305E+00  0.19599110373E-01 0.  0.
         14    1    1    2    0    0  0.10581637555E-02  0.17458568896E-01 -0.15328045470E-01  0.23256618765E-01  0.00000000000E+00 0. -1.
     999901    1    3    3    0    0  0.59683270696E-01  0.74307945462E-01 -0.57908324440E-01  0.88703840819E+00  0.88000000000E+00 0.  1.
        -11    1    4    4    0    0 -0.49624242434E-01 -0.73058694792E-01  0.67395944200E-01  0.11109731202E+00  0.51100000000E-03 0. -1.
         11    1    4    4    0    0 -0.11117192018E-01 -0.18707819566E-01  0.58404257093E-02  0.22537661031E-01  0.51100000000E-03 0.  1.
</event>
<event>
 8    1  0.1075206E+005  0.1043930E+01  0.7957747E-01            NaN
         13   -1    0    0    0    0  0.00000000000E+00  0.00000000000E+00  0.74505805969E-08  0.10566000000E+00  0.10566000000E+00 0.  1.
     999900   -1    0    0    0    0 -0.00000000000E+00 -0.00000000000E+00 -0.74505805969E-08  0.93827000000E+00  0.93827000000E+00 0.  1.
     999902    2    1    2    0    0 -0.28607688830E-01  0.10752637764E-01 -0.15049776129E-01  0.10098636700E+01  0.10092889166E+01 0.  0.
     999903    2    3    3    0    0  0.42595740660E-01  0.49865746343E-03 -0.11059373972E+00  0.12177374128E+00  0.27986121900E-01 0.  0.
         14    1    1    2    0    0  0.28607688830E-01 -0.10752637764E-01  0.15049776129E-01  0.34066330013E-01  0.00000000000E+00 0. -1.
     999901    1    3    3    0    0 -0.71203429489E-01  0.10253980300E-01  0.95543963594E-01  0.88808992870E+00  0.88000000000E+00 0. -1.
        -11    1    4    4    0    0  0.17890828393E-01 -0.11266600437E-01 -0.67393193731E-01  0.70633715096E-01  0.51100000000E-03 0. -1.
         11    1    4    4    0    0  0.24704912267E-01  0.11765257901E-01 -0.43200545992E-01  0.51140026189E-01  0.51100000000E-03 0.  1.
</event>
<event>
 8    1  0.1075206E+005  0.1043930E+01  0.7957747E-01            NaN
         13   -1    0    0    0    0  0.00000000000E+00  0.00000000000E+00  0.74505805969E-08  0.10566000000E+00  0.10566000000E+00 0. -1.
     999900   -1    0    0    0    0 -0.00000000000E+00 -0.00000000000E+00 -0.74505805969E-08  0.93827000000E+00  0.93827000000E+00 0. -1.
     999902    2    1    2    0    0 -0.84916485748E-02  0.13239684801E-01 -0.24968871660E-01  0.10144199695E+01  0.10139906472E+01 0.  0.
     999903    2    3    3    0    0 -0.98834224123E-01 -0.60835227581E-01  0.39940777599E-01  0.12432888641E+00  0.19831225572E-01 0.  0.
         14    1    1    2    0    0  0.84916485748E-02 -0.13239684801E-01  0.24968871660E-01  0.29510030517E-01  0.00000000000E+00 0. -1.
     999901    1    3    3    0    0  0.90342575548E-01  0.74074912382E-01 -0.64909649259E-01  0.89009108307E+00  0.88000000000E+00 0. -1.
        -11    1    4    4    0    0 -0.69049292487E-01 -0.42383309620E-01  0.18034900090E-01  0.83004026827E-01  0.51100000000E-03 0. -1.
         11    1    4    4    0    0 -0.29784931637E-01 -0.18451917961E-01  0.21905877509E-01  0.41324859582E-01  0.51100000000E-03 0.  1.
</event>
<event>
 8    1  0.1075206E+005  0.1043930E+01  0.7957747E-01            NaN
         13   -1    0    0    0    0  0.00000000000E+00  0.00000000000E+00  0.74505805969E-08  0.10566000000E+00  0.10566000000E+00 0.  1.
     999900   -1    0    0    0    0 -0.00000000000E+00 -0.00000000000E+00 -0.74505805969E-08  0.93827000000E+00  0.93827000000E+00 0.  1.
     999902    2    1    2    0    0 -0.70389161245E-02  0.13228056062E-01  0.23014076801E-01  0.10164677434E+01  0.10160966971E+01 0.  0.
     999903    2    3    3    0    0  0.11425677138E+00  0.44574821215E-01  0.28659429374E-01  0.12757678635E+00  0.20321147359E-01 0.  0.
         14    1    1    2    0    0  0.70389161245E-02 -0.13228056062E-01 -0.23014076801E-01  0.27462256615E-01  0.00000000000E+00 0. -1.
     999901    1    3    3    0    0 -0.12129568751E+00 -0.31346765153E-01 -0.56453525724E-02  0.88889095704E+00  0.88000000000E+00 0.  1.
        -11    1    4    4    0    0  0.39704026023E-01  0.99586882545E-02  0.13474481267E-02  0.40959271132E-01  0.51100000000E-03 0.  1.
         11    1    4    4    0    0  0.74552745360E-01  0.34616132961E-01  0.27311981247E-01  0.86617515217E-01  0.51100000000E-03 0. -1.
</event>
<event>
 8    1  0.1075206E+005  0.1043930E+01  0.7957747E-01            NaN
         13   -1    0    0    0    0  0.00000000000E+00  0.00000000000E+00  0.74505805969E-08  0.10566000000E+00  0.10566000000E+00 0. -1.
     999900   -1    0    0    0    0 -0.00000000000E+00 -0.00000000000E+00 -0.74505805969E-08  0.93827000000E+00  0.93827000000E+00 0.  1.
     999902    2    1    2    0    0 -0.48440133670E-02  0.14541322279E-02 -0.21655748621E-01  0.10216915105E+01  0.10214494565E+01 0.  0.
     999903    2    3    3    0    0 -0.33320889275E-01 -0.74953956833E-01 -0.10408577380E+00  0.13408583366E+00  0.20415317168E-01 0.  0.
         14    1    1    2    0    0  0.48440133670E-02 -0.14541322279E-02  0.21655748621E-01  0.22238489480E-01  0.00000000000E+00 0. -1.
     999901    1    3    3    0    0  0.28476875908E-01  0.76408089061E-01  0.82430025179E-01  0.88760567686E+00  0.88000000000E+00 0. -1.
        -11    1    4    4    0    0 -0.33303631572E-01 -0.64900509901E-01 -0.81622170449E-01  0.10946984923E+00  0.51100000000E-03 0.  1.
         11    1    4    4    0    0 -0.17257702833E-04 -0.10053446932E-01 -0.22463603350E-01  0.24615984431E-01  0.51100000000E-03 0. -1.
</event>
<event>
 8    1  0.1075206E+005  0.1043930E+01  0.7957747E-01            NaN
         13   -1    0    0    0    0  0.00000000000E+00  0.00000000000E+00  0.74505805969E-08  0.10566000000E+00  0.10566000000E+00 0.  1.
     999900   -1    0    0    0    0 -0.00000000000E+00 -0.00000000000E+00 -0.74505805969E-08  0.93827000000E+00  0.93827000000E+00 0.  1.
     999902    2    1    2    0    0 -0.18747117288E-01 -0.15399466963E-01 -0.21440788543E-02  0.10195744039E+01  0.10192834591E+01 0.  0.
     999903    2    3    3    0    0  0.69019658060E-01  0.57328746862E-01  0.88469837373E-01  0.12760843940E+00  0.20166885354E-01 0.  0.
         14    1    1    2    0    0  0.18747117288E-01  0.15399466963E-01  0.21440788543E-02  0.24355596143E-01  0.00000000000E+00 0.  1.
     999901    1    3    3    0    0 -0.87766775348E-01 -0.72728213825E-01 -0.90613916228E-01  0.89196596446E+00  0.88000000000E+00 0.  1.
        -11    1    4    4    0    0  0.18856407071E-01  0.23230643650E-01  0.40053146792E-01  0.49997425744E-01  0.51100000000E-03 0. -1.
         11    1    4    4    0    0  0.50163250989E-01  0.34098103212E-01  0.48416690581E-01  0.77611013653E-01  0.51100000000E-03 0.  1.
</event>
<event>
 8    1  0.1075206E+005  0.1043930E+01  0.7957747E-01            NaN
         13   -1    0    0    0    0  0.00000000000E+00  0.00000000000E+00  0.74505805969E-08  0.10566000000E+00  0.10566000000E+00 0.  1.
     999900   -1    0    0    0    0 -0.00000000000E+00 -0.00000000000E+00 -0.74505805969E-08  0.93827000000E+00  0.93827000000E+00 0.  1.
     999902    2    1    2    0    0  0.45967039862E-02  0.18404471151E-01 -0.70808792991E-02  0.10236817137E+01  0.10234814399E+01 0.  0.
     999903    2    3    3    0    0 -0.36985427250E-01 -0.27639247681E-01 -0.12387513375E+00  0.13379970156E+00  0.20626718921E-01 0.  0.
         14    1    1    2    0    0 -0.45967039862E-02 -0.18404471151E-01  0.70808792991E-02  0.20248286286E-01  0.00000000000E+00 0.  1.
     999901    1    3    3    0    0  0.41582131236E-01  0.46043718832E-01  0.11679425446E+00  0.88988201215E+00  0.88000000000E+00 0. -1.
        -11    1    4    4    0    0 -0.26178123752E-01 -0.12036897549E-01 -0.51914357195E-01  0.59376280363E-01  0.51100000000E-03 0.  1.
         11    1    4    4    0    0 -0.10807303498E-01 -0.15602350132E-01 -0.71960776560E-01  0.74423421197E-01  0.51100000000E-03 0. -1.
</event>
<event>
 8    1  0.1075206E+005  0.1043930E+01  0.7957747E-01            NaN
         13   -1    0    0    0    0  0.00000000000E+00  0.00000000000E+00  0.74505805969E-08  0.10566000000E+00  0.10566000000E+00 0. -1.
     999900   -1    0    0    0    0 -0.00000000000E+00 -0.00000000000E+00 -0.74505805969E-08  0.93827000000E+00  0.93827000000E+00 0.  1.
     999902    2    1    2    0    0  0.14698544737E-01  0.14970958804E-02 -0.20560850537E-01  0.10186112898E+01  0.10182965789E+01 0.  0.
     999903    2    3    3    0    0 -0.73371421256E-02 -0.91486981160E-01 -0.91106093725E-01  0.13063142433E+00  0.18453924550E-01 0.  0.
         14    1    1    2    0    0 -0.14698544737E-01 -0.14970958804E-02  0.20560850537E-01  0.25318710241E-01  0.00000000000E+00 0. -1.
     999901    1    3    3    0    0  0.22035686863E-01  0.92984077040E-01  0.70545243188E-01  0.88797986543E+00  0.88000000000E+00 0. -1.
        -11    1    4    4    0    0  0.41883802042E-02 -0.47831296865E-01 -0.40573273099E-01  0.62863559392E-01  0.51100000000E-03 0. -1.
         11    1    4    4    0    0 -0.11525522330E-01 -0.43655684295E-01 -0.50532820626E-01  0.67767864934E-01  0.51100000000E-03 0.  1.
</event>
<event>
 8    1  0.1075206E+005  0.1043930E+01  0.7957747E-01            NaN
         13   -1    0    0    0    0  0.00000000000E+00  0.00000000000E+00  0.74505805969E-08  0.10566000000E+00  0.10566000000E+00 0.  1.
     999900   -1    0    0    0    0 -0.00000000000E+00 -0.00000000000E+00 -0.74505805969E-08  0.93827000000E+00  0.93827000000E+00 0.  1.
     999902    2    1    2    0    0  0.15140515727E-01 -0.10573346544E-01  0.16978446262E-01  0.10188441771E+01  0.10185353007E+01 0.  0.
     999903    2    3    3    0    0 -0.13807100269E-01  0.58149642423E-01  0.11415610586E+00  0.13035989968E+00  0.19750190025E-01 0.  0.
         14    1    1    2    0    0 -0.15140515727E-01  0.10573346544E-01 -0.16978446262E-01  0.25085822910E-01  0.00000000000E+00 0. -1.
     999901    1    3    3    0    0  0.28947615996E-01 -0.68722988967E-01 -0.97177659602E-01  0.88848427741E+00  0.88000000000E+00 0.  1.
        -11    1    4    4    0    0 -0.23834629832E-02  0.44279539685E-01  0.72451684194E-01  0.84946254738E-01  0.51100000000E-03 0.  1.
         11    1    4    4    0    0 -0.11423637286E-01  0.13870102738E-01  0.41704421670E-01  0.45413644939E-01  0.51100000000E-03 0. -1.
</event>
<event>
 8    1  0.1075206E+005  0.1043930E+01  0.7957747E-01            NaN
         13   -1    0    0    0    0  0.00000000000E+00  0.00000000000E+00  0.74505805969E-08  0.10566000000E+00  0.10566000000E+00 0.  1.
     999900   -1    0    0    0    0 -0.00000000000E+00 -0.00000000000E+00 -0.74505805969E-08  0.93827000000E+00  0.93827000000E+00 0.  1.
     999902    2    1    2    0    0 -0.89490286651E-02 -0.12714266169E-01 -0.16728175424E-01  0.10210921032E+01  0.10208366733E+01 0.  0.
     999903    2    3    3    0    0  0.99373985286E-01 -0.71586582678E-01 -0.44317834297E-01  0.13206959824E+00  0.21874198780E-01 0.  0.
         14    1    1    2    0    0  0.89490286651E-02  0.12714266169E-01  0.16728175424E-01  0.22837896822E-01  0.00000000000E+00 0.  1.
     999901    1    3    3    0    0 -0.10832301395E+00  0.58872316509E-01  0.27589658873E-01  0.88902250493E+00  0.88000000000E+00 0.  1.
        -11    1    4    4    0    0  0.44049468877E-01 -0.21700256888E-01 -0.25023110173E-01  0.55115097941E-01  0.51100000000E-03 0. -1.
         11    1    4    4    0    0  0.55324516410E-01 -0.49886325790E-01 -0.19294724123E-01  0.76954500302E-01  0.51100000000E-03 0.  1.
</event>
<event>
 8    1  0.1075206E+005  0.1043930E+01  0.7957747E-01            NaN
         13   -1    0    0    0    0  0.00000000000E+00  0.00000000000E+00  0.74505805969E-08  0.10566000000E+00  0.10566000000E+00 0. -1.
     999900   -1    0    0    0    0 -0.00000000000E+00 -0.00000000000E+00 -0.74505805969E-08  0.93827000000E+00  0.93827000000E+00 0.  1.
     999902    2    1    2    0    0 -0.20435459113E-01  0.20087100848E-01 -0.23838841549E-02  0.10151761739E+01  0.10147688809E+01 0.  0.
     999903    2    3    3    0    0 -0.59868861367E-01  0.64345577078E-01 -0.91810481104E-01  0.12866000253E+00  0.19989946430E-01 0.  0.
         14    1    1    2    0    0  0.20435459113E-01 -0.20087100848E-01  0.23838841549E-02  0.28753826064E-01  0.00000000000E+00 0. -1.
     999901    1    3    3    0    0  0.39433402254E-01 -0.44258476230E-01  0.89426596949E-01  0.88651617141E+00  0.88000000000E+00 0. -1.
        -11    1    4    4    0    0 -0.58006708271E-02  0.13406298544E-01 -0.23875345552E-01  0.27994104182E-01  0.51100000000E-03 0.  1.
         11    1    4    4    0    0 -0.54068190540E-01  0.50939278534E-01 -0.67935135552E-01  0.10066589834E+00  0.51100000000E-03 0. -1.
</event>
<event>
 8    1  0.1075206E+005  0.1043930E+01  0.7957747E-01            NaN
         13   -1    0    0    0    0  0.00000000000E+00  0.00000000000E+00  0.74505805969E-08  0.10566000000E+00  0.10566000000E+00 0. -1.
     999900   -1    0    0    0    0 -0.00000000000E+00 -0.00000000000E+00 -0.74505805969E-08  0.93827000000E+00  0.93827000000E+00 0.  1.
     999902    2    1    2    0    0  0.31419793572E-02 -0.13858532764E-01 -0.19701008546E-01  0.10196388349E+01  0.10193494459E+01 0.  0.
     999903    2    3    3    0    0  0.30262636047E-02  0.56137906457E-01 -0.11717726768E+00  0.13149406291E+00  0.19988839566E-01 0.  0.
         14    1    1    2    0    0 -0.31419793572E-02  0.13858532764E-01  0.19701008546E-01  0.24291165110E-01  0.00000000000E+00 0. -1.
     999901    1    3    3    0    0  0.11571575248E-03 -0.69996439220E-01  0.97476259137E-01  0.88814477198E+00  0.88000000000E+00 0. -1.
        -11    1    4    4    0    0  0.26891333879E-02  0.31773138408E-01 -0.43835222656E-01  0.54208409209E-01  0.51100000000E-03 0.  1.
         11    1    4    4    0    0  0.33713021679E-03  0.24364768049E-01 -0.73342045027E-01  0.77285653705E-01  0.51100000000E-03 0. -1.
</event>
<event>
 8    1  0.1075206E+005  0.1043930E+01  0.7957747E-01            NaN
         13   -1    0    0    0    0  0.00000000000E+00  0.00000000000E+00  0.74505805969E-08  0.10566000000E+00  0.10566000000E+00 0.  1.
     999900   -1    0    0    0    0 -0.00000000000E+00 -0.00000000000E+00 -0.74505805969E-08  0.93827000000E+00  0.93827000000E+00 0.  1.
     999902    2    1    2    0    0 -0.21140237460E-01  0.60912181778E-03 -0.10809003058E-01  0.10201788902E+01  0.10199023742E+01 0.  0.
     999903    2    3    3    0    0  0.89426717810E-01 -0.40859102360E-01  0.79241658872E-01  0.12773629433E+00  0.19253994015E-01 0.  0.
         14    1    1    2    0    0  0.21140237460E-01 -0.60912181778E-03  0.10809003058E-01  0.23751109793E-01  0.00000000000E+00 0.  1.
     999901    1    3    3    0    0 -0.11056695527E+00  0.41468224178E-01 -0.90050661931E-01  0.89244259587E+00  0.88000000000E+00 0.  1.
        -11    1    4    4    0    0  0.40399166073E-01 -0.27052613560E-01  0.45840263370E-01  0.66824601658E-01  0.51100000000E-03 0.  1.
         11    1    4    4    0    0  0.49027551736E-01 -0.13806488800E-01  0.33401395502E-01  0.60911692677E-01  0.51100000000E-03 0. -1.
</event>
<event>
 8    1  0.1075206E+005  0.1043930E+01  0.7957747E-01            NaN
         13   -1    0    0    0    0  0.00000000000E+00  0.00000000000E+00  0.74505805969E-08  0.10566000000E+00  0.10566000000E+00 0. -1.
     999900   -1    0    0    0    0 -0.00000000000E+00 -0.00000000000E+00 -0.74505805969E-08  0.93827000000E+00  0.93827000000E+00 0.  1.
     999902    2    1    2    0    0  0.12043649068E-01  0.44157325949E-02 -0.19685574113E-01  0.10204338300E+01  0.10201632866E+01 0.  0.
     999903    2    3    3    0    0 -0.54719410265E-01  0.89590565269E-01  0.72381603312E-01  0.12903693557E+00  0.19767422653E-01 0.  0.
         14    1    1    2    0    0 -0.12043649068E-01 -0.44157325949E-02  0.19685574113E-01  0.23496170015E-01  0.00000000000E+00 0. -1.
     999901    1    3    3    0    0  0.66763059333E-01 -0.85174832675E-01 -0.92067177425E-01  0.89139689441E+00  0.88000000000E+00 0.  1.
        -11    1    4    4    0    0 -0.26055888572E-01  0.41208651455E-01  0.45558507404E-01  0.66730060706E-01  0.51100000000E-03 0. -1.
         11    1    4    4    0    0 -0.28663521694E-01  0.48381913815E-01  0.26823095908E-01  0.62306874864E-01  0.51100000000E-03 0.  1.
</event>
<event>
 8    1  0.1075206E+005  0.1043930E+01  0.7957747E-01            NaN
         13   -1    0    0    0    0  0.00000000000E+00  0.00000000000E+00  0.74505805969E-08  0.10566000000E+00  0.10566000000E+00 0. -1.
     999900   -1    0    0    0    0 -0.00000000000E+00 -0.00000000000E+00 -0.74505805969E-08  0.93827000000E+00  0.93827000000E+00 0. -1.
     999902    2    1    2    0    0  0.24205331170E-03 -0.24109316030E-01  0.16344974082E-03  0.10198189149E+01  0.10195338517E+01 0.  0.
     999903    2    3    3    0    0 -0.50709878710E-01 -0.44193113358E-01 -0.10774710183E+00  0.13153734611E+00  0.34177659410E-01 0.  0.
         14    1    1    2    0    0 -0.24205331170E-03  0.24109316030E-01 -0.16344974082E-03  0.24111085107E-01  0.00000000000E+00 0.  1.
     999901    1    3    3    0    0  0.50951932021E-01  0.20083797328E-01  0.10791055157E+00  0.88828156878E+00  0.88000000000E+00 0.  1.
        -11    1    4    4    0    0 -0.34629503364E-01 -0.42918087580E-01 -0.61753841401E-01  0.82794702690E-01  0.51100000000E-03 0.  1.
         11    1    4    4    0    0 -0.16080375346E-01 -0.12750257779E-02 -0.45993260430E-01  0.48742643424E-01  0.51100000000E-03 0. -1.
</event>
<event>
 8    1  0.1075206E+005  0.1043930E+01  0.7957747E-01            NaN
         13   -1    0    0    0    0  0.00000000000E+00  0.00000000000E+00  0.74505805969E-08  0.10566000000E+00  0.10566000000E+00 0.  1.
     999900   -1    0    0    0    0 -0.00000000000E+00 -0.00000000000E+00 -0.74505805969E-08  0.93827000000E+00  0.93827000000E+00 0. -1.
     999902    2    1    2    0    0 -0.16576136121E-01 -0.54933755767E-03  0.16960370893E-01  0.10202081906E+01  0.10199323644E+01 0.  0.
     999903    2    3    3    0    0 -0.68518122463E-02  0.12238415018E+00 -0.38168453642E-01  0.12990128162E+00  0.19816270226E-01 0.  0.
         14    1    1    2    0    0  0.16576136121E-01  0.54933755767E-03 -0.16960370893E-01  0.23721809401E-01  0.00000000000E+00 0. -1.
     999901    1    3    3    0    0 -0.97243238743E-02 -0.12293348774E+00  0.55128824535E-01  0.89030690898E+00  0.88000000000E+00 0.  1.
        -11    1    4    4    0    0 -0.74323019929E-02  0.17917238837E-01 -0.92901931809E-02  0.21513608967E-01  0.51100000000E-03 0.  1.
         11    1    4    4    0    0  0.58048974667E-03  0.10446691135E+00 -0.28878260461E-01  0.10838767265E+00  0.51100000000E-03 0. -1.
</event>
<event>
 8    1  0.1075206E+005  0.1043930E+01  0.7957747E-01            NaN
         13   -1    0    0    0    0  0.00000000000E+00  0.00000000000E+00  0.74505805969E-08  0.10566000000E+00  0.10566000000E+00 0. -1.
     999900   -1    0    0    0    0 -0.00000000000E+00 -0.00000000000E+00 -0.74505805969E-08  0.93827000000E+00  0.93827000000E+00 0.  1.
     999902    2    1    2    0    0 -0.22334538397E-01  0.48938148787E-02 -0.60877906122E-02  0.10202690147E+01  0.10199946177E+01 0.  0.
     999903    2    3    3    0    0  0.67403389912E-01 -0.92319808510E-01 -0.56172191229E-01  0.12897117925E+00  0.20299901327E-01 0.  0.
         14    1    1    2    0    0  0.22334538397E-01 -0.48938148787E-02  0.60877906122E-02  0.23660985272E-01  0.00000000000E+00 0. -1.
     999901    1    3    3    0    0 -0.89737928309E-01  0.97213623388E-01  0.50084400617E-01  0.89129783548E+00  0.88000000000E+00 0. -1.
        -11    1    4    4    0    0  0.26404984968E-02 -0.11497968745E-01 -0.16378603879E-02  0.11921376817E-01  0.51100000000E-03 0. -1.
         11    1    4    4    0    0  0.64762891415E-01 -0.80821839765E-01 -0.54534330841E-01  0.11704980243E+00  0.51100000000E-03 0.  1.
</event>
<event>
 8    1  0.1075206E+005  0.1043930E+01  0.7957747E-01            NaN
         13   -1    0    0    0    0  0.00000000000E+00  0.00000000000E+00  0.74505805969E-08  0.10566000000E+00  0.10566000000E+00 0. -1.
     999900   -1    0    0    0    0 -0.00000000000E+00 -0.00000000000E+00 -0.74505805969E-08  0.93827000000E+00  0.93827000000E+00 0.  1.
     999902    2    1    2    0    0 -0.19393680113E-01 -0.60208538535E-02  0.12552544288E-01  0.10200567539E+01  0.10197773528E+01 0.  0.
     999903    2    3    3    0    0 -0.88436148087E-01 -0.96400117836E-01 -0.17673762828E-02  0.13262206120E+00  0.21715259425E-01 0.  0.
         14    1    1    2    0    0  0.19393680113E-01  0.60208538535E-02 -0.12552544288E-01  0.23873246063E-01  0.00000000000E+00 0.  1.
     999901    1    3    3    0    0  0.69042467974E-01  0.90379263982E-01  0.14319920571E-01  0.88743469273E+00  0.88000000000E+00 0.  1.
        -11    1    4    4    0    0 -0.63912440323E-01 -0.54259800800E-01 -0.19271446245E-02  0.83862393349E-01  0.51100000000E-03 0. -1.
         11    1    4    4    0    0 -0.24523707764E-01 -0.42140317036E-01  0.15976834172E-03  0.48759667855E-01  0.51100000000E-03 0.  1.
</event>
<event>
 8    1  0.1075206E+005  0.1043930E+01  0.7957747E-01            NaN
         13   -1    0    0    0    0  0.00000000000E+00  0.00000000000E+00  0.74505805969E-08  0.10566000000E+00  0.10566000000E+00 0. -1.
     999900   -1    0    0    0    0 -0.00000000000E+00 -0.00000000000E+00 -0.74505805969E-08  0.93827000000E+00  0.93827000000E+00 0.  1.
     999902    2    1    2    0    0 -0.24932232822E-02  0.11498208452E-01 -0.14665765726E-01  0.10251281478E+01  0.10249557112E+01 0.  0.
     999903    2    3    3    0    0 -0.28876872620E-01  0.11928136079E+00  0.53641921922E-01  0.13553315850E+00  0.20733172974E-01 0.  0.
         14    1    1    2    0    0  0.24932232822E-02 -0.11498208452E-01  0.14665765726E-01  0.18801852150E-01  0.00000000000E+00 0.  1.
     999901    1    3    3    0    0  0.26383649338E-01 -0.10778315234E+00 -0.68307687648E-01  0.88959498935E+00  0.88000000000E+00 0.  1.
        -11    1    4    4    0    0 -0.30283661623E-01  0.88044824836E-01  0.37966451224E-01  0.10055199591E+00  0.51100000000E-03 0.  1.
         11    1    4    4    0    0  0.14067890028E-02  0.31236535955E-01  0.15675470699E-01  0.34981162594E-01  0.51100000000E-03 0. -1.
</event>
<event>
 8    1  0.1075206E+005  0.1043930E+01  0.7957747E-01            NaN
         13   -1    0    0    0    0  0.00000000000E+00  0.00000000000E+00  0.74505805969E-08  0.10566000000E+00  0.10566000000E+00 0. -1.
     999900   -1    0    0    0    0 -0.00000000000E+00 -0.00000000000E+00 -0.74505805969E-08  0.93827000000E+00  0.93827000000E+00 0.  1.
     999902    2    1    2    0    0 -0.27935342191E-01 -0.11757234833E-02  0.53787035015E-02  0.10154572741E+01  0.10150580177E+01 0.  0.
     999903    2    3    3    0    0  0.58780518753E-01  0.81657955484E-01  0.71153956860E-01  0.12489147481E+00  0.20293442878E-01 0.  0.
         14    1    1    2    0    0  0.27935342191E-01  0.11757234833E-02 -0.53787035015E-02  0.28472725903E-01  0.00000000000E+00 0.  1.
     999901    1    3    3    0    0 -0.86715860944E-01 -0.82833678967E-01 -0.65775253359E-01  0.89056579929E+00  0.88000000000E+00 0.  1.
        -11    1    4    4    0    0  0.43453254052E-01  0.44932656676E-01  0.38526721455E-01  0.73428184716E-01  0.51100000000E-03 0.  1.
         11    1    4    4    0    0  0.15327264702E-01  0.36725298808E-01  0.32627235405E-01  0.51463290091E-01  0.51100000000E-03 0. -1.
</event>
<event>
 8    1  0.1075206E+005  0.1043930E+01  0.7957747E-01            NaN
         13   -1    0    0    0    0  0.00000000000E+00  0.00000000000E+00  0.74505805969E-08  0.10566000000E+00  0.10566000000E+00 0. -1.
     999900   -1    0    0    0    0 -0.00000000000E+00 -0.00000000000E+00 -0.74505805969E-08  0.93827000000E+00  0.93827000000E+00 0. -1.
     999902    2    1    2    0    0 -0.18272882932E-01  0.14278236329E-01 -0.23010207491E-02  0.10206263312E+01  0.10203602535E+01 0.  0.
     999903    2    3    3    0    0 -0.62843947177E-01  0.11463066261E+00 -0.18931657147E-01  0.13364619202E+00  0.20330924523E-01 0.  0.
         14    1    1    2    0    0  0.18272882932E-01 -0.14278236329E-01  0.23010207491E-02  0.23303668805E-01  0.00000000000E+00 0. -1.
     999901    1    3    3    0    0  0.44571064245E-01 -0.10035242628E+00  0.16630636398E-01  0.88698013918E+00  0.88000000000E+00 0.  1.
        -11    1    4    4    0    0 -0.56438487782E-01  0.11111859591E+00 -0.15609112496E-01  0.12560474025E+00  0.51100000000E-03 0. -1.
         11    1    4    4    0    0 -0.64054593951E-02  0.35120667005E-02 -0.33225446513E-02  0.80414517676E-02  0.51100000000E-03 0.  1.
</event>
<event>
 8    1  0.1075206E+005  0.1043930E+01  0.7957747E-01            NaN
         13   -1    0    0    0    0  0.00000000000E+00  0.00000000000E+00  0.74505805969E-08  0.10566000000E+00  0.10566000000E+00 0.  1.
     999900   -1    0    0    0    0 -0.00000000000E+00 -0.00000000000E+00 -0.74505805969E-08  0.93827000000E+00  0.93827000000E+00 0.  1.
     999902    2    1    2    0    0  0.34117103021E-02 -0.16915837938E-01 -0.14817867520E-01  0.10211845710E+01  0.10209312286E+01 0.  0.
     999903    2    3    3    0    0  0.29138237564E-01 -0.10863762588E+00  0.66926446908E-01  0.13227688544E+00  0.19153445709E-01 0.  0.
         14    1    1    2    0    0 -0.34117103021E-02  0.16915837938E-01  0.14817867520E-01  0.22745428951E-01  0.00000000000E+00 0. -1.
     999901    1    3    3    0    0 -0.25726527262E-01  0.91721787939E-01 -0.81744314428E-01  0.88890768561E+00  0.88000000000E+00 0.  1.
        -11    1    4    4    0    0  0.89390932964E-02 -0.60209834976E-01  0.28356387448E-01  0.67152642889E-01  0.51100000000E-03 0.  1.
         11    1    4    4    0    0  0.20199144267E-01 -0.48427790900E-01  0.38570059460E-01  0.65124242555E-01  0.51100000000E-03 0. -1.
</event>
<event>
 8    1  0.1075206E+005  0.1043930E+01  0.7957747E-01            NaN
         13   -1    0    0    0    0  0.00000000000E+00  0.00000000000E+00  0.74505805969E-08  0.10566000000E+00  0.10566000000E+00 0.  1.
     999900   -1    0    0    0    0 -0.00000000000E+00 -0.00000000000E+00 -0.74505805969E-08  0.93827000000E+00  0.93827000000E+00 0.  1.
     999902    2    1    2    0    0 -0.21911064483E-01 -0.50089838436E-02  0.68469459583E-02  0.10204339294E+01  0.10201633883E+01 0.  0.
     999903    2    3    3    0    0 -0.41214320557E-01 -0.48328365413E-01  0.11456887470E+00  0.13259768409E+00  0.20539417068E-01 0.  0.
         14    1    1    2    0    0  0.21911064483E-01  0.50089838436E-02 -0.68469459583E-02  0.23496070627E-01  0.00000000000E+00 0.  1.
     999901    1    3    3    0    0  0.19303256074E-01  0.43319381569E-01 -0.10772192874E+00  0.88783624529E+00  0.88000000000E+00 0.  1.
        -11    1    4    4    0    0 -0.67427818098E-02 -0.22756916210E-01  0.44142772193E-01  0.50121729816E-01  0.51100000000E-03 0. -1.
         11    1    4    4    0    0 -0.34471538748E-01 -0.25571449203E-01  0.70426102503E-01  0.82475954270E-01  0.51100000000E-03 0.  1.
</event>
<event>
 8    1  0.1075206E+005  0.1043930E+01  0.7957747E-01            NaN
         13   -1    0    0    0    0  0.00000000000E+00  0.00000000000E+00  0.74505805969E-08  0.10566000000E+00  0.10566000000E+00 0.  1.
     999900   -1    0    0    0    0 -0.00000000000E+00 -0.00000000000E+00 -0.74505805969E-08  0.93827000000E+00  0.93827000000E+00 0.  1.
     999902    2    1    2    0    0 -0.17575147170E-01  0.47064263298E-02  0.15175497677E-01  0.10202375544E+01  0.10199624187E+01 0.  0.
     999903    2    3    3    0    0 -0.10042642863E+00  0.19163751062E-01 -0.79777567666E-01  0.13114282737E+00  0.19525981309E-01 0.  0.
         14    1    1    2    0    0  0.17575147170E-01 -0.47064263298E-02 -0.15175497677E-01  0.23692445559E-01  0.00000000000E+00 0.  1.
     999901    1    3    3    0    0  0.82851281465E-01 -0.14457324732E-01  0.94953065343E-01  0.88909472707E+00  0.88000000000E+00 0. -1.
        -11    1    4    4    0    0 -0.23666638899E-01  0.58761621613E-02 -0.93410073308E-02  0.26118089851E-01  0.51100000000E-03 0.  1.
         11    1    4    4    0    0 -0.76759789735E-01  0.13287588901E-01 -0.70436560336E-01  0.10502473752E+00  0.51100000000E-03 0. -1.
</event>
<event>
 8    1  0.1075206E+005  0.1043930E+01  0.7957747E-01            NaN
         13   -1    0    0    0    0  0.00000000000E+00  0.00000000000E+00  0.74505805969E-08  0.10566000000E+00  0.10566000000E+00 0.  1.
     999900   -1    0    0    0    0 -0.00000000000E+00 -0.00000000000E+00 -0.74505805969E-08  0.93827000000E+00  0.93827000000E+00 0.  1.
     999902    2    1    2    0    0  0.10011734246E-01 -0.21739315033E-01 -0.38071870571E-02  0.10196951632E+01  0.10194071309E+01 0.  0.
     999903    2    3    3    0    0 -0.30900686078E-01 -0.29877972059E-01 -0.12156839279E+00  0.13087135309E+00  0.22380601417E-01 0.  0.
         14    1    1    2    0    0 -0.10011734246E-01  0.21739315033E-01  0.38071870571E-02  0.24234836785E-01  0.00000000000E+00 0. -1.
     999901    1    3    3    0    0  0.40912420325E-01  0.81386570257E-02  0.11776120573E+00  0.88882381013E+00  0.88000000000E+00 0. -1.
        -11    1    4    4    0    0 -0.18522665355E-01 -0.75594199260E-02 -0.32052202411E-01  0.37786753788E-01  0.51100000000E-03 0.  1.
         11    1    4    4    0    0 -0.12378020724E-01 -0.22318552133E-01 -0.89516190375E-01  0.93084599299E-01  0.51100000000E-03 0. -1.
</event>
<event>
 8    1  0.1075206E+005  0.1043930E+01  0.7957747E-01            NaN
         13   -1    0    0    0    0  0.00000000000E+00  0.00000000000E+00  0.74505805969E-08  0.10566000000E+00  0.10566000000E+00 0. -1.
     999900   -1    0    0    0    0 -0.00000000000E+00 -0.00000000000E+00 -0.74505805969E-08  0.93827000000E+00  0.93827000000E+00 0.  1.
     999902    2    1    2    0    0  0.13477779162E-01  0.45327725230E-02  0.15137877903E-01  0.10231609869E+01  0.10229501714E+01 0.  0.
     999903    2    3    3    0    0  0.50507907129E-01 -0.10441838000E+00 -0.60736706982E-01  0.13243177067E+00  0.19874092268E-01 0.  0.
         14    1    1    2    0    0 -0.13477779162E-01 -0.45327725230E-02 -0.15137877903E-01  0.20769013103E-01  0.00000000000E+00 0.  1.
     999901    1    3    3    0    0 -0.37030127967E-01  0.10895115252E+00  0.75874584885E-01  0.89072921623E+00  0.88000000000E+00 0.  1.
        -11    1    4    4    0    0  0.18111729032E-01 -0.59438734760E-01 -0.29244725268E-01  0.68676873803E-01  0.51100000000E-03 0.  1.
         11    1    4    4    0    0  0.32396178097E-01 -0.44979645237E-01 -0.31491981714E-01  0.63754896864E-01  0.51100000000E-03 0. -1.
</event>
<event>
 8    1  0.1075206E+005  0.1043930E+01  0.7957747E-01            NaN
         13   -1    0    0    0    0  0.00000000000E+00  0.00000000000E+00  0.74505805969E-08  0.10566000000E+00  0.10566000000E+00 0.  1.
     999900   -1    0    0    0    0 -0.00000000000E+00 -0.00000000000E+00 -0.74505805969E-08  0.93827000000E+00  0.93827000000E+00 0. -1.
     999902    2    1    2    0    0  0.19029947930E-02  0.32705858412E-02 -0.22127943201E-01  0.10214808577E+01  0.10212341448E+01 0.  0.
     999903    2    3    3    0    0  0.58009198937E-01 -0.11832345627E-01 -0.11899377724E+00  0.13426104585E+00  0.19011518827E-01 0.  0.
         14    1    1    2    0    0 -0.19029947930E-02 -0.32705858412E-02  0.22127943201E-01  0.22449142327E-01  0.00000000000E+00 0.  1.
     999901    1    3    3    0    0 -0.56106204144E-01  0.15102931468E-01  0.96865834035E-01  0.88721981182E+00  0.88000000000E+00 0.  1.
        -11    1    4    4    0    0  0.17263287306E-01 -0.26677319564E-02 -0.56125307222E-01  0.58783068261E-01  0.51100000000E-03 0.  1.
         11    1    4    4    0    0  0.40745911631E-01 -0.91646136706E-02 -0.62868470014E-01  0.75477977591E-01  0.51100000000E-03 0. -1.
</event>
<event>
 8    1  0.1075206E+005  0.1043930E+01  0.7957747E-01            NaN
         13   -1    0    0    0    0  0.00000000000E+00  0.00000000000E+00  0.74505805969E-08  0.10566000000E+00  0.10566000000E+00 0. -1.
     999900   -1    0    0    0    0 -0.00000000000E+00 -0.00000000000E+00 -0.74505805969E-08  0.93827000000E+00  0.93827000000E+00 0.  1.
     999902    2    1    2    0    0  0.35286359082E-02  0.62849152282E-02 -0.23262731235E-01  0.10195762304E+01  0.10192853297E+01 0.  0.
     999903    2    3    3    0    0 -0.10315101840E-01  0.96288053970E-02  0.12470701973E+00  0.12710893244E+00  0.20142609485E-01 0.  0.
         14    1    1    2    0    0 -0.35286359082E-02 -0.62849152282E-02  0.23262731235E-01  0.24353769632E-01  0.00000000000E+00 0. -1.
     999901    1    3    3    0    0  0.13843737749E-01 -0.33438901688E-02 -0.14796975096E+00  0.89246729793E+00  0.88000000000E+00 0.  1.
        -11    1    4    4    0    0 -0.11787927077E-01  0.13405019581E-01  0.69733877206E-01  0.71984196362E-01  0.51100000000E-03 0.  1.
         11    1    4    4    0    0  0.14728252368E-02 -0.37762141838E-02  0.54973142521E-01  0.55124736075E-01  0.51100000000E-03 0. -1.
</event>
<event>
 8    1  0.1075206E+005  0.1043930E+01  0.7957747E-01            NaN
         13   -1    0    0    0    0  0.00000000000E+00  0.00000000000E+00  0.74505805969E-08  0.10566000000E+00  0.10566000000E+00 0.  1.
     999900   -1    0    0    0    0 -0.00000000000E+00 -0.00000000000E+00 -0.74505805969E-08  0.93827000000E+00  0.93827000000E+00 0. -1.
     999902    2    1    2    0    0 -0.22814283106E-02  0.48331904382E-02 -0.23413111594E-01  0.10199146208E+01  0.10196318430E+01 0.  0.
     999903    2    3    3    0    0  0.30561415190E-01  0.11488110309E+00 -0.53797507955E-01  0.13193240981E+00  0.19501819141E-01 0.  0.
         14    1    1    2    0    0  0.22814283106E-02 -0.48331904382E-02  0.23413111594E-01  0.24015379228E-01  0.00000000000E+00 0.  1.
     999901    1    3    3    0    0 -0.32842843501E-01 -0.11004791265E+00  0.30384396360E-01  0.88798221097E+00  0.88000000000E+00 0. -1.
        -11    1    4    4    0    0  0.19898542536E-01  0.62562320612E-01 -0.19569477045E-01  0.68507090934E-01  0.51100000000E-03 0. -1.
         11    1    4    4    0    0  0.10662872654E-01  0.52318782477E-01 -0.34228030910E-01  0.63425318873E-01  0.51100000000E-03 0.  1.
</event>
<event>
 8    1  0.1075206E+005  0.1043930E+01  0.7957747E-01            NaN
         13   -1    0    0    0    0  0.00000000000E+00  0.00000000000E+00  0.74505805969E-08  0.10566000000E+00  0.10566000000E+00 0. -1.
     999900   -1    0    0    0    0 -0.00000000000E+00 -0.00000000000E+00 -0.74505805969E-08  0.93827000000E+00  0.93827000000E+00 0. -1.
     999902    2    1    2    0    0 -0.58058960061E-02  0.37619483131E-02  0.23877889335E-01  0.10190701069E+01  0.10187668372E+01 0.  0.
     999903    2    3    3    0    0  0.11380345055E-01 -0.12501581863E+00 -0.18795891731E-01  0.12850841243E+00  0.20066373813E-01 0.  0.
         14    1    1    2    0    0  0.58058960061E-02 -0.37619483131E-02 -0.23877889335E-01  0.24859893053E-01  0.00000000000E+00 0.  1.
     999901    1    3    3    0    0 -0.17186241061E-01  0.12877776695E+00  0.42673781065E-01  0.89056169451E+00  0.88000000000E+00 0. -1.
        -11    1    4    4    0    0 -0.27236353672E-02 -0.72522797770E-01 -0.14250330180E-01  0.73961526601E-01  0.51100000000E-03 0. -1.
         11    1    4    4    0    0  0.14103980423E-01 -0.52493020865E-01 -0.45455615509E-02  0.54546885833E-01  0.51100000000E-03 0.  1.
</event>
<event>
 8    1  0.1075206E+005  0.1043930E+01  0.7957747E-01            NaN
         13   -1    0    0    0    0  0.00000000000E+00  0.00000000000E+00  0.74505805969E-08  0.10566000000E+00  0.10566000000E+00 0. -1.
     999900   -1    0    0    0    0 -0.00000000000E+00 -0.00000000000E+00 -0.74505805969E-08  0.93827000000E+00  0.93827000000E+00 0.  1.
     999902    2    1    2    0    0 -0.99988561429E-02  0.48202645303E-02  0.10600709053E-01  0.10285811529E+01  0.10284666261E+01 0.  0.
     999903    2    3    3    0    0  0.90583845714E-01 -0.15537030579E-01 -0.98169729435E-01  0.13596572191E+00  0.20063632149E-01 0.  0.
         14    1    1    2    0    0  0.99988561429E-02 -0.48202645303E-02 -0.10600709053E-01  0.15348847082E-01  0.00000000000E+00 0.  1.
     999901    1    3    3    0    0 -0.10058270186E+00  0.20357295109E-01  0.10877043849E+00  0.89261543100E+00  0.88000000000E+00 0. -1.
        -11    1    4    4    0    0  0.70995021263E-01 -0.19768374694E-01 -0.81629429011E-01  0.10997593593E+00  0.51100000000E-03 0.  1.
         11    1    4    4    0    0  0.19588824450E-01  0.42313441155E-02 -0.16540300424E-01  0.25989785984E-01  0.51100000000E-03 0. -1.
</event>
<event>
 8    1  0.1075206E+005  0.1043930E+01  0.7957747E-01            NaN
         13   -1    0    0    0    0  0.00000000000E+00  0.00000000000E+00  0.74505805969E-08  0.10566000000E+00  0.10566000000E+00 0. -1.
     999900   -1    0    0    0    0 -0.00000000000E+00 -0.00000000000E+00 -0.74505805969E-08  0.93827000000E+00  0.93827000000E+00 0.  1.
     999902    2    1    2    0    0 -0.41192306437E-02  0.19822901384E-01 -0.11744460911E-01  0.10205238503E+01  0.10202554000E+01 0.  0.
     999903    2    3    3    0    0  0.22712017846E-01  0.10554698229E+00  0.73081811668E-01  0.13189342633E+00  0.19973069014E-01 0.  0.
         14    1    1    2    0    0  0.41192306437E-02 -0.19822901384E-01  0.11744460911E-01  0.23406149672E-01  0.00000000000E+00 0. -1.
     999901    1    3    3    0    0 -0.26831248490E-01 -0.85724080907E-01 -0.84826272579E-01  0.88863042400E+00  0.88000000000E+00 0.  1.
        -11    1    4    4    0    0  0.17290862657E-01  0.89822040897E-01  0.69477109309E-01  0.11486645638E+00  0.51100000000E-03 0.  1.
         11    1    4    4    0    0  0.54211551889E-02  0.15724941394E-01  0.36047023584E-02  0.17026969946E-01  0.51100000000E-03 0. -1.
</event>
<event>
 8    1  0.1075206E+005  0.1043930E+01  0.7957747E-01            NaN
         13   -1    0    0    0    0  0.00000000000E+00  0.00000000000E+00  0.74505805969E-08  0.10566000000E+00  0.10566000000E+00 0.  1.
     999900   -1    0    0    0    0 -0.00000000000E+00 -0.00000000000E+00 -0.74505805969E-08  0.93827000000E+00  0.93827000000E+00 0.  1.
     999902    2    1    2    0    0  0.36573881188E-02  0.18592133767E-01 -0.14025417866E-01  0.10203555165E+01  0.10200831455E+01 0.  0.
     999903    2    3    3    0    0  0.75991222386E-01 -0.43447596555E-01 -0.95991076558E-01  0.13142386507E+00  0.19889343990E-01 0.  0.
         14    1    1    2    0    0 -0.36573881188E-02 -0.18592133767E-01  0.14025417866E-01  0.23574483498E-01  0.00000000000E+00 0.  1.
     999901    1    3    3    0    0 -0.72333834268E-01  0.62039730322E-01  0.81965658691E-01  0.88893165144E+00  0.88000000000E+00 0. -1.
        -11    1    4    4    0    0  0.21341753729E-01 -0.28281393084E-02 -0.20027108119E-01  0.29407737159E-01  0.51100000000E-03 0.  1.
         11    1    4    4    0    0  0.54649468657E-01 -0.40619457247E-01 -0.75963968439E-01  0.10201612791E+00  0.51100000000E-03 0. -1.
</event>
<event>
 8    1  0.1075206E+005  0.1043930E+01  0.7957747E-01            NaN
         13   -1    0    0    0    0  0.00000000000E+00  0.00000000000E+00  0.74505805969E-08  0.10566000000E+00  0.10566000000E+00 0. -1.
     999900   -1    0    0    0    0 -0.00000000000E+00 -0.00000000000E+00 -0.74505805969E-08  0.93827000000E+00  0.93827000000E+00 0.  1.
     999902    2    1    2    0    0  0.53378993451E-02  0.12262294123E-01 -0.20788263698E-01  0.10192114051E+01  0.10189116151E+01 0.  0.
     999903    2    3    3    0    0 -0.11364780103E+00  0.58057683970E-01  0.10423106047E-01  0.12947607129E+00  0.19206627729E-01 0.  0.
         14    1    1    2    0    0 -0.53378993451E-02 -0.12262294123E-01  0.20788263698E-01  0.24718594906E-01  0.00000000000E+00 0. -1.
     999901    1    3    3    0    0  0.11898570038E+00 -0.45795389847E-01 -0.31211369745E-01  0.88973533381E+00  0.88000000000E+00 0.  1.
        -11    1    4    4    0    0 -0.27096618768E-01  0.20730070985E-01  0.86522924812E-02  0.35200651669E-01  0.51100000000E-03 0.  1.
         11    1    4    4    0    0 -0.86551182263E-01  0.37327612985E-01  0.17708135662E-02  0.94275419617E-01  0.51100000000E-03 0. -1.
</event>
<event>
 8    1  0.1075206E+005  0.1043930E+01  0.7957747E-01            NaN
         13   -1    0    0    0    0  0.00000000000E+00  0.00000000000E+00  0.74505805969E-08  0.10566000000E+00  0.10566000000E+00 0. -1.
     999900   -1    0    0    0    0 -0.00000000000E+00 -0.00000000000E+00 -0.74505805969E-08  0.93827000000E+00  0.93827000000E+00 0. -1.
     999902    2    1    2    0    0  0.77591390085E-02 -0.18237666970E-01 -0.13562216613E-01  0.10199143706E+01  0.10196315869E+01 0.  0.
     999903    2    3    3    0    0  0.28785753870E-01 -0.10670526350E+00  0.68247626858E-01  0.13145419445E+00  0.20194894929E-01 0.  0.
         14    1    1    2    0    0 -0.77591390085E-02  0.18237666970E-01  0.13562216613E-01  0.24015629372E-01  0.00000000000E+00 0.  1.
     999901    1    3    3    0    0 -0.21026614861E-01  0.88467596533E-01 -0.81809843472E-01  0.88846017618E+00  0.88000000000E+00 0.  1.
        -11    1    4    4    0    0 -0.18468737956E-03 -0.19276116271E-01  0.18725917930E-01  0.26879804524E-01  0.51100000000E-03 0. -1.
         11    1    4    4    0    0  0.28970441249E-01 -0.87429147232E-01  0.49521708928E-01  0.10457438992E+00  0.51100000000E-03 0.  1.
</event>
<event>
 8    1  0.1075206E+005  0.1043930E+01  0.7957747E-01            NaN
         13   -1    0    0    0    0  0.00000000000E+00  0.00000000000E+00  0.74505805969E-08  0.10566000000E+00  0.10566000000E+00 0.  1.
     999900   -1    0    0    0    0 -0.00000000000E+00 -0.00000000000E+00 -0.74505805969E-08  0.93827000000E+00  0.93827000000E+00 0.  1.
     999902    2    1    2    0    0 -0.20056422847E-01 -0.10935528451E-01  0.25732387634E-02  0.10209415804E+01  0.10206827338E+01 0.  0.
     999903    2    3    3    0    0 -0.96069532277E-01 -0.87387809649E-01  0.25973444968E-01  0.13405347369E+00  0.20729921771E-01 0.  0.
         14    1    1    2    0    0  0.20056422847E-01  0.10935528451E-01 -0.25732387634E-02  0.22988419642E-01  0.00000000000E+00 0.  1.
     999901    1    3    3    0    0  0.76013109430E-01  0.76452281197E-01 -0.23400206205E-01  0.88688810667E+00  0.88000000000E+00 0.  1.
        -11    1    4    4    0    0 -0.66160642710E-01 -0.53763816932E-01  0.25721833584E-01  0.89048596277E-01  0.51100000000E-03 0. -1.
         11    1    4    4    0    0 -0.29908889567E-01 -0.33623992717E-01  0.25161138397E-03  0.45004877409E-01  0.51100000000E-03 0.  1.
</event>
<event>
 8    1  0.1075206E+005  0.1043930E+01  0.7957747E-01            NaN
         13   -1    0    0    0    0  0.00000000000E+00  0.00000000000E+00  0.74505805969E-08  0.10566000000E+00  0.10566000000E+00 0.  1.
     999900   -1    0    0    0    0 -0.00000000000E+00 -0.00000000000E+00 -0.74505805969E-08  0.93827000000E+00  0.93827000000E+00 0.  1.
     999902    2    1    2    0    0 -0.11306618977E-01 -0.29246843918E-01 -0.46645446607E-02  0.10122286516E+01  0.10117321126E+01 0.  0.
     999903    2    3    3    0    0 -0.44871055947E-01  0.59215503432E-02  0.11278996147E+00  0.12309483245E+00  0.19552134140E-01 0.  0.
         14    1    1    2    0    0  0.11306618977E-01  0.29246843918E-01  0.46645446607E-02  0.31701348374E-01  0.00000000000E+00 0. -1.
     999901    1    3    3    0    0  0.33564436970E-01 -0.35168394261E-01 -0.11745450613E+00  0.88913381917E+00  0.88000000000E+00 0.  1.
        -11    1    4    4    0    0 -0.37200122926E-01 -0.18898978362E-02  0.74910038368E-01  0.83661196674E-01  0.51100000000E-03 0.  1.
         11    1    4    4    0    0 -0.76709330215E-02  0.78114481794E-02  0.37879923097E-01  0.39433635781E-01  0.51100000000E-03 0. -1.
</event>
<event>
 8    1  0.1075206E+005  0.1043930E+01  0.7957747E-01            NaN
         13   -1    0    0    0    0  0.00000000000E+00  0.00000000000E+00  0.74505805969E-08  0.10566000000E+00  0.10566000000E+00 0.  1.
     999900   -1    0    0    0    0 -0.00000000000E+00 -0.00000000000E+00 -0.74505805969E-08  0.93827000000E+00  0.93827000000E+00 0.  1.
     999902    2    1    2    0    0 -0.19940816270E-01  0.13249197495E-01  0.79122216614E-02  0.10187153091E+01  0.10184032110E+01 0.  0.
     999903    2    3    3    0    0 -0.55655090441E-01  0.21485181933E-01  0.11531888776E+00  0.13142756951E+00  0.20387692843E-01 0.  0.
         14    1    1    2    0    0  0.19940816270E-01 -0.13249197495E-01 -0.79122216614E-02  0.25214690943E-01  0.00000000000E+00 0. -1.
     999901    1    3    3    0    0  0.35714274171E-01 -0.82359844384E-02 -0.10740666610E+00  0.88728773954E+00  0.88000000000E+00 0.  1.
        -11    1    4    4    0    0 -0.24273882431E-01  0.14145915198E-01  0.73074940068E-01  0.78291355027E-01  0.51100000000E-03 0. -1.
         11    1    4    4    0    0 -0.31381208010E-01  0.73392667352E-02  0.42243947692E-01  0.53136214487E-01  0.51100000000E-03 0.  1.
</event>
<event>
 8    1  0.1075206E+005  0.1043930E+01  0.7957747E-01            NaN
         13   -1    0    0    0    0  0.00000000000E+00  0.00000000000E+00  0.74505805969E-08  0.10566000000E+00  0.10566000000E+00 0.  1.
     999900   -1    0    0    0    0 -0.00000000000E+00 -0.00000000000E+00 -0.74505805969E-08  0.93827000000E+00  0.93827000000E+00 0.  1.
     999902    2    1    2    0    0  0.16092263145E-01 -0.46473875129E-02  0.16884213808E-01  0.10201469005E+01  0.10198696303E+01 0.  0.
     999903    2    3    3    0    0 -0.30103588568E-01  0.67769814138E-01 -0.10235581854E+00  0.12796054494E+00  0.19955293022E-01 0.  0.
         14    1    1    2    0    0 -0.16092263145E-01  0.46473875129E-02 -0.16884213808E-01  0.23783099456E-01  0.00000000000E+00 0. -1.
     999901    1    3    3    0    0  0.46195851713E-01 -0.72417201651E-01  0.11924003235E+00  0.89218635560E+00  0.88000000000E+00 0. -1.
        -11    1    4    4    0    0 -0.12184711800E-01  0.15876931456E-01 -0.41003556368E-01  0.45630000109E-01  0.51100000000E-03 0. -1.
         11    1    4    4    0    0 -0.17918876768E-01  0.51892882683E-01 -0.61352262171E-01  0.82330544831E-01  0.51100000000E-03 0.  1.
</event>
<event>
 8    1  0.1075206E+005  0.1043930E+01  0.7957747E-01            NaN
         13   -1    0    0    0    0  0.00000000000E+00  0.00000000000E+00  0.74505805969E-08  0.10566000000E+00  0.10566000000E+00 0. -1.
     999900   -1    0    0    0    0 -0.00000000000E+00 -0.00000000000E+00 -0.74505805969E-08  0.93827000000E+00  0.93827000000E+00 0.  1.
     999902    2    1    2    0    0  0.23416736447E-02  0.22304305268E-01  0.97098304923E-02  0.10194913773E+01  0.10191984214E+01 0.  0.
     999903    2    3    3    0    0 -0.72716318034E-01  0.26436680952E-01  0.10334666887E+00  0.13133675334E+00  0.24129811515E-01 0.  0.
         14    1    1    2    0    0 -0.23416736447E-02 -0.22304305268E-01 -0.97098304923E-02  0.24438622652E-01  0.00000000000E+00 0.  1.
     999901    1    3    3    0    0  0.75057991679E-01 -0.41323756836E-02 -0.93636838376E-01  0.88815462401E+00  0.88000000000E+00 0.  1.
        -11    1    4    4    0    0 -0.55165513527E-02  0.54959476427E-03  0.21997126867E-01  0.22690727283E-01  0.51100000000E-03 0. -1.
         11    1    4    4    0    0 -0.67199766681E-01  0.25887086187E-01  0.81349542001E-01  0.10864602606E+00  0.51100000000E-03 0.  1.
</event>
<event>
 8    1  0.1075206E+005  0.1043930E+01  0.7957747E-01            NaN
         13   -1    0    0    0    0  0.00000000000E+00  0.00000000000E+00  0.74505805969E-08  0.10566000000E+00  0.10566000000E+00 0.  1.
     999900   -1    0    0    0    0 -0.00000000000E+00 -0.00000000000E+00 -0.74505805969E-08  0.93827000000E+00  0.93827000000E+00 0. -1.
     999902    2    1    2    0    0  0.15419349467E-01 -0.99365224156E-03 -0.16912990642E-01  0.10210216405E+01  0.10207646141E+01 0.  0.
     999903    2    3    3    0    0  0.13077679004E+00 -0.15102540709E-01 -0.91903846508E-02  0.13334712894E+00  0.19139960227E-01 0.  0.
         14    1    1    2    0    0 -0.15419349467E-01  0.99365224156E-03  0.16912990642E-01  0.22908359505E-01  0.00000000000E+00 0.  1.
     999901    1    3    3    0    0 -0.11535744057E+00  0.14108888467E-01 -0.77226059912E-02  0.88767451156E+00  0.88000000000E+00 0.  1.
        -11    1    4    4    0    0  0.55034873203E-01 -0.56717732670E-02 -0.13311386000E-01  0.56907472257E-01  0.51100000000E-03 0.  1.
         11    1    4    4    0    0  0.75741916833E-01 -0.94307674420E-02  0.41210013491E-02  0.76439656679E-01  0.51100000000E-03 0. -1.
</event>
<event>
 8    1  0.1075206E+005  0.1043930E+01  0.7957747E-01            NaN
         13   -1    0    0    0    0  0.00000000000E+00  0.00000000000E+00  0.74505805969E-08  0.10566000000E+00  0.10566000000E+00 0.  1.
     999900   -1    0    0    0    0 -0.00000000000E+00 -0.00000000000E+00 -0.74505805969E-08  0.93827000000E+00  0.93827000000E+00 0. -1.
     999902    2    1    2    0    0  0.12918283660E-01 -0.73666791931E-02 -0.17297477345E-01  0.10211187585E+01  0.10208639313E+01 0.  0.
     999903    2    3    3    0    0 -0.88589920422E-01 -0.85852370385E-01  0.39292803883E-01  0.13001473590E+00  0.11878704148E-01 0.  0.
         14    1    1    2    0    0 -0.12918283660E-01  0.73666791931E-02  0.17297477345E-01  0.22811241474E-01  0.00000000000E+00 0.  1.
     999901    1    3    3    0    0  0.10150820408E+00  0.78485691192E-01 -0.56590281229E-01  0.89110402263E+00  0.88000000000E+00 0. -1.
        -11    1    4    4    0    0 -0.46181961651E-01 -0.46943069705E-01  0.26926398900E-01  0.71145747968E-01  0.51100000000E-03 0.  1.
         11    1    4    4    0    0 -0.42407958771E-01 -0.38909300680E-01  0.12366404984E-01  0.58868987928E-01  0.51100000000E-03 0. -1.
</event>
<event>
 8    1  0.1075206E+005  0.1043930E+01  0.7957747E-01            NaN
         13   -1    0    0    0    0  0.00000000000E+00  0.00000000000E+00  0.74505805969E-08  0.10566000000E+00  0.10566000000E+00 0. -1.
     999900   -1    0    0    0    0 -0.00000000000E+00 -0.00000000000E+00 -0.74505805969E-08  0.93827000000E+00  0.93827000000E+00 0. -1.
     999902    2    1    2    0    0  0.89339114959E-04 -0.22771323560E-01 -0.47057255229E-02  0.10206773655E+01  0.10204124654E+01 0.  0.
     999903    2    3    3    0    0 -0.10437122910E+00  0.76183396815E-02  0.75010532728E-01  0.13040200149E+00  0.20656945774E-01 0.  0.
         14    1    1    2    0    0 -0.89339114959E-04  0.22771323560E-01  0.47057255229E-02  0.23252634493E-01  0.00000000000E+00 0.  1.
     999901    1    3    3    0    0  0.10446056822E+00 -0.30389663242E-01 -0.79716258251E-01  0.89027536402E+00  0.88000000000E+00 0. -1.
        -11    1    4    4    0    0 -0.23916451964E-01  0.10510968350E-01  0.19732906667E-01  0.32743333012E-01  0.51100000000E-03 0.  1.
         11    1    4    4    0    0 -0.80454777139E-01 -0.28926286690E-02  0.55277626061E-01  0.97658668479E-01  0.51100000000E-03 0. -1.
</event>
<event>
 8    1  0.1075206E+005  0.1043930E+01  0.7957747E-01            NaN
         13   -1    0    0    0    0  0.00000000000E+00  0.00000000000E+00  0.74505805969E-08  0.10566000000E+00  0.10566000000E+00 0. -1.
     999900   -1    0    0    0    0 -0.00000000000E+00 -0.00000000000E+00 -0.74505805969E-08  0.93827000000E+00  0.93827000000E+00 0.  1.
     999902    2    1    2    0    0 -0.94768904736E-02  0.15931242949E-01 -0.14105035536E-01  0.10206369113E+01  0.10203710779E+01 0.  0.
     999903    2    3    3    0    0  0.91098721853E-01 -0.88777663116E-01  0.19735531566E-02  0.12859547175E+00  0.18773647811E-01 0.  0.
         14    1    1    2    0    0  0.94768904736E-02 -0.15931242949E-01  0.14105035536E-01  0.23293088727E-01  0.00000000000E+00 0. -1.
     999901    1    3    3    0    0 -0.10057561233E+00  0.10470890606E+00 -0.16078588693E-01  0.89204143952E+00  0.88000000000E+00 0. -1.
        -11    1    4    4    0    0  0.21028371240E-01 -0.22135147631E-01  0.84301373564E-02  0.31677839170E-01  0.51100000000E-03 0. -1.
         11    1    4    4    0    0  0.70070350613E-01 -0.66642515485E-01 -0.64565841998E-02  0.96917632584E-01  0.51100000000E-03 0.  1.
</event>
<event>
 8    1  0.1075206E+005  0.1043930E+01  0.7957747E-01            NaN
         13   -1    0    0    0    0  0.00000000000E+00  0.00000000000E+00  0.74505805969E-08  0.10566000000E+00  0.10566000000E+00 0. -1.
     999900   -1    0    0    0    0 -0.00000000000E+00 -0.00000000000E+00 -0.74505805969E-08  0.93827000000E+00  0.93827000000E+00 0. -1.
     999902    2    1    2    0    0  0.12301317299E-01 -0.15212970242E-01 -0.13539090268E-01  0.10201379039E+01  0.10198604214E+01 0.  0.
     999903    2    3    3    0    0  0.81933887712E-01  0.61106546500E-02  0.98758253416E-01  0.13001763943E+00  0.20022284842E-01 0.  0.
         14    1    1    2    0    0 -0.12301317299E-01  0.15212970242E-01  0.13539090268E-01  0.23792096086E-01  0.00000000000E+00 0. -1.
     999901    1    3    3    0    0 -0.69632570413E-01 -0.21323624892E-01 -0.11229734368E+00  0.89012026448E+00  0.88000000000E+00 0. -1.
        -11    1    4    4    0    0  0.46034265992E-01  0.65661566767E-02  0.69882252064E-01  0.83940802554E-01  0.51100000000E-03 0. -1.
         11    1    4    4    0    0  0.35899621720E-01 -0.45550202668E-03  0.28876001352E-01  0.46076836879E-01  0.51100000000E-03 0.  1.
</event>
<event>
 8    1  0.1075206E+005  0.1043930E+01  0.7957747E-01            NaN
         13   -1    0    0    0    0  0.00000000000E+00  0.00000000000E+00  0.74505805969E-08  0.10566000000E+00  0.10566000000E+00 0.  1.
     999900   -1    0    0    0    0 -0.00000000000E+00 -0.00000000000E+00 -0.74505805969E-08  0.93827000000E+00  0.93827000000E+00 0.  1.
     999902    2    1    2    0    0  0.10081962472E-01  0.75567389765E-03 -0.21269907850E-01  0.10203795013E+01  0.10201076907E+01 0.  0.
     999903    2    3    3    0    0 -0.79449136205E-01 -0.86021603907E-01 -0.54749917614E-01  0.13096001384E+00  0.21002146646E-01 0.  0.
         14    1    1    2    0    0 -0.10081962472E-01 -0.75567389765E-03  0.21269907850E-01  0.23550498726E-01  0.00000000000E+00 0.  1.
     999901    1    3    3    0    0  0.89531098677E-01  0.86777277805E-01  0.33480009764E-01  0.88941948743E+00  0.88000000000E+00 0.  1.
        -11    1    4    4    0    0 -0.71822237990E-01 -0.76091327093E-01 -0.41067559402E-01  0.11240609185E+00  0.51100000000E-03 0.  1.
         11    1    4    4    0    0 -0.76268982150E-02 -0.99302768143E-02 -0.13682358211E-01  0.18553921990E-01  0.51100000000E-03 0. -1.
</event>
<event>
 8    1  0.1075206E+005  0.1043930E+01  0.7957747E-01            NaN
         13   -1    0    0    0    0  0.00000000000E+00  0.00000000000E+00  0.74505805969E-08  0.10566000000E+00  0.10566000000E+00 0.  1.
     999900   -1    0    0    0    0 -0.00000000000E+00 -0.00000000000E+00 -0.74505805969E-08  0.93827000000E+00  0.93827000000E+00 0.  1.
     999902    2    1    2    0    0  0.18119098388E-01  0.22574161174E-01  0.10797726839E-01  0.10130352531E+01  0.10125640418E+01 0.  0.
     999903    2    3    3    0    0  0.74896683022E-01  0.10026757051E+00 -0.14350425237E-01  0.12743241352E+00  0.19235032818E-01 0.  0.
         14    1    1    2    0    0 -0.18119098388E-01 -0.22574161174E-01 -0.10797726839E-01  0.30894746868E-01  0.00000000000E+00 0. -1.
     999901    1    3    3    0    0 -0.56777584634E-01 -0.77693409339E-01  0.25148152076E-01  0.88560283961E+00  0.88000000000E+00 0. -1.
        -11    1    4    4    0    0  0.35503287295E-01  0.39913384699E-01  0.22589038783E-02  0.53468920455E-01  0.51100000000E-03 0. -1.
         11    1    4    4    0    0  0.39393395728E-01  0.60354185814E-01 -0.16609329115E-01  0.73963493068E-01  0.51100000000E-03 0.  1.
</event>
<event>
 8    1  0.1075206E+005  0.1043930E+01  0.7957747E-01            NaN
         13   -1    0    0    0    0  0.00000000000E+00  0.00000000000E+00  0.74505805969E-08  0.10566000000E+00  0.10566000000E+00 0.  1.
     999900   -1    0    0    0    0 -0.00000000000E+00 -0.00000000000E+00 -0.74505805969E-08  0.93827000000E+00  0.93827000000E+00 0.  1.
     999902    2    1    2    0    0 -0.11275416096E-01 -0.15638061854E-01 -0.13574835216E-01  0.10203511930E+01  0.10200787210E+01 0.  0.
     999903    2    3    3    0    0 -0.90769319926E-01  0.91397689458E-01  0.74171644441E-02  0.13006101739E+00  0.16378242814E-01 0.  0.
         14    1    1    2    0    0  0.11275416096E-01  0.15638061854E-01  0.13574835216E-01  0.23578806964E-01  0.00000000000E+00 0.  1.
     999901    1    3    3    0    0  0.79493903830E-01 -0.10703575131E+00 -0.20991999660E-01  0.89029017565E+00  0.88000000000E+00 0. -1.
        -11    1    4    4    0    0 -0.73646770947E-01  0.76402430343E-01  0.12133726510E-01  0.10681136023E+00  0.51100000000E-03 0. -1.
         11    1    4    4    0    0 -0.17122548979E-01  0.14995259115E-01 -0.47165620662E-02  0.23249657163E-01  0.51100000000E-03 0.  1.
</event>
<event>
 7    1  0.1075206E+005  0.1043930E+01  0.7957747E-01            NaN
         13   -1    0    0    0    0  0.00000000000E+00  0.00000000000E+00  0.74505805969E-08  0.10566000000E+00  0.10566000000E+00 0. -1.
     999900   -1    0    0    0    0 -0.00000000000E+00 -0.00000000000E+00 -0.74505805969E-08  0.93827000000E+00  0.93827000000E+00 0.  1.
     999903    2    1    2    0    0 -0.97146853954E-01  0.47172543571E-02 -0.45846284754E-01  0.10921526939E+00  0.19139736683E-01 0.  0.
         14    1    1    2    0    0 -0.29232327387E-01 -0.32600769964E-01 -0.31500532431E-02  0.43900592276E-01  0.00000000000E+00 0. -1.
     999901    1    1    2    0    0  0.12637918134E+00  0.27883515607E-01  0.48996337997E-01  0.89081413833E+00  0.88000000000E+00 0.  1.
        -11    1    3    3    0    0 -0.50813751992E-01  0.89333227858E-02 -0.31824636772E-01  0.60621038214E-01  0.51100000000E-03 0. -1.
         11    1    3    3    0    0 -0.46333101962E-01 -0.42160684287E-02 -0.14021647983E-01  0.48594231176E-01  0.51100000000E-03 0.  1.
</event>
<event>
 8    1  0.1075206E+005  0.1043930E+01  0.7957747E-01            NaN
         13   -1    0    0    0    0  0.00000000000E+00  0.00000000000E+00  0.74505805969E-08  0.10566000000E+00  0.10566000000E+00 0.  1.
     999900   -1    0    0    0    0 -0.00000000000E+00 -0.00000000000E+00 -0.74505805969E-08  0.93827000000E+00  0.93827000000E+00 0.  1.
     999902    2    1    2    0    0  0.93114887798E-03  0.50909719695E-02 -0.24988705459E-01  0.10184109790E+01  0.10180912050E+01 0.  0.
     999903    2    3    3    0    0  0.63853092568E-02 -0.10167783127E+00 -0.78626207614E-01  0.13031959468E+00  0.20541730387E-01 0.  0.
         14    1    1    2    0    0 -0.93114887798E-03 -0.50909719695E-02  0.24988705459E-01  0.25519021030E-01  0.00000000000E+00 0.  1.
     999901    1    3    3    0    0 -0.54541603789E-02  0.10676880324E+00  0.53637502155E-01  0.88809138429E+00  0.88000000000E+00 0. -1.
        -11    1    4    4    0    0  0.88299521522E-02 -0.31609348429E-01 -0.33725461646E-01  0.47061521940E-01  0.51100000000E-03 0.  1.
         11    1    4    4    0    0 -0.24446428954E-02 -0.70068482844E-01 -0.44900745968E-01  0.83258072741E-01  0.51100000000E-03 0. -1.
</event>
<event>
 8    1  0.1075206E+005  0.1043930E+01  0.7957747E-01            NaN
         13   -1    0    0    0    0  0.00000000000E+00  0.00000000000E+00  0.74505805969E-08  0.10566000000E+00  0.10566000000E+00 0.  1.
     999900   -1    0    0    0    0 -0.00000000000E+00 -0.00000000000E+00 -0.74505805969E-08  0.93827000000E+00  0.93827000000E+00 0. -1.
     999902    2    1    2    0    0  0.20075500981E-01 -0.64739881923E-02 -0.10867422862E-01  0.10202015542E+01  0.10199255718E+01 0.  0.
     999903    2    3    3    0    0 -0.66289902375E-01 -0.10975386440E+00  0.53035878094E-02  0.12981556071E+00  0.19588002717E-01 0.  0.
         14    1    1    2    0    0 -0.20075500981E-01  0.64739881923E-02  0.10867422862E-01  0.23728445849E-01  0.00000000000E+00 0. -1.
     999901    1    3    3    0    0  0.86365403356E-01  0.10327987621E+00 -0.16171010671E-01  0.89038599344E+00  0.88000000000E+00 0. -1.
        -11    1    4    4    0    0 -0.41468768564E-01 -0.72402196334E-01  0.12572942190E-01  0.84380547501E-01  0.51100000000E-03 0. -1.
         11    1    4    4    0    0 -0.24821133811E-01 -0.37351668071E-01 -0.72693543806E-02  0.45435013210E-01  0.51100000000E-03 0.  1.
</event>
<event>
 8    1  0.1075206E+005  0.1043930E+01  0.7957747E-01            NaN
         13   -1    0    0    0    0  0.00000000000E+00  0.00000000000E+00  0.74505805969E-08  0.10566000000E+00  0.10566000000E+00 0. -1.
     999900   -1    0    0    0    0 -0.00000000000E+00 -0.00000000000E+00 -0.74505805969E-08  0.93827000000E+00  0.93827000000E+00 0.  1.
     999902    2    1    2    0    0  0.21733949474E-02  0.21962144731E-01  0.84969963136E-02  0.10202813554E+01  0.10200072479E+01 0.  0.
     999903    2    3    3    0    0 -0.20575778620E-01  0.94324295511E-01 -0.87506837280E-01  0.13181608208E+00  0.19939847921E-01 0.  0.
         14    1    1    2    0    0 -0.21733949474E-02 -0.21962144731E-01 -0.84969963136E-02  0.23648644637E-01  0.00000000000E+00 0.  1.
     999901    1    3    3    0    0  0.22749173568E-01 -0.72362150780E-01  0.96003833594E-01  0.88846527328E+00  0.88000000000E+00 0. -1.
        -11    1    4    4    0    0  0.66722058689E-03  0.41374440106E-01 -0.33308834340E-01  0.53122773304E-01  0.51100000000E-03 0. -1.
         11    1    4    4    0    0 -0.21242999207E-01  0.52949855405E-01 -0.54198002940E-01  0.78693308778E-01  0.51100000000E-03 0.  1.
</event>
<event>
 8    1  0.1075206E+005  0.1043930E+01  0.7957747E-01            NaN
         13   -1    0    0    0    0  0.00000000000E+00  0.00000000000E+00  0.74505805969E-08  0.10566000000E+00  0.10566000000E+00 0. -1.
     999900   -1    0    0    0    0 -0.00000000000E+00 -0.00000000000E+00 -0.74505805969E-08  0.93827000000E+00  0.93827000000E+00 0. -1.
     999902    2    1    2    0    0  0.56689323360E-04 -0.78163816280E-02 -0.22152431453E-01  0.10204389537E+01  0.10201685297E+01 0.  0.
     999903    2    3    3    0    0  0.48119202188E-01 -0.10346841687E+00  0.59390388299E-01  0.13020946172E+00  0.20152289956E-01 0.  0.
         14    1    1    2    0    0 -0.56689323360E-04  0.78163816280E-02  0.22152431453E-01  0.23491046266E-01  0.00000000000E+00 0. -1.
     999901    1    3    3    0    0 -0.48062512865E-01  0.95652035247E-01 -0.81542819751E-01  0.89022949201E+00  0.88000000000E+00 0. -1.
        -11    1    4    4    0    0  0.40533637930E-01 -0.64579604461E-01  0.38626819891E-01  0.85473934343E-01  0.51100000000E-03 0. -1.
         11    1    4    4    0    0  0.75855642584E-02 -0.38888812414E-01  0.20763568408E-01  0.44735527382E-01  0.51100000000E-03 0.  1.
</event>
<event>
 8    1  0.1075206E+005  0.1043930E+01  0.7957747E-01            NaN
         13   -1    0    0    0    0  0.00000000000E+00  0.00000000000E+00  0.74505805969E-08  0.10566000000E+00  0.10566000000E+00 0.  1.
     999900   -1    0    0    0    0 -0.00000000000E+00 -0.00000000000E+00 -0.74505805969E-08  0.93827000000E+00  0.93827000000E+00 0. -1.
     999902    2    1    2    0    0  0.20790531309E-01 -0.71898419993E-02 -0.94244975516E-02  0.10199975707E+01  0.10197167661E+01 0.  0.
     999903    2    3    3    0    0 -0.42201826796E-01  0.11077117330E+00 -0.46897345521E-01  0.12910641421E+00  0.20441579021E-01 0.  0.
         14    1    1    2    0    0 -0.20790531309E-01  0.71898419993E-02  0.94244975516E-02  0.23932429342E-01  0.00000000000E+00 0.  1.
     999901    1    3    3    0    0  0.62992358106E-01 -0.11796101530E+00  0.37472847970E-01  0.89089115645E+00  0.88000000000E+00 0.  1.
        -11    1    4    4    0    0 -0.39057374186E-01  0.84231836142E-01 -0.30411901472E-01  0.97701717336E-01  0.51100000000E-03 0. -1.
         11    1    4    4    0    0 -0.31444526102E-02  0.26539337158E-01 -0.16485444049E-01  0.31404696870E-01  0.51100000000E-03 0.  1.
</event>
<event>
 8    1  0.1075206E+005  0.1043930E+01  0.7957747E-01            NaN
         13   -1    0    0    0    0  0.00000000000E+00  0.00000000000E+00  0.74505805969E-08  0.10566000000E+00  0.10566000000E+00 0.  1.
     999900   -1    0    0    0    0 -0.00000000000E+00 -0.00000000000E+00 -0.74505805969E-08  0.93827000000E+00  0.93827000000E+00 0.  1.
     999902    2    1    2    0    0  0.62129390344E-02  0.20728031099E-01  0.10588319361E-01  0.10198392468E+01  0.10195546699E+01 0.  0.
     999903    2    3    3    0    0  0.77024573106E-02  0.46101957217E-01  0.12210515631E+00  0.13243738756E+00  0.21101519331E-01 0.  0.
         14    1    1    2    0    0 -0.62129390344E-02 -0.20728031099E-01 -0.10588319361E-01  0.24090753239E-01  0.00000000000E+00 0.  1.
     999901    1    3    3    0    0 -0.14895182762E-02 -0.25373926117E-01 -0.11151683695E+00  0.88740185920E+00  0.88000000000E+00 0.  1.
        -11    1    4    4    0    0  0.45859092586E-02  0.41137265826E-01  0.11853433388E+00  0.12555458826E+00  0.51100000000E-03 0.  1.
         11    1    4    4    0    0  0.31165480520E-02  0.49646913904E-02  0.35708224267E-02  0.68827992972E-02  0.51100000000E-03 0. -1.
</event>
<event>
 8    1  0.1075206E+005  0.1043930E+01  0.7957747E-01            NaN
         13   -1    0    0    0    0  0.00000000000E+00  0.00000000000E+00  0.74505805969E-08  0.10566000000E+00  0.10566000000E+00 0.  1.
     999900   -1    0    0    0    0 -0.00000000000E+00 -0.00000000000E+00 -0.74505805969E-08  0.93827000000E+00  0.93827000000E+00 0. -1.
     999902    2    1    2    0    0 -0.13449187342E-01  0.13914566799E-01  0.13821601736E-01  0.10201490731E+01  0.10198718541E+01 0.  0.
     999903    2    3    3    0    0  0.78307469241E-01  0.10143481939E+00  0.18652288517E-01  0.13104704624E+00  0.20108160959E-01 0.  0.
         14    1    1    2    0    0  0.13449187342E-01 -0.13914566799E-01 -0.13821601736E-01  0.23780926894E-01  0.00000000000E+00 0. -1.
     999901    1    3    3    0    0 -0.91756656583E-01 -0.87520252595E-01 -0.48306867806E-02  0.88910202687E+00  0.88000000000E+00 0. -1.
        -11    1    4    4    0    0  0.70046635017E-01  0.78713486002E-01  0.17710022258E-01  0.10684685286E+00  0.51100000000E-03 0.  1.
         11    1    4    4    0    0  0.82608342237E-02  0.22721333392E-01  0.94226625879E-03  0.24200193385E-01  0.51100000000E-03 0. -1.
</event>
<event>
 8    1  0.1075206E+005  0.1043930E+01  0.7957747E-01            NaN
         13   -1    0    0    0    0  0.00000000000E+00  0.00000000000E+00  0.74505805969E-08  0.10566000000E+00  0.10566000000E+00 0. -1.
     999900   -1    0    0    0    0 -0.00000000000E+00 -0.00000000000E+00 -0.74505805969E-08  0.93827000000E+00  0.93827000000E+00 0.  1.
     999902    2    1    2    0    0  0.53901833832E-02  0.19781705763E-01  0.12851140574E-01  0.10197324428E+01  0.10194453066E+01 0.  0.
     999903    2    3    3    0    0  0.58287415919E-01 -0.52681906846E-01  0.10236633396E+00  0.13065310878E+00  0.20458796197E-01 0.  0.
         14    1    1    2    0    0 -0.53901833832E-02 -0.19781705763E-01 -0.12851140574E-01  0.24197557188E-01  0.00000000000E+00 0. -1.
     999901    1    3    3    0    0 -0.52897232536E-01  0.72463612609E-01 -0.89515193383E-01  0.88907933404E+00  0.88000000000E+00 0. -1.
        -11    1    4    4    0    0  0.46978708530E-01 -0.45977305144E-01  0.95144891039E-01  0.11564481422E+00  0.51100000000E-03 0. -1.
         11    1    4    4    0    0  0.11308707389E-01 -0.67046017015E-02  0.72214429186E-02  0.15008294560E-01  0.51100000000E-03 0.  1.
</event>
<event>
 8    1  0.1075206E+005  0.1043930E+01  0.7957747E-01            NaN
         13   -1    0    0    0    0  0.00000000000E+00  0.00000000000E+00  0.74505805969E-08  0.10566000000E+00  0.10566000000E+00 0. -1.
     999900   -1    0    0    0    0 -0.00000000000E+00 -0.00000000000E+00 -0.74505805969E-08  0.93827000000E+00  0.93827000000E+00 0. -1.
     999902    2    1    2    0    0 -0.26815605542E-02  0.56554548961E-02 -0.22979135328E-01  0.10201137115E+01  0.10198356577E+01 0.  0.
     999903    2    3    3    0    0 -0.81911222339E-01  0.67389196559E-01  0.71753393514E-01  0.12934850889E+00  0.18213596970E-01 0.  0.
         14    1    1    2    0    0  0.26815605542E-02 -0.56554548961E-02  0.22979135328E-01  0.23816288492E-01  0.00000000000E+00 0. -1.
     999901    1    3    3    0    0  0.79229661785E-01 -0.61733741663E-01 -0.94732528843E-01  0.89076520261E+00  0.88000000000E+00 0.  1.
        -11    1    4    4    0    0 -0.18747680235E-01  0.12197772596E-01  0.24070499441E-01  0.32862002904E-01  0.51100000000E-03 0.  1.
         11    1    4    4    0    0 -0.63163542104E-01  0.55191423963E-01  0.47682894073E-01  0.96486505991E-01  0.51100000000E-03 0. -1.
</event>
<event>
 8    1  0.1075206E+005  0.1043930E+01  0.7957747E-01            NaN
         13   -1    0    0    0    0  0.00000000000E+00  0.00000000000E+00  0.74505805969E-08  0.10566000000E+00  0.10566000000E+00 0.  1.
     999900   -1    0    0    0    0 -0.00000000000E+00 -0.00000000000E+00 -0.74505805969E-08  0.93827000000E+00  0.93827000000E+00 0. -1.
     999902    2    1    2    0    0 -0.18208925729E-01 -0.80115654910E-02 -0.13331077138E-02  0.10239919125E+01  0.10237977874E+01 0.  0.
     999903    2    3    3    0    0  0.15843187652E-01 -0.86276282724E-01  0.99513731214E-01  0.13412956508E+00  0.19828110701E-01 0.  0.
         14    1    1    2    0    0  0.18208925729E-01  0.80115654910E-02  0.13331077138E-02  0.19938087521E-01  0.00000000000E+00 0.  1.
     999901    1    3    3    0    0 -0.34052113381E-01  0.78264717233E-01 -0.10084683893E+00  0.88986234739E+00  0.88000000000E+00 0.  1.
        -11    1    4    4    0    0 -0.56302382531E-03 -0.50562862347E-01  0.58384351587E-01  0.77239327262E-01  0.51100000000E-03 0.  1.
         11    1    4    4    0    0  0.16406211477E-01 -0.35713420376E-01  0.41129379627E-01  0.56890237823E-01  0.51100000000E-03 0. -1.
</event>
<event>
 8    1  0.1075206E+005  0.1043930E+01  0.7957747E-01            NaN
         13   -1    0    0    0    0  0.00000000000E+00  0.00000000000E+00  0.74505805969E-08  0.10566000000E+00  0.10566000000E+00 0. -1.
     999900   -1    0    0    0    0 -0.00000000000E+00 -0.00000000000E+00 -0.74505805969E-08  0.93827000000E+00  0.93827000000E+00 0.  1.
     999902    2    1    2    0    0  0.12021187011E-01 -0.20009353955E-01 -0.29462818709E-02  0.10204020643E+01  0.10201307803E+01 0.  0.
     999903    2    3    3    0    0 -0.61803516893E-01 -0.10226801338E+00  0.51995230001E-01  0.13178789396E+00  0.19650032813E-01 0.  0.
         14    1    1    2    0    0 -0.12021187011E-01  0.20009353955E-01  0.29462818709E-02  0.23527935730E-01  0.00000000000E+00 0. -1.
     999901    1    3    3    0    0  0.73824703904E-01  0.82258659424E-01 -0.54941511872E-01  0.88861417031E+00  0.88000000000E+00 0.  1.
        -11    1    4    4    0    0 -0.53275007834E-01 -0.83828271789E-01  0.35054984230E-01  0.10533052099E+00  0.51100000000E-03 0.  1.
         11    1    4    4    0    0 -0.85285090589E-02 -0.18439741591E-01  0.16940245770E-01  0.26457372970E-01  0.51100000000E-03 0. -1.
</event>
<event>
 8    1  0.1075206E+005  0.1043930E+01  0.7957747E-01            NaN
         13   -1    0    0    0    0  0.00000000000E+00  0.00000000000E+00  0.74505805969E-08  0.10566000000E+00  0.10566000000E+00 0.  1.
     999900   -1    0    0    0    0 -0.00000000000E+00 -0.00000000000E+00 -0.74505805969E-08  0.93827000000E+00  0.93827000000E+00 0. -1.
     999902    2    1    2    0    0 -0.15876463374E-01  0.17396105725E-01  0.84972920597E-03  0.10203628911E+01  0.10200906925E+01 0.  0.
     999903    2    3    3    0    0  0.29134028140E-01 -0.74060704755E-01 -0.99372199075E-01  0.12882785113E+00  0.19697758594E-01 0.  0.
         14    1    1    2    0    0  0.15876463374E-01 -0.17396105725E-01 -0.84972920597E-03  0.23567108931E-01  0.00000000000E+00 0. -1.
     999901    1    3    3    0    0 -0.45010491514E-01  0.91456810479E-01  0.10022192828E+00  0.89153503994E+00  0.88000000000E+00 0.  1.
        -11    1    4    4    0    0  0.82257780608E-02 -0.27544756777E-01 -0.50942138507E-01  0.58495637848E-01  0.51100000000E-03 0. -1.
         11    1    4    4    0    0  0.20908250079E-01 -0.46515947977E-01 -0.48430060568E-01  0.70332213283E-01  0.51100000000E-03 0.  1.
</event>
<event>
 8    1  0.1075206E+005  0.1043930E+01  0.7957747E-01            NaN
         13   -1    0    0    0    0  0.00000000000E+00  0.00000000000E+00  0.74505805969E-08  0.10566000000E+00  0.10566000000E+00 0.  1.
     999900   -1    0    0    0    0 -0.00000000000E+00 -0.00000000000E+00 -0.74505805969E-08  0.93827000000E+00  0.93827000000E+00 0. -1.
     999902    2    1    2    0    0 -0.18423062381E-01  0.23439139386E-02 -0.14746410314E-01  0.10202158739E+01  0.10199402284E+01 0.  0.
     999903    2    3    3    0    0  0.52408623921E-01 -0.10208306714E+00 -0.58009635336E-01  0.13016316264E+00  0.20241409481E-01 0.  0.
         14    1    1    2    0    0  0.18423062381E-01 -0.23439139386E-02  0.14746410314E-01  0.23714126111E-01  0.00000000000E+00 0.  1.
     999901    1    3    3    0    0 -0.70831686302E-01  0.10442698108E+00  0.43263225022E-01  0.89005271125E+00  0.88000000000E+00 0.  1.
        -11    1    4    4    0    0  0.46902674869E-01 -0.73601481304E-01 -0.39929964897E-01  0.95977612898E-01  0.51100000000E-03 0.  1.
         11    1    4    4    0    0  0.55059490516E-02 -0.28481585841E-01 -0.18079670439E-01  0.34185549742E-01  0.51100000000E-03 0. -1.
</event>
<event>
 8    1  0.1075206E+005  0.1043930E+01  0.7957747E-01            NaN
         13   -1    0    0    0    0  0.00000000000E+00  0.00000000000E+00  0.74505805969E-08  0.10566000000E+00  0.10566000000E+00 0.  1.
     999900   -1    0    0    0    0 -0.00000000000E+00 -0.00000000000E+00 -0.74505805969E-08  0.93827000000E+00  0.93827000000E+00 0. -1.
     999902    2    1    2    0    0  0.15498355475E-01 -0.72684994938E-02  0.10996085547E-01  0.10235843861E+01  0.10233821630E+01 0.  0.
     999903    2    3    3    0    0  0.11938188334E+00 -0.60666220982E-01  0.10853035731E-01  0.13586645541E+00  0.20235634005E-01 0.  0.
         14    1    1    2    0    0 -0.15498355475E-01  0.72684994938E-02 -0.10996085547E-01  0.20345613893E-01  0.00000000000E+00 0. -1.
     999901    1    3    3    0    0 -0.10388352786E+00  0.53397721488E-01  0.14304981571E-03  0.88771793070E+00  0.88000000000E+00 0.  1.
        -11    1    4    4    0    0  0.19426483171E-01 -0.22411039094E-02 -0.17867614149E-03  0.19562817826E-01  0.51100000000E-03 0.  1.
         11    1    4    4    0    0  0.99955400165E-01 -0.58425117072E-01  0.11031711873E-01  0.11630363758E+00  0.51100000000E-03 0. -1.
</event>
<event>
 8    1  0.1075206E+005  0.1043930E+01  0.7957747E-01            NaN
         13   -1    0    0    0    0  0.00000000000E+00  0.00000000000E+00  0.74505805969E-08  0.10566000000E+00  0.10566000000E+00 0.  1.
     999900   -1    0    0    0    0 -0.00000000000E+00 -0.00000000000E+00 -0.74505805969E-08  0.93827000000E+00  0.93827000000E+00 0. -1.
     999902    2    1    2    0    0  0.99833404493E-02 -0.20453537446E-01  0.67301389295E-02  0.10201958674E+01  0.10199197512E+01 0.  0.
     999903    2    3    3    0    0  0.12541308803E+00  0.18282153387E-01  0.29458482858E-01  0.13152210386E+00  0.19172423176E-01 0.  0.
         14    1    1    2    0    0 -0.99833404493E-02  0.20453537446E-01 -0.67301389295E-02  0.23734132607E-01  0.00000000000E+00 0.  1.
     999901    1    3    3    0    0 -0.11542974758E+00 -0.38735690833E-01 -0.22728343929E-01  0.88867376353E+00  0.88000000000E+00 0. -1.
        -11    1    4    4    0    0  0.54532638134E-01  0.37000051056E-02  0.21430896015E-01  0.58711524291E-01  0.51100000000E-03 0. -1.
         11    1    4    4    0    0  0.70880449896E-01  0.14582148281E-01  0.80275868436E-02  0.72810579571E-01  0.51100000000E-03 0.  1.
</event>
<event>
 8    1  0.1075206E+005  0.1043930E+01  0.7957747E-01            NaN
         13   -1    0    0    0    0  0.00000000000E+00  0.00000000000E+00  0.74505805969E-08  0.10566000000E+00  0.10566000000E+00 0.  1.
     999900   -1    0    0    0    0 -0.00000000000E+00 -0.00000000000E+00 -0.74505805969E-08  0.93827000000E+00  0.93827000000E+00 0.  1.
     999902    2    1    2    0    0 -0.58400255836E-04  0.18486780100E-01  0.14837331074E-01  0.10202253413E+01  0.10199499185E+01 0.  0.
     999903    2    3    3    0    0 -0.48421864481E-01  0.68362196431E-01 -0.97883547839E-01  0.13031940340E+00  0.19593139221E-01 0.  0.
         14    1    1    2    0    0  0.58400255836E-04 -0.18486780100E-01 -0.14837331074E-01  0.23704658666E-01  0.00000000000E+00 0. -1.
     999901    1    3    3    0    0  0.48363464225E-01 -0.49875416331E-01  0.11272087891E+00  0.88990593793E+00  0.88000000000E+00 0. -1.
        -11    1    4    4    0    0 -0.10161531410E-01  0.56082462989E-02 -0.75215146886E-02  0.13839922376E-01  0.51100000000E-03 0.  1.
         11    1    4    4    0    0 -0.38260333070E-01  0.62753950132E-01 -0.90362033150E-01  0.11647948103E+00  0.51100000000E-03 0. -1.
</event>
<event>
 8    1  0.1075206E+005  0.1043930E+01  0.7957747E-01            NaN
         13   -1    0    0    0    0  0.00000000000E+00  0.00000000000E+00  0.74505805969E-08  0.10566000000E+00  0.10566000000E+00 0.  1.
     999900   -1    0    0    0    0 -0.00000000000E+00 -0.00000000000E+00 -0.74505805969E-08  0.93827000000E+00  0.93827000000E+00 0.  1.
     999902    2    1    2    0    0 -0.10599782323E-01 -0.21371932294E-01  0.30156048806E-02  0.10198840284E+01  0.10196005211E+01 0.  0.
     999903    2    3    3    0    0 -0.12748055142E+00 -0.29419789823E-03  0.25370604100E-01  0.13162442052E+00  0.20735066530E-01 0.  0.
         14    1    1    2    0    0  0.10599782323E-01  0.21371932294E-01 -0.30156048806E-02  0.24045971556E-01  0.00000000000E+00 0.  1.
     999901    1    3    3    0    0  0.11688076909E+00 -0.21077734396E-01 -0.22354999219E-01  0.88825960792E+00  0.88000000000E+00 0. -1.
        -11    1    4    4    0    0 -0.93407820296E-01 -0.91444335358E-02  0.20670330883E-01  0.96104969991E-01  0.51100000000E-03 0. -1.
         11    1    4    4    0    0 -0.34072731121E-01  0.88502356376E-02  0.47002732166E-02  0.35519450534E-01  0.51100000000E-03 0.  1.
</event>
<event>
 8    1  0.1075206E+005  0.1043930E+01  0.7957747E-01            NaN
         13   -1    0    0    0    0  0.00000000000E+00  0.00000000000E+00  0.74505805969E-08  0.10566000000E+00  0.10566000000E+00 0.  1.
     999900   -1    0    0    0    0 -0.00000000000E+00 -0.00000000000E+00 -0.74505805969E-08  0.93827000000E+00  0.93827000000E+00 0.  1.
     999902    2    1    2    0    0  0.12797910541E-01  0.83246103471E-02 -0.14721776588E-01  0.10227211255E+01  0.10225011903E+01 0.  0.
     999903    2    3    3    0    0 -0.85891436066E-02  0.10247179078E+00  0.77507532100E-01  0.13264958734E+00  0.31847357741E-01 0.  0.
         14    1    1    2    0    0 -0.12797910541E-01 -0.83246103471E-02  0.14721776588E-01  0.21208874500E-01  0.00000000000E+00 0. -1.
     999901    1    3    3    0    0  0.21387054148E-01 -0.94147180431E-01 -0.92229308688E-01  0.89007153816E+00  0.88000000000E+00 0.  1.
        -11    1    4    4    0    0 -0.62429957708E-02  0.38744902422E-01  0.49040595456E-01  0.62812288476E-01  0.51100000000E-03 0. -1.
         11    1    4    4    0    0 -0.23461478358E-02  0.63726888356E-01  0.28466936644E-01  0.69837298860E-01  0.51100000000E-03 0.  1.
</event>
<event>
 8    1  0.1075206E+005  0.1043930E+01  0.7957747E-01            NaN
         13   -1    0    0    0    0  0.00000000000E+00  0.00000000000E+00  0.74505805969E-08  0.10566000000E+00  0.10566000000E+00 0.  1.
     999900   -1    0    0    0    0 -0.00000000000E+00 -0.00000000000E+00 -0.74505805969E-08  0.93827000000E+00  0.93827000000E+00 0. -1.
     999902    2    1    2    0    0 -0.96336683905E-02  0.19565165619E-01  0.13277380470E-01  0.10183978222E+01  0.10180777142E+01 0.  0.
     999903    2    3    3    0    0  0.40554490619E-01  0.54654653118E-01  0.11002044199E+00  0.13098059032E+00  0.20484617871E-01 0.  0.
         14    1    1    2    0    0  0.96336683905E-02 -0.19565165619E-01 -0.13277380470E-01  0.25532177825E-01  0.00000000000E+00 0. -1.
     999901    1    3    3    0    0 -0.50188159009E-01 -0.35089487499E-01 -0.96743061517E-01  0.88741723185E+00  0.88000000000E+00 0. -1.
        -11    1    4    4    0    0  0.23745571406E-02  0.13168588718E-01  0.32269305095E-01  0.34937364279E-01  0.51100000000E-03 0.  1.
         11    1    4    4    0    0  0.38179933478E-01  0.41486064400E-01  0.77751136891E-01  0.96043226043E-01  0.51100000000E-03 0. -1.
</event>
<event>
 8    1  0.1075206E+005  0.1043930E+01  0.7957747E-01            NaN
         13   -1    0    0    0    0  0.00000000000E+00  0.00000000000E+00  0.74505805969E-08  0.10566000000E+00  0.10566000000E+00 0.  1.
     999900   -1    0    0    0    0 -0.00000000000E+00 -0.00000000000E+00 -0.74505805969E-08  0.93827000000E+00  0.93827000000E+00 0. -1.
     999902    2    1    2    0    0 -0.16724282364E-01 -0.47509624211E-02  0.16037514922E-01  0.10202767730E+01  0.10200025580E+01 0.  0.
     999903    2    3    3    0    0  0.10394794855E+00 -0.46250891358E-01 -0.55611832629E-01  0.12819064460E+00  0.19895840628E-01 0.  0.
         14    1    1    2    0    0  0.16724282364E-01  0.47509624211E-02 -0.16037514922E-01  0.23653227040E-01  0.00000000000E+00 0. -1.
     999901    1    3    3    0    0 -0.12067223091E+00  0.41499928937E-01  0.71649347551E-01  0.89208612836E+00  0.88000000000E+00 0.  1.
        -11    1    4    4    0    0  0.62018646134E-01 -0.29868181938E-01 -0.43997881638E-01  0.81697585462E-01  0.51100000000E-03 0.  1.
         11    1    4    4    0    0  0.41929302416E-01 -0.16382709420E-01 -0.11613950991E-01  0.46493059134E-01  0.51100000000E-03 0. -1.
</event>
<event>
 8    1  0.1075206E+005  0.1043930E+01  0.7957747E-01            NaN
         13   -1    0    0    0    0  0.00000000000E+00  0.00000000000E+00  0.74505805969E-08  0.10566000000E+00  0.10566000000E+00 0.  1.
     999900   -1    0    0    0    0 -0.00000000000E+00 -0.00000000000E+00 -0.74505805969E-08  0.93827000000E+00  0.93827000000E+00 0.  1.
     999902    2    1    2    0    0 -0.64244873322E-02  0.42622451712E-02  0.24173798106E-01  0.10185565240E+01  0.10182404329E+01 0.  0.
     999903    2    3    3    0    0  0.10524239828E+00  0.27339613705E-01 -0.62736966912E-01  0.12695373160E+00  0.18918405733E-01 0.  0.
         14    1    1    2    0    0  0.64244873322E-02 -0.42622451712E-02 -0.24173798106E-01  0.25373476038E-01  0.00000000000E+00 0. -1.
     999901    1    3    3    0    0 -0.11166688561E+00 -0.23077368533E-01  0.86910765018E-01  0.89160279237E+00  0.88000000000E+00 0.  1.
        -11    1    4    4    0    0  0.76404637359E-01  0.28382579999E-01 -0.46220053486E-01  0.93700554548E-01  0.51100000000E-03 0. -1.
         11    1    4    4    0    0  0.28837760920E-01 -0.10429662946E-02 -0.16516913426E-01  0.33253177047E-01  0.51100000000E-03 0.  1.
</event>
<event>
 8    1  0.1075206E+005  0.1043930E+01  0.7957747E-01            NaN
         13   -1    0    0    0    0  0.00000000000E+00  0.00000000000E+00  0.74505805969E-08  0.10566000000E+00  0.10566000000E+00 0.  1.
     999900   -1    0    0    0    0 -0.00000000000E+00 -0.00000000000E+00 -0.74505805969E-08  0.93827000000E+00  0.93827000000E+00 0. -1.
     999902    2    1    2    0    0 -0.75285942854E-02  0.17633980754E-01  0.13057630338E-01  0.10207321829E+01  0.10204685446E+01 0.  0.
     999903    2    3    3    0    0 -0.10266452555E+00  0.45316195327E-01 -0.65899546111E-01  0.13165885287E+00  0.19943444907E-01 0.  0.
         14    1    1    2    0    0  0.75285942854E-02 -0.17633980754E-01 -0.13057630338E-01  0.23197817122E-01  0.00000000000E+00 0. -1.
     999901    1    3    3    0    0  0.95135931269E-01 -0.27682214573E-01  0.78957176449E-01  0.88907333001E+00  0.88000000000E+00 0.  1.
        -11    1    4    4    0    0 -0.69490574544E-01  0.20290855235E-01 -0.40469125085E-01  0.82937747514E-01  0.51100000000E-03 0. -1.
         11    1    4    4    0    0 -0.33173951011E-01  0.25025340092E-01 -0.25430421025E-01  0.48721105354E-01  0.51100000000E-03 0.  1.
</event>
<event>
 8    1  0.1075206E+005  0.1043930E+01  0.7957747E-01            NaN
         13   -1    0    0    0    0  0.00000000000E+00  0.00000000000E+00  0.74505805969E-08  0.10566000000E+00  0.10566000000E+00 0.  1.
     999900   -1    0    0    0    0 -0.00000000000E+00 -0.00000000000E+00 -0.74505805969E-08  0.93827000000E+00  0.93827000000E+00 0. -1.
     999902    2    1    2    0    0  0.14626392861E-01 -0.22267336398E-03  0.13822638374E-01  0.10238042383E+01  0.10236064049E+01 0.  0.
     999903    2    3    3    0    0  0.43552244199E-02 -0.11111290550E+00 -0.69678915969E-01  0.13286392042E+00  0.20799621869E-01 0.  0.
         14    1    1    2    0    0 -0.14626392861E-01  0.22267336398E-03 -0.13822638374E-01  0.20125761679E-01  0.00000000000E+00 0. -1.
     999901    1    3    3    0    0  0.10271168441E-01  0.11089023214E+00  0.83501554343E-01  0.89094031790E+00  0.88000000000E+00 0.  1.
        -11    1    4    4    0    0  0.91075800413E-02 -0.21235167907E-01 -0.14971794893E-01  0.27537177298E-01  0.51100000000E-03 0. -1.
         11    1    4    4    0    0 -0.47523556214E-02 -0.89877737595E-01 -0.54707121076E-01  0.10532674312E+00  0.51100000000E-03 0.  1.
</event>
<event>
 8    1  0.1075206E+005  0.1043930E+01  0.7957747E-01            NaN
         13   -1    0    0    0    0  0.00000000000E+00  0.00000000000E+00  0.74505805969E-08  0.10566000000E+00  0.10566000000E+00 0. -1.
     999900   -1    0    0    0    0 -0.00000000000E+00 -0.00000000000E+00 -0.74505805969E-08  0.93827000000E+00  0.93827000000E+00 0.  1.
     999902    2    1    2    0    0 -0.48400010364E-02 -0.85337043592E-02  0.21685890394E-01  0.10201281605E+01  0.10198504480E+01 0.  0.
     999903    2    3    3    0    0 -0.10069457820E+00  0.64320895373E-01 -0.45273723503E-01  0.12940964014E+00  0.20507785357E-01 0.  0.
         14    1    1    2    0    0  0.48400010364E-02  0.85337043592E-02 -0.21685890394E-01  0.23801839473E-01  0.00000000000E+00 0.  1.
     999901    1    3    3    0    0  0.95854577167E-01 -0.72854599732E-01  0.66959613897E-01  0.89071852039E+00  0.88000000000E+00 0. -1.
        -11    1    4    4    0    0 -0.41169452269E-01  0.14655724530E-01 -0.16792831511E-01  0.46818525957E-01  0.51100000000E-03 0. -1.
         11    1    4    4    0    0 -0.59525125934E-01  0.49665170843E-01 -0.28480891991E-01  0.82591114183E-01  0.51100000000E-03 0.  1.
</event>
<event>
 8    1  0.1075206E+005  0.1043930E+01  0.7957747E-01            NaN
         13   -1    0    0    0    0  0.00000000000E+00  0.00000000000E+00  0.74505805969E-08  0.10566000000E+00  0.10566000000E+00 0. -1.
     999900   -1    0    0    0    0 -0.00000000000E+00 -0.00000000000E+00 -0.74505805969E-08  0.93827000000E+00  0.93827000000E+00 0. -1.
     999902    2    1    2    0    0  0.51239454866E-02  0.22348193401E-01  0.64337292667E-02  0.10201163603E+01  0.10198383691E+01 0.  0.
     999903    2    3    3    0    0  0.11364442507E+00 -0.51237039800E-01 -0.29570703661E-01  0.12967388585E+00  0.20015008370E-01 0.  0.
         14    1    1    2    0    0 -0.51239454866E-02 -0.22348193401E-01 -0.64337292667E-02  0.23813639745E-01  0.00000000000E+00 0.  1.
     999901    1    3    3    0    0 -0.10852047958E+00  0.73585233201E-01  0.36004432928E-01  0.89044247440E+00  0.88000000000E+00 0.  1.
        -11    1    4    4    0    0  0.70140773958E-01 -0.22766267228E-01 -0.23101980226E-01  0.77278675624E-01  0.51100000000E-03 0. -1.
         11    1    4    4    0    0  0.43503651109E-01 -0.28470772572E-01 -0.64687234352E-02  0.52395210225E-01  0.51100000000E-03 0.  1.
</event>
<event>
 8    1  0.1075206E+005  0.1043930E+01  0.7957747E-01            NaN
         13   -1    0    0    0    0  0.00000000000E+00  0.00000000000E+00  0.74505805969E-08  0.10566000000E+00  0.10566000000E+00 0.  1.
     999900   -1    0    0    0    0 -0.00000000000E+00 -0.00000000000E+00 -0.74505805969E-08  0.93827000000E+00  0.93827000000E+00 0.  1.
     999902    2    1    2    0    0 -0.12876246833E-01 -0.15978211125E-01 -0.11937560690E-01  0.10201896058E+01  0.10199133421E+01 0.  0.
     999903    2    3    3    0    0 -0.81766916875E-01 -0.52007559981E-02  0.99491470350E-01  0.13042643114E+00  0.19990615532E-01 0.  0.
         14    1    1    2    0    0  0.12876246833E-01  0.15978211125E-01  0.11937560690E-01  0.23740394236E-01  0.00000000000E+00 0.  1.
     999901    1    3    3    0    0  0.68890670042E-01 -0.10777455126E-01 -0.11142903104E+00  0.88976317462E+00  0.88000000000E+00 0.  1.
        -11    1    4    4    0    0 -0.42711339055E-01  0.51842442240E-02  0.60724509535E-01  0.74423531569E-01  0.51100000000E-03 0.  1.
         11    1    4    4    0    0 -0.39055577820E-01 -0.10385000222E-01  0.38766960816E-01  0.56002899571E-01  0.51100000000E-03 0. -1.
</event>
<event>
 8    1  0.1075206E+005  0.1043930E+01  0.7957747E-01            NaN
         13   -1    0    0    0    0  0.00000000000E+00  0.00000000000E+00  0.74505805969E-08  0.10566000000E+00  0.10566000000E+00 0. -1.
     999900   -1    0    0    0    0 -0.00000000000E+00 -0.00000000000E+00 -0.74505805969E-08  0.93827000000E+00  0.93827000000E+00 0.  1.
     999902    2    1    2    0    0 -0.22332123216E-01 -0.11169187759E-01  0.37509844894E-02  0.10186803591E+01  0.10183673844E+01 0.  0.
     999903    2    3    3    0    0  0.18330044747E-01  0.12442037394E+00 -0.23918542105E-02  0.12734670907E+00  0.19875697558E-01 0.  0.
         14    1    1    2    0    0  0.22332123216E-01  0.11169187759E-01 -0.37509844894E-02  0.25249640932E-01  0.00000000000E+00 0.  1.
     999901    1    3    3    0    0 -0.40662167964E-01 -0.13558956170E+00  0.61428386998E-02  0.89133364999E+00  0.88000000000E+00 0.  1.
        -11    1    4    4    0    0  0.93154050821E-02  0.40393746688E-01  0.79287555944E-02  0.42208504234E-01  0.51100000000E-03 0. -1.
         11    1    4    4    0    0  0.90146396653E-02  0.84026627252E-01 -0.10320609805E-01  0.85138204840E-01  0.51100000000E-03 0.  1.
</event>
<event>
 8    1  0.1075206E+005  0.1043930E+01  0.7957747E-01            NaN
         13   -1    0    0    0    0  0.00000000000E+00  0.00000000000E+00  0.74505805969E-08  0.10566000000E+00  0.10566000000E+00 0.  1.
     999900   -1    0    0    0    0 -0.00000000000E+00 -0.00000000000E+00 -0.74505805969E-08  0.93827000000E+00  0.93827000000E+00 0. -1.
     999902    2    1    2    0    0  0.18191291454E-01 -0.12295144112E-01  0.17862269577E-01  0.10156253303E+01  0.10152308394E+01 0.  0.
     999903    2    3    3    0    0  0.81255499024E-01  0.61321636631E-01 -0.71413262192E-01  0.12581262793E+00  0.19135414555E-01 0.  0.
         14    1    1    2    0    0 -0.18191291454E-01  0.12295144112E-01 -0.17862269577E-01  0.28304669720E-01  0.00000000000E+00 0. -1.
     999901    1    3    3    0    0 -0.63064207570E-01 -0.73616780743E-01  0.89275531769E-01  0.88981270235E+00  0.88000000000E+00 0. -1.
        -11    1    4    4    0    0  0.42652523719E-01  0.36201590784E-01 -0.49939722435E-01  0.74993532740E-01  0.51100000000E-03 0. -1.
         11    1    4    4    0    0  0.38602975305E-01  0.25120045847E-01 -0.21473539757E-01  0.50819095195E-01  0.51100000000E-03 0.  1.
</event>
<event>
 8    1  0.1075206E+005  0.1043930E+01  0.7957747E-01            NaN
         13   -1    0    0    0    0  0.00000000000E+00  0.00000000000E+00  0.74505805969E-08  0.10566000000E+00  0.10566000000E+00 0. -1.
     999900   -1    0    0    0    0 -0.00000000000E+00 -0.00000000000E+00 -0.74505805969E-08  0.93827000000E+00  0.93827000000E+00 0.  1.
     999902    2    1    2    0    0 -0.10460748213E-02 -0.24872295514E-01  0.40759794077E-02  0.10187042401E+01  0.10183918645E+01 0.  0.
     999903    2    3    3    0    0 -0.30154539598E-01 -0.36616694802E-02  0.12461480096E+00  0.12975722202E+00  0.19631198769E-01 0.  0.
         14    1    1    2    0    0  0.10460748213E-02  0.24872295514E-01 -0.40759794077E-02  0.25225759945E-01  0.00000000000E+00 0. -1.
     999901    1    3    3    0    0  0.29108464777E-01 -0.21210626034E-01 -0.12053882155E+00  0.88894701804E+00  0.88000000000E+00 0.  1.
        -11    1    4    4    0    0 -0.44997362620E-02 -0.88766459181E-02  0.32554243161E-01  0.34045298324E-01  0.51100000000E-03 0. -1.
         11    1    4    4    0    0 -0.25654803336E-01  0.52149764379E-02  0.92060557800E-01  0.95711923692E-01  0.51100000000E-03 0.  1.
</event>
<event>
 8    1  0.1154410E+005  0.1043930E+01  0.7957747E-01            NaN
         13   -1    0    0    0    0  0.00000000000E+00  0.00000000000E+00  0.74505805969E-08  0.10566000000E+00  0.10566000000E+00 0. -1.
     999900   -1    0    0    0    0 -0.00000000000E+00 -0.00000000000E+00 -0.74505805969E-08  0.93827000000E+00  0.93827000000E+00 0. -1.
     999902    2    1    2    0    0  0.22523110987E-01  0.54526309210E-02  0.59798251671E-02  0.10199971769E+01  0.10197163629E+01 0.  0.
     999903    2    3    3    0    0 -0.11505143180E+00 -0.37979874556E-01 -0.34046023078E-01  0.12735211537E+00  0.19496840007E-01 0.  0.
         14    1    1    2    0    0 -0.22523110987E-01 -0.54526309210E-02 -0.59798251671E-02  0.23932823100E-01  0.00000000000E+00 0.  1.
     999901    1    3    3    0    0  0.13757454279E+00  0.43432505477E-01  0.40025848245E-01  0.89264506153E+00  0.88000000000E+00 0. -1.
        -11    1    4    4    0    0 -0.48274343482E-01 -0.16858305078E-01 -0.44933458020E-02  0.51332893609E-01  0.51100000000E-03 0.  1.
         11    1    4    4    0    0 -0.66777088317E-01 -0.21121569478E-01 -0.29552677276E-01  0.76019221756E-01  0.51100000000E-03 0. -1.
</event>
<event>
 8    1  0.1075206E+005  0.1043930E+01  0.7957747E-01            NaN
         13   -1    0    0    0    0  0.00000000000E+00  0.00000000000E+00  0.74505805969E-08  0.10566000000E+00  0.10566000000E+00 0. -1.
     999900   -1    0    0    0    0 -0.00000000000E+00 -0.00000000000E+00 -0.74505805969E-08  0.93827000000E+00  0.93827000000E+00 0.  1.
     999902    2    1    2    0    0  0.99823201796E-02 -0.18225058375E-01  0.89818279482E-02  0.10212921401E+01  0.10210412150E+01 0.  0.
     999903    2    3    3    0    0  0.98941178819E-02 -0.63755663138E-01 -0.11278393078E+00  0.13174172343E+00  0.21748298761E-01 0.  0.
         14    1    1    2    0    0 -0.99823201796E-02  0.18225058375E-01 -0.89818279482E-02  0.22637859930E-01  0.00000000000E+00 0.  1.
     999901    1    3    3    0    0  0.88202297686E-04  0.45530604763E-01  0.12176575873E+00  0.88955041664E+00  0.88000000000E+00 0. -1.
        -11    1    4    4    0    0 -0.15984607878E-02 -0.49829856175E-01 -0.86711810742E-01  0.10002384159E+00  0.51100000000E-03 0.  1.
         11    1    4    4    0    0  0.11492578670E-01 -0.13925806963E-01 -0.26072120037E-01  0.31717881838E-01  0.51100000000E-03 0. -1.
</event>
<event>
 8    1  0.1075206E+005  0.1043930E+01  0.7957747E-01            NaN
         13   -1    0    0    0    0  0.00000000000E+00  0.00000000000E+00  0.74505805969E-08  0.10566000000E+00  0.10566000000E+00 0. -1.
     999900   -1    0    0    0    0 -0.00000000000E+00 -0.00000000000E+00 -0.74505805969E-08  0.93827000000E+00  0.93827000000E+00 0. -1.
     999902    2    1    2    0    0  0.14290775537E-01 -0.98046573800E-03 -0.16709676981E-01  0.10219208909E+01  0.10216838583E+01 0.  0.
     999903    2    3    3    0    0  0.10893936126E+00  0.70132864746E-01 -0.27700375247E-01  0.13392525127E+00  0.19551444723E-01 0.  0.
         14    1    1    2    0    0 -0.14290775537E-01  0.98046573800E-03  0.16709676981E-01  0.22009109099E-01  0.00000000000E+00 0. -1.
     999901    1    3    3    0    0 -0.94648585721E-01 -0.71113330484E-01  0.10990698266E-01  0.88799563963E+00  0.88000000000E+00 0.  1.
        -11    1    4    4    0    0  0.45468856450E-01  0.23780252964E-01 -0.24507338325E-02  0.51372994415E-01  0.51100000000E-03 0. -1.
         11    1    4    4    0    0  0.63470504808E-01  0.46352611782E-01 -0.25249641414E-01  0.82552256857E-01  0.51100000000E-03 0.  1.
</event>
<event>
 8    1  0.1075206E+005  0.1043930E+01  0.7957747E-01            NaN
         13   -1    0    0    0    0  0.00000000000E+00  0.00000000000E+00  0.74505805969E-08  0.10566000000E+00  0.10566000000E+00 0.  1.
     999900   -1    0    0    0    0 -0.00000000000E+00 -0.00000000000E+00 -0.74505805969E-08  0.93827000000E+00  0.93827000000E+00 0. -1.
     999902    2    1    2    0    0 -0.18391997280E-01 -0.14502562501E-01  0.40767184216E-02  0.10201558646E+01  0.10198788058E+01 0.  0.
     999903    2    3    3    0    0 -0.54199154319E-01  0.75004794499E-01 -0.89287669932E-01  0.12998137129E+00  0.18963157785E-01 0.  0.
         14    1    1    2    0    0  0.18391997280E-01  0.14502562501E-01 -0.40767184216E-02  0.23774135444E-01  0.00000000000E+00 0.  1.
     999901    1    3    3    0    0  0.35807157039E-01 -0.89507357000E-01  0.93364388354E-01  0.89017449327E+00  0.88000000000E+00 0.  1.
        -11    1    4    4    0    0 -0.51895778047E-01  0.75680533407E-01 -0.85236070102E-01  0.12524441578E+00  0.51100000000E-03 0. -1.
         11    1    4    4    0    0 -0.23033762721E-02 -0.67573890872E-03 -0.40515998303E-02  0.47369555105E-02  0.51100000000E-03 0.  1.
</event>
<event>
 8    1  0.1075206E+005  0.1043930E+01  0.7957747E-01            NaN
         13   -1    0    0    0    0  0.00000000000E+00  0.00000000000E+00  0.74505805969E-08  0.10566000000E+00  0.10566000000E+00 0. -1.
     999900   -1    0    0    0    0 -0.00000000000E+00 -0.00000000000E+00 -0.74505805969E-08  0.93827000000E+00  0.93827000000E+00 0. -1.
     999902    2    1    2    0    0 -0.20178816571E-01 -0.30884366698E-03  0.12010363035E-01  0.10204453488E+01  0.10201750737E+01 0.  0.
     999903    2    3    3    0    0  0.47218922500E-02 -0.69078714067E-02  0.13010280490E+00  0.13218332815E+00  0.21810030841E-01 0.  0.
         14    1    1    2    0    0  0.20178816571E-01  0.30884366698E-03 -0.12010363035E-01  0.23484651219E-01  0.00000000000E+00 0.  1.
     999901    1    3    3    0    0 -0.24900708821E-01  0.65990277397E-02 -0.11809244186E+00  0.88826202063E+00  0.88000000000E+00 0. -1.
        -11    1    4    4    0    0  0.12427628416E-01 -0.78204257579E-02  0.10084727846E+00  0.10191192129E+00  0.51100000000E-03 0. -1.
         11    1    4    4    0    0 -0.77057361660E-02  0.91255435121E-03  0.29255526438E-01  0.30271406863E-01  0.51100000000E-03 0.  1.
</event>
<event>
 8    1  0.1075206E+005  0.1043930E+01  0.7957747E-01            NaN
         13   -1    0    0    0    0  0.00000000000E+00  0.00000000000E+00  0.74505805969E-08  0.10566000000E+00  0.10566000000E+00 0. -1.
     999900   -1    0    0    0    0 -0.00000000000E+00 -0.00000000000E+00 -0.74505805969E-08  0.93827000000E+00  0.93827000000E+00 0. -1.
     999902    2    1    2    0    0  0.17748945052E-01  0.49046647056E-02  0.15665025347E-01  0.10197541069E+01  0.10194674908E+01 0.  0.
     999903    2    3    3    0    0 -0.68188053591E-02 -0.77376881007E-01  0.10382880922E+00  0.13118971427E+00  0.19915865155E-01 0.  0.
         14    1    1    2    0    0 -0.17748945052E-01 -0.49046647056E-02 -0.15665025347E-01  0.24175893065E-01  0.00000000000E+00 0.  1.
     999901    1    3    3    0    0  0.24567750411E-01  0.82281545713E-01 -0.88163783875E-01  0.88856439267E+00  0.88000000000E+00 0. -1.
        -11    1    4    4    0    0 -0.72855651199E-02 -0.39698262336E-01  0.68646513832E-01  0.79634392531E-01  0.51100000000E-03 0.  1.
         11    1    4    4    0    0  0.46675976073E-03 -0.37678618671E-01  0.35182295391E-01  0.51555321739E-01  0.51100000000E-03 0. -1.
</event>
<event>
 8    1  0.1075206E+005  0.1043930E+01  0.7957747E-01            NaN
         13   -1    0    0    0    0  0.00000000000E+00  0.00000000000E+00  0.74505805969E-08  0.10566000000E+00  0.10566000000E+00 0.  1.
     999900   -1    0    0    0    0 -0.00000000000E+00 -0.00000000000E+00 -0.74505805969E-08  0.93827000000E+00  0.93827000000E+00 0.  1.
     999902    2    1    2    0    0 -0.22365544941E-01 -0.58563130418E-02  0.64074500567E-02  0.10199389721E+01  0.10196567743E+01 0.  0.
     999903    2    3    3    0    0 -0.83930596618E-01 -0.13759674632E-01  0.10002991179E+00  0.13279868780E+00  0.19895590812E-01 0.  0.
         14    1    1    2    0    0  0.22365544941E-01  0.58563130418E-02 -0.64074500567E-02  0.23991027889E-01  0.00000000000E+00 0.  1.
     999901    1    3    3    0    0  0.61565051677E-01  0.79033615902E-02 -0.93622461731E-01  0.88714028431E+00  0.88000000000E+00 0.  1.
        -11    1    4    4    0    0 -0.47427895020E-01 -0.11493264699E-02  0.66258115632E-01  0.81493099005E-01  0.51100000000E-03 0. -1.
         11    1    4    4    0    0 -0.36502701598E-01 -0.12610348162E-01  0.33771796156E-01  0.51305588792E-01  0.51100000000E-03 0.  1.
</event>
<event>
 8    1  0.1075206E+005  0.1043930E+01  0.7957747E-01            NaN
         13   -1    0    0    0    0  0.00000000000E+00  0.00000000000E+00  0.74505805969E-08  0.10566000000E+00  0.10566000000E+00 0. -1.
     999900   -1    0    0    0    0 -0.00000000000E+00 -0.00000000000E+00 -0.74505805969E-08  0.93827000000E+00  0.93827000000E+00 0. -1.
     999902    2    1    2    0    0 -0.44586217524E-02 -0.16486030720E-01 -0.16855153603E-01  0.10199349022E+01  0.10196526075E+01 0.  0.
     999903    2    3    3    0    0 -0.48669607001E-01  0.10008046068E+00 -0.63458833804E-01  0.12992689033E+00  0.21659731940E-01 0.  0.
         14    1    1    2    0    0  0.44586217524E-02  0.16486030720E-01  0.16855153603E-01  0.23995097829E-01  0.00000000000E+00 0. -1.
     999901    1    3    3    0    0  0.44210985248E-01 -0.11656649140E+00  0.46603680200E-01  0.89000801184E+00  0.88000000000E+00 0.  1.
        -11    1    4    4    0    0 -0.24616937232E-01  0.73523073440E-01 -0.42844925749E-01  0.88586594416E-01  0.51100000000E-03 0. -1.
         11    1    4    4    0    0 -0.24052669768E-01  0.26557387238E-01 -0.20613908055E-01  0.41340295913E-01  0.51100000000E-03 0.  1.
</event>
<event>
 8    1  0.1075206E+005  0.1043930E+01  0.7957747E-01            NaN
         13   -1    0    0    0    0  0.00000000000E+00  0.00000000000E+00  0.74505805969E-08  0.10566000000E+00  0.10566000000E+00 0.  1.
     999900   -1    0    0    0    0 -0.00000000000E+00 -0.00000000000E+00 -0.74505805969E-08  0.93827000000E+00  0.93827000000E+00 0. -1.
     999902    2    1    2    0    0 -0.20179423202E-01 -0.98695415929E-02 -0.65764235839E-02  0.10205234556E+01  0.10202549962E+01 0.  0.
     999903    2    3    3    0    0 -0.37856899391E-01  0.52767106424E-01  0.11129800115E+00  0.13028179022E+00  0.19198631484E-01 0.  0.
         14    1    1    2    0    0  0.20179423202E-01  0.98695415929E-02  0.65764235839E-02  0.23406544366E-01  0.00000000000E+00 0.  1.
     999901    1    3    3    0    0  0.17677476189E-01 -0.62636648017E-01 -0.11787442473E+00  0.89024166542E+00  0.88000000000E+00 0. -1.
        -11    1    4    4    0    0 -0.18877403731E-01  0.17509630269E-01  0.59305761868E-01  0.64655843011E-01  0.51100000000E-03 0. -1.
         11    1    4    4    0    0 -0.18979495660E-01  0.35257476155E-01  0.51992239279E-01  0.65625947205E-01  0.51100000000E-03 0.  1.
</event>
<event>
 8    1  0.1075206E+005  0.1043930E+01  0.7957747E-01            NaN
         13   -1    0    0    0    0  0.00000000000E+00  0.00000000000E+00  0.74505805969E-08  0.10566000000E+00  0.10566000000E+00 0.  1.
     999900   -1    0    0    0    0 -0.00000000000E+00 -0.00000000000E+00 -0.74505805969E-08  0.93827000000E+00  0.93827000000E+00 0.  1.
     999902    2    1    2    0    0 -0.15946051551E-02  0.23569148857E-01  0.17078733206E-03  0.10203063527E+01  0.10200328312E+01 0.  0.
     999903    2    3    3    0    0 -0.36987982709E-01 -0.12063121330E+00 -0.58252526609E-02  0.12784773287E+00  0.19776469445E-01 0.  0.
         14    1    1    2    0    0  0.15946051551E-02 -0.23569148857E-01 -0.17078733206E-03  0.23623647300E-01  0.00000000000E+00 0. -1.
     999901    1    3    3    0    0  0.35393377554E-01  0.14420036216E+00  0.59960399930E-02  0.89245861983E+00  0.88000000000E+00 0. -1.
        -11    1    4    4    0    0 -0.35483683906E-01 -0.86345142335E-01 -0.56557072171E-02  0.93524454414E-01  0.51100000000E-03 0. -1.
         11    1    4    4    0    0 -0.15042988024E-02 -0.34286070964E-01 -0.16954544379E-03  0.34323278452E-01  0.51100000000E-03 0.  1.
</event>
<event>
 8    1  0.1075206E+005  0.1043930E+01  0.7957747E-01            NaN
         13   -1    0    0    0    0  0.00000000000E+00  0.00000000000E+00  0.74505805969E-08  0.10566000000E+00  0.10566000000E+00 0.  1.
     999900   -1    0    0    0    0 -0.00000000000E+00 -0.00000000000E+00 -0.74505805969E-08  0.93827000000E+00  0.93827000000E+00 0. -1.
     999902    2    1    2    0    0 -0.12709269009E-02  0.15832356666E-01  0.15394348437E-01  0.10218106705E+01  0.10215712318E+01 0.  0.
     999903    2    3    3    0    0  0.96117653889E-01  0.86210939405E-01  0.27761746618E-01  0.13355922351E+00  0.19910352774E-01 0.  0.
         14    1    1    2    0    0  0.12709269009E-02 -0.15832356666E-01 -0.15394348437E-01  0.22119329479E-01  0.00000000000E+00 0. -1.
     999901    1    3    3    0    0 -0.97388580789E-01 -0.70378582739E-01 -0.12367398181E-01  0.88825144701E+00  0.88000000000E+00 0.  1.
        -11    1    4    4    0    0  0.25683466639E-01  0.16620902823E-01 -0.46168170334E-03  0.30600149349E-01  0.51100000000E-03 0.  1.
         11    1    4    4    0    0  0.70434187250E-01  0.69590036583E-01  0.28223428321E-01  0.10295907416E+00  0.51100000000E-03 0. -1.
</event>
<event>
 8    1  0.1075206E+005  0.1043930E+01  0.7957747E-01            NaN
         13   -1    0    0    0    0  0.00000000000E+00  0.00000000000E+00  0.74505805969E-08  0.10566000000E+00  0.10566000000E+00 0. -1.
     999900   -1    0    0    0    0 -0.00000000000E+00 -0.00000000000E+00 -0.74505805969E-08  0.93827000000E+00  0.93827000000E+00 0.  1.
     999902    2    1    2    0    0  0.19430953725E-02 -0.21754830770E-01 -0.12497434576E-01  0.10187658558E+01  0.10184550235E+01 0.  0.
     999903    2    3    3    0    0 -0.86575172144E-01  0.65768570538E-01  0.62108411256E-01  0.12687916924E+00  0.20496427400E-01 0.  0.
         14    1    1    2    0    0 -0.19430953725E-02  0.21754830770E-01  0.12497434576E-01  0.25164144182E-01  0.00000000000E+00 0. -1.
     999901    1    3    3    0    0  0.88518267517E-01 -0.87523401307E-01 -0.74605845832E-01  0.89188668658E+00  0.88000000000E+00 0. -1.
        -11    1    4    4    0    0 -0.52451499054E-01  0.50360805682E-01  0.35328658159E-01  0.80843959022E-01  0.51100000000E-03 0.  1.
         11    1    4    4    0    0 -0.34123673090E-01  0.15407764856E-01  0.26779753097E-01  0.46035210220E-01  0.51100000000E-03 0. -1.
</event>
<event>
 8    1  0.1075206E+005  0.1043930E+01  0.7957747E-01            NaN
         13   -1    0    0    0    0  0.00000000000E+00  0.00000000000E+00  0.74505805969E-08  0.10566000000E+00  0.10566000000E+00 0. -1.
     999900   -1    0    0    0    0 -0.00000000000E+00 -0.00000000000E+00 -0.74505805969E-08  0.93827000000E+00  0.93827000000E+00 0. -1.
     999902    2    1    2    0    0  0.48957418348E-02  0.15266440940E-01  0.17239834488E-01  0.10203876042E+01  0.10201159828E+01 0.  0.
     999903    2    3    3    0    0  0.41183213327E-02  0.33720123557E-01 -0.12298888541E+00  0.12909346831E+00  0.19617602329E-01 0.  0.
         14    1    1    2    0    0 -0.48957418348E-02 -0.15266440940E-01 -0.17239834488E-01  0.23542395806E-01  0.00000000000E+00 0.  1.
     999901    1    3    3    0    0  0.77742050210E-03 -0.18453682617E-01  0.14022871990E+00  0.89129413589E+00  0.88000000000E+00 0.  1.
        -11    1    4    4    0    0  0.51939640433E-02  0.37297395722E-03 -0.10080968247E-01  0.11357966977E-01  0.51100000000E-03 0.  1.
         11    1    4    4    0    0 -0.10756427106E-02  0.33347149600E-01 -0.11290791716E+00  0.11773550133E+00  0.51100000000E-03 0. -1.
</event>
<event>
 8    1  0.1075206E+005  0.1043930E+01  0.7957747E-01            NaN
         13   -1    0    0    0    0  0.00000000000E+00  0.00000000000E+00  0.74505805969E-08  0.10566000000E+00  0.10566000000E+00 0. -1.
     999900   -1    0    0    0    0 -0.00000000000E+00 -0.00000000000E+00 -0.74505805969E-08  0.93827000000E+00  0.93827000000E+00 0. -1.
     999902    2    1    2    0    0  0.18166931798E-01 -0.71867369527E-02  0.12828054245E-01  0.10205581029E+01  0.10202904468E+01 0.  0.
     999903    2    3    3    0    0 -0.87172666783E-01  0.35977327481E-01  0.87641248655E-01  0.13007700733E+00  0.18590251295E-01 0.  0.
         14    1    1    2    0    0 -0.18166931798E-01  0.71867369527E-02 -0.12828054245E-01  0.23371897113E-01  0.00000000000E+00 0.  1.
     999901    1    3    3    0    0  0.10533959858E+00 -0.43164064434E-01 -0.74813194410E-01  0.89048109556E+00  0.88000000000E+00 0.  1.
        -11    1    4    4    0    0 -0.75377001010E-01  0.30362638946E-01  0.65546177869E-01  0.10440375797E+00  0.51100000000E-03 0.  1.
         11    1    4    4    0    0 -0.11795665773E-01  0.56146885348E-02  0.22095070786E-01  0.25673249355E-01  0.51100000000E-03 0. -1.
</event>
<event>
 8    1  0.1075206E+005  0.1043930E+01  0.7957747E-01            NaN
         13   -1    0    0    0    0  0.00000000000E+00  0.00000000000E+00  0.74505805969E-08  0.10566000000E+00  0.10566000000E+00 0. -1.
     999900   -1    0    0    0    0 -0.00000000000E+00 -0.00000000000E+00 -0.74505805969E-08  0.93827000000E+00  0.93827000000E+00 0.  1.
     999902    2    1    2    0    0  0.36929479642E-02  0.22134926652E-01 -0.98582309604E-02  0.10194192358E+01  0.10191245266E+01 0.  0.
     999903    2    3    3    0    0 -0.97327865209E-01 -0.71633824619E-01 -0.38805196285E-01  0.12822020631E+00  0.18178555294E-01 0.  0.
         14    1    1    2    0    0 -0.36929479642E-02 -0.22134926652E-01  0.98582309604E-02  0.24510764170E-01  0.00000000000E+00 0. -1.
     999901    1    3    3    0    0  0.10102081317E+00  0.93768751271E-01  0.28946965325E-01  0.89119902952E+00  0.88000000000E+00 0. -1.
        -11    1    4    4    0    0 -0.85718592642E-01 -0.67196428856E-01 -0.29982680989E-01  0.11297017065E+00  0.51100000000E-03 0. -1.
         11    1    4    4    0    0 -0.11609272567E-01 -0.44373957630E-02 -0.88225152964E-02  0.15250035667E-01  0.51100000000E-03 0.  1.
</event>
<event>
 8    1  0.1075206E+005  0.1043930E+01  0.7957747E-01            NaN
         13   -1    0    0    0    0  0.00000000000E+00  0.00000000000E+00  0.74505805969E-08  0.10566000000E+00  0.10566000000E+00 0.  1.
     999900   -1    0    0    0    0 -0.00000000000E+00 -0.00000000000E+00 -0.74505805969E-08  0.93827000000E+00  0.93827000000E+00 0. -1.
     999902    2    1    2    0    0  0.15897291657E-01  0.92251235495E-03  0.17213471193E-01  0.10204805117E+01  0.10202110548E+01 0.  0.
     999903    2    3    3    0    0  0.47680337981E-01  0.98357961641E-02 -0.11850692284E+00  0.12946444337E+00  0.18627770136E-01 0.  0.
         14    1    1    2    0    0 -0.15897291657E-01 -0.92251235495E-03 -0.17213471193E-01  0.23449488302E-01  0.00000000000E+00 0. -1.
     999901    1    3    3    0    0 -0.31783046324E-01 -0.89132838091E-02  0.13572039403E+00  0.89101606833E+00  0.88000000000E+00 0.  1.
        -11    1    4    4    0    0  0.27518983250E-01 -0.18042747985E-02 -0.49934802153E-01  0.57046432261E-01  0.51100000000E-03 0. -1.
         11    1    4    4    0    0  0.20161354730E-01  0.11640070963E-01 -0.68572120687E-01  0.72418011109E-01  0.51100000000E-03 0.  1.
</event>
<event>
 8    1  0.1075206E+005  0.1043930E+01  0.7957747E-01            NaN
         13   -1    0    0    0    0  0.00000000000E+00  0.00000000000E+00  0.74505805969E-08  0.10566000000E+00  0.10566000000E+00 0.  1.
     999900   -1    0    0    0    0 -0.00000000000E+00 -0.00000000000E+00 -0.74505805969E-08  0.93827000000E+00  0.93827000000E+00 0. -1.
     999902    2    1    2    0    0 -0.13273498644E-01 -0.55779798833E-03 -0.18718019942E-01  0.10209765433E+01  0.10207184924E+01 0.  0.
     999903    2    3    3    0    0 -0.34374030584E-01 -0.11955792662E+00  0.36074906961E-01  0.13102793358E+00  0.19780006839E-01 0.  0.
         14    1    1    2    0    0  0.13273498644E-01  0.55779798833E-03  0.18718019942E-01  0.22953456720E-01  0.00000000000E+00 0.  1.
     999901    1    3    3    0    0  0.21100531940E-01  0.11900012863E+00 -0.54792926903E-01  0.88994860970E+00  0.88000000000E+00 0. -1.
        -11    1    4    4    0    0 -0.17645369993E-01 -0.78678348310E-01  0.31689223491E-01  0.86637806883E-01  0.51100000000E-03 0. -1.
         11    1    4    4    0    0 -0.16728660592E-01 -0.40879578310E-01  0.43856834701E-02  0.44390126701E-01  0.51100000000E-03 0.  1.
</event>
<event>
 8    1  0.1075206E+005  0.1043930E+01  0.7957747E-01            NaN
         13   -1    0    0    0    0  0.00000000000E+00  0.00000000000E+00  0.74505805969E-08  0.10566000000E+00  0.10566000000E+00 0. -1.
     999900   -1    0    0    0    0 -0.00000000000E+00 -0.00000000000E+00 -0.74505805969E-08  0.93827000000E+00  0.93827000000E+00 0.  1.
     999902    2    1    2    0    0  0.15976441710E-01  0.16657062771E-01 -0.57757831089E-02  0.10201378984E+01  0.10198604157E+01 0.  0.
     999903    2    3    3    0    0  0.45153461276E-01  0.94386820134E-01 -0.80011633409E-01  0.13311807044E+00  0.19257526252E-01 0.  0.
         14    1    1    2    0    0 -0.15976441710E-01 -0.16657062771E-01  0.57757831089E-02  0.23792101639E-01  0.00000000000E+00 0.  1.
     999901    1    3    3    0    0 -0.29177019565E-01 -0.77729757363E-01  0.74235850300E-01  0.88701982792E+00  0.88000000000E+00 0. -1.
        -11    1    4    4    0    0  0.40221794590E-01  0.74612031241E-01 -0.55873967399E-01  0.10152294972E+00  0.51100000000E-03 0.  1.
         11    1    4    4    0    0  0.49316666859E-02  0.19774788894E-01 -0.24137666010E-01  0.31595120723E-01  0.51100000000E-03 0. -1.
</event>
<event>
 8    1  0.1075206E+005  0.1043930E+01  0.7957747E-01            NaN
         13   -1    0    0    0    0  0.00000000000E+00  0.00000000000E+00  0.74505805969E-08  0.10566000000E+00  0.10566000000E+00 0. -1.
     999900   -1    0    0    0    0 -0.00000000000E+00 -0.00000000000E+00 -0.74505805969E-08  0.93827000000E+00  0.93827000000E+00 0.  1.
     999902    2    1    2    0    0  0.12414048206E-01 -0.15456280771E-01 -0.12937225198E-01  0.10202577165E+01  0.10199830544E+01 0.  0.
     999903    2    3    3    0    0 -0.14940218006E-01 -0.94543494783E-01 -0.90145725146E-01  0.13292226940E+00  0.19503728352E-01 0.  0.
         14    1    1    2    0    0 -0.12414048206E-01  0.15456280771E-01  0.12937225198E-01  0.23672283455E-01  0.00000000000E+00 0. -1.
     999901    1    3    3    0    0  0.27354266212E-01  0.79087214012E-01  0.77208499948E-01  0.88733544715E+00  0.88000000000E+00 0. -1.
        -11    1    4    4    0    0 -0.18833356090E-01 -0.88150618411E-01 -0.84197889755E-01  0.12334817627E+00  0.51100000000E-03 0. -1.
         11    1    4    4    0    0  0.38931380838E-02 -0.63928763720E-02 -0.59478353912E-02  0.95740931313E-02  0.51100000000E-03 0.  1.
</event>
<event>
 8    1  0.1075206E+005  0.1043930E+01  0.7957747E-01            NaN
         13   -1    0    0    0    0  0.00000000000E+00  0.00000000000E+00  0.74505805969E-08  0.10566000000E+00  0.10566000000E+00 0.  1.
     999900   -1    0    0    0    0 -0.00000000000E+00 -0.00000000000E+00 -0.74505805969E-08  0.93827000000E+00  0.93827000000E+00 0. -1.
     999902    2    1    2    0    0 -0.11384472324E-01 -0.19937429221E-01 -0.49745353945E-02  0.10204384420E+01  0.10201680061E+01 0.  0.
     999903    2    3    3    0    0  0.74111872659E-01  0.96823207332E-01  0.32780426357E-01  0.12781976173E+00  0.19900552520E-01 0.  0.
         14    1    1    2    0    0  0.11384472324E-01  0.19937429221E-01  0.49745353945E-02  0.23491557982E-01  0.00000000000E+00 0.  1.
     999901    1    3    3    0    0 -0.85496344983E-01 -0.11676063655E+00 -0.37754961751E-01  0.89261868028E+00  0.88000000000E+00 0. -1.
        -11    1    4    4    0    0  0.11401436052E-01  0.10797675091E-01  0.10939613148E-01  0.19144680416E-01  0.51100000000E-03 0.  1.
         11    1    4    4    0    0  0.62710436607E-01  0.86025532242E-01  0.21840813208E-01  0.10867508132E+00  0.51100000000E-03 0. -1.
</event>
<event>
 8    1  0.1075206E+005  0.1043930E+01  0.7957747E-01            NaN
         13   -1    0    0    0    0  0.00000000000E+00  0.00000000000E+00  0.74505805969E-08  0.10566000000E+00  0.10566000000E+00 0.  1.
     999900   -1    0    0    0    0 -0.00000000000E+00 -0.00000000000E+00 -0.74505805969E-08  0.93827000000E+00  0.93827000000E+00 0.  1.
     999902    2    1    2    0    0  0.16609105401E-01  0.17003942968E-02 -0.12861838482E-01  0.10228544072E+01  0.10226372562E+01 0.  0.
     999903    2    3    3    0    0 -0.10412097281E+00  0.30400778330E-01 -0.72671872570E-01  0.13213744653E+00  0.20340093708E-01 0.  0.
         14    1    1    2    0    0 -0.16609105401E-01 -0.17003942968E-02  0.12861838482E-01  0.21075592806E-01  0.00000000000E+00 0.  1.
     999901    1    3    3    0    0  0.12073007821E+00 -0.28700384034E-01  0.59810034089E-01  0.89071696066E+00  0.88000000000E+00 0. -1.
        -11    1    4    4    0    0 -0.36629887786E-01  0.14703446858E-01 -0.37419779163E-01  0.54391552858E-01  0.51100000000E-03 0. -1.
         11    1    4    4    0    0 -0.67491085024E-01  0.15697331472E-01 -0.35252093407E-01  0.77745893677E-01  0.51100000000E-03 0.  1.
</event>
<event>
 8    1  0.1075206E+005  0.1043930E+01  0.7957747E-01            NaN
         13   -1    0    0    0    0  0.00000000000E+00  0.00000000000E+00  0.74505805969E-08  0.10566000000E+00  0.10566000000E+00 0.  1.
     999900   -1    0    0    0    0 -0.00000000000E+00 -0.00000000000E+00 -0.74505805969E-08  0.93827000000E+00  0.93827000000E+00 0. -1.
     999902    2    1    2    0    0  0.22269903095E-02 -0.18822308860E-01 -0.13816603158E-01  0.10204749937E+01  0.10202054085E+01 0.  0.
     999903    2    3    3    0    0  0.11688788594E+00  0.45811133904E-01 -0.29821241948E-01  0.13054198986E+00  0.19760232182E-01 0.  0.
         14    1    1    2    0    0 -0.22269903095E-02  0.18822308860E-01  0.13816603158E-01  0.23455006277E-01  0.00000000000E+00 0.  1.
     999901    1    3    3    0    0 -0.11466089563E+00 -0.64633442764E-01  0.16004638790E-01  0.88993300387E+00  0.88000000000E+00 0. -1.
        -11    1    4    4    0    0  0.33011032224E-01  0.20335588610E-01 -0.31047952498E-02  0.38899425280E-01  0.51100000000E-03 0. -1.
         11    1    4    4    0    0  0.83876853713E-01  0.25475545294E-01 -0.26716446698E-01  0.91642564575E-01  0.51100000000E-03 0.  1.
</event>
<event>
 8    1  0.1075206E+005  0.1043930E+01  0.7957747E-01            NaN
         13   -1    0    0    0    0  0.00000000000E+00  0.00000000000E+00  0.74505805969E-08  0.10566000000E+00  0.10566000000E+00 0. -1.
     999900   -1    0    0    0    0 -0.00000000000E+00 -0.00000000000E+00 -0.74505805969E-08  0.93827000000E+00  0.93827000000E+00 0.  1.
     999902    2    1    2    0    0  0.18451798557E-01 -0.10033368890E-01 -0.61720436400E-02  0.10220386436E+01  0.10218041679E+01 0.  0.
     999903    2    3    3    0    0 -0.12042131248E+00  0.29343444110E-01 -0.33300973199E-01  0.12986587269E+00  0.19845902950E-01 0.  0.
         14    1    1    2    0    0 -0.18451798557E-01  0.10033368890E-01  0.61720436400E-02  0.21891356375E-01  0.00000000000E+00 0.  1.
     999901    1    3    3    0    0  0.13887311103E+00 -0.39376812999E-01  0.27128929559E-01  0.89217277093E+00  0.88000000000E+00 0. -1.
        -11    1    4    4    0    0 -0.81951201642E-01  0.29117931893E-01 -0.20974325319E-01  0.89465282942E-01  0.51100000000E-03 0.  1.
         11    1    4    4    0    0 -0.38470110834E-01  0.22551221640E-03 -0.12326647880E-01  0.40400589752E-01  0.51100000000E-03 0. -1.
</event>
<event>
 8    1  0.1075206E+005  0.1043930E+01  0.7957747E-01            NaN
         13   -1    0    0    0    0  0.00000000000E+00  0.00000000000E+00  0.74505805969E-08  0.10566000000E+00  0.10566000000E+00 0. -1.
     999900   -1    0    0    0    0 -0.00000000000E+00 -0.00000000000E+00 -0.74505805969E-08  0.93827000000E+00  0.93827000000E+00 0.  1.
     999902    2    1    2    0    0 -0.67472735088E-02  0.17675745296E-01  0.14150733887E-01  0.10203037235E+01  0.10200301404E+01 0.  0.
     999903    2    3    3    0    0  0.90365632313E-01  0.39425217224E-01 -0.81619047179E-01  0.12953113357E+00  0.19908552068E-01 0.  0.
         14    1    1    2    0    0  0.67472735088E-02 -0.17675745296E-01 -0.14150733887E-01  0.23626276497E-01  0.00000000000E+00 0.  1.
     999901    1    3    3    0    0 -0.97112905822E-01 -0.21749471928E-01  0.95769781067E-01  0.89077258993E+00  0.88000000000E+00 0. -1.
        -11    1    4    4    0    0  0.31928600538E-01  0.85976203814E-02 -0.37925949208E-01  0.50318916451E-01  0.51100000000E-03 0.  1.
         11    1    4    4    0    0  0.58437031775E-01  0.30827596843E-01 -0.43693097972E-01  0.79212217121E-01  0.51100000000E-03 0. -1.
</event>
<event>
 8    1  0.1075206E+005  0.1043930E+01  0.7957747E-01            NaN
         13   -1    0    0    0    0  0.00000000000E+00  0.00000000000E+00  0.74505805969E-08  0.10566000000E+00  0.10566000000E+00 0. -1.
     999900   -1    0    0    0    0 -0.00000000000E+00 -0.00000000000E+00 -0.74505805969E-08  0.93827000000E+00  0.93827000000E+00 0. -1.
     999902    2    1    2    0    0  0.11038512451E-02  0.20305717260E-01  0.12565048186E-01  0.10200255846E+01  0.10197454448E+01 0.  0.
     999903    2    3    3    0    0  0.10451783215E+00  0.45043920015E-01 -0.60624207517E-01  0.13060830496E+00  0.20743741689E-01 0.  0.
         14    1    1    2    0    0 -0.11038512451E-02 -0.20305717260E-01 -0.12565048186E-01  0.23904415428E-01  0.00000000000E+00 0.  1.
     999901    1    3    3    0    0 -0.10341398091E+00 -0.24738202755E-01  0.73189255703E-01  0.88941727961E+00  0.88000000000E+00 0. -1.
        -11    1    4    4    0    0  0.51668915967E-01  0.11039760917E-01 -0.28146502004E-01  0.59866851382E-01  0.51100000000E-03 0.  1.
         11    1    4    4    0    0  0.52848916185E-01  0.34004159098E-01 -0.32477705513E-01  0.70741453578E-01  0.51100000000E-03 0. -1.
</event>
<event>
 8    1  0.1075206E+005  0.1043930E+01  0.7957747E-01            NaN
         13   -1    0    0    0    0  0.00000000000E+00  0.00000000000E+00  0.74505805969E-08  0.10566000000E+00  0.10566000000E+00 0. -1.
     999900   -1    0    0    0    0 -0.00000000000E+00 -0.00000000000E+00 -0.74505805969E-08  0.93827000000E+00  0.93827000000E+00 0.  1.
     999902    2    1    2    0    0 -0.74795448849E-02 -0.18082411420E-01  0.12181034468E-01  0.10208801671E+01  0.10206199199E+01 0.  0.
     999903    2    3    3    0    0 -0.71681417676E-01 -0.10787728560E+00 -0.24278716530E-01  0.13323479124E+00  0.19655002731E-01 0.  0.
         14    1    1    2    0    0  0.74795448849E-02  0.18082411420E-01 -0.12181034468E-01  0.23049832867E-01  0.00000000000E+00 0.  1.
     999901    1    3    3    0    0  0.64201872791E-01  0.89794874180E-01  0.36459750999E-01  0.88764537589E+00  0.88000000000E+00 0. -1.
        -11    1    4    4    0    0 -0.50245973123E-01 -0.58255064083E-01 -0.15260592584E-01  0.78431225372E-01  0.51100000000E-03 0. -1.
         11    1    4    4    0    0 -0.21435444554E-01 -0.49622221518E-01 -0.90181239461E-02  0.54803565870E-01  0.51100000000E-03 0.  1.
</event>
<event>
 8    1  0.1075206E+005  0.1043930E+01  0.7957747E-01            NaN
         13   -1    0    0    0    0  0.00000000000E+00  0.00000000000E+00  0.74505805969E-08  0.10566000000E+00  0.10566000000E+00 0. -1.
     999900   -1    0    0    0    0 -0.00000000000E+00 -0.00000000000E+00 -0.74505805969E-08  0.93827000000E+00  0.93827000000E+00 0.  1.
     999902    2    1    2    0    0 -0.12052809614E-01  0.13064838057E-02 -0.20061740400E-01  0.10204896385E+01  0.10202203937E+01 0.  0.
     999903    2    3    3    0    0  0.13983123408E-01  0.81862595174E-01 -0.10164566255E+00  0.13267034763E+00  0.19302025709E-01 0.  0.
         14    1    1    2    0    0  0.12052809614E-01 -0.13064838057E-02  0.20061740400E-01  0.23440361503E-01  0.00000000000E+00 0. -1.
     999901    1    3    3    0    0 -0.26035933022E-01 -0.80556111368E-01  0.81583922145E-01  0.88781929087E+00  0.88000000000E+00 0.  1.
        -11    1    4    4    0    0  0.90545825017E-02  0.50925384803E-01 -0.77215016364E-01  0.92939766272E-01  0.51100000000E-03 0. -1.
         11    1    4    4    0    0  0.49285409065E-02  0.30937210371E-01 -0.24430646181E-01  0.39730581355E-01  0.51100000000E-03 0.  1.
</event>
<event>
 8    1  0.1075206E+005  0.1043930E+01  0.7957747E-01            NaN
         13   -1    0    0    0    0  0.00000000000E+00  0.00000000000E+00  0.74505805969E-08  0.10566000000E+00  0.10566000000E+00 0. -1.
     999900   -1    0    0    0    0 -0.00000000000E+00 -0.00000000000E+00 -0.74505805969E-08  0.93827000000E+00  0.93827000000E+00 0. -1.
     999902    2    1    2    0    0 -0.69579157411E-02  0.19689592820E-01  0.44264924009E-02  0.10225831854E+01  0.10223603497E+01 0.  0.
     999903    2    3    3    0    0  0.82843980703E-01  0.72300156673E-01 -0.72294767530E-01  0.13313481495E+00  0.20196726147E-01 0.  0.
         14    1    1    2    0    0  0.69579157411E-02 -0.19689592820E-01 -0.44264924009E-02  0.21346814560E-01  0.00000000000E+00 0. -1.
     999901    1    3    3    0    0 -0.89801896444E-01 -0.52610563852E-01  0.76721259931E-01  0.88944837049E+00  0.88000000000E+00 0.  1.
        -11    1    4    4    0    0  0.69318825651E-02  0.10997701952E-02 -0.86013907213E-02  0.11113304356E-01  0.51100000000E-03 0. -1.
         11    1    4    4    0    0  0.75912098138E-01  0.71200386478E-01 -0.63693376809E-01  0.12202151060E+00  0.51100000000E-03 0.  1.
</event>
<event>
 8    1  0.1075206E+005  0.1043930E+01  0.7957747E-01            NaN
         13   -1    0    0    0    0  0.00000000000E+00  0.00000000000E+00  0.74505805969E-08  0.10566000000E+00  0.10566000000E+00 0. -1.
     999900   -1    0    0    0    0 -0.00000000000E+00 -0.00000000000E+00 -0.74505805969E-08  0.93827000000E+00  0.93827000000E+00 0.  1.
     999902    2    1    2    0    0  0.29130815721E-02  0.10520676826E-02  0.22788201903E-01  0.10209322819E+01  0.10206732235E+01 0.  0.
     999903    2    3    3    0    0  0.12091102398E+00 -0.26583366658E-01  0.42177051277E-01  0.13241488810E+00  0.20703812055E-01 0.  0.
         14    1    1    2    0    0 -0.29130815721E-02 -0.10520676826E-02 -0.22788201903E-01  0.22997718074E-01  0.00000000000E+00 0.  1.
     999901    1    3    3    0    0 -0.11799794241E+00  0.27635434341E-01 -0.19388849374E-01  0.88851739382E+00  0.88000000000E+00 0.  1.
        -11    1    4    4    0    0  0.11565501570E+00 -0.27099105272E-01  0.44187523964E-01  0.12674084802E+00  0.51100000000E-03 0.  1.
         11    1    4    4    0    0  0.52560082861E-02  0.51573861340E-03 -0.20104726867E-02  0.56740400814E-02  0.51100000000E-03 0. -1.
</event>
<event>
 8    1  0.1075206E+005  0.1043930E+01  0.7957747E-01            NaN
         13   -1    0    0    0    0  0.00000000000E+00  0.00000000000E+00  0.74505805969E-08  0.10566000000E+00  0.10566000000E+00 0. -1.
     999900   -1    0    0    0    0 -0.00000000000E+00 -0.00000000000E+00 -0.74505805969E-08  0.93827000000E+00  0.93827000000E+00 0. -1.
     999902    2    1    2    0    0  0.16971105829E-01  0.72346461709E-02  0.14648982964E-01  0.10203725969E+01  0.10201006251E+01 0.  0.
     999903    2    3    3    0    0 -0.22137986756E-01 -0.20040528649E-01  0.12696493385E+00  0.13195359154E+00  0.19998566121E-01 0.  0.
         14    1    1    2    0    0 -0.16971105829E-01 -0.72346461709E-02 -0.14648982964E-01  0.23557403087E-01  0.00000000000E+00 0.  1.
     999901    1    3    3    0    0  0.39109092586E-01  0.27275174820E-01 -0.11231595089E+00  0.88841900537E+00  0.88000000000E+00 0. -1.
        -11    1    4    4    0    0 -0.19027222138E-01 -0.24024748829E-01  0.10340648011E+00  0.10785353489E+00  0.51100000000E-03 0.  1.
         11    1    4    4    0    0 -0.31107646184E-02  0.39842201799E-02  0.23558453738E-01  0.24100056649E-01  0.51100000000E-03 0. -1.
</event>
<event>
 8    1  0.1075206E+005  0.1043930E+01  0.7957747E-01            NaN
         13   -1    0    0    0    0  0.00000000000E+00  0.00000000000E+00  0.74505805969E-08  0.10566000000E+00  0.10566000000E+00 0. -1.
     999900   -1    0    0    0    0 -0.00000000000E+00 -0.00000000000E+00 -0.74505805969E-08  0.93827000000E+00  0.93827000000E+00 0. -1.
     999902    2    1    2    0    0  0.15752479495E-01 -0.21241347849E-01 -0.78710986153E-02  0.10163385219E+01  0.10159639273E+01 0.  0.
     999903    2    3    3    0    0  0.75038605078E-02  0.52438970209E-01 -0.11381670688E+00  0.12688852283E+00  0.18447247573E-01 0.  0.
         14    1    1    2    0    0 -0.15752479495E-01  0.21241347849E-01  0.78710986153E-02  0.27591478070E-01  0.00000000000E+00 0.  1.
     999901    1    3    3    0    0  0.82486189872E-02 -0.73680318058E-01  0.10594560826E+00  0.88944999910E+00  0.88000000000E+00 0.  1.
        -11    1    4    4    0    0  0.18325238192E-02  0.81778770191E-02 -0.37971606037E-01  0.38888813329E-01  0.51100000000E-03 0.  1.
         11    1    4    4    0    0  0.56713366886E-02  0.44261093189E-01 -0.75845100840E-01  0.87999709503E-01  0.51100000000E-03 0. -1.
</event>
<event>
 8    1  0.1075206E+005  0.1043930E+01  0.7957747E-01            NaN
         13   -1    0    0    0    0  0.00000000000E+00  0.00000000000E+00  0.74505805969E-08  0.10566000000E+00  0.10566000000E+00 0.  1.
     999900   -1    0    0    0    0 -0.00000000000E+00 -0.00000000000E+00 -0.74505805969E-08  0.93827000000E+00  0.93827000000E+00 0.  1.
     999902    2    1    2    0    0  0.11797941161E-01 -0.21278752669E-01 -0.13613733388E-01  0.10160497118E+01  0.10156671239E+01 0.  0.
     999903    2    3    3    0    0  0.33663296600E-01 -0.10031381006E+00  0.69519278846E-01  0.12833594503E+00  0.21002538666E-01 0.  0.
         14    1    1    2    0    0 -0.11797941161E-01  0.21278752669E-01  0.13613733388E-01  0.27880288154E-01  0.00000000000E+00 0.  1.
     999901    1    3    3    0    0 -0.21865355439E-01  0.79035057387E-01 -0.83133012234E-01  0.88771376681E+00  0.88000000000E+00 0.  1.
        -11    1    4    4    0    0  0.14051502635E-01 -0.72186168739E-01  0.49017032169E-01  0.88381096662E-01  0.51100000000E-03 0.  1.
         11    1    4    4    0    0  0.19611793965E-01 -0.28127641318E-01  0.20502246677E-01  0.39954848372E-01  0.51100000000E-03 0. -1.
</event>
<event>
 8    1  0.1075206E+005  0.1043930E+01  0.7957747E-01            NaN
         13   -1    0    0    0    0  0.00000000000E+00  0.00000000000E+00  0.74505805969E-08  0.10566000000E+00  0.10566000000E+00 0.  1.
     999900   -1    0    0    0    0 -0.00000000000E+00 -0.00000000000E+00 -0.74505805969E-08  0.93827000000E+00  0.93827000000E+00 0. -1.
     999902    2    1    2    0    0  0.14236667616E-01  0.50706818794E-02  0.19895377505E-01  0.10189455936E+01  0.10186392404E+01 0.  0.
     999903    2    3    3    0    0  0.22916379667E-01 -0.99601656582E-05  0.12863799625E+00  0.13219528627E+00  0.20067363500E-01 0.  0.
         14    1    1    2    0    0 -0.14236667616E-01 -0.50706818794E-02 -0.19895377505E-01  0.24984406449E-01  0.00000000000E+00 0. -1.
     999901    1    3    3    0    0 -0.86797120512E-02  0.50806420451E-02 -0.10874261874E+00  0.88675030728E+00  0.88000000000E+00 0. -1.
        -11    1    4    4    0    0  0.23915854412E-01 -0.99708695371E-03  0.79319171590E-01  0.82853813294E-01  0.51100000000E-03 0. -1.
         11    1    4    4    0    0 -0.99947474501E-03  0.98712678805E-03  0.49318824659E-01  0.49341472980E-01  0.51100000000E-03 0.  1.
</event>
<event>
 8    1  0.1075206E+005  0.1043930E+01  0.7957747E-01            NaN
         13   -1    0    0    0    0  0.00000000000E+00  0.00000000000E+00  0.74505805969E-08  0.10566000000E+00  0.10566000000E+00 0. -1.
     999900   -1    0    0    0    0 -0.00000000000E+00 -0.00000000000E+00 -0.74505805969E-08  0.93827000000E+00  0.93827000000E+00 0. -1.
     999902    2    1    2    0    0  0.10704652229E-01 -0.11091027874E-01 -0.17489658076E-01  0.10206171577E+01  0.10203508680E+01 0.  0.
     999903    2    3    3    0    0  0.10218600023E+00 -0.20060551596E-01  0.76599475935E-01  0.13084075061E+00  0.20184596434E-01 0.  0.
         14    1    1    2    0    0 -0.10704652229E-01  0.11091027874E-01  0.17489658076E-01  0.23312842346E-01  0.00000000000E+00 0.  1.
     999901    1    3    3    0    0 -0.91481348005E-01  0.89695237219E-02 -0.94089134011E-01  0.88977640704E+00  0.88000000000E+00 0. -1.
        -11    1    4    4    0    0  0.31540265968E-01  0.37497999441E-03  0.31441142245E-01  0.44539146085E-01  0.51100000000E-03 0.  1.
         11    1    4    4    0    0  0.70645734265E-01 -0.20435531591E-01  0.45158333690E-01  0.86301604527E-01  0.51100000000E-03 0. -1.
</event>
<event>
 8    1  0.1075206E+005  0.1043930E+01  0.7957747E-01            NaN
         13   -1    0    0    0    0  0.00000000000E+00  0.00000000000E+00  0.74505805969E-08  0.10566000000E+00  0.10566000000E+00 0.  1.
     999900   -1    0    0    0    0 -0.00000000000E+00 -0.00000000000E+00 -0.74505805969E-08  0.93827000000E+00  0.93827000000E+00 0.  1.
     999902    2    1    2    0    0 -0.10292676422E-01 -0.20325891753E-01  0.12866262940E-02  0.10211103490E+01  0.10208553318E+01 0.  0.
     999903    2    3    3    0    0 -0.11306321439E+00 -0.21311726686E-01  0.63542942196E-01  0.13294448376E+00  0.19976238834E-01 0.  0.
         14    1    1    2    0    0  0.10292676422E-01  0.20325891753E-01 -0.12866262940E-02  0.22819650977E-01  0.00000000000E+00 0.  1.
     999901    1    3    3    0    0  0.10277053797E+00  0.98583493360E-03 -0.62256315902E-01  0.88816586526E+00  0.88000000000E+00 0.  1.
        -11    1    4    4    0    0 -0.11623996886E-01  0.29586515350E-02  0.31236758615E-02  0.12405216419E-01  0.51100000000E-03 0. -1.
         11    1    4    4    0    0 -0.10143921750E+00 -0.24270378221E-01  0.60419266335E-01  0.12053926734E+00  0.51100000000E-03 0.  1.
</event>
<event>
 8    1  0.1075206E+005  0.1043930E+01  0.7957747E-01            NaN
         13   -1    0    0    0    0  0.00000000000E+00  0.00000000000E+00  0.74505805969E-08  0.10566000000E+00  0.10566000000E+00 0.  1.
     999900   -1    0    0    0    0 -0.00000000000E+00 -0.00000000000E+00 -0.74505805969E-08  0.93827000000E+00  0.93827000000E+00 0. -1.
     999902    2    1    2    0    0 -0.68035338443E-02  0.21375197328E-01 -0.69136766238E-02  0.10204569078E+01  0.10201869018E+01 0.  0.
     999903    2    3    3    0    0  0.70619368689E-01  0.99457065552E-01 -0.48181206759E-01  0.13265394934E+00  0.19920804922E-01 0.  0.
         14    1    1    2    0    0  0.68035338443E-02 -0.21375197328E-01  0.69136766238E-02  0.23473092213E-01  0.00000000000E+00 0. -1.
     999901    1    3    3    0    0 -0.77422902533E-01 -0.78081868225E-01  0.41267530135E-01  0.88780295845E+00  0.88000000000E+00 0.  1.
        -11    1    4    4    0    0  0.29464994584E-01  0.38637946324E-01 -0.29615352374E-01  0.56907003253E-01  0.51100000000E-03 0.  1.
         11    1    4    4    0    0  0.41154374105E-01  0.60819119228E-01 -0.18565854385E-01  0.75746946088E-01  0.51100000000E-03 0. -1.
</event>
<event>
 8    1  0.1075206E+005  0.1043930E+01  0.7957747E-01            NaN
         13   -1    0    0    0    0  0.00000000000E+00  0.00000000000E+00  0.74505805969E-08  0.10566000000E+00  0.10566000000E+00 0.  1.
     999900   -1    0    0    0    0 -0.00000000000E+00 -0.00000000000E+00 -0.74505805969E-08  0.93827000000E+00  0.93827000000E+00 0. -1.
     999902    2    1    2    0    0  0.20543750479E-01 -0.89545593634E-02 -0.34707371913E-02  0.10212523495E+01  0.10210005316E+01 0.  0.
     999903    2    3    3    0    0  0.19431152523E-01 -0.47998017054E-01 -0.11790107972E+00  0.13298440973E+00  0.33208572728E-01 0.  0.
         14    1    1    2    0    0 -0.20543750479E-01  0.89545593634E-02  0.34707371913E-02  0.22677650535E-01  0.00000000000E+00 0.  1.
     999901    1    3    3    0    0  0.11125979563E-02  0.39043457690E-01  0.11443034253E+00  0.88826793973E+00  0.88000000000E+00 0.  1.
        -11    1    4    4    0    0  0.44782204676E-02 -0.18873709839E-01 -0.13682067891E-01  0.23743030228E-01  0.51100000000E-03 0.  1.
         11    1    4    4    0    0  0.14952932055E-01 -0.29124307215E-01 -0.10421901183E+00  0.10924137951E+00  0.51100000000E-03 0. -1.
</event>
<event>
 8    1  0.1075206E+005  0.1043930E+01  0.7957747E-01            NaN
         13   -1    0    0    0    0  0.00000000000E+00  0.00000000000E+00  0.74505805969E-08  0.10566000000E+00  0.10566000000E+00 0.  1.
     999900   -1    0    0    0    0 -0.00000000000E+00 -0.00000000000E+00 -0.74505805969E-08  0.93827000000E+00  0.93827000000E+00 0.  1.
     999902    2    1    2    0    0  0.58547899165E-02 -0.60762721306E-02  0.23088951038E-01  0.10193475000E+01  0.10190510421E+01 0.  0.
     999903    2    3    3    0    0  0.39171922097E-01 -0.10129431772E+00 -0.67108114434E-01  0.12900373595E+00  0.18533391013E-01 0.  0.
         14    1    1    2    0    0 -0.58547899165E-02  0.60762721306E-02 -0.23088951038E-01  0.24582500036E-01  0.00000000000E+00 0. -1.
     999901    1    3    3    0    0 -0.33317132180E-01  0.95218045590E-01  0.90197065472E-01  0.89034376402E+00  0.88000000000E+00 0.  1.
        -11    1    4    4    0    0  0.14380126926E-01 -0.58328707322E-01 -0.42774537725E-01  0.73749226076E-01  0.51100000000E-03 0.  1.
         11    1    4    4    0    0  0.24791795171E-01 -0.42965610399E-01 -0.24333576709E-01  0.55254509872E-01  0.51100000000E-03 0. -1.
</event>
<event>
 8    1  0.1075206E+005  0.1043930E+01  0.7957747E-01            NaN
         13   -1    0    0    0    0  0.00000000000E+00  0.00000000000E+00  0.74505805969E-08  0.10566000000E+00  0.10566000000E+00 0.  1.
     999900   -1    0    0    0    0 -0.00000000000E+00 -0.00000000000E+00 -0.74505805969E-08  0.93827000000E+00  0.93827000000E+00 0.  1.
     999902    2    1    2    0    0  0.13905597379E-01 -0.11816486227E-01 -0.17823472645E-01  0.10184217433E+01  0.10181022424E+01 0.  0.
     999903    2    3    3    0    0 -0.60336814179E-01  0.10702551658E+00  0.21985607729E-01  0.12644633990E+00  0.20256297322E-01 0.  0.
         14    1    1    2    0    0 -0.13905597379E-01  0.11816486227E-01  0.17823472645E-01  0.25508256749E-01  0.00000000000E+00 0.  1.
     999901    1    3    3    0    0  0.74242411558E-01 -0.11884200281E+00 -0.39809080375E-01  0.89197540335E+00  0.88000000000E+00 0. -1.
        -11    1    4    4    0    0 -0.18508408113E-01  0.22271566393E-01 -0.16864375027E-02  0.29011877446E-01  0.51100000000E-03 0. -1.
         11    1    4    4    0    0 -0.41828406065E-01  0.84753950190E-01  0.23672045232E-01  0.97434462452E-01  0.51100000000E-03 0.  1.
</event>
<event>
 8    1  0.1075206E+005  0.1043930E+01  0.7957747E-01            NaN
         13   -1    0    0    0    0  0.00000000000E+00  0.00000000000E+00  0.74505805969E-08  0.10566000000E+00  0.10566000000E+00 0.  1.
     999900   -1    0    0    0    0 -0.00000000000E+00 -0.00000000000E+00 -0.74505805969E-08  0.93827000000E+00  0.93827000000E+00 0. -1.
     999902    2    1    2    0    0 -0.20282568564E-01 -0.77381806619E-02 -0.12287603886E-01  0.10189851160E+01  0.10186797433E+01 0.  0.
     999903    2    3    3    0    0 -0.40825939993E-01 -0.10577587231E+00  0.60940468263E-01  0.13028057027E+00  0.20099596476E-01 0.  0.
         14    1    1    2    0    0  0.20282568564E-01  0.77381806619E-02  0.12287603886E-01  0.24944883979E-01  0.00000000000E+00 0.  1.
     999901    1    3    3    0    0  0.20543371429E-01  0.98037691644E-01 -0.73228072149E-01  0.88870454575E+00  0.88000000000E+00 0. -1.
        -11    1    4    4    0    0 -0.22807704542E-01 -0.67868901900E-01  0.27830485047E-01  0.76819113836E-01  0.51100000000E-03 0.  1.
         11    1    4    4    0    0 -0.18018235451E-01 -0.37906970406E-01  0.33109983216E-01  0.53461456431E-01  0.51100000000E-03 0. -1.
</event>
<event>
 7    1  0.1075206E+005  0.1043930E+01  0.7957747E-01            NaN
         13   -1    0    0    0    0  0.00000000000E+00  0.00000000000E+00  0.74505805969E-08  0.10566000000E+00  0.10566000000E+00 0. -1.
     999900   -1    0    0    0    0 -0.00000000000E+00 -0.00000000000E+00 -0.74505805969E-08  0.93827000000E+00  0.93827000000E+00 0.  1.
     999903    2    1    2    0    0  0.55684285223E-01  0.44572686547E-01 -0.88293042586E-01  0.11521819036E+00  0.19801666937E-01 0.  0.
         14    1    1    2    0    0 -0.11524535155E-01  0.37669487299E-01  0.74325011904E-02  0.40087993936E-01  0.00000000000E+00 0. -1.
     999901    1    1    2    0    0 -0.44159750068E-01 -0.82242173846E-01  0.80860541396E-01  0.88862381571E+00  0.88000000000E+00 0.  1.
        -11    1    3    3    0    0  0.32849532946E-02  0.29116102190E-02 -0.16390368947E-01  0.16975679881E-01  0.51100000000E-03 0. -1.
         11    1    3    3    0    0  0.52399331928E-01  0.41661076328E-01 -0.71902673639E-01  0.98242510477E-01  0.51100000000E-03 0.  1.
</event>
<event>
 8    1  0.1075206E+005  0.1043930E+01  0.7957747E-01            NaN
         13   -1    0    0    0    0  0.00000000000E+00  0.00000000000E+00  0.74505805969E-08  0.10566000000E+00  0.10566000000E+00 0. -1.
     999900   -1    0    0    0    0 -0.00000000000E+00 -0.00000000000E+00 -0.74505805969E-08  0.93827000000E+00  0.93827000000E+00 0. -1.
     999902    2    1    2    0    0 -0.10053673381E-01  0.13863840766E-01 -0.16341510511E-01  0.10202587644E+01  0.10199841268E+01 0.  0.
     999903    2    3    3    0    0  0.16153297904E-01 -0.10617563277E+00 -0.70379616989E-01  0.13008103074E+00  0.20822825027E-01 0.  0.
         14    1    1    2    0    0  0.10053673381E-01 -0.13863840766E-01  0.16341510511E-01  0.23671235604E-01  0.00000000000E+00 0.  1.
     999901    1    3    3    0    0 -0.26206971285E-01  0.12003947354E+00  0.54038106477E-01  0.89017773366E+00  0.88000000000E+00 0.  1.
        -11    1    4    4    0    0  0.12218248621E-01 -0.55309839802E-01 -0.48481222749E-01  0.74559734834E-01  0.51100000000E-03 0.  1.
         11    1    4    4    0    0  0.39350492830E-02 -0.50865792971E-01 -0.21898394240E-01  0.55521295903E-01  0.51100000000E-03 0. -1.
</event>
<event>
 8    1  0.1075206E+005  0.1043930E+01  0.7957747E-01            NaN
         13   -1    0    0    0    0  0.00000000000E+00  0.00000000000E+00  0.74505805969E-08  0.10566000000E+00  0.10566000000E+00 0.  1.
     999900   -1    0    0    0    0 -0.00000000000E+00 -0.00000000000E+00 -0.74505805969E-08  0.93827000000E+00  0.93827000000E+00 0.  1.
     999902    2    1    2    0    0 -0.14584495732E-01 -0.19078784445E-01  0.82449318839E-03  0.10199011149E+01  0.10196180151E+01 0.  0.
     999903    2    3    3    0    0  0.12513152622E+00  0.17851006606E-01  0.37608575272E-02  0.12810909960E+00  0.20524133606E-01 0.  0.
         14    1    1    2    0    0  0.14584495732E-01  0.19078784445E-01 -0.82449318839E-03  0.24028885131E-01  0.00000000000E+00 0. -1.
     999901    1    3    3    0    0 -0.13971602195E+00 -0.36929791050E-01 -0.29363643388E-02  0.89179201527E+00  0.88000000000E+00 0. -1.
        -11    1    4    4    0    0  0.45055410503E-01 -0.32690014677E-03  0.85131645155E-02  0.45856645869E-01  0.51100000000E-03 0.  1.
         11    1    4    4    0    0  0.80076115718E-01  0.18177906752E-01 -0.47523069883E-02  0.82252453733E-01  0.51100000000E-03 0. -1.
</event>
<event>
 8    1  0.1075206E+005  0.1043930E+01  0.7957747E-01            NaN
         13   -1    0    0    0    0  0.00000000000E+00  0.00000000000E+00  0.74505805969E-08  0.10566000000E+00  0.10566000000E+00 0.  1.
     999900   -1    0    0    0    0 -0.00000000000E+00 -0.00000000000E+00 -0.74505805969E-08  0.93827000000E+00  0.93827000000E+00 0.  1.
     999902    2    1    2    0    0 -0.18298625887E-01  0.13226555670E-01 -0.70735597938E-02  0.10202695534E+01  0.10199951691E+01 0.  0.
     999903    2    3    3    0    0  0.54796545503E-02  0.10329254682E+00  0.77848742536E-01  0.13128750252E+00  0.21831279450E-01 0.  0.
         14    1    1    2    0    0  0.18298625887E-01 -0.13226555670E-01  0.70735597938E-02  0.23660446581E-01  0.00000000000E+00 0. -1.
     999901    1    3    3    0    0 -0.23778280437E-01 -0.90065991148E-01 -0.84922302330E-01  0.88898205090E+00  0.88000000000E+00 0.  1.
        -11    1    4    4    0    0  0.88983995240E-02  0.74233233102E-01  0.44871243828E-01  0.87197729641E-01  0.51100000000E-03 0.  1.
         11    1    4    4    0    0 -0.34187449737E-02  0.29059313716E-01  0.32977498708E-01  0.44089772883E-01  0.51100000000E-03 0. -1.
</event>
<event>
 8    1  0.1075206E+005  0.1043930E+01  0.7957747E-01            NaN
         13   -1    0    0    0    0  0.00000000000E+00  0.00000000000E+00  0.74505805969E-08  0.10566000000E+00  0.10566000000E+00 0.  1.
     999900   -1    0    0    0    0 -0.00000000000E+00 -0.00000000000E+00 -0.74505805969E-08  0.93827000000E+00  0.93827000000E+00 0. -1.
     999902    2    1    2    0    0  0.17547949796E-01  0.10097539779E-01 -0.88633860011E-02  0.10218290846E+01  0.10215900487E+01 0.  0.
     999903    2    3    3    0    0 -0.87376259434E-01  0.95619498585E-01  0.80595231212E-02  0.13131828734E+00  0.20045883741E-01 0.  0.
         14    1    1    2    0    0 -0.17547949796E-01 -0.10097539779E-01  0.88633860011E-02  0.22100915435E-01  0.00000000000E+00 0. -1.
     999901    1    3    3    0    0  0.10492420923E+00 -0.85521958805E-01 -0.16922909122E-01  0.89051079722E+00  0.88000000000E+00 0. -1.
        -11    1    4    4    0    0 -0.34299332858E-01  0.25776611854E-01 -0.23865056743E-02  0.42974812199E-01  0.51100000000E-03 0.  1.
         11    1    4    4    0    0 -0.53076926576E-01  0.69842886730E-01  0.10446028796E-01  0.88343475142E-01  0.51100000000E-03 0. -1.
</event>
<event>
 7    1  0.1075206E+005  0.1043930E+01  0.7957747E-01            NaN
         13   -1    0    0    0    0  0.00000000000E+00  0.00000000000E+00  0.74505805969E-08  0.10566000000E+00  0.10566000000E+00 0.  1.
     999900   -1    0    0    0    0 -0.00000000000E+00 -0.00000000000E+00 -0.74505805969E-08  0.93827000000E+00  0.93827000000E+00 0.  1.
     999903    2    1    2    0    0  0.42278037047E-01 -0.37123724535E-01  0.93679436806E-01  0.11072251705E+00  0.17833551594E-01 0.  0.
         14    1    1    2    0    0  0.39577393788E-01  0.18828680157E-01  0.30997376330E-02  0.43937429020E-01  0.00000000000E+00 0.  1.
     999901    1    1    2    0    0 -0.81855430835E-01  0.18295044378E-01 -0.96779174439E-01  0.88927005393E+00  0.88000000000E+00 0.  1.
        -11    1    3    3    0    0  0.12596149927E-01 -0.21845743193E-01  0.33929694240E-01  0.42277473444E-01  0.51100000000E-03 0. -1.
         11    1    3    3    0    0  0.29681887120E-01 -0.15277981341E-01  0.59749742567E-01  0.68445043609E-01  0.51100000000E-03 0.  1.
</event>
<event>
 8    1  0.1075206E+005  0.1043930E+01  0.7957747E-01            NaN
         13   -1    0    0    0    0  0.00000000000E+00  0.00000000000E+00  0.74505805969E-08  0.10566000000E+00  0.10566000000E+00 0. -1.
     999900   -1    0    0    0    0 -0.00000000000E+00 -0.00000000000E+00 -0.74505805969E-08  0.93827000000E+00  0.93827000000E+00 0. -1.
     999902    2    1    2    0    0  0.22070263631E-01 -0.40149180356E-03 -0.10460827854E-01  0.10195028296E+01  0.10192101515E+01 0.  0.
     999903    2    3    3    0    0 -0.23395788388E-01 -0.75311031767E-01 -0.10204849288E+00  0.13042077412E+00  0.19405385898E-01 0.  0.
         14    1    1    2    0    0 -0.22070263631E-01  0.40149180356E-03  0.10460827854E-01  0.24427170360E-01  0.00000000000E+00 0. -1.
     999901    1    3    3    0    0  0.45466052018E-01  0.74909539963E-01  0.91587665030E-01  0.88908205552E+00  0.88000000000E+00 0.  1.
        -11    1    4    4    0    0 -0.66199642569E-02 -0.45024202551E-01 -0.47286077630E-01  0.65629543657E-01  0.51100000000E-03 0.  1.
         11    1    4    4    0    0 -0.16775824131E-01 -0.30286829216E-01 -0.54762415255E-01  0.64791230462E-01  0.51100000000E-03 0. -1.
</event>
<event>
 8    1  0.1075206E+005  0.1043930E+01  0.7957747E-01            NaN
         13   -1    0    0    0    0  0.00000000000E+00  0.00000000000E+00  0.74505805969E-08  0.10566000000E+00  0.10566000000E+00 0.  1.
     999900   -1    0    0    0    0 -0.00000000000E+00 -0.00000000000E+00 -0.74505805969E-08  0.93827000000E+00  0.93827000000E+00 0.  1.
     999902    2    1    2    0    0  0.17310889074E-01 -0.80239571046E-02  0.15000785686E-01  0.10196591463E+01  0.10193702469E+01 0.  0.
     999903    2    3    3    0    0 -0.11481814960E+00  0.13193623849E-02 -0.50962428738E-01  0.12730466173E+00  0.20599989315E-01 0.  0.
         14    1    1    2    0    0 -0.17310889074E-01  0.80239571046E-02 -0.15000785686E-01  0.24270853700E-01  0.00000000000E+00 0. -1.
     999901    1    3    3    0    0  0.13212903867E+00 -0.93433194894E-02  0.65963214424E-01  0.89235448457E+00  0.88000000000E+00 0. -1.
        -11    1    4    4    0    0 -0.83115565613E-01 -0.68871286298E-02 -0.41828450014E-01  0.93303323303E-01  0.51100000000E-03 0. -1.
         11    1    4    4    0    0 -0.31702583988E-01  0.82064910147E-02 -0.91339787242E-02  0.34001338424E-01  0.51100000000E-03 0.  1.
</event>
<event>
 8    1  0.1075206E+005  0.1043930E+01  0.7957747E-01            NaN
         13   -1    0    0    0    0  0.00000000000E+00  0.00000000000E+00  0.74505805969E-08  0.10566000000E+00  0.10566000000E+00 0.  1.
     999900   -1    0    0    0    0 -0.00000000000E+00 -0.00000000000E+00 -0.74505805969E-08  0.93827000000E+00  0.93827000000E+00 0.  1.
     999902    2    1    2    0    0 -0.10377787132E-01  0.14170480796E-01 -0.13018987449E-01  0.10220669026E+01  0.10218330384E+01 0.  0.
     999903    2    3    3    0    0  0.12237371509E+00 -0.37879597989E-01 -0.14848078688E-01  0.13058750433E+00  0.20553363656E-01 0.  0.
         14    1    1    2    0    0  0.10377787132E-01 -0.14170480796E-01  0.13018987449E-01  0.21863097355E-01  0.00000000000E+00 0.  1.
     999901    1    3    3    0    0 -0.13275150222E+00  0.52050078785E-01  0.18290912395E-02  0.89147939831E+00  0.88000000000E+00 0.  1.
        -11    1    4    4    0    0  0.60753098141E-01 -0.87037285035E-02 -0.35589392979E-02  0.61478622248E-01  0.51100000000E-03 0. -1.
         11    1    4    4    0    0  0.61620616951E-01 -0.29175869485E-01 -0.11289139390E-01  0.69108882083E-01  0.51100000000E-03 0.  1.
</event>
<event>
 8    1  0.1075206E+005  0.1043930E+01  0.7957747E-01            NaN
         13   -1    0    0    0    0  0.00000000000E+00  0.00000000000E+00  0.74505805969E-08  0.10566000000E+00  0.10566000000E+00 0. -1.
     999900   -1    0    0    0    0 -0.00000000000E+00 -0.00000000000E+00 -0.74505805969E-08  0.93827000000E+00  0.93827000000E+00 0.  1.
     999902    2    1    2    0    0  0.13720594325E-01  0.12830324619E-01  0.12977038702E-01  0.10210985421E+01  0.10208432579E+01 0.  0.
     999903    2    3    3    0    0  0.71150418857E-01  0.40320371464E-01  0.10448915911E+00  0.13406508406E+00  0.19166322931E-01 0.  0.
         14    1    1    2    0    0 -0.13720594325E-01 -0.12830324619E-01 -0.12977038702E-01  0.22831457946E-01  0.00000000000E+00 0.  1.
     999901    1    3    3    0    0 -0.57429824532E-01 -0.27490046846E-01 -0.91512120404E-01  0.88703345799E+00  0.88000000000E+00 0. -1.
        -11    1    4    4    0    0  0.42574642084E-01  0.21292255110E-01  0.74853867204E-01  0.88709203765E-01  0.51100000000E-03 0.  1.
         11    1    4    4    0    0  0.28575776773E-01  0.19028116354E-01  0.29635291902E-01  0.45355880294E-01  0.51100000000E-03 0. -1.
</event>
<event>
 8    1  0.1075206E+005  0.1043930E+01  0.7957747E-01            NaN
         13   -1    0    0    0    0  0.00000000000E+00  0.00000000000E+00  0.74505805969E-08  0.10566000000E+00  0.10566000000E+00 0. -1.
     999900   -1    0    0    0    0 -0.00000000000E+00 -0.00000000000E+00 -0.74505805969E-08  0.93827000000E+00  0.93827000000E+00 0.  1.
     999902    2    1    2    0    0 -0.17108718139E-01  0.94943366633E-02  0.14138608919E-01  0.10197897654E+01  0.10195040042E+01 0.  0.
     999903    2    3    3    0    0 -0.69375145921E-01  0.12123317466E-01 -0.10726884566E+00  0.12991423418E+00  0.20278493424E-01 0.  0.
         14    1    1    2    0    0  0.17108718139E-01 -0.94943366633E-02 -0.14138608919E-01  0.24140234614E-01  0.00000000000E+00 0. -1.
     999901    1    3    3    0    0  0.52266427783E-01 -0.26289808022E-02  0.12140745458E+00  0.88987553121E+00  0.88000000000E+00 0. -1.
        -11    1    4    4    0    0 -0.12528491479E-01 -0.16514481205E-02 -0.33240493836E-01  0.35565178632E-01  0.51100000000E-03 0.  1.
         11    1    4    4    0    0 -0.56846654442E-01  0.13774765586E-01 -0.74028351823E-01  0.94349055548E-01  0.51100000000E-03 0. -1.
</event>
<event>
 8    1  0.1075206E+005  0.1043930E+01  0.7957747E-01            NaN
         13   -1    0    0    0    0  0.00000000000E+00  0.00000000000E+00  0.74505805969E-08  0.10566000000E+00  0.10566000000E+00 0.  1.
     999900   -1    0    0    0    0 -0.00000000000E+00 -0.00000000000E+00 -0.74505805969E-08  0.93827000000E+00  0.93827000000E+00 0. -1.
     999902    2    1    2    0    0 -0.12416003987E-02 -0.94593315680E-02  0.19992333239E-01  0.10217779366E+01  0.10215377809E+01 0.  0.
     999903    2    3    3    0    0  0.83713223667E-01 -0.31580975541E-01  0.97737830834E-01  0.13399921885E+00  0.19946058343E-01 0.  0.
         14    1    1    2    0    0  0.12416003987E-02  0.94593315680E-02 -0.19992333239E-01  0.22152063416E-01  0.00000000000E+00 0. -1.
     999901    1    3    3    0    0 -0.84954824066E-01  0.22121643973E-01 -0.77745497596E-01  0.88777871773E+00  0.88000000000E+00 0. -1.
        -11    1    4    4    0    0  0.31066606343E-01 -0.16439345727E-01  0.51268502295E-01  0.62161938243E-01  0.51100000000E-03 0.  1.
         11    1    4    4    0    0  0.52646617324E-01 -0.15141629815E-01  0.46469328540E-01  0.71837280607E-01  0.51100000000E-03 0. -1.
</event>
<event>
 8    1  0.1290129E+005  0.1043930E+01  0.7957747E-01            NaN
         13   -1    0    0    0    0  0.00000000000E+00  0.00000000000E+00  0.74505805969E-08  0.10566000000E+00  0.10566000000E+00 0. -1.
     999900   -1    0    0    0    0 -0.00000000000E+00 -0.00000000000E+00 -0.74505805969E-08  0.93827000000E+00  0.93827000000E+00 0.  1.
     999902    2    1    2    0    0  0.26183916506E-01  0.19708736128E-01  0.16284191395E-01  0.10073348275E+01  0.10066698803E+01 0.  0.
     999903    2    3    3    0    0  0.17043509876E-01  0.14009011976E-01 -0.11360828710E+00  0.11773486689E+00  0.21631512599E-01 0.  0.
         14    1    1    2    0    0 -0.26183916506E-01 -0.19708736128E-01 -0.16284191395E-01  0.36595172533E-01  0.00000000000E+00 0.  1.
     999901    1    3    3    0    0  0.91404066304E-02  0.56997241521E-02  0.12989247850E+00  0.88959996058E+00  0.88000000000E+00 0. -1.
        -11    1    4    4    0    0  0.10673684238E-01 -0.40344123645E-02 -0.34409781267E-01  0.36256008967E-01  0.51100000000E-03 0.  1.
         11    1    4    4    0    0  0.63698256379E-02  0.18043424340E-01 -0.79198505837E-01  0.81478857922E-01  0.51100000000E-03 0. -1.
</event>
<event>
 8    1  0.1075206E+005  0.1043930E+01  0.7957747E-01            NaN
         13   -1    0    0    0    0  0.00000000000E+00  0.00000000000E+00  0.74505805969E-08  0.10566000000E+00  0.10566000000E+00 0. -1.
     999900   -1    0    0    0    0 -0.00000000000E+00 -0.00000000000E+00 -0.74505805969E-08  0.93827000000E+00  0.93827000000E+00 0. -1.
     999902    2    1    2    0    0  0.12963626692E-01 -0.18686852195E-01  0.79303728465E-02  0.10198438032E+01  0.10195593352E+01 0.  0.
     999903    2    3    3    0    0 -0.11747577797E+00  0.23601900966E-01 -0.39666195901E-01  0.12795355757E+00  0.21002325044E-01 0.  0.
         14    1    1    2    0    0 -0.12963626692E-01  0.18686852195E-01 -0.79303728465E-02  0.24086196783E-01  0.00000000000E+00 0.  1.
     999901    1    3    3    0    0  0.13043940466E+00 -0.42288753161E-01  0.47596568748E-01  0.89189024565E+00  0.88000000000E+00 0.  1.
        -11    1    4    4    0    0 -0.78790496641E-01  0.58796232477E-02 -0.23502943085E-01  0.82432771305E-01  0.51100000000E-03 0.  1.
         11    1    4    4    0    0 -0.38685281330E-01  0.17722277718E-01 -0.16163252817E-01  0.45520786260E-01  0.51100000000E-03 0. -1.
</event>
<event>
 8    1  0.1075206E+005  0.1043930E+01  0.7957747E-01            NaN
         13   -1    0    0    0    0  0.00000000000E+00  0.00000000000E+00  0.74505805969E-08  0.10566000000E+00  0.10566000000E+00 0. -1.
     999900   -1    0    0    0    0 -0.00000000000E+00 -0.00000000000E+00 -0.74505805969E-08  0.93827000000E+00  0.93827000000E+00 0.  1.
     999902    2    1    2    0    0 -0.96032668880E-02  0.64939361169E-02 -0.20615780654E-01  0.10202782696E+01  0.10200040897E+01 0.  0.
     999903    2    3    3    0    0  0.11851475806E+00  0.45126783775E-02 -0.50819913158E-01  0.13048590989E+00  0.19436999773E-01 0.  0.
         14    1    1    2    0    0  0.96032668880E-02 -0.64939361169E-02  0.20615780654E-01  0.23651730448E-01  0.00000000000E+00 0. -1.
     999901    1    3    3    0    0 -0.12811802495E+00  0.19812577395E-02  0.30204132504E-01  0.88979235967E+00  0.88000000000E+00 0.  1.
        -11    1    4    4    0    0  0.25119001780E-01 -0.29045733497E-03 -0.25836410634E-02  0.25258363724E-01  0.51100000000E-03 0. -1.
         11    1    4    4    0    0  0.93395756285E-01  0.48031357124E-02 -0.48236272094E-01  0.10522754616E+00  0.51100000000E-03 0.  1.
</event>
<event>
 8    1  0.1075206E+005  0.1043930E+01  0.7957747E-01            NaN
         13   -1    0    0    0    0  0.00000000000E+00  0.00000000000E+00  0.74505805969E-08  0.10566000000E+00  0.10566000000E+00 0.  1.
     999900   -1    0    0    0    0 -0.00000000000E+00 -0.00000000000E+00 -0.74505805969E-08  0.93827000000E+00  0.93827000000E+00 0.  1.
     999902    2    1    2    0    0 -0.10789492359E-01 -0.50562926386E-02  0.20643983514E-01  0.10200940336E+01  0.10198155147E+01 0.  0.
     999903    2    3    3    0    0 -0.96283821787E-01 -0.62155987681E-01 -0.59068254011E-01  0.13053026612E+00  0.20375244758E-01 0.  0.
         14    1    1    2    0    0  0.10789492359E-01  0.50562926386E-02 -0.20643983514E-01  0.23835966436E-01  0.00000000000E+00 0. -1.
     999901    1    3    3    0    0  0.85494329428E-01  0.57099695042E-01  0.79712237526E-01  0.88956376744E+00  0.88000000000E+00 0. -1.
        -11    1    4    4    0    0 -0.82400975300E-01 -0.50649793693E-01 -0.41178473733E-01  0.10512492640E+00  0.51100000000E-03 0. -1.
         11    1    4    4    0    0 -0.13882846486E-01 -0.11506193988E-01 -0.17889780278E-01  0.25405339715E-01  0.51100000000E-03 0.  1.
</event>
<event>
 8    1  0.1075206E+005  0.1043930E+01  0.7957747E-01            NaN
         13   -1    0    0    0    0  0.00000000000E+00  0.00000000000E+00  0.74505805969E-08  0.10566000000E+00  0.10566000000E+00 0.  1.
     999900   -1    0    0    0    0 -0.00000000000E+00 -0.00000000000E+00 -0.74505805969E-08  0.93827000000E+00  0.93827000000E+00 0. -1.
     999902    2    1    2    0    0 -0.11402284905E-01  0.74328662641E-02 -0.18896071705E-01  0.10206422108E+01  0.10203764998E+01 0.  0.
     999903    2    3    3    0    0  0.53771885274E-01 -0.11114559433E+00  0.32186772269E-01  0.12883618884E+00  0.17833016067E-01 0.  0.
         14    1    1    2    0    0  0.11402284905E-01 -0.74328662641E-02  0.18896071705E-01  0.23287789243E-01  0.00000000000E+00 0.  1.
     999901    1    3    3    0    0 -0.65174170179E-01  0.11857846059E+00 -0.51082843974E-01  0.89180602191E+00  0.88000000000E+00 0. -1.
        -11    1    4    4    0    0  0.10567114870E-01 -0.41181676150E-01  0.10679102823E-01  0.43839465386E-01  0.51100000000E-03 0.  1.
         11    1    4    4    0    0  0.43204770404E-01 -0.69963918177E-01  0.21507669446E-01  0.84996723456E-01  0.51100000000E-03 0. -1.
</event>
<event>
 8    1  0.1075206E+005  0.1043930E+01  0.7957747E-01            NaN
         13   -1    0    0    0    0  0.00000000000E+00  0.00000000000E+00  0.74505805969E-08  0.10566000000E+00  0.10566000000E+00 0. -1.
     999900   -1    0    0    0    0 -0.00000000000E+00 -0.00000000000E+00 -0.74505805969E-08  0.93827000000E+00  0.93827000000E+00 0. -1.
     999902    2    1    2    0    0 -0.35686907370E-02  0.22559722845E-01 -0.91287393039E-02  0.10193330382E+01  0.10190362271E+01 0.  0.
     999903    2    3    3    0    0 -0.71346582177E-01 -0.35663671031E-01 -0.10090096975E+00  0.13006033062E+00  0.19299007401E-01 0.  0.
         14    1    1    2    0    0  0.35686907370E-02 -0.22559722845E-01  0.91287393039E-02  0.24596961798E-01  0.00000000000E+00 0. -1.
     999901    1    3    3    0    0  0.67777891440E-01  0.58223393876E-01  0.91772230442E-01  0.88927270758E+00  0.88000000000E+00 0. -1.
        -11    1    4    4    0    0 -0.64395195779E-01 -0.26133320835E-01 -0.79308094159E-01  0.10545011435E+00  0.51100000000E-03 0. -1.
         11    1    4    4    0    0 -0.69513863977E-02 -0.95303501961E-02 -0.21592875587E-01  0.24610216270E-01  0.51100000000E-03 0.  1.
</event>
<event>
 8    1  0.1075206E+005  0.1043930E+01  0.7957747E-01            NaN
         13   -1    0    0    0    0  0.00000000000E+00  0.00000000000E+00  0.74505805969E-08  0.10566000000E+00  0.10566000000E+00 0. -1.
     999900   -1    0    0    0    0 -0.00000000000E+00 -0.00000000000E+00 -0.74505805969E-08  0.93827000000E+00  0.93827000000E+00 0. -1.
     999902    2    1    2    0    0  0.23083849888E-01 -0.55163647401E-02  0.31322649872E-02  0.10199903782E+01  0.10197094028E+01 0.  0.
     999903    2    3    3    0    0 -0.47726566053E-01 -0.61361240341E-01 -0.10103035111E+00  0.12927009908E+00  0.21461587702E-01 0.  0.
         14    1    1    2    0    0 -0.23083849888E-01  0.55163647401E-02 -0.31322649872E-02  0.23939621750E-01  0.00000000000E+00 0. -1.
     999901    1    3    3    0    0  0.70810415941E-01  0.55844875600E-01  0.10416261610E+00  0.89072027917E+00  0.88000000000E+00 0. -1.
        -11    1    4    4    0    0 -0.33532337513E-01 -0.27807510155E-01 -0.63063119687E-01  0.76647853628E-01  0.51100000000E-03 0. -1.
         11    1    4    4    0    0 -0.14194228540E-01 -0.33553730186E-01 -0.37967231423E-01  0.52622245449E-01  0.51100000000E-03 0.  1.
</event>
<event>
 8    1  0.1075206E+005  0.1043930E+01  0.7957747E-01            NaN
         13   -1    0    0    0    0  0.00000000000E+00  0.00000000000E+00  0.74505805969E-08  0.10566000000E+00  0.10566000000E+00 0. -1.
     999900   -1    0    0    0    0 -0.00000000000E+00 -0.00000000000E+00 -0.74505805969E-08  0.93827000000E+00  0.93827000000E+00 0.  1.
     999902    2    1    2    0    0  0.18648132028E-01 -0.96692248951E-02 -0.10460153922E-01  0.10204638210E+01  0.10201939758E+01 0.  0.
     999903    2    3    3    0    0 -0.77784428402E-01 -0.10079690348E+00 -0.20411300524E-01  0.13046240646E+00  0.19833942008E-01 0.  0.
         14    1    1    2    0    0 -0.18648132028E-01  0.96692248951E-02  0.10460153922E-01  0.23466179030E-01  0.00000000000E+00 0.  1.
     999901    1    3    3    0    0  0.96432560430E-01  0.91127678589E-01  0.99511466018E-02  0.89000141451E+00  0.88000000000E+00 0.  1.
        -11    1    4    4    0    0 -0.59748339946E-02 -0.19409472220E-01 -0.34648694130E-02  0.20608073519E-01  0.51100000000E-03 0.  1.
         11    1    4    4    0    0 -0.71809594408E-01 -0.81387431264E-01 -0.16946431111E-01  0.10985433294E+00  0.51100000000E-03 0. -1.
</event>
<event>
 8    1  0.1075206E+005  0.1043930E+01  0.7957747E-01            NaN
         13   -1    0    0    0    0  0.00000000000E+00  0.00000000000E+00  0.74505805969E-08  0.10566000000E+00  0.10566000000E+00 0.  1.
     999900   -1    0    0    0    0 -0.00000000000E+00 -0.00000000000E+00 -0.74505805969E-08  0.93827000000E+00  0.93827000000E+00 0. -1.
     999902    2    1    2    0    0  0.14728742578E-02  0.19692505637E-02  0.23762772321E-01  0.10200403233E+01  0.10197605329E+01 0.  0.
     999903    2    3    3    0    0  0.11346074531E-01  0.10618492545E+00  0.75523315494E-01  0.13232553753E+00  0.20057539719E-01 0.  0.
         14    1    1    2    0    0 -0.14728742578E-02 -0.19692505637E-02 -0.23762772321E-01  0.23889676740E-01  0.00000000000E+00 0. -1.
     999901    1    3    3    0    0 -0.98732002732E-02 -0.10421567488E+00 -0.51760543173E-01  0.88771478573E+00  0.88000000000E+00 0.  1.
        -11    1    4    4    0    0 -0.43081046515E-02  0.53073438303E-01  0.38665863260E-01  0.65807748188E-01  0.51100000000E-03 0.  1.
         11    1    4    4    0    0  0.15654179183E-01  0.53111487145E-01  0.36857452235E-01  0.66517789341E-01  0.51100000000E-03 0. -1.
</event>
<event>
 8    1  0.1075206E+005  0.1043930E+01  0.7957747E-01            NaN
         13   -1    0    0    0    0  0.00000000000E+00  0.00000000000E+00  0.74505805969E-08  0.10566000000E+00  0.10566000000E+00 0. -1.
     999900   -1    0    0    0    0 -0.00000000000E+00 -0.00000000000E+00 -0.74505805969E-08  0.93827000000E+00  0.93827000000E+00 0.  1.
     999902    2    1    2    0    0 -0.14361501498E-01 -0.14775212104E-01 -0.80851462028E-02  0.10217956555E+01  0.10215558880E+01 0.  0.
     999903    2    3    3    0    0 -0.76872657704E-02  0.11716760683E+00  0.51994737945E-01  0.12990830533E+00  0.19630916269E-01 0.  0.
         14    1    1    2    0    0  0.14361501498E-01  0.14775212104E-01  0.80851462028E-02  0.22134344516E-01  0.00000000000E+00 0.  1.
     999901    1    3    3    0    0 -0.66742357279E-02 -0.13194281894E+00 -0.60079884148E-01  0.89188735016E+00  0.88000000000E+00 0.  1.
        -11    1    4    4    0    0  0.41581750355E-02  0.31348548209E-01  0.20680550438E-01  0.37788466254E-01  0.51100000000E-03 0. -1.
         11    1    4    4    0    0 -0.11845440806E-01  0.85819058622E-01  0.31314187507E-01  0.92119839073E-01  0.51100000000E-03 0.  1.
</event>
<event>
 8    1  0.1075206E+005  0.1043930E+01  0.7957747E-01            NaN
         13   -1    0    0    0    0  0.00000000000E+00  0.00000000000E+00  0.74505805969E-08  0.10566000000E+00  0.10566000000E+00 0.  1.
     999900   -1    0    0    0    0 -0.00000000000E+00 -0.00000000000E+00 -0.74505805969E-08  0.93827000000E+00  0.93827000000E+00 0. -1.
     999902    2    1    2    0    0 -0.14445797978E-03  0.17226853461E-01 -0.12304181376E-01  0.10227597797E+01  0.10225406538E+01 0.  0.
     999903    2    3    3    0    0  0.65146551577E-01  0.39075449972E-01 -0.10951802606E+00  0.13473342384E+00  0.19696027394E-01 0.  0.
         14    1    1    2    0    0  0.14445797978E-03 -0.17226853461E-01  0.12304181376E-01  0.21170220301E-01  0.00000000000E+00 0.  1.
     999901    1    3    3    0    0 -0.65291009557E-01 -0.21848596510E-01  0.97213844684E-01  0.88802635586E+00  0.88000000000E+00 0.  1.
        -11    1    4    4    0    0  0.29609026351E-01  0.28709211548E-01 -0.52765414452E-01  0.66972855341E-01  0.51100000000E-03 0. -1.
         11    1    4    4    0    0  0.35537525226E-01  0.10366238423E-01 -0.56752611608E-01  0.67760568501E-01  0.51100000000E-03 0.  1.
</event>
<event>
 8    1  0.1075206E+005  0.1043930E+01  0.7957747E-01            NaN
         13   -1    0    0    0    0  0.00000000000E+00  0.00000000000E+00  0.74505805969E-08  0.10566000000E+00  0.10566000000E+00 0. -1.
     999900   -1    0    0    0    0 -0.00000000000E+00 -0.00000000000E+00 -0.74505805969E-08  0.93827000000E+00  0.93827000000E+00 0.  1.
     999902    2    1    2    0    0  0.14827888165E-01 -0.16600854230E-02  0.22174575451E-01  0.10172029735E+01  0.10168517863E+01 0.  0.
     999903    2    3    3    0    0 -0.41840766201E-01 -0.47452312066E-01 -0.10579795333E+00  0.12496688782E+00  0.20521805133E-01 0.  0.
         14    1    1    2    0    0 -0.14827888165E-01  0.16600854230E-02 -0.22174575451E-01  0.26727026536E-01  0.00000000000E+00 0.  1.
     999901    1    3    3    0    0  0.56668654366E-01  0.45792226644E-01  0.12797252878E+00  0.89223608565E+00  0.88000000000E+00 0. -1.
        -11    1    4    4    0    0 -0.29094304334E-01 -0.18698839297E-01 -0.48009885564E-01  0.59172082679E-01  0.51100000000E-03 0. -1.
         11    1    4    4    0    0 -0.12746461867E-01 -0.28753472769E-01 -0.57788067762E-01  0.65794805138E-01  0.51100000000E-03 0.  1.
</event>
<event>
 8    1  0.1075206E+005  0.1043930E+01  0.7957747E-01            NaN
         13   -1    0    0    0    0  0.00000000000E+00  0.00000000000E+00  0.74505805969E-08  0.10566000000E+00  0.10566000000E+00 0. -1.
     999900   -1    0    0    0    0 -0.00000000000E+00 -0.00000000000E+00 -0.74505805969E-08  0.93827000000E+00  0.93827000000E+00 0.  1.
     999902    2    1    2    0    0  0.65627783128E-03 -0.19407212286E-01  0.89229590649E-02  0.10225596985E+01  0.10223363669E+01 0.  0.
     999903    2    3    3    0    0  0.60026702212E-01 -0.22883290712E-01  0.11584373701E+00  0.13409530235E+00  0.20854945112E-01 0.  0.
         14    1    1    2    0    0 -0.65627783128E-03  0.19407212286E-01 -0.89229590649E-02  0.21370301537E-01  0.00000000000E+00 0.  1.
     999901    1    3    3    0    0 -0.59370424381E-01  0.34760784262E-02 -0.10692077794E+00  0.88846439612E+00  0.88000000000E+00 0.  1.
        -11    1    4    4    0    0  0.57427659973E-01 -0.16556610818E-01  0.95853124130E-01  0.11296078974E+00  0.51100000000E-03 0.  1.
         11    1    4    4    0    0  0.25990422388E-02 -0.63266798941E-02  0.19990612875E-01  0.21134512608E-01  0.51100000000E-03 0. -1.
</event>
<event>
 8    1  0.1075206E+005  0.1043930E+01  0.7957747E-01            NaN
         13   -1    0    0    0    0  0.00000000000E+00  0.00000000000E+00  0.74505805969E-08  0.10566000000E+00  0.10566000000E+00 0.  1.
     999900   -1    0    0    0    0 -0.00000000000E+00 -0.00000000000E+00 -0.74505805969E-08  0.93827000000E+00  0.93827000000E+00 0.  1.
     999902    2    1    2    0    0  0.92807835380E-02  0.20255148410E-01  0.81481223354E-02  0.10202066807E+01  0.10199308190E+01 0.  0.
     999903    2    3    3    0    0  0.27140913557E-01  0.23973735736E-01 -0.12338742668E+00  0.13024352823E+00  0.20677291609E-01 0.  0.
         14    1    1    2    0    0 -0.92807835380E-02 -0.20255148410E-01 -0.81481223354E-02  0.23723319283E-01  0.00000000000E+00 0. -1.
     999901    1    3    3    0    0 -0.17860130019E-01 -0.37185873263E-02  0.13153554902E+00  0.88996315249E+00  0.88000000000E+00 0. -1.
        -11    1    4    4    0    0  0.86152502461E-02 -0.26758112773E-02 -0.21878623967E-01  0.23671033152E-01  0.51100000000E-03 0.  1.
         11    1    4    4    0    0  0.18525663311E-01  0.26649547014E-01 -0.10150880271E+00  0.10657249507E+00  0.51100000000E-03 0. -1.
</event>
<event>
 8    1  0.1075206E+005  0.1043930E+01  0.7957747E-01            NaN
         13   -1    0    0    0    0  0.00000000000E+00  0.00000000000E+00  0.74505805969E-08  0.10566000000E+00  0.10566000000E+00 0. -1.
     999900   -1    0    0    0    0 -0.00000000000E+00 -0.00000000000E+00 -0.74505805969E-08  0.93827000000E+00  0.93827000000E+00 0. -1.
     999902    2    1    2    0    0 -0.10035085479E-01 -0.13787950006E-01 -0.15878503111E-01  0.10206289836E+01  0.10203629671E+01 0.  0.
     999903    2    3    3    0    0  0.55193852451E-01 -0.11155711379E+00  0.36550661552E-01  0.13126829125E+00  0.20101304449E-01 0.  0.
         14    1    1    2    0    0  0.10035085479E-01  0.13787950006E-01  0.15878503111E-01  0.23301016437E-01  0.00000000000E+00 0. -1.
     999901    1    3    3    0    0 -0.65228937930E-01  0.97769163787E-01 -0.52429164663E-01  0.88936069232E+00  0.88000000000E+00 0. -1.
        -11    1    4    4    0    0  0.28538330369E-01 -0.69205869485E-01  0.30593402168E-01  0.80870922146E-01  0.51100000000E-03 0. -1.
         11    1    4    4    0    0  0.26655522082E-01 -0.42351244308E-01  0.59572593841E-02  0.50397369100E-01  0.51100000000E-03 0.  1.
</event>
<event>
 8    1  0.1075206E+005  0.1043930E+01  0.7957747E-01            NaN
         13   -1    0    0    0    0  0.00000000000E+00  0.00000000000E+00  0.74505805969E-08  0.10566000000E+00  0.10566000000E+00 0.  1.
     999900   -1    0    0    0    0 -0.00000000000E+00 -0.00000000000E+00 -0.74505805969E-08  0.93827000000E+00  0.93827000000E+00 0.  1.
     999902    2    1    2    0    0  0.23785470975E-01  0.65867573857E-02  0.46242279927E-04  0.10192493164E+01  0.10189504566E+01 0.  0.
     999903    2    3    3    0    0 -0.17335926252E-01  0.10997162085E-01 -0.12600763993E+00  0.12930549676E+00  0.20506444311E-01 0.  0.
         14    1    1    2    0    0 -0.23785470975E-01 -0.65867573857E-02 -0.46242279927E-04  0.24680683554E-01  0.00000000000E+00 0. -1.
     999901    1    3    3    0    0  0.41121397227E-01 -0.44104046997E-02  0.12605388221E+00  0.88994381969E+00  0.88000000000E+00 0. -1.
        -11    1    4    4    0    0  0.25762244230E-02  0.39995840640E-02 -0.55474427691E-01  0.55680399187E-01  0.51100000000E-03 0. -1.
         11    1    4    4    0    0 -0.19912150675E-01  0.69975780214E-02 -0.70533212239E-01  0.73625097572E-01  0.51100000000E-03 0.  1.
</event>
<event>
 8    1  0.1075206E+005  0.1043930E+01  0.7957747E-01            NaN
         13   -1    0    0    0    0  0.00000000000E+00  0.00000000000E+00  0.74505805969E-08  0.10566000000E+00  0.10566000000E+00 0.  1.
     999900   -1    0    0    0    0 -0.00000000000E+00 -0.00000000000E+00 -0.74505805969E-08  0.93827000000E+00  0.93827000000E+00 0. -1.
     999902    2    1    2    0    0 -0.98193275344E-02  0.21030934163E-01  0.24940159687E-02  0.10205860607E+01  0.10203190520E+01 0.  0.
     999903    2    3    3    0    0 -0.84753755759E-01 -0.51343447336E-01 -0.82425466562E-01  0.13038128758E+00  0.19646218786E-01 0.  0.
         14    1    1    2    0    0  0.98193275344E-02 -0.21030934163E-01 -0.24940159687E-02  0.23343939270E-01  0.00000000000E+00 0. -1.
     999901    1    3    3    0    0  0.74934428225E-01  0.72374381499E-01  0.84919482531E-01  0.89020477315E+00  0.88000000000E+00 0.  1.
        -11    1    4    4    0    0 -0.21142058471E-01 -0.66890711957E-02 -0.26885414374E-01  0.34854224091E-01  0.51100000000E-03 0. -1.
         11    1    4    4    0    0 -0.63611697288E-01 -0.44654376140E-01 -0.55540052188E-01  0.95527063486E-01  0.51100000000E-03 0.  1.
</event>
<event>
 8    1  0.1075206E+005  0.1043930E+01  0.7957747E-01            NaN
         13   -1    0    0    0    0  0.00000000000E+00  0.00000000000E+00  0.74505805969E-08  0.10566000000E+00  0.10566000000E+00 0. -1.
     999900   -1    0    0    0    0 -0.00000000000E+00 -0.00000000000E+00 -0.74505805969E-08  0.93827000000E+00  0.93827000000E+00 0. -1.
     999902    2    1    2    0    0  0.90849810338E-02  0.18541417929E-01  0.12777497182E-01  0.10196486184E+01  0.10193594653E+01 0.  0.
     999903    2    3    3    0    0 -0.10725899913E+00  0.65345285354E-01  0.29625316584E-01  0.13059835391E+00  0.20094065062E-01 0.  0.
         14    1    1    2    0    0 -0.90849810338E-02 -0.18541417929E-01 -0.12777497182E-01  0.24281381621E-01  0.00000000000E+00 0.  1.
     999901    1    3    3    0    0  0.11634398016E+00 -0.46803867425E-01 -0.16847819402E-01  0.88905026446E+00  0.88000000000E+00 0.  1.
        -11    1    4    4    0    0 -0.79295206603E-01  0.45653738285E-01  0.30300367545E-01  0.96386549912E-01  0.51100000000E-03 0. -1.
         11    1    4    4    0    0 -0.27963792524E-01  0.19691547069E-01 -0.67505096047E-03  0.34211804003E-01  0.51100000000E-03 0.  1.
</event>
<event>
 8    1  0.1075206E+005  0.1043930E+01  0.7957747E-01            NaN
         13   -1    0    0    0    0  0.00000000000E+00  0.00000000000E+00  0.74505805969E-08  0.10566000000E+00  0.10566000000E+00 0.  1.
     999900   -1    0    0    0    0 -0.00000000000E+00 -0.00000000000E+00 -0.74505805969E-08  0.93827000000E+00  0.93827000000E+00 0.  1.
     999902    2    1    2    0    0  0.20526860562E-01 -0.12608343206E-01 -0.96927358248E-02  0.10179632626E+01  0.10176320222E+01 0.  0.
     999903    2    3    3    0    0  0.54673891032E-01 -0.11525462806E+00 -0.23447236388E-01  0.13123248849E+00  0.19983230258E-01 0.  0.
         14    1    1    2    0    0 -0.20526860562E-01  0.12608343206E-01  0.96927358248E-02  0.25966737391E-01  0.00000000000E+00 0. -1.
     999901    1    3    3    0    0 -0.34147030470E-01  0.10264628485E+00  0.13754500563E-01  0.88673077412E+00  0.88000000000E+00 0.  1.
        -11    1    4    4    0    0  0.38071750668E-01 -0.62205700394E-01 -0.70351568538E-02  0.73271835745E-01  0.51100000000E-03 0. -1.
         11    1    4    4    0    0  0.16602140364E-01 -0.53048927665E-01 -0.16412079534E-01  0.57960652746E-01  0.51100000000E-03 0.  1.
</event>
<event>
 8    1  0.1075206E+005  0.1043930E+01  0.7957747E-01            NaN
         13   -1    0    0    0    0  0.00000000000E+00  0.00000000000E+00  0.74505805969E-08  0.10566000000E+00  0.10566000000E+00 0. -1.
     999900   -1    0    0    0    0 -0.00000000000E+00 -0.00000000000E+00 -0.74505805969E-08  0.93827000000E+00  0.93827000000E+00 0. -1.
     999902    2    1    2    0    0 -0.23805429798E-01  0.57079318248E-02  0.72676546231E-02  0.10183937948E+01  0.10180735845E+01 0.  0.
     999903    2    3    3    0    0  0.97908522582E-01 -0.77091850666E-01 -0.24823765420E-02  0.12611292347E+00  0.19211325830E-01 0.  0.
         14    1    1    2    0    0  0.23805429798E-01 -0.57079318248E-02 -0.72676546231E-02  0.25536205226E-01  0.00000000000E+00 0. -1.
     999901    1    3    3    0    0 -0.12171395238E+00  0.82799782491E-01  0.97500311651E-02  0.89228087130E+00  0.88000000000E+00 0. -1.
        -11    1    4    4    0    0  0.36947784417E-01 -0.36296579472E-01 -0.85982662605E-02  0.52504968893E-01  0.51100000000E-03 0.  1.
         11    1    4    4    0    0  0.60960738164E-01 -0.40795271194E-01  0.61158897185E-02  0.73607954579E-01  0.51100000000E-03 0. -1.
</event>
<event>
 8    1  0.1075206E+005  0.1043930E+01  0.7957747E-01            NaN
         13   -1    0    0    0    0  0.00000000000E+00  0.00000000000E+00  0.74505805969E-08  0.10566000000E+00  0.10566000000E+00 0.  1.
     999900   -1    0    0    0    0 -0.00000000000E+00 -0.00000000000E+00 -0.74505805969E-08  0.93827000000E+00  0.93827000000E+00 0.  1.
     999902    2    1    2    0    0 -0.13645795965E-01 -0.12746990537E-01  0.13904059956E-01  0.10206487544E+01  0.10203831944E+01 0.  0.
     999903    2    3    3    0    0 -0.11768176537E+00 -0.38239062202E-01  0.45996346459E-01  0.13357308481E+00  0.20368635711E-01 0.  0.
         14    1    1    2    0    0  0.13645795965E-01  0.12746990537E-01 -0.13904059956E-01  0.23281245640E-01  0.00000000000E+00 0. -1.
     999901    1    3    3    0    0  0.10403596940E+00  0.25492071665E-01 -0.32092286504E-01  0.88707566955E+00  0.88000000000E+00 0.  1.
        -11    1    4    4    0    0 -0.44677640567E-01 -0.12663773874E-01  0.70718935726E-02  0.46975903770E-01  0.51100000000E-03 0. -1.
         11    1    4    4    0    0 -0.73004124803E-01 -0.25575288328E-01  0.38924452887E-01  0.86597181044E-01  0.51100000000E-03 0.  1.
</event>
<event>
 8    1  0.1075206E+005  0.1043930E+01  0.7957747E-01            NaN
         13   -1    0    0    0    0  0.00000000000E+00  0.00000000000E+00  0.74505805969E-08  0.10566000000E+00  0.10566000000E+00 0.  1.
     999900   -1    0    0    0    0 -0.00000000000E+00 -0.00000000000E+00 -0.74505805969E-08  0.93827000000E+00  0.93827000000E+00 0. -1.
     999902    2    1    2    0    0 -0.28742255800E-02  0.59951037661E-02  0.25567572928E-01  0.10175121419E+01  0.10171691382E+01 0.  0.
     999903    2    3    3    0    0  0.11581957044E+00 -0.39484158866E-02  0.53875910702E-01  0.12903678895E+00  0.17835814033E-01 0.  0.
         14    1    1    2    0    0  0.28742255800E-02 -0.59951037661E-02 -0.25567572928E-01  0.26417858113E-01  0.00000000000E+00 0. -1.
     999901    1    3    3    0    0 -0.11869379602E+00  0.99435196527E-02 -0.28308337775E-01  0.88847535294E+00  0.88000000000E+00 0. -1.
        -11    1    4    4    0    0  0.92594589179E-01 -0.70554338560E-02  0.36156080745E-01  0.99654705799E-01  0.51100000000E-03 0. -1.
         11    1    4    4    0    0  0.23224981262E-01  0.31070179694E-02  0.17719829958E-01  0.29382083146E-01  0.51100000000E-03 0.  1.
</event>
<event>
 8    1  0.1075206E+005  0.1043930E+01  0.7957747E-01            NaN
         13   -1    0    0    0    0  0.00000000000E+00  0.00000000000E+00  0.74505805969E-08  0.10566000000E+00  0.10566000000E+00 0. -1.
     999900   -1    0    0    0    0 -0.00000000000E+00 -0.00000000000E+00 -0.74505805969E-08  0.93827000000E+00  0.93827000000E+00 0. -1.
     999902    2    1    2    0    0 -0.19086413298E-01 -0.12395758899E-02  0.11432224088E-01  0.10216471934E+01  0.10214041631E+01 0.  0.
     999903    2    3    3    0    0  0.12717174205E+00  0.11213407356E-01  0.73471872793E-02  0.12947948928E+00  0.20311683899E-01 0.  0.
         14    1    1    2    0    0  0.19086413298E-01  0.12395758899E-02 -0.11432224088E-01  0.22282806569E-01  0.00000000000E+00 0.  1.
     999901    1    3    3    0    0 -0.14625815535E+00 -0.12452983246E-01  0.40850368088E-02  0.89216770415E+00  0.88000000000E+00 0. -1.
        -11    1    4    4    0    0  0.72206187459E-01  0.16435977386E-01  0.40417733217E-02  0.74165166437E-01  0.51100000000E-03 0.  1.
         11    1    4    4    0    0  0.54965554594E-01 -0.52225700301E-02  0.33054139575E-02  0.55314322847E-01  0.51100000000E-03 0. -1.
</event>
<event>
 8    1  0.1075206E+005  0.1043930E+01  0.7957747E-01            NaN
         13   -1    0    0    0    0  0.00000000000E+00  0.00000000000E+00  0.74505805969E-08  0.10566000000E+00  0.10566000000E+00 0. -1.
     999900   -1    0    0    0    0 -0.00000000000E+00 -0.00000000000E+00 -0.74505805969E-08  0.93827000000E+00  0.93827000000E+00 0.  1.
     999902    2    1    2    0    0 -0.65525575549E-02  0.86153882771E-03  0.23802565757E-01  0.10192269557E+01  0.10189275474E+01 0.  0.
     999903    2    3    3    0    0  0.10189829476E+00  0.57282922811E-01 -0.47776873820E-01  0.12789728826E+00  0.20260576308E-01 0.  0.
         14    1    1    2    0    0  0.65525575549E-02 -0.86153882771E-03 -0.23802565757E-01  0.24703044271E-01  0.00000000000E+00 0.  1.
     999901    1    3    3    0    0 -0.10845085231E+00 -0.56421383984E-01  0.71579439577E-01  0.89132966747E+00  0.88000000000E+00 0. -1.
        -11    1    4    4    0    0  0.21097101634E-01  0.15131493220E-01 -0.23690231441E-02  0.26075336548E-01  0.51100000000E-03 0.  1.
         11    1    4    4    0    0  0.80801193123E-01  0.42151429591E-01 -0.45407850676E-01  0.10182195171E+00  0.51100000000E-03 0. -1.
</event>
<event>
 8    1  0.1075206E+005  0.1043930E+01  0.7957747E-01            NaN
         13   -1    0    0    0    0  0.00000000000E+00  0.00000000000E+00  0.74505805969E-08  0.10566000000E+00  0.10566000000E+00 0. -1.
     999900   -1    0    0    0    0 -0.00000000000E+00 -0.00000000000E+00 -0.74505805969E-08  0.93827000000E+00  0.93827000000E+00 0. -1.
     999902    2    1    2    0    0  0.17791277710E-01 -0.44144832778E-02 -0.14623048168E-01  0.10204811032E+01  0.10202116600E+01 0.  0.
     999903    2    3    3    0    0  0.81352964057E-01  0.58043641299E-01 -0.85590204867E-01  0.13313819164E+00  0.20315655247E-01 0.  0.
         14    1    1    2    0    0 -0.17791277710E-01  0.44144832778E-02  0.14623048168E-01  0.23448896837E-01  0.00000000000E+00 0. -1.
     999901    1    3    3    0    0 -0.63561686347E-01 -0.62458124577E-01  0.70967156699E-01  0.88734291152E+00  0.88000000000E+00 0.  1.
        -11    1    4    4    0    0  0.50023326439E-01  0.24956855964E-01 -0.53701074576E-01  0.77519316168E-01  0.51100000000E-03 0.  1.
         11    1    4    4    0    0  0.31329637618E-01  0.33086785336E-01 -0.31889130292E-01  0.55618875473E-01  0.51100000000E-03 0. -1.
</event>
<event>
 7    1  0.1075206E+005  0.1043930E+01  0.7957747E-01            NaN
         13   -1    0    0    0    0  0.00000000000E+00  0.00000000000E+00  0.74505805969E-08  0.10566000000E+00  0.10566000000E+00 0.  1.
     999900   -1    0    0    0    0 -0.00000000000E+00 -0.00000000000E+00 -0.74505805969E-08  0.93827000000E+00  0.93827000000E+00 0. -1.
     999902    2    1    2    0    0 -0.46049888411E-02 -0.14292229132E-01  0.14135710950E-01  0.10233073896E+01  0.10230995658E+01 0.  0.
         14    1    1    2    0    0  0.46049888411E-02  0.14292229132E-01 -0.14135710950E-01  0.20622610404E-01  0.00000000000E+00 0. -1.
     999901    1    3    3    0    0 -0.95947771570E-01  0.77835280069E-01  0.45538897415E-01  0.88979666041E+00  0.88000000000E+00 0.  1.
        -11    1    3    3    0    0  0.81818188113E-02 -0.78479525008E-02 -0.33075986325E-02  0.11820907208E-01  0.51100000000E-03 0. -1.
         11    1    3    3    0    0  0.83160963917E-01 -0.84279556700E-01 -0.28095587833E-01  0.12168982198E+00  0.51100000000E-03 0.  1.
</event>
<event>
 8    1  0.1075206E+005  0.1043930E+01  0.7957747E-01            NaN
         13   -1    0    0    0    0  0.00000000000E+00  0.00000000000E+00  0.74505805969E-08  0.10566000000E+00  0.10566000000E+00 0. -1.
     999900   -1    0    0    0    0 -0.00000000000E+00 -0.00000000000E+00 -0.74505805969E-08  0.93827000000E+00  0.93827000000E+00 0.  1.
     999902    2    1    2    0    0 -0.56299682272E-02  0.17663797798E-01  0.11479748424E-01  0.10221242457E+01  0.10218916199E+01 0.  0.
     999903    2    3    3    0    0 -0.45691808601E-01  0.12203461298E+00  0.28437014067E-01  0.13488934620E+00  0.20156483096E-01 0.  0.
         14    1    1    2    0    0  0.56299682272E-02 -0.17663797798E-01 -0.11479748424E-01  0.21805754258E-01  0.00000000000E+00 0.  1.
     999901    1    3    3    0    0  0.40061840374E-01 -0.10437081518E+00 -0.16957265644E-01  0.88723489955E+00  0.88000000000E+00 0.  1.
        -11    1    4    4    0    0 -0.33126892176E-01  0.60292513253E-01  0.12942502816E-01  0.70002483097E-01  0.51100000000E-03 0.  1.
         11    1    4    4    0    0 -0.12564916425E-01  0.61742099722E-01  0.15494511252E-01  0.64886863099E-01  0.51100000000E-03 0. -1.
</event>
<event>
 8    1  0.1075206E+005  0.1043930E+01  0.7957747E-01            NaN
         13   -1    0    0    0    0  0.00000000000E+00  0.00000000000E+00  0.74505805969E-08  0.10566000000E+00  0.10566000000E+00 0.  1.
     999900   -1    0    0    0    0 -0.00000000000E+00 -0.00000000000E+00 -0.74505805969E-08  0.93827000000E+00  0.93827000000E+00 0. -1.
     999902    2    1    2    0    0  0.19033951713E-01 -0.12624925583E-01  0.52886783119E-02  0.10204853805E+01  0.10202160368E+01 0.  0.
     999903    2    3    3    0    0 -0.12035551068E+00  0.38625561669E-01 -0.31538659016E-02  0.12800159288E+00  0.19926814712E-01 0.  0.
         14    1    1    2    0    0 -0.19033951713E-01  0.12624925583E-01 -0.52886783119E-02  0.23444619469E-01  0.00000000000E+00 0. -1.
     999901    1    3    3    0    0  0.13938946239E+00 -0.51250487252E-01  0.84425442135E-02  0.89248378765E+00  0.88000000000E+00 0.  1.
        -11    1    4    4    0    0 -0.68755373517E-01  0.32325255188E-01 -0.18951936651E-02  0.76000502567E-01  0.51100000000E-03 0.  1.
         11    1    4    4    0    0 -0.51600137161E-01  0.63003064807E-02 -0.12586722365E-02  0.52001090312E-01  0.51100000000E-03 0. -1.
</event>
<event>
 7    1  0.1112373E+005  0.1043930E+01  0.7957747E-01            NaN
         13   -1    0    0    0    0  0.00000000000E+00  0.00000000000E+00  0.74505805969E-08  0.10566000000E+00  0.10566000000E+00 0.  1.
     999900   -1    0    0    0    0 -0.00000000000E+00 -0.00000000000E+00 -0.74505805969E-08  0.93827000000E+00  0.93827000000E+00 0.  1.
     999903    2    1    2    0    0 -0.68214407452E-02  0.99589222534E-01  0.17628038596E-01  0.10329162783E+00  0.19846091204E-01 0.  0.
         14    1    1    2    0    0  0.47216816984E-01 -0.22099051652E-01 -0.21264715362E-01  0.56302611035E-01  0.00000000000E+00 0. -1.
     999901    1    1    2    0    0 -0.40395376238E-01 -0.77490170882E-01  0.36366767651E-02  0.88433576114E+00  0.88000000000E+00 0. -1.
        -11    1    3    3    0    0 -0.11342215544E-01  0.32230544642E-01  0.80069323847E-02  0.35097378087E-01  0.51100000000E-03 0.  1.
         11    1    3    3    0    0  0.45207747991E-02  0.67358677892E-01  0.96211062117E-02  0.68194249742E-01  0.51100000000E-03 0. -1.
</event>
<event>
 8    1  0.1075206E+005  0.1043930E+01  0.7957747E-01            NaN
         13   -1    0    0    0    0  0.00000000000E+00  0.00000000000E+00  0.74505805969E-08  0.10566000000E+00  0.10566000000E+00 0.  1.
     999900   -1    0    0    0    0 -0.00000000000E+00 -0.00000000000E+00 -0.74505805969E-08  0.93827000000E+00  0.93827000000E+00 0.  1.
     999902    2    1    2    0    0 -0.93672932610E-02  0.31596414434E-02  0.21901062322E-01  0.10199011414E+01  0.10196180423E+01 0.  0.
     999903    2    3    3    0    0  0.76207481596E-01  0.99036787255E-01 -0.26192696084E-01  0.12926739015E+00  0.20202359943E-01 0.  0.
         14    1    1    2    0    0  0.93672932610E-02 -0.31596414434E-02 -0.21901062322E-01  0.24028858648E-01  0.00000000000E+00 0. -1.
     999901    1    3    3    0    0 -0.85574774857E-01 -0.95877145811E-01  0.48093758407E-01  0.89063375120E+00  0.88000000000E+00 0. -1.
        -11    1    4    4    0    0  0.29265148511E-01  0.44586883821E-01 -0.18605019353E-02  0.53368171364E-01  0.51100000000E-03 0.  1.
         11    1    4    4    0    0  0.46942333085E-01  0.54449903433E-01 -0.24332194149E-01  0.75899218787E-01  0.51100000000E-03 0. -1.
</event>
<event>
 8    1  0.1075206E+005  0.1043930E+01  0.7957747E-01            NaN
         13   -1    0    0    0    0  0.00000000000E+00  0.00000000000E+00  0.74505805969E-08  0.10566000000E+00  0.10566000000E+00 0. -1.
     999900   -1    0    0    0    0 -0.00000000000E+00 -0.00000000000E+00 -0.74505805969E-08  0.93827000000E+00  0.93827000000E+00 0.  1.
     999902    2    1    2    0    0 -0.13044015022E-01 -0.38440923854E-02 -0.19951114633E-01  0.10197852211E+01  0.10194993510E+01 0.  0.
     999903    2    3    3    0    0 -0.87978168396E-01  0.94265801688E-02  0.91665789324E-01  0.12947652667E+00  0.23076730653E-01 0.  0.
         14    1    1    2    0    0  0.13044015022E-01  0.38440923854E-02  0.19951114633E-01  0.24144778923E-01  0.00000000000E+00 0.  1.
     999901    1    3    3    0    0  0.74934153374E-01 -0.13270672554E-01 -0.11161690396E+00  0.89030869441E+00  0.88000000000E+00 0.  1.
        -11    1    4    4    0    0 -0.53198344320E-01  0.39583325399E-02  0.70444209634E-01  0.88365038487E-01  0.51100000000E-03 0.  1.
         11    1    4    4    0    0 -0.34779824076E-01  0.54682476289E-02  0.21221579689E-01  0.41111488180E-01  0.51100000000E-03 0. -1.
</event>
<event>
 8    1  0.1075206E+005  0.1043930E+01  0.7957747E-01            NaN
         13   -1    0    0    0    0  0.00000000000E+00  0.00000000000E+00  0.74505805969E-08  0.10566000000E+00  0.10566000000E+00 0.  1.
     999900   -1    0    0    0    0 -0.00000000000E+00 -0.00000000000E+00 -0.74505805969E-08  0.93827000000E+00  0.93827000000E+00 0.  1.
     999902    2    1    2    0    0  0.19671043071E-01  0.34609864753E-02 -0.15997627756E-01  0.10183399149E+01  0.10180183347E+01 0.  0.
     999903    2    3    3    0    0  0.83781871011E-01  0.43422346418E-01 -0.90016476551E-01  0.13200707755E+00  0.20445057922E-01 0.  0.
         14    1    1    2    0    0 -0.19671043071E-01 -0.34609864753E-02  0.15997627756E-01  0.25590085125E-01  0.00000000000E+00 0.  1.
     999901    1    3    3    0    0 -0.64110827939E-01 -0.39961359943E-01  0.74018848795E-01  0.88633283733E+00  0.88000000000E+00 0. -1.
        -11    1    4    4    0    0  0.40644022304E-01  0.29904863870E-01 -0.56329055686E-01  0.75627118599E-01  0.51100000000E-03 0.  1.
         11    1    4    4    0    0  0.43137848707E-01  0.13517482549E-01 -0.33687420865E-01  0.56379958948E-01  0.51100000000E-03 0. -1.
</event>
<event>
 8    1  0.1075206E+005  0.1043930E+01  0.7957747E-01            NaN
         13   -1    0    0    0    0  0.00000000000E+00  0.00000000000E+00  0.74505805969E-08  0.10566000000E+00  0.10566000000E+00 0. -1.
     999900   -1    0    0    0    0 -0.00000000000E+00 -0.00000000000E+00 -0.74505805969E-08  0.93827000000E+00  0.93827000000E+00 0. -1.
     999902    2    1    2    0    0  0.18518357500E-01  0.69268308253E-02  0.12950585967E-01  0.10202946826E+01  0.10200208876E+01 0.  0.
     999903    2    3    3    0    0 -0.28208328827E-01  0.12320571883E+00 -0.26061393707E-01  0.13056095979E+00  0.19789113461E-01 0.  0.
         14    1    1    2    0    0 -0.18518357500E-01 -0.69268308253E-02 -0.12950585967E-01  0.23635317359E-01  0.00000000000E+00 0. -1.
     999901    1    3    3    0    0  0.46726686327E-01 -0.11627888801E+00  0.39011979674E-01  0.88973372285E+00  0.88000000000E+00 0. -1.
        -11    1    4    4    0    0 -0.69408109660E-02  0.25270440549E-01 -0.13719368427E-01  0.29584661794E-01  0.51100000000E-03 0.  1.
         11    1    4    4    0    0 -0.21267517861E-01  0.97935278285E-01 -0.12342025280E-01  0.10097629800E+00  0.51100000000E-03 0. -1.
</event>
<event>
 8    1  0.1075206E+005  0.1043930E+01  0.7957747E-01            NaN
         13   -1    0    0    0    0  0.00000000000E+00  0.00000000000E+00  0.74505805969E-08  0.10566000000E+00  0.10566000000E+00 0.  1.
     999900   -1    0    0    0    0 -0.00000000000E+00 -0.00000000000E+00 -0.74505805969E-08  0.93827000000E+00  0.93827000000E+00 0. -1.
     999902    2    1    2    0    0 -0.55762202334E-03  0.10896490677E-01 -0.19493274206E-01  0.10215909716E+01  0.10213466997E+01 0.  0.
     999903    2    3    3    0    0  0.30684459855E-01 -0.67373507447E-01 -0.10874948972E+00  0.13307032900E+00  0.20013379634E-01 0.  0.
         14    1    1    2    0    0  0.55762202334E-03 -0.10896490677E-01  0.19493274206E-01  0.22339028418E-01  0.00000000000E+00 0.  1.
     999901    1    3    3    0    0 -0.31242081878E-01  0.78269998124E-01  0.89256215510E-01  0.88852064258E+00  0.88000000000E+00 0.  1.
        -11    1    4    4    0    0  0.25890101152E-01 -0.37405583244E-01 -0.55355063720E-01  0.71651372603E-01  0.51100000000E-03 0.  1.
         11    1    4    4    0    0  0.47943587028E-02 -0.29967924203E-01 -0.53394425996E-01  0.61418956397E-01  0.51100000000E-03 0. -1.
</event>
<event>
 8    1  0.1075206E+005  0.1043930E+01  0.7957747E-01            NaN
         13   -1    0    0    0    0  0.00000000000E+00  0.00000000000E+00  0.74505805969E-08  0.10566000000E+00  0.10566000000E+00 0.  1.
     999900   -1    0    0    0    0 -0.00000000000E+00 -0.00000000000E+00 -0.74505805969E-08  0.93827000000E+00  0.93827000000E+00 0.  1.
     999902    2    1    2    0    0 -0.54325920141E-02  0.15865547910E-01  0.17492646355E-01  0.10196973496E+01  0.10194093699E+01 0.  0.
     999903    2    3    3    0    0  0.47718954300E-01  0.32430030680E-01  0.11735531194E+00  0.13230114674E+00  0.20062868625E-01 0.  0.
         14    1    1    2    0    0  0.54325920141E-02 -0.15865547910E-01 -0.17492646355E-01  0.24232650350E-01  0.00000000000E+00 0.  1.
     999901    1    3    3    0    0 -0.53151546314E-01 -0.16564482770E-01 -0.99862665587E-01  0.88739620291E+00  0.88000000000E+00 0.  1.
        -11    1    4    4    0    0  0.14717826885E-01  0.19761395623E-01  0.36346748983E-01  0.43914399322E-01  0.51100000000E-03 0. -1.
         11    1    4    4    0    0  0.33001127416E-01  0.12668635058E-01  0.81008562960E-01  0.88386747416E-01  0.51100000000E-03 0.  1.
</event>
<event>
 8    1  0.1075206E+005  0.1043930E+01  0.7957747E-01            NaN
         13   -1    0    0    0    0  0.00000000000E+00  0.00000000000E+00  0.74505805969E-08  0.10566000000E+00  0.10566000000E+00 0.  1.
     999900   -1    0    0    0    0 -0.00000000000E+00 -0.00000000000E+00 -0.74505805969E-08  0.93827000000E+00  0.93827000000E+00 0.  1.
     999902    2    1    2    0    0 -0.16316852312E-01  0.14228385431E-01 -0.12919871871E-01  0.10187186988E+01  0.10184066857E+01 0.  0.
     999903    2    3    3    0    0  0.73317617664E-01 -0.10104699071E+00 -0.17834044713E-02  0.12661625427E+00  0.21036347655E-01 0.  0.
         14    1    1    2    0    0  0.16316852312E-01 -0.14228385431E-01  0.12919871871E-01  0.25211301245E-01  0.00000000000E+00 0. -1.
     999901    1    3    3    0    0 -0.89634469976E-01  0.11527537614E+00 -0.11136467399E-01  0.89210244449E+00  0.88000000000E+00 0. -1.
        -11    1    4    4    0    0  0.45394900807E-01 -0.70891432801E-01  0.73851123508E-02  0.84504989612E-01  0.51100000000E-03 0. -1.
         11    1    4    4    0    0  0.27922716857E-01 -0.30155557906E-01 -0.91685168221E-02  0.42111264657E-01  0.51100000000E-03 0.  1.
</event>
<event>
 8    1  0.1075206E+005  0.1043930E+01  0.7957747E-01            NaN
         13   -1    0    0    0    0  0.00000000000E+00  0.00000000000E+00  0.74505805969E-08  0.10566000000E+00  0.10566000000E+00 0. -1.
     999900   -1    0    0    0    0 -0.00000000000E+00 -0.00000000000E+00 -0.74505805969E-08  0.93827000000E+00  0.93827000000E+00 0. -1.
     999902    2    1    2    0    0 -0.14517173006E-02  0.58232289904E-02 -0.23606012449E-01  0.10195730441E+01  0.10192820664E+01 0.  0.
     999903    2    3    3    0    0  0.38725959652E-02  0.11503411156E+00 -0.61646176184E-01  0.13199069901E+00  0.19324848368E-01 0.  0.
         14    1    1    2    0    0  0.14517173006E-02 -0.58232289904E-02  0.23606012449E-01  0.24356955941E-01  0.00000000000E+00 0. -1.
     999901    1    3    3    0    0 -0.53243132658E-02 -0.10921088257E+00  0.38040163735E-01  0.88758234505E+00  0.88000000000E+00 0.  1.
        -11    1    4    4    0    0 -0.53415948217E-02  0.34822381590E-01 -0.25694890763E-01  0.43607561582E-01  0.51100000000E-03 0. -1.
         11    1    4    4    0    0  0.92141907869E-02  0.80211729974E-01 -0.35951285421E-01  0.88383137428E-01  0.51100000000E-03 0.  1.
</event>
<event>
 8    1  0.1075206E+005  0.1043930E+01  0.7957747E-01            NaN
         13   -1    0    0    0    0  0.00000000000E+00  0.00000000000E+00  0.74505805969E-08  0.10566000000E+00  0.10566000000E+00 0. -1.
     999900   -1    0    0    0    0 -0.00000000000E+00 -0.00000000000E+00 -0.74505805969E-08  0.93827000000E+00  0.93827000000E+00 0. -1.
     999902    2    1    2    0    0  0.23422174187E-01 -0.25509596379E-02  0.17691554775E-02  0.10203029911E+01  0.10200293908E+01 0.  0.
     999903    2    3    3    0    0  0.95652120530E-01 -0.60936153867E-01  0.65643649366E-01  0.13311307511E+00  0.23397842921E-01 0.  0.
         14    1    1    2    0    0 -0.23422174187E-01  0.25509596379E-02 -0.17691554775E-02  0.23627008905E-01  0.00000000000E+00 0. -1.
     999901    1    3    3    0    0 -0.72229946343E-01  0.58385194229E-01 -0.63874493889E-01  0.88718991598E+00  0.88000000000E+00 0.  1.
        -11    1    4    4    0    0  0.35039805532E-01 -0.12969881391E-01  0.30350780848E-01  0.48139763336E-01  0.51100000000E-03 0. -1.
         11    1    4    4    0    0  0.60612314998E-01 -0.47966272476E-01  0.35292868519E-01  0.84973311775E-01  0.51100000000E-03 0.  1.
</event>
<event>
 8    1  0.1075206E+005  0.1043930E+01  0.7957747E-01            NaN
         13   -1    0    0    0    0  0.00000000000E+00  0.00000000000E+00  0.74505805969E-08  0.10566000000E+00  0.10566000000E+00 0.  1.
     999900   -1    0    0    0    0 -0.00000000000E+00 -0.00000000000E+00 -0.74505805969E-08  0.93827000000E+00  0.93827000000E+00 0.  1.
     999902    2    1    2    0    0 -0.18805431117E-01  0.13577860097E-01 -0.47317887051E-02  0.10202573924E+01  0.10199827226E+01 0.  0.
     999903    2    3    3    0    0 -0.50638076445E-01 -0.11735996305E+00 -0.12195217209E-01  0.12996882484E+00  0.20139423852E-01 0.  0.
         14    1    1    2    0    0  0.18805431117E-01 -0.13577860097E-01  0.47317887051E-02  0.23672607560E-01  0.00000000000E+00 0.  1.
     999901    1    3    3    0    0  0.31832645328E-01  0.13093782315E+00  0.74634285036E-02  0.89028856760E+00  0.88000000000E+00 0.  1.
        -11    1    4    4    0    0 -0.26866129678E-01 -0.75105379247E-01 -0.15920042527E-01  0.81340738814E-01  0.51100000000E-03 0.  1.
         11    1    4    4    0    0 -0.23771946767E-01 -0.42254583805E-01  0.37248253179E-02  0.48628086023E-01  0.51100000000E-03 0. -1.
</event>
<event>
 8    1  0.1301444E+005  0.1043930E+01  0.7957747E-01            NaN
         13   -1    0    0    0    0  0.00000000000E+00  0.00000000000E+00  0.74505805969E-08  0.10566000000E+00  0.10566000000E+00 0. -1.
     999900   -1    0    0    0    0 -0.00000000000E+00 -0.00000000000E+00 -0.74505805969E-08  0.93827000000E+00  0.93827000000E+00 0.  1.
     999902    2    1    2    0    0  0.28891138701E-01 -0.12020670959E-01 -0.16002010509E-01  0.10087837517E+01  0.10081713143E+01 0.  0.
     999903    2    3    3    0    0 -0.77038052976E-01 -0.75681780498E-01  0.43736614145E-01  0.11814216627E+00  0.19547033725E-01 0.  0.
         14    1    1    2    0    0 -0.28891138701E-01  0.12020670959E-01  0.16002010509E-01  0.35146248250E-01  0.00000000000E+00 0. -1.
     999901    1    3    3    0    0  0.10592919168E+00  0.63661109539E-01 -0.59738624654E-01  0.89064158548E+00  0.88000000000E+00 0.  1.
        -11    1    4    4    0    0 -0.60545634230E-01 -0.47020526393E-01  0.29646762473E-01  0.82194253891E-01  0.51100000000E-03 0. -1.
         11    1    4    4    0    0 -0.16492418746E-01 -0.28661254105E-01  0.14089851673E-01  0.35947912375E-01  0.51100000000E-03 0.  1.
</event>
<event>
 8    1  0.1075206E+005  0.1043930E+01  0.7957747E-01            NaN
         13   -1    0    0    0    0  0.00000000000E+00  0.00000000000E+00  0.74505805969E-08  0.10566000000E+00  0.10566000000E+00 0.  1.
     999900   -1    0    0    0    0 -0.00000000000E+00 -0.00000000000E+00 -0.74505805969E-08  0.93827000000E+00  0.93827000000E+00 0. -1.
     999902    2    1    2    0    0 -0.39572489501E-02  0.12055279633E-01  0.18279504566E-01  0.10216784860E+01  0.10214361453E+01 0.  0.
     999903    2    3    3    0    0  0.23052758417E-01 -0.36905465147E-01  0.12439050989E+00  0.13354209985E+00  0.21611350087E-01 0.  0.
         14    1    1    2    0    0  0.39572489501E-02 -0.12055279633E-01 -0.18279504566E-01  0.22251513959E-01  0.00000000000E+00 0. -1.
     999901    1    3    3    0    0 -0.27010007367E-01  0.48960744780E-01 -0.10611100533E+00  0.88813638619E+00  0.88000000000E+00 0. -1.
        -11    1    4    4    0    0  0.24274313452E-01 -0.22727817076E-01  0.98926678890E-01  0.10436735543E+00  0.51100000000E-03 0. -1.
         11    1    4    4    0    0 -0.12215550349E-02 -0.14177648070E-01  0.25463831001E-01  0.29174744416E-01  0.51100000000E-03 0.  1.
</event>
<event>
 8    1  0.1075206E+005  0.1043930E+01  0.7957747E-01            NaN
         13   -1    0    0    0    0  0.00000000000E+00  0.00000000000E+00  0.74505805969E-08  0.10566000000E+00  0.10566000000E+00 0.  1.
     999900   -1    0    0    0    0 -0.00000000000E+00 -0.00000000000E+00 -0.74505805969E-08  0.93827000000E+00  0.93827000000E+00 0. -1.
     999902    2    1    2    0    0 -0.14387845034E-01 -0.12429161304E-01  0.14809774937E-01  0.10198297185E+01  0.10195449137E+01 0.  0.
     999903    2    3    3    0    0  0.89507630599E-01  0.87106924840E-01  0.20807476732E-01  0.12812479267E+00  0.19590281194E-01 0.  0.
         14    1    1    2    0    0  0.14387845034E-01  0.12429161304E-01 -0.14809774937E-01  0.24100281515E-01  0.00000000000E+00 0. -1.
     999901    1    3    3    0    0 -0.10389547563E+00 -0.99536086144E-01 -0.59977017953E-02  0.89170492582E+00  0.88000000000E+00 0. -1.
        -11    1    4    4    0    0  0.35978504200E-01  0.22587692725E-01  0.45451031313E-02  0.42726756378E-01  0.51100000000E-03 0. -1.
         11    1    4    4    0    0  0.53529126398E-01  0.64519232115E-01  0.16262373601E-01  0.85398036288E-01  0.51100000000E-03 0.  1.
</event>
<event>
 8    1  0.1075206E+005  0.1043930E+01  0.7957747E-01            NaN
         13   -1    0    0    0    0  0.00000000000E+00  0.00000000000E+00  0.74505805969E-08  0.10566000000E+00  0.10566000000E+00 0.  1.
     999900   -1    0    0    0    0 -0.00000000000E+00 -0.00000000000E+00 -0.74505805969E-08  0.93827000000E+00  0.93827000000E+00 0. -1.
     999902    2    1    2    0    0 -0.61133986584E-02  0.14384675278E-01  0.17561386607E-01  0.10204205375E+01  0.10201496844E+01 0.  0.
     999903    2    3    3    0    0  0.51755351977E-01  0.44764287390E-01 -0.10782462135E+00  0.12913306195E+00  0.19150478770E-01 0.  0.
         14    1    1    2    0    0  0.61133986584E-02 -0.14384675278E-01 -0.17561386607E-01  0.23509462469E-01  0.00000000000E+00 0.  1.
     999901    1    3    3    0    0 -0.57868750635E-01 -0.30379612111E-01  0.12538600795E+00  0.89128747558E+00  0.88000000000E+00 0.  1.
        -11    1    4    4    0    0  0.12150360886E-01  0.72594573138E-02 -0.10742787392E-01  0.17776377362E-01  0.51100000000E-03 0. -1.
         11    1    4    4    0    0  0.39604991091E-01  0.37504830076E-01 -0.97081833954E-01  0.11135668459E+00  0.51100000000E-03 0.  1.
</event>
<event>
 8    1  0.1075206E+005  0.1043930E+01  0.7957747E-01            NaN
         13   -1    0    0    0    0  0.00000000000E+00  0.00000000000E+00  0.74505805969E-08  0.10566000000E+00  0.10566000000E+00 0.  1.
     999900   -1    0    0    0    0 -0.00000000000E+00 -0.00000000000E+00 -0.74505805969E-08  0.93827000000E+00  0.93827000000E+00 0. -1.
     999902    2    1    2    0    0  0.18001165755E-01 -0.12705157005E-01 -0.74709468480E-02  0.10206646174E+01  0.10203994233E+01 0.  0.
     999903    2    3    3    0    0 -0.13179178245E-01  0.24821002777E-01 -0.12658701067E+00  0.13130020206E+00  0.20632471325E-01 0.  0.
         14    1    1    2    0    0 -0.18001165755E-01  0.12705157005E-01  0.74709468480E-02  0.23265382650E-01  0.00000000000E+00 0.  1.
     999901    1    3    3    0    0  0.31180344000E-01 -0.37526159782E-01  0.11911606382E+00  0.88936441529E+00  0.88000000000E+00 0.  1.
        -11    1    4    4    0    0 -0.15331013348E-01  0.22869346386E-01 -0.79750640464E-01  0.84371042128E-01  0.51100000000E-03 0. -1.
         11    1    4    4    0    0  0.21518351025E-02  0.19516563908E-02 -0.46836370206E-01  0.46929159934E-01  0.51100000000E-03 0.  1.
</event>
<event>
 8    1  0.1075206E+005  0.1043930E+01  0.7957747E-01            NaN
         13   -1    0    0    0    0  0.00000000000E+00  0.00000000000E+00  0.74505805969E-08  0.10566000000E+00  0.10566000000E+00 0. -1.
     999900   -1    0    0    0    0 -0.00000000000E+00 -0.00000000000E+00 -0.74505805969E-08  0.93827000000E+00  0.93827000000E+00 0. -1.
     999902    2    1    2    0    0 -0.19807844480E-01  0.25899968440E-02 -0.12426196290E-01  0.10204040751E+01  0.10201328381E+01 0.  0.
     999903    2    3    3    0    0  0.10195503321E-01 -0.96817296296E-01 -0.85786471881E-01  0.13126756096E+00  0.19857407978E-01 0.  0.
         14    1    1    2    0    0  0.19807844480E-01 -0.25899968440E-02  0.12426196290E-01  0.23525924867E-01  0.00000000000E+00 0.  1.
     999901    1    3    3    0    0 -0.30003347801E-01  0.99407293140E-01  0.73360275590E-01  0.88913651418E+00  0.88000000000E+00 0.  1.
        -11    1    4    4    0    0  0.13120316152E-01 -0.88164940270E-01 -0.71348369211E-01  0.11417552408E+00  0.51100000000E-03 0. -1.
         11    1    4    4    0    0 -0.29248128308E-02 -0.86523560261E-02 -0.14438102670E-01  0.17092036877E-01  0.51100000000E-03 0.  1.
</event>
<event>
 8    1  0.1075206E+005  0.1043930E+01  0.7957747E-01            NaN
         13   -1    0    0    0    0  0.00000000000E+00  0.00000000000E+00  0.74505805969E-08  0.10566000000E+00  0.10566000000E+00 0.  1.
     999900   -1    0    0    0    0 -0.00000000000E+00 -0.00000000000E+00 -0.74505805969E-08  0.93827000000E+00  0.93827000000E+00 0. -1.
     999902    2    1    2    0    0  0.12322370846E-01  0.20365450965E-01 -0.51923643596E-02  0.10195670555E+01  0.10192759330E+01 0.  0.
     999903    2    3    3    0    0 -0.34483441167E-01  0.12428236200E+00 -0.17419497426E-01  0.13213310799E+00  0.22814603160E-01 0.  0.
         14    1    1    2    0    0 -0.12322370846E-01 -0.20365450965E-01  0.51923643596E-02  0.24362944484E-01  0.00000000000E+00 0.  1.
     999901    1    3    3    0    0  0.46805812014E-01 -0.10391691104E+00  0.12227133066E-01  0.88743394753E+00  0.88000000000E+00 0. -1.
        -11    1    4    4    0    0 -0.27134700946E-01  0.74307036677E-01 -0.19846114042E-01  0.81559530766E-01  0.51100000000E-03 0.  1.
         11    1    4    4    0    0 -0.73487402207E-02  0.49975325325E-01  0.24266166165E-02  0.50573577225E-01  0.51100000000E-03 0. -1.
</event>
<event>
 8    1  0.1075206E+005  0.1043930E+01  0.7957747E-01            NaN
         13   -1    0    0    0    0  0.00000000000E+00  0.00000000000E+00  0.74505805969E-08  0.10566000000E+00  0.10566000000E+00 0.  1.
     999900   -1    0    0    0    0 -0.00000000000E+00 -0.00000000000E+00 -0.74505805969E-08  0.93827000000E+00  0.93827000000E+00 0.  1.
     999902    2    1    2    0    0  0.32097629626E-02 -0.16788879391E-01 -0.16064692954E-01  0.10204727323E+01  0.10202030944E+01 0.  0.
     999903    2    3    3    0    0  0.98224959594E-02  0.21371697844E-01  0.12476023344E+00  0.12843483073E+00  0.19420581933E-01 0.  0.
         14    1    1    2    0    0 -0.32097629626E-02  0.16788879391E-01  0.16064692954E-01  0.23457267727E-01  0.00000000000E+00 0.  1.
     999901    1    3    3    0    0 -0.66127329968E-02 -0.38160577235E-01 -0.14082492639E+00  0.89203790154E+00  0.88000000000E+00 0.  1.
        -11    1    4    4    0    0  0.12695584719E-01  0.51334881253E-02  0.47770824111E-01  0.49697518338E-01  0.51100000000E-03 0.  1.
         11    1    4    4    0    0 -0.28730887599E-02  0.16238209718E-01  0.76989409325E-01  0.78737312395E-01  0.51100000000E-03 0. -1.
</event>
<event>
 8    1  0.1075206E+005  0.1043930E+01  0.7957747E-01            NaN
         13   -1    0    0    0    0  0.00000000000E+00  0.00000000000E+00  0.74505805969E-08  0.10566000000E+00  0.10566000000E+00 0.  1.
     999900   -1    0    0    0    0 -0.00000000000E+00 -0.00000000000E+00 -0.74505805969E-08  0.93827000000E+00  0.93827000000E+00 0.  1.
     999902    2    1    2    0    0  0.48962265239E-02 -0.17976389925E-01 -0.31971066480E-02  0.10250264257E+01  0.10248521007E+01 0.  0.
     999903    2    3    3    0    0 -0.67186020405E-01  0.77843364636E-01  0.81981969881E-01  0.13281975082E+00  0.18614297398E-01 0.  0.
         14    1    1    2    0    0 -0.48962265239E-02  0.17976389925E-01  0.31971066480E-02  0.18903574260E-01  0.00000000000E+00 0.  1.
     999901    1    3    3    0    0  0.72082246929E-01 -0.95819754561E-01 -0.85179076529E-01  0.89220667492E+00  0.88000000000E+00 0.  1.
        -11    1    4    4    0    0 -0.57635106009E-01  0.72524493280E-01  0.78228324646E-01  0.12124990502E+00  0.51100000000E-03 0.  1.
         11    1    4    4    0    0 -0.95509143960E-02  0.53188713553E-02  0.37536452351E-02  0.11569845800E-01  0.51100000000E-03 0. -1.
</event>
<event>
 8    1  0.1075206E+005  0.1043930E+01  0.7957747E-01            NaN
         13   -1    0    0    0    0  0.00000000000E+00  0.00000000000E+00  0.74505805969E-08  0.10566000000E+00  0.10566000000E+00 0.  1.
     999900   -1    0    0    0    0 -0.00000000000E+00 -0.00000000000E+00 -0.74505805969E-08  0.93827000000E+00  0.93827000000E+00 0.  1.
     999902    2    1    2    0    0 -0.89240110438E-02  0.34665524129E-03 -0.20722203417E-01  0.10213652519E+01  0.10211159630E+01 0.  0.
     999903    2    3    3    0    0  0.74122799406E-01 -0.29443743161E-01  0.99222030411E-01  0.12885706717E+00  0.19950163836E-01 0.  0.
         14    1    1    2    0    0  0.89240110438E-02 -0.34665524129E-03  0.20722203417E-01  0.22564748113E-01  0.00000000000E+00 0.  1.
     999901    1    3    3    0    0 -0.83046810449E-01  0.29790398402E-01 -0.11994423383E+00  0.89250818472E+00  0.88000000000E+00 0. -1.
        -11    1    4    4    0    0  0.53192230185E-01 -0.12669733391E-01  0.74190192253E-01  0.92164967551E-01  0.51100000000E-03 0.  1.
         11    1    4    4    0    0  0.20930569221E-01 -0.16774009770E-01  0.25031838158E-01  0.36692099616E-01  0.51100000000E-03 0. -1.
</event>
<event>
 8    1  0.1075206E+005  0.1043930E+01  0.7957747E-01            NaN
         13   -1    0    0    0    0  0.00000000000E+00  0.00000000000E+00  0.74505805969E-08  0.10566000000E+00  0.10566000000E+00 0.  1.
     999900   -1    0    0    0    0 -0.00000000000E+00 -0.00000000000E+00 -0.74505805969E-08  0.93827000000E+00  0.93827000000E+00 0. -1.
     999902    2    1    2    0    0  0.15439162288E-02 -0.23241232656E-01 -0.43441928218E-04  0.10206375021E+01  0.10203716824E+01 0.  0.
     999903    2    3    3    0    0  0.11169454604E-01 -0.71469874156E-01  0.10912385023E+00  0.13252931579E+00  0.20574382803E-01 0.  0.
         14    1    1    2    0    0 -0.15439162288E-02  0.23241232656E-01  0.43441928218E-04  0.23292497931E-01  0.00000000000E+00 0.  1.
     999901    1    3    3    0    0 -0.96255383756E-02  0.48228641501E-01 -0.10916729216E+00  0.88810818627E+00  0.88000000000E+00 0. -1.
        -11    1    4    4    0    0 -0.17336446237E-02 -0.48106389363E-01  0.63739106218E-01  0.79875935072E-01  0.51100000000E-03 0.  1.
         11    1    4    4    0    0  0.12903099228E-01 -0.23363484794E-01  0.45384744012E-01  0.52653380722E-01  0.51100000000E-03 0. -1.
</event>
<event>
 8    1  0.1075206E+005  0.1043930E+01  0.7957747E-01            NaN
         13   -1    0    0    0    0  0.00000000000E+00  0.00000000000E+00  0.74505805969E-08  0.10566000000E+00  0.10566000000E+00 0. -1.
     999900   -1    0    0    0    0 -0.00000000000E+00 -0.00000000000E+00 -0.74505805969E-08  0.93827000000E+00  0.93827000000E+00 0.  1.
     999902    2    1    2    0    0  0.98801886554E-02 -0.53692461705E-02 -0.21692141478E-01  0.10194964998E+01  0.10192036681E+01 0.  0.
     999903    2    3    3    0    0  0.79704921664E-01 -0.21662897494E-01  0.96947322687E-01  0.12864505374E+00  0.18127625604E-01 0.  0.
         14    1    1    2    0    0 -0.98801886554E-02  0.53692461705E-02  0.21692141478E-01  0.24433500245E-01  0.00000000000E+00 0. -1.
     999901    1    3    3    0    0 -0.69824733008E-01  0.16293651323E-01 -0.11863946416E+00  0.89085144602E+00  0.88000000000E+00 0.  1.
        -11    1    4    4    0    0  0.49866763615E-01 -0.20874084707E-01  0.54633079292E-01  0.76859976579E-01  0.51100000000E-03 0.  1.
         11    1    4    4    0    0  0.29838158049E-01 -0.78881278658E-03  0.42314243395E-01  0.51785077160E-01  0.51100000000E-03 0. -1.
</event>
<event>
 8    1  0.1075206E+005  0.1043930E+01  0.7957747E-01            NaN
         13   -1    0    0    0    0  0.00000000000E+00  0.00000000000E+00  0.74505805969E-08  0.10566000000E+00  0.10566000000E+00 0.  1.
     999900   -1    0    0    0    0 -0.00000000000E+00 -0.00000000000E+00 -0.74505805969E-08  0.93827000000E+00  0.93827000000E+00 0.  1.
     999902    2    1    2    0    0 -0.66390670162E-02 -0.22134919645E-01 -0.13894882549E-02  0.10207791349E+01  0.10205165749E+01 0.  0.
     999903    2    3    3    0    0 -0.87341730929E-01  0.34205572981E-01  0.88832219182E-01  0.13070771776E+00  0.19868193981E-01 0.  0.
         14    1    1    2    0    0  0.66390670162E-02  0.22134919645E-01  0.13894882549E-02  0.23150865128E-01  0.00000000000E+00 0.  1.
     999901    1    3    3    0    0  0.80702663913E-01 -0.56340492626E-01 -0.90221707437E-01  0.89007141711E+00  0.88000000000E+00 0.  1.
        -11    1    4    4    0    0 -0.25750708422E-01  0.47835423981E-02  0.35312129065E-01  0.43968043420E-01  0.51100000000E-03 0.  1.
         11    1    4    4    0    0 -0.61591022506E-01  0.29422030583E-01  0.53520090117E-01  0.86739674337E-01  0.51100000000E-03 0. -1.
</event>
<event>
 8    1  0.1075206E+005  0.1043930E+01  0.7957747E-01            NaN
         13   -1    0    0    0    0  0.00000000000E+00  0.00000000000E+00  0.74505805969E-08  0.10566000000E+00  0.10566000000E+00 0.  1.
     999900   -1    0    0    0    0 -0.00000000000E+00 -0.00000000000E+00 -0.74505805969E-08  0.93827000000E+00  0.93827000000E+00 0. -1.
     999902    2    1    2    0    0 -0.73600541153E-02 -0.59742564077E-03  0.22800308988E-01  0.10199637445E+01  0.10196821361E+01 0.  0.
     999903    2    3    3    0    0 -0.19398093275E-01 -0.10005133813E+00  0.82155542415E-01  0.13229317561E+00  0.19115304822E-01 0.  0.
         14    1    1    2    0    0  0.73600541153E-02  0.59742564077E-03 -0.22800308988E-01  0.23966255526E-01  0.00000000000E+00 0. -1.
     999901    1    3    3    0    0  0.12038039160E-01  0.99453912490E-01 -0.59355233427E-01  0.88767056887E+00  0.88000000000E+00 0.  1.
        -11    1    4    4    0    0 -0.14263939902E-02 -0.15744153841E-01  0.22330704060E-01  0.27364839572E-01  0.51100000000E-03 0. -1.
         11    1    4    4    0    0 -0.17971699285E-01 -0.84307184290E-01  0.59824838355E-01  0.10492833604E+00  0.51100000000E-03 0.  1.
</event>
<event>
 8    1  0.1075206E+005  0.1043930E+01  0.7957747E-01            NaN
         13   -1    0    0    0    0  0.00000000000E+00  0.00000000000E+00  0.74505805969E-08  0.10566000000E+00  0.10566000000E+00 0.  1.
     999900   -1    0    0    0    0 -0.00000000000E+00 -0.00000000000E+00 -0.74505805969E-08  0.93827000000E+00  0.93827000000E+00 0. -1.
     999902    2    1    2    0    0 -0.13377142074E-01  0.19848485214E-01  0.33156141308E-03  0.10199921591E+01  0.10197112260E+01 0.  0.
     999903    2    3    3    0    0  0.56182762746E-01  0.58793728327E-01  0.10032567977E+00  0.13074858388E+00  0.20414329367E-01 0.  0.
         14    1    1    2    0    0  0.13377142074E-01 -0.19848485214E-01 -0.33156141308E-03  0.23937840929E-01  0.00000000000E+00 0.  1.
     999901    1    3    3    0    0 -0.69559904820E-01 -0.38945243113E-01 -0.99994118358E-01  0.88924357520E+00  0.88000000000E+00 0. -1.
        -11    1    4    4    0    0  0.14806548324E-01  0.16833300837E-01  0.43202257890E-01  0.48675354114E-01  0.51100000000E-03 0. -1.
         11    1    4    4    0    0  0.41376214422E-01  0.41960427490E-01  0.57123421882E-01  0.82073229762E-01  0.51100000000E-03 0.  1.
</event>
<event>
 8    1  0.1075206E+005  0.1043930E+01  0.7957747E-01            NaN
         13   -1    0    0    0    0  0.00000000000E+00  0.00000000000E+00  0.74505805969E-08  0.10566000000E+00  0.10566000000E+00 0.  1.
     999900   -1    0    0    0    0 -0.00000000000E+00 -0.00000000000E+00 -0.74505805969E-08  0.93827000000E+00  0.93827000000E+00 0.  1.
     999902    2    1    2    0    0 -0.81796242230E-02  0.95379582955E-02 -0.20833619108E-01  0.10196006230E+01  0.10193103118E+01 0.  0.
     999903    2    3    3    0    0 -0.10417798207E+00 -0.13245335028E-01  0.72496485117E-01  0.12918202956E+00  0.20093918461E-01 0.  0.
         14    1    1    2    0    0  0.81796242230E-02 -0.95379582955E-02  0.20833619108E-01  0.24329377016E-01  0.00000000000E+00 0.  1.
     999901    1    3    3    0    0  0.95998357843E-01  0.22783293324E-01 -0.93330104225E-01  0.89041859343E+00  0.88000000000E+00 0.  1.
        -11    1    4    4    0    0 -0.57016212701E-01 -0.13080685293E-01  0.30225484015E-01  0.65846745124E-01  0.51100000000E-03 0.  1.
         11    1    4    4    0    0 -0.47161769365E-01 -0.16464973515E-03  0.42271001103E-01  0.63335284434E-01  0.51100000000E-03 0. -1.
</event>
<event>
 8    1  0.1075206E+005  0.1043930E+01  0.7957747E-01            NaN
         13   -1    0    0    0    0  0.00000000000E+00  0.00000000000E+00  0.74505805969E-08  0.10566000000E+00  0.10566000000E+00 0. -1.
     999900   -1    0    0    0    0 -0.00000000000E+00 -0.00000000000E+00 -0.74505805969E-08  0.93827000000E+00  0.93827000000E+00 0.  1.
     999902    2    1    2    0    0 -0.68228255169E-02 -0.15363786280E-01  0.18240811972E-01  0.10191242729E+01  0.10188223395E+01 0.  0.
     999903    2    3    3    0    0  0.61558304067E-01  0.41077123152E-01  0.10550047169E+00  0.13037469996E+00  0.19760010511E-01 0.  0.
         14    1    1    2    0    0  0.68228255169E-02  0.15363786280E-01 -0.18240811972E-01  0.24805727127E-01  0.00000000000E+00 0.  1.
     999901    1    3    3    0    0 -0.68381129584E-01 -0.56440909432E-01 -0.87259659723E-01  0.88874957291E+00  0.88000000000E+00 0.  1.
        -11    1    4    4    0    0  0.45947187553E-01  0.31841172024E-01  0.63381559012E-01  0.84513238156E-01  0.51100000000E-03 0. -1.
         11    1    4    4    0    0  0.15611116514E-01  0.92359511283E-02  0.42118912683E-01  0.45861461802E-01  0.51100000000E-03 0.  1.
</event>
<event>
 8    1  0.1075206E+005  0.1043930E+01  0.7957747E-01            NaN
         13   -1    0    0    0    0  0.00000000000E+00  0.00000000000E+00  0.74505805969E-08  0.10566000000E+00  0.10566000000E+00 0.  1.
     999900   -1    0    0    0    0 -0.00000000000E+00 -0.00000000000E+00 -0.74505805969E-08  0.93827000000E+00  0.93827000000E+00 0. -1.
     999902    2    1    2    0    0  0.57666342241E-02  0.34637018712E-02 -0.21961075025E-01  0.10209617585E+01  0.10207033713E+01 0.  0.
     999903    2    3    3    0    0  0.26746355761E-01  0.12163959224E+00  0.35559306672E-01  0.13095373378E+00  0.19309535238E-01 0.  0.
         14    1    1    2    0    0 -0.57666342241E-02 -0.34637018712E-02  0.21961075025E-01  0.22968241491E-01  0.00000000000E+00 0.  1.
     999901    1    3    3    0    0 -0.20979721536E-01 -0.11817589037E+00 -0.57520381696E-01  0.89000802473E+00  0.88000000000E+00 0. -1.
        -11    1    4    4    0    0  0.69922876534E-02  0.57057561529E-01  0.24616020139E-01  0.62535325879E-01  0.51100000000E-03 0. -1.
         11    1    4    4    0    0  0.19754068107E-01  0.64582030714E-01  0.10943286533E-01  0.68418407896E-01  0.51100000000E-03 0.  1.
</event>
<event>
 8    1  0.1075206E+005  0.1043930E+01  0.7957747E-01            NaN
         13   -1    0    0    0    0  0.00000000000E+00  0.00000000000E+00  0.74505805969E-08  0.10566000000E+00  0.10566000000E+00 0.  1.
     999900   -1    0    0    0    0 -0.00000000000E+00 -0.00000000000E+00 -0.74505805969E-08  0.93827000000E+00  0.93827000000E+00 0.  1.
     999902    2    1    2    0    0 -0.48325915001E-03 -0.24886092193E-01  0.39320299247E-02  0.10187305559E+01  0.10184188399E+01 0.  0.
     999903    2    3    3    0    0 -0.72793775222E-01  0.47750811667E-01 -0.91838226778E-01  0.12762064538E+00  0.16543745176E-01 0.  0.
         14    1    1    2    0    0  0.48325915001E-03  0.24886092193E-01 -0.39320299247E-02  0.25199444109E-01  0.00000000000E+00 0.  1.
     999901    1    3    3    0    0  0.72310516072E-01 -0.72636903860E-01  0.95770256703E-01  0.89110991051E+00  0.88000000000E+00 0.  1.
        -11    1    4    4    0    0 -0.17451771050E-01  0.12598704945E-01 -0.13276508516E-01  0.25294633392E-01  0.51100000000E-03 0. -1.
         11    1    4    4    0    0 -0.55342004172E-01  0.35152106722E-01 -0.78561718261E-01  0.10232601199E+00  0.51100000000E-03 0.  1.
</event>
<event>
 8    1  0.1075206E+005  0.1043930E+01  0.7957747E-01            NaN
         13   -1    0    0    0    0  0.00000000000E+00  0.00000000000E+00  0.74505805969E-08  0.10566000000E+00  0.10566000000E+00 0.  1.
     999900   -1    0    0    0    0 -0.00000000000E+00 -0.00000000000E+00 -0.74505805969E-08  0.93827000000E+00  0.93827000000E+00 0. -1.
     999902    2    1    2    0    0  0.21030652995E-01  0.83153733016E-02  0.58292853446E-02  0.10205758919E+01  0.10203086478E+01 0.  0.
     999903    2    3    3    0    0  0.10708464938E+00  0.74741328551E-01  0.22177669355E-01  0.13373601485E+00  0.18441375341E-01 0.  0.
         14    1    1    2    0    0 -0.21030652995E-01 -0.83153733016E-02 -0.58292853446E-02  0.23354108122E-01  0.00000000000E+00 0. -1.
     999901    1    3    3    0    0 -0.86053996383E-01 -0.66425955250E-01 -0.16348384010E-01  0.88683987703E+00  0.88000000000E+00 0. -1.
        -11    1    4    4    0    0  0.71759035551E-01  0.51594493852E-01  0.23584575299E-01  0.91475921925E-01  0.51100000000E-03 0.  1.
         11    1    4    4    0    0  0.35325613827E-01  0.23146834699E-01 -0.14069059436E-02  0.42260092927E-01  0.51100000000E-03 0. -1.
</event>
<event>
 7    1  0.1382871E+005  0.1043930E+01  0.7957747E-01            NaN
         13   -1    0    0    0    0  0.00000000000E+00  0.00000000000E+00  0.74505805969E-08  0.10566000000E+00  0.10566000000E+00 0.  1.
     999900   -1    0    0    0    0 -0.00000000000E+00 -0.00000000000E+00 -0.74505805969E-08  0.93827000000E+00  0.93827000000E+00 0. -1.
     999903    2    1    2    0    0  0.56721198338E-01  0.76289309145E-01  0.43054308727E-01  0.10623746826E+00  0.19883991833E-01 0.  0.
         14    1    1    2    0    0 -0.31213134806E-01  0.17107183403E-01 -0.38415552721E-01  0.52370508870E-01  0.00000000000E+00 0. -1.
     999901    1    1    2    0    0 -0.25508063533E-01 -0.93396492548E-01 -0.46387560054E-02  0.88532202287E+00  0.88000000000E+00 0.  1.
        -11    1    3    3    0    0  0.19918498225E-01  0.27449584601E-01  0.26032118600E-01  0.42756971200E-01  0.51100000000E-03 0.  1.
         11    1    3    3    0    0  0.36802700113E-01  0.48839724544E-01  0.17022190126E-01  0.63480497058E-01  0.51100000000E-03 0. -1.
</event>
<event>
 8    1  0.1075206E+005  0.1043930E+01  0.7957747E-01            NaN
         13   -1    0    0    0    0  0.00000000000E+00  0.00000000000E+00  0.74505805969E-08  0.10566000000E+00  0.10566000000E+00 0.  1.
     999900   -1    0    0    0    0 -0.00000000000E+00 -0.00000000000E+00 -0.74505805969E-08  0.93827000000E+00  0.93827000000E+00 0. -1.
     999902    2    1    2    0    0  0.74362727463E-02 -0.22330267925E-01  0.56350805130E-02  0.10197289019E+01  0.10194416806E+01 0.  0.
     999903    2    3    3    0    0 -0.11353340353E+00 -0.56178431142E-01  0.25083326451E-01  0.13059584378E+00  0.19500033403E-01 0.  0.
         14    1    1    2    0    0 -0.74362727463E-02  0.22330267925E-01 -0.56350805130E-02  0.24201098123E-01  0.00000000000E+00 0. -1.
     999901    1    3    3    0    0  0.12096967628E+00  0.33848163217E-01 -0.19448245938E-01  0.88913305810E+00  0.88000000000E+00 0. -1.
        -11    1    4    4    0    0 -0.96150068797E-01 -0.47974143337E-01  0.13897726106E-01  0.10835018260E+00  0.51100000000E-03 0. -1.
         11    1    4    4    0    0 -0.17383334738E-01 -0.82042878052E-02  0.11185600345E-01  0.22245661174E-01  0.51100000000E-03 0.  1.
</event>
<event>
 8    1  0.1075206E+005  0.1043930E+01  0.7957747E-01            NaN
         13   -1    0    0    0    0  0.00000000000E+00  0.00000000000E+00  0.74505805969E-08  0.10566000000E+00  0.10566000000E+00 0. -1.
     999900   -1    0    0    0    0 -0.00000000000E+00 -0.00000000000E+00 -0.74505805969E-08  0.93827000000E+00  0.93827000000E+00 0. -1.
     999902    2    1    2    0    0 -0.21496022381E-01  0.49607680647E-02  0.29699685889E-02  0.10216699705E+01  0.10214274423E+01 0.  0.
     999903    2    3    3    0    0  0.90797151410E-01  0.67963368962E-01  0.61340184646E-01  0.13038653262E+00  0.19362009464E-01 0.  0.
         14    1    1    2    0    0  0.21496022381E-01 -0.49607680647E-02 -0.29699685889E-02  0.22260029457E-01  0.00000000000E+00 0.  1.
     999901    1    3    3    0    0 -0.11229317379E+00 -0.63002600898E-01 -0.58370216057E-01  0.89128343793E+00  0.88000000000E+00 0.  1.
        -11    1    4    4    0    0  0.36599504086E-01  0.31194887248E-01  0.36356067402E-01  0.60288219809E-01  0.51100000000E-03 0. -1.
         11    1    4    4    0    0  0.54197647324E-01  0.36768481714E-01  0.24984117243E-01  0.70098312807E-01  0.51100000000E-03 0.  1.
</event>
<event>
 8    1  0.1075206E+005  0.1043930E+01  0.7957747E-01            NaN
         13   -1    0    0    0    0  0.00000000000E+00  0.00000000000E+00  0.74505805969E-08  0.10566000000E+00  0.10566000000E+00 0. -1.
     999900   -1    0    0    0    0 -0.00000000000E+00 -0.00000000000E+00 -0.74505805969E-08  0.93827000000E+00  0.93827000000E+00 0. -1.
     999902    2    1    2    0    0  0.10835192362E-01  0.20903188930E-01  0.25372391758E-02  0.10202491579E+01  0.10199742947E+01 0.  0.
     999903    2    3    3    0    0 -0.46470863593E-01  0.24974396639E-01 -0.11733983169E+00  0.13026541033E+00  0.20424969435E-01 0.  0.
         14    1    1    2    0    0 -0.10835192362E-01 -0.20903188930E-01 -0.25372391758E-02  0.23680842122E-01  0.00000000000E+00 0.  1.
     999901    1    3    3    0    0  0.57306055955E-01 -0.40712077093E-02  0.11987707087E+00  0.88998374755E+00  0.88000000000E+00 0.  1.
        -11    1    4    4    0    0 -0.31819707185E-01  0.15120729491E-01 -0.97658244339E-01  0.10381967075E+00  0.51100000000E-03 0.  1.
         11    1    4    4    0    0 -0.14651156408E-01  0.98536671476E-02 -0.19681587352E-01  0.26445739583E-01  0.51100000000E-03 0. -1.
</event>
<event>
 8    1  0.1075206E+005  0.1043930E+01  0.7957747E-01            NaN
         13   -1    0    0    0    0  0.00000000000E+00  0.00000000000E+00  0.74505805969E-08  0.10566000000E+00  0.10566000000E+00 0. -1.
     999900   -1    0    0    0    0 -0.00000000000E+00 -0.00000000000E+00 -0.74505805969E-08  0.93827000000E+00  0.93827000000E+00 0. -1.
     999902    2    1    2    0    0  0.24631619948E-01  0.59809349134E-02  0.59613885678E-02  0.10178910592E+01  0.10175579502E+01 0.  0.
     999903    2    3    3    0    0 -0.26785592502E-01  0.11771778799E+00  0.39915720914E-01  0.12868818542E+00  0.19810066054E-01 0.  0.
         14    1    1    2    0    0 -0.24631619948E-01 -0.59809349134E-02 -0.59613885678E-02  0.26038940788E-01  0.00000000000E+00 0.  1.
     999901    1    3    3    0    0  0.51417212450E-01 -0.11173685307E+00 -0.33954332346E-01  0.88920287379E+00  0.88000000000E+00 0. -1.
        -11    1    4    4    0    0 -0.24205367877E-01  0.62880929759E-01  0.19979234593E-01  0.70280453167E-01  0.51100000000E-03 0.  1.
         11    1    4    4    0    0 -0.25802246249E-02  0.54836858228E-01  0.19936486321E-01  0.58407732256E-01  0.51100000000E-03 0. -1.
</event>
<event>
 8    1  0.1075206E+005  0.1043930E+01  0.7957747E-01            NaN
         13   -1    0    0    0    0  0.00000000000E+00  0.00000000000E+00  0.74505805969E-08  0.10566000000E+00  0.10566000000E+00 0. -1.
     999900   -1    0    0    0    0 -0.00000000000E+00 -0.00000000000E+00 -0.74505805969E-08  0.93827000000E+00  0.93827000000E+00 0. -1.
     999902    2    1    2    0    0  0.11070785791E-02  0.17060852746E-01  0.14719785236E-01  0.10213696277E+01  0.10211204366E+01 0.  0.
     999903    2    3    3    0    0  0.87684466389E-03  0.13115524845E+00 -0.15634373240E-01  0.13348508621E+00  0.19270873367E-01 0.  0.
         14    1    1    2    0    0 -0.11070785791E-02 -0.17060852746E-01 -0.14719785236E-01  0.22560372267E-01  0.00000000000E+00 0. -1.
     999901    1    3    3    0    0  0.23023391517E-03 -0.11409439571E+00  0.30354158476E-01  0.88788454152E+00  0.88000000000E+00 0.  1.
        -11    1    4    4    0    0  0.92194477074E-02  0.44464613031E-01 -0.34468897239E-02  0.45543849176E-01  0.51100000000E-03 0.  1.
         11    1    4    4    0    0 -0.83426030436E-02  0.86690635423E-01 -0.12187483516E-01  0.87941237034E-01  0.51100000000E-03 0. -1.
</event>
<event>
 8    1  0.1075206E+005  0.1043930E+01  0.7957747E-01            NaN
         13   -1    0    0    0    0  0.00000000000E+00  0.00000000000E+00  0.74505805969E-08  0.10566000000E+00  0.10566000000E+00 0.  1.
     999900   -1    0    0    0    0 -0.00000000000E+00 -0.00000000000E+00 -0.74505805969E-08  0.93827000000E+00  0.93827000000E+00 0.  1.
     999902    2    1    2    0    0 -0.18060574523E-01  0.21540989828E-02  0.13846771084E-01  0.10210704820E+01  0.10208145628E+01 0.  0.
     999903    2    3    3    0    0  0.17556885602E-01  0.12850325994E+00  0.40992863124E-02  0.13127964847E+00  0.19905022139E-01 0.  0.
         14    1    1    2    0    0  0.18060574523E-01 -0.21540989828E-02 -0.13846771084E-01  0.22859518017E-01  0.00000000000E+00 0. -1.
     999901    1    3    3    0    0 -0.35617460125E-01 -0.12634916096E+00  0.97474847713E-02  0.88979083351E+00  0.88000000000E+00 0. -1.
        -11    1    4    4    0    0  0.94303142613E-02  0.11477587155E+00  0.51995668550E-02  0.11528108316E+00  0.51100000000E-03 0. -1.
         11    1    4    4    0    0  0.81265713408E-02  0.13727388389E-01 -0.11002805427E-02  0.15998565311E-01  0.51100000000E-03 0.  1.
</event>
<event>
 8    1  0.1075206E+005  0.1043930E+01  0.7957747E-01            NaN
         13   -1    0    0    0    0  0.00000000000E+00  0.00000000000E+00  0.74505805969E-08  0.10566000000E+00  0.10566000000E+00 0.  1.
     999900   -1    0    0    0    0 -0.00000000000E+00 -0.00000000000E+00 -0.74505805969E-08  0.93827000000E+00  0.93827000000E+00 0.  1.
     999902    2    1    2    0    0 -0.14907646111E-01 -0.16189432993E-01 -0.11858397632E-01  0.10189308551E+01  0.10186241359E+01 0.  0.
     999903    2    3    3    0    0 -0.32462891621E-01  0.10654224344E+00 -0.63218365768E-01  0.12875722179E+00  0.13295541481E-01 0.  0.
         14    1    1    2    0    0  0.14907646111E-01  0.16189432993E-01  0.11858397632E-01  0.24999144938E-01  0.00000000000E+00 0. -1.
     999901    1    3    3    0    0  0.17555245510E-01 -0.12273167643E+00  0.51359968136E-01  0.89017363327E+00  0.88000000000E+00 0. -1.
        -11    1    4    4    0    0 -0.37869894924E-02  0.23422274203E-01 -0.18619118970E-01  0.30164166332E-01  0.51100000000E-03 0.  1.
         11    1    4    4    0    0 -0.28675902129E-01  0.83119969236E-01 -0.44599246798E-01  0.98593055459E-01  0.51100000000E-03 0. -1.
</event>
<event>
 8    1  0.1075206E+005  0.1043930E+01  0.7957747E-01            NaN
         13   -1    0    0    0    0  0.00000000000E+00  0.00000000000E+00  0.74505805969E-08  0.10566000000E+00  0.10566000000E+00 0. -1.
     999900   -1    0    0    0    0 -0.00000000000E+00 -0.00000000000E+00 -0.74505805969E-08  0.93827000000E+00  0.93827000000E+00 0.  1.
     999902    2    1    2    0    0  0.15558802865E-01 -0.91469732693E-02  0.15042431914E-01  0.10204349319E+01  0.10201644142E+01 0.  0.
     999903    2    3    3    0    0 -0.53982938467E-01 -0.11755799989E+00  0.53841283869E-02  0.13100686438E+00  0.19994216507E-01 0.  0.
         14    1    1    2    0    0 -0.15558802865E-01  0.91469732693E-02 -0.15042431914E-01  0.23495068088E-01  0.00000000000E+00 0.  1.
     999901    1    3    3    0    0  0.69541741332E-01  0.10841102662E+00  0.96583035270E-02  0.88942806753E+00  0.88000000000E+00 0. -1.
        -11    1    4    4    0    0 -0.29043150802E-01 -0.54194717266E-01 -0.66782611236E-02  0.61850079068E-01  0.51100000000E-03 0. -1.
         11    1    4    4    0    0 -0.24939787665E-01 -0.63363282623E-01  0.12062389510E-01  0.69156785316E-01  0.51100000000E-03 0.  1.
</event>
<event>
 8    1  0.1075206E+005  0.1043930E+01  0.7957747E-01            NaN
         13   -1    0    0    0    0  0.00000000000E+00  0.00000000000E+00  0.74505805969E-08  0.10566000000E+00  0.10566000000E+00 0.  1.
     999900   -1    0    0    0    0 -0.00000000000E+00 -0.00000000000E+00 -0.74505805969E-08  0.93827000000E+00  0.93827000000E+00 0.  1.
     999902    2    1    2    0    0 -0.65771915622E-03 -0.18152062298E-01  0.16902862323E-01  0.10191179724E+01  0.10188158837E+01 0.  0.
     999903    2    3    3    0    0 -0.16621171535E-01  0.11884235789E+00 -0.35363073990E-01  0.12684333356E+00  0.20950295823E-01 0.  0.
         14    1    1    2    0    0  0.65771915622E-03  0.18152062298E-01 -0.16902862323E-01  0.24812027625E-01  0.00000000000E+00 0. -1.
     999901    1    3    3    0    0  0.15963452379E-01 -0.13699442019E+00  0.52265936312E-01  0.89227463882E+00  0.88000000000E+00 0.  1.
        -11    1    4    4    0    0 -0.14776462106E-01  0.96825864951E-01 -0.36952109759E-01  0.10468673026E+00  0.51100000000E-03 0.  1.
         11    1    4    4    0    0 -0.18447094284E-02  0.22016492937E-01  0.15890357694E-02  0.22156603301E-01  0.51100000000E-03 0. -1.
</event>
<event>
 8    1  0.1075206E+005  0.1043930E+01  0.7957747E-01            NaN
         13   -1    0    0    0    0  0.00000000000E+00  0.00000000000E+00  0.74505805969E-08  0.10566000000E+00  0.10566000000E+00 0. -1.
     999900   -1    0    0    0    0 -0.00000000000E+00 -0.00000000000E+00 -0.74505805969E-08  0.93827000000E+00  0.93827000000E+00 0.  1.
     999902    2    1    2    0    0 -0.20267478565E-01  0.99266653189E-02  0.74699444504E-02  0.10201579693E+01  0.10198809602E+01 0.  0.
     999903    2    3    3    0    0 -0.41255655321E-01  0.12394082866E+00 -0.92906257679E-02  0.13239637425E+00  0.19471160223E-01 0.  0.
         14    1    1    2    0    0  0.20267478565E-01 -0.99266653189E-02 -0.74699444504E-02  0.23772030663E-01  0.00000000000E+00 0.  1.
     999901    1    3    3    0    0  0.20988176756E-01 -0.11401416334E+00  0.16760570218E-01  0.88776159509E+00  0.88000000000E+00 0.  1.
        -11    1    4    4    0    0 -0.14296550687E-01  0.69634865718E-01 -0.98080379603E-02  0.71762557192E-01  0.51100000000E-03 0.  1.
         11    1    4    4    0    0 -0.26959104633E-01  0.54305962946E-01  0.51741219239E-03  0.60633817054E-01  0.51100000000E-03 0. -1.
</event>
<event>
 7    1  0.1075206E+005  0.1043930E+01  0.7957747E-01            NaN
         13   -1    0    0    0    0  0.00000000000E+00  0.00000000000E+00  0.74505805969E-08  0.10566000000E+00  0.10566000000E+00 0.  1.
     999900   -1    0    0    0    0 -0.00000000000E+00 -0.00000000000E+00 -0.74505805969E-08  0.93827000000E+00  0.93827000000E+00 0. -1.
     999903    2    1    2    0    0 -0.10963951813E+00 -0.88383244009E-01  0.25633665064E-01  0.14465218088E+00  0.20850584888E-01 0.  0.
         14    1    1    2    0    0  0.18594297871E-02 -0.56805222259E-02 -0.44894623914E-02  0.74753651721E-02  0.00000000000E+00 0. -1.
     999901    1    1    2    0    0  0.10778008835E+00  0.94063766235E-01 -0.21144202672E-01  0.89180245395E+00  0.88000000000E+00 0. -1.
        -11    1    3    3    0    0 -0.53989014746E-01 -0.31607583382E-01  0.15931149580E-01  0.64559396592E-01  0.51100000000E-03 0. -1.
         11    1    3    3    0    0 -0.55650503389E-01 -0.56775660627E-01  0.97025154837E-02  0.80092784287E-01  0.51100000000E-03 0.  1.
</event>
<event>
 8    1  0.1075206E+005  0.1043930E+01  0.7957747E-01            NaN
         13   -1    0    0    0    0  0.00000000000E+00  0.00000000000E+00  0.74505805969E-08  0.10566000000E+00  0.10566000000E+00 0.  1.
     999900   -1    0    0    0    0 -0.00000000000E+00 -0.00000000000E+00 -0.74505805969E-08  0.93827000000E+00  0.93827000000E+00 0. -1.
     999902    2    1    2    0    0  0.20222311870E-01  0.93979228675E-02  0.66346520974E-02  0.10206645436E+01  0.10203993479E+01 0.  0.
     999903    2    3    3    0    0  0.95550700265E-01 -0.80997909633E-01  0.37591705209E-01  0.13229293683E+00  0.19942094896E-01 0.  0.
         14    1    1    2    0    0 -0.20222311870E-01 -0.93979228675E-02 -0.66346520974E-02  0.23265456369E-01  0.00000000000E+00 0. -1.
     999901    1    3    3    0    0 -0.75328388394E-01  0.90395832501E-01 -0.30957053112E-01  0.88837160680E+00  0.88000000000E+00 0. -1.
        -11    1    4    4    0    0  0.85779333813E-01 -0.63999387813E-01  0.29028262444E-01  0.11089146447E+00  0.51100000000E-03 0. -1.
         11    1    4    4    0    0  0.97713664513E-02 -0.16998521820E-01  0.85634427655E-02  0.21401472365E-01  0.51100000000E-03 0.  1.
</event>
<event>
 8    1  0.1075206E+005  0.1043930E+01  0.7957747E-01            NaN
         13   -1    0    0    0    0  0.00000000000E+00  0.00000000000E+00  0.74505805969E-08  0.10566000000E+00  0.10566000000E+00 0.  1.
     999900   -1    0    0    0    0 -0.00000000000E+00 -0.00000000000E+00 -0.74505805969E-08  0.93827000000E+00  0.93827000000E+00 0.  1.
     999902    2    1    2    0    0 -0.12090644512E-01  0.98701946821E-02 -0.18248250489E-01  0.10199174393E+01  0.10196347286E+01 0.  0.
     999903    2    3    3    0    0  0.26903466798E-01  0.64361090793E-01  0.10629087239E+00  0.12862635795E+00  0.19515221555E-01 0.  0.
         14    1    1    2    0    0  0.12090644512E-01 -0.98701946821E-02  0.18248250489E-01  0.24012560748E-01  0.00000000000E+00 0.  1.
     999901    1    3    3    0    0 -0.38994111310E-01 -0.54490896111E-01 -0.12453912288E+00  0.89129108130E+00  0.88000000000E+00 0.  1.
        -11    1    4    4    0    0  0.28382633669E-01  0.50591087155E-01  0.78923340580E-01  0.97949919872E-01  0.51100000000E-03 0. -1.
         11    1    4    4    0    0 -0.14791668715E-02  0.13770003637E-01  0.27367531813E-01  0.30676438081E-01  0.51100000000E-03 0.  1.
</event>
<event>
 8    1  0.1075206E+005  0.1043930E+01  0.7957747E-01            NaN
         13   -1    0    0    0    0  0.00000000000E+00  0.00000000000E+00  0.74505805969E-08  0.10566000000E+00  0.10566000000E+00 0.  1.
     999900   -1    0    0    0    0 -0.00000000000E+00 -0.00000000000E+00 -0.74505805969E-08  0.93827000000E+00  0.93827000000E+00 0. -1.
     999902    2    1    2    0    0  0.21271788014E-01  0.95019112059E-02 -0.56706900171E-02  0.10199522602E+01  0.10196703786E+01 0.  0.
     999903    2    3    3    0    0 -0.37547813537E-01  0.99496933562E-01 -0.74301197608E-01  0.13075655835E+00  0.16344157830E-01 0.  0.
         14    1    1    2    0    0 -0.21271788014E-01 -0.95019112059E-02  0.56706900171E-02  0.23977739825E-01  0.00000000000E+00 0. -1.
     999901    1    3    3    0    0  0.58819601551E-01 -0.89995022357E-01  0.68630507591E-01  0.88919570183E+00  0.88000000000E+00 0.  1.
        -11    1    4    4    0    0 -0.36383902595E-01  0.86417130093E-01 -0.59923686092E-01  0.11127811113E+00  0.51100000000E-03 0.  1.
         11    1    4    4    0    0 -0.11639109420E-02  0.13079803469E-01 -0.14377511516E-01  0.19478447214E-01  0.51100000000E-03 0. -1.
</event>
<event>
 8    1  0.1075206E+005  0.1043930E+01  0.7957747E-01            NaN
         13   -1    0    0    0    0  0.00000000000E+00  0.00000000000E+00  0.74505805969E-08  0.10566000000E+00  0.10566000000E+00 0.  1.
     999900   -1    0    0    0    0 -0.00000000000E+00 -0.00000000000E+00 -0.74505805969E-08  0.93827000000E+00  0.93827000000E+00 0.  1.
     999902    2    1    2    0    0 -0.12745064948E-01 -0.59788229722E-02 -0.18669171614E-01  0.10205479348E+01  0.10202800430E+01 0.  0.
     999903    2    3    3    0    0  0.65161177230E-02  0.11796541081E+00 -0.52639650312E-01  0.13100470388E+00  0.20808693271E-01 0.  0.
         14    1    1    2    0    0  0.12745064948E-01  0.59788229722E-02  0.18669171614E-01  0.23382065208E-01  0.00000000000E+00 0.  1.
     999901    1    3    3    0    0 -0.19261182671E-01 -0.12394423378E+00  0.33970478698E-01  0.88954323092E+00  0.88000000000E+00 0. -1.
        -11    1    4    4    0    0  0.20249649372E-02  0.96455915228E-01 -0.50568956066E-01  0.10892807032E+00  0.51100000000E-03 0. -1.
         11    1    4    4    0    0  0.44911527859E-02  0.21509495579E-01 -0.20706942451E-02  0.22076633554E-01  0.51100000000E-03 0.  1.
</event>
<event>
 8    1  0.1075206E+005  0.1043930E+01  0.7957747E-01            NaN
         13   -1    0    0    0    0  0.00000000000E+00  0.00000000000E+00  0.74505805969E-08  0.10566000000E+00  0.10566000000E+00 0. -1.
     999900   -1    0    0    0    0 -0.00000000000E+00 -0.00000000000E+00 -0.74505805969E-08  0.93827000000E+00  0.93827000000E+00 0. -1.
     999902    2    1    2    0    0  0.51632886319E-02 -0.14745633614E-01 -0.19104453234E-01  0.10192505877E+01  0.10189517589E+01 0.  0.
     999903    2    3    3    0    0  0.29166401520E-01 -0.94206096448E-01 -0.86481001801E-01  0.13278021936E+00  0.20643531527E-01 0.  0.
         14    1    1    2    0    0 -0.51632886319E-02  0.14745633614E-01  0.19104453234E-01  0.24679412342E-01  0.00000000000E+00 0. -1.
     999901    1    3    3    0    0 -0.24003112888E-01  0.79460462833E-01  0.67376548567E-01  0.88647036830E+00  0.88000000000E+00 0.  1.
        -11    1    4    4    0    0  0.23891212884E-01 -0.55148143420E-01 -0.62157519735E-01  0.86463438264E-01  0.51100000000E-03 0. -1.
         11    1    4    4    0    0  0.52751886364E-02 -0.39057953028E-01 -0.24323482066E-01  0.46316781091E-01  0.51100000000E-03 0.  1.
</event>
<event>
 8    1  0.1075206E+005  0.1043930E+01  0.7957747E-01            NaN
         13   -1    0    0    0    0  0.00000000000E+00  0.00000000000E+00  0.74505805969E-08  0.10566000000E+00  0.10566000000E+00 0.  1.
     999900   -1    0    0    0    0 -0.00000000000E+00 -0.00000000000E+00 -0.74505805969E-08  0.93827000000E+00  0.93827000000E+00 0.  1.
     999902    2    1    2    0    0  0.11316389294E-01  0.91014131836E-02  0.18485996903E-01  0.10204219488E+01  0.10201511286E+01 0.  0.
     999903    2    3    3    0    0  0.52258179358E-01  0.10277771206E+00  0.63791087398E-01  0.13334583576E+00  0.20436087634E-01 0.  0.
         14    1    1    2    0    0 -0.11316389294E-01 -0.91014131836E-02 -0.18485996903E-01  0.23508051176E-01  0.00000000000E+00 0.  1.
     999901    1    3    3    0    0 -0.40941790064E-01 -0.93676298873E-01 -0.45305090495E-01  0.88707611306E+00  0.88000000000E+00 0.  1.
        -11    1    4    4    0    0  0.17461459725E-01  0.56306475307E-01  0.34695451900E-01  0.68405827535E-01  0.51100000000E-03 0. -1.
         11    1    4    4    0    0  0.34796719633E-01  0.46471236750E-01  0.29095635498E-01  0.64940008226E-01  0.51100000000E-03 0.  1.
</event>
<event>
 8    1  0.1075206E+005  0.1043930E+01  0.7957747E-01            NaN
         13   -1    0    0    0    0  0.00000000000E+00  0.00000000000E+00  0.74505805969E-08  0.10566000000E+00  0.10566000000E+00 0. -1.
     999900   -1    0    0    0    0 -0.00000000000E+00 -0.00000000000E+00 -0.74505805969E-08  0.93827000000E+00  0.93827000000E+00 0. -1.
     999902    2    1    2    0    0  0.10535089552E-01 -0.20716302050E-01  0.13513248698E-01  0.10170457821E+01  0.10166903962E+01 0.  0.
     999903    2    3    3    0    0 -0.97490926623E-01  0.54688986482E-01 -0.51618772960E-01  0.12485871765E+00  0.20732477758E-01 0.  0.
         14    1    1    2    0    0 -0.10535089552E-01  0.20716302050E-01 -0.13513248698E-01  0.26884217914E-01  0.00000000000E+00 0.  1.
     999901    1    3    3    0    0  0.10802601617E+00 -0.75405288532E-01  0.65132021658E-01  0.89218706444E+00  0.88000000000E+00 0.  1.
        -11    1    4    4    0    0 -0.11692738982E-01  0.96458225747E-02 -0.22282331267E-03  0.15168151149E-01  0.51100000000E-03 0.  1.
         11    1    4    4    0    0 -0.85798187641E-01  0.45043163907E-01 -0.51395949648E-01  0.10969056650E+00  0.51100000000E-03 0. -1.
</event>
<event>
 8    1  0.1119890E+005  0.1043930E+01  0.7957747E-01            NaN
         13   -1    0    0    0    0  0.00000000000E+00  0.00000000000E+00  0.74505805969E-08  0.10566000000E+00  0.10566000000E+00 0.  1.
     999900   -1    0    0    0    0 -0.00000000000E+00 -0.00000000000E+00 -0.74505805969E-08  0.93827000000E+00  0.93827000000E+00 0. -1.
     999902    2    1    2    0    0 -0.20705179916E-02  0.24119787087E-01 -0.38043383657E-02  0.10194244054E+01  0.10191298221E+01 0.  0.
     999903    2    3    3    0    0 -0.16782526444E-01  0.56898375744E-01  0.11476828351E+00  0.13074541632E+00  0.20087972290E-01 0.  0.
         14    1    1    2    0    0  0.20705179916E-02 -0.24119787087E-01  0.38043383657E-02  0.24505594550E-01  0.00000000000E+00 0.  1.
     999901    1    3    3    0    0  0.14712008453E-01 -0.32778588657E-01 -0.11857262188E+00  0.88867898913E+00  0.88000000000E+00 0. -1.
        -11    1    4    4    0    0 -0.34333922767E-04  0.30029775184E-01  0.67140122792E-01  0.73551653863E-01  0.51100000000E-03 0.  1.
         11    1    4    4    0    0 -0.16748192522E-01  0.26868600560E-01  0.47628160723E-01  0.57193762454E-01  0.51100000000E-03 0. -1.
</event>
<event>
 7    1  0.1075206E+005  0.1043930E+01  0.7957747E-01            NaN
         13   -1    0    0    0    0  0.00000000000E+00  0.00000000000E+00  0.74505805969E-08  0.10566000000E+00  0.10566000000E+00 0.  1.
     999900   -1    0    0    0    0 -0.00000000000E+00 -0.00000000000E+00 -0.74505805969E-08  0.93827000000E+00  0.93827000000E+00 0.  1.
     999903    2    1    2    0    0 -0.60175990510E-01  0.54764344441E-04 -0.44071146639E-01  0.76820570373E-01  0.18384265915E-01 0.  0.
         14    1    1    2    0    0  0.38649590152E-01  0.31086882768E-01 -0.62590588742E-01  0.79860922223E-01  0.00000000000E+00 0.  1.
     999901    1    1    2    0    0  0.21526400358E-01 -0.31141647112E-01  0.10666173538E+00  0.88724850740E+00  0.88000000000E+00 0. -1.
        -11    1    3    3    0    0 -0.10653412242E-01  0.28721454118E-03 -0.22074700310E-03  0.10671810289E-01  0.51100000000E-03 0. -1.
         11    1    3    3    0    0 -0.49522578268E-01 -0.23245019674E-03 -0.43850399636E-01  0.66148760084E-01  0.51100000000E-03 0.  1.
</event>
<event>
 8    1  0.1075206E+005  0.1043930E+01  0.7957747E-01            NaN
         13   -1    0    0    0    0  0.00000000000E+00  0.00000000000E+00  0.74505805969E-08  0.10566000000E+00  0.10566000000E+00 0.  1.
     999900   -1    0    0    0    0 -0.00000000000E+00 -0.00000000000E+00 -0.74505805969E-08  0.93827000000E+00  0.93827000000E+00 0.  1.
     999902    2    1    2    0    0  0.12938632188E-01 -0.24898180260E-01 -0.58025891731E-02  0.10152769439E+01  0.10148725413E+01 0.  0.
     999903    2    3    3    0    0  0.29360136766E-01  0.11062839950E+00  0.41986430760E-01  0.12346927962E+00  0.19522864438E-01 0.  0.
         14    1    1    2    0    0 -0.12938632188E-01  0.24898180260E-01  0.58025891731E-02  0.28653056107E-01  0.00000000000E+00 0. -1.
     999901    1    3    3    0    0 -0.16421504578E-01 -0.13552657975E+00 -0.47789019933E-01  0.89180766427E+00  0.88000000000E+00 0.  1.
        -11    1    4    4    0    0  0.26953028955E-01  0.98022912874E-01  0.43419320786E-01  0.11054617025E+00  0.51100000000E-03 0. -1.
         11    1    4    4    0    0  0.24071078110E-02  0.12605486622E-01 -0.14328900256E-02  0.12923109371E-01  0.51100000000E-03 0.  1.
</event>
<event>
 8    1  0.1075206E+005  0.1043930E+01  0.7957747E-01            NaN
         13   -1    0    0    0    0  0.00000000000E+00  0.00000000000E+00  0.74505805969E-08  0.10566000000E+00  0.10566000000E+00 0.  1.
     999900   -1    0    0    0    0 -0.00000000000E+00 -0.00000000000E+00 -0.74505805969E-08  0.93827000000E+00  0.93827000000E+00 0. -1.
     999902    2    1    2    0    0 -0.23678308446E-01 -0.16162086981E-02  0.47110444294E-02  0.10197335465E+01  0.10194464368E+01 0.  0.
     999903    2    3    3    0    0 -0.12362003253E+00 -0.12247229942E-02 -0.43528304854E-01  0.13276368441E+00  0.21167668365E-01 0.  0.
         14    1    1    2    0    0  0.23678308446E-01  0.16162086981E-02 -0.47110444294E-02  0.24196453480E-01  0.00000000000E+00 0. -1.
     999901    1    3    3    0    0  0.99941724088E-01 -0.39148570390E-03  0.48239349283E-01  0.88696986211E+00  0.88000000000E+00 0. -1.
        -11    1    4    4    0    0 -0.68473778750E-01  0.98177862734E-02 -0.24653742208E-01  0.73437833774E-01  0.51100000000E-03 0. -1.
         11    1    4    4    0    0 -0.55146253785E-01 -0.11042509268E-01 -0.18874562646E-01  0.59325850634E-01  0.51100000000E-03 0.  1.
</event>
<event>
 7    1  0.1075206E+005  0.1043930E+01  0.7957747E-01            NaN
         13   -1    0    0    0    0  0.00000000000E+00  0.00000000000E+00  0.74505805969E-08  0.10566000000E+00  0.10566000000E+00 0. -1.
     999900   -1    0    0    0    0 -0.00000000000E+00 -0.00000000000E+00 -0.74505805969E-08  0.93827000000E+00  0.93827000000E+00 0.  1.
     999903    2    1    2    0    0  0.59574668524E-01  0.86478369811E-01  0.18560928065E-01  0.10872232596E+00  0.21175139585E-01 0.  0.
         14    1    1    2    0    0 -0.38376504260E-01  0.82262546117E-02 -0.30637123590E-01  0.49790166560E-01  0.00000000000E+00 0.  1.
     999901    1    1    2    0    0 -0.21198164264E-01 -0.94704624423E-01  0.12076195524E-01  0.88541750748E+00  0.88000000000E+00 0.  1.
        -11    1    3    3    0    0  0.12254111015E-01  0.13865172056E-01 -0.44668990671E-02  0.19042598069E-01  0.51100000000E-03 0.  1.
         11    1    3    3    0    0  0.47320557509E-01  0.72613197755E-01  0.23027827133E-01  0.89679727891E-01  0.51100000000E-03 0. -1.
</event>
<event>
 8    1  0.1075206E+005  0.1043930E+01  0.7957747E-01            NaN
         13   -1    0    0    0    0  0.00000000000E+00  0.00000000000E+00  0.74505805969E-08  0.10566000000E+00  0.10566000000E+00 0.  1.
     999900   -1    0    0    0    0 -0.00000000000E+00 -0.00000000000E+00 -0.74505805969E-08  0.93827000000E+00  0.93827000000E+00 0. -1.
     999902    2    1    2    0    0  0.12763690919E-01 -0.16773751441E-01  0.67157222664E-02  0.10218082580E+01  0.10215687665E+01 0.  0.
     999903    2    3    3    0    0 -0.11707697295E+00  0.50948260194E-01 -0.11793933719E-01  0.12951487788E+00  0.18228107619E-01 0.  0.
         14    1    1    2    0    0 -0.12763690919E-01  0.16773751441E-01 -0.67157222664E-02  0.22121741994E-01  0.00000000000E+00 0.  1.
     999901    1    3    3    0    0  0.12984066387E+00 -0.67722011635E-01  0.18509655986E-01  0.89229338013E+00  0.88000000000E+00 0.  1.
        -11    1    4    4    0    0 -0.28882239875E-01  0.10770112366E-01  0.47600829300E-02  0.31194528544E-01  0.51100000000E-03 0.  1.
         11    1    4    4    0    0 -0.88194733075E-01  0.40178147829E-01 -0.16554016649E-01  0.98320349335E-01  0.51100000000E-03 0. -1.
</event>
<event>
 8    1  0.1075206E+005  0.1043930E+01  0.7957747E-01            NaN
         13   -1    0    0    0    0  0.00000000000E+00  0.00000000000E+00  0.74505805969E-08  0.10566000000E+00  0.10566000000E+00 0.  1.
     999900   -1    0    0    0    0 -0.00000000000E+00 -0.00000000000E+00 -0.74505805969E-08  0.93827000000E+00  0.93827000000E+00 0.  1.
     999902    2    1    2    0    0  0.11212808781E-01  0.20514549138E-01 -0.44568353479E-03  0.10205468342E+01  0.10202789170E+01 0.  0.
     999903    2    3    3    0    0 -0.53689338047E-01  0.97795047780E-01  0.67737131300E-01  0.13215870939E+00  0.20765093815E-01 0.  0.
         14    1    1    2    0    0 -0.11212808781E-01 -0.20514549138E-01  0.44568353479E-03  0.23383165759E-01  0.00000000000E+00 0. -1.
     999901    1    3    3    0    0  0.64902146828E-01 -0.77280498642E-01 -0.68182814834E-01  0.88838812485E+00  0.88000000000E+00 0. -1.
        -11    1    4    4    0    0 -0.19683044310E-01  0.25713414326E-01  0.29295505191E-01  0.43670237634E-01  0.51100000000E-03 0.  1.
         11    1    4    4    0    0 -0.34006293737E-01  0.72081633454E-01  0.38441626108E-01  0.88488471758E-01  0.51100000000E-03 0. -1.
</event>
<event>
 8    1  0.1075206E+005  0.1043930E+01  0.7957747E-01            NaN
         13   -1    0    0    0    0  0.00000000000E+00  0.00000000000E+00  0.74505805969E-08  0.10566000000E+00  0.10566000000E+00 0. -1.
     999900   -1    0    0    0    0 -0.00000000000E+00 -0.00000000000E+00 -0.74505805969E-08  0.93827000000E+00  0.93827000000E+00 0.  1.
     999902    2    1    2    0    0  0.16752805656E-01  0.94854630104E-02 -0.12942578620E-01  0.10207321370E+01  0.10204684976E+01 0.  0.
     999903    2    3    3    0    0  0.64491136285E-01  0.33670457006E-02  0.11191980052E+00  0.13061585418E+00  0.19079202220E-01 0.  0.
         14    1    1    2    0    0 -0.16752805656E-01 -0.94854630104E-02  0.12942578620E-01  0.23197862988E-01  0.00000000000E+00 0. -1.
     999901    1    3    3    0    0 -0.47738330629E-01  0.61184173098E-02 -0.12486237914E+00  0.89011628283E+00  0.88000000000E+00 0.  1.
        -11    1    4    4    0    0  0.12643366005E-01  0.83867059783E-02  0.22914763468E-01  0.27487070541E-01  0.51100000000E-03 0.  1.
         11    1    4    4    0    0  0.51847770280E-01 -0.50196602777E-02  0.89005037055E-01  0.10312878364E+00  0.51100000000E-03 0. -1.
</event>
<event>
 8    1  0.1075206E+005  0.1043930E+01  0.7957747E-01            NaN
         13   -1    0    0    0    0  0.00000000000E+00  0.00000000000E+00  0.74505805969E-08  0.10566000000E+00  0.10566000000E+00 0.  1.
     999900   -1    0    0    0    0 -0.00000000000E+00 -0.00000000000E+00 -0.74505805969E-08  0.93827000000E+00  0.93827000000E+00 0. -1.
     999902    2    1    2    0    0  0.15477117881E-01  0.18538958233E-01  0.20166202260E-02  0.10196957080E+01  0.10194076888E+01 0.  0.
     999903    2    3    3    0    0 -0.28873290623E-01 -0.30139431645E-01  0.12073174974E+00  0.12928578763E+00  0.19915000286E-01 0.  0.
         14    1    1    2    0    0 -0.15477117881E-01 -0.18538958233E-01 -0.20166202260E-02  0.24234291972E-01  0.00000000000E+00 0. -1.
     999901    1    3    3    0    0  0.44350408503E-01  0.48678389879E-01 -0.11871512951E+00  0.89040992040E+00  0.88000000000E+00 0. -1.
        -11    1    4    4    0    0 -0.14506495881E-01 -0.28226635616E-01  0.82201459031E-01  0.88116527217E-01  0.51100000000E-03 0.  1.
         11    1    4    4    0    0 -0.14366794742E-01 -0.19127960298E-02  0.38530290705E-01  0.41169260409E-01  0.51100000000E-03 0. -1.
</event>
<event>
 8    1  0.1075206E+005  0.1043930E+01  0.7957747E-01            NaN
         13   -1    0    0    0    0  0.00000000000E+00  0.00000000000E+00  0.74505805969E-08  0.10566000000E+00  0.10566000000E+00 0.  1.
     999900   -1    0    0    0    0 -0.00000000000E+00 -0.00000000000E+00 -0.74505805969E-08  0.93827000000E+00  0.93827000000E+00 0. -1.
     999902    2    1    2    0    0  0.19147334437E-01  0.10973195131E-01  0.82191516854E-02  0.10203803528E+01  0.10201085621E+01 0.  0.
     999903    2    3    3    0    0  0.12029939849E+00 -0.55733102375E-02 -0.51314008553E-01  0.13243343771E+00  0.20061926302E-01 0.  0.
         14    1    1    2    0    0 -0.19147334437E-01 -0.10973195131E-01 -0.82191516854E-02  0.23549647171E-01  0.00000000000E+00 0.  1.
     999901    1    3    3    0    0 -0.10115206405E+00  0.16546505369E-01  0.59533160239E-01  0.88794691512E+00  0.88000000000E+00 0.  1.
        -11    1    4    4    0    0  0.57411766756E-01  0.65205049216E-02 -0.28682228255E-01  0.64510148699E-01  0.51100000000E-03 0.  1.
         11    1    4    4    0    0  0.62887631730E-01 -0.12093815159E-01 -0.22631780298E-01  0.67923289012E-01  0.51100000000E-03 0. -1.
</event>
<event>
 8    1  0.1075206E+005  0.1043930E+01  0.7957747E-01            NaN
         13   -1    0    0    0    0  0.00000000000E+00  0.00000000000E+00  0.74505805969E-08  0.10566000000E+00  0.10566000000E+00 0.  1.
     999900   -1    0    0    0    0 -0.00000000000E+00 -0.00000000000E+00 -0.74505805969E-08  0.93827000000E+00  0.93827000000E+00 0. -1.
     999902    2    1    2    0    0 -0.15473535723E-02 -0.19713355230E-01  0.14480257010E-01  0.10194210522E+01  0.10191263873E+01 0.  0.
     999903    2    3    3    0    0  0.25916347509E-01 -0.40054852232E-01  0.12180433416E+00  0.13224210246E+00  0.19381165810E-01 0.  0.
         14    1    1    2    0    0  0.15473535723E-02  0.19713355230E-01 -0.14480257010E-01  0.24508947766E-01  0.00000000000E+00 0. -1.
     999901    1    3    3    0    0 -0.27463701081E-01  0.20341497002E-01 -0.10732407715E+00  0.88717894977E+00  0.88000000000E+00 0. -1.
        -11    1    4    4    0    0  0.65322886452E-02 -0.26930044585E-01  0.73770285920E-01  0.78804912931E-01  0.51100000000E-03 0.  1.
         11    1    4    4    0    0  0.19384058864E-01 -0.13124807647E-01  0.48034048242E-01  0.53437189534E-01  0.51100000000E-03 0. -1.
</event>
<event>
 8    1  0.1075206E+005  0.1043930E+01  0.7957747E-01            NaN
         13   -1    0    0    0    0  0.00000000000E+00  0.00000000000E+00  0.74505805969E-08  0.10566000000E+00  0.10566000000E+00 0. -1.
     999900   -1    0    0    0    0 -0.00000000000E+00 -0.00000000000E+00 -0.74505805969E-08  0.93827000000E+00  0.93827000000E+00 0. -1.
     999902    2    1    2    0    0  0.21702843657E-01 -0.11525258520E-01 -0.30464278387E-03  0.10193548537E+01  0.10190585754E+01 0.  0.
     999903    2    3    3    0    0  0.56966951122E-01 -0.99467157668E-01  0.62323398875E-01  0.13205580240E+00  0.20385777515E-01 0.  0.
         14    1    1    2    0    0 -0.21702843657E-01  0.11525258520E-01  0.30464278387E-03  0.24575146266E-01  0.00000000000E+00 0. -1.
     999901    1    3    3    0    0 -0.35264107465E-01  0.87941899147E-01 -0.62628041659E-01  0.88729905134E+00  0.88000000000E+00 0. -1.
        -11    1    4    4    0    0  0.19592435415E-01 -0.18930962032E-01  0.10175480612E-01  0.29086876347E-01  0.51100000000E-03 0. -1.
         11    1    4    4    0    0  0.37374515707E-01 -0.80536195636E-01  0.52147918264E-01  0.10296892605E+00  0.51100000000E-03 0.  1.
</event>
<event>
 8    1  0.1075206E+005  0.1043930E+01  0.7957747E-01            NaN
         13   -1    0    0    0    0  0.00000000000E+00  0.00000000000E+00  0.74505805969E-08  0.10566000000E+00  0.10566000000E+00 0. -1.
     999900   -1    0    0    0    0 -0.00000000000E+00 -0.00000000000E+00 -0.74505805969E-08  0.93827000000E+00  0.93827000000E+00 0. -1.
     999902    2    1    2    0    0 -0.13781441051E-01  0.10658815964E-01 -0.16145360423E-01  0.10201768710E+01  0.10199003074E+01 0.  0.
     999903    2    3    3    0    0  0.76503772489E-02  0.67400946132E-01  0.10826356842E+00  0.12935894696E+00  0.20281052762E-01 0.  0.
         14    1    1    2    0    0  0.13781441051E-01 -0.10658815964E-01  0.16145360423E-01  0.23753129023E-01  0.00000000000E+00 0.  1.
     999901    1    3    3    0    0 -0.21431818300E-01 -0.56742130167E-01 -0.12440892884E+00  0.89081792402E+00  0.88000000000E+00 0. -1.
        -11    1    4    4    0    0  0.95874877083E-04  0.52016146578E-01  0.68151224443E-01  0.85735285681E-01  0.51100000000E-03 0. -1.
         11    1    4    4    0    0  0.75545023719E-02  0.15384799554E-01  0.40112343974E-01  0.43623661280E-01  0.51100000000E-03 0.  1.
</event>
<event>
 8    1  0.1075206E+005  0.1043930E+01  0.7957747E-01            NaN
         13   -1    0    0    0    0  0.00000000000E+00  0.00000000000E+00  0.74505805969E-08  0.10566000000E+00  0.10566000000E+00 0.  1.
     999900   -1    0    0    0    0 -0.00000000000E+00 -0.00000000000E+00 -0.74505805969E-08  0.93827000000E+00  0.93827000000E+00 0. -1.
     999902    2    1    2    0    0 -0.12578678882E-01  0.53362990066E-02  0.18652433482E-01  0.10208083105E+01  0.10205464195E+01 0.  0.
     999903    2    3    3    0    0  0.10811766013E+00 -0.85800945458E-02  0.70616806553E-01  0.13094227098E+00  0.19902223660E-01 0.  0.
         14    1    1    2    0    0  0.12578678882E-01 -0.53362990066E-02 -0.18652433482E-01  0.23121689478E-01  0.00000000000E+00 0. -1.
     999901    1    3    3    0    0 -0.12069633902E+00  0.13916393552E-01 -0.51964373071E-01  0.88986603954E+00  0.88000000000E+00 0. -1.
        -11    1    4    4    0    0  0.65079732912E-01  0.33765958061E-02  0.36181714200E-01  0.74539590813E-01  0.51100000000E-03 0.  1.
         11    1    4    4    0    0  0.43037927221E-01 -0.11956690352E-01  0.34435092353E-01  0.56402680167E-01  0.51100000000E-03 0. -1.
</event>
<event>
 8    1  0.1075206E+005  0.1043930E+01  0.7957747E-01            NaN
         13   -1    0    0    0    0  0.00000000000E+00  0.00000000000E+00  0.74505805969E-08  0.10566000000E+00  0.10566000000E+00 0. -1.
     999900   -1    0    0    0    0 -0.00000000000E+00 -0.00000000000E+00 -0.74505805969E-08  0.93827000000E+00  0.93827000000E+00 0. -1.
     999902    2    1    2    0    0 -0.17710889597E-01 -0.14259296863E-01 -0.13238852003E-03  0.10211919112E+01  0.10209387341E+01 0.  0.
     999903    2    3    3    0    0 -0.11258909710E+00 -0.33247714018E-01 -0.61108089667E-01  0.13379094746E+00  0.19598564417E-01 0.  0.
         14    1    1    2    0    0  0.17710889597E-01  0.14259296863E-01  0.13238852003E-03  0.22738088839E-01  0.00000000000E+00 0. -1.
     999901    1    3    3    0    0  0.94878207501E-01  0.18988417154E-01  0.60975701147E-01  0.88740096370E+00  0.88000000000E+00 0.  1.
        -11    1    4    4    0    0 -0.79339773556E-02 -0.41439075365E-02  0.36949275814E-03  0.89731606610E-02  0.51100000000E-03 0. -1.
         11    1    4    4    0    0 -0.10465511974E+00 -0.29103806481E-01 -0.61477582426E-01  0.12481778680E+00  0.51100000000E-03 0.  1.
</event>
<event>
 8    1  0.1075206E+005  0.1043930E+01  0.7957747E-01            NaN
         13   -1    0    0    0    0  0.00000000000E+00  0.00000000000E+00  0.74505805969E-08  0.10566000000E+00  0.10566000000E+00 0.  1.
     999900   -1    0    0    0    0 -0.00000000000E+00 -0.00000000000E+00 -0.74505805969E-08  0.93827000000E+00  0.93827000000E+00 0. -1.
     999902    2    1    2    0    0  0.20028622777E-01  0.11526309397E-01 -0.45311939976E-02  0.10203814702E+01  0.10201097056E+01 0.  0.
     999903    2    3    3    0    0 -0.40411417313E-01  0.12209679564E+00  0.15208127263E-01  0.13118606324E+00  0.20923333881E-01 0.  0.
         14    1    1    2    0    0 -0.20028622777E-01 -0.11526309397E-01  0.45311939976E-02  0.23548529841E-01  0.00000000000E+00 0. -1.
     999901    1    3    3    0    0  0.60440040090E-01 -0.11057048624E+00 -0.19739321261E-01  0.88919540691E+00  0.88000000000E+00 0. -1.
        -11    1    4    4    0    0 -0.12924185596E-01  0.52463151593E-01 -0.30755574229E-02  0.54121502408E-01  0.51100000000E-03 0.  1.
         11    1    4    4    0    0 -0.27487231717E-01  0.69633644044E-01  0.18283684686E-01  0.77064560837E-01  0.51100000000E-03 0. -1.
</event>
<event>
 8    1  0.1075206E+005  0.1043930E+01  0.7957747E-01            NaN
         13   -1    0    0    0    0  0.00000000000E+00  0.00000000000E+00  0.74505805969E-08  0.10566000000E+00  0.10566000000E+00 0. -1.
     999900   -1    0    0    0    0 -0.00000000000E+00 -0.00000000000E+00 -0.74505805969E-08  0.93827000000E+00  0.93827000000E+00 0. -1.
     999902    2    1    2    0    0  0.89227429727E-02 -0.21087367365E-01 -0.59998699294E-02  0.10202595365E+01  0.10199849170E+01 0.  0.
     999903    2    3    3    0    0 -0.75819628907E-01  0.61106657418E-01 -0.82045773276E-01  0.12912536772E+00  0.21429231608E-01 0.  0.
         14    1    1    2    0    0 -0.89227429727E-02  0.21087367365E-01  0.59998699294E-02  0.23670463530E-01  0.00000000000E+00 0.  1.
     999901    1    3    3    0    0  0.84742371880E-01 -0.82194024784E-01  0.76045903346E-01  0.89113416875E+00  0.88000000000E+00 0.  1.
        -11    1    4    4    0    0 -0.17234647712E-01  0.36237859939E-02 -0.15278737799E-01  0.23320931722E-01  0.51100000000E-03 0.  1.
         11    1    4    4    0    0 -0.58584981196E-01  0.57482871424E-01 -0.66767035477E-01  0.10580443600E+00  0.51100000000E-03 0. -1.
</event>
<event>
 8    1  0.1075206E+005  0.1043930E+01  0.7957747E-01            NaN
         13   -1    0    0    0    0  0.00000000000E+00  0.00000000000E+00  0.74505805969E-08  0.10566000000E+00  0.10566000000E+00 0. -1.
     999900   -1    0    0    0    0 -0.00000000000E+00 -0.00000000000E+00 -0.74505805969E-08  0.93827000000E+00  0.93827000000E+00 0. -1.
     999902    2    1    2    0    0 -0.23269332047E-02 -0.18420338990E-01  0.15956897991E-01  0.10194484539E+01  0.10191544554E+01 0.  0.
     999903    2    3    3    0    0  0.65232487805E-01  0.19566936240E-01  0.11018978162E+00  0.13103011504E+00  0.19722084447E-01 0.  0.
         14    1    1    2    0    0  0.23269332047E-02  0.18420338990E-01 -0.15956897991E-01  0.24481546114E-01  0.00000000000E+00 0.  1.
     999901    1    3    3    0    0 -0.67559421010E-01 -0.37987275230E-01 -0.94232883625E-01  0.88841833885E+00  0.88000000000E+00 0. -1.
        -11    1    4    4    0    0  0.24452722168E-01  0.11922448191E-01  0.28479569912E-01  0.39388163395E-01  0.51100000000E-03 0.  1.
         11    1    4    4    0    0  0.40779765637E-01  0.76444880489E-02  0.81710211704E-01  0.91641951642E-01  0.51100000000E-03 0. -1.
</event>
<event>
 8    1  0.1075206E+005  0.1043930E+01  0.7957747E-01            NaN
         13   -1    0    0    0    0  0.00000000000E+00  0.00000000000E+00  0.74505805969E-08  0.10566000000E+00  0.10566000000E+00 0. -1.
     999900   -1    0    0    0    0 -0.00000000000E+00 -0.00000000000E+00 -0.74505805969E-08  0.93827000000E+00  0.93827000000E+00 0.  1.
     999902    2    1    2    0    0 -0.15165976626E-01 -0.48294465143E-02 -0.16576959378E-01  0.10209490082E+01  0.10206903308E+01 0.  0.
     999903    2    3    3    0    0 -0.48389514138E-02  0.12731894006E+00 -0.21365852611E-01  0.13100924789E+00  0.21757652182E-01 0.  0.
         14    1    1    2    0    0  0.15165976626E-01  0.48294465143E-02  0.16576959378E-01  0.22980991773E-01  0.00000000000E+00 0. -1.
     999901    1    3    3    0    0 -0.10327025212E-01 -0.13214838657E+00  0.47888932327E-02  0.88993976033E+00  0.88000000000E+00 0.  1.
        -11    1    4    4    0    0 -0.71552705932E-02  0.12799314135E-01 -0.14148049672E-02  0.14740526913E-01  0.51100000000E-03 0. -1.
         11    1    4    4    0    0  0.23163191794E-02  0.11451962592E+00 -0.19951047643E-01  0.11626872098E+00  0.51100000000E-03 0.  1.
</event>
<event>
 8    1  0.1075206E+005  0.1043930E+01  0.7957747E-01            NaN
         13   -1    0    0    0    0  0.00000000000E+00  0.00000000000E+00  0.74505805969E-08  0.10566000000E+00  0.10566000000E+00 0.  1.
     999900   -1    0    0    0    0 -0.00000000000E+00 -0.00000000000E+00 -0.74505805969E-08  0.93827000000E+00  0.93827000000E+00 0. -1.
     999902    2    1    2    0    0 -0.36872803812E-01  0.23794327404E-02  0.57249164188E-02  0.10065396265E+01  0.10058449084E+01 0.  0.
     999903    2    3    3    0    0 -0.93791713654E-01  0.75009464000E-01  0.57225751343E-02  0.12171485079E+00  0.18932823259E-01 0.  0.
         14    1    1    2    0    0  0.36872803812E-01 -0.23794327404E-02 -0.57249164188E-02  0.37390373482E-01  0.00000000000E+00 0.  1.
     999901    1    3    3    0    0  0.56918909842E-01 -0.72630031260E-01  0.23412844553E-05  0.88482477573E+00  0.88000000000E+00 0.  1.
        -11    1    4    4    0    0 -0.81604366908E-01  0.60646891842E-01 -0.10842254802E-02  0.10167966785E+00  0.51100000000E-03 0.  1.
         11    1    4    4    0    0 -0.12187346746E-01  0.14362572158E-01  0.68068006145E-02  0.20035182937E-01  0.51100000000E-03 0. -1.
</event>
<event>
 8    1  0.1075206E+005  0.1043930E+01  0.7957747E-01            NaN
         13   -1    0    0    0    0  0.00000000000E+00  0.00000000000E+00  0.74505805969E-08  0.10566000000E+00  0.10566000000E+00 0.  1.
     999900   -1    0    0    0    0 -0.00000000000E+00 -0.00000000000E+00 -0.74505805969E-08  0.93827000000E+00  0.93827000000E+00 0. -1.
     999902    2    1    2    0    0  0.11017741579E-01  0.19434580060E-01  0.69998123406E-02  0.10205186586E+01  0.10202500878E+01 0.  0.
     999903    2    3    3    0    0  0.12933951944E+00  0.51359881570E-02 -0.17880754319E-01  0.13213611973E+00  0.19625063029E-01 0.  0.
         14    1    1    2    0    0 -0.11017741579E-01 -0.19434580060E-01 -0.69998123406E-02  0.23411341363E-01  0.00000000000E+00 0. -1.
     999901    1    3    3    0    0 -0.11832177786E+00  0.14298591903E-01  0.24880566660E-01  0.88838253891E+00  0.88000000000E+00 0. -1.
        -11    1    4    4    0    0  0.89490800123E-01  0.46866444590E-03 -0.20889296663E-01  0.91899112015E-01  0.51100000000E-03 0. -1.
         11    1    4    4    0    0  0.39848719313E-01  0.46673237111E-02  0.30085423438E-02  0.40237007711E-01  0.51100000000E-03 0.  1.
</event>
<event>
 8    1  0.1075206E+005  0.1043930E+01  0.7957747E-01            NaN
         13   -1    0    0    0    0  0.00000000000E+00  0.00000000000E+00  0.74505805969E-08  0.10566000000E+00  0.10566000000E+00 0. -1.
     999900   -1    0    0    0    0 -0.00000000000E+00 -0.00000000000E+00 -0.74505805969E-08  0.93827000000E+00  0.93827000000E+00 0.  1.
     999902    2    1    2    0    0 -0.13826655307E-01 -0.20518530775E-01 -0.36355166869E-02  0.10189219316E+01  0.10186149907E+01 0.  0.
     999903    2    3    3    0    0 -0.80197391352E-01  0.38458995497E-01 -0.93404796960E-01  0.12991015055E+00  0.15539472554E-01 0.  0.
         14    1    1    2    0    0  0.13826655307E-01  0.20518530775E-01  0.36355166869E-02  0.25008068373E-01  0.00000000000E+00 0. -1.
     999901    1    3    3    0    0  0.66370736045E-01 -0.58977526272E-01  0.89769280273E-01  0.88901178107E+00  0.88000000000E+00 0. -1.
        -11    1    4    4    0    0 -0.33988091589E-01  0.18502577697E-01 -0.51452856833E-01  0.64383175974E-01  0.51100000000E-03 0. -1.
         11    1    4    4    0    0 -0.46209299763E-01  0.19956417800E-01 -0.41951940127E-01  0.65526974578E-01  0.51100000000E-03 0.  1.
</event>
<event>
 8    1  0.1075206E+005  0.1043930E+01  0.7957747E-01            NaN
         13   -1    0    0    0    0  0.00000000000E+00  0.00000000000E+00  0.74505805969E-08  0.10566000000E+00  0.10566000000E+00 0. -1.
     999900   -1    0    0    0    0 -0.00000000000E+00 -0.00000000000E+00 -0.74505805969E-08  0.93827000000E+00  0.93827000000E+00 0.  1.
     999902    2    1    2    0    0 -0.15014092550E-01  0.13809502902E-01  0.13008274099E-01  0.10197361880E+01  0.10194491417E+01 0.  0.
     999903    2    3    3    0    0  0.81292260068E-01 -0.42507828788E-01  0.89194295574E-01  0.12942676689E+00  0.19501758086E-01 0.  0.
         14    1    1    2    0    0  0.15014092550E-01 -0.13809502902E-01 -0.13008274099E-01  0.24193812030E-01  0.00000000000E+00 0.  1.
     999901    1    3    3    0    0 -0.96306352618E-01  0.56317331689E-01 -0.76186021475E-01  0.89030942108E+00  0.88000000000E+00 0.  1.
        -11    1    4    4    0    0  0.60021463112E-01 -0.40309923014E-01  0.66376603357E-01  0.98150804998E-01  0.51100000000E-03 0. -1.
         11    1    4    4    0    0  0.21270796956E-01 -0.21979057738E-02  0.22817692217E-01  0.31275961888E-01  0.51100000000E-03 0.  1.
</event>
<event>
 8    1  0.1075206E+005  0.1043930E+01  0.7957747E-01            NaN
         13   -1    0    0    0    0  0.00000000000E+00  0.00000000000E+00  0.74505805969E-08  0.10566000000E+00  0.10566000000E+00 0.  1.
     999900   -1    0    0    0    0 -0.00000000000E+00 -0.00000000000E+00 -0.74505805969E-08  0.93827000000E+00  0.93827000000E+00 0. -1.
     999902    2    1    2    0    0 -0.68869599610E-02  0.92304935288E-02  0.24208038379E-01  0.10171221401E+01  0.10167687970E+01 0.  0.
     999903    2    3    3    0    0 -0.18355781817E-02 -0.29968507695E-01  0.12535354280E+00  0.13044717646E+00  0.20036824869E-01 0.  0.
         14    1    1    2    0    0  0.68869599610E-02 -0.92304935288E-02 -0.24208038379E-01  0.26807859863E-01  0.00000000000E+00 0. -1.
     999901    1    3    3    0    0 -0.50513817793E-02  0.39199001223E-01 -0.10114550443E+00  0.88667496368E+00  0.88000000000E+00 0. -1.
        -11    1    4    4    0    0  0.82843397608E-02 -0.79628248938E-02  0.32115800078E-01  0.34113378625E-01  0.51100000000E-03 0. -1.
         11    1    4    4    0    0 -0.10119917943E-01 -0.22005682801E-01  0.93237742727E-01  0.96333797831E-01  0.51100000000E-03 0.  1.
</event>
<event>
 8    1  0.1075206E+005  0.1043930E+01  0.7957747E-01            NaN
         13   -1    0    0    0    0  0.00000000000E+00  0.00000000000E+00  0.74505805969E-08  0.10566000000E+00  0.10566000000E+00 0. -1.
     999900   -1    0    0    0    0 -0.00000000000E+00 -0.00000000000E+00 -0.74505805969E-08  0.93827000000E+00  0.93827000000E+00 0.  1.
     999902    2    1    2    0    0 -0.14153116649E-01  0.16179806461E-01 -0.13792069459E-01  0.10183894826E+01  0.10180691628E+01 0.  0.
     999903    2    3    3    0    0 -0.83554796926E-02 -0.12351188462E+00  0.18263641495E-01  0.12677580520E+00  0.20335793589E-01 0.  0.
         14    1    1    2    0    0  0.14153116649E-01 -0.16179806461E-01  0.13792069459E-01  0.25540517379E-01  0.00000000000E+00 0. -1.
     999901    1    3    3    0    0 -0.57976369560E-02  0.13969169108E+00 -0.32055710954E-01  0.89161367742E+00  0.88000000000E+00 0.  1.
        -11    1    4    4    0    0 -0.13973858281E-01 -0.77871178468E-01  0.69819526486E-02  0.79424164680E-01  0.51100000000E-03 0.  1.
         11    1    4    4    0    0  0.56183785885E-02 -0.45640706154E-01  0.11281688846E-01  0.47351640525E-01  0.51100000000E-03 0. -1.
</event>
<event>
 8    1  0.1075206E+005  0.1043930E+01  0.7957747E-01            NaN
         13   -1    0    0    0    0  0.00000000000E+00  0.00000000000E+00  0.74505805969E-08  0.10566000000E+00  0.10566000000E+00 0. -1.
     999900   -1    0    0    0    0 -0.00000000000E+00 -0.00000000000E+00 -0.74505805969E-08  0.93827000000E+00  0.93827000000E+00 0. -1.
     999902    2    1    2    0    0  0.25186016166E-02  0.20217072343E-01  0.15603847947E-01  0.10182677039E+01  0.10179442831E+01 0.  0.
     999903    2    3    3    0    0 -0.56169183417E-01  0.93120849722E-01  0.71416462845E-01  0.13154662894E+00  0.19435395587E-01 0.  0.
         14    1    1    2    0    0 -0.25186016166E-02 -0.20217072343E-01 -0.15603847947E-01  0.25662296059E-01  0.00000000000E+00 0.  1.
     999901    1    3    3    0    0  0.58687785034E-01 -0.72903777379E-01 -0.55812614898E-01  0.88672107500E+00  0.88000000000E+00 0. -1.
        -11    1    4    4    0    0 -0.42782584327E-01  0.61522061995E-01  0.57736410788E-01  0.94599513135E-01  0.51100000000E-03 0. -1.
         11    1    4    4    0    0 -0.13386599090E-01  0.31598787728E-01  0.13680052058E-01  0.36947115806E-01  0.51100000000E-03 0.  1.
</event>
<event>
 8    1  0.1075206E+005  0.1043930E+01  0.7957747E-01            NaN
         13   -1    0    0    0    0  0.00000000000E+00  0.00000000000E+00  0.74505805969E-08  0.10566000000E+00  0.10566000000E+00 0. -1.
     999900   -1    0    0    0    0 -0.00000000000E+00 -0.00000000000E+00 -0.74505805969E-08  0.93827000000E+00  0.93827000000E+00 0.  1.
     999902    2    1    2    0    0  0.79841994361E-02 -0.28431659014E-01  0.52854679462E-02  0.10139292859E+01  0.10134853497E+01 0.  0.
     999903    2    3    3    0    0  0.85522120016E-01 -0.14782747881E-01 -0.88423076161E-01  0.12545885131E+00  0.19715991679E-01 0.  0.
         14    1    1    2    0    0 -0.79841994361E-02  0.28431659014E-01 -0.52854679462E-02  0.30000714097E-01  0.00000000000E+00 0. -1.
     999901    1    3    3    0    0 -0.77537920580E-01 -0.13648911134E-01  0.93708544107E-01  0.88847043459E+00  0.88000000000E+00 0. -1.
        -11    1    4    4    0    0  0.40573820545E-01 -0.23114410764E-02 -0.53493324483E-01  0.67181653438E-01  0.51100000000E-03 0. -1.
         11    1    4    4    0    0  0.44948299471E-01 -0.12471306804E-01 -0.34929751678E-01  0.58277197874E-01  0.51100000000E-03 0.  1.
</event>
<event>
 8    1  0.1075206E+005  0.1043930E+01  0.7957747E-01            NaN
         13   -1    0    0    0    0  0.00000000000E+00  0.00000000000E+00  0.74505805969E-08  0.10566000000E+00  0.10566000000E+00 0. -1.
     999900   -1    0    0    0    0 -0.00000000000E+00 -0.00000000000E+00 -0.74505805969E-08  0.93827000000E+00  0.93827000000E+00 0.  1.
     999902    2    1    2    0    0 -0.26518171233E-02 -0.17257914979E-01  0.15245179113E-01  0.10207506288E+01  0.10204874144E+01 0.  0.
     999903    2    3    3    0    0 -0.24347283272E-01 -0.12654830376E+00  0.28881237318E-01  0.13361984677E+00  0.20319305945E-01 0.  0.
         14    1    1    2    0    0  0.26518171233E-02  0.17257914979E-01 -0.15245179113E-01  0.23179371209E-01  0.00000000000E+00 0.  1.
     999901    1    3    3    0    0  0.21695466149E-01  0.10929038878E+00 -0.13636058205E-01  0.88713078202E+00  0.88000000000E+00 0. -1.
        -11    1    4    4    0    0 -0.17240260200E-01 -0.10966236315E+00  0.30767462460E-01  0.11519530516E+00  0.51100000000E-03 0. -1.
         11    1    4    4    0    0 -0.71070230720E-02 -0.16885940609E-01 -0.18862251420E-02  0.18424541609E-01  0.51100000000E-03 0.  1.
</event>
<event>
 8    1  0.1075206E+005  0.1043930E+01  0.7957747E-01            NaN
         13   -1    0    0    0    0  0.00000000000E+00  0.00000000000E+00  0.74505805969E-08  0.10566000000E+00  0.10566000000E+00 0. -1.
     999900   -1    0    0    0    0 -0.00000000000E+00 -0.00000000000E+00 -0.74505805969E-08  0.93827000000E+00  0.93827000000E+00 0. -1.
     999902    2    1    2    0    0  0.82685191196E-02 -0.12580954124E-02  0.21363907366E-01  0.10209872942E+01  0.10207294877E+01 0.  0.
     999903    2    3    3    0    0 -0.71868523654E-01 -0.74825494936E-01 -0.74117915801E-01  0.12916282353E+00  0.20630805944E-01 0.  0.
         14    1    1    2    0    0 -0.82685191196E-02  0.12580954124E-02 -0.21363907366E-01  0.22942705822E-01  0.00000000000E+00 0.  1.
     999901    1    3    3    0    0  0.80137042773E-01  0.73567399524E-01  0.95481823167E-01  0.89182447065E+00  0.88000000000E+00 0. -1.
        -11    1    4    4    0    0 -0.16880567419E-01 -0.18348706483E-01 -0.77395075805E-02  0.26111102707E-01  0.51100000000E-03 0. -1.
         11    1    4    4    0    0 -0.54987956235E-01 -0.56476788453E-01 -0.66378408221E-01  0.10305172082E+00  0.51100000000E-03 0.  1.
</event>
<event>
 8    1  0.1075206E+005  0.1043930E+01  0.7957747E-01            NaN
         13   -1    0    0    0    0  0.00000000000E+00  0.00000000000E+00  0.74505805969E-08  0.10566000000E+00  0.10566000000E+00 0. -1.
     999900   -1    0    0    0    0 -0.00000000000E+00 -0.00000000000E+00 -0.74505805969E-08  0.93827000000E+00  0.93827000000E+00 0.  1.
     999902    2    1    2    0    0 -0.95276378526E-02  0.12524778777E-01  0.16769614072E-01  0.10209329149E+01  0.10206738709E+01 0.  0.
     999903    2    3    3    0    0  0.65438756212E-01 -0.88996938535E-01 -0.62131214119E-01  0.12843531827E+00  0.20800416523E-01 0.  0.
         14    1    1    2    0    0  0.95276378526E-02 -0.12524778777E-01 -0.16769614072E-01  0.22997085089E-01  0.00000000000E+00 0.  1.
     999901    1    3    3    0    0 -0.74966394064E-01  0.10152171731E+00  0.78900828190E-01  0.89249759664E+00  0.88000000000E+00 0. -1.
        -11    1    4    4    0    0  0.46362587817E-01 -0.73673467275E-01 -0.41545375824E-01  0.96454905022E-01  0.51100000000E-03 0. -1.
         11    1    4    4    0    0  0.19076168395E-01 -0.15323471260E-01 -0.20585838295E-01  0.31980413246E-01  0.51100000000E-03 0.  1.
</event>
<event>
 8    1  0.1075206E+005  0.1043930E+01  0.7957747E-01            NaN
         13   -1    0    0    0    0  0.00000000000E+00  0.00000000000E+00  0.74505805969E-08  0.10566000000E+00  0.10566000000E+00 0.  1.
     999900   -1    0    0    0    0 -0.00000000000E+00 -0.00000000000E+00 -0.74505805969E-08  0.93827000000E+00  0.93827000000E+00 0.  1.
     999902    2    1    2    0    0  0.12469537587E-01 -0.68460580330E-02  0.19659653805E-01  0.10196635650E+01  0.10193747721E+01 0.  0.
     999903    2    3    3    0    0  0.94378108702E-01 -0.86962557340E-01  0.27687130088E-01  0.13219970219E+00  0.15507104971E-01 0.  0.
         14    1    1    2    0    0 -0.12469537587E-01  0.68460580330E-02 -0.19659653805E-01  0.24266434966E-01  0.00000000000E+00 0. -1.
     999901    1    3    3    0    0 -0.81908571114E-01  0.80116499307E-01 -0.80274762833E-02  0.88746386285E+00  0.88000000000E+00 0.  1.
        -11    1    4    4    0    0  0.55049520407E-01 -0.55822850928E-01  0.10151266057E-01  0.79056623418E-01  0.51100000000E-03 0.  1.
         11    1    4    4    0    0  0.39328588295E-01 -0.31139706412E-01  0.17535864031E-01  0.53143078769E-01  0.51100000000E-03 0. -1.
</event>
<event>
 8    1  0.1075206E+005  0.1043930E+01  0.7957747E-01            NaN
         13   -1    0    0    0    0  0.00000000000E+00  0.00000000000E+00  0.74505805969E-08  0.10566000000E+00  0.10566000000E+00 0. -1.
     999900   -1    0    0    0    0 -0.00000000000E+00 -0.00000000000E+00 -0.74505805969E-08  0.93827000000E+00  0.93827000000E+00 0.  1.
     999902    2    1    2    0    0 -0.11301987727E-01 -0.15390928139E-01  0.15432597377E-01  0.10193784083E+01  0.10190827045E+01 0.  0.
     999903    2    3    3    0    0  0.92858328120E-01  0.31889276564E-01 -0.78174275934E-01  0.12705165426E+00  0.19781566472E-01 0.  0.
         14    1    1    2    0    0  0.11301987727E-01  0.15390928139E-01 -0.15432597377E-01  0.24551591748E-01  0.00000000000E+00 0.  1.
     999901    1    3    3    0    0 -0.10416031585E+00 -0.47280204703E-01  0.93606873311E-01  0.89232675399E+00  0.88000000000E+00 0. -1.
        -11    1    4    4    0    0  0.28911261578E-01  0.89961353062E-02 -0.13128362438E-01  0.33006158786E-01  0.51100000000E-03 0. -1.
         11    1    4    4    0    0  0.63947066542E-01  0.22893141258E-01 -0.65045913496E-01  0.94045495477E-01  0.51100000000E-03 0.  1.
</event>
<event>
 8    1  0.1075206E+005  0.1043930E+01  0.7957747E-01            NaN
         13   -1    0    0    0    0  0.00000000000E+00  0.00000000000E+00  0.74505805969E-08  0.10566000000E+00  0.10566000000E+00 0. -1.
     999900   -1    0    0    0    0 -0.00000000000E+00 -0.00000000000E+00 -0.74505805969E-08  0.93827000000E+00  0.93827000000E+00 0. -1.
     999902    2    1    2    0    0 -0.13951683515E-01 -0.13787742545E-01 -0.12197882852E-01  0.10208315225E+01  0.10205701630E+01 0.  0.
     999903    2    3    3    0    0  0.65532967518E-01  0.84006546546E-02 -0.11181055679E+00  0.13137504827E+00  0.19815697477E-01 0.  0.
         14    1    1    2    0    0  0.13951683515E-01  0.13787742545E-01  0.12197882852E-01  0.23098477514E-01  0.00000000000E+00 0. -1.
     999901    1    3    3    0    0 -0.79484651033E-01 -0.22188397200E-01  0.99612673941E-01  0.88945647422E+00  0.88000000000E+00 0. -1.
        -11    1    4    4    0    0  0.45989905183E-01  0.21484520047E-02 -0.59878290051E-01  0.75533820009E-01  0.51100000000E-03 0. -1.
         11    1    4    4    0    0  0.19543062335E-01  0.62522026499E-02 -0.51932266742E-01  0.55841228258E-01  0.51100000000E-03 0.  1.
</event>
<event>
 8    1  0.1075206E+005  0.1043930E+01  0.7957747E-01            NaN
         13   -1    0    0    0    0  0.00000000000E+00  0.00000000000E+00  0.74505805969E-08  0.10566000000E+00  0.10566000000E+00 0.  1.
     999900   -1    0    0    0    0 -0.00000000000E+00 -0.00000000000E+00 -0.74505805969E-08  0.93827000000E+00  0.93827000000E+00 0.  1.
     999902    2    1    2    0    0 -0.46376470741E-02 -0.21450912808E-01  0.91862834562E-02  0.10201384630E+01  0.10198609937E+01 0.  0.
     999903    2    3    3    0    0  0.97666458095E-01  0.47374989088E-01  0.67931006124E-01  0.12960262587E+00  0.19977297417E-01 0.  0.
         14    1    1    2    0    0  0.46376470741E-02  0.21450912808E-01 -0.91862834562E-02  0.23791537034E-01  0.00000000000E+00 0. -1.
     999901    1    3    3    0    0 -0.10230410517E+00 -0.68825901896E-01 -0.58744722668E-01  0.89053583709E+00  0.88000000000E+00 0.  1.
        -11    1    4    4    0    0  0.31182034766E-01  0.18849387065E-01  0.33423492193E-01  0.49447038700E-01  0.51100000000E-03 0.  1.
         11    1    4    4    0    0  0.66484423330E-01  0.28525602023E-01  0.34507513931E-01  0.80155587173E-01  0.51100000000E-03 0. -1.
</event>
<event>
 8    1  0.1075206E+005  0.1043930E+01  0.7957747E-01            NaN
         13   -1    0    0    0    0  0.00000000000E+00  0.00000000000E+00  0.74505805969E-08  0.10566000000E+00  0.10566000000E+00 0.  1.
     999900   -1    0    0    0    0 -0.00000000000E+00 -0.00000000000E+00 -0.74505805969E-08  0.93827000000E+00  0.93827000000E+00 0. -1.
     999902    2    1    2    0    0 -0.83004268532E-02 -0.21361414411E-01  0.88508322563E-02  0.10193628605E+01  0.10190667775E+01 0.  0.
     999903    2    3    3    0    0  0.53852949806E-01 -0.11759187949E+00 -0.13799832046E-01  0.13164871888E+00  0.20321404807E-01 0.  0.
         14    1    1    2    0    0  0.83004268532E-02  0.21361414411E-01 -0.88508322563E-02  0.24567139500E-01  0.00000000000E+00 0. -1.
     999901    1    3    3    0    0 -0.62153376660E-01  0.96230465079E-01  0.22650664302E-01  0.88771414162E+00  0.88000000000E+00 0. -1.
        -11    1    4    4    0    0  0.31920663799E-01 -0.49140439449E-01 -0.11580491624E-01  0.59733411705E-01  0.51100000000E-03 0.  1.
         11    1    4    4    0    0  0.21932286007E-01 -0.68451440040E-01 -0.22193404225E-02  0.71915307175E-01  0.51100000000E-03 0. -1.
</event>
<event>
 8    1  0.1075206E+005  0.1043930E+01  0.7957747E-01            NaN
         13   -1    0    0    0    0  0.00000000000E+00  0.00000000000E+00  0.74505805969E-08  0.10566000000E+00  0.10566000000E+00 0.  1.
     999900   -1    0    0    0    0 -0.00000000000E+00 -0.00000000000E+00 -0.74505805969E-08  0.93827000000E+00  0.93827000000E+00 0. -1.
     999902    2    1    2    0    0  0.11778253478E-01  0.12131067172E-01  0.14382494941E-01  0.10217321126E+01  0.10214909513E+01 0.  0.
     999903    2    3    3    0    0  0.35574621990E-01 -0.11612315865E+00 -0.43192565982E-01  0.13025563995E+00  0.18729449439E-01 0.  0.
         14    1    1    2    0    0 -0.11778253478E-01 -0.12131067172E-01 -0.14382494941E-01  0.22197887432E-01  0.00000000000E+00 0. -1.
     999901    1    3    3    0    0 -0.23796368512E-01  0.12825422583E+00  0.57575060922E-01  0.89147647262E+00  0.88000000000E+00 0. -1.
        -11    1    4    4    0    0  0.21730453625E-01 -0.52131783061E-01 -0.28004934266E-01  0.63043420625E-01  0.51100000000E-03 0. -1.
         11    1    4    4    0    0  0.13844168364E-01 -0.63991375593E-01 -0.15187631716E-01  0.67212219321E-01  0.51100000000E-03 0.  1.
</event>
<event>
 8    1  0.1075206E+005  0.1043930E+01  0.7957747E-01            NaN
         13   -1    0    0    0    0  0.00000000000E+00  0.00000000000E+00  0.74505805969E-08  0.10566000000E+00  0.10566000000E+00 0.  1.
     999900   -1    0    0    0    0 -0.00000000000E+00 -0.00000000000E+00 -0.74505805969E-08  0.93827000000E+00  0.93827000000E+00 0. -1.
     999902    2    1    2    0    0 -0.16595376041E-01 -0.58635699492E-02  0.16046511824E-01  0.10201123910E+01  0.10198343060E+01 0.  0.
     999903    2    3    3    0    0  0.79846699899E-01  0.54566748063E-01 -0.80959054498E-01  0.12749658489E+00  0.18654360767E-01 0.  0.
         14    1    1    2    0    0  0.16595376041E-01  0.58635699492E-02 -0.16046511824E-01  0.23817609037E-01  0.00000000000E+00 0.  1.
     999901    1    3    3    0    0 -0.96442075940E-01 -0.60430318013E-01  0.97005566322E-01  0.89261580607E+00  0.88000000000E+00 0.  1.
        -11    1    4    4    0    0  0.24377708041E-01  0.19660282623E-01 -0.37484426095E-01  0.48848159462E-01  0.51100000000E-03 0.  1.
         11    1    4    4    0    0  0.55468991858E-01  0.34906465441E-01 -0.43474628403E-01  0.78648425432E-01  0.51100000000E-03 0. -1.
</event>
<event>
 8    1  0.1075206E+005  0.1043930E+01  0.7957747E-01            NaN
         13   -1    0    0    0    0  0.00000000000E+00  0.00000000000E+00  0.74505805969E-08  0.10566000000E+00  0.10566000000E+00 0. -1.
     999900   -1    0    0    0    0 -0.00000000000E+00 -0.00000000000E+00 -0.74505805969E-08  0.93827000000E+00  0.93827000000E+00 0.  1.
     999902    2    1    2    0    0 -0.21772488593E-01  0.48309277644E-02  0.84278819507E-02  0.10200886847E+01  0.10198100393E+01 0.  0.
     999903    2    3    3    0    0 -0.36055262756E-01  0.84975348059E-01  0.92708810275E-01  0.13232159775E+00  0.19831539962E-01 0.  0.
         14    1    1    2    0    0  0.21772488593E-01 -0.48309277644E-02 -0.84278819507E-02  0.23841315333E-01  0.00000000000E+00 0.  1.
     999901    1    3    3    0    0  0.14282774162E-01 -0.80144420295E-01 -0.84280928324E-01  0.88776708692E+00  0.88000000000E+00 0.  1.
        -11    1    4    4    0    0 -0.21552903382E-01  0.62566702047E-01  0.54609027855E-01  0.85799340869E-01  0.51100000000E-03 0.  1.
         11    1    4    4    0    0 -0.14502359373E-01  0.22408646012E-01  0.38099782420E-01  0.46522256877E-01  0.51100000000E-03 0. -1.
</event>
<event>
 8    1  0.1075206E+005  0.1043930E+01  0.7957747E-01            NaN
         13   -1    0    0    0    0  0.00000000000E+00  0.00000000000E+00  0.74505805969E-08  0.10566000000E+00  0.10566000000E+00 0.  1.
     999900   -1    0    0    0    0 -0.00000000000E+00 -0.00000000000E+00 -0.74505805969E-08  0.93827000000E+00  0.93827000000E+00 0.  1.
     999902    2    1    2    0    0 -0.21530185529E-01 -0.15755150025E-02 -0.15399318375E-01  0.10174126445E+01  0.10170670180E+01 0.  0.
     999903    2    3    3    0    0 -0.11227151622E+00 -0.34118277916E-02  0.61360570625E-01  0.12942084178E+00  0.19185951512E-01 0.  0.
         14    1    1    2    0    0  0.21530185529E-01  0.15755150025E-02  0.15399318375E-01  0.26517355503E-01  0.00000000000E+00 0.  1.
     999901    1    3    3    0    0  0.90741330691E-01  0.18363127891E-02 -0.76759889000E-01  0.88799180272E+00  0.88000000000E+00 0.  1.
        -11    1    4    4    0    0 -0.67607903652E-01  0.47042302792E-02  0.29257208352E-01  0.73818722424E-01  0.51100000000E-03 0. -1.
         11    1    4    4    0    0 -0.44663612568E-01 -0.81160580708E-02  0.32103362273E-01  0.55602119352E-01  0.51100000000E-03 0.  1.
</event>
<event>
 8    1  0.1075206E+005  0.1043930E+01  0.7957747E-01            NaN
         13   -1    0    0    0    0  0.00000000000E+00  0.00000000000E+00  0.74505805969E-08  0.10566000000E+00  0.10566000000E+00 0.  1.
     999900   -1    0    0    0    0 -0.00000000000E+00 -0.00000000000E+00 -0.74505805969E-08  0.93827000000E+00  0.93827000000E+00 0.  1.
     999902    2    1    2    0    0  0.16103189382E-01 -0.77955174053E-02 -0.16457059998E-01  0.10196212028E+01  0.10193313884E+01 0.  0.
     999903    2    3    3    0    0 -0.11018903433E+00 -0.51941594062E-01 -0.38529380553E-01  0.12923601128E+00  0.19439160614E-01 0.  0.
         14    1    1    2    0    0 -0.16103189382E-01  0.77955174053E-02  0.16457059998E-01  0.24308797248E-01  0.00000000000E+00 0.  1.
     999901    1    3    3    0    0  0.12629222371E+00  0.44146076657E-01  0.22072320555E-01  0.89038519147E+00  0.88000000000E+00 0. -1.
        -11    1    4    4    0    0 -0.26612532761E-01 -0.83474626208E-02 -0.16576918890E-01  0.32449382014E-01  0.51100000000E-03 0. -1.
         11    1    4    4    0    0 -0.83576501571E-01 -0.43594131442E-01 -0.21952461662E-01  0.96786629268E-01  0.51100000000E-03 0.  1.
</event>
<event>
 8    1  0.1075206E+005  0.1043930E+01  0.7957747E-01            NaN
         13   -1    0    0    0    0  0.00000000000E+00  0.00000000000E+00  0.74505805969E-08  0.10566000000E+00  0.10566000000E+00 0.  1.
     999900   -1    0    0    0    0 -0.00000000000E+00 -0.00000000000E+00 -0.74505805969E-08  0.93827000000E+00  0.93827000000E+00 0. -1.
     999902    2    1    2    0    0  0.46986516379E-02 -0.20621232713E-01 -0.90574516124E-02  0.10209223927E+01  0.10206631089E+01 0.  0.
     999903    2    3    3    0    0 -0.36254055303E-01  0.72783781350E-01 -0.10030708046E+00  0.13034498691E+00  0.17789600026E-01 0.  0.
         14    1    1    2    0    0 -0.46986516379E-02  0.20621232713E-01  0.90574516124E-02  0.23007607341E-01  0.00000000000E+00 0.  1.
     999901    1    3    3    0    0  0.40952706940E-01 -0.93405014064E-01  0.91249628851E-01  0.89057740574E+00  0.88000000000E+00 0. -1.
        -11    1    4    4    0    0 -0.21371206409E-01  0.29817420820E-01 -0.34551989344E-01  0.50397501291E-01  0.51100000000E-03 0. -1.
         11    1    4    4    0    0 -0.14882848894E-01  0.42966360530E-01 -0.65755091119E-01  0.79947485624E-01  0.51100000000E-03 0.  1.
</event>
<event>
 8    1  0.1075206E+005  0.1043930E+01  0.7957747E-01            NaN
         13   -1    0    0    0    0  0.00000000000E+00  0.00000000000E+00  0.74505805969E-08  0.10566000000E+00  0.10566000000E+00 0. -1.
     999900   -1    0    0    0    0 -0.00000000000E+00 -0.00000000000E+00 -0.74505805969E-08  0.93827000000E+00  0.93827000000E+00 0.  1.
     999902    2    1    2    0    0 -0.16941060909E-01  0.15928997288E-01  0.23341668103E-02  0.10205594879E+01  0.10202918639E+01 0.  0.
     999903    2    3    3    0    0  0.99646326375E-01 -0.44102959524E-01 -0.64988915066E-01  0.12829895868E+00  0.19042119607E-01 0.  0.
         14    1    1    2    0    0  0.16941060909E-01 -0.15928997288E-01 -0.23341668103E-02  0.23370512062E-01  0.00000000000E+00 0. -1.
     999901    1    3    3    0    0 -0.11658738728E+00  0.60031956812E-01  0.67323081876E-01  0.89226052925E+00  0.88000000000E+00 0. -1.
        -11    1    4    4    0    0  0.76118776976E-02  0.93969184785E-03 -0.78099454383E-02  0.10958105292E-01  0.51100000000E-03 0. -1.
         11    1    4    4    0    0  0.92034448677E-01 -0.45042651372E-01 -0.57178969627E-01  0.11734085339E+00  0.51100000000E-03 0.  1.
</event>
<event>
 8    1  0.1075206E+005  0.1043930E+01  0.7957747E-01            NaN
         13   -1    0    0    0    0  0.00000000000E+00  0.00000000000E+00  0.74505805969E-08  0.10566000000E+00  0.10566000000E+00 0.  1.
     999900   -1    0    0    0    0 -0.00000000000E+00 -0.00000000000E+00 -0.74505805969E-08  0.93827000000E+00  0.93827000000E+00 0. -1.
     999902    2    1    2    0    0  0.48130927083E-02  0.17572557475E-01  0.15371104795E-01  0.10200923932E+01  0.10198138355E+01 0.  0.
     999903    2    3    3    0    0 -0.20872204521E-01  0.81698453043E-01 -0.97254139297E-01  0.13022930785E+00  0.19774196858E-01 0.  0.
         14    1    1    2    0    0 -0.48130927083E-02 -0.17572557475E-01 -0.15371104795E-01  0.23837606848E-01  0.00000000000E+00 0.  1.
     999901    1    3    3    0    0  0.25685297229E-01 -0.64125895568E-01  0.11262524409E+00  0.88986308530E+00  0.88000000000E+00 0.  1.
        -11    1    4    4    0    0 -0.20579406404E-01  0.67496917121E-01 -0.69486752849E-01  0.99035426648E-01  0.51100000000E-03 0.  1.
         11    1    4    4    0    0 -0.29279811729E-03  0.14201535922E-01 -0.27767386449E-01  0.31193881202E-01  0.51100000000E-03 0. -1.
</event>
<event>
 8    1  0.1075206E+005  0.1043930E+01  0.7957747E-01            NaN
         13   -1    0    0    0    0  0.00000000000E+00  0.00000000000E+00  0.74505805969E-08  0.10566000000E+00  0.10566000000E+00 0.  1.
     999900   -1    0    0    0    0 -0.00000000000E+00 -0.00000000000E+00 -0.74505805969E-08  0.93827000000E+00  0.93827000000E+00 0. -1.
     999902    2    1    2    0    0  0.80940414009E-02  0.18090876141E-01 -0.85328488314E-02  0.10223521684E+01  0.10221244315E+01 0.  0.
     999903    2    3    3    0    0  0.12695606346E-02 -0.95787470664E-01  0.85569190494E-01  0.13001252166E+00  0.20107662865E-01 0.  0.
         14    1    1    2    0    0 -0.80940414009E-02 -0.18090876141E-01  0.85328488314E-02  0.21577831563E-01  0.00000000000E+00 0.  1.
     999901    1    3    3    0    0  0.68244807664E-02  0.11387834680E+00 -0.94102039325E-01  0.89233964678E+00  0.88000000000E+00 0. -1.
        -11    1    4    4    0    0 -0.77936106516E-02 -0.59916339828E-01  0.46873370764E-01  0.76472754319E-01  0.51100000000E-03 0. -1.
         11    1    4    4    0    0  0.90631712861E-02 -0.35871130836E-01  0.38695819730E-01  0.53539767339E-01  0.51100000000E-03 0.  1.
</event>
<event>
 8    1  0.1075206E+005  0.1043930E+01  0.7957747E-01            NaN
         13   -1    0    0    0    0  0.00000000000E+00  0.00000000000E+00  0.74505805969E-08  0.10566000000E+00  0.10566000000E+00 0. -1.
     999900   -1    0    0    0    0 -0.00000000000E+00 -0.00000000000E+00 -0.74505805969E-08  0.93827000000E+00  0.93827000000E+00 0.  1.
     999902    2    1    2    0    0  0.91009353055E-02 -0.77069670800E-02  0.20584172844E-01  0.10201406634E+01  0.10198632460E+01 0.  0.
     999903    2    3    3    0    0  0.26471149033E-01 -0.34162096064E-01  0.12466256217E+00  0.13344234417E+00  0.19958313358E-01 0.  0.
         14    1    1    2    0    0 -0.91009353055E-02  0.77069670800E-02 -0.20584172844E-01  0.23789336617E-01  0.00000000000E+00 0.  1.
     999901    1    3    3    0    0 -0.17370213727E-01  0.26455128984E-01 -0.10407838932E+00  0.88669831922E+00  0.88000000000E+00 0.  1.
        -11    1    4    4    0    0  0.11793499794E-01 -0.22737763083E-02  0.24187926333E-01  0.27010620085E-01  0.51100000000E-03 0.  1.
         11    1    4    4    0    0  0.14677649238E-01 -0.31888319755E-01  0.10047463584E+00  0.10643172408E+00  0.51100000000E-03 0. -1.
</event>
<event>
 8    1  0.1075206E+005  0.1043930E+01  0.7957747E-01            NaN
         13   -1    0    0    0    0  0.00000000000E+00  0.00000000000E+00  0.74505805969E-08  0.10566000000E+00  0.10566000000E+00 0. -1.
     999900   -1    0    0    0    0 -0.00000000000E+00 -0.00000000000E+00 -0.74505805969E-08  0.93827000000E+00  0.93827000000E+00 0. -1.
     999902    2    1    2    0    0  0.18546540806E-01  0.90047727518E-02 -0.96454997989E-02  0.10211682827E+01  0.10209145732E+01 0.  0.
     999903    2    3    3    0    0 -0.70096572280E-02 -0.11220449162E+00 -0.63989226117E-01  0.13083236541E+00  0.19583246527E-01 0.  0.
         14    1    1    2    0    0 -0.18546540806E-01 -0.90047727518E-02  0.96454997989E-02  0.22761717302E-01  0.00000000000E+00 0. -1.
     999901    1    3    3    0    0  0.25556198034E-01  0.12120926437E+00  0.54343726318E-01  0.89033591729E+00  0.88000000000E+00 0. -1.
        -11    1    4    4    0    0 -0.13393027652E-02 -0.46470191926E-01 -0.15709981792E-01  0.49074811446E-01  0.51100000000E-03 0.  1.
         11    1    4    4    0    0 -0.56703544629E-02 -0.65734299695E-01 -0.48279244325E-01  0.81757553961E-01  0.51100000000E-03 0. -1.
</event>
<event>
 8    1  0.1075206E+005  0.1043930E+01  0.7957747E-01            NaN
         13   -1    0    0    0    0  0.00000000000E+00  0.00000000000E+00  0.74505805969E-08  0.10566000000E+00  0.10566000000E+00 0.  1.
     999900   -1    0    0    0    0 -0.00000000000E+00 -0.00000000000E+00 -0.74505805969E-08  0.93827000000E+00  0.93827000000E+00 0.  1.
     999902    2    1    2    0    0 -0.22526213662E-01  0.25716356446E-02  0.32098843805E-03  0.10212551980E+01  0.10210034441E+01 0.  0.
     999903    2    3    3    0    0  0.41626432737E-01  0.55858378395E-01  0.10857869530E+00  0.13070774274E+00  0.21030040374E-01 0.  0.
         14    1    1    2    0    0  0.22526213662E-01 -0.25716356446E-02 -0.32098843805E-03  0.22674801993E-01  0.00000000000E+00 0.  1.
     999901    1    3    3    0    0 -0.64152646399E-01 -0.53286742750E-01 -0.10825770687E+00  0.89054745527E+00  0.88000000000E+00 0. -1.
        -11    1    4    4    0    0  0.19982685910E-02  0.13247344232E-01  0.30607883410E-01  0.33415398463E-01  0.51100000000E-03 0. -1.
         11    1    4    4    0    0  0.39628164146E-01  0.42611034163E-01  0.77970811894E-01  0.97292344274E-01  0.51100000000E-03 0.  1.
</event>
<event>
 8    1  0.1075206E+005  0.1043930E+01  0.7957747E-01            NaN
         13   -1    0    0    0    0  0.00000000000E+00  0.00000000000E+00  0.74505805969E-08  0.10566000000E+00  0.10566000000E+00 0.  1.
     999900   -1    0    0    0    0 -0.00000000000E+00 -0.00000000000E+00 -0.74505805969E-08  0.93827000000E+00  0.93827000000E+00 0. -1.
     999902    2    1    2    0    0 -0.10288747304E-02  0.26891596315E-02 -0.23384086459E-01  0.10203693196E+01  0.10200972712E+01 0.  0.
     999903    2    3    3    0    0  0.90321732274E-01  0.92495205476E-01 -0.47903365289E-02  0.13089993460E+00  0.19961643130E-01 0.  0.
         14    1    1    2    0    0  0.10288747304E-02 -0.26891596315E-02  0.23384086459E-01  0.23560680429E-01  0.00000000000E+00 0.  1.
     999901    1    3    3    0    0 -0.91350607004E-01 -0.89806045844E-01 -0.18593749930E-01  0.88946938497E+00  0.88000000000E+00 0. -1.
        -11    1    4    4    0    0  0.71546475122E-01  0.69393882339E-01 -0.11636475190E-01  0.10034977670E+00  0.51100000000E-03 0. -1.
         11    1    4    4    0    0  0.18775257152E-01  0.23101323137E-01  0.68461386611E-02  0.30550157895E-01  0.51100000000E-03 0.  1.
</event>
<event>
 8    1  0.1075206E+005  0.1043930E+01  0.7957747E-01            NaN
         13   -1    0    0    0    0  0.00000000000E+00  0.00000000000E+00  0.74505805969E-08  0.10566000000E+00  0.10566000000E+00 0.  1.
     999900   -1    0    0    0    0 -0.00000000000E+00 -0.00000000000E+00 -0.74505805969E-08  0.93827000000E+00  0.93827000000E+00 0.  1.
     999902    2    1    2    0    0  0.15760100866E-01 -0.20112114542E-01 -0.70370630349E-02  0.10174272042E+01  0.10170819621E+01 0.  0.
     999903    2    3    3    0    0 -0.75187594236E-01  0.79200156353E-01 -0.58772569609E-01  0.12568117921E+00  0.20388839478E-01 0.  0.
         14    1    1    2    0    0 -0.15760100866E-01  0.20112114542E-01  0.70370630349E-02  0.26502795830E-01  0.00000000000E+00 0.  1.
     999901    1    3    3    0    0  0.90947695101E-01 -0.99312270896E-01  0.51735506575E-01  0.89174602496E+00  0.88000000000E+00 0.  1.
        -11    1    4    4    0    0 -0.18829030470E-01  0.13918712610E-01 -0.47016364671E-02  0.23887851632E-01  0.51100000000E-03 0.  1.
         11    1    4    4    0    0 -0.56358563766E-01  0.65281443744E-01 -0.54070933142E-01  0.10179332758E+00  0.51100000000E-03 0. -1.
</event>
<event>
 8    1  0.1075206E+005  0.1043930E+01  0.7957747E-01            NaN
         13   -1    0    0    0    0  0.00000000000E+00  0.00000000000E+00  0.74505805969E-08  0.10566000000E+00  0.10566000000E+00 0. -1.
     999900   -1    0    0    0    0 -0.00000000000E+00 -0.00000000000E+00 -0.74505805969E-08  0.93827000000E+00  0.93827000000E+00 0.  1.
     999902    2    1    2    0    0 -0.16383324759E-01 -0.11213658052E-01  0.13201516563E-01  0.10200880308E+01  0.10198093699E+01 0.  0.
     999903    2    3    3    0    0  0.60415397696E-01  0.10089270312E+00 -0.45619830011E-01  0.12771712650E+00  0.20028422023E-01 0.  0.
         14    1    1    2    0    0  0.16383324759E-01  0.11213658052E-01 -0.13201516563E-01  0.23841969227E-01  0.00000000000E+00 0.  1.
     999901    1    3    3    0    0 -0.76798722455E-01 -0.11210636117E+00  0.58821346575E-01  0.89237090428E+00  0.88000000000E+00 0. -1.
        -11    1    4    4    0    0  0.14394124799E-01  0.14338576530E-01 -0.14133611734E-01  0.24754912791E-01  0.51100000000E-03 0.  1.
         11    1    4    4    0    0  0.46021272897E-01  0.86554126589E-01 -0.31486218277E-01  0.10296221371E+00  0.51100000000E-03 0. -1.
</event>
<event>
 8    1  0.1075206E+005  0.1043930E+01  0.7957747E-01            NaN
         13   -1    0    0    0    0  0.00000000000E+00  0.00000000000E+00  0.74505805969E-08  0.10566000000E+00  0.10566000000E+00 0.  1.
     999900   -1    0    0    0    0 -0.00000000000E+00 -0.00000000000E+00 -0.74505805969E-08  0.93827000000E+00  0.93827000000E+00 0. -1.
     999902    2    1    2    0    0 -0.20595686914E-02  0.19777971716E-01 -0.14111377529E-01  0.10195467893E+01  0.10192551764E+01 0.  0.
     999903    2    3    3    0    0 -0.11689387957E+00  0.93641020018E-02 -0.55024280979E-01  0.13108225241E+00  0.20075355849E-01 0.  0.
         14    1    1    2    0    0  0.20595686914E-02 -0.19777971716E-01  0.14111377529E-01  0.24383210703E-01  0.00000000000E+00 0.  1.
     999901    1    3    3    0    0  0.11483431088E+00  0.10413869715E-01  0.40912903449E-01  0.88846453689E+00  0.88000000000E+00 0.  1.
        -11    1    4    4    0    0 -0.88283626319E-01 -0.15326531575E-02 -0.39077188489E-01  0.96558974119E-01  0.51100000000E-03 0. -1.
         11    1    4    4    0    0 -0.28610253251E-01  0.10896755159E-01 -0.15947092489E-01  0.34523278291E-01  0.51100000000E-03 0.  1.
</event>
<event>
 8    1  0.1075206E+005  0.1043930E+01  0.7957747E-01            NaN
         13   -1    0    0    0    0  0.00000000000E+00  0.00000000000E+00  0.74505805969E-08  0.10566000000E+00  0.10566000000E+00 0. -1.
     999900   -1    0    0    0    0 -0.00000000000E+00 -0.00000000000E+00 -0.74505805969E-08  0.93827000000E+00  0.93827000000E+00 0. -1.
     999902    2    1    2    0    0 -0.25079383554E-02 -0.31207113537E-03  0.21953306793E-01  0.10218317009E+01  0.10215927223E+01 0.  0.
     999903    2    3    3    0    0  0.70503682374E-01 -0.60107049941E-01  0.94059785238E-01  0.13385339010E+00  0.22042235844E-01 0.  0.
         14    1    1    2    0    0  0.25079383554E-02  0.31207113537E-03 -0.21953306793E-01  0.22098299082E-01  0.00000000000E+00 0.  1.
     999901    1    3    3    0    0 -0.73011620729E-01  0.59794978806E-01 -0.72106478445E-01  0.88797831082E+00  0.88000000000E+00 0. -1.
        -11    1    4    4    0    0  0.56508555219E-01 -0.58131614384E-01  0.79145347312E-01  0.11329937566E+00  0.51100000000E-03 0.  1.
         11    1    4    4    0    0  0.13995127154E-01 -0.19754355573E-02  0.14914437926E-01  0.20554014434E-01  0.51100000000E-03 0. -1.
</event>
<event>
 8    1  0.1075206E+005  0.1043930E+01  0.7957747E-01            NaN
         13   -1    0    0    0    0  0.00000000000E+00  0.00000000000E+00  0.74505805969E-08  0.10566000000E+00  0.10566000000E+00 0. -1.
     999900   -1    0    0    0    0 -0.00000000000E+00 -0.00000000000E+00 -0.74505805969E-08  0.93827000000E+00  0.93827000000E+00 0. -1.
     999902    2    1    2    0    0 -0.95548532189E-02 -0.20439512479E-01 -0.55749486925E-02  0.10206888954E+01  0.10204242609E+01 0.  0.
     999903    2    3    3    0    0 -0.11917417629E+00 -0.47413164462E-01  0.28285530232E-01  0.13283164002E+00  0.19841393839E-01 0.  0.
         14    1    1    2    0    0  0.95548532189E-02  0.20439512479E-01  0.55749486925E-02  0.23241104607E-01  0.00000000000E+00 0.  1.
     999901    1    3    3    0    0  0.10961932307E+00  0.26973651983E-01 -0.33860478924E-01  0.88785725538E+00  0.88000000000E+00 0. -1.
        -11    1    4    4    0    0 -0.76462504425E-01 -0.40436895688E-01  0.19471586197E-01  0.88662624064E-01  0.51100000000E-03 0.  1.
         11    1    4    4    0    0 -0.42711671868E-01 -0.69762687739E-02  0.88139440344E-02  0.44169015952E-01  0.51100000000E-03 0. -1.
</event>
<event>
 8    1  0.1075206E+005  0.1043930E+01  0.7957747E-01            NaN
         13   -1    0    0    0    0  0.00000000000E+00  0.00000000000E+00  0.74505805969E-08  0.10566000000E+00  0.10566000000E+00 0. -1.
     999900   -1    0    0    0    0 -0.00000000000E+00 -0.00000000000E+00 -0.74505805969E-08  0.93827000000E+00  0.93827000000E+00 0. -1.
     999902    2    1    2    0    0  0.30334942745E-02  0.62701194793E-02  0.22204742601E-01  0.10206584062E+01  0.10203930689E+01 0.  0.
     999903    2    3    3    0    0 -0.29311539664E-01  0.91764078792E-01  0.91579839505E-01  0.13320794424E+00  0.88134493887E-02 0.  0.
         14    1    1    2    0    0 -0.30334942745E-02 -0.62701194793E-02 -0.22204742601E-01  0.23271593838E-01  0.00000000000E+00 0.  1.
     999901    1    3    3    0    0  0.32345033938E-01 -0.85493959313E-01 -0.69375096904E-01  0.88745046192E+00  0.88000000000E+00 0. -1.
        -11    1    4    4    0    0 -0.20095216894E-01  0.72533449961E-01  0.74211332648E-01  0.10570005733E+00  0.51100000000E-03 0. -1.
         11    1    4    4    0    0 -0.92163227699E-02  0.19230628831E-01  0.17368506857E-01  0.27507886907E-01  0.51100000000E-03 0.  1.
</event>
<event>
 8    1  0.1075206E+005  0.1043930E+01  0.7957747E-01            NaN
         13   -1    0    0    0    0  0.00000000000E+00  0.00000000000E+00  0.74505805969E-08  0.10566000000E+00  0.10566000000E+00 0.  1.
     999900   -1    0    0    0    0 -0.00000000000E+00 -0.00000000000E+00 -0.74505805969E-08  0.93827000000E+00  0.93827000000E+00 0. -1.
     999902    2    1    2    0    0  0.25537185435E-02  0.17905408463E-01 -0.14909627009E-01  0.10204902451E+01  0.10202210144E+01 0.  0.
     999903    2    3    3    0    0 -0.60101441268E-01 -0.11196178020E+00  0.31456666326E-02  0.12857256431E+00  0.19323188326E-01 0.  0.
         14    1    1    2    0    0 -0.25537185435E-02 -0.17905408463E-01  0.14909627009E-01  0.23439754866E-01  0.00000000000E+00 0. -1.
     999901    1    3    3    0    0  0.62655159811E-01  0.12986718866E+00 -0.18055293641E-01  0.89191768083E+00  0.88000000000E+00 0. -1.
        -11    1    4    4    0    0 -0.36175916811E-01 -0.54296121606E-01  0.90037602089E-02  0.65864213329E-01  0.51100000000E-03 0.  1.
         11    1    4    4    0    0 -0.23925524457E-01 -0.57665658590E-01 -0.58580935762E-02  0.62708350979E-01  0.51100000000E-03 0. -1.
</event>
<event>
 8    1  0.1075206E+005  0.1043930E+01  0.7957747E-01            NaN
         13   -1    0    0    0    0  0.00000000000E+00  0.00000000000E+00  0.74505805969E-08  0.10566000000E+00  0.10566000000E+00 0.  1.
     999900   -1    0    0    0    0 -0.00000000000E+00 -0.00000000000E+00 -0.74505805969E-08  0.93827000000E+00  0.93827000000E+00 0. -1.
     999902    2    1    2    0    0  0.16122103903E-01  0.16753356661E-01 -0.36001535374E-02  0.10204021803E+01  0.10201308991E+01 0.  0.
     999903    2    3    3    0    0  0.24821212200E-01 -0.19102815715E-01 -0.12588637838E+00  0.13118046422E+00  0.19491633821E-01 0.  0.
         14    1    1    2    0    0 -0.16122103903E-01 -0.16753356661E-01  0.36001535374E-02  0.23527819685E-01  0.00000000000E+00 0. -1.
     999901    1    3    3    0    0 -0.86991082975E-02  0.35856172376E-01  0.12228622484E+00  0.88922171609E+00  0.88000000000E+00 0.  1.
        -11    1    4    4    0    0  0.27170451432E-02 -0.96313239390E-02 -0.17579102112E-01  0.20234393670E-01  0.51100000000E-03 0.  1.
         11    1    4    4    0    0  0.22104167057E-01 -0.94714917763E-02 -0.10830727627E+00  0.11094607055E+00  0.51100000000E-03 0. -1.
</event>
<event>
 8    1  0.1075206E+005  0.1043930E+01  0.7957747E-01            NaN
         13   -1    0    0    0    0  0.00000000000E+00  0.00000000000E+00  0.74505805969E-08  0.10566000000E+00  0.10566000000E+00 0.  1.
     999900   -1    0    0    0    0 -0.00000000000E+00 -0.00000000000E+00 -0.74505805969E-08  0.93827000000E+00  0.93827000000E+00 0.  1.
     999902    2    1    2    0    0  0.21418069177E-01 -0.53731575274E-02 -0.10130538707E-01  0.10196353026E+01  0.10193458284E+01 0.  0.
     999903    2    3    3    0    0  0.68849725153E-01 -0.60116914202E-01 -0.93774185557E-01  0.13270638741E+00  0.21518813971E-01 0.  0.
         14    1    1    2    0    0 -0.21418069177E-01  0.53731575274E-02  0.10130538707E-01  0.24294697437E-01  0.00000000000E+00 0.  1.
     999901    1    3    3    0    0 -0.47431655976E-01  0.54743756675E-01  0.83643646850E-01  0.88692891516E+00  0.88000000000E+00 0.  1.
        -11    1    4    4    0    0  0.51586032621E-01 -0.43824685422E-01 -0.81608570796E-01  0.10602802348E+00  0.51100000000E-03 0. -1.
         11    1    4    4    0    0  0.17263692532E-01 -0.16292228780E-01 -0.12165614760E-01  0.26678363929E-01  0.51100000000E-03 0.  1.
</event>
<event>
 8    1  0.1075206E+005  0.1043930E+01  0.7957747E-01            NaN
         13   -1    0    0    0    0  0.00000000000E+00  0.00000000000E+00  0.74505805969E-08  0.10566000000E+00  0.10566000000E+00 0. -1.
     999900   -1    0    0    0    0 -0.00000000000E+00 -0.00000000000E+00 -0.74505805969E-08  0.93827000000E+00  0.93827000000E+00 0. -1.
     999902    2    1    2    0    0  0.46336843716E-02  0.21732723743E-01 -0.56351464130E-02  0.10210054021E+01  0.10207480071E+01 0.  0.
     999903    2    3    3    0    0 -0.12813899365E+00  0.12398402234E-01 -0.13412402046E-01  0.13096259457E+00  0.19949600902E-01 0.  0.
         14    1    1    2    0    0 -0.46336843716E-02 -0.21732723743E-01  0.56351464130E-02  0.22924597864E-01  0.00000000000E+00 0.  1.
     999901    1    3    3    0    0  0.13277267803E+00  0.93343215084E-02  0.77772556327E-02  0.89004280756E+00  0.88000000000E+00 0. -1.
        -11    1    4    4    0    0 -0.32589087985E-01  0.75011623220E-02  0.41029551377E-02  0.33695867012E-01  0.51100000000E-03 0. -1.
         11    1    4    4    0    0 -0.95549905670E-01  0.48972399122E-02 -0.17515357183E-01  0.97266727561E-01  0.51100000000E-03 0.  1.
</event>
<event>
 8    1  0.1075206E+005  0.1043930E+01  0.7957747E-01            NaN
         13   -1    0    0    0    0  0.00000000000E+00  0.00000000000E+00  0.74505805969E-08  0.10566000000E+00  0.10566000000E+00 0. -1.
     999900   -1    0    0    0    0 -0.00000000000E+00 -0.00000000000E+00 -0.74505805969E-08  0.93827000000E+00  0.93827000000E+00 0. -1.
     999902    2    1    2    0    0 -0.15826580019E-01 -0.14907875163E-01 -0.88002931552E-02  0.10204742856E+01  0.10202046839E+01 0.  0.
     999903    2    3    3    0    0 -0.70594279236E-01  0.45527688121E-01  0.98487976733E-01  0.13021436233E+00  0.14127135181E-01 0.  0.
         14    1    1    2    0    0  0.15826580019E-01  0.14907875163E-01  0.88002931552E-02  0.23455714369E-01  0.00000000000E+00 0. -1.
     999901    1    3    3    0    0  0.54767699218E-01 -0.60435563283E-01 -0.10728826989E+00  0.89025992330E+00  0.88000000000E+00 0. -1.
        -11    1    4    4    0    0 -0.28399693610E-01  0.20501763767E-01  0.30993563285E-01  0.46773144012E-01  0.51100000000E-03 0. -1.
         11    1    4    4    0    0 -0.42194585626E-01  0.25025924354E-01  0.67494413448E-01  0.83441218314E-01  0.51100000000E-03 0.  1.
</event>
<event>
 8    1  0.1075206E+005  0.1043930E+01  0.7957747E-01            NaN
         13   -1    0    0    0    0  0.00000000000E+00  0.00000000000E+00  0.74505805969E-08  0.10566000000E+00  0.10566000000E+00 0.  1.
     999900   -1    0    0    0    0 -0.00000000000E+00 -0.00000000000E+00 -0.74505805969E-08  0.93827000000E+00  0.93827000000E+00 0. -1.
     999902    2    1    2    0    0  0.15768552625E-02 -0.15160648351E-01 -0.18126189421E-01  0.10202468736E+01  0.10199719568E+01 0.  0.
     999903    2    3    3    0    0  0.88483399555E-01  0.41134365649E-01 -0.86609379085E-01  0.13153329588E+00  0.16687580567E-01 0.  0.
         14    1    1    2    0    0 -0.15768552625E-02  0.15160648351E-01  0.18126189421E-01  0.23683126353E-01  0.00000000000E+00 0.  1.
     999901    1    3    3    0    0 -0.86906544293E-01 -0.56295014000E-01  0.68483189664E-01  0.88871357777E+00  0.88000000000E+00 0.  1.
        -11    1    4    4    0    0  0.19291869244E-01  0.63407044858E-02 -0.27067388936E-01  0.33842065793E-01  0.51100000000E-03 0.  1.
         11    1    4    4    0    0  0.69191530311E-01  0.34793661163E-01 -0.59541990149E-01  0.97691230086E-01  0.51100000000E-03 0. -1.
</event>
<event>
 8    1  0.1075206E+005  0.1043930E+01  0.7957747E-01            NaN
         13   -1    0    0    0    0  0.00000000000E+00  0.00000000000E+00  0.74505805969E-08  0.10566000000E+00  0.10566000000E+00 0. -1.
     999900   -1    0    0    0    0 -0.00000000000E+00 -0.00000000000E+00 -0.74505805969E-08  0.93827000000E+00  0.93827000000E+00 0.  1.
     999902    2    1    2    0    0  0.38239764689E-02  0.76401973511E-03 -0.23288344068E-01  0.10203174294E+01  0.10200441673E+01 0.  0.
     999903    2    3    3    0    0  0.49516174253E-01  0.57386018091E-01  0.10170509530E+00  0.12851185217E+00  0.20648562988E-01 0.  0.
         14    1    1    2    0    0 -0.38239764689E-02 -0.76401973511E-03  0.23288344068E-01  0.23612570627E-01  0.00000000000E+00 0. -1.
     999901    1    3    3    0    0 -0.45692197784E-01 -0.56621998356E-01 -0.12499343937E+00  0.89180557720E+00  0.88000000000E+00 0.  1.
        -11    1    4    4    0    0  0.38095407152E-01  0.30058885533E-01  0.69368734659E-01  0.84658603312E-01  0.51100000000E-03 0. -1.
         11    1    4    4    0    0  0.11420767101E-01  0.27327132558E-01  0.32336360646E-01  0.43853248863E-01  0.51100000000E-03 0.  1.
</event>
<event>
 7    1  0.1075206E+005  0.1043930E+01  0.7957747E-01            NaN
         13   -1    0    0    0    0  0.00000000000E+00  0.00000000000E+00  0.74505805969E-08  0.10566000000E+00  0.10566000000E+00 0. -1.
     999900   -1    0    0    0    0 -0.00000000000E+00 -0.00000000000E+00 -0.74505805969E-08  0.93827000000E+00  0.93827000000E+00 0. -1.
     999903    2    1    2    0    0  0.22045971753E-01  0.96456390348E-01 -0.16499656340E-01  0.10211600301E+00  0.19120128174E-01 0.  0.
         14    1    1    2    0    0  0.16854743472E-01  0.34984870659E-01 -0.31363133841E-01  0.49916627659E-01  0.00000000000E+00 0.  1.
     999901    1    1    2    0    0 -0.38900715224E-01 -0.13144126101E+00  0.47862790181E-01  0.89189736933E+00  0.88000000000E+00 0.  1.
        -11    1    3    3    0    0  0.19485519500E-01  0.87930100747E-01 -0.90901996269E-02  0.90522267635E-01  0.51100000000E-03 0. -1.
         11    1    3    3    0    0  0.25604522527E-02  0.85262896010E-02 -0.74094567130E-02  0.11593735372E-01  0.51100000000E-03 0.  1.
</event>
<event>
 8    1  0.1075206E+005  0.1043930E+01  0.7957747E-01            NaN
         13   -1    0    0    0    0  0.00000000000E+00  0.00000000000E+00  0.74505805969E-08  0.10566000000E+00  0.10566000000E+00 0. -1.
     999900   -1    0    0    0    0 -0.00000000000E+00 -0.00000000000E+00 -0.74505805969E-08  0.93827000000E+00  0.93827000000E+00 0. -1.
     999902    2    1    2    0    0  0.19612994587E-01  0.24999180363E-01 -0.83255528123E-02  0.10110827261E+01  0.10105490268E+01 0.  0.
     999903    2    3    3    0    0 -0.10024584120E+00 -0.54688992290E-01 -0.27543429049E-01  0.11918269122E+00  0.20143456721E-01 0.  0.
         14    1    1    2    0    0 -0.19612994587E-01 -0.24999180363E-01  0.83255528123E-02  0.32847273938E-01  0.00000000000E+00 0. -1.
     999901    1    3    3    0    0  0.11985883578E+00  0.79688172653E-01  0.19217876237E-01  0.89190003484E+00  0.88000000000E+00 0. -1.
        -11    1    4    4    0    0 -0.24662252755E-01 -0.90750639941E-02 -0.14270832590E-01  0.29908214278E-01  0.51100000000E-03 0. -1.
         11    1    4    4    0    0 -0.75583588442E-01 -0.45613928296E-01 -0.13272596459E-01  0.89274476947E-01  0.51100000000E-03 0.  1.
</event>
<event>
 8    1  0.1075206E+005  0.1043930E+01  0.7957747E-01            NaN
         13   -1    0    0    0    0  0.00000000000E+00  0.00000000000E+00  0.74505805969E-08  0.10566000000E+00  0.10566000000E+00 0.  1.
     999900   -1    0    0    0    0 -0.00000000000E+00 -0.00000000000E+00 -0.74505805969E-08  0.93827000000E+00  0.93827000000E+00 0.  1.
     999902    2    1    2    0    0  0.98478069942E-03  0.87836428063E-02 -0.21951357005E-01  0.10202660137E+01  0.10199915463E+01 0.  0.
     999903    2    3    3    0    0 -0.47325870260E-01 -0.11760976928E+00  0.14598751262E-01  0.12917391742E+00  0.20024524375E-01 0.  0.
         14    1    1    2    0    0 -0.98478069942E-03 -0.87836428063E-02  0.21951357005E-01  0.23663986315E-01  0.00000000000E+00 0.  1.
     999901    1    3    3    0    0  0.48310650959E-01  0.12639341209E+00 -0.36550108266E-01  0.89109209627E+00  0.88000000000E+00 0.  1.
        -11    1    4    4    0    0 -0.13871861191E-01 -0.44016158359E-01 -0.36515225088E-02  0.46297359181E-01  0.51100000000E-03 0. -1.
         11    1    4    4    0    0 -0.33454009069E-01 -0.73593610923E-01  0.18250273770E-01  0.82876558236E-01  0.51100000000E-03 0.  1.
</event>
<event>
 8    1  0.1075206E+005  0.1043930E+01  0.7957747E-01            NaN
         13   -1    0    0    0    0  0.00000000000E+00  0.00000000000E+00  0.74505805969E-08  0.10566000000E+00  0.10566000000E+00 0.  1.
     999900   -1    0    0    0    0 -0.00000000000E+00 -0.00000000000E+00 -0.74505805969E-08  0.93827000000E+00  0.93827000000E+00 0.  1.
     999902    2    1    2    0    0 -0.21003502755E-01 -0.11174089927E-01  0.25734120264E-02  0.10200003142E+01  0.10197195747E+01 0.  0.
     999903    2    3    3    0    0  0.81551945864E-01  0.62157353557E-01  0.74215464676E-01  0.12813277674E+00  0.19895145195E-01 0.  0.
         14    1    1    2    0    0  0.21003502755E-01  0.11174089927E-01 -0.25734120264E-02  0.23929685813E-01  0.00000000000E+00 0. -1.
     999901    1    3    3    0    0 -0.10255544862E+00 -0.73331443484E-01 -0.71642052650E-01  0.89186753745E+00  0.88000000000E+00 0.  1.
        -11    1    4    4    0    0  0.19756413390E-01  0.99535153181E-02  0.77895596840E-02  0.23459042997E-01  0.51100000000E-03 0. -1.
         11    1    4    4    0    0  0.61795532474E-01  0.52203838239E-01  0.66425904992E-01  0.10467373374E+00  0.51100000000E-03 0.  1.
</event>
<event>
 8    1  0.1075206E+005  0.1043930E+01  0.7957747E-01            NaN
         13   -1    0    0    0    0  0.00000000000E+00  0.00000000000E+00  0.74505805969E-08  0.10566000000E+00  0.10566000000E+00 0. -1.
     999900   -1    0    0    0    0 -0.00000000000E+00 -0.00000000000E+00 -0.74505805969E-08  0.93827000000E+00  0.93827000000E+00 0.  1.
     999902    2    1    2    0    0 -0.26125577135E-02  0.17481012996E-01 -0.11132705472E-01  0.10230410459E+01  0.10228277632E+01 0.  0.
     999903    2    3    3    0    0  0.31425185681E-01  0.92851274779E-01  0.88332050575E-01  0.13358476138E+00  0.20819120804E-01 0.  0.
         14    1    1    2    0    0  0.26125577135E-02 -0.17481012996E-01  0.11132705472E-01  0.20888954122E-01  0.00000000000E+00 0. -1.
     999901    1    3    3    0    0 -0.34037743395E-01 -0.75370261783E-01 -0.99464756047E-01  0.88945628450E+00  0.88000000000E+00 0.  1.
        -11    1    4    4    0    0  0.16236900241E-01  0.27173085583E-01  0.37969173874E-01  0.49436148669E-01  0.51100000000E-03 0. -1.
         11    1    4    4    0    0  0.15188285441E-01  0.65678189196E-01  0.50362876702E-01  0.84148612712E-01  0.51100000000E-03 0.  1.
</event>
<event>
 8    1  0.1075206E+005  0.1043930E+01  0.7957747E-01            NaN
         13   -1    0    0    0    0  0.00000000000E+00  0.00000000000E+00  0.74505805969E-08  0.10566000000E+00  0.10566000000E+00 0.  1.
     999900   -1    0    0    0    0 -0.00000000000E+00 -0.00000000000E+00 -0.74505805969E-08  0.93827000000E+00  0.93827000000E+00 0. -1.
     999902    2    1    2    0    0 -0.50519115364E-03 -0.11830021510E-01  0.20456031298E-01  0.10202941407E+01  0.10200203330E+01 0.  0.
     999903    2    3    3    0    0  0.34848384049E-01 -0.10014810182E+00  0.78167959428E-01  0.13328758763E+00  0.20280507074E-01 0.  0.
         14    1    1    2    0    0  0.50519115364E-03  0.11830021510E-01 -0.20456031298E-01  0.23635859271E-01  0.00000000000E+00 0. -1.
     999901    1    3    3    0    0 -0.35353575203E-01  0.88318080307E-01 -0.57711928131E-01  0.88700655310E+00  0.88000000000E+00 0. -1.
        -11    1    4    4    0    0  0.23120577737E-01 -0.36323375669E-01  0.31750328328E-01  0.53500403782E-01  0.51100000000E-03 0.  1.
         11    1    4    4    0    0  0.11727806312E-01 -0.63824726148E-01  0.46417631101E-01  0.79787183850E-01  0.51100000000E-03 0. -1.
</event>
<event>
 8    1  0.1075206E+005  0.1043930E+01  0.7957747E-01            NaN
         13   -1    0    0    0    0  0.00000000000E+00  0.00000000000E+00  0.74505805969E-08  0.10566000000E+00  0.10566000000E+00 0. -1.
     999900   -1    0    0    0    0 -0.00000000000E+00 -0.00000000000E+00 -0.74505805969E-08  0.93827000000E+00  0.93827000000E+00 0. -1.
     999902    2    1    2    0    0 -0.24834615148E-02  0.20439987647E-01 -0.12462887683E-01  0.10198616755E+01  0.10195776345E+01 0.  0.
     999903    2    3    3    0    0  0.39139180773E-01  0.52011201644E-01 -0.11364499216E+00  0.13252464583E+00  0.20262204743E-01 0.  0.
         14    1    1    2    0    0  0.24834615148E-02 -0.20439987647E-01  0.12462887683E-01  0.24068324526E-01  0.00000000000E+00 0.  1.
     999901    1    3    3    0    0 -0.41622642288E-01 -0.31571213997E-01  0.10118210448E+00  0.88733702964E+00  0.88000000000E+00 0.  1.
        -11    1    4    4    0    0  0.14351160481E-02  0.59282360333E-02 -0.24995778490E-01  0.25734288486E-01  0.51100000000E-03 0. -1.
         11    1    4    4    0    0  0.37704064725E-01  0.46082965611E-01 -0.88649213675E-01  0.10679035735E+00  0.51100000000E-03 0.  1.
</event>
<event>
 8    1  0.1075206E+005  0.1043930E+01  0.7957747E-01            NaN
         13   -1    0    0    0    0  0.00000000000E+00  0.00000000000E+00  0.74505805969E-08  0.10566000000E+00  0.10566000000E+00 0. -1.
     999900   -1    0    0    0    0 -0.00000000000E+00 -0.00000000000E+00 -0.74505805969E-08  0.93827000000E+00  0.93827000000E+00 0. -1.
     999902    2    1    2    0    0  0.56112026108E-02 -0.38485990622E-02  0.22462646740E-01  0.10204594268E+01  0.10201894794E+01 0.  0.
     999903    2    3    3    0    0  0.66761853921E-01  0.78664969531E-01  0.80795569627E-01  0.13256831798E+00  0.20027787981E-01 0.  0.
         14    1    1    2    0    0 -0.56112026108E-02  0.38485990622E-02 -0.22462646740E-01  0.23470573237E-01  0.00000000000E+00 0.  1.
     999901    1    3    3    0    0 -0.61150651310E-01 -0.82513568593E-01 -0.58332922886E-01  0.88789110878E+00  0.88000000000E+00 0. -1.
        -11    1    4    4    0    0  0.59809769156E-01  0.74290395622E-01  0.67186320633E-01  0.11666419403E+00  0.51100000000E-03 0. -1.
         11    1    4    4    0    0  0.69520847647E-02  0.43745739092E-02  0.13609248994E-01  0.15904123950E-01  0.51100000000E-03 0.  1.
</event>
<event>
 8    1  0.1075206E+005  0.1043930E+01  0.7957747E-01            NaN
         13   -1    0    0    0    0  0.00000000000E+00  0.00000000000E+00  0.74505805969E-08  0.10566000000E+00  0.10566000000E+00 0.  1.
     999900   -1    0    0    0    0 -0.00000000000E+00 -0.00000000000E+00 -0.74505805969E-08  0.93827000000E+00  0.93827000000E+00 0. -1.
     999902    2    1    2    0    0  0.53191158359E-02  0.22584921103E-01  0.57199557568E-02  0.10200325200E+01  0.10197525447E+01 0.  0.
     999903    2    3    3    0    0  0.71725238798E-01 -0.10272394354E+00  0.19566377777E-01  0.12857090666E+00  0.21234793217E-01 0.  0.
         14    1    1    2    0    0 -0.53191158359E-02 -0.22584921103E-01 -0.57199557568E-02  0.23897479959E-01  0.00000000000E+00 0.  1.
     999901    1    3    3    0    0 -0.66406122962E-01  0.12530886465E+00 -0.13846422020E-01  0.89146161338E+00  0.88000000000E+00 0.  1.
        -11    1    4    4    0    0  0.32598533111E-01 -0.55702554775E-01  0.19409059279E-01  0.67397415919E-01  0.51100000000E-03 0.  1.
         11    1    4    4    0    0  0.39126705687E-01 -0.47021388768E-01  0.15731849744E-03  0.61173490744E-01  0.51100000000E-03 0. -1.
</event>
<event>
 8    1  0.1075206E+005  0.1043930E+01  0.7957747E-01            NaN
         13   -1    0    0    0    0  0.00000000000E+00  0.00000000000E+00  0.74505805969E-08  0.10566000000E+00  0.10566000000E+00 0. -1.
     999900   -1    0    0    0    0 -0.00000000000E+00 -0.00000000000E+00 -0.74505805969E-08  0.93827000000E+00  0.93827000000E+00 0. -1.
     999902    2    1    2    0    0  0.10621724037E-01 -0.12392763998E-01  0.17111626781E-01  0.10202823914E+01  0.10200083082E+01 0.  0.
     999903    2    3    3    0    0 -0.52640191745E-01  0.10892534293E+00 -0.36655160024E-01  0.12808789444E+00  0.20668522568E-01 0.  0.
         14    1    1    2    0    0 -0.10621724037E-01  0.12392763998E-01 -0.17111626781E-01  0.23647608592E-01  0.00000000000E+00 0.  1.
     999901    1    3    3    0    0  0.63261915782E-01 -0.12131810693E+00  0.53766786805E-01  0.89219449697E+00  0.88000000000E+00 0. -1.
        -11    1    4    4    0    0 -0.41336060002E-01  0.84439947852E-01 -0.19192922202E-01  0.95955218896E-01  0.51100000000E-03 0. -1.
         11    1    4    4    0    0 -0.11304131743E-01  0.24485395082E-01 -0.17462237822E-01  0.32132675543E-01  0.51100000000E-03 0.  1.
</event>
<event>
 8    1  0.1075206E+005  0.1043930E+01  0.7957747E-01            NaN
         13   -1    0    0    0    0  0.00000000000E+00  0.00000000000E+00  0.74505805969E-08  0.10566000000E+00  0.10566000000E+00 0. -1.
     999900   -1    0    0    0    0 -0.00000000000E+00 -0.00000000000E+00 -0.74505805969E-08  0.93827000000E+00  0.93827000000E+00 0. -1.
     999902    2    1    2    0    0  0.17944218189E-01  0.11718907054E-01 -0.20919236483E-02  0.10223962151E+01  0.10221694168E+01 0.  0.
     999903    2    3    3    0    0  0.75084057712E-01 -0.89171245552E-01 -0.60434773768E-01  0.13287517973E+00  0.20354968715E-01 0.  0.
         14    1    1    2    0    0 -0.17944218189E-01 -0.11718907054E-01  0.20919236483E-02  0.21533784932E-01  0.00000000000E+00 0. -1.
     999901    1    3    3    0    0 -0.57139839523E-01  0.10089015261E+00  0.58342850120E-01  0.88952103534E+00  0.88000000000E+00 0.  1.
        -11    1    4    4    0    0  0.58899001627E-01 -0.78509129996E-01 -0.44436751657E-01  0.10773885977E+00  0.51100000000E-03 0. -1.
         11    1    4    4    0    0  0.16185056085E-01 -0.10662115555E-01 -0.15998022111E-01  0.25136319959E-01  0.51100000000E-03 0.  1.
</event>
<event>
 8    1  0.1075206E+005  0.1043930E+01  0.7957747E-01            NaN
         13   -1    0    0    0    0  0.00000000000E+00  0.00000000000E+00  0.74505805969E-08  0.10566000000E+00  0.10566000000E+00 0.  1.
     999900   -1    0    0    0    0 -0.00000000000E+00 -0.00000000000E+00 -0.74505805969E-08  0.93827000000E+00  0.93827000000E+00 0.  1.
     999902    2    1    2    0    0 -0.16891458316E-01  0.13011555161E-01  0.11391987842E-01  0.10197556475E+01  0.10194690683E+01 0.  0.
     999903    2    3    3    0    0  0.81697901002E-01 -0.40943243067E-01  0.88913240557E-01  0.12922741850E+00  0.21053863430E-01 0.  0.
         14    1    1    2    0    0  0.16891458316E-01 -0.13011555161E-01 -0.11391987842E-01  0.24174352499E-01  0.00000000000E+00 0. -1.
     999901    1    3    3    0    0 -0.98589359318E-01  0.53954798228E-01 -0.77521252715E-01  0.89052822900E+00  0.88000000000E+00 0.  1.
        -11    1    4    4    0    0  0.34183978621E-01 -0.27217483758E-01  0.49140768735E-01  0.65760262236E-01  0.51100000000E-03 0.  1.
         11    1    4    4    0    0  0.47513922381E-01 -0.13725759309E-01  0.39772471821E-01  0.63467156266E-01  0.51100000000E-03 0. -1.
</event>
<event>
 8    1  0.1075206E+005  0.1043930E+01  0.7957747E-01            NaN
         13   -1    0    0    0    0  0.00000000000E+00  0.00000000000E+00  0.74505805969E-08  0.10566000000E+00  0.10566000000E+00 0. -1.
     999900   -1    0    0    0    0 -0.00000000000E+00 -0.00000000000E+00 -0.74505805969E-08  0.93827000000E+00  0.93827000000E+00 0.  1.
     999902    2    1    2    0    0  0.15956904228E-01  0.12101158148E-01 -0.11272536944E-01  0.10209489010E+01  0.10206902212E+01 0.  0.
     999903    2    3    3    0    0 -0.10724127650E+00  0.68774917801E-01 -0.20339779005E-01  0.13051534278E+00  0.19745059809E-01 0.  0.
         14    1    1    2    0    0 -0.15956904228E-01 -0.12101158148E-01  0.11272536944E-01  0.22981098977E-01  0.00000000000E+00 0. -1.
     999901    1    3    3    0    0  0.12319818073E+00 -0.56673759654E-01  0.90672420615E-02  0.89043355824E+00  0.88000000000E+00 0.  1.
        -11    1    4    4    0    0 -0.37449450205E-01  0.16347934700E-01 -0.13148066131E-01  0.42928417786E-01  0.51100000000E-03 0.  1.
         11    1    4    4    0    0 -0.69791826295E-01  0.52426983101E-01 -0.71917128737E-02  0.87586924993E-01  0.51100000000E-03 0. -1.
</event>
<event>
 8    1  0.1075206E+005  0.1043930E+01  0.7957747E-01            NaN
         13   -1    0    0    0    0  0.00000000000E+00  0.00000000000E+00  0.74505805969E-08  0.10566000000E+00  0.10566000000E+00 0.  1.
     999900   -1    0    0    0    0 -0.00000000000E+00 -0.00000000000E+00 -0.74505805969E-08  0.93827000000E+00  0.93827000000E+00 0.  1.
     999902    2    1    2    0    0  0.11029732039E-01 -0.34743070785E-02 -0.17215969927E-01  0.10231907758E+01  0.10229805708E+01 0.  0.
     999903    2    3    3    0    0  0.12195748328E+00 -0.48870181808E-01 -0.23478713277E-01  0.13504384351E+00  0.20583179921E-01 0.  0.
         14    1    1    2    0    0 -0.11029732039E-01  0.34743070785E-02  0.17215969927E-01  0.20739224167E-01  0.00000000000E+00 0.  1.
     999901    1    3    3    0    0 -0.11092775124E+00  0.45395874730E-01  0.62627433500E-02  0.88814693232E+00  0.88000000000E+00 0.  1.
        -11    1    4    4    0    0  0.37246495944E-01 -0.50332901845E-02 -0.57000803892E-02  0.38018252296E-01  0.51100000000E-03 0.  1.
         11    1    4    4    0    0  0.84710987334E-01 -0.43836891624E-01 -0.17778632888E-01  0.97025591216E-01  0.51100000000E-03 0. -1.
</event>
<event>
 8    1  0.1075206E+005  0.1043930E+01  0.7957747E-01            NaN
         13   -1    0    0    0    0  0.00000000000E+00  0.00000000000E+00  0.74505805969E-08  0.10566000000E+00  0.10566000000E+00 0. -1.
     999900   -1    0    0    0    0 -0.00000000000E+00 -0.00000000000E+00 -0.74505805969E-08  0.93827000000E+00  0.93827000000E+00 0.  1.
     999902    2    1    2    0    0 -0.15368847995E-01 -0.97422637012E-02 -0.15000899698E-01  0.10203473754E+01  0.10200748141E+01 0.  0.
     999903    2    3    3    0    0  0.11165442391E+00 -0.61993992600E-01  0.11250614641E-01  0.12930624461E+00  0.16839331006E-01 0.  0.
         14    1    1    2    0    0  0.15368847995E-01  0.97422637012E-02  0.15000899698E-01  0.23582624588E-01  0.00000000000E+00 0. -1.
     999901    1    3    3    0    0 -0.12702327190E+00  0.52251728899E-01 -0.26251514339E-01  0.89104113080E+00  0.88000000000E+00 0.  1.
        -11    1    4    4    0    0  0.79932618819E-01 -0.42342331226E-01  0.45709896771E-03  0.90457540456E-01  0.51100000000E-03 0.  1.
         11    1    4    4    0    0  0.31721805088E-01 -0.19651661374E-01  0.10793515673E-01  0.38848704153E-01  0.51100000000E-03 0. -1.
</event>
<event>
 8    1  0.1075206E+005  0.1043930E+01  0.7957747E-01            NaN
         13   -1    0    0    0    0  0.00000000000E+00  0.00000000000E+00  0.74505805969E-08  0.10566000000E+00  0.10566000000E+00 0.  1.
     999900   -1    0    0    0    0 -0.00000000000E+00 -0.00000000000E+00 -0.74505805969E-08  0.93827000000E+00  0.93827000000E+00 0. -1.
     999902    2    1    2    0    0  0.11665149678E-01 -0.19452899073E-01 -0.72979141500E-02  0.10201024833E+01  0.10198241642E+01 0.  0.
     999903    2    3    3    0    0 -0.59183386650E-01  0.91535271503E-01 -0.65144312678E-01  0.12842760148E+00  0.19196045526E-01 0.  0.
         14    1    1    2    0    0 -0.11665149678E-01  0.19452899073E-01  0.72979141500E-02  0.23827516662E-01  0.00000000000E+00 0. -1.
     999901    1    3    3    0    0  0.70848536329E-01 -0.11098817058E+00  0.57846398528E-01  0.89167488185E+00  0.88000000000E+00 0.  1.
        -11    1    4    4    0    0 -0.22726775481E-01  0.20891891712E-01 -0.14007677091E-01  0.33903592753E-01  0.51100000000E-03 0. -1.
         11    1    4    4    0    0 -0.36456611170E-01  0.70643379791E-01 -0.51136635587E-01  0.94524008730E-01  0.51100000000E-03 0.  1.
</event>
<event>
 8    1  0.1075206E+005  0.1043930E+01  0.7957747E-01            NaN
         13   -1    0    0    0    0  0.00000000000E+00  0.00000000000E+00  0.74505805969E-08  0.10566000000E+00  0.10566000000E+00 0. -1.
     999900   -1    0    0    0    0 -0.00000000000E+00 -0.00000000000E+00 -0.74505805969E-08  0.93827000000E+00  0.93827000000E+00 0. -1.
     999902    2    1    2    0    0  0.20801435990E-01 -0.75293719957E-02 -0.83292668910E-02  0.10202917287E+01  0.10200178645E+01 0.  0.
     999903    2    3    3    0    0 -0.10373402879E-01 -0.19230639674E-01  0.12606121954E+00  0.12946649722E+00  0.19817109831E-01 0.  0.
         14    1    1    2    0    0 -0.20801435990E-01  0.75293719957E-02  0.83292668910E-02  0.23638271274E-01  0.00000000000E+00 0. -1.
     999901    1    3    3    0    0  0.31174838869E-01  0.11701267679E-01 -0.13439048643E+00  0.89082523150E+00  0.88000000000E+00 0. -1.
        -11    1    4    4    0    0 -0.93169595045E-02  0.29948764124E-03  0.53768937439E-01  0.54573392615E-01  0.51100000000E-03 0.  1.
         11    1    4    4    0    0 -0.10564433742E-02 -0.19530127316E-01  0.72292282097E-01  0.74893104605E-01  0.51100000000E-03 0. -1.
</event>
<event>
 8    1  0.1075206E+005  0.1043930E+01  0.7957747E-01            NaN
         13   -1    0    0    0    0  0.00000000000E+00  0.00000000000E+00  0.74505805969E-08  0.10566000000E+00  0.10566000000E+00 0. -1.
     999900   -1    0    0    0    0 -0.00000000000E+00 -0.00000000000E+00 -0.74505805969E-08  0.93827000000E+00  0.93827000000E+00 0. -1.
     999902    2    1    2    0    0  0.13838981939E-01  0.18366238552E-01 -0.88016779422E-02  0.10193067249E+01  0.10190092707E+01 0.  0.
     999903    2    3    3    0    0  0.75355856273E-01  0.46348239021E-01  0.94580329417E-01  0.13068129338E+00  0.17478483714E-01 0.  0.
         14    1    1    2    0    0 -0.13838981939E-01 -0.18366238552E-01  0.88016779422E-02  0.24623275051E-01  0.00000000000E+00 0.  1.
     999901    1    3    3    0    0 -0.61516874334E-01 -0.27982000469E-01 -0.10338200736E+00  0.88862543156E+00  0.88000000000E+00 0. -1.
        -11    1    4    4    0    0  0.68810236751E-01  0.36000280563E-01  0.84922653894E-01  0.11507817842E+00  0.51100000000E-03 0.  1.
         11    1    4    4    0    0  0.65456195222E-02  0.10347958458E-01  0.96576755234E-02  0.15603114968E-01  0.51100000000E-03 0. -1.
</event>
<event>
 8    1  0.1075206E+005  0.1043930E+01  0.7957747E-01            NaN
         13   -1    0    0    0    0  0.00000000000E+00  0.00000000000E+00  0.74505805969E-08  0.10566000000E+00  0.10566000000E+00 0.  1.
     999900   -1    0    0    0    0 -0.00000000000E+00 -0.00000000000E+00 -0.74505805969E-08  0.93827000000E+00  0.93827000000E+00 0. -1.
     999902    2    1    2    0    0  0.78358397193E-02  0.22117709302E-01 -0.43010303871E-02  0.10200743443E+01  0.10197953596E+01 0.  0.
     999903    2    3    3    0    0 -0.37905094732E-01 -0.11364525818E+00 -0.39764517848E-01  0.12778432673E+00  0.19889101649E-01 0.  0.
         14    1    1    2    0    0 -0.78358397193E-02 -0.22117709302E-01  0.43010303871E-02  0.23855655750E-01  0.00000000000E+00 0.  1.
     999901    1    3    3    0    0  0.45740934451E-01  0.13576296748E+00  0.35463487461E-01  0.89229001752E+00  0.88000000000E+00 0.  1.
        -11    1    4    4    0    0 -0.13512469386E-01 -0.59202582953E-01 -0.28450730704E-01  0.67061448358E-01  0.51100000000E-03 0. -1.
         11    1    4    4    0    0 -0.24392625346E-01 -0.54442675228E-01 -0.11313787144E-01  0.60722878372E-01  0.51100000000E-03 0.  1.
</event>
<event>
 8    1  0.1075206E+005  0.1043930E+01  0.7957747E-01            NaN
         13   -1    0    0    0    0  0.00000000000E+00  0.00000000000E+00  0.74505805969E-08  0.10566000000E+00  0.10566000000E+00 0. -1.
     999900   -1    0    0    0    0 -0.00000000000E+00 -0.00000000000E+00 -0.74505805969E-08  0.93827000000E+00  0.93827000000E+00 0.  1.
     999902    2    1    2    0    0 -0.14170501472E-01 -0.12100038065E-02  0.19863735033E-01  0.10194997894E+01  0.10192070375E+01 0.  0.
     999903    2    3    3    0    0  0.59323257999E-01 -0.22488332710E-01  0.11313895714E+00  0.13126875693E+00  0.20151646979E-01 0.  0.
         14    1    1    2    0    0  0.14170501472E-01  0.12100038065E-02 -0.19863735033E-01  0.24430210614E-01  0.00000000000E+00 0.  1.
     999901    1    3    3    0    0 -0.73493759471E-01  0.21278328903E-01 -0.93275222104E-01  0.88823103246E+00  0.88000000000E+00 0. -1.
        -11    1    4    4    0    0  0.31871776600E-01 -0.13328287370E-02  0.54633184579E-01  0.63266361950E-01  0.51100000000E-03 0.  1.
         11    1    4    4    0    0  0.27451481398E-01 -0.21155503973E-01  0.58505772558E-01  0.68002394979E-01  0.51100000000E-03 0. -1.
</event>
<event>
 8    1  0.1075206E+005  0.1043930E+01  0.7957747E-01            NaN
         13   -1    0    0    0    0  0.00000000000E+00  0.00000000000E+00  0.74505805969E-08  0.10566000000E+00  0.10566000000E+00 0.  1.
     999900   -1    0    0    0    0 -0.00000000000E+00 -0.00000000000E+00 -0.74505805969E-08  0.93827000000E+00  0.93827000000E+00 0.  1.
     999902    2    1    2    0    0 -0.18789044670E-01 -0.49125549897E-02  0.14647146467E-01  0.10196051095E+01  0.10193149067E+01 0.  0.
     999903    2    3    3    0    0 -0.12583344238E+00 -0.39909289618E-01  0.88478806388E-03  0.13232123331E+00  0.90177222870E-02 0.  0.
         14    1    1    2    0    0  0.18789044670E-01  0.49125549897E-02 -0.14647146467E-01  0.24324890458E-01  0.00000000000E+00 0.  1.
     999901    1    3    3    0    0  0.10704439771E+00  0.34996734628E-01  0.13762358403E-01  0.88728387623E+00  0.88000000000E+00 0. -1.
        -11    1    4    4    0    0 -0.40441583286E-01 -0.12314455503E-01  0.44331750106E-02  0.42509782812E-01  0.51100000000E-03 0.  1.
         11    1    4    4    0    0 -0.85391859095E-01 -0.27594834114E-01 -0.35483869468E-02  0.89811450497E-01  0.51100000000E-03 0. -1.
</event>
<event>
 8    1  0.1075206E+005  0.1043930E+01  0.7957747E-01            NaN
         13   -1    0    0    0    0  0.00000000000E+00  0.00000000000E+00  0.74505805969E-08  0.10566000000E+00  0.10566000000E+00 0. -1.
     999900   -1    0    0    0    0 -0.00000000000E+00 -0.00000000000E+00 -0.74505805969E-08  0.93827000000E+00  0.93827000000E+00 0.  1.
     999902    2    1    2    0    0 -0.67488677431E-03  0.23254284654E-01  0.96371570988E-02  0.10187488161E+01  0.10184375574E+01 0.  0.
     999903    2    3    3    0    0 -0.14269394681E-01 -0.26939820485E-01  0.12459837076E+00  0.12974918757E+00  0.19512255798E-01 0.  0.
         14    1    1    2    0    0  0.67488677431E-03 -0.23254284654E-01 -0.96371570988E-02  0.25181183926E-01  0.00000000000E+00 0.  1.
     999901    1    3    3    0    0  0.13594507907E-01  0.50194105139E-01 -0.11496121366E+00  0.88899962851E+00  0.88000000000E+00 0.  1.
        -11    1    4    4    0    0 -0.11711748446E-01 -0.77069176758E-02  0.29186857171E-01  0.32383566577E-01  0.51100000000E-03 0.  1.
         11    1    4    4    0    0 -0.25576462350E-02 -0.19232902809E-01  0.95411513589E-01  0.97365620992E-01  0.51100000000E-03 0. -1.
</event>
<event>
 8    1  0.1075206E+005  0.1043930E+01  0.7957747E-01            NaN
         13   -1    0    0    0    0  0.00000000000E+00  0.00000000000E+00  0.74505805969E-08  0.10566000000E+00  0.10566000000E+00 0.  1.
     999900   -1    0    0    0    0 -0.00000000000E+00 -0.00000000000E+00 -0.74505805969E-08  0.93827000000E+00  0.93827000000E+00 0. -1.
     999902    2    1    2    0    0 -0.47703437853E-02  0.27185824719E-01 -0.73046518896E-02  0.10153785870E+01  0.10149770893E+01 0.  0.
     999903    2    3    3    0    0 -0.10514621527E+00 -0.21898440024E-02 -0.68459527072E-01  0.12707786975E+00  0.20038865513E-01 0.  0.
         14    1    1    2    0    0  0.47703437853E-02 -0.27185824719E-01  0.73046518896E-02  0.28551413008E-01  0.00000000000E+00 0.  1.
     999901    1    3    3    0    0  0.10037587149E+00  0.29375668722E-01  0.61154875182E-01  0.88830071724E+00  0.88000000000E+00 0.  1.
        -11    1    4    4    0    0 -0.93883873142E-01  0.44076122838E-02 -0.60668793834E-01  0.11186854942E+00  0.51100000000E-03 0.  1.
         11    1    4    4    0    0 -0.11262342132E-01 -0.65974562863E-02 -0.77907332376E-02  0.15209320337E-01  0.51100000000E-03 0. -1.
</event>
<event>
 8    1  0.1075206E+005  0.1043930E+01  0.7957747E-01            NaN
         13   -1    0    0    0    0  0.00000000000E+00  0.00000000000E+00  0.74505805969E-08  0.10566000000E+00  0.10566000000E+00 0.  1.
     999900   -1    0    0    0    0 -0.00000000000E+00 -0.00000000000E+00 -0.74505805969E-08  0.93827000000E+00  0.93827000000E+00 0. -1.
     999902    2    1    2    0    0 -0.87369860038E-02  0.26837736277E-02 -0.20854237642E-01  0.10211607929E+01  0.10209069145E+01 0.  0.
     999903    2    3    3    0    0 -0.44330612479E-01  0.65201526656E-01 -0.10646108664E+00  0.13408474863E+00  0.20695761978E-01 0.  0.
         14    1    1    2    0    0  0.87369860038E-02 -0.26837736277E-02  0.20854237642E-01  0.22769207121E-01  0.00000000000E+00 0.  1.
     999901    1    3    3    0    0  0.35593626475E-01 -0.62517753028E-01  0.85606849003E-01  0.88707604425E+00  0.88000000000E+00 0.  1.
        -11    1    4    4    0    0 -0.21289726806E-01  0.14679847031E-01 -0.30499175178E-01  0.39990138583E-01  0.51100000000E-03 0.  1.
         11    1    4    4    0    0 -0.23040885672E-01  0.50521679625E-01 -0.75961911467E-01  0.94094610044E-01  0.51100000000E-03 0. -1.
</event>
<event>
 8    1  0.1075206E+005  0.1043930E+01  0.7957747E-01            NaN
         13   -1    0    0    0    0  0.00000000000E+00  0.00000000000E+00  0.74505805969E-08  0.10566000000E+00  0.10566000000E+00 0. -1.
     999900   -1    0    0    0    0 -0.00000000000E+00 -0.00000000000E+00 -0.74505805969E-08  0.93827000000E+00  0.93827000000E+00 0.  1.
     999902    2    1    2    0    0  0.69513280078E-02 -0.15172761702E-01  0.16759084736E-01  0.10202783493E+01  0.10200041713E+01 0.  0.
     999903    2    3    3    0    0 -0.20720390398E-02 -0.26472763977E-01  0.12877216311E+00  0.13306020200E+00  0.20436408318E-01 0.  0.
         14    1    1    2    0    0 -0.69513280078E-02  0.15172761702E-01 -0.16759084736E-01  0.23651650681E-01  0.00000000000E+00 0.  1.
     999901    1    3    3    0    0  0.90233670476E-02  0.11300002275E-01 -0.11201307838E+00  0.88721814732E+00  0.88000000000E+00 0.  1.
        -11    1    4    4    0    0 -0.61412571077E-02  0.14407341955E-03  0.16807161165E-01  0.17901887706E-01  0.51100000000E-03 0. -1.
         11    1    4    4    0    0  0.40692180678E-02 -0.26616837396E-01  0.11196500195E+00  0.11515831429E+00  0.51100000000E-03 0.  1.
</event>
<event>
 8    1  0.1075206E+005  0.1043930E+01  0.7957747E-01            NaN
         13   -1    0    0    0    0  0.00000000000E+00  0.00000000000E+00  0.74505805969E-08  0.10566000000E+00  0.10566000000E+00 0. -1.
     999900   -1    0    0    0    0 -0.00000000000E+00 -0.00000000000E+00 -0.74505805969E-08  0.93827000000E+00  0.93827000000E+00 0.  1.
     999902    2    1    2    0    0 -0.25143576582E-03  0.25139015886E-01 -0.16786355568E-01  0.10137006257E+01  0.10132497932E+01 0.  0.
     999903    2    3    3    0    0 -0.92062341073E-01  0.52170541338E-01 -0.67518193452E-01  0.12705883493E+00  0.19697742472E-01 0.  0.
         14    1    1    2    0    0  0.25143576582E-03 -0.25139015886E-01  0.16786355568E-01  0.30229374339E-01  0.00000000000E+00 0. -1.
     999901    1    3    3    0    0  0.91810905307E-01 -0.27031525452E-01  0.50731837884E-01  0.88664179073E+00  0.88000000000E+00 0. -1.
        -11    1    4    4    0    0 -0.45623404395E-01  0.16845729223E-01 -0.37665246929E-01  0.61515896879E-01  0.51100000000E-03 0.  1.
         11    1    4    4    0    0 -0.46438936678E-01  0.35324812115E-01 -0.29852946523E-01  0.65542938047E-01  0.51100000000E-03 0. -1.
</event>
<event>
 8    1  0.1075206E+005  0.1043930E+01  0.7957747E-01            NaN
         13   -1    0    0    0    0  0.00000000000E+00  0.00000000000E+00  0.74505805969E-08  0.10566000000E+00  0.10566000000E+00 0. -1.
     999900   -1    0    0    0    0 -0.00000000000E+00 -0.00000000000E+00 -0.74505805969E-08  0.93827000000E+00  0.93827000000E+00 0.  1.
     999902    2    1    2    0    0  0.11356574245E-01 -0.12598619519E-01 -0.15699442317E-01  0.10208178932E+01  0.10205562217E+01 0.  0.
     999903    2    3    3    0    0 -0.65216429912E-01 -0.74750979273E-01 -0.85529822756E-01  0.13255969715E+00  0.20391937016E-01 0.  0.
         14    1    1    2    0    0 -0.11356574245E-01  0.12598619519E-01  0.15699442317E-01  0.23112106815E-01  0.00000000000E+00 0. -1.
     999901    1    3    3    0    0  0.76573004157E-01  0.62152359754E-01  0.69830380440E-01  0.88825819603E+00  0.88000000000E+00 0. -1.
        -11    1    4    4    0    0 -0.14990804560E-01 -0.16547666992E-01 -0.31411874323E-01  0.38542398390E-01  0.51100000000E-03 0.  1.
         11    1    4    4    0    0 -0.50225625353E-01 -0.58203312282E-01 -0.54117948434E-01  0.94017298761E-01  0.51100000000E-03 0. -1.
</event>
<event>
 8    1  0.1075206E+005  0.1043930E+01  0.7957747E-01            NaN
         13   -1    0    0    0    0  0.00000000000E+00  0.00000000000E+00  0.74505805969E-08  0.10566000000E+00  0.10566000000E+00 0.  1.
     999900   -1    0    0    0    0 -0.00000000000E+00 -0.00000000000E+00 -0.74505805969E-08  0.93827000000E+00  0.93827000000E+00 0.  1.
     999902    2    1    2    0    0 -0.18526644527E-01  0.36420423205E-02  0.14767037059E-01  0.10199598850E+01  0.10196781848E+01 0.  0.
     999903    2    3    3    0    0  0.12267904923E+00 -0.26473724808E-01  0.17118933172E-01  0.12819111520E+00  0.19720469479E-01 0.  0.
         14    1    1    2    0    0  0.18526644527E-01 -0.36420423205E-02 -0.14767037059E-01  0.23970115002E-01  0.00000000000E+00 0. -1.
     999901    1    3    3    0    0 -0.14120569376E+00  0.30115767129E-01 -0.23518961133E-02  0.89176876980E+00  0.88000000000E+00 0.  1.
        -11    1    4    4    0    0  0.81871936140E-01 -0.18774258451E-01  0.20879171424E-02  0.84024444221E-01  0.51100000000E-03 0.  1.
         11    1    4    4    0    0  0.40807113092E-01 -0.76994663571E-02  0.15031016029E-01  0.44166670975E-01  0.51100000000E-03 0. -1.
</event>
<event>
 8    1  0.1075206E+005  0.1043930E+01  0.7957747E-01            NaN
         13   -1    0    0    0    0  0.00000000000E+00  0.00000000000E+00  0.74505805969E-08  0.10566000000E+00  0.10566000000E+00 0. -1.
     999900   -1    0    0    0    0 -0.00000000000E+00 -0.00000000000E+00 -0.74505805969E-08  0.93827000000E+00  0.93827000000E+00 0. -1.
     999902    2    1    2    0    0 -0.16430524062E-01  0.17051030636E-01  0.30096789760E-02  0.10200603973E+01  0.10197810825E+01 0.  0.
     999903    2    3    3    0    0  0.26120658314E-01 -0.12134640469E+00  0.26401558545E-01  0.12792160020E+00  0.16113807193E-01 0.  0.
         14    1    1    2    0    0  0.16430524062E-01 -0.17051030636E-01 -0.30096789760E-02  0.23869602725E-01  0.00000000000E+00 0. -1.
     999901    1    3    3    0    0 -0.42551182376E-01  0.13839743532E+00 -0.23391879569E-01  0.89213879708E+00  0.88000000000E+00 0. -1.
        -11    1    4    4    0    0  0.57458946196E-02 -0.58917215740E-01  0.16914733654E-01  0.61568035141E-01  0.51100000000E-03 0.  1.
         11    1    4    4    0    0  0.20374763695E-01 -0.62429188945E-01  0.94868248904E-02  0.66353565055E-01  0.51100000000E-03 0. -1.
</event>
<event>
 8    1  0.1075206E+005  0.1043930E+01  0.7957747E-01            NaN
         13   -1    0    0    0    0  0.00000000000E+00  0.00000000000E+00  0.74505805969E-08  0.10566000000E+00  0.10566000000E+00 0.  1.
     999900   -1    0    0    0    0 -0.00000000000E+00 -0.00000000000E+00 -0.74505805969E-08  0.93827000000E+00  0.93827000000E+00 0. -1.
     999902    2    1    2    0    0 -0.24787472976E-01  0.20768744398E-02 -0.69247393146E-02  0.10181097707E+01  0.10177823053E+01 0.  0.
     999903    2    3    3    0    0 -0.88351662548E-01 -0.94442839279E-01 -0.14726628707E-02  0.13053657012E+00  0.17668085275E-01 0.  0.
         14    1    1    2    0    0  0.24787472976E-01 -0.20768744398E-02  0.69247393146E-02  0.25820229251E-01  0.00000000000E+00 0. -1.
     999901    1    3    3    0    0  0.63564189572E-01  0.96519713719E-01 -0.54520764439E-02  0.88757320063E+00  0.88000000000E+00 0. -1.
        -11    1    4    4    0    0 -0.29748762978E-01 -0.31792261246E-01 -0.88436329007E-02  0.44432057546E-01  0.51100000000E-03 0. -1.
         11    1    4    4    0    0 -0.58602899571E-01 -0.62650578033E-01  0.73709700299E-02  0.86104512577E-01  0.51100000000E-03 0.  1.
</event>
<event>
 8    1  0.1075206E+005  0.1043930E+01  0.7957747E-01            NaN
         13   -1    0    0    0    0  0.00000000000E+00  0.00000000000E+00  0.74505805969E-08  0.10566000000E+00  0.10566000000E+00 0.  1.
     999900   -1    0    0    0    0 -0.00000000000E+00 -0.00000000000E+00 -0.74505805969E-08  0.93827000000E+00  0.93827000000E+00 0.  1.
     999902    2    1    2    0    0  0.13133039304E-01  0.18648985161E-01  0.10664115466E-01  0.10187509467E+01  0.10184397413E+01 0.  0.
     999903    2    3    3    0    0  0.14130354970E-01  0.18806528743E-01 -0.12461086083E+00  0.12841374162E+00  0.20220532731E-01 0.  0.
         14    1    1    2    0    0 -0.13133039304E-01 -0.18648985161E-01 -0.10664115466E-01  0.25179053349E-01  0.00000000000E+00 0.  1.
     999901    1    3    3    0    0 -0.99731566611E-03 -0.15754358220E-03  0.13527497630E+00  0.89033720504E+00  0.88000000000E+00 0. -1.
        -11    1    4    4    0    0  0.13015937432E-01  0.88992983131E-03 -0.51335439086E-01  0.52969755800E-01  0.51100000000E-03 0. -1.
         11    1    4    4    0    0  0.11144175388E-02  0.17916598912E-01 -0.73275421743E-01  0.75443985815E-01  0.51100000000E-03 0.  1.
</event>
<event>
 8    1  0.1075206E+005  0.1043930E+01  0.7957747E-01            NaN
         13   -1    0    0    0    0  0.00000000000E+00  0.00000000000E+00  0.74505805969E-08  0.10566000000E+00  0.10566000000E+00 0.  1.
     999900   -1    0    0    0    0 -0.00000000000E+00 -0.00000000000E+00 -0.74505805969E-08  0.93827000000E+00  0.93827000000E+00 0. -1.
     999902    2    1    2    0    0 -0.90723823591E-02 -0.16976879616E-01 -0.13181059230E-01  0.10206005575E+01  0.10203338842E+01 0.  0.
     999903    2    3    3    0    0 -0.96681606478E-01  0.45743152199E-01  0.71057472789E-01  0.13003595639E+00  0.20504060832E-01 0.  0.
         14    1    1    2    0    0  0.90723823591E-02  0.16976879616E-01  0.13181059230E-01  0.23329442462E-01  0.00000000000E+00 0. -1.
     999901    1    3    3    0    0  0.87609224119E-01 -0.62720031815E-01 -0.84238532019E-01  0.89056460115E+00  0.88000000000E+00 0.  1.
        -11    1    4    4    0    0 -0.70051805658E-02  0.56782942470E-02  0.13346826985E-01  0.16115659834E-01  0.51100000000E-03 0. -1.
         11    1    4    4    0    0 -0.89676425913E-01  0.40064857952E-01  0.57710645804E-01  0.11392029656E+00  0.51100000000E-03 0.  1.
</event>
<event>
 8    1  0.1075206E+005  0.1043930E+01  0.7957747E-01            NaN
         13   -1    0    0    0    0  0.00000000000E+00  0.00000000000E+00  0.74505805969E-08  0.10566000000E+00  0.10566000000E+00 0.  1.
     999900   -1    0    0    0    0 -0.00000000000E+00 -0.00000000000E+00 -0.74505805969E-08  0.93827000000E+00  0.93827000000E+00 0. -1.
     999902    2    1    2    0    0  0.91608067032E-02 -0.93189777266E-02  0.20157535969E-01  0.10199073028E+01  0.10196243506E+01 0.  0.
     999903    2    3    3    0    0  0.47627506721E-01 -0.57880954171E-01  0.10843884641E+00  0.13332310354E+00  0.19936957541E-01 0.  0.
         14    1    1    2    0    0 -0.91608067032E-02  0.93189777266E-02 -0.20157535969E-01  0.24022697219E-01  0.00000000000E+00 0. -1.
     999901    1    3    3    0    0 -0.38466700018E-01  0.48561976444E-01 -0.88281310438E-01  0.88658419924E+00  0.88000000000E+00 0. -1.
        -11    1    4    4    0    0  0.37083140538E-01 -0.41969025627E-01  0.64553248501E-01  0.85463099857E-01  0.51100000000E-03 0.  1.
         11    1    4    4    0    0  0.10544366184E-01 -0.15911928544E-01  0.43885597906E-01  0.47860003686E-01  0.51100000000E-03 0. -1.
</event>
<event>
 8    1  0.1075206E+005  0.1043930E+01  0.7957747E-01            NaN
         13   -1    0    0    0    0  0.00000000000E+00  0.00000000000E+00  0.74505805969E-08  0.10566000000E+00  0.10566000000E+00 0. -1.
     999900   -1    0    0    0    0 -0.00000000000E+00 -0.00000000000E+00 -0.74505805969E-08  0.93827000000E+00  0.93827000000E+00 0. -1.
     999902    2    1    2    0    0 -0.14292847787E-01  0.67937461537E-02  0.16952153336E-01  0.10207391400E+01  0.10204756616E+01 0.  0.
     999903    2    3    3    0    0 -0.12954807447E+00 -0.12716940941E-01 -0.12440910444E-01  0.13252273260E+00  0.21519159315E-01 0.  0.
         14    1    1    2    0    0  0.14292847787E-01 -0.67937461537E-02 -0.16952153336E-01  0.23190859997E-01  0.00000000000E+00 0.  1.
     999901    1    3    3    0    0  0.11525522668E+00  0.19510687095E-01  0.29393063781E-01  0.88821640741E+00  0.88000000000E+00 0. -1.
        -11    1    4    4    0    0 -0.77317841481E-01  0.29976276348E-02 -0.63321670979E-02  0.77636279173E-01  0.51100000000E-03 0.  1.
         11    1    4    4    0    0 -0.52230232984E-01 -0.15714568576E-01 -0.61087433465E-02  0.54886453423E-01  0.51100000000E-03 0. -1.
</event>
<event>
 8    1  0.1075206E+005  0.1043930E+01  0.7957747E-01            NaN
         13   -1    0    0    0    0  0.00000000000E+00  0.00000000000E+00  0.74505805969E-08  0.10566000000E+00  0.10566000000E+00 0. -1.
     999900   -1    0    0    0    0 -0.00000000000E+00 -0.00000000000E+00 -0.74505805969E-08  0.93827000000E+00  0.93827000000E+00 0. -1.
     999902    2    1    2    0    0  0.20166650007E-01  0.31775333840E-02 -0.88458495070E-02  0.10216805159E+01  0.10214382198E+01 0.  0.
     999903    2    3    3    0    0 -0.67820811688E-01 -0.83793769830E-01 -0.71357096871E-01  0.13083066485E+00  0.20094009834E-01 0.  0.
         14    1    1    2    0    0 -0.20166650007E-01 -0.31775333840E-02  0.88458495070E-02  0.22249484138E-01  0.00000000000E+00 0. -1.
     999901    1    3    3    0    0  0.87987461695E-01  0.86971303214E-01  0.62511247364E-01  0.89084985101E+00  0.88000000000E+00 0.  1.
        -11    1    4    4    0    0 -0.19635367081E-01 -0.26474964921E-01 -0.11331770654E-01  0.34858880577E-01  0.51100000000E-03 0.  1.
         11    1    4    4    0    0 -0.48185444607E-01 -0.57318804909E-01 -0.60025326218E-01  0.95971784274E-01  0.51100000000E-03 0. -1.
</event>
<event>
 8    1  0.1075206E+005  0.1043930E+01  0.7957747E-01            NaN
         13   -1    0    0    0    0  0.00000000000E+00  0.00000000000E+00  0.74505805969E-08  0.10566000000E+00  0.10566000000E+00 0. -1.
     999900   -1    0    0    0    0 -0.00000000000E+00 -0.00000000000E+00 -0.74505805969E-08  0.93827000000E+00  0.93827000000E+00 0. -1.
     999902    2    1    2    0    0  0.19663407665E-01  0.13420639663E-01 -0.20005385144E-02  0.10200393046E+01  0.10197594901E+01 0.  0.
     999903    2    3    3    0    0  0.62367449173E-01  0.10741337330E+00 -0.43820253986E-01  0.13301779547E+00  0.18606121934E-01 0.  0.
         14    1    1    2    0    0 -0.19663407665E-01 -0.13420639663E-01  0.20005385144E-02  0.23890695350E-01  0.00000000000E+00 0.  1.
     999901    1    3    3    0    0 -0.42704041508E-01 -0.93992733637E-01  0.41819715472E-01  0.88702150918E+00  0.88000000000E+00 0. -1.
        -11    1    4    4    0    0  0.36287165242E-01  0.44622560446E-01 -0.22481025858E-01  0.61754262255E-01  0.51100000000E-03 0. -1.
         11    1    4    4    0    0  0.26080283931E-01  0.62790812854E-01 -0.21339228129E-01  0.71263533219E-01  0.51100000000E-03 0.  1.
</event>
<event>
 8    1  0.1075206E+005  0.1043930E+01  0.7957747E-01            NaN
         13   -1    0    0    0    0  0.00000000000E+00  0.00000000000E+00  0.74505805969E-08  0.10566000000E+00  0.10566000000E+00 0. -1.
     999900   -1    0    0    0    0 -0.00000000000E+00 -0.00000000000E+00 -0.74505805969E-08  0.93827000000E+00  0.93827000000E+00 0.  1.
     999902    2    1    2    0    0 -0.20344873518E-01  0.13787990222E-01 -0.33899393443E-02  0.10191204405E+01  0.10188184127E+01 0.  0.
     999903    2    3    3    0    0  0.96337546172E-01  0.58463204677E-01 -0.58611677423E-01  0.12858122060E+00  0.19973293628E-01 0.  0.
         14    1    1    2    0    0  0.20344873518E-01 -0.13787990222E-01  0.33899393443E-02  0.24809559480E-01  0.00000000000E+00 0.  1.
     999901    1    3    3    0    0 -0.11668241969E+00 -0.44675214455E-01  0.55221738079E-01  0.89053921992E+00  0.88000000000E+00 0.  1.
        -11    1    4    4    0    0  0.78935187166E-01  0.55818657818E-01 -0.47087503041E-01  0.10753594932E+00  0.51100000000E-03 0.  1.
         11    1    4    4    0    0  0.17402359006E-01  0.26445468591E-02 -0.11524174382E-01  0.21045271280E-01  0.51100000000E-03 0. -1.
</event>
<event>
 8    1  0.1075206E+005  0.1043930E+01  0.7957747E-01            NaN
         13   -1    0    0    0    0  0.00000000000E+00  0.00000000000E+00  0.74505805969E-08  0.10566000000E+00  0.10566000000E+00 0. -1.
     999900   -1    0    0    0    0 -0.00000000000E+00 -0.00000000000E+00 -0.74505805969E-08  0.93827000000E+00  0.93827000000E+00 0. -1.
     999902    2    1    2    0    0  0.19720314143E-01 -0.79305008700E-02 -0.91885416343E-02  0.10207737280E+01  0.10205110440E+01 0.  0.
     999903    2    3    3    0    0  0.12385924642E+00  0.14094892578E-01  0.41761430266E-01  0.13289652098E+00  0.19434230399E-01 0.  0.
         14    1    1    2    0    0 -0.19720314143E-01  0.79305008700E-02  0.91885416343E-02  0.23156271965E-01  0.00000000000E+00 0. -1.
     999901    1    3    3    0    0 -0.10413893227E+00 -0.22025393448E-01 -0.50949971900E-01  0.88787720706E+00  0.88000000000E+00 0. -1.
        -11    1    4    4    0    0  0.79569489830E-01  0.23160249716E-02  0.33303416113E-01  0.86290476470E-01  0.51100000000E-03 0. -1.
         11    1    4    4    0    0  0.44289756586E-01  0.11778867606E-01  0.84580141524E-02  0.46606044510E-01  0.51100000000E-03 0.  1.
</event>
<event>
 8    1  0.1075206E+005  0.1043930E+01  0.7957747E-01            NaN
         13   -1    0    0    0    0  0.00000000000E+00  0.00000000000E+00  0.74505805969E-08  0.10566000000E+00  0.10566000000E+00 0.  1.
     999900   -1    0    0    0    0 -0.00000000000E+00 -0.00000000000E+00 -0.74505805969E-08  0.93827000000E+00  0.93827000000E+00 0. -1.
     999902    2    1    2    0    0 -0.23130383658E-01 -0.38578612735E-02 -0.44610592814E-02  0.10200595414E+01  0.10197802064E+01 0.  0.
     999903    2    3    3    0    0  0.19500394867E-01  0.12573261907E+00 -0.11767686492E-01  0.12951787332E+00  0.21152876043E-01 0.  0.
         14    1    1    2    0    0  0.23130383658E-01  0.38578612735E-02  0.44610592814E-02  0.23870458556E-01  0.00000000000E+00 0.  1.
     999901    1    3    3    0    0 -0.42630778524E-01 -0.12959048034E+00  0.73066272103E-02  0.89054166813E+00  0.88000000000E+00 0. -1.
        -11    1    4    4    0    0  0.20662995311E-01  0.79127619056E-01 -0.15925437622E-02  0.81798146613E-01  0.51100000000E-03 0.  1.
         11    1    4    4    0    0 -0.11626004440E-02  0.46605000012E-01 -0.10175142730E-01  0.47719726702E-01  0.51100000000E-03 0. -1.
</event>
<event>
 8    1  0.1075206E+005  0.1043930E+01  0.7957747E-01            NaN
         13   -1    0    0    0    0  0.00000000000E+00  0.00000000000E+00  0.74505805969E-08  0.10566000000E+00  0.10566000000E+00 0. -1.
     999900   -1    0    0    0    0 -0.00000000000E+00 -0.00000000000E+00 -0.74505805969E-08  0.93827000000E+00  0.93827000000E+00 0.  1.
     999902    2    1    2    0    0 -0.20707367470E-01  0.62629996560E-02  0.89797352001E-02  0.10205065955E+01  0.10202377447E+01 0.  0.
     999903    2    3    3    0    0 -0.25524397195E-03 -0.83533759277E-01 -0.96781668843E-01  0.12940210006E+00  0.20006448682E-01 0.  0.
         14    1    1    2    0    0  0.20707367470E-01 -0.62629996560E-02 -0.89797352001E-02  0.23423404460E-01  0.00000000000E+00 0. -1.
     999901    1    3    3    0    0 -0.20452123498E-01  0.89796758933E-01  0.10576140404E+00  0.89110449547E+00  0.88000000000E+00 0. -1.
        -11    1    4    4    0    0  0.94421963237E-02 -0.34778764647E-01 -0.37023992065E-01  0.51669668580E-01  0.51100000000E-03 0.  1.
         11    1    4    4    0    0 -0.96974402956E-02 -0.48754994630E-01 -0.59757676778E-01  0.77732431485E-01  0.51100000000E-03 0. -1.
</event>
<event>
 8    1  0.1075206E+005  0.1043930E+01  0.7957747E-01            NaN
         13   -1    0    0    0    0  0.00000000000E+00  0.00000000000E+00  0.74505805969E-08  0.10566000000E+00  0.10566000000E+00 0. -1.
     999900   -1    0    0    0    0 -0.00000000000E+00 -0.00000000000E+00 -0.74505805969E-08  0.93827000000E+00  0.93827000000E+00 0. -1.
     999902    2    1    2    0    0 -0.36088439730E-02  0.30312938319E-02 -0.23907395594E-01  0.10195624794E+01  0.10192712462E+01 0.  0.
     999903    2    3    3    0    0  0.68030415305E-01  0.47399850190E-01  0.95719577372E-01  0.12747987955E+00  0.14628704392E-01 0.  0.
         14    1    1    2    0    0  0.36088439730E-02 -0.30312938319E-02  0.23907395594E-01  0.24367520621E-01  0.00000000000E+00 0. -1.
     999901    1    3    3    0    0 -0.71639259278E-01 -0.44368556358E-01 -0.11962697297E+00  0.89208259983E+00  0.88000000000E+00 0. -1.
        -11    1    4    4    0    0  0.23235645106E-01  0.15713182026E-01  0.43298359632E-01  0.51592716159E-01  0.51100000000E-03 0.  1.
         11    1    4    4    0    0  0.44794770199E-01  0.31686668164E-01  0.52421217740E-01  0.75887163387E-01  0.51100000000E-03 0. -1.
</event>
<event>
 8    1  0.1075206E+005  0.1043930E+01  0.7957747E-01            NaN
         13   -1    0    0    0    0  0.00000000000E+00  0.00000000000E+00  0.74505805969E-08  0.10566000000E+00  0.10566000000E+00 0. -1.
     999900   -1    0    0    0    0 -0.00000000000E+00 -0.00000000000E+00 -0.74505805969E-08  0.93827000000E+00  0.93827000000E+00 0. -1.
     999902    2    1    2    0    0 -0.21081043545E-01  0.68916734742E-02  0.77268714852E-02  0.10204436188E+01  0.10201733034E+01 0.  0.
     999903    2    3    3    0    0 -0.29962166647E-01 -0.10912846534E+00 -0.61504455160E-01  0.13008833938E+00  0.18259919514E-01 0.  0.
         14    1    1    2    0    0  0.21081043545E-01 -0.68916734742E-02 -0.77268714852E-02  0.23486381228E-01  0.00000000000E+00 0.  1.
     999901    1    3    3    0    0  0.88811231014E-02  0.11602013881E+00  0.69231326645E-01  0.89035527939E+00  0.88000000000E+00 0.  1.
        -11    1    4    4    0    0 -0.56748599865E-02 -0.16582713873E-01 -0.17501283476E-01  0.24773907233E-01  0.51100000000E-03 0.  1.
         11    1    4    4    0    0 -0.24287306660E-01 -0.92545751463E-01 -0.44003171683E-01  0.10531443214E+00  0.51100000000E-03 0. -1.
</event>
<event>
 8    1  0.1075206E+005  0.1043930E+01  0.7957747E-01            NaN
         13   -1    0    0    0    0  0.00000000000E+00  0.00000000000E+00  0.74505805969E-08  0.10566000000E+00  0.10566000000E+00 0.  1.
     999900   -1    0    0    0    0 -0.00000000000E+00 -0.00000000000E+00 -0.74505805969E-08  0.93827000000E+00  0.93827000000E+00 0. -1.
     999902    2    1    2    0    0 -0.90038541588E-02  0.12891946124E-01  0.17585859110E-01  0.10203390249E+01  0.10200662683E+01 0.  0.
     999903    2    3    3    0    0 -0.12231225587E+00 -0.14611945541E-01 -0.38405140211E-01  0.13088399516E+00  0.21951503527E-01 0.  0.
         14    1    1    2    0    0  0.90038541588E-02 -0.12891946124E-01 -0.17585859110E-01  0.23590975079E-01  0.00000000000E+00 0. -1.
     999901    1    3    3    0    0  0.11330840171E+00  0.27503891665E-01  0.55990999321E-01  0.88945502976E+00  0.88000000000E+00 0. -1.
        -11    1    4    4    0    0 -0.24494490452E-01  0.41573574482E-02 -0.23718517032E-02  0.24962982293E-01  0.51100000000E-03 0. -1.
         11    1    4    4    0    0 -0.97817765417E-01 -0.18769302989E-01 -0.36033288508E-01  0.10592101287E+00  0.51100000000E-03 0.  1.
</event>
<event>
 8    1  0.1075206E+005  0.1043930E+01  0.7957747E-01            NaN
         13   -1    0    0    0    0  0.00000000000E+00  0.00000000000E+00  0.74505805969E-08  0.10566000000E+00  0.10566000000E+00 0.  1.
     999900   -1    0    0    0    0 -0.00000000000E+00 -0.00000000000E+00 -0.74505805969E-08  0.93827000000E+00  0.93827000000E+00 0.  1.
     999902    2    1    2    0    0  0.96789473651E-02 -0.17119967120E-01 -0.19029731071E-01  0.10165638537E+01  0.10161954353E+01 0.  0.
     999903    2    3    3    0    0 -0.21096607820E-01  0.55980594834E-01  0.10676151464E+00  0.12408737537E+00  0.20512480531E-01 0.  0.
         14    1    1    2    0    0 -0.96789473651E-02  0.17119967120E-01  0.19029731071E-01  0.27366146256E-01  0.00000000000E+00 0.  1.
     999901    1    3    3    0    0  0.30775555186E-01 -0.73100561954E-01 -0.12579124571E+00  0.89247647838E+00  0.88000000000E+00 0.  1.
        -11    1    4    4    0    0 -0.15619268735E-01  0.30531906319E-01  0.41598078635E-01  0.53914934168E-01  0.51100000000E-03 0.  1.
         11    1    4    4    0    0 -0.54773390852E-02  0.25448688515E-01  0.65163436008E-01  0.70172441200E-01  0.51100000000E-03 0. -1.
</event>
<event>
 8    1  0.1075206E+005  0.1043930E+01  0.7957747E-01            NaN
         13   -1    0    0    0    0  0.00000000000E+00  0.00000000000E+00  0.74505805969E-08  0.10566000000E+00  0.10566000000E+00 0.  1.
     999900   -1    0    0    0    0 -0.00000000000E+00 -0.00000000000E+00 -0.74505805969E-08  0.93827000000E+00  0.93827000000E+00 0.  1.
     999902    2    1    2    0    0  0.12093852099E-01 -0.15480514251E-01  0.87571197932E-02  0.10224219846E+01  0.10221957346E+01 0.  0.
     999903    2    3    3    0    0  0.78864952501E-01  0.98553831900E-01  0.33619322199E-01  0.13220833548E+00  0.20402123147E-01 0.  0.
         14    1    1    2    0    0 -0.12093852099E-01  0.15480514251E-01 -0.87571197932E-02  0.21508015416E-01  0.00000000000E+00 0. -1.
     999901    1    3    3    0    0 -0.66771100402E-01 -0.11403434615E+00 -0.24862202406E-01  0.89021364911E+00  0.88000000000E+00 0.  1.
        -11    1    4    4    0    0  0.17984662525E-01  0.20736790188E-01  0.16210668674E-01  0.31882745385E-01  0.51100000000E-03 0.  1.
         11    1    4    4    0    0  0.60880289976E-01  0.77817041713E-01  0.17408653525E-01  0.10032559009E+00  0.51100000000E-03 0. -1.
</event>
<event>
 8    1  0.1075206E+005  0.1043930E+01  0.7957747E-01            NaN
         13   -1    0    0    0    0  0.00000000000E+00  0.00000000000E+00  0.74505805969E-08  0.10566000000E+00  0.10566000000E+00 0.  1.
     999900   -1    0    0    0    0 -0.00000000000E+00 -0.00000000000E+00 -0.74505805969E-08  0.93827000000E+00  0.93827000000E+00 0.  1.
     999902    2    1    2    0    0  0.23425540759E-02  0.13732857448E-01 -0.20833379577E-01  0.10188679044E+01  0.10185596192E+01 0.  0.
     999903    2    3    3    0    0 -0.10085349665E-01 -0.24373378010E-02 -0.12998091893E+00  0.13189038866E+00  0.19808595173E-01 0.  0.
         14    1    1    2    0    0 -0.23425540759E-02 -0.13732857448E-01  0.20833379577E-01  0.25062095640E-01  0.00000000000E+00 0.  1.
     999901    1    3    3    0    0  0.12427903741E-01  0.16170195249E-01  0.10914753935E+00  0.88697751570E+00  0.88000000000E+00 0. -1.
        -11    1    4    4    0    0 -0.99212937034E-02  0.60378854483E-02 -0.44674834209E-01  0.46162647909E-01  0.51100000000E-03 0.  1.
         11    1    4    4    0    0 -0.16405596207E-03 -0.84752232493E-02 -0.85306084720E-01  0.85727740753E-01  0.51100000000E-03 0. -1.
</event>
<event>
 8    1  0.1075206E+005  0.1043930E+01  0.7957747E-01            NaN
         13   -1    0    0    0    0  0.00000000000E+00  0.00000000000E+00  0.74505805969E-08  0.10566000000E+00  0.10566000000E+00 0. -1.
     999900   -1    0    0    0    0 -0.00000000000E+00 -0.00000000000E+00 -0.74505805969E-08  0.93827000000E+00  0.93827000000E+00 0. -1.
     999902    2    1    2    0    0  0.45251299414E-02 -0.13455718682E-01 -0.18857339015E-01  0.10203263477E+01  0.10200532944E+01 0.  0.
     999903    2    3    3    0    0  0.12387007303E+00 -0.26257250799E-01  0.27579547122E-01  0.13096507183E+00  0.18920370157E-01 0.  0.
         14    1    1    2    0    0 -0.45251299414E-02  0.13455718682E-01  0.18857339015E-01  0.23603652280E-01  0.00000000000E+00 0.  1.
     999901    1    3    3    0    0 -0.11934494309E+00  0.12801532116E-01 -0.46436886137E-01  0.88936127589E+00  0.88000000000E+00 0.  1.
        -11    1    4    4    0    0  0.69908447468E-01 -0.64558062517E-02  0.10424343709E-01  0.70977436728E-01  0.51100000000E-03 0.  1.
         11    1    4    4    0    0  0.53961625563E-01 -0.19801444547E-01  0.17155203413E-01  0.59987635098E-01  0.51100000000E-03 0. -1.
</event>
<event>
 8    1  0.1075206E+005  0.1043930E+01  0.7957747E-01            NaN
         13   -1    0    0    0    0  0.00000000000E+00  0.00000000000E+00  0.74505805969E-08  0.10566000000E+00  0.10566000000E+00 0. -1.
     999900   -1    0    0    0    0 -0.00000000000E+00 -0.00000000000E+00 -0.74505805969E-08  0.93827000000E+00  0.93827000000E+00 0.  1.
     999902    2    1    2    0    0  0.13116826406E-01  0.19218304765E-02  0.12585461536E-01  0.10256505468E+01  0.10254876429E+01 0.  0.
     999903    2    3    3    0    0  0.28639700714E-01  0.72568480077E-01 -0.10768826057E+00  0.13452896309E+00  0.20368202858E-01 0.  0.
         14    1    1    2    0    0 -0.13116826406E-01 -0.19218304765E-02 -0.12585461536E-01  0.18279453203E-01  0.00000000000E+00 0.  1.
     999901    1    3    3    0    0 -0.15522874308E-01 -0.70646649600E-01  0.12027372210E+00  0.89112158371E+00  0.88000000000E+00 0.  1.
        -11    1    4    4    0    0  0.18474810197E-01  0.51494703487E-01 -0.58732266959E-01  0.80266826287E-01  0.51100000000E-03 0.  1.
         11    1    4    4    0    0  0.10164890517E-01  0.21073776590E-01 -0.48955993607E-01  0.54262136799E-01  0.51100000000E-03 0. -1.
</event>
<event>
 8    1  0.1075206E+005  0.1043930E+01  0.7957747E-01            NaN
         13   -1    0    0    0    0  0.00000000000E+00  0.00000000000E+00  0.74505805969E-08  0.10566000000E+00  0.10566000000E+00 0. -1.
     999900   -1    0    0    0    0 -0.00000000000E+00 -0.00000000000E+00 -0.74505805969E-08  0.93827000000E+00  0.93827000000E+00 0.  1.
     999902    2    1    2    0    0  0.11458288516E-01  0.23302137036E-01 -0.22704154093E-02  0.10178639924E+01  0.10175301815E+01 0.  0.
     999903    2    3    3    0    0 -0.90245165260E-01 -0.74514177788E-01  0.40395888550E-01  0.12560167814E+00  0.21151860319E-01 0.  0.
         14    1    1    2    0    0 -0.11458288516E-01 -0.23302137036E-01  0.22704154093E-02  0.26066007602E-01  0.00000000000E+00 0. -1.
     999901    1    3    3    0    0  0.10170345378E+00  0.97816314824E-01 -0.42666303960E-01  0.89226231426E+00  0.88000000000E+00 0.  1.
        -11    1    4    4    0    0 -0.45964739142E-01 -0.41116252518E-01  0.10397275009E-01  0.62543328294E-01  0.51100000000E-03 0. -1.
         11    1    4    4    0    0 -0.44280426118E-01 -0.33397925270E-01  0.29998613542E-01  0.63058349843E-01  0.51100000000E-03 0.  1.
</event>
<event>
 8    1  0.1075206E+005  0.1043930E+01  0.7957747E-01            NaN
         13   -1    0    0    0    0  0.00000000000E+00  0.00000000000E+00  0.74505805969E-08  0.10566000000E+00  0.10566000000E+00 0. -1.
     999900   -1    0    0    0    0 -0.00000000000E+00 -0.00000000000E+00 -0.74505805969E-08  0.93827000000E+00  0.93827000000E+00 0. -1.
     999902    2    1    2    0    0 -0.12565969992E-02  0.15439145955E-01 -0.17739766238E-01  0.10203790856E+01  0.10201072653E+01 0.  0.
     999903    2    3    3    0    0  0.10164718146E+00  0.96738946432E-02 -0.81428488870E-01  0.13207807853E+00  0.19704981379E-01 0.  0.
         14    1    1    2    0    0  0.12565969992E-02 -0.15439145955E-01  0.17739766238E-01  0.23550914420E-01  0.00000000000E+00 0.  1.
     999901    1    3    3    0    0 -0.10290377846E+00  0.57652513122E-02  0.63688722632E-01  0.88830100705E+00  0.88000000000E+00 0. -1.
        -11    1    4    4    0    0  0.79332664274E-01 -0.77655034455E-03 -0.62762070944E-01  0.10116132325E+00  0.51100000000E-03 0.  1.
         11    1    4    4    0    0  0.22314517185E-01  0.10450444988E-01 -0.18666417926E-01  0.30916755276E-01  0.51100000000E-03 0. -1.
</event>
<event>
 8    1  0.1075206E+005  0.1043930E+01  0.7957747E-01            NaN
         13   -1    0    0    0    0  0.00000000000E+00  0.00000000000E+00  0.74505805969E-08  0.10566000000E+00  0.10566000000E+00 0. -1.
     999900   -1    0    0    0    0 -0.00000000000E+00 -0.00000000000E+00 -0.74505805969E-08  0.93827000000E+00  0.93827000000E+00 0.  1.
     999902    2    1    2    0    0 -0.91941707484E-02 -0.16516075573E-01  0.13256265691E-01  0.10208422953E+01  0.10205811824E+01 0.  0.
     999903    2    3    3    0    0  0.12645140281E+00  0.33869297570E-02 -0.19719529507E-01  0.12961659195E+00  0.20252715871E-01 0.  0.
         14    1    1    2    0    0  0.91941707484E-02  0.16516075573E-01 -0.13256265691E-01  0.23087704696E-01  0.00000000000E+00 0. -1.
     999901    1    3    3    0    0 -0.13564557356E+00 -0.19903005330E-01  0.32975795197E-01  0.89122570335E+00  0.88000000000E+00 0.  1.
        -11    1    4    4    0    0  0.67365757520E-01  0.11613427864E-01 -0.12933771112E-01  0.69574137071E-01  0.51100000000E-03 0. -1.
         11    1    4    4    0    0  0.59085645288E-01 -0.82264981072E-02 -0.67857583945E-02  0.60042454881E-01  0.51100000000E-03 0.  1.
</event>
<event>
 8    1  0.1075206E+005  0.1043930E+01  0.7957747E-01            NaN
         13   -1    0    0    0    0  0.00000000000E+00  0.00000000000E+00  0.74505805969E-08  0.10566000000E+00  0.10566000000E+00 0. -1.
     999900   -1    0    0    0    0 -0.00000000000E+00 -0.00000000000E+00 -0.74505805969E-08  0.93827000000E+00  0.93827000000E+00 0. -1.
     999902    2    1    2    0    0  0.84048789751E-02 -0.10809896801E-01 -0.19361067186E-01  0.10202161479E+01  0.10199405089E+01 0.  0.
     999903    2    3    3    0    0  0.76438107051E-01  0.97205474742E-01  0.34680112741E-01  0.12936470700E+00  0.15518655442E-01 0.  0.
         14    1    1    2    0    0 -0.84048789751E-02  0.10809896801E-01  0.19361067186E-01  0.23713852112E-01  0.00000000000E+00 0. -1.
     999901    1    3    3    0    0 -0.68033228076E-01 -0.10801537154E+00 -0.54041179927E-01  0.89085144089E+00  0.88000000000E+00 0.  1.
        -11    1    4    4    0    0  0.47935133545E-01  0.48501651764E-01  0.18630576941E-01  0.70693329034E-01  0.51100000000E-03 0. -1.
         11    1    4    4    0    0  0.28502973506E-01  0.48703822979E-01  0.16049535800E-01  0.58671377961E-01  0.51100000000E-03 0.  1.
</event>
<event>
 8    1  0.1075206E+005  0.1043930E+01  0.7957747E-01            NaN
         13   -1    0    0    0    0  0.00000000000E+00  0.00000000000E+00  0.74505805969E-08  0.10566000000E+00  0.10566000000E+00 0. -1.
     999900   -1    0    0    0    0 -0.00000000000E+00 -0.00000000000E+00 -0.74505805969E-08  0.93827000000E+00  0.93827000000E+00 0. -1.
     999902    2    1    2    0    0  0.10034429508E-02  0.14987996418E-01 -0.15229431989E-01  0.10225388211E+01  0.10223150484E+01 0.  0.
     999903    2    3    3    0    0 -0.50616478217E-02 -0.12105743655E+00  0.43202238481E-01  0.13014910511E+00  0.19794770265E-01 0.  0.
         14    1    1    2    0    0 -0.10034429508E-02 -0.14987996418E-01  0.15229431989E-01  0.21391178862E-01  0.00000000000E+00 0. -1.
     999901    1    3    3    0    0  0.60650907726E-02  0.13604543296E+00 -0.58431670470E-01  0.89238971603E+00  0.88000000000E+00 0. -1.
        -11    1    4    4    0    0  0.41834289799E-02 -0.11877111387E-01  0.69895218792E-03  0.12622064335E-01  0.51100000000E-03 0. -1.
         11    1    4    4    0    0 -0.92450768016E-02 -0.10918032516E+00  0.42503286293E-01  0.11752704078E+00  0.51100000000E-03 0.  1.
</event>
<event>
 8    1  0.1075206E+005  0.1043930E+01  0.7957747E-01            NaN
         13   -1    0    0    0    0  0.00000000000E+00  0.00000000000E+00  0.74505805969E-08  0.10566000000E+00  0.10566000000E+00 0.  1.
     999900   -1    0    0    0    0 -0.00000000000E+00 -0.00000000000E+00 -0.74505805969E-08  0.93827000000E+00  0.93827000000E+00 0. -1.
     999902    2    1    2    0    0  0.20559336028E-01  0.97265350412E-02 -0.48150221317E-02  0.10206818556E+01  0.10204170589E+01 0.  0.
     999903    2    3    3    0    0  0.83946920859E-01  0.81141411959E-01 -0.62037519232E-01  0.13366861737E+00  0.19688352387E-01 0.  0.
         14    1    1    2    0    0 -0.20559336028E-01 -0.97265350412E-02  0.48150221317E-02  0.23248144441E-01  0.00000000000E+00 0.  1.
     999901    1    3    3    0    0 -0.63387584831E-01 -0.71414876918E-01  0.57222497100E-01  0.88701323819E+00  0.88000000000E+00 0.  1.
        -11    1    4    4    0    0  0.16016007084E-01  0.20407846426E-01 -0.57957972439E-02  0.26586557983E-01  0.51100000000E-03 0.  1.
         11    1    4    4    0    0  0.67930913775E-01  0.60733565532E-01 -0.56241721988E-01  0.10708205938E+00  0.51100000000E-03 0. -1.
</event>
<event>
 8    1  0.1075206E+005  0.1043930E+01  0.7957747E-01            NaN
         13   -1    0    0    0    0  0.00000000000E+00  0.00000000000E+00  0.74505805969E-08  0.10566000000E+00  0.10566000000E+00 0.  1.
     999900   -1    0    0    0    0 -0.00000000000E+00 -0.00000000000E+00 -0.74505805969E-08  0.93827000000E+00  0.93827000000E+00 0.  1.
     999902    2    1    2    0    0  0.18302550609E-01  0.17289483469E-01 -0.33267876545E-04  0.10187524166E+01  0.10184412480E+01 0.  0.
     999903    2    3    3    0    0 -0.71707592177E-02 -0.12209157554E+00 -0.27583238437E-01  0.12699293673E+00  0.20213815347E-01 0.  0.
         14    1    1    2    0    0 -0.18302550609E-01 -0.17289483469E-01  0.33267876545E-04  0.25177583366E-01  0.00000000000E+00 0.  1.
     999901    1    3    3    0    0  0.25473309826E-01  0.13938105901E+00  0.27549970561E-01  0.89175947991E+00  0.88000000000E+00 0.  1.
        -11    1    4    4    0    0  0.57397815914E-02 -0.55772031263E-01 -0.79351940217E-02  0.56627669819E-01  0.51100000000E-03 0.  1.
         11    1    4    4    0    0 -0.12910540809E-01 -0.66319544276E-01 -0.19648044415E-01  0.70365266910E-01  0.51100000000E-03 0. -1.
</event>
<event>
 8    1  0.1075206E+005  0.1043930E+01  0.7957747E-01            NaN
         13   -1    0    0    0    0  0.00000000000E+00  0.00000000000E+00  0.74505805969E-08  0.10566000000E+00  0.10566000000E+00 0. -1.
     999900   -1    0    0    0    0 -0.00000000000E+00 -0.00000000000E+00 -0.74505805969E-08  0.93827000000E+00  0.93827000000E+00 0. -1.
     999902    2    1    2    0    0 -0.10434412085E-01  0.13766021744E-01 -0.15762072832E-01  0.10205457478E+01  0.10202778054E+01 0.  0.
     999903    2    3    3    0    0 -0.94633515684E-01 -0.57090632614E-01 -0.69535236819E-01  0.13206293556E+00  0.19764290162E-01 0.  0.
         14    1    1    2    0    0  0.10434412085E-01 -0.13766021744E-01  0.15762072832E-01  0.23384252184E-01  0.00000000000E+00 0.  1.
     999901    1    3    3    0    0  0.84199103599E-01  0.70856654358E-01  0.53773163988E-01  0.88848281226E+00  0.88000000000E+00 0.  1.
        -11    1    4    4    0    0 -0.43461052906E-01 -0.17267694757E-01 -0.22139261327E-01  0.51744027820E-01  0.51100000000E-03 0.  1.
         11    1    4    4    0    0 -0.51172462778E-01 -0.39822937856E-01 -0.47395975493E-01  0.80318907738E-01  0.51100000000E-03 0. -1.
</event>
<event>
 8    1  0.1075206E+005  0.1043930E+01  0.7957747E-01            NaN
         13   -1    0    0    0    0  0.00000000000E+00  0.00000000000E+00  0.74505805969E-08  0.10566000000E+00  0.10566000000E+00 0. -1.
     999900   -1    0    0    0    0 -0.00000000000E+00 -0.00000000000E+00 -0.74505805969E-08  0.93827000000E+00  0.93827000000E+00 0.  1.
     999902    2    1    2    0    0 -0.15097817766E-01 -0.13339882220E-01 -0.12730129218E-01  0.10200982408E+01  0.10198198214E+01 0.  0.
     999903    2    3    3    0    0  0.12028883940E+00  0.23198558209E-01 -0.32611906693E-01  0.12877344605E+00  0.22616055439E-01 0.  0.
         14    1    1    2    0    0  0.15097817766E-01  0.13339882220E-01  0.12730129218E-01  0.23831759248E-01  0.00000000000E+00 0.  1.
     999901    1    3    3    0    0 -0.13538665717E+00 -0.36538440429E-01  0.19881777475E-01  0.89132479470E+00  0.88000000000E+00 0. -1.
        -11    1    4    4    0    0  0.56747244553E-01  0.20033122073E-02 -0.22264172100E-01  0.60993585765E-01  0.51100000000E-03 0. -1.
         11    1    4    4    0    0  0.63541594846E-01  0.21195246002E-01 -0.10347734593E-01  0.67779860290E-01  0.51100000000E-03 0.  1.
</event>
<event>
 8    1  0.1075206E+005  0.1043930E+01  0.7957747E-01            NaN
         13   -1    0    0    0    0  0.00000000000E+00  0.00000000000E+00  0.74505805969E-08  0.10566000000E+00  0.10566000000E+00 0. -1.
     999900   -1    0    0    0    0 -0.00000000000E+00 -0.00000000000E+00 -0.74505805969E-08  0.93827000000E+00  0.93827000000E+00 0. -1.
     999902    2    1    2    0    0  0.23467953338E-01  0.50993757479E-03 -0.12848159102E-01  0.10171703277E+01  0.10168182706E+01 0.  0.
     999903    2    3    3    0    0 -0.71132164430E-01 -0.10098582924E+00 -0.16768267300E-01  0.12629102036E+00  0.20256468424E-01 0.  0.
         14    1    1    2    0    0 -0.23467953338E-01 -0.50993757479E-03  0.12848159102E-01  0.26759672317E-01  0.00000000000E+00 0. -1.
     999901    1    3    3    0    0  0.94600117769E-01  0.10149576681E+00  0.39201081982E-02  0.89087930732E+00  0.88000000000E+00 0.  1.
        -11    1    4    4    0    0 -0.36395553926E-01 -0.50876351956E-01 -0.18683158439E-01  0.65286760251E-01  0.51100000000E-03 0. -1.
         11    1    4    4    0    0 -0.34736610505E-01 -0.50109477280E-01  0.19148911386E-02  0.61004260111E-01  0.51100000000E-03 0.  1.
</event>
<event>
 8    1  0.1075206E+005  0.1043930E+01  0.7957747E-01            NaN
         13   -1    0    0    0    0  0.00000000000E+00  0.00000000000E+00  0.74505805969E-08  0.10566000000E+00  0.10566000000E+00 0. -1.
     999900   -1    0    0    0    0 -0.00000000000E+00 -0.00000000000E+00 -0.74505805969E-08  0.93827000000E+00  0.93827000000E+00 0. -1.
     999902    2    1    2    0    0 -0.19500548370E-01  0.78816383016E-02  0.11665427398E-01  0.10198785176E+01  0.10195948788E+01 0.  0.
     999903    2    3    3    0    0  0.54699794955E-01  0.23827680901E-01 -0.11157224723E+00  0.12805595023E+00  0.19751812395E-01 0.  0.
         14    1    1    2    0    0  0.19500548370E-01 -0.78816383016E-02 -0.11665427398E-01  0.24051482396E-01  0.00000000000E+00 0.  1.
     999901    1    3    3    0    0 -0.74200343325E-01 -0.15946042599E-01  0.12323767463E+00  0.89182256737E+00  0.88000000000E+00 0.  1.
        -11    1    4    4    0    0  0.45001153914E-01  0.27166285863E-01 -0.94210722079E-01  0.10788434649E+00  0.51100000000E-03 0. -1.
         11    1    4    4    0    0  0.96986410407E-02 -0.33386049621E-02 -0.17361525151E-01  0.20171603747E-01  0.51100000000E-03 0.  1.
</event>
<event>
 8    1  0.1075206E+005  0.1043930E+01  0.7957747E-01            NaN
         13   -1    0    0    0    0  0.00000000000E+00  0.00000000000E+00  0.74505805969E-08  0.10566000000E+00  0.10566000000E+00 0. -1.
     999900   -1    0    0    0    0 -0.00000000000E+00 -0.00000000000E+00 -0.74505805969E-08  0.93827000000E+00  0.93827000000E+00 0. -1.
     999902    2    1    2    0    0 -0.20361512146E-01 -0.16935906762E-02 -0.70920512925E-02  0.10223023183E+01  0.10220735166E+01 0.  0.
     999903    2    3    3    0    0  0.48064255046E-01  0.10910506126E+00 -0.52089149925E-01  0.13158173032E+00  0.19656683509E-01 0.  0.
         14    1    1    2    0    0  0.20361512146E-01  0.16935906762E-02  0.70920512925E-02  0.21627681748E-01  0.00000000000E+00 0. -1.
     999901    1    3    3    0    0 -0.68425767191E-01 -0.11079865194E+00  0.44997098633E-01  0.89072058794E+00  0.88000000000E+00 0. -1.
        -11    1    4    4    0    0  0.22753107309E-01  0.66725777772E-01 -0.38742095268E-01  0.80444045014E-01  0.51100000000E-03 0.  1.
         11    1    4    4    0    0  0.25311147736E-01  0.42379283492E-01 -0.13347054657E-01  0.51137685302E-01  0.51100000000E-03 0. -1.
</event>
<event>
 8    1  0.1075206E+005  0.1043930E+01  0.7957747E-01            NaN
         13   -1    0    0    0    0  0.00000000000E+00  0.00000000000E+00  0.74505805969E-08  0.10566000000E+00  0.10566000000E+00 0.  1.
     999900   -1    0    0    0    0 -0.00000000000E+00 -0.00000000000E+00 -0.74505805969E-08  0.93827000000E+00  0.93827000000E+00 0. -1.
     999902    2    1    2    0    0 -0.98537294921E-02 -0.14562868283E-01 -0.15876302417E-01  0.10202397046E+01  0.10199646194E+01 0.  0.
     999903    2    3    3    0    0 -0.45046452818E-01 -0.12310803802E+00 -0.76126095584E-02  0.13283400805E+00  0.20053676357E-01 0.  0.
         14    1    1    2    0    0  0.98537294921E-02  0.14562868283E-01  0.15876302417E-01  0.23690295397E-01  0.00000000000E+00 0.  1.
     999901    1    3    3    0    0  0.35192723326E-01  0.10854516973E+00 -0.82636928590E-02  0.88740569655E+00  0.88000000000E+00 0. -1.
        -11    1    4    4    0    0 -0.14507064181E-01 -0.58996678439E-01 -0.10972855772E-01  0.61739190655E-01  0.51100000000E-03 0. -1.
         11    1    4    4    0    0 -0.30539388637E-01 -0.64111359579E-01  0.33602462140E-02  0.71094817399E-01  0.51100000000E-03 0.  1.
</event>
<event>
 8    1  0.1075206E+005  0.1043930E+01  0.7957747E-01            NaN
         13   -1    0    0    0    0  0.00000000000E+00  0.00000000000E+00  0.74505805969E-08  0.10566000000E+00  0.10566000000E+00 0.  1.
     999900   -1    0    0    0    0 -0.00000000000E+00 -0.00000000000E+00 -0.74505805969E-08  0.93827000000E+00  0.93827000000E+00 0.  1.
     999902    2    1    2    0    0 -0.15318931420E-01  0.73767514772E-02 -0.16109031152E-01  0.10205080657E+01  0.10202392490E+01 0.  0.
     999903    2    3    3    0    0 -0.79941777409E-01 -0.92552765916E-01  0.41752825737E-01  0.13061480515E+00  0.18979636804E-01 0.  0.
         14    1    1    2    0    0  0.15318931420E-01 -0.73767514772E-02  0.16109031152E-01  0.23421934311E-01  0.00000000000E+00 0.  1.
     999901    1    3    3    0    0  0.64622845988E-01  0.99929517394E-01 -0.57861856890E-01  0.88989326054E+00  0.88000000000E+00 0.  1.
        -11    1    4    4    0    0 -0.10430642319E-01 -0.18960584764E-01  0.13512979137E-01  0.25517911355E-01  0.51100000000E-03 0. -1.
         11    1    4    4    0    0 -0.69511135090E-01 -0.73592181153E-01  0.28239846600E-01  0.10509689379E+00  0.51100000000E-03 0.  1.
</event>
<event>
 8    1  0.1075206E+005  0.1043930E+01  0.7957747E-01            NaN
         13   -1    0    0    0    0  0.00000000000E+00  0.00000000000E+00  0.74505805969E-08  0.10566000000E+00  0.10566000000E+00 0.  1.
     999900   -1    0    0    0    0 -0.00000000000E+00 -0.00000000000E+00 -0.74505805969E-08  0.93827000000E+00  0.93827000000E+00 0.  1.
     999902    2    1    2    0    0 -0.21749571243E-01  0.72332351027E-02 -0.21571076778E-02  0.10209079095E+01  0.10206482954E+01 0.  0.
     999903    2    3    3    0    0 -0.10192206231E+00 -0.49999355154E-01  0.65921489869E-01  0.13279874210E+00  0.20045467703E-01 0.  0.
         14    1    1    2    0    0  0.21749571243E-01 -0.72332351027E-02  0.21571076778E-02  0.23022090541E-01  0.00000000000E+00 0.  1.
     999901    1    3    3    0    0  0.80172491062E-01  0.57232590256E-01 -0.68078597546E-01  0.88810916736E+00  0.88000000000E+00 0.  1.
        -11    1    4    4    0    0 -0.37967413425E-01 -0.26540972066E-01  0.18957388076E-01  0.50055882412E-01  0.51100000000E-03 0.  1.
         11    1    4    4    0    0 -0.63954648881E-01 -0.23458383088E-01  0.46964101792E-01  0.82742859684E-01  0.51100000000E-03 0. -1.
</event>
<event>
 8    1  0.1075206E+005  0.1043930E+01  0.7957747E-01            NaN
         13   -1    0    0    0    0  0.00000000000E+00  0.00000000000E+00  0.74505805969E-08  0.10566000000E+00  0.10566000000E+00 0. -1.
     999900   -1    0    0    0    0 -0.00000000000E+00 -0.00000000000E+00 -0.74505805969E-08  0.93827000000E+00  0.93827000000E+00 0. -1.
     999902    2    1    2    0    0  0.21240867362E-01 -0.11116819866E-01 -0.68654484727E-02  0.10189922272E+01  0.10186870307E+01 0.  0.
     999903    2    3    3    0    0  0.11093338229E-01  0.12068768378E+00 -0.38511892912E-01  0.12855587518E+00  0.18837939856E-01 0.  0.
         14    1    1    2    0    0 -0.21240867362E-01  0.11116819866E-01  0.68654484727E-02  0.24937772815E-01  0.00000000000E+00 0. -1.
     999901    1    3    3    0    0  0.10147529133E-01 -0.13180450365E+00  0.31646444439E-01  0.89043635201E+00  0.88000000000E+00 0. -1.
        -11    1    4    4    0    0  0.12837926244E-01  0.48559973477E-01 -0.20017839146E-01  0.54072713816E-01  0.51100000000E-03 0.  1.
         11    1    4    4    0    0 -0.17445880149E-02  0.72127710303E-01 -0.18494053765E-01  0.74483161363E-01  0.51100000000E-03 0. -1.
</event>
<event>
 8    1  0.1075206E+005  0.1043930E+01  0.7957747E-01            NaN
         13   -1    0    0    0    0  0.00000000000E+00  0.00000000000E+00  0.74505805969E-08  0.10566000000E+00  0.10566000000E+00 0. -1.
     999900   -1    0    0    0    0 -0.00000000000E+00 -0.00000000000E+00 -0.74505805969E-08  0.93827000000E+00  0.93827000000E+00 0.  1.
     999902    2    1    2    0    0  0.11046628932E-01 -0.16853604730E-01  0.12804241546E-01  0.10200548957E+01  0.10197754506E+01 0.  0.
     999903    2    3    3    0    0 -0.44697051152E-01  0.46277035574E-01 -0.10850583749E+00  0.12774947105E+00  0.20174741131E-01 0.  0.
         14    1    1    2    0    0 -0.11046628932E-01  0.16853604730E-01 -0.12804241546E-01  0.23875104288E-01  0.00000000000E+00 0.  1.
     999901    1    3    3    0    0  0.55743680084E-01 -0.63130640305E-01  0.12131007904E+00  0.89230542467E+00  0.88000000000E+00 0. -1.
        -11    1    4    4    0    0 -0.23615461280E-01  0.38014882037E-01 -0.73600380320E-01  0.86139992872E-01  0.51100000000E-03 0. -1.
         11    1    4    4    0    0 -0.21081589872E-01  0.82621535374E-02 -0.34905457170E-01  0.41609478173E-01  0.51100000000E-03 0.  1.
</event>
<event>
 8    1  0.1075206E+005  0.1043930E+01  0.7957747E-01            NaN
         13   -1    0    0    0    0  0.00000000000E+00  0.00000000000E+00  0.74505805969E-08  0.10566000000E+00  0.10566000000E+00 0. -1.
     999900   -1    0    0    0    0 -0.00000000000E+00 -0.00000000000E+00 -0.74505805969E-08  0.93827000000E+00  0.93827000000E+00 0. -1.
     999902    2    1    2    0    0 -0.12742811682E-01  0.69697656783E-02 -0.18807151807E-01  0.10201673015E+01  0.10198905123E+01 0.  0.
     999903    2    3    3    0    0  0.59161071956E-01  0.11341930718E+00 -0.19118306814E-01  0.13084071904E+00  0.19743668041E-01 0.  0.
         14    1    1    2    0    0  0.12742811682E-01 -0.69697656783E-02  0.18807151807E-01  0.23762698548E-01  0.00000000000E+00 0. -1.
     999901    1    3    3    0    0 -0.71903883638E-01 -0.10644954150E+00  0.31115500699E-03  0.88932658241E+00  0.88000000000E+00 0.  1.
        -11    1    4    4    0    0  0.30864658889E-01  0.38753459411E-01 -0.57050858582E-02  0.49872506558E-01  0.51100000000E-03 0. -1.
         11    1    4    4    0    0  0.28296413067E-01  0.74665847767E-01 -0.13413220956E-01  0.80968212482E-01  0.51100000000E-03 0.  1.
</event>
<event>
 8    1  0.1075206E+005  0.1043930E+01  0.7957747E-01            NaN
         13   -1    0    0    0    0  0.00000000000E+00  0.00000000000E+00  0.74505805969E-08  0.10566000000E+00  0.10566000000E+00 0.  1.
     999900   -1    0    0    0    0 -0.00000000000E+00 -0.00000000000E+00 -0.74505805969E-08  0.93827000000E+00  0.93827000000E+00 0.  1.
     999902    2    1    2    0    0 -0.17564372227E-01 -0.53684587411E-02  0.13471411236E-01  0.10211526770E+01  0.10208986156E+01 0.  0.
     999903    2    3    3    0    0 -0.92260886330E-01 -0.45900875658E-01  0.83747506102E-01  0.13426983497E+00  0.19894277335E-01 0.  0.
         14    1    1    2    0    0  0.17564372227E-01  0.53684587411E-02 -0.13471411236E-01  0.22777322970E-01  0.00000000000E+00 0. -1.
     999901    1    3    3    0    0  0.74696514103E-01  0.40532416917E-01 -0.70276094866E-01  0.88688284207E+00  0.88000000000E+00 0.  1.
        -11    1    4    4    0    0 -0.42232956140E-01 -0.24294239507E-01  0.27488876245E-01  0.55944008578E-01  0.51100000000E-03 0. -1.
         11    1    4    4    0    0 -0.50027930190E-01 -0.21606636151E-01  0.56258629857E-01  0.78325826388E-01  0.51100000000E-03 0.  1.
</event>
<event>
 8    1  0.1075206E+005  0.1043930E+01  0.7957747E-01            NaN
         13   -1    0    0    0    0  0.00000000000E+00  0.00000000000E+00  0.74505805969E-08  0.10566000000E+00  0.10566000000E+00 0. -1.
     999900   -1    0    0    0    0 -0.00000000000E+00 -0.00000000000E+00 -0.74505805969E-08  0.93827000000E+00  0.93827000000E+00 0.  1.
     999902    2    1    2    0    0 -0.76151034611E-02  0.56256053365E-02 -0.21479527153E-01  0.10204564548E+01  0.10201864383E+01 0.  0.
     999903    2    3    3    0    0 -0.10045807723E+00 -0.76887400514E-01  0.23262623646E-01  0.13060811159E+00  0.22667852039E-01 0.  0.
         14    1    1    2    0    0  0.76151034611E-02 -0.56256053365E-02  0.21479527153E-01  0.23473545170E-01  0.00000000000E+00 0. -1.
     999901    1    3    3    0    0  0.92842973765E-01  0.82513005851E-01 -0.44742150799E-01  0.88984834324E+00  0.88000000000E+00 0.  1.
        -11    1    4    4    0    0 -0.75314527062E-01 -0.47861645844E-01  0.92035566749E-02  0.89710544007E-01  0.51100000000E-03 0.  1.
         11    1    4    4    0    0 -0.25143550163E-01 -0.29025754670E-01  0.14059066971E-01  0.40897567581E-01  0.51100000000E-03 0. -1.
</event>
<event>
 8    1  0.1075206E+005  0.1043930E+01  0.7957747E-01            NaN
         13   -1    0    0    0    0  0.00000000000E+00  0.00000000000E+00  0.74505805969E-08  0.10566000000E+00  0.10566000000E+00 0.  1.
     999900   -1    0    0    0    0 -0.00000000000E+00 -0.00000000000E+00 -0.74505805969E-08  0.93827000000E+00  0.93827000000E+00 0. -1.
     999902    2    1    2    0    0 -0.51087012629E-02 -0.99485574148E-02  0.18662580264E-01  0.10221730580E+01  0.10219414836E+01 0.  0.
     999903    2    3    3    0    0  0.30417927262E-01 -0.10608966992E-02 -0.12469170473E+00  0.12982134321E+00  0.19472650689E-01 0.  0.
         14    1    1    2    0    0  0.51087012629E-02  0.99485574148E-02 -0.18662580264E-01  0.21756942004E-01  0.00000000000E+00 0. -1.
     999901    1    3    3    0    0 -0.35526628525E-01 -0.88876607156E-02  0.14335428499E+00  0.89235171478E+00  0.88000000000E+00 0.  1.
        -11    1    4    4    0    0  0.31969963918E-01  0.41760166675E-03 -0.99018122418E-01  0.10405336454E+00  0.51100000000E-03 0.  1.
         11    1    4    4    0    0 -0.15520366563E-02 -0.14784983660E-02 -0.25673582312E-01  0.25767978674E-01  0.51100000000E-03 0. -1.
</event>
<event>
 8    1  0.1075206E+005  0.1043930E+01  0.7957747E-01            NaN
         13   -1    0    0    0    0  0.00000000000E+00  0.00000000000E+00  0.74505805969E-08  0.10566000000E+00  0.10566000000E+00 0. -1.
     999900   -1    0    0    0    0 -0.00000000000E+00 -0.00000000000E+00 -0.74505805969E-08  0.93827000000E+00  0.93827000000E+00 0. -1.
     999902    2    1    2    0    0  0.23153469913E-01  0.10388403246E-03  0.29612645332E-02  0.10205876983E+01  0.10203207275E+01 0.  0.
     999903    2    3    3    0    0 -0.87669491621E-01 -0.87248293947E-01  0.29957537516E-01  0.12893702088E+00  0.20714650385E-01 0.  0.
         14    1    1    2    0    0 -0.23153469913E-01 -0.10388403246E-03 -0.29612645332E-02  0.23342301698E-01  0.00000000000E+00 0.  1.
     999901    1    3    3    0    0  0.11082296153E+00  0.87352177979E-01 -0.26996272983E-01  0.89165067743E+00  0.88000000000E+00 0. -1.
        -11    1    4    4    0    0 -0.60107003374E-01 -0.64155809547E-01  0.11964693177E-01  0.88725614999E-01  0.51100000000E-03 0. -1.
         11    1    4    4    0    0 -0.27562488247E-01 -0.23092484400E-01  0.17992844339E-01  0.40211405876E-01  0.51100000000E-03 0.  1.
</event>
<event>
 8    1  0.1075206E+005  0.1043930E+01  0.7957747E-01            NaN
         13   -1    0    0    0    0  0.00000000000E+00  0.00000000000E+00  0.74505805969E-08  0.10566000000E+00  0.10566000000E+00 0.  1.
     999900   -1    0    0    0    0 -0.00000000000E+00 -0.00000000000E+00 -0.74505805969E-08  0.93827000000E+00  0.93827000000E+00 0. -1.
     999902    2    1    2    0    0  0.47820708661E-02 -0.76908476520E-02  0.21099536684E-01  0.10209689942E+01  0.10207107716E+01 0.  0.
     999903    2    3    3    0    0  0.98703219622E-01 -0.10004458073E-01 -0.81596279898E-01  0.13002962155E+00  0.20182538075E-01 0.  0.
         14    1    1    2    0    0 -0.47820708661E-02  0.76908476520E-02 -0.21099536684E-01  0.22961005807E-01  0.00000000000E+00 0. -1.
     999901    1    3    3    0    0 -0.93921148755E-01  0.23136104212E-02  0.10269581658E+00  0.89093937264E+00  0.88000000000E+00 0.  1.
        -11    1    4    4    0    0  0.49084513790E-01 -0.52630352563E-02 -0.53547827436E-01  0.72832822122E-01  0.51100000000E-03 0.  1.
         11    1    4    4    0    0  0.49618705831E-01 -0.47414228169E-02 -0.28048452462E-01  0.57196799431E-01  0.51100000000E-03 0. -1.
</event>
<event>
 8    1  0.1075206E+005  0.1043930E+01  0.7957747E-01            NaN
         13   -1    0    0    0    0  0.00000000000E+00  0.00000000000E+00  0.74505805969E-08  0.10566000000E+00  0.10566000000E+00 0. -1.
     999900   -1    0    0    0    0 -0.00000000000E+00 -0.00000000000E+00 -0.74505805969E-08  0.93827000000E+00  0.93827000000E+00 0.  1.
     999902    2    1    2    0    0  0.19067449715E-01 -0.14364973892E-01 -0.40499965636E-02  0.10197159011E+01  0.10194283675E+01 0.  0.
     999903    2    3    3    0    0  0.76813929856E-01 -0.91548177830E-01 -0.54282421287E-01  0.13302813224E+00  0.21643798735E-01 0.  0.
         14    1    1    2    0    0 -0.19067449715E-01  0.14364973892E-01  0.40499965636E-02  0.24214098903E-01  0.00000000000E+00 0. -1.
     999901    1    3    3    0    0 -0.57746480141E-01  0.77183203939E-01  0.50232424723E-01  0.88668776885E+00  0.88000000000E+00 0.  1.
        -11    1    4    4    0    0  0.65950227158E-01 -0.68624490019E-01 -0.36020936040E-01  0.10176699881E+00  0.51100000000E-03 0. -1.
         11    1    4    4    0    0  0.10863702698E-01 -0.22923687812E-01 -0.18261485247E-01  0.31261133435E-01  0.51100000000E-03 0.  1.
</event>
<event>
 8    1  0.1075206E+005  0.1043930E+01  0.7957747E-01            NaN
         13   -1    0    0    0    0  0.00000000000E+00  0.00000000000E+00  0.74505805969E-08  0.10566000000E+00  0.10566000000E+00 0. -1.
     999900   -1    0    0    0    0 -0.00000000000E+00 -0.00000000000E+00 -0.74505805969E-08  0.93827000000E+00  0.93827000000E+00 0. -1.
     999902    2    1    2    0    0 -0.16909488550E-01 -0.12697420917E-01 -0.11297126843E-01  0.10199554223E+01  0.10196736160E+01 0.  0.
     999903    2    3    3    0    0 -0.82111064882E-01 -0.56143498958E-03  0.99574709748E-01  0.13052240523E+00  0.19453361135E-01 0.  0.
         14    1    1    2    0    0  0.16909488550E-01  0.12697420917E-01  0.11297126843E-01  0.23974577700E-01  0.00000000000E+00 0. -1.
     999901    1    3    3    0    0  0.65201576332E-01 -0.12135985928E-01 -0.11087183659E+00  0.88943301707E+00  0.88000000000E+00 0. -1.
        -11    1    4    4    0    0 -0.75693975425E-01 -0.32721057688E-02  0.96987889082E-01  0.12307394664E+00  0.51100000000E-03 0. -1.
         11    1    4    4    0    0 -0.64170894567E-02  0.27106707792E-02  0.25868206664E-02  0.74484585874E-02  0.51100000000E-03 0.  1.
</event>
<event>
 8    1  0.1075206E+005  0.1043930E+01  0.7957747E-01            NaN
         13   -1    0    0    0    0  0.00000000000E+00  0.00000000000E+00  0.74505805969E-08  0.10566000000E+00  0.10566000000E+00 0. -1.
     999900   -1    0    0    0    0 -0.00000000000E+00 -0.00000000000E+00 -0.74505805969E-08  0.93827000000E+00  0.93827000000E+00 0. -1.
     999902    2    1    2    0    0 -0.34417788500E-02  0.84439275385E-03  0.23126565697E-01  0.10205334857E+01  0.10202652589E+01 0.  0.
     999903    2    3    3    0    0  0.58242981221E-01 -0.87818673856E-01 -0.71417666909E-01  0.12890309090E+00  0.20277064798E-01 0.  0.
         14    1    1    2    0    0  0.34417788500E-02 -0.84439275385E-03 -0.23126565697E-01  0.23396514306E-01  0.00000000000E+00 0.  1.
     999901    1    3    3    0    0 -0.61684760071E-01  0.88663066610E-01  0.94544232605E-01  0.89163039480E+00  0.88000000000E+00 0.  1.
        -11    1    4    4    0    0  0.47923572322E-01 -0.58916620323E-01 -0.57189788448E-01  0.95072445841E-01  0.51100000000E-03 0.  1.
         11    1    4    4    0    0  0.10319408899E-01 -0.28902053533E-01 -0.14227878461E-01  0.33830645057E-01  0.51100000000E-03 0. -1.
</event>
<event>
 8    1  0.1075206E+005  0.1043930E+01  0.7957747E-01            NaN
         13   -1    0    0    0    0  0.00000000000E+00  0.00000000000E+00  0.74505805969E-08  0.10566000000E+00  0.10566000000E+00 0. -1.
     999900   -1    0    0    0    0 -0.00000000000E+00 -0.00000000000E+00 -0.74505805969E-08  0.93827000000E+00  0.93827000000E+00 0. -1.
     999902    2    1    2    0    0  0.16946086612E-01  0.83178711183E-02 -0.12822397217E-01  0.10211095990E+01  0.10208545648E+01 0.  0.
     999903    2    3    3    0    0  0.42704429017E-01 -0.10929677399E+00 -0.56573685036E-01  0.13183412305E+00  0.20253421867E-01 0.  0.
         14    1    1    2    0    0 -0.16946086612E-01 -0.83178711183E-02  0.12822397217E-01  0.22820401000E-01  0.00000000000E+00 0. -1.
     999901    1    3    3    0    0 -0.25758342405E-01  0.11761464511E+00  0.43751287819E-01  0.88927547595E+00  0.88000000000E+00 0.  1.
        -11    1    4    4    0    0  0.20773831566E-01 -0.76707532422E-01 -0.33251167101E-01  0.86148121527E-01  0.51100000000E-03 0.  1.
         11    1    4    4    0    0  0.21930597452E-01 -0.32589241573E-01 -0.23322517935E-01  0.45686001518E-01  0.51100000000E-03 0. -1.
</event>
<event>
 8    1  0.1075206E+005  0.1043930E+01  0.7957747E-01            NaN
         13   -1    0    0    0    0  0.00000000000E+00  0.00000000000E+00  0.74505805969E-08  0.10566000000E+00  0.10566000000E+00 0. -1.
     999900   -1    0    0    0    0 -0.00000000000E+00 -0.00000000000E+00 -0.74505805969E-08  0.93827000000E+00  0.93827000000E+00 0.  1.
     999902    2    1    2    0    0 -0.12951116209E-01 -0.46053121152E-02  0.19057829102E-01  0.10204323158E+01  0.10201617372E+01 0.  0.
     999903    2    3    3    0    0  0.16282493199E-02  0.11723769558E-01 -0.12634736022E+00  0.12823174092E+00  0.18428944005E-01 0.  0.
         14    1    1    2    0    0  0.12951116209E-01  0.46053121152E-02 -0.19057829102E-01  0.23497684158E-01  0.00000000000E+00 0. -1.
     999901    1    3    3    0    0 -0.14579365529E-01 -0.16329081673E-01  0.14540518932E+00  0.89220057492E+00  0.88000000000E+00 0. -1.
        -11    1    4    4    0    0 -0.13050284164E-02  0.10629573191E-01 -0.30458691378E-01  0.32290616699E-01  0.51100000000E-03 0. -1.
         11    1    4    4    0    0  0.29332777362E-02  0.10941963669E-02 -0.95888668840E-01  0.95941124222E-01  0.51100000000E-03 0.  1.
</event>
<event>
 7    1  0.1677961E+005  0.1043930E+01  0.7957747E-01            NaN
         13   -1    0    0    0    0  0.00000000000E+00  0.00000000000E+00  0.74505805969E-08  0.10566000000E+00  0.10566000000E+00 0. -1.
     999900   -1    0    0    0    0 -0.00000000000E+00 -0.00000000000E+00 -0.74505805969E-08  0.93827000000E+00  0.93827000000E+00 0. -1.
     999903    2    1    2    0    0  0.15594504226E-01  0.16788303397E-01 -0.95243773326E-01  0.10004007002E+00  0.20288015187E-01 0.  0.
         14    1    1    2    0    0 -0.23663794845E-01  0.18749533586E-02  0.58223859336E-01  0.62876930846E-01  0.00000000000E+00 0. -1.
     999901    1    1    2    0    0  0.80692906192E-02 -0.18663256756E-01  0.37019913989E-01  0.88101299913E+00  0.88000000000E+00 0.  1.
        -11    1    3    3    0    0 -0.16201241320E-02  0.95338878532E-02 -0.52559067389E-01  0.53443769568E-01  0.51100000000E-03 0. -1.
         11    1    3    3    0    0  0.17214628358E-01  0.72544155438E-02 -0.42684705937E-01  0.46596300457E-01  0.51100000000E-03 0.  1.
</event>
<event>
 8    1  0.1075206E+005  0.1043930E+01  0.7957747E-01            NaN
         13   -1    0    0    0    0  0.00000000000E+00  0.00000000000E+00  0.74505805969E-08  0.10566000000E+00  0.10566000000E+00 0. -1.
     999900   -1    0    0    0    0 -0.00000000000E+00 -0.00000000000E+00 -0.74505805969E-08  0.93827000000E+00  0.93827000000E+00 0. -1.
     999902    2    1    2    0    0 -0.18393827348E-01  0.87728532308E-02  0.11474586757E-01  0.10205427817E+01  0.10202747705E+01 0.  0.
     999903    2    3    3    0    0 -0.10928612581E+00  0.73102680910E-01  0.11802533918E-01  0.13352539507E+00  0.20056721347E-01 0.  0.
         14    1    1    2    0    0  0.18393827348E-01 -0.87728532308E-02 -0.11474586757E-01  0.23387218295E-01  0.00000000000E+00 0.  1.
     999901    1    3    3    0    0  0.90892298458E-01 -0.64329827679E-01 -0.32794716082E-03  0.88701738664E+00  0.88000000000E+00 0. -1.
        -11    1    4    4    0    0 -0.45076822895E-01  0.42049390542E-01  0.40604718080E-02  0.61780415663E-01  0.51100000000E-03 0. -1.
         11    1    4    4    0    0 -0.64209302911E-01  0.31053290368E-01  0.77420621102E-02  0.71744979404E-01  0.51100000000E-03 0.  1.
</event>
<event>
 8    1  0.1075206E+005  0.1043930E+01  0.7957747E-01            NaN
         13   -1    0    0    0    0  0.00000000000E+00  0.00000000000E+00  0.74505805969E-08  0.10566000000E+00  0.10566000000E+00 0. -1.
     999900   -1    0    0    0    0 -0.00000000000E+00 -0.00000000000E+00 -0.74505805969E-08  0.93827000000E+00  0.93827000000E+00 0.  1.
     999902    2    1    2    0    0  0.20410551747E-01  0.68347879436E-02  0.60904112794E-02  0.10215604211E+01  0.10213154733E+01 0.  0.
     999903    2    3    3    0    0 -0.48290170929E-01  0.39236083020E-01  0.11433283110E+00  0.13168062326E+00  0.19909280693E-01 0.  0.
         14    1    1    2    0    0 -0.20410551747E-01 -0.68347879436E-02 -0.60904112794E-02  0.22369578861E-01  0.00000000000E+00 0.  1.
     999901    1    3    3    0    0  0.68700722675E-01 -0.32401295076E-01 -0.10824241982E+00  0.88987979788E+00  0.88000000000E+00 0.  1.
        -11    1    4    4    0    0 -0.24169847778E-01  0.10388107556E-01  0.60892784605E-01  0.66334656539E-01  0.51100000000E-03 0.  1.
         11    1    4    4    0    0 -0.24120323150E-01  0.28847975464E-01  0.53440046492E-01  0.65345966725E-01  0.51100000000E-03 0. -1.
</event>
<event>
 8    1  0.1075206E+005  0.1043930E+01  0.7957747E-01            NaN
         13   -1    0    0    0    0  0.00000000000E+00  0.00000000000E+00  0.74505805969E-08  0.10566000000E+00  0.10566000000E+00 0. -1.
     999900   -1    0    0    0    0 -0.00000000000E+00 -0.00000000000E+00 -0.74505805969E-08  0.93827000000E+00  0.93827000000E+00 0. -1.
     999902    2    1    2    0    0  0.47811153635E-02 -0.22708090957E-01  0.91207662864E-02  0.10189959904E+01  0.10186908871E+01 0.  0.
     999903    2    3    3    0    0 -0.69452502864E-01  0.21568671312E-01  0.10494420550E+00  0.12958427847E+00  0.22134615885E-01 0.  0.
         14    1    1    2    0    0 -0.47811153635E-02  0.22708090957E-01 -0.91207662864E-02  0.24934009639E-01  0.00000000000E+00 0.  1.
     999901    1    3    3    0    0  0.74233618228E-01 -0.44276762270E-01 -0.95823439217E-01  0.88941171189E+00  0.88000000000E+00 0.  1.
        -11    1    4    4    0    0 -0.49435461413E-01  0.45872546278E-02  0.71960121989E-01  0.87426700886E-01  0.51100000000E-03 0. -1.
         11    1    4    4    0    0 -0.20017041451E-01  0.16981416685E-01  0.32984083515E-01  0.42157577580E-01  0.51100000000E-03 0.  1.
</event>
<event>
 8    1  0.1075206E+005  0.1043930E+01  0.7957747E-01            NaN
         13   -1    0    0    0    0  0.00000000000E+00  0.00000000000E+00  0.74505805969E-08  0.10566000000E+00  0.10566000000E+00 0. -1.
     999900   -1    0    0    0    0 -0.00000000000E+00 -0.00000000000E+00 -0.74505805969E-08  0.93827000000E+00  0.93827000000E+00 0.  1.
     999902    2    1    2    0    0  0.14105179634E-01  0.74344877288E-02 -0.17080431781E-01  0.10205640237E+01  0.10202965047E+01 0.  0.
     999903    2    3    3    0    0 -0.12625664167E+00 -0.92821863513E-02  0.10867355651E-01  0.12884547676E+00  0.21357877057E-01 0.  0.
         14    1    1    2    0    0 -0.14105179634E-01 -0.74344877288E-02  0.17080431781E-01  0.23365976336E-01  0.00000000000E+00 0. -1.
     999901    1    3    3    0    0  0.14036182131E+00  0.16716674080E-01 -0.27947787432E-01  0.89171854691E+00  0.88000000000E+00 0.  1.
        -11    1    4    4    0    0 -0.79428132635E-01 -0.95589069352E-02  0.16466278767E-01  0.81679865409E-01  0.51100000000E-03 0. -1.
         11    1    4    4    0    0 -0.46828509037E-01  0.27672058388E-03 -0.55989231165E-02  0.47165611350E-01  0.51100000000E-03 0.  1.
</event>
<event>
 8    1  0.1075206E+005  0.1043930E+01  0.7957747E-01            NaN
         13   -1    0    0    0    0  0.00000000000E+00  0.00000000000E+00  0.74505805969E-08  0.10566000000E+00  0.10566000000E+00 0.  1.
     999900   -1    0    0    0    0 -0.00000000000E+00 -0.00000000000E+00 -0.74505805969E-08  0.93827000000E+00  0.93827000000E+00 0.  1.
     999902    2    1    2    0    0  0.18125174373E-01 -0.16187430912E-01 -0.13350158053E-02  0.10195920228E+01  0.10193015039E+01 0.  0.
     999903    2    3    3    0    0 -0.25150634586E-02  0.38412917873E-01  0.12157075065E+00  0.12913537316E+00  0.20362204819E-01 0.  0.
         14    1    1    2    0    0 -0.18125174373E-01  0.16187430912E-01  0.13350158053E-02  0.24337977171E-01  0.00000000000E+00 0.  1.
     999901    1    3    3    0    0  0.20640237832E-01 -0.54600348785E-01 -0.12290576645E+00  0.89045664967E+00  0.88000000000E+00 0.  1.
        -11    1    4    4    0    0  0.34670273495E-02  0.35319088102E-01  0.11147334798E+00  0.11698729287E+00  0.51100000000E-03 0. -1.
         11    1    4    4    0    0 -0.59820908082E-02  0.30938297708E-02  0.10097402672E-01  0.12148080293E-01  0.51100000000E-03 0.  1.
</event>
<event>
 8    1  0.1075206E+005  0.1043930E+01  0.7957747E-01            NaN
         13   -1    0    0    0    0  0.00000000000E+00  0.00000000000E+00  0.74505805969E-08  0.10566000000E+00  0.10566000000E+00 0. -1.
     999900   -1    0    0    0    0 -0.00000000000E+00 -0.00000000000E+00 -0.74505805969E-08  0.93827000000E+00  0.93827000000E+00 0.  1.
     999902    2    1    2    0    0  0.24119314429E-01 -0.27299144702E-02 -0.28306797161E-03  0.10196550358E+01  0.10193660373E+01 0.  0.
     999903    2    3    3    0    0 -0.12376702263E+00  0.19444042979E-01 -0.61772065553E-02  0.12702028742E+00  0.19991219004E-01 0.  0.
         14    1    1    2    0    0 -0.24119314429E-01  0.27299144702E-02  0.28306797161E-03  0.24274964243E-01  0.00000000000E+00 0.  1.
     999901    1    3    3    0    0  0.14788633705E+00 -0.22173957449E-01  0.58941385837E-02  0.89263474834E+00  0.88000000000E+00 0. -1.
        -11    1    4    4    0    0 -0.10199600498E+00  0.23186036448E-01 -0.25654232309E-02  0.10463087420E+00  0.51100000000E-03 0. -1.
         11    1    4    4    0    0 -0.21771017648E-01 -0.37419934688E-02 -0.36117833244E-02  0.22389413220E-01  0.51100000000E-03 0.  1.
</event>
<event>
 8    1  0.1075206E+005  0.1043930E+01  0.7957747E-01            NaN
         13   -1    0    0    0    0  0.00000000000E+00  0.00000000000E+00  0.74505805969E-08  0.10566000000E+00  0.10566000000E+00 0.  1.
     999900   -1    0    0    0    0 -0.00000000000E+00 -0.00000000000E+00 -0.74505805969E-08  0.93827000000E+00  0.93827000000E+00 0. -1.
     999902    2    1    2    0    0  0.28006253999E-02  0.17376777702E-01 -0.11260954044E-01  0.10230349051E+01  0.10228214957E+01 0.  0.
     999903    2    3    3    0    0  0.89601486788E-01  0.99088542947E-01 -0.94434277342E-03  0.13493714324E+00  0.18978278719E-01 0.  0.
         14    1    1    2    0    0 -0.28006253999E-02 -0.17376777702E-01  0.11260954044E-01  0.20895094925E-01  0.00000000000E+00 0.  1.
     999901    1    3    3    0    0 -0.86800861388E-01 -0.81711765246E-01 -0.10316611271E-01  0.88809776184E+00  0.88000000000E+00 0. -1.
        -11    1    4    4    0    0  0.63042191741E-01  0.79730588449E-01  0.38663230438E-02  0.10171771846E+00  0.51100000000E-03 0. -1.
         11    1    4    4    0    0  0.26559295047E-01  0.19357954499E-01 -0.48106658172E-02  0.33219424775E-01  0.51100000000E-03 0.  1.
</event>
<event>
 8    1  0.1075206E+005  0.1043930E+01  0.7957747E-01            NaN
         13   -1    0    0    0    0  0.00000000000E+00  0.00000000000E+00  0.74505805969E-08  0.10566000000E+00  0.10566000000E+00 0.  1.
     999900   -1    0    0    0    0 -0.00000000000E+00 -0.00000000000E+00 -0.74505805969E-08  0.93827000000E+00  0.93827000000E+00 0. -1.
     999902    2    1    2    0    0 -0.90846921766E-02  0.34114976891E-03 -0.22098307697E-01  0.10200347449E+01  0.10197548223E+01 0.  0.
     999903    2    3    3    0    0  0.92147494605E-01 -0.67607958302E-01 -0.60547014495E-01  0.13079724004E+00  0.19493082096E-01 0.  0.
         14    1    1    2    0    0  0.90846921766E-02 -0.34114976891E-03  0.22098307697E-01  0.23895255140E-01  0.00000000000E+00 0.  1.
     999901    1    3    3    0    0 -0.10123218678E+00  0.67949108071E-01  0.38448706798E-01  0.88923750482E+00  0.88000000000E+00 0.  1.
        -11    1    4    4    0    0  0.44362598110E-02 -0.53915321510E-02 -0.93869970218E-02  0.11710074899E-01  0.51100000000E-03 0.  1.
         11    1    4    4    0    0  0.87711234794E-01 -0.62216426151E-01 -0.51160017473E-01  0.11908716514E+00  0.51100000000E-03 0. -1.
</event>
<event>
 8    1  0.1075206E+005  0.1043930E+01  0.7957747E-01            NaN
         13   -1    0    0    0    0  0.00000000000E+00  0.00000000000E+00  0.74505805969E-08  0.10566000000E+00  0.10566000000E+00 0. -1.
     999900   -1    0    0    0    0 -0.00000000000E+00 -0.00000000000E+00 -0.74505805969E-08  0.93827000000E+00  0.93827000000E+00 0. -1.
     999902    2    1    2    0    0 -0.92211773432E-02 -0.87403632863E-02 -0.20071376331E-01  0.10201753329E+01  0.10198987330E+01 0.  0.
     999903    2    3    3    0    0 -0.11529285468E-01 -0.45855877207E-01 -0.12312879626E+00  0.13338126404E+00  0.19853846761E-01 0.  0.
         14    1    1    2    0    0  0.92211773432E-02  0.87403632863E-02  0.20071376331E-01  0.23754667116E-01  0.00000000000E+00 0. -1.
     999901    1    3    3    0    0  0.23081081252E-02  0.37115513921E-01  0.10305741993E+00  0.88679406884E+00  0.88000000000E+00 0.  1.
        -11    1    4    4    0    0  0.10441408294E-02 -0.33430861569E-01 -0.85237256772E-01  0.91566171692E-01  0.51100000000E-03 0. -1.
         11    1    4    4    0    0 -0.12573426298E-01 -0.12425015638E-01 -0.37891539484E-01  0.41815092347E-01  0.51100000000E-03 0.  1.
</event>
<event>
 8    1  0.1075206E+005  0.1043930E+01  0.7957747E-01            NaN
         13   -1    0    0    0    0  0.00000000000E+00  0.00000000000E+00  0.74505805969E-08  0.10566000000E+00  0.10566000000E+00 0. -1.
     999900   -1    0    0    0    0 -0.00000000000E+00 -0.00000000000E+00 -0.74505805969E-08  0.93827000000E+00  0.93827000000E+00 0.  1.
     999902    2    1    2    0    0 -0.49717189268E-02  0.78069813190E-02  0.27209196048E-01  0.10151896573E+01  0.10147827517E+01 0.  0.
     999903    2    3    3    0    0 -0.97364437960E-01  0.65764695740E-01  0.47671950733E-01  0.12822052850E+00  0.19054134915E-01 0.  0.
         14    1    1    2    0    0  0.49717189268E-02 -0.78069813190E-02 -0.27209196048E-01  0.28740342656E-01  0.00000000000E+00 0.  1.
     999901    1    3    3    0    0  0.92392719033E-01 -0.57957714421E-01 -0.20462754686E-01  0.88696912884E+00  0.88000000000E+00 0. -1.
        -11    1    4    4    0    0 -0.40901432282E-01  0.16549803904E-01  0.17531705627E-01  0.47480996148E-01  0.51100000000E-03 0. -1.
         11    1    4    4    0    0 -0.56463005678E-01  0.49214891836E-01  0.30140245107E-01  0.80739532354E-01  0.51100000000E-03 0.  1.
</event>
<event>
 8    1  0.1075206E+005  0.1043930E+01  0.7957747E-01            NaN
         13   -1    0    0    0    0  0.00000000000E+00  0.00000000000E+00  0.74505805969E-08  0.10566000000E+00  0.10566000000E+00 0. -1.
     999900   -1    0    0    0    0 -0.00000000000E+00 -0.00000000000E+00 -0.74505805969E-08  0.93827000000E+00  0.93827000000E+00 0.  1.
     999902    2    1    2    0    0  0.93669554197E-03 -0.19728476475E-01 -0.12085902367E-01  0.10207748879E+01  0.10205122304E+01 0.  0.
     999903    2    3    3    0    0 -0.28376806573E-01 -0.80081007606E-02  0.12476311395E+00  0.12963836527E+00  0.19258720599E-01 0.  0.
         14    1    1    2    0    0 -0.93669554197E-03  0.19728476475E-01  0.12085902367E-01  0.23155112148E-01  0.00000000000E+00 0. -1.
     999901    1    3    3    0    0  0.29313502115E-01 -0.11720375714E-01 -0.13684901631E+00  0.89113652258E+00  0.88000000000E+00 0.  1.
        -11    1    4    4    0    0 -0.24657509138E-01 -0.73523163500E-02  0.12256725634E+00  0.12523994075E+00  0.51100000000E-03 0. -1.
         11    1    4    4    0    0 -0.37192974350E-02 -0.65578441065E-03  0.21958576111E-02  0.43984245192E-02  0.51100000000E-03 0.  1.
</event>
<event>
 8    1  0.1075206E+005  0.1043930E+01  0.7957747E-01            NaN
         13   -1    0    0    0    0  0.00000000000E+00  0.00000000000E+00  0.74505805969E-08  0.10566000000E+00  0.10566000000E+00 0.  1.
     999900   -1    0    0    0    0 -0.00000000000E+00 -0.00000000000E+00 -0.74505805969E-08  0.93827000000E+00  0.93827000000E+00 0. -1.
     999902    2    1    2    0    0  0.23668470038E-01 -0.44073225911E-02 -0.32484865901E-03  0.10198524899E+01  0.10195682295E+01 0.  0.
     999903    2    3    3    0    0  0.84910901557E-01  0.16811461980E-01  0.97895750588E-01  0.13201908302E+00  0.18787598081E-01 0.  0.
         14    1    1    2    0    0 -0.23668470038E-01  0.44073225911E-02  0.32484865901E-03  0.24077510108E-01  0.00000000000E+00 0. -1.
     999901    1    3    3    0    0 -0.61242431520E-01 -0.21218784571E-01 -0.98220599247E-01  0.88783340687E+00  0.88000000000E+00 0. -1.
        -11    1    4    4    0    0  0.18842554489E-01 -0.14098429538E-02  0.30596977199E-01  0.35964783491E-01  0.51100000000E-03 0. -1.
         11    1    4    4    0    0  0.66068347068E-01  0.18221304933E-01  0.67298773390E-01  0.96054299532E-01  0.51100000000E-03 0.  1.
</event>
<event>
 8    1  0.1075206E+005  0.1043930E+01  0.7957747E-01            NaN
         13   -1    0    0    0    0  0.00000000000E+00  0.00000000000E+00  0.74505805969E-08  0.10566000000E+00  0.10566000000E+00 0. -1.
     999900   -1    0    0    0    0 -0.00000000000E+00 -0.00000000000E+00 -0.74505805969E-08  0.93827000000E+00  0.93827000000E+00 0. -1.
     999902    2    1    2    0    0 -0.20349000118E-01 -0.16762517562E-01  0.19682129588E-01  0.10110293917E+01  0.10104939292E+01 0.  0.
     999903    2    3    3    0    0 -0.34821927037E-01  0.96322416157E-01  0.64277276591E-01  0.12255519682E+00  0.19940750353E-01 0.  0.
         14    1    1    2    0    0  0.20349000118E-01  0.16762517562E-01 -0.19682129588E-01  0.32900608291E-01  0.00000000000E+00 0.  1.
     999901    1    3    3    0    0  0.14472926919E-01 -0.11308493372E+00 -0.44595147003E-01  0.88847419489E+00  0.88000000000E+00 0. -1.
        -11    1    4    4    0    0 -0.34261468836E-01  0.72272291931E-01  0.45387476378E-01  0.91964213479E-01  0.51100000000E-03 0.  1.
         11    1    4    4    0    0 -0.56045820083E-03  0.24050124226E-01  0.18889800213E-01  0.30590983341E-01  0.51100000000E-03 0. -1.
</event>
<event>
 8    1  0.1075206E+005  0.1043930E+01  0.7957747E-01            NaN
         13   -1    0    0    0    0  0.00000000000E+00  0.00000000000E+00  0.74505805969E-08  0.10566000000E+00  0.10566000000E+00 0. -1.
     999900   -1    0    0    0    0 -0.00000000000E+00 -0.00000000000E+00 -0.74505805969E-08  0.93827000000E+00  0.93827000000E+00 0.  1.
     999902    2    1    2    0    0  0.15857199791E-01 -0.18320335534E-01 -0.51315013414E-02  0.10191627275E+01  0.10188617411E+01 0.  0.
     999903    2    3    3    0    0 -0.40951073462E-01 -0.10425200014E+00 -0.65542462543E-01  0.13109689939E+00  0.18577208639E-01 0.  0.
         14    1    1    2    0    0 -0.15857199791E-01  0.18320335534E-01  0.51315013414E-02  0.24767272464E-01  0.00000000000E+00 0. -1.
     999901    1    3    3    0    0  0.56808273253E-01  0.85931664610E-01  0.60410961201E-01  0.88806582815E+00  0.88000000000E+00 0. -1.
        -11    1    4    4    0    0 -0.19037143066E-01 -0.58914322142E-01 -0.26373526169E-01  0.67298842287E-01  0.51100000000E-03 0.  1.
         11    1    4    4    0    0 -0.21913930396E-01 -0.45337678003E-01 -0.39168936374E-01  0.63798057100E-01  0.51100000000E-03 0. -1.
</event>
<event>
 8    1  0.1075206E+005  0.1043930E+01  0.7957747E-01            NaN
         13   -1    0    0    0    0  0.00000000000E+00  0.00000000000E+00  0.74505805969E-08  0.10566000000E+00  0.10566000000E+00 0. -1.
     999900   -1    0    0    0    0 -0.00000000000E+00 -0.00000000000E+00 -0.74505805969E-08  0.93827000000E+00  0.93827000000E+00 0. -1.
     999902    2    1    2    0    0 -0.59941942464E-02 -0.15248660157E-01  0.16577211669E-01  0.10206221484E+01  0.10203559740E+01 0.  0.
     999903    2    3    3    0    0 -0.22871587126E-02  0.12317613246E+00  0.32984387625E-01  0.12964270935E+00  0.23273838482E-01 0.  0.
         14    1    1    2    0    0  0.59941942464E-02  0.15248660157E-01 -0.16577211669E-01  0.23307851638E-01  0.00000000000E+00 0.  1.
     999901    1    3    3    0    0 -0.37070355337E-02 -0.13842479262E+00 -0.16407175956E-01  0.89097943901E+00  0.88000000000E+00 0.  1.
        -11    1    4    4    0    0 -0.12651986681E-01  0.74580173246E-01  0.18356430496E-01  0.77842756053E-01  0.51100000000E-03 0. -1.
         11    1    4    4    0    0  0.10364827968E-01  0.48595959212E-01  0.14627957130E-01  0.51799953295E-01  0.51100000000E-03 0.  1.
</event>
<event>
 7    1  0.1075206E+005  0.1043930E+01  0.7957747E-01            NaN
         13   -1    0    0    0    0  0.00000000000E+00  0.00000000000E+00  0.74505805969E-08  0.10566000000E+00  0.10566000000E+00 0. -1.
     999900   -1    0    0    0    0 -0.00000000000E+00 -0.00000000000E+00 -0.74505805969E-08  0.93827000000E+00  0.93827000000E+00 0.  1.
     999903    2    1    2    0    0 -0.17921244714E-01  0.80022012795E-01 -0.10930682142E-01  0.85159240304E-01  0.20197100118E-01 0.  0.
         14    1    1    2    0    0 -0.24556849849E-01  0.51591714878E-01 -0.34616467272E-01  0.66806015634E-01  0.00000000000E+00 0.  1.
     999901    1    1    2    0    0  0.42478094563E-01 -0.13161372767E+00  0.45547149415E-01  0.89196474406E+00  0.88000000000E+00 0. -1.
        -11    1    3    3    0    0  0.19671095628E-02  0.14642860754E-01  0.37709310876E-02  0.15256602943E-01  0.51100000000E-03 0.  1.
         11    1    3    3    0    0 -0.19888354277E-01  0.65379152041E-01 -0.14701613230E-01  0.69902637361E-01  0.51100000000E-03 0. -1.
</event>
<event>
 8    1  0.1075206E+005  0.1043930E+01  0.7957747E-01            NaN
         13   -1    0    0    0    0  0.00000000000E+00  0.00000000000E+00  0.74505805969E-08  0.10566000000E+00  0.10566000000E+00 0. -1.
     999900   -1    0    0    0    0 -0.00000000000E+00 -0.00000000000E+00 -0.74505805969E-08  0.93827000000E+00  0.93827000000E+00 0.  1.
     999902    2    1    2    0    0  0.22307687084E-01 -0.48306844377E-02  0.85739806662E-03  0.10210891693E+01  0.10208336731E+01 0.  0.
     999903    2    3    3    0    0  0.85855903275E-01  0.40739513547E-01 -0.90901364292E-01  0.13286921390E+00  0.18979617492E-01 0.  0.
         14    1    1    2    0    0 -0.22307687084E-01  0.48306844377E-02 -0.85739806662E-03  0.22840830690E-01  0.00000000000E+00 0.  1.
     999901    1    3    3    0    0 -0.63548216191E-01 -0.45570197984E-01  0.91758762358E-01  0.88821995541E+00  0.88000000000E+00 0. -1.
        -11    1    4    4    0    0  0.53220957772E-01  0.26994816989E-01 -0.44226440320E-01  0.74279402494E-01  0.51100000000E-03 0.  1.
         11    1    4    4    0    0  0.32634945503E-01  0.13744696558E-01 -0.46674923971E-01  0.58589811403E-01  0.51100000000E-03 0. -1.
</event>
<event>
 8    1  0.1075206E+005  0.1043930E+01  0.7957747E-01            NaN
         13   -1    0    0    0    0  0.00000000000E+00  0.00000000000E+00  0.74505805969E-08  0.10566000000E+00  0.10566000000E+00 0.  1.
     999900   -1    0    0    0    0 -0.00000000000E+00 -0.00000000000E+00 -0.74505805969E-08  0.93827000000E+00  0.93827000000E+00 0.  1.
     999902    2    1    2    0    0 -0.75002174025E-02  0.12732711839E-01  0.17353292330E-01  0.10211371949E+01  0.10208827840E+01 0.  0.
     999903    2    3    3    0    0  0.62020482222E-01 -0.10346358623E+00  0.45087261228E-01  0.13034884715E+00  0.20166976446E-01 0.  0.
         14    1    1    2    0    0  0.75002174025E-02 -0.12732711839E-01 -0.17353292330E-01  0.22792805149E-01  0.00000000000E+00 0.  1.
     999901    1    3    3    0    0 -0.69520699624E-01  0.11619629807E+00 -0.27733968898E-01  0.89078834770E+00  0.88000000000E+00 0.  1.
        -11    1    4    4    0    0  0.20934900442E-01 -0.36991547107E-01  0.58599592969E-02  0.42909729175E-01  0.51100000000E-03 0. -1.
         11    1    4    4    0    0  0.41085581779E-01 -0.66472039123E-01  0.39227301931E-01  0.87439117980E-01  0.51100000000E-03 0.  1.
</event>
<event>
 8    1  0.1075206E+005  0.1043930E+01  0.7957747E-01            NaN
         13   -1    0    0    0    0  0.00000000000E+00  0.00000000000E+00  0.74505805969E-08  0.10566000000E+00  0.10566000000E+00 0.  1.
     999900   -1    0    0    0    0 -0.00000000000E+00 -0.00000000000E+00 -0.74505805969E-08  0.93827000000E+00  0.93827000000E+00 0.  1.
     999902    2    1    2    0    0  0.91640580148E-02  0.14109854714E-01 -0.16657810780E-01  0.10202540498E+01  0.10199793015E+01 0.  0.
     999903    2    3    3    0    0  0.51065538850E-01 -0.57335908058E-01 -0.10557964922E+00  0.13190314812E+00  0.18875448160E-01 0.  0.
         14    1    1    2    0    0 -0.91640580148E-02 -0.14109854714E-01  0.16657810780E-01  0.23675950230E-01  0.00000000000E+00 0.  1.
     999901    1    3    3    0    0 -0.41901480836E-01  0.71445762771E-01  0.88921838439E-01  0.88835090165E+00  0.88000000000E+00 0. -1.
        -11    1    4    4    0    0  0.32418600655E-01 -0.45268590767E-01 -0.64575746357E-01  0.85267221820E-01  0.51100000000E-03 0.  1.
         11    1    4    4    0    0  0.18646938196E-01 -0.12067317291E-01 -0.41003902863E-01  0.46635926298E-01  0.51100000000E-03 0. -1.
</event>
<event>
 8    1  0.1075206E+005  0.1043930E+01  0.7957747E-01            NaN
         13   -1    0    0    0    0  0.00000000000E+00  0.00000000000E+00  0.74505805969E-08  0.10566000000E+00  0.10566000000E+00 0.  1.
     999900   -1    0    0    0    0 -0.00000000000E+00 -0.00000000000E+00 -0.74505805969E-08  0.93827000000E+00  0.93827000000E+00 0. -1.
     999902    2    1    2    0    0  0.10366440907E-01  0.73918352613E-02  0.20262774470E-01  0.10199992174E+01  0.10197184519E+01 0.  0.
     999903    2    3    3    0    0 -0.73389403341E-01 -0.94406204330E-03  0.10747945623E+00  0.13169111873E+00  0.20095309519E-01 0.  0.
         14    1    1    2    0    0 -0.10366440907E-01 -0.73918352613E-02 -0.20262774470E-01  0.23930782578E-01  0.00000000000E+00 0. -1.
     999901    1    3    3    0    0  0.83755844248E-01  0.83358973046E-02 -0.87216681758E-01  0.88830809869E+00  0.88000000000E+00 0. -1.
        -11    1    4    4    0    0 -0.27024153136E-01  0.81084442702E-02  0.48631002337E-01  0.56225325526E-01  0.51100000000E-03 0. -1.
         11    1    4    4    0    0 -0.46365250205E-01 -0.90525063135E-02  0.58848453890E-01  0.75465793201E-01  0.51100000000E-03 0.  1.
</event>
<event>
 8    1  0.1075206E+005  0.1043930E+01  0.7957747E-01            NaN
         13   -1    0    0    0    0  0.00000000000E+00  0.00000000000E+00  0.74505805969E-08  0.10566000000E+00  0.10566000000E+00 0. -1.
     999900   -1    0    0    0    0 -0.00000000000E+00 -0.00000000000E+00 -0.74505805969E-08  0.93827000000E+00  0.93827000000E+00 0.  1.
     999902    2    1    2    0    0 -0.20322962973E-01 -0.44870244754E-02 -0.10608478233E-01  0.10205698625E+01  0.10203024788E+01 0.  0.
     999903    2    3    3    0    0 -0.13517984843E-01  0.10088768617E+00 -0.80778797676E-01  0.13148380870E+00  0.20042870567E-01 0.  0.
         14    1    1    2    0    0  0.20322962973E-01  0.44870244754E-02  0.10608478233E-01  0.23360137479E-01  0.00000000000E+00 0. -1.
     999901    1    3    3    0    0 -0.68049781301E-02 -0.10537471065E+00  0.70170319443E-01  0.88908605382E+00  0.88000000000E+00 0.  1.
        -11    1    4    4    0    0  0.13769011426E-02  0.44342574035E-01 -0.26380252325E-01  0.51617231256E-01  0.51100000000E-03 0.  1.
         11    1    4    4    0    0 -0.14894885985E-01  0.56545112137E-01 -0.54398545350E-01  0.79866577442E-01  0.51100000000E-03 0. -1.
</event>
<event>
 8    1  0.1075206E+005  0.1043930E+01  0.7957747E-01            NaN
         13   -1    0    0    0    0  0.00000000000E+00  0.00000000000E+00  0.74505805969E-08  0.10566000000E+00  0.10566000000E+00 0. -1.
     999900   -1    0    0    0    0 -0.00000000000E+00 -0.00000000000E+00 -0.74505805969E-08  0.93827000000E+00  0.93827000000E+00 0.  1.
     999902    2    1    2    0    0 -0.62358475838E-02 -0.21247766068E-01 -0.79032579540E-02  0.10204179851E+01  0.10201470725E+01 0.  0.
     999903    2    3    3    0    0  0.86878386652E-01 -0.29005673561E-01  0.90342689801E-01  0.13003452165E+00  0.18920677975E-01 0.  0.
         14    1    1    2    0    0  0.62358475838E-02  0.21247766068E-01  0.79032579540E-02  0.23512014891E-01  0.00000000000E+00 0. -1.
     999901    1    3    3    0    0 -0.93114234235E-01  0.77579074932E-02 -0.98245947755E-01  0.89038346346E+00  0.88000000000E+00 0.  1.
        -11    1    4    4    0    0  0.58844581590E-01 -0.12329650708E-01  0.50339772899E-01  0.78415935406E-01  0.51100000000E-03 0. -1.
         11    1    4    4    0    0  0.28033805062E-01 -0.16676022853E-01  0.40002916902E-01  0.51618586247E-01  0.51100000000E-03 0.  1.
</event>
<event>
 8    1  0.1075206E+005  0.1043930E+01  0.7957747E-01            NaN
         13   -1    0    0    0    0  0.00000000000E+00  0.00000000000E+00  0.74505805969E-08  0.10566000000E+00  0.10566000000E+00 0.  1.
     999900   -1    0    0    0    0 -0.00000000000E+00 -0.00000000000E+00 -0.74505805969E-08  0.93827000000E+00  0.93827000000E+00 0. -1.
     999902    2    1    2    0    0  0.25674435569E-02 -0.13723552872E-01 -0.19918667291E-01  0.10196055067E+01  0.10193153134E+01 0.  0.
     999903    2    3    3    0    0 -0.99323002304E-01  0.14555097315E-01  0.76915633686E-01  0.12800120717E+00  0.19783444778E-01 0.  0.
         14    1    1    2    0    0 -0.25674435569E-02  0.13723552872E-01  0.19918667291E-01  0.24324493345E-01  0.00000000000E+00 0.  1.
     999901    1    3    3    0    0  0.10189044586E+00 -0.28278650188E-01 -0.96834300976E-01  0.89160429948E+00  0.88000000000E+00 0. -1.
        -11    1    4    4    0    0 -0.33927167634E-01 -0.43133893680E-02  0.27531131542E-01  0.43907657151E-01  0.51100000000E-03 0. -1.
         11    1    4    4    0    0 -0.65395834669E-01  0.18868486683E-01  0.49384502144E-01  0.84093550019E-01  0.51100000000E-03 0.  1.
</event>
<event>
 8    1  0.1075206E+005  0.1043930E+01  0.7957747E-01            NaN
         13   -1    0    0    0    0  0.00000000000E+00  0.00000000000E+00  0.74505805969E-08  0.10566000000E+00  0.10566000000E+00 0. -1.
     999900   -1    0    0    0    0 -0.00000000000E+00 -0.00000000000E+00 -0.74505805969E-08  0.93827000000E+00  0.93827000000E+00 0. -1.
     999902    2    1    2    0    0 -0.25372559521E-02 -0.18362392077E-01 -0.49673849866E-02  0.10247391161E+01  0.10245594010E+01 0.  0.
     999903    2    3    3    0    0  0.68492487443E-01  0.95764222823E-01  0.57313423255E-01  0.13235522577E+00  0.19263179764E-01 0.  0.
         14    1    1    2    0    0  0.25372559521E-02  0.18362392077E-01  0.49673849866E-02  0.19190883882E-01  0.00000000000E+00 0. -1.
     999901    1    3    3    0    0 -0.71029743395E-01 -0.11412661490E+00 -0.62280808242E-01  0.89238389035E+00  0.88000000000E+00 0. -1.
        -11    1    4    4    0    0  0.22448196647E-01  0.47200776620E-01  0.22325868171E-01  0.56837842648E-01  0.51100000000E-03 0. -1.
         11    1    4    4    0    0  0.46044290796E-01  0.48563446203E-01  0.34987555084E-01  0.75517383123E-01  0.51100000000E-03 0.  1.
</event>
<event>
 8    1  0.1075206E+005  0.1043930E+01  0.7957747E-01            NaN
         13   -1    0    0    0    0  0.00000000000E+00  0.00000000000E+00  0.74505805969E-08  0.10566000000E+00  0.10566000000E+00 0.  1.
     999900   -1    0    0    0    0 -0.00000000000E+00 -0.00000000000E+00 -0.74505805969E-08  0.93827000000E+00  0.93827000000E+00 0.  1.
     999902    2    1    2    0    0 -0.12367418652E-01 -0.16372717309E-01 -0.12292088434E-01  0.10200110879E+01  0.10197306042E+01 0.  0.
     999903    2    3    3    0    0  0.13403809822E-01  0.12144177322E+00 -0.34008385134E-01  0.12864775710E+00  0.21584919430E-01 0.  0.
         14    1    1    2    0    0  0.12367418652E-01  0.16372717309E-01  0.12292088434E-01  0.23918912063E-01  0.00000000000E+00 0.  1.
     999901    1    3    3    0    0 -0.25771228474E-01 -0.13781449053E+00  0.21716296700E-01  0.89136333084E+00  0.88000000000E+00 0.  1.
        -11    1    4    4    0    0  0.23375185852E-02  0.54246253871E-01 -0.46859185211E-02  0.54500816559E-01  0.51100000000E-03 0.  1.
         11    1    4    4    0    0  0.11066291237E-01  0.67195519350E-01 -0.29322466613E-01  0.74146940542E-01  0.51100000000E-03 0. -1.
</event>
<event>
 8    1  0.1075206E+005  0.1043930E+01  0.7957747E-01            NaN
         13   -1    0    0    0    0  0.00000000000E+00  0.00000000000E+00  0.74505805969E-08  0.10566000000E+00  0.10566000000E+00 0.  1.
     999900   -1    0    0    0    0 -0.00000000000E+00 -0.00000000000E+00 -0.74505805969E-08  0.93827000000E+00  0.93827000000E+00 0.  1.
     999902    2    1    2    0    0  0.37748699858E-03 -0.18028590615E-01 -0.14952473974E-01  0.10205046066E+01  0.10202357096E+01 0.  0.
     999903    2    3    3    0    0 -0.12452573972E-01 -0.93022722209E-01 -0.93241564753E-01  0.13375892045E+00  0.19727289674E-01 0.  0.
         14    1    1    2    0    0 -0.37748699858E-03  0.18028590615E-01  0.14952473974E-01  0.23425393357E-01  0.00000000000E+00 0. -1.
     999901    1    3    3    0    0  0.12830060971E-01  0.74994131594E-01  0.78289090778E-01  0.88674568619E+00  0.88000000000E+00 0. -1.
        -11    1    4    4    0    0  0.26690805559E-02 -0.48886807776E-01 -0.52877758759E-01  0.72064987740E-01  0.51100000000E-03 0.  1.
         11    1    4    4    0    0 -0.15121654528E-01 -0.44135914433E-01 -0.40363805993E-01  0.61693932715E-01  0.51100000000E-03 0. -1.
</event>
<event>
 8    1  0.1075206E+005  0.1043930E+01  0.7957747E-01            NaN
         13   -1    0    0    0    0  0.00000000000E+00  0.00000000000E+00  0.74505805969E-08  0.10566000000E+00  0.10566000000E+00 0.  1.
     999900   -1    0    0    0    0 -0.00000000000E+00 -0.00000000000E+00 -0.74505805969E-08  0.93827000000E+00  0.93827000000E+00 0.  1.
     999902    2    1    2    0    0 -0.47108239694E-03 -0.13627789904E-01 -0.18549363743E-01  0.10209078917E+01  0.10206482772E+01 0.  0.
     999903    2    3    3    0    0 -0.32759938224E-01  0.12282650599E+00  0.11380184630E-01  0.12930365047E+00  0.20745151158E-01 0.  0.
         14    1    1    2    0    0  0.47108239694E-03  0.13627789904E-01  0.18549363743E-01  0.23022108321E-01  0.00000000000E+00 0. -1.
     999901    1    3    3    0    0  0.32288855827E-01 -0.13645429589E+00 -0.29929548373E-01  0.89160424121E+00  0.88000000000E+00 0.  1.
        -11    1    4    4    0    0 -0.12754672554E-01  0.20496717555E-01 -0.17603809633E-02  0.24210682862E-01  0.51100000000E-03 0. -1.
         11    1    4    4    0    0 -0.20005265670E-01  0.10232978843E+00  0.13140565593E-01  0.10509296761E+00  0.51100000000E-03 0.  1.
</event>
<event>
 8    1  0.1075206E+005  0.1043930E+01  0.7957747E-01            NaN
         13   -1    0    0    0    0  0.00000000000E+00  0.00000000000E+00  0.74505805969E-08  0.10566000000E+00  0.10566000000E+00 0. -1.
     999900   -1    0    0    0    0 -0.00000000000E+00 -0.00000000000E+00 -0.74505805969E-08  0.93827000000E+00  0.93827000000E+00 0. -1.
     999902    2    1    2    0    0  0.16280257440E-01 -0.31849077725E-02  0.16760550278E-01  0.10203480903E+01  0.10200755457E+01 0.  0.
     999903    2    3    3    0    0  0.11661837642E+00 -0.22610052170E-01 -0.53116662613E-01  0.13168173038E+00  0.20190049327E-01 0.  0.
         14    1    1    2    0    0 -0.16280257440E-01  0.31849077725E-02 -0.16760550278E-01  0.23581909707E-01  0.00000000000E+00 0.  1.
     999901    1    3    3    0    0 -0.10033811898E+00  0.19425144398E-01  0.69877212891E-01  0.88866635991E+00  0.88000000000E+00 0. -1.
        -11    1    4    4    0    0  0.93010862624E-01 -0.17374026976E-01 -0.50770823655E-01  0.10738163267E+00  0.51100000000E-03 0.  1.
         11    1    4    4    0    0  0.23607513794E-01 -0.52360251937E-02 -0.23458389576E-02  0.24300097711E-01  0.51100000000E-03 0. -1.
</event>
<event>
 8    1  0.1075206E+005  0.1043930E+01  0.7957747E-01            NaN
         13   -1    0    0    0    0  0.00000000000E+00  0.00000000000E+00  0.74505805969E-08  0.10566000000E+00  0.10566000000E+00 0.  1.
     999900   -1    0    0    0    0 -0.00000000000E+00 -0.00000000000E+00 -0.74505805969E-08  0.93827000000E+00  0.93827000000E+00 0. -1.
     999902    2    1    2    0    0 -0.13095146077E-01  0.15193194869E-01  0.13774793415E-01  0.10195976973E+01  0.10193073155E+01 0.  0.
     999903    2    3    3    0    0 -0.67938513153E-01  0.54955273610E-01 -0.94638771386E-01  0.13036076664E+00  0.20042673528E-01 0.  0.
         14    1    1    2    0    0  0.13095146077E-01 -0.15193194869E-01 -0.13774793415E-01  0.24332302701E-01  0.00000000000E+00 0.  1.
     999901    1    3    3    0    0  0.54843367075E-01 -0.39762078741E-01  0.10841356480E+00  0.88923693066E+00  0.88000000000E+00 0.  1.
        -11    1    4    4    0    0 -0.47617190427E-01  0.44448721679E-01 -0.58312483131E-01  0.87428213369E-01  0.51100000000E-03 0.  1.
         11    1    4    4    0    0 -0.20321322726E-01  0.10506551931E-01 -0.36326288255E-01  0.42932553269E-01  0.51100000000E-03 0. -1.
</event>
<event>
 8    1  0.1075206E+005  0.1043930E+01  0.7957747E-01            NaN
         13   -1    0    0    0    0  0.00000000000E+00  0.00000000000E+00  0.74505805969E-08  0.10566000000E+00  0.10566000000E+00 0.  1.
     999900   -1    0    0    0    0 -0.00000000000E+00 -0.00000000000E+00 -0.74505805969E-08  0.93827000000E+00  0.93827000000E+00 0. -1.
     999902    2    1    2    0    0  0.17040163013E-02  0.25815570847E-01 -0.77239365231E-02  0.10169298784E+01  0.10165713802E+01 0.  0.
     999903    2    3    3    0    0  0.74881873472E-01  0.22098953205E-01  0.98779132553E-01  0.12748526759E+00  0.19987939263E-01 0.  0.
         14    1    1    2    0    0 -0.17040163013E-02 -0.25815570847E-01  0.77239365231E-02  0.27000121576E-01  0.00000000000E+00 0. -1.
     999901    1    3    3    0    0 -0.73177857171E-01  0.37166176420E-02 -0.10650306908E+00  0.88944461084E+00  0.88000000000E+00 0. -1.
        -11    1    4    4    0    0  0.40465973719E-01  0.17183882728E-01  0.41378873158E-01  0.60375931624E-01  0.51100000000E-03 0.  1.
         11    1    4    4    0    0  0.34415899753E-01  0.49150704774E-02  0.57400259394E-01  0.67109335961E-01  0.51100000000E-03 0. -1.
</event>
<event>
 8    1  0.1075206E+005  0.1043930E+01  0.7957747E-01            NaN
         13   -1    0    0    0    0  0.00000000000E+00  0.00000000000E+00  0.74505805969E-08  0.10566000000E+00  0.10566000000E+00 0. -1.
     999900   -1    0    0    0    0 -0.00000000000E+00 -0.00000000000E+00 -0.74505805969E-08  0.93827000000E+00  0.93827000000E+00 0. -1.
     999902    2    1    2    0    0  0.16786792928E-01  0.14591913466E-01  0.79029316689E-02  0.10203254097E+01  0.10200523344E+01 0.  0.
     999903    2    3    3    0    0  0.76906872748E-01  0.96707027777E-01  0.49004359550E-01  0.13350714003E+00  0.12482503266E-01 0.  0.
         14    1    1    2    0    0 -0.16786792928E-01 -0.14591913466E-01 -0.79029316689E-02  0.23604590324E-01  0.00000000000E+00 0. -1.
     999901    1    3    3    0    0 -0.60120079820E-01 -0.82115114311E-01 -0.41101427882E-01  0.88681826964E+00  0.88000000000E+00 0.  1.
        -11    1    4    4    0    0  0.33785532807E-01  0.42741586307E-01  0.28275245702E-01  0.61384493706E-01  0.51100000000E-03 0.  1.
         11    1    4    4    0    0  0.43121339941E-01  0.53965441470E-01  0.20729113849E-01  0.72122646328E-01  0.51100000000E-03 0. -1.
</event>
<event>
 8    1  0.1075206E+005  0.1043930E+01  0.7957747E-01            NaN
         13   -1    0    0    0    0  0.00000000000E+00  0.00000000000E+00  0.74505805969E-08  0.10566000000E+00  0.10566000000E+00 0. -1.
     999900   -1    0    0    0    0 -0.00000000000E+00 -0.00000000000E+00 -0.74505805969E-08  0.93827000000E+00  0.93827000000E+00 0.  1.
     999902    2    1    2    0    0 -0.88985452765E-02 -0.18656034943E-01  0.70746925497E-02  0.10220831919E+01  0.10218496799E+01 0.  0.
     999903    2    3    3    0    0 -0.69250013792E-02  0.95320704600E-01  0.87746948151E-01  0.13107106808E+00  0.18603913811E-01 0.  0.
         14    1    1    2    0    0  0.88985452765E-02  0.18656034943E-01 -0.70746925497E-02  0.21846808062E-01  0.00000000000E+00 0.  1.
     999901    1    3    3    0    0 -0.19735438973E-02 -0.11397673954E+00 -0.80672255602E-01  0.89101212385E+00  0.88000000000E+00 0. -1.
        -11    1    4    4    0    0 -0.24118069870E-02  0.46530038819E-01  0.55240329324E-01  0.72267672097E-01  0.51100000000E-03 0. -1.
         11    1    4    4    0    0 -0.45131943922E-02  0.48790665781E-01  0.32506618827E-01  0.58803395987E-01  0.51100000000E-03 0.  1.
</event>
<event>
 8    1  0.1075206E+005  0.1043930E+01  0.7957747E-01            NaN
         13   -1    0    0    0    0  0.00000000000E+00  0.00000000000E+00  0.74505805969E-08  0.10566000000E+00  0.10566000000E+00 0.  1.
     999900   -1    0    0    0    0 -0.00000000000E+00 -0.00000000000E+00 -0.74505805969E-08  0.93827000000E+00  0.93827000000E+00 0. -1.
     999902    2    1    2    0    0  0.48341670780E-02 -0.20544593693E-01 -0.83064115322E-02  0.10212485985E+01  0.10209966964E+01 0.  0.
     999903    2    3    3    0    0  0.10451866781E+00 -0.65511167533E-01 -0.47899862252E-01  0.13359628268E+00  0.18376750235E-01 0.  0.
         14    1    1    2    0    0 -0.48341670780E-02  0.20544593693E-01  0.83064115322E-02  0.22681401497E-01  0.00000000000E+00 0. -1.
     999901    1    3    3    0    0 -0.99684500733E-01  0.44966573840E-01  0.39593450720E-01  0.88765231582E+00  0.88000000000E+00 0.  1.
        -11    1    4    4    0    0  0.89148427033E-01 -0.55938136732E-01 -0.33480883285E-01  0.11044341470E+00  0.51100000000E-03 0.  1.
         11    1    4    4    0    0  0.15370240778E-01 -0.95730308001E-02 -0.14418978966E-01  0.23152867980E-01  0.51100000000E-03 0. -1.
</event>
<event>
 8    1  0.1075206E+005  0.1043930E+01  0.7957747E-01            NaN
         13   -1    0    0    0    0  0.00000000000E+00  0.00000000000E+00  0.74505805969E-08  0.10566000000E+00  0.10566000000E+00 0.  1.
     999900   -1    0    0    0    0 -0.00000000000E+00 -0.00000000000E+00 -0.74505805969E-08  0.93827000000E+00  0.93827000000E+00 0. -1.
     999902    2    1    2    0    0 -0.14193363554E-01 -0.13567544084E-01 -0.16623768332E-01  0.10182029812E+01  0.10178779060E+01 0.  0.
     999903    2    3    3    0    0 -0.12352050576E-01  0.17958583195E-01  0.12306290180E+00  0.12662592177E+00  0.20360805480E-01 0.  0.
         14    1    1    2    0    0  0.14193363554E-01  0.13567544084E-01  0.16623768332E-01  0.25727018774E-01  0.00000000000E+00 0.  1.
     999901    1    3    3    0    0 -0.18413129779E-02 -0.31526127278E-01 -0.13968667014E+00  0.89157705946E+00  0.88000000000E+00 0. -1.
        -11    1    4    4    0    0 -0.24907768379E-02  0.36268138648E-02  0.80778203854E-01  0.80899549362E-01  0.51100000000E-03 0. -1.
         11    1    4    4    0    0 -0.98612737379E-02  0.14331769330E-01  0.42284697951E-01  0.45726372409E-01  0.51100000000E-03 0.  1.
</event>
<event>
 8    1  0.1075206E+005  0.1043930E+01  0.7957747E-01            NaN
         13   -1    0    0    0    0  0.00000000000E+00  0.00000000000E+00  0.74505805969E-08  0.10566000000E+00  0.10566000000E+00 0. -1.
     999900   -1    0    0    0    0 -0.00000000000E+00 -0.00000000000E+00 -0.74505805969E-08  0.93827000000E+00  0.93827000000E+00 0.  1.
     999902    2    1    2    0    0  0.15279562415E-02  0.22203244138E-01 -0.96367578592E-02  0.10196774578E+01  0.10193889994E+01 0.  0.
     999903    2    3    3    0    0  0.12164493760E-01  0.11728465134E+00  0.55493445384E-01  0.13209898055E+00  0.21609114613E-01 0.  0.
         14    1    1    2    0    0 -0.15279562415E-02 -0.22203244138E-01  0.96367578592E-02  0.24252542187E-01  0.00000000000E+00 0. -1.
     999901    1    3    3    0    0 -0.10636537519E-01 -0.95081407199E-01 -0.65130203243E-01  0.88757847726E+00  0.88000000000E+00 0.  1.
        -11    1    4    4    0    0  0.87552571595E-02  0.78379577700E-01  0.48006461209E-01  0.92330353444E-01  0.51100000000E-03 0.  1.
         11    1    4    4    0    0  0.34092366008E-02  0.38905073637E-01  0.74869841747E-02  0.39768627106E-01  0.51100000000E-03 0. -1.
</event>
<event>
 8    1  0.1075206E+005  0.1043930E+01  0.7957747E-01            NaN
         13   -1    0    0    0    0  0.00000000000E+00  0.00000000000E+00  0.74505805969E-08  0.10566000000E+00  0.10566000000E+00 0. -1.
     999900   -1    0    0    0    0 -0.00000000000E+00 -0.00000000000E+00 -0.74505805969E-08  0.93827000000E+00  0.93827000000E+00 0.  1.
     999902    2    1    2    0    0 -0.18866217292E-01 -0.11252676794E-01  0.12071301143E-02  0.10219296806E+01  0.10216928394E+01 0.  0.
     999903    2    3    3    0    0 -0.11133110169E+00 -0.39259899734E-01  0.61460797301E-01  0.13459396974E+00  0.20053756609E-01 0.  0.
         14    1    1    2    0    0  0.18866217292E-01  0.11252676794E-01 -0.12071301143E-02  0.22000319385E-01  0.00000000000E+00 0.  1.
     999901    1    3    3    0    0  0.92464884401E-01  0.28007222940E-01 -0.60253667186E-01  0.88733571087E+00  0.88000000000E+00 0.  1.
        -11    1    4    4    0    0 -0.94393732464E-01 -0.25302477335E-01  0.48502087402E-01  0.10910135513E+00  0.51100000000E-03 0. -1.
         11    1    4    4    0    0 -0.16937369230E-01 -0.13957422399E-01  0.12958709898E-01  0.25492614611E-01  0.51100000000E-03 0.  1.
</event>
<event>
 8    1  0.1075206E+005  0.1043930E+01  0.7957747E-01            NaN
         13   -1    0    0    0    0  0.00000000000E+00  0.00000000000E+00  0.74505805969E-08  0.10566000000E+00  0.10566000000E+00 0.  1.
     999900   -1    0    0    0    0 -0.00000000000E+00 -0.00000000000E+00 -0.74505805969E-08  0.93827000000E+00  0.93827000000E+00 0.  1.
     999902    2    1    2    0    0 -0.21049737327E-01 -0.93394713289E-02 -0.18932416592E-02  0.10208236907E+01  0.10205621519E+01 0.  0.
     999903    2    3    3    0    0  0.11081233566E+00 -0.34572741484E-01 -0.53032391785E-01  0.12917379477E+00  0.19969639133E-01 0.  0.
         14    1    1    2    0    0  0.21049737327E-01  0.93394713289E-02  0.18932416592E-02  0.23106309317E-01  0.00000000000E+00 0. -1.
     999901    1    3    3    0    0 -0.13186207299E+00  0.25233270155E-01  0.51139150126E-01  0.89164989592E+00  0.88000000000E+00 0. -1.
        -11    1    4    4    0    0  0.63144375666E-01 -0.28341640232E-01 -0.37069926273E-01  0.78516885471E-01  0.51100000000E-03 0. -1.
         11    1    4    4    0    0  0.47667959996E-01 -0.62311012525E-02 -0.15962465512E-01  0.50656909294E-01  0.51100000000E-03 0.  1.
</event>
<event>
 8    1  0.1075206E+005  0.1043930E+01  0.7957747E-01            NaN
         13   -1    0    0    0    0  0.00000000000E+00  0.00000000000E+00  0.74505805969E-08  0.10566000000E+00  0.10566000000E+00 0. -1.
     999900   -1    0    0    0    0 -0.00000000000E+00 -0.00000000000E+00 -0.74505805969E-08  0.93827000000E+00  0.93827000000E+00 0. -1.
     999902    2    1    2    0    0 -0.20070004950E-01  0.21771198916E-01  0.99979107282E-02  0.10126770254E+01  0.10121946500E+01 0.  0.
     999903    2    3    3    0    0 -0.49266409537E-01 -0.72739944917E-01 -0.82723306197E-01  0.12229395594E+00  0.19859193766E-01 0.  0.
         14    1    1    2    0    0  0.20070004950E-01 -0.21771198916E-01 -0.99979107282E-02  0.31252974576E-01  0.00000000000E+00 0.  1.
     999901    1    3    3    0    0  0.29196404587E-01  0.94511143832E-01  0.92721216925E-01  0.89038306948E+00  0.88000000000E+00 0.  1.
        -11    1    4    4    0    0 -0.45562440287E-01 -0.55158812988E-01 -0.60382874999E-01  0.93620421540E-01  0.51100000000E-03 0. -1.
         11    1    4    4    0    0 -0.37039692502E-02 -0.17581131928E-01 -0.22340431197E-01  0.28673534403E-01  0.51100000000E-03 0.  1.
</event>
<event>
 8    1  0.1075206E+005  0.1043930E+01  0.7957747E-01            NaN
         13   -1    0    0    0    0  0.00000000000E+00  0.00000000000E+00  0.74505805969E-08  0.10566000000E+00  0.10566000000E+00 0. -1.
     999900   -1    0    0    0    0 -0.00000000000E+00 -0.00000000000E+00 -0.74505805969E-08  0.93827000000E+00  0.93827000000E+00 0.  1.
     999902    2    1    2    0    0  0.28513755883E-03 -0.16001064625E-01 -0.18117449162E-01  0.10197565158E+01  0.10194699575E+01 0.  0.
     999903    2    3    3    0    0  0.83804285423E-01 -0.48329847513E-01  0.83418329095E-01  0.12940259040E+00  0.20675598140E-01 0.  0.
         14    1    1    2    0    0 -0.28513755883E-03  0.16001064625E-01  0.18117449162E-01  0.24173484166E-01  0.00000000000E+00 0. -1.
     999901    1    3    3    0    0 -0.83519147864E-01  0.32328782888E-01 -0.10153577826E+00  0.89035392543E+00  0.88000000000E+00 0.  1.
        -11    1    4    4    0    0  0.26381959797E-01 -0.18085383663E-01  0.15808362640E-01  0.35682689855E-01  0.51100000000E-03 0. -1.
         11    1    4    4    0    0  0.57422325626E-01 -0.30244463850E-01  0.67609966454E-01  0.93719900548E-01  0.51100000000E-03 0.  1.
</event>
<event>
 8    1  0.1075206E+005  0.1043930E+01  0.7957747E-01            NaN
         13   -1    0    0    0    0  0.00000000000E+00  0.00000000000E+00  0.74505805969E-08  0.10566000000E+00  0.10566000000E+00 0.  1.
     999900   -1    0    0    0    0 -0.00000000000E+00 -0.00000000000E+00 -0.74505805969E-08  0.93827000000E+00  0.93827000000E+00 0.  1.
     999902    2    1    2    0    0  0.11117133892E-01 -0.79240972518E-02  0.21146480481E-01  0.10187594692E+01  0.10184484771E+01 0.  0.
     999903    2    3    3    0    0  0.80305572112E-01  0.71064126041E-01  0.72602854238E-01  0.13102418333E+00  0.19926546422E-01 0.  0.
         14    1    1    2    0    0 -0.11117133892E-01  0.79240972518E-02 -0.21146480481E-01  0.25170530784E-01  0.00000000000E+00 0. -1.
     999901    1    3    3    0    0 -0.69188438220E-01 -0.78988223293E-01 -0.51456373758E-01  0.88773528588E+00  0.88000000000E+00 0.  1.
        -11    1    4    4    0    0  0.82114273527E-02  0.15521922911E-01  0.16564768630E-01  0.24145606449E-01  0.51100000000E-03 0. -1.
         11    1    4    4    0    0  0.72094144759E-01  0.55542203131E-01  0.56038085608E-01  0.10687857688E+00  0.51100000000E-03 0.  1.
</event>
<event>
 8    1  0.1075206E+005  0.1043930E+01  0.7957747E-01            NaN
         13   -1    0    0    0    0  0.00000000000E+00  0.00000000000E+00  0.74505805969E-08  0.10566000000E+00  0.10566000000E+00 0.  1.
     999900   -1    0    0    0    0 -0.00000000000E+00 -0.00000000000E+00 -0.74505805969E-08  0.93827000000E+00  0.93827000000E+00 0.  1.
     999902    2    1    2    0    0  0.23063908298E-01  0.22186898265E-02 -0.40436268098E-03  0.10207560931E+01  0.10204930042E+01 0.  0.
     999903    2    3    3    0    0  0.10377439856E+00  0.47398839071E-01 -0.66271981129E-01  0.13346021672E+00  0.20096721704E-01 0.  0.
         14    1    1    2    0    0 -0.23063908298E-01 -0.22186898265E-02  0.40436268098E-03  0.23173906872E-01  0.00000000000E+00 0. -1.
     999901    1    3    3    0    0 -0.80710490262E-01 -0.45180149245E-01  0.65867618448E-01  0.88729587640E+00  0.88000000000E+00 0. -1.
        -11    1    4    4    0    0  0.64552689108E-01  0.21176219414E-01 -0.46349571680E-01  0.82243697970E-01  0.51100000000E-03 0. -1.
         11    1    4    4    0    0  0.39221709452E-01  0.26222619657E-01 -0.19922409449E-01  0.51216518754E-01  0.51100000000E-03 0.  1.
</event>
<event>
 8    1  0.1075206E+005  0.1043930E+01  0.7957747E-01            NaN
         13   -1    0    0    0    0  0.00000000000E+00  0.00000000000E+00  0.74505805969E-08  0.10566000000E+00  0.10566000000E+00 0. -1.
     999900   -1    0    0    0    0 -0.00000000000E+00 -0.00000000000E+00 -0.74505805969E-08  0.93827000000E+00  0.93827000000E+00 0. -1.
     999902    2    1    2    0    0  0.96815266639E-03 -0.18710363823E-02  0.21572742977E-01  0.10222546376E+01  0.10220248151E+01 0.  0.
     999903    2    3    3    0    0 -0.39123495274E-01  0.70539948118E-01 -0.10016592694E+00  0.13002653072E+00  0.19161252744E-01 0.  0.
         14    1    1    2    0    0 -0.96815266639E-03  0.18710363823E-02 -0.21572742977E-01  0.21675362426E-01  0.00000000000E+00 0.  1.
     999901    1    3    3    0    0  0.40091647941E-01 -0.72410984500E-01  0.12173866992E+00  0.89222810686E+00  0.88000000000E+00 0.  1.
        -11    1    4    4    0    0 -0.13087108300E-01  0.43232904946E-01 -0.54285920796E-01  0.70622792294E-01  0.51100000000E-03 0.  1.
         11    1    4    4    0    0 -0.26036386974E-01  0.27307043172E-01 -0.45880006149E-01  0.59403738423E-01  0.51100000000E-03 0. -1.
</event>
<event>
 8    1  0.1075206E+005  0.1043930E+01  0.7957747E-01            NaN
         13   -1    0    0    0    0  0.00000000000E+00  0.00000000000E+00  0.74505805969E-08  0.10566000000E+00  0.10566000000E+00 0.  1.
     999900   -1    0    0    0    0 -0.00000000000E+00 -0.00000000000E+00 -0.74505805969E-08  0.93827000000E+00  0.93827000000E+00 0.  1.
     999902    2    1    2    0    0 -0.42968050868E-02  0.65897057384E-02 -0.21838161357E-01  0.10207181055E+01  0.10204541434E+01 0.  0.
     999903    2    3    3    0    0  0.12535365973E+00  0.20653545149E-01  0.20038928934E-01  0.13012239176E+00  0.19752701824E-01 0.  0.
         14    1    1    2    0    0  0.42968050868E-02 -0.65897057384E-02  0.21838161357E-01  0.23211894518E-01  0.00000000000E+00 0.  1.
     999901    1    3    3    0    0 -0.12965046482E+00 -0.14063839411E-01 -0.41877090290E-01  0.89059571372E+00  0.88000000000E+00 0. -1.
        -11    1    4    4    0    0  0.65487123177E-01  0.19354020961E-01  0.15778183004E-01  0.70088184519E-01  0.51100000000E-03 0.  1.
         11    1    4    4    0    0  0.59866536555E-01  0.12995241879E-02  0.42607459295E-02  0.60034207242E-01  0.51100000000E-03 0. -1.
</event>
<event>
 8    1  0.1075206E+005  0.1043930E+01  0.7957747E-01            NaN
         13   -1    0    0    0    0  0.00000000000E+00  0.00000000000E+00  0.74505805969E-08  0.10566000000E+00  0.10566000000E+00 0.  1.
     999900   -1    0    0    0    0 -0.00000000000E+00 -0.00000000000E+00 -0.74505805969E-08  0.93827000000E+00  0.93827000000E+00 0.  1.
     999902    2    1    2    0    0  0.22847902372E-01  0.10528203837E-01  0.44110284580E-02  0.10183893091E+01  0.10180689849E+01 0.  0.
     999903    2    3    3    0    0  0.33767277473E-01 -0.12194383481E+00 -0.20515079790E-02  0.12838378208E+00  0.21625423447E-01 0.  0.
         14    1    1    2    0    0 -0.22847902372E-01 -0.10528203837E-01 -0.44110284580E-02  0.25540690885E-01  0.00000000000E+00 0. -1.
     999901    1    3    3    0    0 -0.10919375101E-01  0.13247203865E+00  0.64625364370E-02  0.89000552704E+00  0.88000000000E+00 0. -1.
        -11    1    4    4    0    0 -0.25571334896E-02 -0.19186857273E-01 -0.10026170951E-02  0.19389192498E-01  0.51100000000E-03 0.  1.
         11    1    4    4    0    0  0.36324410963E-01 -0.10275697754E+00 -0.10488908840E-02  0.10899458958E+00  0.51100000000E-03 0. -1.
</event>
<event>
 8    1  0.1075206E+005  0.1043930E+01  0.7957747E-01            NaN
         13   -1    0    0    0    0  0.00000000000E+00  0.00000000000E+00  0.74505805969E-08  0.10566000000E+00  0.10566000000E+00 0. -1.
     999900   -1    0    0    0    0 -0.00000000000E+00 -0.00000000000E+00 -0.74505805969E-08  0.93827000000E+00  0.93827000000E+00 0. -1.
     999902    2    1    2    0    0 -0.17079669628E-01 -0.13791387074E-02  0.16769989954E-01  0.10199539765E+01  0.10196721358E+01 0.  0.
     999903    2    3    3    0    0  0.71756122296E-01  0.96330917168E-01 -0.39985202352E-01  0.12829249099E+00  0.20774025810E-01 0.  0.
         14    1    1    2    0    0  0.17079669628E-01  0.13791387074E-02 -0.16769989954E-01  0.23976023466E-01  0.00000000000E+00 0.  1.
     999901    1    3    3    0    0 -0.88835791924E-01 -0.97710055875E-01  0.56755192307E-01  0.89166148554E+00  0.88000000000E+00 0. -1.
        -11    1    4    4    0    0  0.68351510384E-01  0.94873983424E-01 -0.41744794204E-01  0.12416074527E+00  0.51100000000E-03 0.  1.
         11    1    4    4    0    0  0.34046119117E-02  0.14569337437E-02  0.17595918513E-02  0.41317457190E-02  0.51100000000E-03 0. -1.
</event>
<event>
 8    1  0.1075206E+005  0.1043930E+01  0.7957747E-01            NaN
         13   -1    0    0    0    0  0.00000000000E+00  0.00000000000E+00  0.74505805969E-08  0.10566000000E+00  0.10566000000E+00 0. -1.
     999900   -1    0    0    0    0 -0.00000000000E+00 -0.00000000000E+00 -0.74505805969E-08  0.93827000000E+00  0.93827000000E+00 0. -1.
     999902    2    1    2    0    0  0.79495922752E-02 -0.14472682798E-02  0.18112098817E-01  0.10240972310E+01  0.10239051713E+01 0.  0.
     999903    2    3    3    0    0 -0.60521368355E-01  0.48121589842E-01 -0.10450136243E+00  0.13158425909E+00  0.20380359499E-01 0.  0.
         14    1    1    2    0    0 -0.79495922752E-02  0.14472682798E-02 -0.18112098817E-01  0.19832769004E-01  0.00000000000E+00 0.  1.
     999901    1    3    3    0    0  0.68470960630E-01 -0.49568858121E-01  0.12261346125E+00  0.89251297191E+00  0.88000000000E+00 0.  1.
        -11    1    4    4    0    0 -0.32971135370E-01  0.31433386007E-01 -0.75810185692E-01  0.88445457199E-01  0.51100000000E-03 0. -1.
         11    1    4    4    0    0 -0.27550232985E-01  0.16688203835E-01 -0.28691176738E-01  0.43138801889E-01  0.51100000000E-03 0.  1.
</event>
<event>
 8    1  0.1075206E+005  0.1043930E+01  0.7957747E-01            NaN
         13   -1    0    0    0    0  0.00000000000E+00  0.00000000000E+00  0.74505805969E-08  0.10566000000E+00  0.10566000000E+00 0. -1.
     999900   -1    0    0    0    0 -0.00000000000E+00 -0.00000000000E+00 -0.74505805969E-08  0.93827000000E+00  0.93827000000E+00 0.  1.
     999902    2    1    2    0    0 -0.78825952598E-02 -0.25346965813E-01 -0.70037677707E-03  0.10173763842E+01  0.10170297993E+01 0.  0.
     999903    2    3    3    0    0 -0.12353416599E+00 -0.59764882849E-02  0.31149746099E-01  0.12902682939E+00  0.19524534345E-01 0.  0.
         14    1    1    2    0    0  0.78825952598E-02  0.25346965813E-01  0.70037677707E-03  0.26553615791E-01  0.00000000000E+00 0.  1.
     999901    1    3    3    0    0  0.11565157073E+00 -0.19370477528E-01 -0.31850122876E-01  0.88834955482E+00  0.88000000000E+00 0.  1.
        -11    1    4    4    0    0 -0.95706010299E-01  0.34325526809E-02  0.25538288853E-01  0.99115529277E-01  0.51100000000E-03 0.  1.
         11    1    4    4    0    0 -0.27828155694E-01 -0.94090409658E-02  0.56114572456E-02  0.29911300117E-01  0.51100000000E-03 0. -1.
</event>
<event>
 8    1  0.1075206E+005  0.1043930E+01  0.7957747E-01            NaN
         13   -1    0    0    0    0  0.00000000000E+00  0.00000000000E+00  0.74505805969E-08  0.10566000000E+00  0.10566000000E+00 0. -1.
     999900   -1    0    0    0    0 -0.00000000000E+00 -0.00000000000E+00 -0.74505805969E-08  0.93827000000E+00  0.93827000000E+00 0.  1.
     999902    2    1    2    0    0 -0.62221156645E-02 -0.18922480906E-01  0.51588604252E-02  0.10233535852E+01  0.10231467008E+01 0.  0.
     999903    2    3    3    0    0  0.33235507295E-01 -0.12364190827E+00  0.40144856224E-01  0.13557710294E+00  0.19432471095E-01 0.  0.
         14    1    1    2    0    0  0.62221156645E-02  0.18922480906E-01 -0.51588604252E-02  0.20576414845E-01  0.00000000000E+00 0.  1.
     999901    1    3    3    0    0 -0.39457622960E-01  0.10471942737E+00 -0.34985995799E-01  0.88777648222E+00  0.88000000000E+00 0.  1.
        -11    1    4    4    0    0  0.83916027732E-02 -0.10911634274E-01  0.71383983081E-02  0.15514529030E-01  0.51100000000E-03 0.  1.
         11    1    4    4    0    0  0.24843904522E-01 -0.11273027400E+00  0.33006457916E-01  0.12006257391E+00  0.51100000000E-03 0. -1.
</event>
<event>
 8    1  0.1075206E+005  0.1043930E+01  0.7957747E-01            NaN
         13   -1    0    0    0    0  0.00000000000E+00  0.00000000000E+00  0.74505805969E-08  0.10566000000E+00  0.10566000000E+00 0. -1.
     999900   -1    0    0    0    0 -0.00000000000E+00 -0.00000000000E+00 -0.74505805969E-08  0.93827000000E+00  0.93827000000E+00 0. -1.
     999902    2    1    2    0    0  0.11289655023E-02 -0.22723953668E-01  0.27377917456E-02  0.10210138891E+01  0.10207566868E+01 0.  0.
     999903    2    3    3    0    0 -0.11515788119E+00  0.45881204503E-01  0.34012932648E-01  0.13016741927E+00  0.20500120113E-01 0.  0.
         14    1    1    2    0    0 -0.11289655023E-02  0.22723953668E-01 -0.27377917456E-02  0.22916110862E-01  0.00000000000E+00 0. -1.
     999901    1    3    3    0    0  0.11628684669E+00 -0.68605158171E-01 -0.31275140902E-01  0.89084646987E+00  0.88000000000E+00 0.  1.
        -11    1    4    4    0    0 -0.80329213753E-01  0.34232066787E-01  0.33231895823E-01  0.93430385847E-01  0.51100000000E-03 0. -1.
         11    1    4    4    0    0 -0.34828667438E-01  0.11649137716E-01  0.78103682506E-03  0.36737033421E-01  0.51100000000E-03 0.  1.
</event>
<event>
 8    1  0.1075206E+005  0.1043930E+01  0.7957747E-01            NaN
         13   -1    0    0    0    0  0.00000000000E+00  0.00000000000E+00  0.74505805969E-08  0.10566000000E+00  0.10566000000E+00 0.  1.
     999900   -1    0    0    0    0 -0.00000000000E+00 -0.00000000000E+00 -0.74505805969E-08  0.93827000000E+00  0.93827000000E+00 0.  1.
     999902    2    1    2    0    0 -0.23948750907E-02  0.29756031862E-02  0.23724107348E-01  0.10199003743E+01  0.10196172569E+01 0.  0.
     999903    2    3    3    0    0 -0.10732691325E+00 -0.96134387109E-02 -0.67589974706E-01  0.12888551575E+00  0.20774671554E-01 0.  0.
         14    1    1    2    0    0  0.23948750907E-02 -0.29756031862E-02 -0.23724107348E-01  0.24029625684E-01  0.00000000000E+00 0. -1.
     999901    1    3    3    0    0  0.10493203816E+00  0.12589041897E-01  0.91314082054E-01  0.89101485857E+00  0.88000000000E+00 0. -1.
        -11    1    4    4    0    0 -0.49446916154E-01 -0.37301442480E-02 -0.19077410997E-01  0.53133042682E-01  0.51100000000E-03 0.  1.
         11    1    4    4    0    0 -0.57879997092E-01 -0.58832944629E-02 -0.48512563708E-01  0.75752473066E-01  0.51100000000E-03 0. -1.
</event>
<event>
 8    1  0.1075206E+005  0.1043930E+01  0.7957747E-01            NaN
         13   -1    0    0    0    0  0.00000000000E+00  0.00000000000E+00  0.74505805969E-08  0.10566000000E+00  0.10566000000E+00 0.  1.
     999900   -1    0    0    0    0 -0.00000000000E+00 -0.00000000000E+00 -0.74505805969E-08  0.93827000000E+00  0.93827000000E+00 0. -1.
     999902    2    1    2    0    0 -0.10732524995E-01 -0.12568297015E-01 -0.17618400734E-01  0.10197730708E+01  0.10194869096E+01 0.  0.
     999903    2    3    3    0    0 -0.10068973037E+00 -0.26779656664E-01 -0.80408028266E-01  0.13284759545E+00  0.18095877824E-01 0.  0.
         14    1    1    2    0    0  0.10732524995E-01  0.12568297015E-01  0.17618400734E-01  0.24156929172E-01  0.00000000000E+00 0.  1.
     999901    1    3    3    0    0  0.89957205380E-01  0.14211359649E-01  0.62789627532E-01  0.88692547537E+00  0.88000000000E+00 0.  1.
        -11    1    4    4    0    0 -0.59740845523E-01 -0.24376201403E-01 -0.45114216400E-01  0.78731959591E-01  0.51100000000E-03 0. -1.
         11    1    4    4    0    0 -0.40948884852E-01 -0.24034552607E-02 -0.35293811865E-01  0.54115635862E-01  0.51100000000E-03 0.  1.
</event>
<event>
 8    1  0.1075206E+005  0.1043930E+01  0.7957747E-01            NaN
         13   -1    0    0    0    0  0.00000000000E+00  0.00000000000E+00  0.74505805969E-08  0.10566000000E+00  0.10566000000E+00 0.  1.
     999900   -1    0    0    0    0 -0.00000000000E+00 -0.00000000000E+00 -0.74505805969E-08  0.93827000000E+00  0.93827000000E+00 0.  1.
     999902    2    1    2    0    0  0.10550204711E-01 -0.22793574732E-01 -0.70134117695E-02  0.10178523887E+01  0.10175182766E+01 0.  0.
     999903    2    3    3    0    0  0.10691227855E+00  0.33970321923E-01  0.59416161056E-01  0.12829031810E+00  0.18544741739E-01 0.  0.
         14    1    1    2    0    0 -0.10550204711E-01  0.22793574732E-01  0.70134117695E-02  0.26077611339E-01  0.00000000000E+00 0.  1.
     999901    1    3    3    0    0 -0.96362073841E-01 -0.56763896655E-01 -0.66429572826E-01  0.88956207056E+00  0.88000000000E+00 0.  1.
        -11    1    4    4    0    0  0.59178817918E-01  0.26340645456E-01  0.40392027152E-01  0.76339629759E-01  0.51100000000E-03 0.  1.
         11    1    4    4    0    0  0.47733460634E-01  0.76296764666E-02  0.19024133904E-01  0.51950688339E-01  0.51100000000E-03 0. -1.
</event>
<event>
 8    1  0.1075206E+005  0.1043930E+01  0.7957747E-01            NaN
         13   -1    0    0    0    0  0.00000000000E+00  0.00000000000E+00  0.74505805969E-08  0.10566000000E+00  0.10566000000E+00 0.  1.
     999900   -1    0    0    0    0 -0.00000000000E+00 -0.00000000000E+00 -0.74505805969E-08  0.93827000000E+00  0.93827000000E+00 0.  1.
     999902    2    1    2    0    0 -0.15782984574E-01 -0.17396825666E-01 -0.54824665041E-02  0.10198092707E+01  0.10195239766E+01 0.  0.
     999903    2    3    3    0    0 -0.62779139293E-01 -0.10496258862E+00  0.47120578788E-01  0.13265455936E+00  0.20457708407E-01 0.  0.
         14    1    1    2    0    0  0.15782984574E-01  0.17396825666E-01  0.54824665041E-02  0.24120729348E-01  0.00000000000E+00 0.  1.
     999901    1    3    3    0    0  0.46996154719E-01  0.87565762951E-01 -0.52603045292E-01  0.88715471130E+00  0.88000000000E+00 0.  1.
        -11    1    4    4    0    0 -0.35103642433E-01 -0.72902227058E-01  0.37682806827E-01  0.89259483941E-01  0.51100000000E-03 0. -1.
         11    1    4    4    0    0 -0.27675496860E-01 -0.32060361559E-01  0.94377719606E-02  0.43395075415E-01  0.51100000000E-03 0.  1.
</event>
<event>
 8    1  0.1075206E+005  0.1043930E+01  0.7957747E-01            NaN
         13   -1    0    0    0    0  0.00000000000E+00  0.00000000000E+00  0.74505805969E-08  0.10566000000E+00  0.10566000000E+00 0. -1.
     999900   -1    0    0    0    0 -0.00000000000E+00 -0.00000000000E+00 -0.74505805969E-08  0.93827000000E+00  0.93827000000E+00 0.  1.
     999902    2    1    2    0    0 -0.22162513052E-01  0.91324524266E-02 -0.31239125334E-03  0.10199575938E+01  0.10196758391E+01 0.  0.
     999903    2    3    3    0    0 -0.12551778671E-01 -0.12330167327E+00 -0.31474097464E-01  0.12945087521E+00  0.20150942991E-01 0.  0.
         14    1    1    2    0    0  0.22162513052E-01 -0.91324524266E-02  0.31239125334E-03  0.23972406229E-01  0.00000000000E+00 0. -1.
     999901    1    3    3    0    0 -0.96107343813E-02  0.13243412570E+00  0.31161706210E-01  0.89050671856E+00  0.88000000000E+00 0.  1.
        -11    1    4    4    0    0  0.44911423675E-02 -0.42075282661E-01 -0.14528844861E-01  0.44742018560E-01  0.51100000000E-03 0. -1.
         11    1    4    4    0    0 -0.17042921039E-01 -0.81226390608E-01 -0.16945252602E-01  0.84708856653E-01  0.51100000000E-03 0.  1.
</event>
<event>
 8    1  0.1075206E+005  0.1043930E+01  0.7957747E-01            NaN
         13   -1    0    0    0    0  0.00000000000E+00  0.00000000000E+00  0.74505805969E-08  0.10566000000E+00  0.10566000000E+00 0.  1.
     999900   -1    0    0    0    0 -0.00000000000E+00 -0.00000000000E+00 -0.74505805969E-08  0.93827000000E+00  0.93827000000E+00 0.  1.
     999902    2    1    2    0    0 -0.20826877249E-01  0.99063700021E-02  0.53154391907E-02  0.10202625355E+01  0.10199879864E+01 0.  0.
     999903    2    3    3    0    0 -0.12514236427E+00  0.30667976539E-01  0.29188285695E-01  0.13353671657E+00  0.19466959976E-01 0.  0.
         14    1    1    2    0    0  0.20826877249E-01 -0.99063700021E-02 -0.53154391907E-02  0.23667464510E-01  0.00000000000E+00 0.  1.
     999901    1    3    3    0    0  0.10431548702E+00 -0.20761606536E-01 -0.23872846504E-01  0.88672581892E+00  0.88000000000E+00 0. -1.
        -11    1    4    4    0    0 -0.10117154025E+00  0.32238412392E-01  0.21809755994E-01  0.10840167142E+00  0.51100000000E-03 0.  1.
         11    1    4    4    0    0 -0.23970824020E-01 -0.15704358537E-02  0.73785297007E-02  0.25135045146E-01  0.51100000000E-03 0. -1.
</event>
<event>
 8    1  0.1075206E+005  0.1043930E+01  0.7957747E-01            NaN
         13   -1    0    0    0    0  0.00000000000E+00  0.00000000000E+00  0.74505805969E-08  0.10566000000E+00  0.10566000000E+00 0.  1.
     999900   -1    0    0    0    0 -0.00000000000E+00 -0.00000000000E+00 -0.74505805969E-08  0.93827000000E+00  0.93827000000E+00 0. -1.
     999902    2    1    2    0    0 -0.21567355565E-01  0.34245757714E-02  0.10059079240E-01  0.10198870463E+01  0.10196036111E+01 0.  0.
     999903    2    3    3    0    0 -0.74122280273E-01 -0.77851290625E-01  0.74322773533E-01  0.13225107987E+00  0.20286388971E-01 0.  0.
         14    1    1    2    0    0  0.21567355565E-01 -0.34245757714E-02 -0.10059079240E-01  0.24042953654E-01  0.00000000000E+00 0. -1.
     999901    1    3    3    0    0  0.52554924708E-01  0.81275866396E-01 -0.64263694293E-01  0.88763596647E+00  0.88000000000E+00 0.  1.
        -11    1    4    4    0    0 -0.24763356769E-01 -0.16039349312E-01  0.13407849796E-01  0.32411666449E-01  0.51100000000E-03 0.  1.
         11    1    4    4    0    0 -0.49358923504E-01 -0.61811941313E-01  0.60914923737E-01  0.99839413426E-01  0.51100000000E-03 0. -1.
</event>
<event>
 8    1  0.1075206E+005  0.1043930E+01  0.7957747E-01            NaN
         13   -1    0    0    0    0  0.00000000000E+00  0.00000000000E+00  0.74505805969E-08  0.10566000000E+00  0.10566000000E+00 0.  1.
     999900   -1    0    0    0    0 -0.00000000000E+00 -0.00000000000E+00 -0.74505805969E-08  0.93827000000E+00  0.93827000000E+00 0.  1.
     999902    2    1    2    0    0  0.64051515213E-02 -0.19867236786E-01  0.15211572658E-01  0.10181012368E+01  0.10177735521E+01 0.  0.
     999903    2    3    3    0    0 -0.90532761237E-01  0.53714772267E-01  0.70119943668E-01  0.12803034068E+00  0.19836935699E-01 0.  0.
         14    1    1    2    0    0 -0.64051515213E-02  0.19867236786E-01 -0.15211572658E-01  0.25828763158E-01  0.00000000000E+00 0. -1.
     999901    1    3    3    0    0  0.96937912758E-01 -0.73582009053E-01 -0.54908371010E-01  0.89007089616E+00  0.88000000000E+00 0.  1.
        -11    1    4    4    0    0 -0.45297126312E-01  0.28247818151E-01  0.23780098030E-01  0.58442476553E-01  0.51100000000E-03 0.  1.
         11    1    4    4    0    0 -0.45235634926E-01  0.25466954116E-01  0.46339845638E-01  0.69587864127E-01  0.51100000000E-03 0. -1.
</event>
<event>
 8    1  0.1075206E+005  0.1043930E+01  0.7957747E-01            NaN
         13   -1    0    0    0    0  0.00000000000E+00  0.00000000000E+00  0.74505805969E-08  0.10566000000E+00  0.10566000000E+00 0. -1.
     999900   -1    0    0    0    0 -0.00000000000E+00 -0.00000000000E+00 -0.74505805969E-08  0.93827000000E+00  0.93827000000E+00 0. -1.
     999902    2    1    2    0    0  0.76783486551E-02  0.24964641575E-01 -0.80872463445E-02  0.10165878362E+01  0.10162200720E+01 0.  0.
     999903    2    3    3    0    0  0.10810954907E+00 -0.25657897823E-02 -0.66466367166E-01  0.12852676150E+00  0.20176535437E-01 0.  0.
         14    1    1    2    0    0 -0.76783486551E-02 -0.24964641575E-01  0.80872463445E-02  0.27342163786E-01  0.00000000000E+00 0. -1.
     999901    1    3    3    0    0 -0.10043120041E+00  0.27530431357E-01  0.58379120822E-01  0.88806107471E+00  0.88000000000E+00 0. -1.
        -11    1    4    4    0    0  0.20648535450E-01  0.52123256723E-02 -0.19825789796E-01  0.29100745990E-01  0.51100000000E-03 0.  1.
         11    1    4    4    0    0  0.87461013615E-01 -0.77781154546E-02 -0.46640577370E-01  0.99426015514E-01  0.51100000000E-03 0. -1.
</event>
<event>
 8    1  0.1075206E+005  0.1043930E+01  0.7957747E-01            NaN
         13   -1    0    0    0    0  0.00000000000E+00  0.00000000000E+00  0.74505805969E-08  0.10566000000E+00  0.10566000000E+00 0. -1.
     999900   -1    0    0    0    0 -0.00000000000E+00 -0.00000000000E+00 -0.74505805969E-08  0.93827000000E+00  0.93827000000E+00 0.  1.
     999902    2    1    2    0    0  0.14904686707E-01  0.12539349603E-01 -0.14170697717E-01  0.10198427908E+01  0.10195582986E+01 0.  0.
     999903    2    3    3    0    0  0.10375111612E+00 -0.74116742092E-01 -0.22777425673E-01  0.13109252101E+00  0.20220098640E-01 0.  0.
         14    1    1    2    0    0 -0.14904686707E-01 -0.12539349603E-01  0.14170697717E-01  0.24087209221E-01  0.00000000000E+00 0.  1.
     999901    1    3    3    0    0 -0.88846429417E-01  0.86656091695E-01  0.86067279561E-02  0.88875026977E+00  0.88000000000E+00 0.  1.
        -11    1    4    4    0    0  0.76003458050E-01 -0.42755551296E-01 -0.16338028952E-01  0.88722911997E-01  0.51100000000E-03 0. -1.
         11    1    4    4    0    0  0.27747658074E-01 -0.31361190796E-01 -0.64393967213E-02  0.42369609013E-01  0.51100000000E-03 0.  1.
</event>
<event>
 8    1  0.1075206E+005  0.1043930E+01  0.7957747E-01            NaN
         13   -1    0    0    0    0  0.00000000000E+00  0.00000000000E+00  0.74505805969E-08  0.10566000000E+00  0.10566000000E+00 0. -1.
     999900   -1    0    0    0    0 -0.00000000000E+00 -0.00000000000E+00 -0.74505805969E-08  0.93827000000E+00  0.93827000000E+00 0.  1.
     999902    2    1    2    0    0 -0.17689554327E-02  0.52434379299E-02 -0.22382406134E-01  0.10208736571E+01  0.10206132611E+01 0.  0.
     999903    2    3    3    0    0 -0.14870868761E-01 -0.12665547789E+00  0.16389699494E-01  0.13010305793E+00  0.19885437295E-01 0.  0.
         14    1    1    2    0    0  0.17689554327E-02 -0.52434379299E-02  0.22382406134E-01  0.23056342923E-01  0.00000000000E+00 0. -1.
     999901    1    3    3    0    0  0.13101913328E-01  0.13189891582E+00 -0.38772105628E-01  0.89077059915E+00  0.88000000000E+00 0. -1.
        -11    1    4    4    0    0 -0.85667768200E-02 -0.74112269816E-01  0.19421025745E-01  0.77093810156E-01  0.51100000000E-03 0. -1.
         11    1    4    4    0    0 -0.63040919408E-02 -0.52543208073E-01 -0.30313262513E-02  0.53009247775E-01  0.51100000000E-03 0.  1.
</event>
<event>
 8    1  0.1075206E+005  0.1043930E+01  0.7957747E-01            NaN
         13   -1    0    0    0    0  0.00000000000E+00  0.00000000000E+00  0.74505805969E-08  0.10566000000E+00  0.10566000000E+00 0.  1.
     999900   -1    0    0    0    0 -0.00000000000E+00 -0.00000000000E+00 -0.74505805969E-08  0.93827000000E+00  0.93827000000E+00 0.  1.
     999902    2    1    2    0    0 -0.13134504143E-01  0.20159922513E-01  0.37768253723E-02  0.10195742597E+01  0.10192833114E+01 0.  0.
     999903    2    3    3    0    0 -0.10619762099E+00  0.46527563762E-01  0.60882211066E-01  0.13243446166E+00  0.19735605331E-01 0.  0.
         14    1    1    2    0    0  0.13134504143E-01 -0.20159922513E-01 -0.37768253723E-02  0.24355740282E-01  0.00000000000E+00 0.  1.
     999901    1    3    3    0    0  0.93063116846E-01 -0.26367641250E-01 -0.57105385694E-01  0.88713979806E+00  0.88000000000E+00 0. -1.
        -11    1    4    4    0    0 -0.90134404035E-01  0.46741201496E-01  0.52209222853E-01  0.11417098922E+00  0.51100000000E-03 0.  1.
         11    1    4    4    0    0 -0.16063216953E-01 -0.21363773339E-03  0.86729882137E-02  0.18263472439E-01  0.51100000000E-03 0. -1.
</event>
<event>
 8    1  0.1075206E+005  0.1043930E+01  0.7957747E-01            NaN
         13   -1    0    0    0    0  0.00000000000E+00  0.00000000000E+00  0.74505805969E-08  0.10566000000E+00  0.10566000000E+00 0. -1.
     999900   -1    0    0    0    0 -0.00000000000E+00 -0.00000000000E+00 -0.74505805969E-08  0.93827000000E+00  0.93827000000E+00 0.  1.
     999902    2    1    2    0    0 -0.16203718605E-01  0.14680045990E-01 -0.99784368045E-02  0.10198959939E+01  0.10196127721E+01 0.  0.
     999903    2    3    3    0    0 -0.11265400702E-01  0.10493689964E+00  0.75394789417E-01  0.13115572007E+00  0.19462437624E-01 0.  0.
         14    1    1    2    0    0  0.16203718605E-01 -0.14680045990E-01  0.99784368045E-02  0.24034006073E-01  0.00000000000E+00 0.  1.
     999901    1    3    3    0    0 -0.49383179023E-02 -0.90256853647E-01 -0.85373226222E-01  0.88874027385E+00  0.88000000000E+00 0.  1.
        -11    1    4    4    0    0 -0.41998416814E-02  0.75443997666E-01  0.63033604966E-01  0.98401889870E-01  0.51100000000E-03 0. -1.
         11    1    4    4    0    0 -0.70655590210E-02  0.29492901970E-01  0.12361184451E-01  0.32753830203E-01  0.51100000000E-03 0.  1.
</event>
<event>
 8    1  0.1075206E+005  0.1043930E+01  0.7957747E-01            NaN
         13   -1    0    0    0    0  0.00000000000E+00  0.00000000000E+00  0.74505805969E-08  0.10566000000E+00  0.10566000000E+00 0. -1.
     999900   -1    0    0    0    0 -0.00000000000E+00 -0.00000000000E+00 -0.74505805969E-08  0.93827000000E+00  0.93827000000E+00 0.  1.
     999902    2    1    2    0    0  0.18595220219E-02  0.16557484754E-01  0.21143776617E-01  0.10170103527E+01  0.10166540169E+01 0.  0.
     999903    2    3    3    0    0 -0.86116057394E-01  0.63946982637E-01  0.67453101318E-01  0.13014507504E+00  0.29709051661E-01 0.  0.
         14    1    1    2    0    0 -0.18595220219E-02 -0.16557484754E-01 -0.21143776617E-01  0.26919647345E-01  0.00000000000E+00 0.  1.
     999901    1    3    3    0    0  0.87975579416E-01 -0.47389497883E-01 -0.46309324700E-01  0.88686527761E+00  0.88000000000E+00 0. -1.
        -11    1    4    4    0    0 -0.47254839735E-01  0.26202381147E-01  0.18462296727E-01  0.57102558415E-01  0.51100000000E-03 0. -1.
         11    1    4    4    0    0 -0.38861217660E-01  0.37744601490E-01  0.48990804590E-01  0.73042516626E-01  0.51100000000E-03 0.  1.
</event>
<event>
 8    1  0.1075206E+005  0.1043930E+01  0.7957747E-01            NaN
         13   -1    0    0    0    0  0.00000000000E+00  0.00000000000E+00  0.74505805969E-08  0.10566000000E+00  0.10566000000E+00 0. -1.
     999900   -1    0    0    0    0 -0.00000000000E+00 -0.00000000000E+00 -0.74505805969E-08  0.93827000000E+00  0.93827000000E+00 0. -1.
     999902    2    1    2    0    0 -0.78767523027E-02 -0.14714511337E-01 -0.16371005789E-01  0.10205511655E+01  0.10202833487E+01 0.  0.
     999903    2    3    3    0    0 -0.75977674939E-01  0.21336472263E-01 -0.10493032775E+00  0.13275605257E+00  0.19645449225E-01 0.  0.
         14    1    1    2    0    0  0.78767523027E-02  0.14714511337E-01  0.16371005789E-01  0.23378834472E-01  0.00000000000E+00 0. -1.
     999901    1    3    3    0    0  0.68100922637E-01 -0.36050983600E-01  0.88559321960E-01  0.88779511296E+00  0.88000000000E+00 0.  1.
        -11    1    4    4    0    0 -0.41307609139E-01  0.17207148743E-01 -0.71905483976E-01  0.84693944810E-01  0.51100000000E-03 0.  1.
         11    1    4    4    0    0 -0.34670065801E-01  0.41293235205E-02 -0.33024843773E-01  0.48062107763E-01  0.51100000000E-03 0. -1.
</event>
<event>
 8    1  0.1075206E+005  0.1043930E+01  0.7957747E-01            NaN
         13   -1    0    0    0    0  0.00000000000E+00  0.00000000000E+00  0.74505805969E-08  0.10566000000E+00  0.10566000000E+00 0. -1.
     999900   -1    0    0    0    0 -0.00000000000E+00 -0.00000000000E+00 -0.74505805969E-08  0.93827000000E+00  0.93827000000E+00 0. -1.
     999902    2    1    2    0    0  0.12642687931E-01  0.20150583215E-01 -0.22517691620E-02  0.10200353557E+01  0.10197554476E+01 0.  0.
     999903    2    3    3    0    0 -0.82931283664E-01  0.86901045395E-01  0.48256608757E-01  0.13091157101E+00  0.19487165924E-01 0.  0.
         14    1    1    2    0    0 -0.12642687931E-01 -0.20150583215E-01  0.22517691620E-02  0.23894644304E-01  0.00000000000E+00 0.  1.
     999901    1    3    3    0    0  0.95573971595E-01 -0.66750462180E-01 -0.50508377919E-01  0.88912378468E+00  0.88000000000E+00 0. -1.
        -11    1    4    4    0    0 -0.56995038808E-01  0.66219858278E-01  0.42793773407E-01  0.97288602840E-01  0.51100000000E-03 0.  1.
         11    1    4    4    0    0 -0.25936244856E-01  0.20681187116E-01  0.54628353503E-02  0.33622968174E-01  0.51100000000E-03 0. -1.
</event>
<event>
 8    1  0.1075206E+005  0.1043930E+01  0.7957747E-01            NaN
         13   -1    0    0    0    0  0.00000000000E+00  0.00000000000E+00  0.74505805969E-08  0.10566000000E+00  0.10566000000E+00 0.  1.
     999900   -1    0    0    0    0 -0.00000000000E+00 -0.00000000000E+00 -0.74505805969E-08  0.93827000000E+00  0.93827000000E+00 0.  1.
     999902    2    1    2    0    0 -0.42826300465E-02  0.25388933772E-01  0.91550269786E-02  0.10166032110E+01  0.10162358659E+01 0.  0.
     999903    2    3    3    0    0  0.69936424515E-01  0.10642332516E+00  0.14493479027E-01  0.12975286301E+00  0.20216748373E-01 0.  0.
         14    1    1    2    0    0  0.42826300465E-02 -0.25388933772E-01 -0.91550269786E-02  0.27326789002E-01  0.00000000000E+00 0. -1.
     999901    1    3    3    0    0 -0.74219054562E-01 -0.81034391385E-01 -0.53384520484E-02  0.88685034798E+00  0.88000000000E+00 0.  1.
        -11    1    4    4    0    0  0.22537589833E-01  0.39157282050E-01  0.14533858687E-01  0.47462931456E-01  0.51100000000E-03 0.  1.
         11    1    4    4    0    0  0.47398834682E-01  0.67266043107E-01 -0.40379660003E-04  0.82289931559E-01  0.51100000000E-03 0. -1.
</event>
<event>
 8    1  0.1075206E+005  0.1043930E+01  0.7957747E-01            NaN
         13   -1    0    0    0    0  0.00000000000E+00  0.00000000000E+00  0.74505805969E-08  0.10566000000E+00  0.10566000000E+00 0.  1.
     999900   -1    0    0    0    0 -0.00000000000E+00 -0.00000000000E+00 -0.74505805969E-08  0.93827000000E+00  0.93827000000E+00 0.  1.
     999902    2    1    2    0    0  0.99326864177E-02 -0.85580788029E-02  0.23582995888E-01  0.10169474748E+01  0.10165894500E+01 0.  0.
     999903    2    3    3    0    0  0.12538983310E+00 -0.21187618003E-01  0.79602995119E-02  0.12917840198E+00  0.21264236814E-01 0.  0.
         14    1    1    2    0    0 -0.99326864177E-02  0.85580788029E-02 -0.23582995888E-01  0.26982525222E-01  0.00000000000E+00 0. -1.
     999901    1    3    3    0    0 -0.11545714668E+00  0.12629539200E-01  0.15622696376E-01  0.88776907280E+00  0.88000000000E+00 0. -1.
        -11    1    4    4    0    0  0.11076562622E+00 -0.24868726079E-01  0.99470616476E-02  0.11395912708E+00  0.51100000000E-03 0. -1.
         11    1    4    4    0    0  0.14624206881E-01  0.36811080762E-02 -0.19867621356E-02  0.15219274896E-01  0.51100000000E-03 0.  1.
</event>
<event>
 8    1  0.1075206E+005  0.1043930E+01  0.7957747E-01            NaN
         13   -1    0    0    0    0  0.00000000000E+00  0.00000000000E+00  0.74505805969E-08  0.10566000000E+00  0.10566000000E+00 0. -1.
     999900   -1    0    0    0    0 -0.00000000000E+00 -0.00000000000E+00 -0.74505805969E-08  0.93827000000E+00  0.93827000000E+00 0.  1.
     999902    2    1    2    0    0 -0.13720680333E-01  0.69569453283E-02  0.17422910121E-01  0.10206874968E+01  0.10204228301E+01 0.  0.
     999903    2    3    3    0    0  0.80864743131E-02  0.54887914355E-01  0.11995275096E+00  0.13317113187E+00  0.16365014270E-01 0.  0.
         14    1    1    2    0    0  0.13720680333E-01 -0.69569453283E-02 -0.17422910121E-01  0.23242503182E-01  0.00000000000E+00 0.  1.
     999901    1    3    3    0    0 -0.21807154646E-01 -0.47930969027E-01 -0.10252984084E+00  0.88751636495E+00  0.88000000000E+00 0.  1.
        -11    1    4    4    0    0 -0.35614388103E-02  0.68149644811E-02  0.24174121121E-01  0.25372757837E-01  0.51100000000E-03 0. -1.
         11    1    4    4    0    0  0.11647913123E-01  0.48072949874E-01  0.95778629838E-01  0.10779837403E+00  0.51100000000E-03 0.  1.
</event>
<event>
 8    1  0.1075206E+005  0.1043930E+01  0.7957747E-01            NaN
         13   -1    0    0    0    0  0.00000000000E+00  0.00000000000E+00  0.74505805969E-08  0.10566000000E+00  0.10566000000E+00 0.  1.
     999900   -1    0    0    0    0 -0.00000000000E+00 -0.00000000000E+00 -0.74505805969E-08  0.93827000000E+00  0.93827000000E+00 0. -1.
     999902    2    1    2    0    0 -0.22815610517E-01  0.59334155679E-02  0.39197032253E-02  0.10200318499E+01  0.10197518587E+01 0.  0.
     999903    2    3    3    0    0  0.10537049705E+00 -0.40066362469E-01  0.56892374670E-01  0.12798153651E+00  0.20839298023E-01 0.  0.
         14    1    1    2    0    0  0.22815610517E-01 -0.59334155679E-02 -0.39197032253E-02  0.23898150074E-01  0.00000000000E+00 0. -1.
     999901    1    3    3    0    0 -0.12818610756E+00  0.45999778037E-01 -0.52972671445E-01  0.89205031342E+00  0.88000000000E+00 0. -1.
        -11    1    4    4    0    0  0.89416443352E-01 -0.38078086361E-01  0.41366100119E-01  0.10562507450E+00  0.51100000000E-03 0.  1.
         11    1    4    4    0    0  0.15954053693E-01 -0.19882761075E-02  0.15526274551E-01  0.22356462009E-01  0.51100000000E-03 0. -1.
</event>
<event>
 8    1  0.1075206E+005  0.1043930E+01  0.7957747E-01            NaN
         13   -1    0    0    0    0  0.00000000000E+00  0.00000000000E+00  0.74505805969E-08  0.10566000000E+00  0.10566000000E+00 0.  1.
     999900   -1    0    0    0    0 -0.00000000000E+00 -0.00000000000E+00 -0.74505805969E-08  0.93827000000E+00  0.93827000000E+00 0.  1.
     999902    2    1    2    0    0  0.15819709818E-01  0.11942797686E-01  0.14226249322E-01  0.10195316434E+01  0.10192396637E+01 0.  0.
     999903    2    3    3    0    0 -0.91613950532E-01 -0.59425579635E-01 -0.61546386492E-01  0.12690802227E+00  0.19828589919E-01 0.  0.
         14    1    1    2    0    0 -0.15819709818E-01 -0.11942797686E-01 -0.14226249322E-01  0.24398356606E-01  0.00000000000E+00 0. -1.
     999901    1    3    3    0    0  0.10743366035E+00  0.71368377321E-01  0.75772635815E-01  0.89262362113E+00  0.88000000000E+00 0. -1.
        -11    1    4    4    0    0 -0.37013893151E-01 -0.19657394260E-01 -0.33953583724E-01  0.53940229922E-01  0.51100000000E-03 0.  1.
         11    1    4    4    0    0 -0.54600057380E-01 -0.39768185375E-01 -0.27592802769E-01  0.72967792344E-01  0.51100000000E-03 0. -1.
</event>
<event>
 8    1  0.1075206E+005  0.1043930E+01  0.7957747E-01            NaN
         13   -1    0    0    0    0  0.00000000000E+00  0.00000000000E+00  0.74505805969E-08  0.10566000000E+00  0.10566000000E+00 0.  1.
     999900   -1    0    0    0    0 -0.00000000000E+00 -0.00000000000E+00 -0.74505805969E-08  0.93827000000E+00  0.93827000000E+00 0. -1.
     999902    2    1    2    0    0  0.20378160177E-01 -0.63548919935E-02  0.10483667191E-01  0.10201484664E+01  0.10198712331E+01 0.  0.
     999903    2    3    3    0    0  0.11934205099E+00  0.51759290390E-01  0.17779271797E-01  0.13266644642E+00  0.19045582738E-01 0.  0.
         14    1    1    2    0    0 -0.20378160177E-01  0.63548919935E-02 -0.10483667191E-01  0.23781533639E-01  0.00000000000E+00 0.  1.
     999901    1    3    3    0    0 -0.98963890816E-01 -0.58114182383E-01 -0.72956046064E-02  0.88748201995E+00  0.88000000000E+00 0. -1.
        -11    1    4    4    0    0  0.31370023173E-01  0.10358824643E-01  0.12397250961E-01  0.35289326350E-01  0.51100000000E-03 0. -1.
         11    1    4    4    0    0  0.87972027820E-01  0.41400465747E-01  0.53820208366E-02  0.97377120065E-01  0.51100000000E-03 0.  1.
</event>
<event>
 8    1  0.1075206E+005  0.1043930E+01  0.7957747E-01            NaN
         13   -1    0    0    0    0  0.00000000000E+00  0.00000000000E+00  0.74505805969E-08  0.10566000000E+00  0.10566000000E+00 0.  1.
     999900   -1    0    0    0    0 -0.00000000000E+00 -0.00000000000E+00 -0.74505805969E-08  0.93827000000E+00  0.93827000000E+00 0. -1.
     999902    2    1    2    0    0  0.51980134988E-02 -0.16503936027E-01 -0.14578141526E-01  0.10213043186E+01  0.10210536664E+01 0.  0.
     999903    2    3    3    0    0 -0.11378851961E+00  0.57756354089E-01  0.13635275569E-01  0.12975040399E+00  0.19121269851E-01 0.  0.
         14    1    1    2    0    0 -0.51980134988E-02  0.16503936027E-01  0.14578141526E-01  0.22625681406E-01  0.00000000000E+00 0.  1.
     999901    1    3    3    0    0  0.11898653311E+00 -0.74260290117E-01 -0.28213417095E-01  0.89155391461E+00  0.88000000000E+00 0.  1.
        -11    1    4    4    0    0 -0.45103350695E-01  0.25278687141E-01 -0.36336471654E-02  0.51834243316E-01  0.51100000000E-03 0. -1.
         11    1    4    4    0    0 -0.68685168920E-01  0.32477666949E-01  0.17268922735E-01  0.77916160669E-01  0.51100000000E-03 0.  1.
</event>
<event>
 8    1  0.1075206E+005  0.1043930E+01  0.7957747E-01            NaN
         13   -1    0    0    0    0  0.00000000000E+00  0.00000000000E+00  0.74505805969E-08  0.10566000000E+00  0.10566000000E+00 0.  1.
     999900   -1    0    0    0    0 -0.00000000000E+00 -0.00000000000E+00 -0.74505805969E-08  0.93827000000E+00  0.93827000000E+00 0.  1.
     999902    2    1    2    0    0  0.15554288839E-01 -0.17555231743E-01  0.17117255613E-02  0.10204129409E+01  0.10201419107E+01 0.  0.
     999903    2    3    3    0    0  0.27664743143E-01  0.45762239002E-01  0.11741809970E+00  0.13050073727E+00  0.19593666350E-01 0.  0.
         14    1    1    2    0    0 -0.15554288839E-01  0.17555231743E-01 -0.17117255613E-02  0.23517059069E-01  0.00000000000E+00 0.  1.
     999901    1    3    3    0    0 -0.12110454303E-01 -0.63317470745E-01 -0.11570637413E+00  0.88991220366E+00  0.88000000000E+00 0.  1.
        -11    1    4    4    0    0  0.14309105382E-01  0.32501079048E-01  0.93786293695E-01  0.10028559539E+00  0.51100000000E-03 0.  1.
         11    1    4    4    0    0  0.13355637761E-01  0.13261159955E-01  0.23631806001E-01  0.30215141886E-01  0.51100000000E-03 0. -1.
</event>
<event>
 8    1  0.1075206E+005  0.1043930E+01  0.7957747E-01            NaN
         13   -1    0    0    0    0  0.00000000000E+00  0.00000000000E+00  0.74505805969E-08  0.10566000000E+00  0.10566000000E+00 0. -1.
     999900   -1    0    0    0    0 -0.00000000000E+00 -0.00000000000E+00 -0.74505805969E-08  0.93827000000E+00  0.93827000000E+00 0. -1.
     999902    2    1    2    0    0 -0.68639874167E-02 -0.18331226418E-01  0.13451179493E-01  0.10201795807E+01  0.10199030810E+01 0.  0.
     999903    2    3    3    0    0  0.19691689566E-01 -0.11998577450E+00 -0.48460066183E-01  0.13176984787E+00  0.15184402274E-01 0.  0.
         14    1    1    2    0    0  0.68639874167E-02  0.18331226418E-01 -0.13451179493E-01  0.23750419260E-01  0.00000000000E+00 0.  1.
     999901    1    3    3    0    0 -0.26555676983E-01  0.10165454808E+00  0.61911245676E-01  0.88840973287E+00  0.88000000000E+00 0.  1.
        -11    1    4    4    0    0  0.66921421866E-02 -0.77754074691E-01 -0.35350833999E-01  0.85676271415E-01  0.51100000000E-03 0. -1.
         11    1    4    4    0    0  0.12999547380E-01 -0.42231699806E-01 -0.13109232184E-01  0.46093576451E-01  0.51100000000E-03 0.  1.
</event>
<event>
 8    1  0.1075206E+005  0.1043930E+01  0.7957747E-01            NaN
         13   -1    0    0    0    0  0.00000000000E+00  0.00000000000E+00  0.74505805969E-08  0.10566000000E+00  0.10566000000E+00 0.  1.
     999900   -1    0    0    0    0 -0.00000000000E+00 -0.00000000000E+00 -0.74505805969E-08  0.93827000000E+00  0.93827000000E+00 0. -1.
     999902    2    1    2    0    0 -0.15113417129E-01 -0.17480862701E-01  0.72281564684E-02  0.10197175614E+01  0.10194300676E+01 0.  0.
     999903    2    3    3    0    0 -0.23655746149E-01  0.87412406661E-01 -0.88552369574E-01  0.12828642073E+00  0.20380393110E-01 0.  0.
         14    1    1    2    0    0  0.15113417129E-01  0.17480862701E-01 -0.72281564684E-02  0.24212438621E-01  0.00000000000E+00 0. -1.
     999901    1    3    3    0    0  0.85423290205E-02 -0.10489326936E+00  0.95780526042E-01  0.89143114064E+00  0.88000000000E+00 0. -1.
        -11    1    4    4    0    0 -0.27635825587E-02  0.38215776124E-01 -0.46637997866E-01  0.60360971656E-01  0.51100000000E-03 0.  1.
         11    1    4    4    0    0 -0.20892163591E-01  0.49196630537E-01 -0.41914371708E-01  0.67925449078E-01  0.51100000000E-03 0. -1.
</event>
<event>
 8    1  0.1075206E+005  0.1043930E+01  0.7957747E-01            NaN
         13   -1    0    0    0    0  0.00000000000E+00  0.00000000000E+00  0.74505805969E-08  0.10566000000E+00  0.10566000000E+00 0.  1.
     999900   -1    0    0    0    0 -0.00000000000E+00 -0.00000000000E+00 -0.74505805969E-08  0.93827000000E+00  0.93827000000E+00 0.  1.
     999902    2    1    2    0    0 -0.70822106839E-02  0.10715937984E-01  0.19753937813E-01  0.10203671671E+01  0.10200950684E+01 0.  0.
     999903    2    3    3    0    0 -0.38831984291E-01 -0.95953226663E-01  0.78348030953E-01  0.13142418436E+00  0.20468453049E-01 0.  0.
         14    1    1    2    0    0  0.70822106839E-02 -0.10715937984E-01 -0.19753937813E-01  0.23562832898E-01  0.00000000000E+00 0. -1.
     999901    1    3    3    0    0  0.31749773608E-01  0.10666916465E+00 -0.58594093139E-01  0.88894298274E+00  0.88000000000E+00 0.  1.
        -11    1    4    4    0    0 -0.21623567778E-01 -0.55990732704E-01  0.57705273572E-01  0.83262840159E-01  0.51100000000E-03 0.  1.
         11    1    4    4    0    0 -0.17208416513E-01 -0.39962493958E-01  0.20642757380E-01  0.48161344204E-01  0.51100000000E-03 0. -1.
</event>
<event>
 8    1  0.1075206E+005  0.1043930E+01  0.7957747E-01            NaN
         13   -1    0    0    0    0  0.00000000000E+00  0.00000000000E+00  0.74505805969E-08  0.10566000000E+00  0.10566000000E+00 0.  1.
     999900   -1    0    0    0    0 -0.00000000000E+00 -0.00000000000E+00 -0.74505805969E-08  0.93827000000E+00  0.93827000000E+00 0.  1.
     999902    2    1    2    0    0  0.13761713429E-01  0.24470620676E-02 -0.20326847158E-01  0.10192611211E+01  0.10189625506E+01 0.  0.
     999903    2    3    3    0    0 -0.55607237268E-01 -0.52429430824E-01  0.99210470048E-01  0.12678554668E+00  0.19769861551E-01 0.  0.
         14    1    1    2    0    0 -0.13761713429E-01 -0.24470620676E-02  0.20326847158E-01  0.24668878869E-01  0.00000000000E+00 0.  1.
     999901    1    3    3    0    0  0.69368950697E-01  0.54876492891E-01 -0.11953731721E+00  0.89247557445E+00  0.88000000000E+00 0.  1.
        -11    1    4    4    0    0 -0.24029979446E-01 -0.30591453982E-01  0.37057582455E-01  0.53728972699E-01  0.51100000000E-03 0.  1.
         11    1    4    4    0    0 -0.31577257822E-01 -0.21837976842E-01  0.62152887593E-01  0.73056573977E-01  0.51100000000E-03 0. -1.
</event>
<event>
 8    1  0.1075206E+005  0.1043930E+01  0.7957747E-01            NaN
         13   -1    0    0    0    0  0.00000000000E+00  0.00000000000E+00  0.74505805969E-08  0.10566000000E+00  0.10566000000E+00 0. -1.
     999900   -1    0    0    0    0 -0.00000000000E+00 -0.00000000000E+00 -0.74505805969E-08  0.93827000000E+00  0.93827000000E+00 0.  1.
     999902    2    1    2    0    0  0.35295637390E-02  0.16746014746E-01 -0.16147917366E-01  0.10204004002E+01  0.10201290775E+01 0.  0.
     999903    2    3    3    0    0 -0.78800188247E-01  0.93022348175E-01  0.43997152498E-01  0.13123579425E+00  0.20602362396E-01 0.  0.
         14    1    1    2    0    0 -0.35295637390E-02 -0.16746014746E-01  0.16147917366E-01  0.23529599769E-01  0.00000000000E+00 0. -1.
     999901    1    3    3    0    0  0.82329751986E-01 -0.76276333429E-01 -0.60145069864E-01  0.88916460598E+00  0.88000000000E+00 0.  1.
        -11    1    4    4    0    0 -0.78379386895E-02  0.21263534100E-02  0.11602910366E-02  0.82196142254E-02  0.51100000000E-03 0. -1.
         11    1    4    4    0    0 -0.70962249558E-01  0.90895994765E-01  0.42836861461E-01  0.12301618002E+00  0.51100000000E-03 0.  1.
</event>
<event>
 8    1  0.1075206E+005  0.1043930E+01  0.7957747E-01            NaN
         13   -1    0    0    0    0  0.00000000000E+00  0.00000000000E+00  0.74505805969E-08  0.10566000000E+00  0.10566000000E+00 0.  1.
     999900   -1    0    0    0    0 -0.00000000000E+00 -0.00000000000E+00 -0.74505805969E-08  0.93827000000E+00  0.93827000000E+00 0.  1.
     999902    2    1    2    0    0 -0.27044965530E-02  0.21402697950E-01  0.64602351864E-02  0.10214105768E+01  0.10211622996E+01 0.  0.
     999903    2    3    3    0    0 -0.48553839878E-01  0.96148928272E-01 -0.75549406095E-01  0.13325814482E+00  0.21164324331E-01 0.  0.
         14    1    1    2    0    0  0.27044965530E-02 -0.21402697950E-01 -0.64602351864E-02  0.22519423167E-01  0.00000000000E+00 0. -1.
     999901    1    3    3    0    0  0.45849343325E-01 -0.74746230322E-01  0.82009641281E-01  0.88815243201E+00  0.88000000000E+00 0. -1.
        -11    1    4    4    0    0 -0.89640219973E-02  0.11094408815E-01 -0.18827565468E-01  0.23625789717E-01  0.51100000000E-03 0. -1.
         11    1    4    4    0    0 -0.39589817880E-01  0.85054519456E-01 -0.56721840627E-01  0.10963235510E+00  0.51100000000E-03 0.  1.
</event>
<event>
 8    1  0.1075206E+005  0.1043930E+01  0.7957747E-01            NaN
         13   -1    0    0    0    0  0.00000000000E+00  0.00000000000E+00  0.74505805969E-08  0.10566000000E+00  0.10566000000E+00 0.  1.
     999900   -1    0    0    0    0 -0.00000000000E+00 -0.00000000000E+00 -0.74505805969E-08  0.93827000000E+00  0.93827000000E+00 0.  1.
     999902    2    1    2    0    0 -0.15045204346E-01 -0.26382750612E-01  0.84234544456E-02  0.10124123496E+01  0.10119216389E+01 0.  0.
     999903    2    3    3    0    0  0.15160659286E-01 -0.55192339701E-01  0.11003793191E+00  0.12558210164E+00  0.19659039689E-01 0.  0.
         14    1    1    2    0    0  0.15045204346E-01  0.26382750612E-01 -0.84234544456E-02  0.31517650427E-01  0.00000000000E+00 0. -1.
     999901    1    3    3    0    0 -0.30205863633E-01  0.28809589090E-01 -0.10161447746E+00  0.88683024793E+00  0.88000000000E+00 0.  1.
        -11    1    4    4    0    0  0.11207935829E-01 -0.32738983842E-01  0.45722221835E-01  0.57343191218E-01  0.51100000000E-03 0. -1.
         11    1    4    4    0    0  0.39527234574E-02 -0.22453355859E-01  0.64315710074E-01  0.68238910420E-01  0.51100000000E-03 0.  1.
</event>
<event>
 8    1  0.1075206E+005  0.1043930E+01  0.7957747E-01            NaN
         13   -1    0    0    0    0  0.00000000000E+00  0.00000000000E+00  0.74505805969E-08  0.10566000000E+00  0.10566000000E+00 0. -1.
     999900   -1    0    0    0    0 -0.00000000000E+00 -0.00000000000E+00 -0.74505805969E-08  0.93827000000E+00  0.93827000000E+00 0. -1.
     999902    2    1    2    0    0  0.15055061177E-01  0.33393569828E-02  0.16908743727E-01  0.10210452499E+01  0.10207887590E+01 0.  0.
     999903    2    3    3    0    0 -0.10582370080E+00  0.43806266827E-01  0.59178928944E-01  0.13085649777E+00  0.22441762712E-01 0.  0.
         14    1    1    2    0    0 -0.15055061177E-01 -0.33393569828E-02 -0.16908743727E-01  0.22884750087E-01  0.00000000000E+00 0.  1.
     999901    1    3    3    0    0  0.12087876197E+00 -0.40466909845E-01 -0.42270185216E-01  0.89018875215E+00  0.88000000000E+00 0.  1.
        -11    1    4    4    0    0 -0.82680427888E-01  0.25188739876E-01  0.49544881652E-01  0.99626714244E-01  0.51100000000E-03 0.  1.
         11    1    4    4    0    0 -0.23143272908E-01  0.18617526952E-01  0.96340472919E-02  0.31229783523E-01  0.51100000000E-03 0. -1.
</event>
<event>
 8    1  0.1075206E+005  0.1043930E+01  0.7957747E-01            NaN
         13   -1    0    0    0    0  0.00000000000E+00  0.00000000000E+00  0.74505805969E-08  0.10566000000E+00  0.10566000000E+00 0. -1.
     999900   -1    0    0    0    0 -0.00000000000E+00 -0.00000000000E+00 -0.74505805969E-08  0.93827000000E+00  0.93827000000E+00 0. -1.
     999902    2    1    2    0    0  0.11645578810E-01  0.16691487044E-01  0.12303150149E-01  0.10201478060E+01  0.10198705572E+01 0.  0.
     999903    2    3    3    0    0  0.50283390286E-01  0.78579462934E-01 -0.90092153319E-01  0.13121147525E+00  0.19917424906E-01 0.  0.
         14    1    1    2    0    0 -0.11645578810E-01 -0.16691487044E-01 -0.12303150149E-01  0.23782193951E-01  0.00000000000E+00 0.  1.
     999901    1    3    3    0    0 -0.38637811476E-01 -0.61887975890E-01  0.10239530347E+00  0.88893633080E+00  0.88000000000E+00 0.  1.
        -11    1    4    4    0    0  0.26174486973E-01  0.58026968924E-01 -0.58146353659E-01  0.86217703841E-01  0.51100000000E-03 0.  1.
         11    1    4    4    0    0  0.24108903313E-01  0.20552494010E-01 -0.31945799659E-01  0.44993771412E-01  0.51100000000E-03 0. -1.
</event>
<event>
 8    1  0.1075206E+005  0.1043930E+01  0.7957747E-01            NaN
         13   -1    0    0    0    0  0.00000000000E+00  0.00000000000E+00  0.74505805969E-08  0.10566000000E+00  0.10566000000E+00 0. -1.
     999900   -1    0    0    0    0 -0.00000000000E+00 -0.00000000000E+00 -0.74505805969E-08  0.93827000000E+00  0.93827000000E+00 0. -1.
     999902    2    1    2    0    0  0.51737925904E-02  0.12835399271E-01 -0.19305561331E-01  0.10201766781E+01  0.10199001099E+01 0.  0.
     999903    2    3    3    0    0 -0.16703023693E-01  0.12123140152E+00 -0.48053279444E-01  0.13279022354E+00  0.18656958133E-01 0.  0.
         14    1    1    2    0    0 -0.51737925904E-02 -0.12835399271E-01  0.19305561331E-01  0.23753321926E-01  0.00000000000E+00 0. -1.
     999901    1    3    3    0    0  0.21876816284E-01 -0.10839600225E+00  0.28747718113E-01  0.88738645453E+00  0.88000000000E+00 0. -1.
        -11    1    4    4    0    0 -0.98843698568E-02  0.30294249513E-01 -0.62750405948E-02  0.32481988494E-01  0.51100000000E-03 0. -1.
         11    1    4    4    0    0 -0.68186538363E-02  0.90937152009E-01 -0.41778238849E-01  0.10030823505E+00  0.51100000000E-03 0.  1.
</event>
<event>
 8    1  0.1075206E+005  0.1043930E+01  0.7957747E-01            NaN
         13   -1    0    0    0    0  0.00000000000E+00  0.00000000000E+00  0.74505805969E-08  0.10566000000E+00  0.10566000000E+00 0.  1.
     999900   -1    0    0    0    0 -0.00000000000E+00 -0.00000000000E+00 -0.74505805969E-08  0.93827000000E+00  0.93827000000E+00 0. -1.
     999902    2    1    2    0    0  0.20662521130E-01  0.10744076341E-01 -0.84711928577E-02  0.10191482312E+01  0.10188468880E+01 0.  0.
     999903    2    3    3    0    0 -0.21348210348E-01 -0.29709670289E-01  0.12071671777E+00  0.12780602789E+00  0.20577760377E-01 0.  0.
         14    1    1    2    0    0 -0.20662521130E-01 -0.10744076341E-01  0.84711928577E-02  0.24781768788E-01  0.00000000000E+00 0.  1.
     999901    1    3    3    0    0  0.42010731477E-01  0.40453746629E-01 -0.12918791062E+00  0.89134220332E+00  0.88000000000E+00 0. -1.
        -11    1    4    4    0    0 -0.15457701154E-02 -0.19213014849E-02  0.41184784732E-01  0.41261706449E-01  0.51100000000E-03 0. -1.
         11    1    4    4    0    0 -0.19802440232E-01 -0.27788368804E-01  0.79531933035E-01  0.86544321438E-01  0.51100000000E-03 0.  1.
</event>
<event>
 8    1  0.1075206E+005  0.1043930E+01  0.7957747E-01            NaN
         13   -1    0    0    0    0  0.00000000000E+00  0.00000000000E+00  0.74505805969E-08  0.10566000000E+00  0.10566000000E+00 0. -1.
     999900   -1    0    0    0    0 -0.00000000000E+00 -0.00000000000E+00 -0.74505805969E-08  0.93827000000E+00  0.93827000000E+00 0.  1.
     999902    2    1    2    0    0 -0.18980773456E-01 -0.29109150126E-03 -0.13609855281E-01  0.10205722892E+01  0.10203049616E+01 0.  0.
     999903    2    3    3    0    0  0.90131965222E-01 -0.88353504947E-01  0.19998957156E-01  0.12883795053E+00  0.16405676404E-01 0.  0.
         14    1    1    2    0    0  0.18980773456E-01  0.29109150126E-03  0.13609855281E-01  0.23357710847E-01  0.00000000000E+00 0. -1.
     999901    1    3    3    0    0 -0.10911273868E+00  0.88062413446E-01 -0.33608812437E-01  0.89173433862E+00  0.88000000000E+00 0. -1.
        -11    1    4    4    0    0  0.28181934487E-01 -0.31563421555E-01 -0.54557708705E-03  0.42320559862E-01  0.51100000000E-03 0. -1.
         11    1    4    4    0    0  0.61950030735E-01 -0.56790083393E-01  0.20544534243E-01  0.86517390669E-01  0.51100000000E-03 0.  1.
</event>
<event>
 8    1  0.1075206E+005  0.1043930E+01  0.7957747E-01            NaN
         13   -1    0    0    0    0  0.00000000000E+00  0.00000000000E+00  0.74505805969E-08  0.10566000000E+00  0.10566000000E+00 0.  1.
     999900   -1    0    0    0    0 -0.00000000000E+00 -0.00000000000E+00 -0.74505805969E-08  0.93827000000E+00  0.93827000000E+00 0. -1.
     999902    2    1    2    0    0  0.19308515325E-01 -0.94829826397E-02 -0.10238368916E-01  0.10201062740E+01  0.10198280445E+01 0.  0.
     999903    2    3    3    0    0 -0.23086615929E-02  0.95695087779E-01  0.83323428317E-01  0.12865602929E+00  0.21135288591E-01 0.  0.
         14    1    1    2    0    0 -0.19308515325E-01  0.94829826397E-02  0.10238368916E-01  0.23823726028E-01  0.00000000000E+00 0.  1.
     999901    1    3    3    0    0  0.21617176918E-01 -0.10517807042E+00 -0.93561797233E-01  0.89145024468E+00  0.88000000000E+00 0. -1.
        -11    1    4    4    0    0  0.91870519934E-02  0.47075058911E-01  0.37917919704E-01  0.61143215907E-01  0.51100000000E-03 0. -1.
         11    1    4    4    0    0 -0.11495713586E-01  0.48620028868E-01  0.45405508613E-01  0.67512813387E-01  0.51100000000E-03 0.  1.
</event>
<event>
 8    1  0.1075206E+005  0.1043930E+01  0.7957747E-01            NaN
         13   -1    0    0    0    0  0.00000000000E+00  0.00000000000E+00  0.74505805969E-08  0.10566000000E+00  0.10566000000E+00 0.  1.
     999900   -1    0    0    0    0 -0.00000000000E+00 -0.00000000000E+00 -0.74505805969E-08  0.93827000000E+00  0.93827000000E+00 0.  1.
     999902    2    1    2    0    0  0.15468565032E-01 -0.15078245502E-01 -0.59369129018E-02  0.10215273902E+01  0.10212817104E+01 0.  0.
     999903    2    3    3    0    0 -0.86467236379E-01 -0.12584328770E-01  0.94174302682E-01  0.13000095608E+00  0.19912332815E-01 0.  0.
         14    1    1    2    0    0 -0.15468565032E-01  0.15078245502E-01  0.59369129018E-02  0.22402609812E-01  0.00000000000E+00 0.  1.
     999901    1    3    3    0    0  0.10193580141E+00 -0.24939167327E-02 -0.10011121558E+00  0.89152643411E+00  0.88000000000E+00 0.  1.
        -11    1    4    4    0    0 -0.37819259888E-01  0.38542605322E-02  0.35332138022E-01  0.51901568772E-01  0.51100000000E-03 0.  1.
         11    1    4    4    0    0 -0.48647976491E-01 -0.16438589302E-01  0.58842164660E-01  0.78099387308E-01  0.51100000000E-03 0. -1.
</event>
<event>
 8    1  0.1075206E+005  0.1043930E+01  0.7957747E-01            NaN
         13   -1    0    0    0    0  0.00000000000E+00  0.00000000000E+00  0.74505805969E-08  0.10566000000E+00  0.10566000000E+00 0.  1.
     999900   -1    0    0    0    0 -0.00000000000E+00 -0.00000000000E+00 -0.74505805969E-08  0.93827000000E+00  0.93827000000E+00 0.  1.
     999902    2    1    2    0    0 -0.13372388281E-01  0.13705186490E-01  0.13806858831E-01  0.10203231735E+01  0.10200500459E+01 0.  0.
     999903    2    3    3    0    0  0.80974873126E-01  0.41743800030E-01 -0.88875268897E-01  0.12890229149E+00  0.20433120462E-01 0.  0.
         14    1    1    2    0    0  0.13372388281E-01 -0.13705186490E-01 -0.13806858831E-01  0.23606826467E-01  0.00000000000E+00 0. -1.
     999901    1    3    3    0    0 -0.94347261406E-01 -0.28038613541E-01  0.10268212773E+00  0.89142088204E+00  0.88000000000E+00 0. -1.
        -11    1    4    4    0    0  0.57186488055E-01  0.19148278415E-01 -0.61925222756E-01  0.86440414834E-01  0.51100000000E-03 0. -1.
         11    1    4    4    0    0  0.23788385071E-01  0.22595521615E-01 -0.26950046140E-01  0.42461876658E-01  0.51100000000E-03 0.  1.
</event>
<event>
 8    1  0.1075206E+005  0.1043930E+01  0.7957747E-01            NaN
         13   -1    0    0    0    0  0.00000000000E+00  0.00000000000E+00  0.74505805969E-08  0.10566000000E+00  0.10566000000E+00 0.  1.
     999900   -1    0    0    0    0 -0.00000000000E+00 -0.00000000000E+00 -0.74505805969E-08  0.93827000000E+00  0.93827000000E+00 0. -1.
     999902    2    1    2    0    0 -0.19339568952E-01 -0.57441166827E-02 -0.96975754666E-02  0.10215457025E+01  0.10213004287E+01 0.  0.
     999903    2    3    3    0    0 -0.17218937331E-01 -0.73407538230E-02  0.12791910834E+00  0.13084631553E+00  0.20176261767E-01 0.  0.
         14    1    1    2    0    0  0.19339568952E-01  0.57441166827E-02  0.96975754666E-02  0.22384297480E-01  0.00000000000E+00 0.  1.
     999901    1    3    3    0    0 -0.21206316208E-02  0.15966371403E-02 -0.13761668381E+00  0.89069938699E+00  0.88000000000E+00 0. -1.
        -11    1    4    4    0    0 -0.18579648290E-01  0.13888562810E-02  0.83654600335E-01  0.85705808033E-01  0.51100000000E-03 0. -1.
         11    1    4    4    0    0  0.13607109586E-02 -0.87296101040E-02  0.44264508005E-01  0.45140507494E-01  0.51100000000E-03 0.  1.
</event>
<event>
 8    1  0.1075206E+005  0.1043930E+01  0.7957747E-01            NaN
         13   -1    0    0    0    0  0.00000000000E+00  0.00000000000E+00  0.74505805969E-08  0.10566000000E+00  0.10566000000E+00 0.  1.
     999900   -1    0    0    0    0 -0.00000000000E+00 -0.00000000000E+00 -0.74505805969E-08  0.93827000000E+00  0.93827000000E+00 0. -1.
     999902    2    1    2    0    0  0.97661492832E-02  0.17380456367E-01  0.13378653210E-01  0.10199207039E+01  0.10196380711E+01 0.  0.
     999903    2    3    3    0    0  0.10339667037E+00  0.24946071592E-01  0.76872692411E-01  0.13264656027E+00  0.19300807839E-01 0.  0.
         14    1    1    2    0    0 -0.97661492832E-02 -0.17380456367E-01 -0.13378653210E-01  0.24009296055E-01  0.00000000000E+00 0. -1.
     999901    1    3    3    0    0 -0.93630521084E-01 -0.75656152248E-02 -0.63494039201E-01  0.88727414367E+00  0.88000000000E+00 0. -1.
        -11    1    4    4    0    0  0.85404849053E-01  0.27195388101E-01  0.67660952347E-01  0.11230246199E+00  0.51100000000E-03 0.  1.
         11    1    4    4    0    0  0.17991821314E-01 -0.22493165096E-02  0.92117400647E-02  0.20344098283E-01  0.51100000000E-03 0. -1.
</event>
<event>
 8    1  0.1075206E+005  0.1043930E+01  0.7957747E-01            NaN
         13   -1    0    0    0    0  0.00000000000E+00  0.00000000000E+00  0.74505805969E-08  0.10566000000E+00  0.10566000000E+00 0.  1.
     999900   -1    0    0    0    0 -0.00000000000E+00 -0.00000000000E+00 -0.74505805969E-08  0.93827000000E+00  0.93827000000E+00 0.  1.
     999902    2    1    2    0    0  0.24930850982E-03  0.13384883863E-01 -0.17010472539E-01  0.10222834426E+01  0.10220542371E+01 0.  0.
     999903    2    3    3    0    0  0.79393234616E-02  0.18291022667E-01  0.12731836461E+00  0.13047964145E+00  0.20429794393E-01 0.  0.
         14    1    1    2    0    0 -0.24930850982E-03 -0.13384883863E-01  0.17010472539E-01  0.21646557388E-01  0.00000000000E+00 0.  1.
     999901    1    3    3    0    0 -0.76900149518E-02 -0.49061388034E-02 -0.14432883715E+00  0.89180380116E+00  0.88000000000E+00 0.  1.
        -11    1    4    4    0    0  0.20567338231E-02  0.19042612141E-01  0.11707416487E+00  0.11863166707E+00  0.51100000000E-03 0.  1.
         11    1    4    4    0    0  0.58825896385E-02 -0.75158947443E-03  0.10244199746E-01  0.11847974385E-01  0.51100000000E-03 0. -1.
</event>
<event>
 8    1  0.1075206E+005  0.1043930E+01  0.7957747E-01            NaN
         13   -1    0    0    0    0  0.00000000000E+00  0.00000000000E+00  0.74505805969E-08  0.10566000000E+00  0.10566000000E+00 0.  1.
     999900   -1    0    0    0    0 -0.00000000000E+00 -0.00000000000E+00 -0.74505805969E-08  0.93827000000E+00  0.93827000000E+00 0. -1.
     999902    2    1    2    0    0 -0.16237853669E-01  0.99454044346E-02 -0.60130608806E-02  0.10239616285E+01  0.10237669074E+01 0.  0.
     999903    2    3    3    0    0  0.61789436559E-01  0.16847813971E-01 -0.11581468815E+00  0.13368509915E+00  0.18891279362E-01 0.  0.
         14    1    1    2    0    0  0.16237853669E-01 -0.99454044346E-02  0.60130608806E-02  0.19968371549E-01  0.00000000000E+00 0. -1.
     999901    1    3    3    0    0 -0.78027290228E-01 -0.69024095361E-02  0.10980162727E+00  0.89027652930E+00  0.88000000000E+00 0.  1.
        -11    1    4    4    0    0  0.29515849305E-01  0.10409365368E-01 -0.74881474313E-01  0.81160560396E-01  0.51100000000E-03 0.  1.
         11    1    4    4    0    0  0.32273587254E-01  0.64384486024E-02 -0.40933213841E-01  0.52524538751E-01  0.51100000000E-03 0. -1.
</event>
<event>
 8    1  0.1075206E+005  0.1043930E+01  0.7957747E-01            NaN
         13   -1    0    0    0    0  0.00000000000E+00  0.00000000000E+00  0.74505805969E-08  0.10566000000E+00  0.10566000000E+00 0.  1.
     999900   -1    0    0    0    0 -0.00000000000E+00 -0.00000000000E+00 -0.74505805969E-08  0.93827000000E+00  0.93827000000E+00 0.  1.
     999902    2    1    2    0    0 -0.21166472349E-02  0.23899922831E-01 -0.64077598271E-02  0.10190956308E+01  0.10187929912E+01 0.  0.
     999903    2    3    3    0    0  0.87333692329E-01  0.32277134356E-01 -0.89412900759E-01  0.13063550546E+00  0.20049469990E-01 0.  0.
         14    1    1    2    0    0  0.21166472349E-02 -0.23899922831E-01  0.64077598271E-02  0.24834369186E-01  0.00000000000E+00 0.  1.
     999901    1    3    3    0    0 -0.89450339564E-01 -0.83772115248E-02  0.83005140932E-01  0.88846012535E+00  0.88000000000E+00 0. -1.
        -11    1    4    4    0    0  0.62390643121E-01  0.14752278742E-01 -0.67457965678E-01  0.93064817904E-01  0.51100000000E-03 0.  1.
         11    1    4    4    0    0  0.24943049209E-01  0.17524855614E-01 -0.21954935081E-01  0.37570687557E-01  0.51100000000E-03 0. -1.
</event>
<event>
 8    1  0.1075206E+005  0.1043930E+01  0.7957747E-01            NaN
         13   -1    0    0    0    0  0.00000000000E+00  0.00000000000E+00  0.74505805969E-08  0.10566000000E+00  0.10566000000E+00 0.  1.
     999900   -1    0    0    0    0 -0.00000000000E+00 -0.00000000000E+00 -0.74505805969E-08  0.93827000000E+00  0.93827000000E+00 0.  1.
     999902    2    1    2    0    0  0.14552070513E-01  0.16613757847E-01  0.98531685261E-02  0.10197460252E+01  0.10194592151E+01 0.  0.
     999903    2    3    3    0    0 -0.59028838068E-01  0.12145256082E-01  0.11412462051E+00  0.13052914880E+00  0.19532503966E-01 0.  0.
         14    1    1    2    0    0 -0.14552070513E-01 -0.16613757847E-01 -0.98531685261E-02  0.24183974777E-01  0.00000000000E+00 0. -1.
     999901    1    3    3    0    0  0.73580908581E-01  0.44685017647E-02 -0.10427145198E+00  0.88921687642E+00  0.88000000000E+00 0.  1.
        -11    1    4    4    0    0 -0.17091348277E-01  0.95917346016E-02  0.23265727596E-01  0.30424837882E-01  0.51100000000E-03 0.  1.
         11    1    4    4    0    0 -0.41937489791E-01  0.25535214803E-02  0.90858892914E-01  0.10010431092E+00  0.51100000000E-03 0. -1.
</event>
<event>
 8    1  0.1075206E+005  0.1043930E+01  0.7957747E-01            NaN
         13   -1    0    0    0    0  0.00000000000E+00  0.00000000000E+00  0.74505805969E-08  0.10566000000E+00  0.10566000000E+00 0. -1.
     999900   -1    0    0    0    0 -0.00000000000E+00 -0.00000000000E+00 -0.74505805969E-08  0.93827000000E+00  0.93827000000E+00 0.  1.
     999902    2    1    2    0    0  0.26232548797E-02 -0.20297517991E-01 -0.88787388817E-02  0.10216207484E+01  0.10213771345E+01 0.  0.
     999903    2    3    3    0    0 -0.12369149792E+00 -0.40272615129E-01  0.12261832221E-01  0.13212575402E+00  0.19631407450E-01 0.  0.
         14    1    1    2    0    0 -0.26232548797E-02  0.20297517991E-01  0.88787388817E-02  0.22309251598E-01  0.00000000000E+00 0. -1.
     999901    1    3    3    0    0  0.12631475280E+00  0.19975097138E-01 -0.21140571103E-01  0.88949499438E+00  0.88000000000E+00 0. -1.
        -11    1    4    4    0    0 -0.69359745657E-01 -0.32035423834E-01  0.10706318153E-01  0.77148746375E-01  0.51100000000E-03 0.  1.
         11    1    4    4    0    0 -0.54331752266E-01 -0.82371912953E-02  0.15555140675E-02  0.54977007646E-01  0.51100000000E-03 0. -1.
</event>
<event>
 8    1  0.1075206E+005  0.1043930E+01  0.7957747E-01            NaN
         13   -1    0    0    0    0  0.00000000000E+00  0.00000000000E+00  0.74505805969E-08  0.10566000000E+00  0.10566000000E+00 0. -1.
     999900   -1    0    0    0    0 -0.00000000000E+00 -0.00000000000E+00 -0.74505805969E-08  0.93827000000E+00  0.93827000000E+00 0. -1.
     999902    2    1    2    0    0 -0.36775643203E-02 -0.14645726862E-01  0.18621582823E-01  0.10199553229E+01  0.10196735142E+01 0.  0.
     999903    2    3    3    0    0 -0.54020350829E-01  0.10652270125E+00  0.46770572820E-01  0.12978199723E+00  0.19763505159E-01 0.  0.
         14    1    1    2    0    0  0.36775643203E-02  0.14645726862E-01 -0.18621582823E-01  0.23974677088E-01  0.00000000000E+00 0.  1.
     999901    1    3    3    0    0  0.50342786508E-01 -0.12116842811E+00 -0.28148989996E-01  0.89017332569E+00  0.88000000000E+00 0.  1.
        -11    1    4    4    0    0 -0.63483302485E-02  0.27166854405E-01  0.16327561737E-01  0.32329393259E-01  0.51100000000E-03 0. -1.
         11    1    4    4    0    0 -0.47672020580E-01  0.79355846848E-01  0.30443011082E-01  0.97452603967E-01  0.51100000000E-03 0.  1.
</event>
<event>
 8    1  0.1075206E+005  0.1043930E+01  0.7957747E-01            NaN
         13   -1    0    0    0    0  0.00000000000E+00  0.00000000000E+00  0.74505805969E-08  0.10566000000E+00  0.10566000000E+00 0. -1.
     999900   -1    0    0    0    0 -0.00000000000E+00 -0.00000000000E+00 -0.74505805969E-08  0.93827000000E+00  0.93827000000E+00 0. -1.
     999902    2    1    2    0    0  0.13382532955E-01  0.10505634396E-02  0.21094567819E-01  0.10189264670E+01  0.10186196388E+01 0.  0.
     999903    2    3    3    0    0  0.11179018520E-02 -0.12695732557E+00 -0.12115216089E-01  0.12896055158E+00  0.19095370728E-01 0.  0.
         14    1    1    2    0    0 -0.13382532955E-01 -0.10505634396E-02 -0.21094567819E-01  0.25003533017E-01  0.00000000000E+00 0.  1.
     999901    1    3    3    0    0  0.12264631103E-01  0.12800788901E+00  0.33209783908E-01  0.88996591540E+00  0.88000000000E+00 0. -1.
        -11    1    4    4    0    0  0.86157852584E-02 -0.61819220672E-01 -0.11001241658E-01  0.63380882285E-01  0.51100000000E-03 0. -1.
         11    1    4    4    0    0 -0.74978834064E-02 -0.65138104899E-01 -0.11139744309E-02  0.65579669300E-01  0.51100000000E-03 0.  1.
</event>
<event>
 8    1  0.1075206E+005  0.1043930E+01  0.7957747E-01            NaN
         13   -1    0    0    0    0  0.00000000000E+00  0.00000000000E+00  0.74505805969E-08  0.10566000000E+00  0.10566000000E+00 0.  1.
     999900   -1    0    0    0    0 -0.00000000000E+00 -0.00000000000E+00 -0.74505805969E-08  0.93827000000E+00  0.93827000000E+00 0. -1.
     999902    2    1    2    0    0 -0.18773955751E-01  0.90688169039E-02 -0.10690702271E-01  0.10204993370E+01  0.10202303175E+01 0.  0.
     999903    2    3    3    0    0 -0.48451278049E-01  0.12093800807E+00 -0.17413166331E-01  0.13289545522E+00  0.19607537213E-01 0.  0.
         14    1    1    2    0    0  0.18773955751E-01 -0.90688169039E-02  0.10690702271E-01  0.23430663021E-01  0.00000000000E+00 0.  1.
     999901    1    3    3    0    0  0.29677322298E-01 -0.11186919117E+00  0.67224640603E-02  0.88760388176E+00  0.88000000000E+00 0. -1.
        -11    1    4    4    0    0 -0.41980613429E-01  0.93151320096E-01 -0.20442838779E-01  0.10420034126E+00  0.51100000000E-03 0. -1.
         11    1    4    4    0    0 -0.64706646193E-02  0.27786687975E-01  0.30296724472E-02  0.28695113963E-01  0.51100000000E-03 0.  1.
</event>
<event>
 8    1  0.1075206E+005  0.1043930E+01  0.7957747E-01            NaN
         13   -1    0    0    0    0  0.00000000000E+00  0.00000000000E+00  0.74505805969E-08  0.10566000000E+00  0.10566000000E+00 0.  1.
     999900   -1    0    0    0    0 -0.00000000000E+00 -0.00000000000E+00 -0.74505805969E-08  0.93827000000E+00  0.93827000000E+00 0. -1.
     999902    2    1    2    0    0 -0.20786537257E-01  0.39226141459E-02  0.12509890905E-01  0.10193543128E+01  0.10190580212E+01 0.  0.
     999903    2    3    3    0    0 -0.44464839777E-01  0.10969345837E+00  0.55087049426E-01  0.13168266855E+00  0.17203644863E-01 0.  0.
         14    1    1    2    0    0  0.20786537257E-01 -0.39226141459E-02 -0.12509890905E-01  0.24575687240E-01  0.00000000000E+00 0. -1.
     999901    1    3    3    0    0  0.23678302520E-01 -0.10577084423E+00 -0.42577158520E-01  0.88767164421E+00  0.88000000000E+00 0. -1.
        -11    1    4    4    0    0 -0.31264864179E-01  0.85382964665E-01  0.34740739824E-01  0.97339213637E-01  0.51100000000E-03 0. -1.
         11    1    4    4    0    0 -0.13199975597E-01  0.24310493710E-01  0.20346309602E-01  0.34343454917E-01  0.51100000000E-03 0.  1.
</event>
<event>
 8    1  0.1075206E+005  0.1043930E+01  0.7957747E-01            NaN
         13   -1    0    0    0    0  0.00000000000E+00  0.00000000000E+00  0.74505805969E-08  0.10566000000E+00  0.10566000000E+00 0. -1.
     999900   -1    0    0    0    0 -0.00000000000E+00 -0.00000000000E+00 -0.74505805969E-08  0.93827000000E+00  0.93827000000E+00 0.  1.
     999902    2    1    2    0    0 -0.22945609188E-01  0.38882687389E-02 -0.42451126484E-02  0.10202732759E+01  0.10199989789E+01 0.  0.
     999903    2    3    3    0    0  0.81170566863E-01 -0.44289538647E-01 -0.87482106243E-01  0.12893177211E+00  0.20495335760E-01 0.  0.
         14    1    1    2    0    0  0.22945609188E-01 -0.38882687389E-02  0.42451126484E-02  0.23656724122E-01  0.00000000000E+00 0. -1.
     999901    1    3    3    0    0 -0.10411617605E+00  0.48177807385E-01  0.83236993594E-01  0.89134150377E+00  0.88000000000E+00 0. -1.
        -11    1    4    4    0    0  0.15499829606E-01 -0.16038616042E-01 -0.28864537147E-01  0.36481564496E-01  0.51100000000E-03 0. -1.
         11    1    4    4    0    0  0.65670737257E-01 -0.28250922605E-01 -0.58617569096E-01  0.92450207612E-01  0.51100000000E-03 0.  1.
</event>
<event>
 8    1  0.1075206E+005  0.1043930E+01  0.7957747E-01            NaN
         13   -1    0    0    0    0  0.00000000000E+00  0.00000000000E+00  0.74505805969E-08  0.10566000000E+00  0.10566000000E+00 0.  1.
     999900   -1    0    0    0    0 -0.00000000000E+00 -0.00000000000E+00 -0.74505805969E-08  0.93827000000E+00  0.93827000000E+00 0. -1.
     999902    2    1    2    0    0  0.49644761394E-02  0.10153191757E-01 -0.19997136944E-01  0.10209600454E+01  0.10207016193E+01 0.  0.
     999903    2    3    3    0    0  0.82898616851E-01 -0.84384887686E-01 -0.54564384615E-01  0.13179972618E+00  0.20022632355E-01 0.  0.
         14    1    1    2    0    0 -0.49644761394E-02 -0.10153191757E-01  0.19997136944E-01  0.22969954552E-01  0.00000000000E+00 0. -1.
     999901    1    3    3    0    0 -0.77934140712E-01  0.94538079443E-01  0.34567247671E-01  0.88916031927E+00  0.88000000000E+00 0. -1.
        -11    1    4    4    0    0  0.51607761790E-01 -0.64715748594E-01 -0.41500914153E-01  0.92596307646E-01  0.51100000000E-03 0.  1.
         11    1    4    4    0    0  0.31290855061E-01 -0.19669139092E-01 -0.13063470462E-01  0.39203418532E-01  0.51100000000E-03 0. -1.
</event>
<event>
 8    1  0.1075206E+005  0.1043930E+01  0.7957747E-01            NaN
         13   -1    0    0    0    0  0.00000000000E+00  0.00000000000E+00  0.74505805969E-08  0.10566000000E+00  0.10566000000E+00 0. -1.
     999900   -1    0    0    0    0 -0.00000000000E+00 -0.00000000000E+00 -0.74505805969E-08  0.93827000000E+00  0.93827000000E+00 0.  1.
     999902    2    1    2    0    0 -0.35463398167E-02 -0.18272371426E-03  0.23987510433E-01  0.10196810707E+01  0.10193926993E+01 0.  0.
     999903    2    3    3    0    0  0.10885710422E+00 -0.18524133569E-01 -0.62133120446E-01  0.12817240301E+00  0.19355298361E-01 0.  0.
         14    1    1    2    0    0  0.35463398167E-02  0.18272371426E-03 -0.23987510433E-01  0.24248929272E-01  0.00000000000E+00 0.  1.
     999901    1    3    3    0    0 -0.11240344404E+00  0.18341409854E-01  0.86120630879E-01  0.89150866771E+00  0.88000000000E+00 0.  1.
        -11    1    4    4    0    0  0.65033552505E-01 -0.15948949849E-01 -0.46691264803E-01  0.81633738629E-01  0.51100000000E-03 0.  1.
         11    1    4    4    0    0  0.43823551714E-01 -0.25751837195E-02 -0.15441855643E-01  0.46538664384E-01  0.51100000000E-03 0. -1.
</event>
<event>
 8    1  0.1075206E+005  0.1043930E+01  0.7957747E-01            NaN
         13   -1    0    0    0    0  0.00000000000E+00  0.00000000000E+00  0.74505805969E-08  0.10566000000E+00  0.10566000000E+00 0. -1.
     999900   -1    0    0    0    0 -0.00000000000E+00 -0.00000000000E+00 -0.74505805969E-08  0.93827000000E+00  0.93827000000E+00 0. -1.
     999902    2    1    2    0    0 -0.97004460629E-02  0.19239082010E-01 -0.61285174887E-02  0.10215291148E+01  0.10212834733E+01 0.  0.
     999903    2    3    3    0    0  0.11250084245E+00 -0.39045776394E-01  0.46819071941E-01  0.12960214087E+00  0.20583420839E-01 0.  0.
         14    1    1    2    0    0  0.97004460629E-02 -0.19239082010E-01  0.61285174887E-02  0.22400885184E-01  0.00000000000E+00 0. -1.
     999901    1    3    3    0    0 -0.12220128851E+00  0.58284858403E-01 -0.52947589430E-01  0.89192697395E+00  0.88000000000E+00 0.  1.
        -11    1    4    4    0    0  0.80261765503E-01 -0.30008847918E-01  0.23686661255E-01  0.88903323882E-01  0.51100000000E-03 0.  1.
         11    1    4    4    0    0  0.32239076948E-01 -0.90369284757E-02  0.23132410686E-01  0.40698816984E-01  0.51100000000E-03 0. -1.
</event>
<event>
 8    1  0.1075206E+005  0.1043930E+01  0.7957747E-01            NaN
         13   -1    0    0    0    0  0.00000000000E+00  0.00000000000E+00  0.74505805969E-08  0.10566000000E+00  0.10566000000E+00 0. -1.
     999900   -1    0    0    0    0 -0.00000000000E+00 -0.00000000000E+00 -0.74505805969E-08  0.93827000000E+00  0.93827000000E+00 0. -1.
     999902    2    1    2    0    0 -0.19415897936E-01  0.30146183302E-02 -0.10080425523E-01  0.10218465221E+01  0.10216078674E+01 0.  0.
     999903    2    3    3    0    0 -0.13025857333E+00  0.20945745783E-02 -0.27575179504E-01  0.13472025626E+00  0.20432174443E-01 0.  0.
         14    1    1    2    0    0  0.19415897936E-01 -0.30146183302E-02  0.10080425523E-01  0.22083477875E-01  0.00000000000E+00 0. -1.
     999901    1    3    3    0    0  0.11084267540E+00  0.92004375194E-03  0.17494753981E-01  0.88712626586E+00  0.88000000000E+00 0. -1.
        -11    1    4    4    0    0 -0.83062760894E-02  0.48501206355E-02  0.11312306445E-03  0.96328505895E-02  0.51100000000E-03 0.  1.
         11    1    4    4    0    0 -0.12195229724E+00 -0.27555460572E-02 -0.27688302568E-01  0.12508740567E+00  0.51100000000E-03 0. -1.
</event>
<event>
 8    1  0.1075206E+005  0.1043930E+01  0.7957747E-01            NaN
         13   -1    0    0    0    0  0.00000000000E+00  0.00000000000E+00  0.74505805969E-08  0.10566000000E+00  0.10566000000E+00 0.  1.
     999900   -1    0    0    0    0 -0.00000000000E+00 -0.00000000000E+00 -0.74505805969E-08  0.93827000000E+00  0.93827000000E+00 0.  1.
     999902    2    1    2    0    0 -0.18571918717E-01 -0.24215750543E-02  0.14533070800E-01  0.10202236646E+01  0.10199482024E+01 0.  0.
     999903    2    3    3    0    0 -0.84154149301E-01  0.31670761038E-01  0.96238130279E-01  0.13335330594E+00  0.20889435997E-01 0.  0.
         14    1    1    2    0    0  0.18571918717E-01  0.24215750543E-02 -0.14533070800E-01  0.23706335387E-01  0.00000000000E+00 0.  1.
     999901    1    3    3    0    0  0.65582230584E-01 -0.34092336092E-01 -0.81705059479E-01  0.88687035867E+00  0.88000000000E+00 0.  1.
        -11    1    4    4    0    0 -0.62708741397E-01  0.25259361363E-01  0.58161767502E-01  0.89182251059E-01  0.51100000000E-03 0.  1.
         11    1    4    4    0    0 -0.21445407904E-01  0.64113996747E-02  0.38076362777E-01  0.44171054881E-01  0.51100000000E-03 0. -1.
</event>
<event>
 8    1  0.1075206E+005  0.1043930E+01  0.7957747E-01            NaN
         13   -1    0    0    0    0  0.00000000000E+00  0.00000000000E+00  0.74505805969E-08  0.10566000000E+00  0.10566000000E+00 0.  1.
     999900   -1    0    0    0    0 -0.00000000000E+00 -0.00000000000E+00 -0.74505805969E-08  0.93827000000E+00  0.93827000000E+00 0. -1.
     999902    2    1    2    0    0  0.96760987666E-02 -0.21255244932E-01  0.51832174184E-02  0.10200076659E+01  0.10197271010E+01 0.  0.
     999903    2    3    3    0    0  0.11387723568E+00 -0.55766947267E-01 -0.32368341789E-01  0.13239341744E+00  0.20058170811E-01 0.  0.
         14    1    1    2    0    0 -0.96760987666E-02  0.21255244932E-01 -0.51832174184E-02  0.23922334068E-01  0.00000000000E+00 0. -1.
     999901    1    3    3    0    0 -0.10420113692E+00  0.34511702335E-01  0.37551559208E-01  0.88761424850E+00  0.88000000000E+00 0. -1.
        -11    1    4    4    0    0  0.76739699079E-01 -0.39466460260E-01 -0.31371481933E-01  0.91820552709E-01  0.51100000000E-03 0.  1.
         11    1    4    4    0    0  0.37137536603E-01 -0.16300487008E-01 -0.99685985664E-03  0.40572864728E-01  0.51100000000E-03 0. -1.
</event>
<event>
 8    1  0.1075206E+005  0.1043930E+01  0.7957747E-01            NaN
         13   -1    0    0    0    0  0.00000000000E+00  0.00000000000E+00  0.74505805969E-08  0.10566000000E+00  0.10566000000E+00 0.  1.
     999900   -1    0    0    0    0 -0.00000000000E+00 -0.00000000000E+00 -0.74505805969E-08  0.93827000000E+00  0.93827000000E+00 0. -1.
     999902    2    1    2    0    0  0.18336550581E-01  0.14644074804E-01 -0.18550968945E-02  0.10203902592E+01  0.10201186998E+01 0.  0.
     999903    2    3    3    0    0 -0.15334716847E-01 -0.12519583961E+00  0.15001761001E-01  0.12855332924E+00  0.19792772144E-01 0.  0.
         14    1    1    2    0    0 -0.18336550581E-01 -0.14644074804E-01  0.18550968945E-02  0.23539740835E-01  0.00000000000E+00 0.  1.
     999901    1    3    3    0    0  0.33671267428E-01  0.13983991442E+00 -0.16856857896E-01  0.89183692992E+00  0.88000000000E+00 0. -1.
        -11    1    4    4    0    0 -0.12609115803E-01 -0.51310766667E-01 -0.12357035891E-02  0.52854258690E-01  0.51100000000E-03 0.  1.
         11    1    4    4    0    0 -0.27256010440E-02 -0.73885072947E-01  0.16237464591E-01  0.75699070554E-01  0.51100000000E-03 0. -1.
</event>
<event>
 8    1  0.1075206E+005  0.1043930E+01  0.7957747E-01            NaN
         13   -1    0    0    0    0  0.00000000000E+00  0.00000000000E+00  0.74505805969E-08  0.10566000000E+00  0.10566000000E+00 0.  1.
     999900   -1    0    0    0    0 -0.00000000000E+00 -0.00000000000E+00 -0.74505805969E-08  0.93827000000E+00  0.93827000000E+00 0.  1.
     999902    2    1    2    0    0 -0.32153044911E-02  0.18492520422E-01  0.14761176049E-01  0.10200510592E+01  0.10197715232E+01 0.  0.
     999903    2    3    3    0    0  0.51494825609E-01  0.42302187018E-01 -0.10908938513E+00  0.12937768471E+00  0.19922330698E-01 0.  0.
         14    1    1    2    0    0  0.32153044911E-02 -0.18492520422E-01 -0.14761176049E-01  0.23878940782E-01  0.00000000000E+00 0. -1.
     999901    1    3    3    0    0 -0.54710130100E-01 -0.23809666596E-01  0.12385056118E+00  0.89067337451E+00  0.88000000000E+00 0. -1.
        -11    1    4    4    0    0  0.17107097671E-01  0.82370522866E-02 -0.46676282828E-01  0.50392839975E-01  0.51100000000E-03 0.  1.
         11    1    4    4    0    0  0.34387727938E-01  0.34065134732E-01 -0.62413102304E-01  0.78984844731E-01  0.51100000000E-03 0. -1.
</event>
<event>
 8    1  0.1075206E+005  0.1043930E+01  0.7957747E-01            NaN
         13   -1    0    0    0    0  0.00000000000E+00  0.00000000000E+00  0.74505805969E-08  0.10566000000E+00  0.10566000000E+00 0.  1.
     999900   -1    0    0    0    0 -0.00000000000E+00 -0.00000000000E+00 -0.74505805969E-08  0.93827000000E+00  0.93827000000E+00 0. -1.
     999902    2    1    2    0    0 -0.22279669585E-01 -0.10789643869E-01 -0.21315079306E-02  0.10190836035E+01  0.10187806671E+01 0.  0.
     999903    2    3    3    0    0  0.36243005062E-01 -0.40435002306E-01 -0.11556427688E+00  0.12938098816E+00  0.20875659976E-01 0.  0.
         14    1    1    2    0    0  0.22279669585E-01  0.10789643869E-01  0.21315079306E-02  0.24846396473E-01  0.00000000000E+00 0. -1.
     999901    1    3    3    0    0 -0.58522674648E-01  0.29645358436E-01  0.11343276894E+00  0.88970261537E+00  0.88000000000E+00 0.  1.
        -11    1    4    4    0    0  0.19586559052E-01 -0.12405374007E-01 -0.66865183834E-01  0.70772456011E-01  0.51100000000E-03 0.  1.
         11    1    4    4    0    0  0.16656446011E-01 -0.28029628298E-01 -0.48699093042E-01  0.58608532146E-01  0.51100000000E-03 0. -1.
</event>
<event>
 8    1  0.1075206E+005  0.1043930E+01  0.7957747E-01            NaN
         13   -1    0    0    0    0  0.00000000000E+00  0.00000000000E+00  0.74505805969E-08  0.10566000000E+00  0.10566000000E+00 0. -1.
     999900   -1    0    0    0    0 -0.00000000000E+00 -0.00000000000E+00 -0.74505805969E-08  0.93827000000E+00  0.93827000000E+00 0. -1.
     999902    2    1    2    0    0  0.25231519235E-01 -0.25328805848E-02  0.21326667894E-02  0.10184821452E+01  0.10181641748E+01 0.  0.
     999903    2    3    3    0    0 -0.11419105477E-01 -0.84130752915E-01 -0.94581691616E-01  0.12867590325E+00  0.20085122189E-01 0.  0.
         14    1    1    2    0    0 -0.25231519235E-01  0.25328805848E-02 -0.21326667894E-02  0.25447854814E-01  0.00000000000E+00 0.  1.
     999901    1    3    3    0    0  0.36650624712E-01  0.81597872330E-01  0.96714358405E-01  0.88980624193E+00  0.88000000000E+00 0.  1.
        -11    1    4    4    0    0 -0.99663736615E-03 -0.14436834843E-01 -0.28981425755E-01  0.32397525309E-01  0.51100000000E-03 0. -1.
         11    1    4    4    0    0 -0.10422468111E-01 -0.69693918072E-01 -0.65600265861E-01  0.96278377945E-01  0.51100000000E-03 0.  1.
</event>
<event>
 8    1  0.1075206E+005  0.1043930E+01  0.7957747E-01            NaN
         13   -1    0    0    0    0  0.00000000000E+00  0.00000000000E+00  0.74505805969E-08  0.10566000000E+00  0.10566000000E+00 0. -1.
     999900   -1    0    0    0    0 -0.00000000000E+00 -0.00000000000E+00 -0.74505805969E-08  0.93827000000E+00  0.93827000000E+00 0.  1.
     999902    2    1    2    0    0  0.16896334490E-01  0.11832549403E-01 -0.12425802512E-01  0.10198489719E+01  0.10195646275E+01 0.  0.
     999903    2    3    3    0    0  0.78276546695E-01  0.60571310791E-01  0.83662900107E-01  0.13115552868E+00  0.20154165721E-01 0.  0.
         14    1    1    2    0    0 -0.16896334490E-01 -0.11832549403E-01  0.12425802512E-01  0.24081028064E-01  0.00000000000E+00 0.  1.
     999901    1    3    3    0    0 -0.61380212205E-01 -0.48738761388E-01 -0.96088702619E-01  0.88869344325E+00  0.88000000000E+00 0.  1.
        -11    1    4    4    0    0  0.28281409110E-01  0.22791887616E-01  0.43720358882E-01  0.56842230288E-01  0.51100000000E-03 0. -1.
         11    1    4    4    0    0  0.49995137584E-01  0.37779423175E-01  0.39942541225E-01  0.74313298393E-01  0.51100000000E-03 0.  1.
</event>
<event>
 8    1  0.1075206E+005  0.1043930E+01  0.7957747E-01            NaN
         13   -1    0    0    0    0  0.00000000000E+00  0.00000000000E+00  0.74505805969E-08  0.10566000000E+00  0.10566000000E+00 0. -1.
     999900   -1    0    0    0    0 -0.00000000000E+00 -0.00000000000E+00 -0.74505805969E-08  0.93827000000E+00  0.93827000000E+00 0. -1.
     999902    2    1    2    0    0 -0.10516813871E-01  0.70901793899E-02 -0.20004277072E-01  0.10202436090E+01  0.10199686155E+01 0.  0.
     999903    2    3    3    0    0  0.37109680256E-01 -0.75825267231E-01  0.94101389788E-01  0.12773962724E+00  0.18323244484E-01 0.  0.
         14    1    1    2    0    0  0.10516813871E-01 -0.70901793899E-02  0.20004277072E-01  0.23686391007E-01  0.00000000000E+00 0. -1.
     999901    1    3    3    0    0 -0.47626494128E-01  0.82915446621E-01 -0.11410566686E+00  0.89250398175E+00  0.88000000000E+00 0. -1.
        -11    1    4    4    0    0  0.83147868769E-02 -0.35195933771E-01  0.45838643686E-01  0.58389483734E-01  0.51100000000E-03 0. -1.
         11    1    4    4    0    0  0.28794893380E-01 -0.40629333460E-01  0.48262746102E-01  0.69350143508E-01  0.51100000000E-03 0.  1.
</event>
<event>
 8    1  0.1075206E+005  0.1043930E+01  0.7957747E-01            NaN
         13   -1    0    0    0    0  0.00000000000E+00  0.00000000000E+00  0.74505805969E-08  0.10566000000E+00  0.10566000000E+00 0. -1.
     999900   -1    0    0    0    0 -0.00000000000E+00 -0.00000000000E+00 -0.74505805969E-08  0.93827000000E+00  0.93827000000E+00 0.  1.
     999902    2    1    2    0    0 -0.12109864795E-02 -0.13256845078E-01 -0.18994252237E-01  0.10207353444E+01  0.10204717788E+01 0.  0.
     999903    2    3    3    0    0  0.28530574782E-01 -0.33796529391E-01 -0.12465230299E+00  0.13367837737E+00  0.19378153658E-01 0.  0.
         14    1    1    2    0    0  0.12109864795E-02  0.13256845078E-01  0.18994252237E-01  0.23194655585E-01  0.00000000000E+00 0. -1.
     999901    1    3    3    0    0 -0.29741561262E-01  0.20539684313E-01  0.10565805075E+00  0.88705696705E+00  0.88000000000E+00 0. -1.
        -11    1    4    4    0    0  0.13071840429E-01 -0.25231875782E-01 -0.94948154131E-01  0.99110714162E-01  0.51100000000E-03 0. -1.
         11    1    4    4    0    0  0.15458734353E-01 -0.85646536088E-02 -0.29704148856E-01  0.34567663206E-01  0.51100000000E-03 0.  1.
</event>
<event>
 8    1  0.1075206E+005  0.1043930E+01  0.7957747E-01            NaN
         13   -1    0    0    0    0  0.00000000000E+00  0.00000000000E+00  0.74505805969E-08  0.10566000000E+00  0.10566000000E+00 0.  1.
     999900   -1    0    0    0    0 -0.00000000000E+00 -0.00000000000E+00 -0.74505805969E-08  0.93827000000E+00  0.93827000000E+00 0. -1.
     999902    2    1    2    0    0  0.62239088877E-02  0.61642759560E-02 -0.24245154925E-01  0.10181508829E+01  0.10178244728E+01 0.  0.
     999903    2    3    3    0    0  0.73169440658E-01  0.10195684869E+00  0.23753754853E-01  0.12912792678E+00  0.18995119442E-01 0.  0.
         14    1    1    2    0    0 -0.62239088877E-02 -0.61642759560E-02  0.24245154925E-01  0.25779117077E-01  0.00000000000E+00 0.  1.
     999901    1    3    3    0    0 -0.66945531770E-01 -0.95792572736E-01 -0.47998909779E-01  0.88902295615E+00  0.88000000000E+00 0.  1.
        -11    1    4    4    0    0  0.10364406858E-01  0.25332286485E-01  0.97875971323E-02  0.29072389765E-01  0.51100000000E-03 0.  1.
         11    1    4    4    0    0  0.62805033800E-01  0.76624562207E-01  0.13966157721E-01  0.10005553701E+00  0.51100000000E-03 0. -1.
</event>
<event>
 8    1  0.1075206E+005  0.1043930E+01  0.7957747E-01            NaN
         13   -1    0    0    0    0  0.00000000000E+00  0.00000000000E+00  0.74505805969E-08  0.10566000000E+00  0.10566000000E+00 0. -1.
     999900   -1    0    0    0    0 -0.00000000000E+00 -0.00000000000E+00 -0.74505805969E-08  0.93827000000E+00  0.93827000000E+00 0. -1.
     999902    2    1    2    0    0 -0.12353529889E-02  0.28105239991E-01  0.45089620883E-02  0.10154385741E+01  0.10150387857E+01 0.  0.
     999903    2    3    3    0    0  0.21518432669E-01 -0.11908167750E+00  0.75643880084E-02  0.12291907341E+00  0.20208656079E-01 0.  0.
         14    1    1    2    0    0  0.12353529889E-02 -0.28105239991E-01 -0.45089620883E-02  0.28491425922E-01  0.00000000000E+00 0. -1.
     999901    1    3    3    0    0 -0.22753785658E-01  0.14718691750E+00 -0.30554259201E-02  0.89251950067E+00  0.88000000000E+00 0.  1.
        -11    1    4    4    0    0  0.92637256791E-02 -0.92015978911E-01  0.10022462795E-02  0.92487959254E-01  0.51100000000E-03 0. -1.
         11    1    4    4    0    0  0.12254706990E-01 -0.27065698593E-01  0.65621417290E-02  0.30431114157E-01  0.51100000000E-03 0.  1.
</event>
<event>
 8    1  0.1075206E+005  0.1043930E+01  0.7957747E-01            NaN
         13   -1    0    0    0    0  0.00000000000E+00  0.00000000000E+00  0.74505805969E-08  0.10566000000E+00  0.10566000000E+00 0.  1.
     999900   -1    0    0    0    0 -0.00000000000E+00 -0.00000000000E+00 -0.74505805969E-08  0.93827000000E+00  0.93827000000E+00 0.  1.
     999902    2    1    2    0    0 -0.27771909144E-02 -0.19652617878E-01  0.15201627306E-01  0.10189294470E+01  0.10186226928E+01 0.  0.
     999903    2    3    3    0    0  0.12303524733E+00 -0.29471410837E-01 -0.17853805780E-01  0.12931276549E+00  0.19919758921E-01 0.  0.
         14    1    1    2    0    0  0.27771909144E-02  0.19652617878E-01 -0.15201627306E-01  0.25000553025E-01  0.00000000000E+00 0. -1.
     999901    1    3    3    0    0 -0.12581243825E+00  0.98187929596E-02  0.33055433086E-01  0.88961668148E+00  0.88000000000E+00 0. -1.
        -11    1    4    4    0    0  0.70905902301E-01 -0.21059443229E-01 -0.13272454148E-02  0.73980874770E-01  0.51100000000E-03 0.  1.
         11    1    4    4    0    0  0.52129345032E-01 -0.84119676084E-02 -0.16526560366E-01  0.55331890724E-01  0.51100000000E-03 0. -1.
</event>
<event>
 8    1  0.1075206E+005  0.1043930E+01  0.7957747E-01            NaN
         13   -1    0    0    0    0  0.00000000000E+00  0.00000000000E+00  0.74505805969E-08  0.10566000000E+00  0.10566000000E+00 0.  1.
     999900   -1    0    0    0    0 -0.00000000000E+00 -0.00000000000E+00 -0.74505805969E-08  0.93827000000E+00  0.93827000000E+00 0.  1.
     999902    2    1    2    0    0 -0.14845653612E-01 -0.53293359351E-02 -0.17398589828E-01  0.10204458313E+01  0.10201755674E+01 0.  0.
     999903    2    3    3    0    0  0.78979592762E-01 -0.31125037141E-02  0.98214851604E-01  0.12793557417E+00  0.21769021794E-01 0.  0.
         14    1    1    2    0    0  0.14845653612E-01  0.53293359351E-02  0.17398589828E-01  0.23484168725E-01  0.00000000000E+00 0.  1.
     999901    1    3    3    0    0 -0.93825246374E-01 -0.22168322210E-02 -0.11561344143E+00  0.89251025711E+00  0.88000000000E+00 0.  1.
        -11    1    4    4    0    0  0.33019534351E-01  0.57838441246E-02  0.53875335111E-01  0.63455144441E-01  0.51100000000E-03 0.  1.
         11    1    4    4    0    0  0.45960058411E-01 -0.88963478388E-02  0.44339516492E-01  0.64480429727E-01  0.51100000000E-03 0. -1.
</event>
<event>
 8    1  0.1075206E+005  0.1043930E+01  0.7957747E-01            NaN
         13   -1    0    0    0    0  0.00000000000E+00  0.00000000000E+00  0.74505805969E-08  0.10566000000E+00  0.10566000000E+00 0. -1.
     999900   -1    0    0    0    0 -0.00000000000E+00 -0.00000000000E+00 -0.74505805969E-08  0.93827000000E+00  0.93827000000E+00 0.  1.
     999902    2    1    2    0    0 -0.12186533325E-01 -0.13272705209E-01  0.14887240740E-01  0.10205568052E+01  0.10202891190E+01 0.  0.
     999903    2    3    3    0    0  0.12224100856E+00  0.14498443465E-01 -0.32187871601E-01  0.12867224602E+00  0.19168171033E-01 0.  0.
         14    1    1    2    0    0  0.12186533325E-01  0.13272705209E-01 -0.14887240740E-01  0.23373194794E-01  0.00000000000E+00 0.  1.
     999901    1    3    3    0    0 -0.13442754188E+00 -0.27771148674E-01  0.47075112340E-01  0.89188455919E+00  0.88000000000E+00 0. -1.
        -11    1    4    4    0    0  0.10753368471E+00  0.18923272033E-01 -0.29092926689E-01  0.11299665073E+00  0.51100000000E-03 0.  1.
         11    1    4    4    0    0  0.14707323852E-01 -0.44248285675E-02 -0.30949449115E-02  0.15675595291E-01  0.51100000000E-03 0. -1.
</event>
<event>
 8    1  0.1075206E+005  0.1043930E+01  0.7957747E-01            NaN
         13   -1    0    0    0    0  0.00000000000E+00  0.00000000000E+00  0.74505805969E-08  0.10566000000E+00  0.10566000000E+00 0.  1.
     999900   -1    0    0    0    0 -0.00000000000E+00 -0.00000000000E+00 -0.74505805969E-08  0.93827000000E+00  0.93827000000E+00 0.  1.
     999902    2    1    2    0    0 -0.89593618060E-03 -0.19341411298E-01  0.13103481739E-01  0.10205506474E+01  0.10202828186E+01 0.  0.
     999903    2    3    3    0    0  0.45273099415E-01  0.91243964539E-02  0.12203453096E+00  0.13217693354E+00  0.21104664711E-01 0.  0.
         14    1    1    2    0    0  0.89593618060E-03  0.19341411298E-01 -0.13103481739E-01  0.23379352565E-01  0.00000000000E+00 0. -1.
     999901    1    3    3    0    0 -0.46169035596E-01 -0.28465807752E-01 -0.10893104922E+00  0.88837371390E+00  0.88000000000E+00 0.  1.
        -11    1    4    4    0    0  0.10610073797E-02  0.11143394120E-02  0.27063907115E-01  0.27112426640E-01  0.51100000000E-03 0. -1.
         11    1    4    4    0    0  0.44212092035E-01  0.80100570419E-02  0.94970623842E-01  0.10506450690E+00  0.51100000000E-03 0.  1.
</event>
<event>
 8    1  0.1075206E+005  0.1043930E+01  0.7957747E-01            NaN
         13   -1    0    0    0    0  0.00000000000E+00  0.00000000000E+00  0.74505805969E-08  0.10566000000E+00  0.10566000000E+00 0. -1.
     999900   -1    0    0    0    0 -0.00000000000E+00 -0.00000000000E+00 -0.74505805969E-08  0.93827000000E+00  0.93827000000E+00 0.  1.
     999902    2    1    2    0    0 -0.42524073725E-02  0.20228576825E-01 -0.11942247927E-01  0.10200575143E+01  0.10197781312E+01 0.  0.
     999903    2    3    3    0    0 -0.64809449124E-01 -0.83311309218E-01 -0.72885378503E-01  0.12983185274E+00  0.20074676740E-01 0.  0.
         14    1    1    2    0    0  0.42524073725E-02 -0.20228576825E-01  0.11942247927E-01  0.23872485718E-01  0.00000000000E+00 0. -1.
     999901    1    3    3    0    0  0.60557041751E-01  0.10353988604E+00  0.60943130577E-01  0.89022566154E+00  0.88000000000E+00 0. -1.
        -11    1    4    4    0    0 -0.26771488864E-01 -0.44174967352E-01 -0.45167007881E-01  0.68618219727E-01  0.51100000000E-03 0. -1.
         11    1    4    4    0    0 -0.38037960259E-01 -0.39136341867E-01 -0.27718370623E-01  0.61213633011E-01  0.51100000000E-03 0.  1.
</event>
<event>
 8    1  0.1075206E+005  0.1043930E+01  0.7957747E-01            NaN
         13   -1    0    0    0    0  0.00000000000E+00  0.00000000000E+00  0.74505805969E-08  0.10566000000E+00  0.10566000000E+00 0.  1.
     999900   -1    0    0    0    0 -0.00000000000E+00 -0.00000000000E+00 -0.74505805969E-08  0.93827000000E+00  0.93827000000E+00 0.  1.
     999902    2    1    2    0    0 -0.10813686941E-01 -0.20810272124E-01 -0.33633877766E-02  0.10202378994E+01  0.10199627718E+01 0.  0.
     999903    2    3    3    0    0 -0.77894994797E-01  0.67649583256E-01 -0.77057798586E-01  0.13020648761E+00  0.19280268759E-01 0.  0.
         14    1    1    2    0    0  0.10813686941E-01  0.20810272124E-01  0.33633877766E-02  0.23692100550E-01  0.00000000000E+00 0.  1.
     999901    1    3    3    0    0  0.67081307856E-01 -0.88459855381E-01  0.73694410810E-01  0.89003141184E+00  0.88000000000E+00 0. -1.
        -11    1    4    4    0    0 -0.50066538424E-01  0.45710264532E-01 -0.39047116667E-01  0.78236979712E-01  0.51100000000E-03 0.  1.
         11    1    4    4    0    0 -0.27828456373E-01  0.21939318724E-01 -0.38010681919E-01  0.51969507898E-01  0.51100000000E-03 0. -1.
</event>
<event>
 8    1  0.1075206E+005  0.1043930E+01  0.7957747E-01            NaN
         13   -1    0    0    0    0  0.00000000000E+00  0.00000000000E+00  0.74505805969E-08  0.10566000000E+00  0.10566000000E+00 0. -1.
     999900   -1    0    0    0    0 -0.00000000000E+00 -0.00000000000E+00 -0.74505805969E-08  0.93827000000E+00  0.93827000000E+00 0. -1.
     999902    2    1    2    0    0 -0.41203614365E-02  0.23396870414E-01 -0.14653803641E-02  0.10201279357E+01  0.10198502179E+01 0.  0.
     999903    2    3    3    0    0 -0.89004649920E-01  0.95669902013E-01  0.14346106839E-01  0.13295335503E+00  0.19905425731E-01 0.  0.
         14    1    1    2    0    0  0.41203614365E-02 -0.23396870414E-01  0.14653803641E-02  0.23802064262E-01  0.00000000000E+00 0. -1.
     999901    1    3    3    0    0  0.84884288483E-01 -0.72273031599E-01 -0.15811487203E-01  0.88717458071E+00  0.88000000000E+00 0. -1.
        -11    1    4    4    0    0 -0.48282134843E-01  0.39962089621E-01  0.10992085582E-02  0.62686541875E-01  0.51100000000E-03 0.  1.
         11    1    4    4    0    0 -0.40722515077E-01  0.55707812392E-01  0.13246898281E-01  0.70266813154E-01  0.51100000000E-03 0. -1.
</event>
<event>
 8    1  0.1075206E+005  0.1043930E+01  0.7957747E-01            NaN
         13   -1    0    0    0    0  0.00000000000E+00  0.00000000000E+00  0.74505805969E-08  0.10566000000E+00  0.10566000000E+00 0. -1.
     999900   -1    0    0    0    0 -0.00000000000E+00 -0.00000000000E+00 -0.74505805969E-08  0.93827000000E+00  0.93827000000E+00 0. -1.
     999902    2    1    2    0    0 -0.11849287891E-01 -0.20672190353E-01  0.31689398739E-02  0.10198927943E+01  0.10196094961E+01 0.  0.
     999903    2    3    3    0    0  0.12564482888E-02 -0.51473933341E-01 -0.11865391571E+00  0.13087011978E+00  0.19927168901E-01 0.  0.
         14    1    1    2    0    0  0.11849287891E-01  0.20672190353E-01 -0.31689398739E-02  0.24037205691E-01  0.00000000000E+00 0.  1.
     999901    1    3    3    0    0 -0.13105736180E-01  0.30801742988E-01  0.12182285559E+00  0.88902267453E+00  0.88000000000E+00 0.  1.
        -11    1    4    4    0    0  0.77306760195E-02 -0.16580059708E-01 -0.55323774450E-01  0.58272144907E-01  0.51100000000E-03 0. -1.
         11    1    4    4    0    0 -0.64742277306E-02 -0.34893873632E-01 -0.63330141262E-01  0.72597974869E-01  0.51100000000E-03 0.  1.
</event>
<event>
 8    1  0.1075206E+005  0.1043930E+01  0.7957747E-01            NaN
         13   -1    0    0    0    0  0.00000000000E+00  0.00000000000E+00  0.74505805969E-08  0.10566000000E+00  0.10566000000E+00 0.  1.
     999900   -1    0    0    0    0 -0.00000000000E+00 -0.00000000000E+00 -0.74505805969E-08  0.93827000000E+00  0.93827000000E+00 0. -1.
     999902    2    1    2    0    0 -0.78137636973E-02  0.19944682824E-01 -0.77252144795E-02  0.10211588732E+01  0.10209049516E+01 0.  0.
     999903    2    3    3    0    0 -0.40427251111E-01 -0.86580250745E-01  0.84650326561E-01  0.12933801586E+00  0.20788028029E-01 0.  0.
         14    1    1    2    0    0  0.78137636973E-02 -0.19944682824E-01  0.77252144795E-02  0.22771126780E-01  0.00000000000E+00 0.  1.
     999901    1    3    3    0    0  0.32613487414E-01  0.10652493357E+00 -0.92375541041E-01  0.89182085736E+00  0.88000000000E+00 0. -1.
        -11    1    4    4    0    0 -0.13502464724E-01 -0.43560835520E-01  0.29137462353E-01  0.54121306140E-01  0.51100000000E-03 0. -1.
         11    1    4    4    0    0 -0.26924786387E-01 -0.43019415224E-01  0.55512864208E-01  0.75216709725E-01  0.51100000000E-03 0.  1.
</event>
<event>
 8    1  0.1075206E+005  0.1043930E+01  0.7957747E-01            NaN
         13   -1    0    0    0    0  0.00000000000E+00  0.00000000000E+00  0.74505805969E-08  0.10566000000E+00  0.10566000000E+00 0.  1.
     999900   -1    0    0    0    0 -0.00000000000E+00 -0.00000000000E+00 -0.74505805969E-08  0.93827000000E+00  0.93827000000E+00 0.  1.
     999902    2    1    2    0    0 -0.96233009938E-02  0.15483355248E-02 -0.21901356528E-01  0.10199576267E+01  0.10196758728E+01 0.  0.
     999903    2    3    3    0    0  0.34753191900E-01 -0.10380143951E+00  0.64066627109E-01  0.12840934283E+00  0.20047529154E-01 0.  0.
         14    1    1    2    0    0  0.96233009938E-02 -0.15483355248E-02  0.21901356528E-01  0.23972373322E-01  0.00000000000E+00 0.  1.
     999901    1    3    3    0    0 -0.44376492894E-01  0.10534977504E+00 -0.85967983636E-01  0.89154828385E+00  0.88000000000E+00 0.  1.
        -11    1    4    4    0    0  0.36810393428E-01 -0.89898558923E-01  0.57525096338E-01  0.11289886532E+00  0.51100000000E-03 0. -1.
         11    1    4    4    0    0 -0.20572015284E-02 -0.13902880588E-01  0.65415307702E-02  0.15510477510E-01  0.51100000000E-03 0.  1.
</event>
<event>
 8    1  0.1075206E+005  0.1043930E+01  0.7957747E-01            NaN
         13   -1    0    0    0    0  0.00000000000E+00  0.00000000000E+00  0.74505805969E-08  0.10566000000E+00  0.10566000000E+00 0. -1.
     999900   -1    0    0    0    0 -0.00000000000E+00 -0.00000000000E+00 -0.74505805969E-08  0.93827000000E+00  0.93827000000E+00 0. -1.
     999902    2    1    2    0    0 -0.28573990942E-02 -0.97042431185E-02 -0.23020160450E-01  0.10187851228E+01  0.10184747722E+01 0.  0.
     999903    2    3    3    0    0 -0.38464717280E-01 -0.12201401931E+00 -0.19730682496E-01  0.13092692035E+00  0.19636783235E-01 0.  0.
         14    1    1    2    0    0  0.28573990942E-02  0.97042431185E-02  0.23020160450E-01  0.25144877236E-01  0.00000000000E+00 0. -1.
     999901    1    3    3    0    0  0.35607318186E-01  0.11230977619E+00 -0.32894779546E-02  0.88785820242E+00  0.88000000000E+00 0.  1.
        -11    1    4    4    0    0 -0.31377047804E-01 -0.10767954060E+00 -0.23254058195E-01  0.11454437977E+00  0.51100000000E-03 0. -1.
         11    1    4    4    0    0 -0.70876694758E-02 -0.14334478711E-01  0.35233756993E-02  0.16382540580E-01  0.51100000000E-03 0.  1.
</event>
<event>
 8    1  0.1075206E+005  0.1043930E+01  0.7957747E-01            NaN
         13   -1    0    0    0    0  0.00000000000E+00  0.00000000000E+00  0.74505805969E-08  0.10566000000E+00  0.10566000000E+00 0. -1.
     999900   -1    0    0    0    0 -0.00000000000E+00 -0.00000000000E+00 -0.74505805969E-08  0.93827000000E+00  0.93827000000E+00 0.  1.
     999902    2    1    2    0    0  0.48453025084E-02  0.10531125557E-01  0.21783039523E-01  0.10192544580E+01  0.10189557242E+01 0.  0.
     999903    2    3    3    0    0 -0.53243331287E-02 -0.65860778808E-01 -0.10631356080E+00  0.12664710673E+00  0.19259432047E-01 0.  0.
         14    1    1    2    0    0 -0.48453025084E-02 -0.10531125557E-01 -0.21783039523E-01  0.24675541996E-01  0.00000000000E+00 0.  1.
     999901    1    3    3    0    0  0.10169635637E-01  0.76391904365E-01  0.12809660033E+00  0.89260735128E+00  0.88000000000E+00 0. -1.
        -11    1    4    4    0    0  0.31590717368E-02 -0.41341633693E-01 -0.77316616618E-01  0.87733863114E-01  0.51100000000E-03 0. -1.
         11    1    4    4    0    0 -0.84834048656E-02 -0.24519145115E-01 -0.28996944186E-01  0.38913243612E-01  0.51100000000E-03 0.  1.
</event>
<event>
 8    1  0.1075206E+005  0.1043930E+01  0.7957747E-01            NaN
         13   -1    0    0    0    0  0.00000000000E+00  0.00000000000E+00  0.74505805969E-08  0.10566000000E+00  0.10566000000E+00 0. -1.
     999900   -1    0    0    0    0 -0.00000000000E+00 -0.00000000000E+00 -0.74505805969E-08  0.93827000000E+00  0.93827000000E+00 0. -1.
     999902    2    1    2    0    0  0.14318527184E-01  0.18871118479E-01  0.20017944520E-02  0.10201571896E+01  0.10198801621E+01 0.  0.
     999903    2    3    3    0    0 -0.92294079229E-01  0.80084803978E-01 -0.42037840450E-01  0.13052082985E+00  0.18350316262E-01 0.  0.
         14    1    1    2    0    0 -0.14318527184E-01 -0.18871118479E-01 -0.20017944520E-02  0.23772810402E-01  0.00000000000E+00 0. -1.
     999901    1    3    3    0    0  0.10661260641E+00 -0.61213685499E-01  0.44039634902E-01  0.88963635975E+00  0.88000000000E+00 0.  1.
        -11    1    4    4    0    0 -0.30390905974E-01  0.36882054319E-01 -0.12016642346E-01  0.49280360296E-01  0.51100000000E-03 0. -1.
         11    1    4    4    0    0 -0.61903173255E-01  0.43202749660E-01 -0.30021198104E-01  0.81240469557E-01  0.51100000000E-03 0.  1.
</event>
<event>
 8    1  0.1075206E+005  0.1043930E+01  0.7957747E-01            NaN
         13   -1    0    0    0    0  0.00000000000E+00  0.00000000000E+00  0.74505805969E-08  0.10566000000E+00  0.10566000000E+00 0.  1.
     999900   -1    0    0    0    0 -0.00000000000E+00 -0.00000000000E+00 -0.74505805969E-08  0.93827000000E+00  0.93827000000E+00 0. -1.
     999902    2    1    2    0    0  0.13146387500E-01  0.18189870892E-01 -0.80934126621E-02  0.10200720404E+01  0.10197930012E+01 0.  0.
     999903    2    3    3    0    0  0.66092573345E-01 -0.83065754502E-01 -0.72845008706E-01  0.13032557682E+00  0.20253712218E-01 0.  0.
         14    1    1    2    0    0 -0.13146387500E-01 -0.18189870892E-01  0.80934126621E-02  0.23857959592E-01  0.00000000000E+00 0.  1.
     999901    1    3    3    0    0 -0.52946185845E-01  0.10125562539E+00  0.64751596044E-01  0.88974646358E+00  0.88000000000E+00 0.  1.
        -11    1    4    4    0    0  0.39685397416E-01 -0.58879038291E-01 -0.38816328518E-01  0.80923670201E-01  0.51100000000E-03 0. -1.
         11    1    4    4    0    0  0.26407175929E-01 -0.24186716211E-01 -0.34028680188E-01  0.49401906623E-01  0.51100000000E-03 0.  1.
</event>
<event>
 8    1  0.1075206E+005  0.1043930E+01  0.7957747E-01            NaN
         13   -1    0    0    0    0  0.00000000000E+00  0.00000000000E+00  0.74505805969E-08  0.10566000000E+00  0.10566000000E+00 0.  1.
     999900   -1    0    0    0    0 -0.00000000000E+00 -0.00000000000E+00 -0.74505805969E-08  0.93827000000E+00  0.93827000000E+00 0. -1.
     999902    2    1    2    0    0 -0.78716799273E-02  0.23696655270E-01 -0.16579473253E-02  0.10189051403E+01  0.10185977819E+01 0.  0.
     999903    2    3    3    0    0  0.10655764355E+00  0.71327829686E-01 -0.89194237592E-02  0.13018947825E+00  0.20677365425E-01 0.  0.
         14    1    1    2    0    0  0.78716799273E-02 -0.23696655270E-01  0.16579473253E-02  0.25024859744E-01  0.00000000000E+00 0.  1.
     999901    1    3    3    0    0 -0.11442932348E+00 -0.47631174416E-01  0.72614764338E-02  0.88871566200E+00  0.88000000000E+00 0.  1.
        -11    1    4    4    0    0  0.86571312061E-01  0.63318560812E-01 -0.13697867082E-01  0.10812827983E+00  0.51100000000E-03 0.  1.
         11    1    4    4    0    0  0.19986331490E-01  0.80092688738E-02  0.47784433227E-02  0.22061198424E-01  0.51100000000E-03 0. -1.
</event>
<event>
 8    1  0.1075206E+005  0.1043930E+01  0.7957747E-01            NaN
         13   -1    0    0    0    0  0.00000000000E+00  0.00000000000E+00  0.74505805969E-08  0.10566000000E+00  0.10566000000E+00 0. -1.
     999900   -1    0    0    0    0 -0.00000000000E+00 -0.00000000000E+00 -0.74505805969E-08  0.93827000000E+00  0.93827000000E+00 0. -1.
     999902    2    1    2    0    0 -0.17551383108E-03  0.10964134042E-01  0.20980006514E-01  0.10202571524E+01  0.10199824770E+01 0.  0.
     999903    2    3    3    0    0  0.55815259812E-01 -0.39968165086E-01  0.11151209338E+00  0.13238040161E+00  0.19412014638E-01 0.  0.
         14    1    1    2    0    0  0.17551383108E-03 -0.10964134042E-01 -0.20980006514E-01  0.23672847605E-01  0.00000000000E+00 0.  1.
     999901    1    3    3    0    0 -0.55990773643E-01  0.50932299127E-01 -0.90532086868E-01  0.88787675078E+00  0.88000000000E+00 0.  1.
        -11    1    4    4    0    0  0.47814856581E-01 -0.39492413852E-01  0.10538533816E+00  0.12227936000E+00  0.51100000000E-03 0.  1.
         11    1    4    4    0    0  0.80004032307E-02 -0.47575123374E-03  0.61267552184E-02  0.10101041610E-01  0.51100000000E-03 0. -1.
</event>
<event>
 8    1  0.1075206E+005  0.1043930E+01  0.7957747E-01            NaN
         13   -1    0    0    0    0  0.00000000000E+00  0.00000000000E+00  0.74505805969E-08  0.10566000000E+00  0.10566000000E+00 0.  1.
     999900   -1    0    0    0    0 -0.00000000000E+00 -0.00000000000E+00 -0.74505805969E-08  0.93827000000E+00  0.93827000000E+00 0. -1.
     999902    2    1    2    0    0  0.19223960791E-01  0.11130150189E-01  0.10728250779E-01  0.10192614719E+01  0.10189629100E+01 0.  0.
     999903    2    3    3    0    0  0.68621563357E-01  0.10805057080E-01 -0.10798429886E+00  0.12991738877E+00  0.19805324787E-01 0.  0.
         14    1    1    2    0    0 -0.19223960791E-01 -0.11130150189E-01 -0.10728250779E-01  0.24668528057E-01  0.00000000000E+00 0.  1.
     999901    1    3    3    0    0 -0.49397602566E-01  0.32509310923E-03  0.11871254964E+00  0.88934408317E+00  0.88000000000E+00 0.  1.
        -11    1    4    4    0    0  0.45186027124E-01 -0.23375720362E-02 -0.71199136119E-01  0.84361243444E-01  0.51100000000E-03 0. -1.
         11    1    4    4    0    0  0.23435536233E-01  0.13142629116E-01 -0.36785162740E-01  0.45556145331E-01  0.51100000000E-03 0.  1.
</event>
<event>
 8    1  0.1075206E+005  0.1043930E+01  0.7957747E-01            NaN
         13   -1    0    0    0    0  0.00000000000E+00  0.00000000000E+00  0.74505805969E-08  0.10566000000E+00  0.10566000000E+00 0.  1.
     999900   -1    0    0    0    0 -0.00000000000E+00 -0.00000000000E+00 -0.74505805969E-08  0.93827000000E+00  0.93827000000E+00 0. -1.
     999902    2    1    2    0    0 -0.74092747152E-02 -0.19777015060E-01  0.65410962114E-02  0.10218208703E+01  0.10215816548E+01 0.  0.
     999903    2    3    3    0    0 -0.75125384328E-01  0.10032430893E+00 -0.29459496073E-01  0.13035811607E+00  0.20410443016E-01 0.  0.
         14    1    1    2    0    0  0.74092747152E-02  0.19777015060E-01 -0.65410962114E-02  0.22109129701E-01  0.00000000000E+00 0. -1.
     999901    1    3    3    0    0  0.67716109613E-01 -0.12010132399E+00  0.36000592284E-01  0.89146275423E+00  0.88000000000E+00 0. -1.
        -11    1    4    4    0    0 -0.50856955866E-01  0.54843273336E-01 -0.23818526077E-01  0.78497120302E-01  0.51100000000E-03 0. -1.
         11    1    4    4    0    0 -0.24268428462E-01  0.45481035596E-01 -0.56409699960E-02  0.51860995772E-01  0.51100000000E-03 0.  1.
</event>
<event>
 8    1  0.1075206E+005  0.1043930E+01  0.7957747E-01            NaN
         13   -1    0    0    0    0  0.00000000000E+00  0.00000000000E+00  0.74505805969E-08  0.10566000000E+00  0.10566000000E+00 0. -1.
     999900   -1    0    0    0    0 -0.00000000000E+00 -0.00000000000E+00 -0.74505805969E-08  0.93827000000E+00  0.93827000000E+00 0.  1.
     999902    2    1    2    0    0 -0.13743592785E-01 -0.89545832215E-02  0.16829533933E-01  0.10204288486E+01  0.10201581892E+01 0.  0.
     999903    2    3    3    0    0  0.65084540190E-01 -0.10992112377E+00 -0.17812602653E-01  0.13048042626E+00  0.19728203159E-01 0.  0.
         14    1    1    2    0    0  0.13743592785E-01  0.89545832215E-02 -0.16829533933E-01  0.23501151370E-01  0.00000000000E+00 0.  1.
     999901    1    3    3    0    0 -0.78828132975E-01  0.10096654055E+00  0.34642136586E-01  0.88994842237E+00  0.88000000000E+00 0. -1.
        -11    1    4    4    0    0  0.22497544687E-01 -0.39551857447E-01 -0.15902322755E-01  0.48204086284E-01  0.51100000000E-03 0. -1.
         11    1    4    4    0    0  0.42586995503E-01 -0.70369266324E-01 -0.19102798980E-02  0.82276339972E-01  0.51100000000E-03 0.  1.
</event>
<event>
 8    1  0.1075206E+005  0.1043930E+01  0.7957747E-01            NaN
         13   -1    0    0    0    0  0.00000000000E+00  0.00000000000E+00  0.74505805969E-08  0.10566000000E+00  0.10566000000E+00 0. -1.
     999900   -1    0    0    0    0 -0.00000000000E+00 -0.00000000000E+00 -0.74505805969E-08  0.93827000000E+00  0.93827000000E+00 0. -1.
     999902    2    1    2    0    0  0.20567823592E-01 -0.10349226816E-01 -0.26227940247E-02  0.10207562884E+01  0.10204932039E+01 0.  0.
     999903    2    3    3    0    0  0.41235086730E-01 -0.50515643859E-01  0.11304096530E+00  0.13203890805E+00  0.20096038202E-01 0.  0.
         14    1    1    2    0    0 -0.20567823592E-01  0.10349226816E-01  0.26227940247E-02  0.23173711647E-01  0.00000000000E+00 0.  1.
     999901    1    3    3    0    0 -0.20667263138E-01  0.40166417043E-01 -0.11566375933E+00  0.88871738030E+00  0.88000000000E+00 0. -1.
        -11    1    4    4    0    0  0.29740034069E-01 -0.47855270495E-01  0.90959114307E-01  0.10699728098E+00  0.51100000000E-03 0. -1.
         11    1    4    4    0    0  0.11495052661E-01 -0.26603733635E-02  0.22081850996E-01  0.25041627074E-01  0.51100000000E-03 0.  1.
</event>
<event>
 8    1  0.1075206E+005  0.1043930E+01  0.7957747E-01            NaN
         13   -1    0    0    0    0  0.00000000000E+00  0.00000000000E+00  0.74505805969E-08  0.10566000000E+00  0.10566000000E+00 0.  1.
     999900   -1    0    0    0    0 -0.00000000000E+00 -0.00000000000E+00 -0.74505805969E-08  0.93827000000E+00  0.93827000000E+00 0.  1.
     999902    2    1    2    0    0 -0.16116144968E-01  0.65064919535E-02 -0.13507451396E-01  0.10219182802E+01  0.10216811908E+01 0.  0.
     999903    2    3    3    0    0  0.84395747821E-01  0.99128436021E-01 -0.31747007711E-02  0.13130712437E+00  0.16804556166E-01 0.  0.
         14    1    1    2    0    0  0.16116144968E-01 -0.65064919535E-02  0.13507451396E-01  0.22011719819E-01  0.00000000000E+00 0.  1.
     999901    1    3    3    0    0 -0.10051189279E+00 -0.92621944067E-01 -0.10332750625E-01  0.89061115581E+00  0.88000000000E+00 0. -1.
        -11    1    4    4    0    0  0.17483776579E-01  0.17287590550E-01  0.56246665083E-02  0.25227786760E-01  0.51100000000E-03 0.  1.
         11    1    4    4    0    0  0.66911971242E-01  0.81840845471E-01 -0.87993672794E-02  0.10607933761E+00  0.51100000000E-03 0. -1.
</event>
<event>
 8    1  0.1075206E+005  0.1043930E+01  0.7957747E-01            NaN
         13   -1    0    0    0    0  0.00000000000E+00  0.00000000000E+00  0.74505805969E-08  0.10566000000E+00  0.10566000000E+00 0. -1.
     999900   -1    0    0    0    0 -0.00000000000E+00 -0.00000000000E+00 -0.74505805969E-08  0.93827000000E+00  0.93827000000E+00 0. -1.
     999902    2    1    2    0    0 -0.18692604109E-02  0.10804691796E-01  0.21482139541E-01  0.10198111729E+01  0.10195259245E+01 0.  0.
     999903    2    3    3    0    0  0.74774372778E-01 -0.82478150325E-01 -0.60497034135E-01  0.12779294440E+00  0.16652128786E-01 0.  0.
         14    1    1    2    0    0  0.18692604109E-02 -0.10804691796E-01 -0.21482139541E-01  0.24118827056E-01  0.00000000000E+00 0.  1.
     999901    1    3    3    0    0 -0.76643633189E-01  0.93282842121E-01  0.81979173676E-01  0.89201822855E+00  0.88000000000E+00 0. -1.
        -11    1    4    4    0    0  0.53317309040E-01 -0.61161444862E-01 -0.51997427057E-01  0.96371423785E-01  0.51100000000E-03 0.  1.
         11    1    4    4    0    0  0.21457063738E-01 -0.21316705464E-01 -0.84996070782E-02  0.31421520612E-01  0.51100000000E-03 0. -1.
</event>
<event>
 7    1  0.1699011E+005  0.1043930E+01  0.7957747E-01            NaN
         13   -1    0    0    0    0  0.00000000000E+00  0.00000000000E+00  0.74505805969E-08  0.10566000000E+00  0.10566000000E+00 0.  1.
     999900   -1    0    0    0    0 -0.00000000000E+00 -0.00000000000E+00 -0.74505805969E-08  0.93827000000E+00  0.93827000000E+00 0.  1.
     999903    2    1    2    0    0  0.82858951483E-01 -0.60686996153E-01 -0.41581752942E-01  0.11257863387E+00  0.19909527467E-01 0.  0.
         14    1    1    2    0    0 -0.34602342779E-01 -0.27900355922E-01 -0.22299611555E-02  0.44505333536E-01  0.00000000000E+00 0.  1.
     999901    1    1    2    0    0 -0.48256608704E-01  0.88587352075E-01  0.43811714097E-01  0.88684603259E+00  0.88000000000E+00 0. -1.
        -11    1    3    3    0    0  0.34599534272E-01 -0.21968478443E-01 -0.66456093123E-02  0.41523090698E-01  0.51100000000E-03 0.  1.
         11    1    3    3    0    0  0.48259417211E-01 -0.38718517709E-01 -0.34936143629E-01  0.71055543175E-01  0.51100000000E-03 0. -1.
</event>
<event>
 8    1  0.1075206E+005  0.1043930E+01  0.7957747E-01            NaN
         13   -1    0    0    0    0  0.00000000000E+00  0.00000000000E+00  0.74505805969E-08  0.10566000000E+00  0.10566000000E+00 0.  1.
     999900   -1    0    0    0    0 -0.00000000000E+00 -0.00000000000E+00 -0.74505805969E-08  0.93827000000E+00  0.93827000000E+00 0.  1.
     999902    2    1    2    0    0  0.61491270122E-02  0.21174029510E-02 -0.23716887974E-01  0.10193376042E+01  0.10190409046E+01 0.  0.
     999903    2    3    3    0    0 -0.99745536826E-01  0.40691823027E-01 -0.71633982122E-01  0.13085703958E+00  0.19675894776E-01 0.  0.
         14    1    1    2    0    0 -0.61491270122E-02 -0.21174029510E-02  0.23716887974E-01  0.24592395846E-01  0.00000000000E+00 0. -1.
     999901    1    3    3    0    0  0.10589466384E+00 -0.38574420076E-01  0.47917094148E-01  0.88848056457E+00  0.88000000000E+00 0.  1.
        -11    1    4    4    0    0 -0.75131409171E-01  0.29863336554E-01 -0.43006138703E-01  0.91576943612E-01  0.51100000000E-03 0.  1.
         11    1    4    4    0    0 -0.24614127655E-01  0.10828486473E-01 -0.28627843419E-01  0.39280095969E-01  0.51100000000E-03 0. -1.
</event>
<event>
 8    1  0.1075206E+005  0.1043930E+01  0.7957747E-01            NaN
         13   -1    0    0    0    0  0.00000000000E+00  0.00000000000E+00  0.74505805969E-08  0.10566000000E+00  0.10566000000E+00 0. -1.
     999900   -1    0    0    0    0 -0.00000000000E+00 -0.00000000000E+00 -0.74505805969E-08  0.93827000000E+00  0.93827000000E+00 0. -1.
     999902    2    1    2    0    0  0.60650431166E-02 -0.24505759637E-01 -0.44285845493E-02  0.10182993667E+01  0.10179767536E+01 0.  0.
     999903    2    3    3    0    0  0.17392546335E-01  0.23567594523E-01 -0.12389172152E+00  0.12885527017E+00  0.19914562782E-01 0.  0.
         14    1    1    2    0    0 -0.60650431166E-02  0.24505759637E-01  0.44285845493E-02  0.25630633322E-01  0.00000000000E+00 0.  1.
     999901    1    3    3    0    0 -0.11327503218E-01 -0.48073354160E-01  0.11946313697E+00  0.88944409650E+00  0.88000000000E+00 0.  1.
        -11    1    4    4    0    0  0.26243275234E-02  0.18907267887E-01 -0.54307351085E-01  0.57566668974E-01  0.51100000000E-03 0.  1.
         11    1    4    4    0    0  0.14768218811E-01  0.46603266368E-02 -0.69584370435E-01  0.71288601200E-01  0.51100000000E-03 0. -1.
</event>
<event>
 8    1  0.1075206E+005  0.1043930E+01  0.7957747E-01            NaN
         13   -1    0    0    0    0  0.00000000000E+00  0.00000000000E+00  0.74505805969E-08  0.10566000000E+00  0.10566000000E+00 0.  1.
     999900   -1    0    0    0    0 -0.00000000000E+00 -0.00000000000E+00 -0.74505805969E-08  0.93827000000E+00  0.93827000000E+00 0. -1.
     999902    2    1    2    0    0 -0.19573700933E-01  0.25735881359E-02  0.13931286670E-01  0.10197673455E+01  0.10194810469E+01 0.  0.
     999903    2    3    3    0    0  0.67938984921E-01 -0.10640723916E+00  0.14960127065E-01  0.12873628577E+00  0.20273619641E-01 0.  0.
         14    1    1    2    0    0  0.19573700933E-01 -0.25735881359E-02 -0.13931286670E-01  0.24162654498E-01  0.00000000000E+00 0. -1.
     999901    1    3    3    0    0 -0.87512685854E-01  0.10898082729E+00 -0.10288403946E-02  0.89103105974E+00  0.88000000000E+00 0. -1.
        -11    1    4    4    0    0  0.31460023044E-01 -0.36423709468E-01 -0.13317688198E-02  0.48150331157E-01  0.51100000000E-03 0. -1.
         11    1    4    4    0    0  0.36478961877E-01 -0.69983529691E-01  0.16291895884E-01  0.80585954608E-01  0.51100000000E-03 0.  1.
</event>
<event>
 8    1  0.1075206E+005  0.1043930E+01  0.7957747E-01            NaN
         13   -1    0    0    0    0  0.00000000000E+00  0.00000000000E+00  0.74505805969E-08  0.10566000000E+00  0.10566000000E+00 0.  1.
     999900   -1    0    0    0    0 -0.00000000000E+00 -0.00000000000E+00 -0.74505805969E-08  0.93827000000E+00  0.93827000000E+00 0. -1.
     999902    2    1    2    0    0 -0.16632414721E-01  0.16039469140E-01 -0.98254427801E-02  0.10188214135E+01  0.10185119693E+01 0.  0.
     999903    2    3    3    0    0  0.16082160846E-01 -0.95376097924E-01  0.79405586027E-01  0.12671948629E+00  0.19933518549E-01 0.  0.
         14    1    1    2    0    0  0.16632414721E-01 -0.16039469140E-01  0.98254427801E-02  0.25108586491E-01  0.00000000000E+00 0.  1.
     999901    1    3    3    0    0 -0.32714575567E-01  0.11141556706E+00 -0.89231028808E-01  0.89210192721E+00  0.88000000000E+00 0. -1.
        -11    1    4    4    0    0 -0.43339770472E-02 -0.28407771940E-01  0.23372505497E-01  0.37044837668E-01  0.51100000000E-03 0. -1.
         11    1    4    4    0    0  0.20416137894E-01 -0.66968325984E-01  0.56033080530E-01  0.89674648627E-01  0.51100000000E-03 0.  1.
</event>
<event>
 8    1  0.1075206E+005  0.1043930E+01  0.7957747E-01            NaN
         13   -1    0    0    0    0  0.00000000000E+00  0.00000000000E+00  0.74505805969E-08  0.10566000000E+00  0.10566000000E+00 0.  1.
     999900   -1    0    0    0    0 -0.00000000000E+00 -0.00000000000E+00 -0.74505805969E-08  0.93827000000E+00  0.93827000000E+00 0. -1.
     999902    2    1    2    0    0  0.21637132181E-01 -0.35763196658E-02 -0.70592499254E-02  0.10208911511E+01  0.10206311546E+01 0.  0.
     999903    2    3    3    0    0  0.11185132258E+00  0.67867903158E-01  0.14258110344E-01  0.13314270302E+00  0.20172134647E-01 0.  0.
         14    1    1    2    0    0 -0.21637132181E-01  0.35763196658E-02  0.70592499254E-02  0.23038848949E-01  0.00000000000E+00 0.  1.
     999901    1    3    3    0    0 -0.90214190399E-01 -0.71444222824E-01 -0.21317360269E-01  0.88774844803E+00  0.88000000000E+00 0. -1.
        -11    1    4    4    0    0  0.73133184597E-01  0.54764901291E-01  0.12589871131E-01  0.92230272031E-01  0.51100000000E-03 0.  1.
         11    1    4    4    0    0  0.38718137983E-01  0.13103001867E-01  0.16682392130E-02  0.40912430994E-01  0.51100000000E-03 0. -1.
</event>
<event>
 8    1  0.1075206E+005  0.1043930E+01  0.7957747E-01            NaN
         13   -1    0    0    0    0  0.00000000000E+00  0.00000000000E+00  0.74505805969E-08  0.10566000000E+00  0.10566000000E+00 0.  1.
     999900   -1    0    0    0    0 -0.00000000000E+00 -0.00000000000E+00 -0.74505805969E-08  0.93827000000E+00  0.93827000000E+00 0. -1.
     999902    2    1    2    0    0 -0.37279918870E-02  0.73722304244E-02  0.22469381786E-01  0.10199900580E+01  0.10197090750E+01 0.  0.
     999903    2    3    3    0    0  0.11501082982E+00  0.52714574473E-01 -0.20253465385E-01  0.12983272494E+00  0.20976564691E-01 0.  0.
         14    1    1    2    0    0  0.37279918870E-02 -0.73722304244E-02 -0.22469381786E-01  0.23939941996E-01  0.00000000000E+00 0. -1.
     999901    1    3    3    0    0 -0.11873882171E+00 -0.45342344049E-01  0.42722847171E-01  0.89015733307E+00  0.88000000000E+00 0.  1.
        -11    1    4    4    0    0  0.78667788027E-01  0.27483171593E-01 -0.69068728205E-02  0.83617651289E-01  0.51100000000E-03 0. -1.
         11    1    4    4    0    0  0.36343041794E-01  0.25231402880E-01 -0.13346592565E-01  0.46215073647E-01  0.51100000000E-03 0.  1.
</event>
<event>
 8    1  0.1075206E+005  0.1043930E+01  0.7957747E-01            NaN
         13   -1    0    0    0    0  0.00000000000E+00  0.00000000000E+00  0.74505805969E-08  0.10566000000E+00  0.10566000000E+00 0.  1.
     999900   -1    0    0    0    0 -0.00000000000E+00 -0.00000000000E+00 -0.74505805969E-08  0.93827000000E+00  0.93827000000E+00 0.  1.
     999902    2    1    2    0    0 -0.76113445458E-02 -0.92922635075E-02  0.21582784014E-01  0.10192298929E+01  0.10189305566E+01 0.  0.
     999903    2    3    3    0    0 -0.91394067642E-01 -0.83902266144E-01  0.39651222118E-01  0.13192348263E+00  0.20955190032E-01 0.  0.
         14    1    1    2    0    0  0.76113445458E-02  0.92922635075E-02 -0.21582784014E-01  0.24700107139E-01  0.00000000000E+00 0. -1.
     999901    1    3    3    0    0  0.83782723096E-01  0.74610002636E-01 -0.18068438104E-01  0.88730641023E+00  0.88000000000E+00 0.  1.
        -11    1    4    4    0    0 -0.30558364460E-01 -0.16540239819E-01  0.15123792437E-01  0.37899648949E-01  0.51100000000E-03 0.  1.
         11    1    4    4    0    0 -0.60835703182E-01 -0.67362026325E-01  0.24527429681E-01  0.94023833680E-01  0.51100000000E-03 0. -1.
</event>
<event>
 8    1  0.1075206E+005  0.1043930E+01  0.7957747E-01            NaN
         13   -1    0    0    0    0  0.00000000000E+00  0.00000000000E+00  0.74505805969E-08  0.10566000000E+00  0.10566000000E+00 0. -1.
     999900   -1    0    0    0    0 -0.00000000000E+00 -0.00000000000E+00 -0.74505805969E-08  0.93827000000E+00  0.93827000000E+00 0. -1.
     999902    2    1    2    0    0 -0.86731718321E-02 -0.67151246271E-02  0.21860786493E-01  0.10194716518E+01  0.10191782171E+01 0.  0.
     999903    2    3    3    0    0 -0.94173729861E-02  0.25443880311E-02 -0.12492640896E+00  0.12726496438E+00  0.22239664495E-01 0.  0.
         14    1    1    2    0    0  0.86731718321E-02  0.67151246271E-02 -0.21860786493E-01  0.24458348155E-01  0.00000000000E+00 0.  1.
     999901    1    3    3    0    0  0.74420115397E-03 -0.92595126582E-02  0.14678719546E+00  0.89220668747E+00  0.88000000000E+00 0.  1.
        -11    1    4    4    0    0  0.70742163317E-02 -0.14207294277E-02 -0.42300544651E-01  0.42914568710E-01  0.51100000000E-03 0.  1.
         11    1    4    4    0    0 -0.16491589318E-01  0.39651174588E-02 -0.82625864314E-01  0.84350395668E-01  0.51100000000E-03 0. -1.
</event>
<event>
 8    1  0.1075206E+005  0.1043930E+01  0.7957747E-01            NaN
         13   -1    0    0    0    0  0.00000000000E+00  0.00000000000E+00  0.74505805969E-08  0.10566000000E+00  0.10566000000E+00 0.  1.
     999900   -1    0    0    0    0 -0.00000000000E+00 -0.00000000000E+00 -0.74505805969E-08  0.93827000000E+00  0.93827000000E+00 0.  1.
     999902    2    1    2    0    0 -0.30081143973E-02  0.22883277471E-01  0.16929288665E-02  0.10207878491E+01  0.10205254890E+01 0.  0.
     999903    2    3    3    0    0  0.11126769257E+00 -0.33321156823E-01 -0.54708669265E-01  0.12983384425E+00  0.19312941715E-01 0.  0.
         14    1    1    2    0    0  0.30081143973E-02 -0.22883277471E-01 -0.16929288665E-02  0.23142150898E-01  0.00000000000E+00 0. -1.
     999901    1    3    3    0    0 -0.11427580697E+00  0.56204434294E-01  0.56401598132E-01  0.89095400485E+00  0.88000000000E+00 0. -1.
        -11    1    4    4    0    0  0.62391711334E-01 -0.13851530293E-01 -0.39223075784E-01  0.74988674676E-01  0.51100000000E-03 0.  1.
         11    1    4    4    0    0  0.48875981236E-01 -0.19469626530E-01 -0.15485593481E-01  0.54845169573E-01  0.51100000000E-03 0. -1.
</event>
<event>
 8    1  0.1075206E+005  0.1043930E+01  0.7957747E-01            NaN
         13   -1    0    0    0    0  0.00000000000E+00  0.00000000000E+00  0.74505805969E-08  0.10566000000E+00  0.10566000000E+00 0. -1.
     999900   -1    0    0    0    0 -0.00000000000E+00 -0.00000000000E+00 -0.74505805969E-08  0.93827000000E+00  0.93827000000E+00 0. -1.
     999902    2    1    2    0    0  0.21315424886E-01 -0.11172754617E-01 -0.18754638770E-02  0.10197909207E+01  0.10195051873E+01 0.  0.
     999903    2    3    3    0    0  0.98619459086E-01 -0.82473310632E-01 -0.29077576227E-01  0.13311192700E+00  0.18591261186E-01 0.  0.
         14    1    1    2    0    0 -0.21315424886E-01  0.11172754617E-01  0.18754638770E-02  0.24139079282E-01  0.00000000000E+00 0. -1.
     999901    1    3    3    0    0 -0.77304034200E-01  0.71300556015E-01  0.27202112350E-01  0.88667899372E+00  0.88000000000E+00 0.  1.
        -11    1    4    4    0    0  0.67355338481E-01 -0.60991914590E-01 -0.12545881137E-01  0.91730123306E-01  0.51100000000E-03 0. -1.
         11    1    4    4    0    0  0.31264120605E-01 -0.21481396042E-01 -0.16531695090E-01  0.41381803690E-01  0.51100000000E-03 0.  1.
</event>
<event>
 8    1  0.1075206E+005  0.1043930E+01  0.7957747E-01            NaN
         13   -1    0    0    0    0  0.00000000000E+00  0.00000000000E+00  0.74505805969E-08  0.10566000000E+00  0.10566000000E+00 0. -1.
     999900   -1    0    0    0    0 -0.00000000000E+00 -0.00000000000E+00 -0.74505805969E-08  0.93827000000E+00  0.93827000000E+00 0. -1.
     999902    2    1    2    0    0 -0.56804036899E-02 -0.11034969104E-01 -0.19410586411E-01  0.10208907206E+01  0.10206307143E+01 0.  0.
     999903    2    3    3    0    0 -0.17259698920E-01 -0.11980409511E+00  0.47510643915E-01  0.13159703802E+00  0.20238594796E-01 0.  0.
         14    1    1    2    0    0  0.56804036899E-02  0.11034969104E-01  0.19410586411E-01  0.23039279373E-01  0.00000000000E+00 0. -1.
     999901    1    3    3    0    0  0.11579295230E-01  0.10876912601E+00 -0.66921230326E-01  0.88929368260E+00  0.88000000000E+00 0.  1.
        -11    1    4    4    0    0 -0.13460366123E-01 -0.47216225268E-01  0.27167724629E-01  0.56115058293E-01  0.51100000000E-03 0.  1.
         11    1    4    4    0    0 -0.37993327973E-02 -0.72587869842E-01  0.20342919286E-01  0.75481979730E-01  0.51100000000E-03 0. -1.
</event>
<event>
 8    1  0.1075206E+005  0.1043930E+01  0.7957747E-01            NaN
         13   -1    0    0    0    0  0.00000000000E+00  0.00000000000E+00  0.74505805969E-08  0.10566000000E+00  0.10566000000E+00 0. -1.
     999900   -1    0    0    0    0 -0.00000000000E+00 -0.00000000000E+00 -0.74505805969E-08  0.93827000000E+00  0.93827000000E+00 0. -1.
     999902    2    1    2    0    0 -0.98635350956E-03  0.23998334172E-01  0.93989657563E-03  0.10198930214E+01  0.10196097286E+01 0.  0.
     999903    2    3    3    0    0 -0.10763843355E-01  0.24913026083E-01  0.12654048111E+00  0.13092061302E+00  0.19778633921E-01 0.  0.
         14    1    1    2    0    0  0.98635350956E-03 -0.23998334172E-01 -0.93989657563E-03  0.24036978633E-01  0.00000000000E+00 0.  1.
     999901    1    3    3    0    0  0.97774898456E-02 -0.91469191157E-03 -0.12560058454E+00  0.88897240835E+00  0.88000000000E+00 0. -1.
        -11    1    4    4    0    0 -0.96431821112E-03  0.20011220363E-01  0.54865635959E-01  0.58411282987E-01  0.51100000000E-03 0.  1.
         11    1    4    4    0    0 -0.97995251440E-02  0.49018057199E-02  0.71674845156E-01  0.72509330030E-01  0.51100000000E-03 0. -1.
</event>
<event>
 8    1  0.1075206E+005  0.1043930E+01  0.7957747E-01            NaN
         13   -1    0    0    0    0  0.00000000000E+00  0.00000000000E+00  0.74505805969E-08  0.10566000000E+00  0.10566000000E+00 0. -1.
     999900   -1    0    0    0    0 -0.00000000000E+00 -0.00000000000E+00 -0.74505805969E-08  0.93827000000E+00  0.93827000000E+00 0.  1.
     999902    2    1    2    0    0  0.13373758116E-01  0.15954537984E-01  0.10553420863E-01  0.10205894906E+01  0.10203225612E+01 0.  0.
     999903    2    3    3    0    0  0.12074150965E+00 -0.34152444591E-01 -0.34484213332E-01  0.13150741772E+00  0.18977310741E-01 0.  0.
         14    1    1    2    0    0 -0.13373758116E-01 -0.15954537984E-01 -0.10553420863E-01  0.23340509427E-01  0.00000000000E+00 0.  1.
     999901    1    3    3    0    0 -0.10736775153E+00  0.50106982575E-01  0.45037634195E-01  0.88908207285E+00  0.88000000000E+00 0. -1.
        -11    1    4    4    0    0  0.45322671849E-01 -0.73454359421E-02 -0.20357601143E-01  0.50227413411E-01  0.51100000000E-03 0.  1.
         11    1    4    4    0    0  0.75418837799E-01 -0.26807008649E-01 -0.14126612189E-01  0.81280004310E-01  0.51100000000E-03 0. -1.
</event>
<event>
 8    1  0.1075206E+005  0.1043930E+01  0.7957747E-01            NaN
         13   -1    0    0    0    0  0.00000000000E+00  0.00000000000E+00  0.74505805969E-08  0.10566000000E+00  0.10566000000E+00 0. -1.
     999900   -1    0    0    0    0 -0.00000000000E+00 -0.00000000000E+00 -0.74505805969E-08  0.93827000000E+00  0.93827000000E+00 0. -1.
     999902    2    1    2    0    0  0.85189221249E-03 -0.22495659724E-01  0.58237112131E-02  0.10206771284E+01  0.10204122228E+01 0.  0.
     999903    2    3    3    0    0  0.12932268104E+00 -0.96367298399E-02 -0.12108337750E-03  0.13123604755E+00  0.20141080467E-01 0.  0.
         14    1    1    2    0    0 -0.85189221249E-03  0.22495659724E-01 -0.58237112131E-02  0.23252871630E-01  0.00000000000E+00 0.  1.
     999901    1    3    3    0    0 -0.12847078883E+00 -0.12858929884E-01  0.59447945906E-02  0.88944108082E+00  0.88000000000E+00 0. -1.
        -11    1    4    4    0    0  0.56607225362E-01 -0.13789559030E-01 -0.30155636384E-02  0.58342820008E-01  0.51100000000E-03 0.  1.
         11    1    4    4    0    0  0.72715455680E-01  0.41528291897E-02  0.28944802609E-02  0.72893227546E-01  0.51100000000E-03 0. -1.
</event>
<event>
 8    1  0.1075206E+005  0.1043930E+01  0.7957747E-01            NaN
         13   -1    0    0    0    0  0.00000000000E+00  0.00000000000E+00  0.74505805969E-08  0.10566000000E+00  0.10566000000E+00 0. -1.
     999900   -1    0    0    0    0 -0.00000000000E+00 -0.00000000000E+00 -0.74505805969E-08  0.93827000000E+00  0.93827000000E+00 0. -1.
     999902    2    1    2    0    0  0.17507674179E-01  0.93596019035E-02  0.73874091295E-02  0.10227475871E+01  0.10225282061E+01 0.  0.
     999903    2    3    3    0    0 -0.10059254772E+00 -0.62783681468E-01  0.50400601730E-01  0.13089420761E+00  0.23074263064E-01 0.  0.
         14    1    1    2    0    0 -0.17507674179E-01 -0.93596019035E-02 -0.73874091295E-02  0.21182412908E-01  0.00000000000E+00 0.  1.
     999901    1    3    3    0    0  0.11810022190E+00  0.72143283372E-01 -0.43013192601E-01  0.89185337948E+00  0.88000000000E+00 0.  1.
        -11    1    4    4    0    0 -0.20883209274E-01 -0.12635896412E-01  0.73067771282E-03  0.24424768548E-01  0.51100000000E-03 0.  1.
         11    1    4    4    0    0 -0.79709338450E-01 -0.50147785056E-01  0.49669924018E-01  0.10646943907E+00  0.51100000000E-03 0. -1.
</event>
<event>
 8    1  0.1075206E+005  0.1043930E+01  0.7957747E-01            NaN
         13   -1    0    0    0    0  0.00000000000E+00  0.00000000000E+00  0.74505805969E-08  0.10566000000E+00  0.10566000000E+00 0.  1.
     999900   -1    0    0    0    0 -0.00000000000E+00 -0.00000000000E+00 -0.74505805969E-08  0.93827000000E+00  0.93827000000E+00 0. -1.
     999902    2    1    2    0    0 -0.25433360213E-01 -0.75531981196E-02  0.10940352769E-01  0.10152316040E+01  0.10148259022E+01 0.  0.
     999903    2    3    3    0    0  0.67296098631E-01 -0.92719198718E-01 -0.44705630114E-01  0.12453048938E+00  0.19586595406E-01 0.  0.
         14    1    1    2    0    0  0.25433360213E-01  0.75531981196E-02 -0.10940352769E-01  0.28698395987E-01  0.00000000000E+00 0. -1.
     999901    1    3    3    0    0 -0.92729458844E-01  0.85166000599E-01  0.55645982883E-01  0.89070111463E+00  0.88000000000E+00 0. -1.
        -11    1    4    4    0    0  0.36628100646E-01 -0.35397449083E-01 -0.23921119889E-01  0.56276800338E-01  0.51100000000E-03 0. -1.
         11    1    4    4    0    0  0.30667997985E-01 -0.57321749635E-01 -0.20784510224E-01  0.68253689043E-01  0.51100000000E-03 0.  1.
</event>
<event>
 8    1  0.1075206E+005  0.1043930E+01  0.7957747E-01            NaN
         13   -1    0    0    0    0  0.00000000000E+00  0.00000000000E+00  0.74505805969E-08  0.10566000000E+00  0.10566000000E+00 0.  1.
     999900   -1    0    0    0    0 -0.00000000000E+00 -0.00000000000E+00 -0.74505805969E-08  0.93827000000E+00  0.93827000000E+00 0. -1.
     999902    2    1    2    0    0 -0.12393287764E-01 -0.11636139301E-01 -0.16212878720E-01  0.10204384961E+01  0.10201680614E+01 0.  0.
     999903    2    3    3    0    0  0.30793890191E-01  0.11559627199E+00  0.42815286257E-01  0.12828517794E+00  0.17696789887E-01 0.  0.
         14    1    1    2    0    0  0.12393287764E-01  0.11636139301E-01  0.16212878720E-01  0.23491503907E-01  0.00000000000E+00 0.  1.
     999901    1    3    3    0    0 -0.43187177955E-01 -0.12723241129E+00 -0.59028164977E-01  0.89215331815E+00  0.88000000000E+00 0. -1.
        -11    1    4    4    0    0  0.24896770289E-01  0.91319121806E-01  0.41239441650E-01  0.10324719777E+00  0.51100000000E-03 0.  1.
         11    1    4    4    0    0  0.58971199021E-02  0.24277150182E-01  0.15758446065E-02  0.25037980177E-01  0.51100000000E-03 0. -1.
</event>
<event>
 8    1  0.1075206E+005  0.1043930E+01  0.7957747E-01            NaN
         13   -1    0    0    0    0  0.00000000000E+00  0.00000000000E+00  0.74505805969E-08  0.10566000000E+00  0.10566000000E+00 0. -1.
     999900   -1    0    0    0    0 -0.00000000000E+00 -0.00000000000E+00 -0.74505805969E-08  0.93827000000E+00  0.93827000000E+00 0. -1.
     999902    2    1    2    0    0 -0.68904313607E-02 -0.14788766035E-02  0.22966615890E-01  0.10199064581E+01  0.10196234858E+01 0.  0.
     999903    2    3    3    0    0  0.16565907466E-01  0.12219134121E+00 -0.32848097812E-01  0.12919898374E+00  0.20204621049E-01 0.  0.
         14    1    1    2    0    0  0.68904313607E-02  0.14788766035E-02 -0.22966615890E-01  0.24023541907E-01  0.00000000000E+00 0.  1.
     999901    1    3    3    0    0 -0.23456338826E-01 -0.12367021782E+00  0.55814713701E-01  0.89070747435E+00  0.88000000000E+00 0.  1.
        -11    1    4    4    0    0 -0.24407255478E-03  0.63689486870E-01 -0.21894248064E-01  0.67350052178E-01  0.51100000000E-03 0.  1.
         11    1    4    4    0    0  0.16809980020E-01  0.58501854342E-01 -0.10953849748E-01  0.61848931560E-01  0.51100000000E-03 0. -1.
</event>
<event>
 8    1  0.1075206E+005  0.1043930E+01  0.7957747E-01            NaN
         13   -1    0    0    0    0  0.00000000000E+00  0.00000000000E+00  0.74505805969E-08  0.10566000000E+00  0.10566000000E+00 0.  1.
     999900   -1    0    0    0    0 -0.00000000000E+00 -0.00000000000E+00 -0.74505805969E-08  0.93827000000E+00  0.93827000000E+00 0. -1.
     999902    2    1    2    0    0  0.11521398065E-01 -0.17246291924E-01  0.11228005372E-01  0.10203451467E+01  0.10200725333E+01 0.  0.
     999903    2    3    3    0    0 -0.32057998200E-01  0.10214842867E+00  0.69545340285E-01  0.12930352334E+00  0.20514143022E-01 0.  0.
         14    1    1    2    0    0 -0.11521398065E-01  0.17246291924E-01 -0.11228005372E-01  0.23584853256E-01  0.00000000000E+00 0. -1.
     999901    1    3    3    0    0  0.43579396265E-01 -0.11939472060E+00 -0.58317334913E-01  0.89104162340E+00  0.88000000000E+00 0. -1.
        -11    1    4    4    0    0 -0.33577165668E-02  0.43483445629E-01  0.30305706248E-01  0.53111027635E-01  0.51100000000E-03 0. -1.
         11    1    4    4    0    0 -0.28700281633E-01  0.58664983044E-01  0.39239634037E-01  0.76192495705E-01  0.51100000000E-03 0.  1.
</event>
<event>
 8    1  0.1075206E+005  0.1043930E+01  0.7957747E-01            NaN
         13   -1    0    0    0    0  0.00000000000E+00  0.00000000000E+00  0.74505805969E-08  0.10566000000E+00  0.10566000000E+00 0.  1.
     999900   -1    0    0    0    0 -0.00000000000E+00 -0.00000000000E+00 -0.74505805969E-08  0.93827000000E+00  0.93827000000E+00 0. -1.
     999902    2    1    2    0    0 -0.22542806340E-01 -0.20369925961E-03 -0.71138957450E-02  0.10202904754E+01  0.10200165818E+01 0.  0.
     999903    2    3    3    0    0  0.75492612759E-01 -0.81811151691E-01 -0.62795975018E-01  0.12935208603E+00  0.19910513775E-01 0.  0.
         14    1    1    2    0    0  0.22542806340E-01  0.20369925961E-03  0.71138957450E-02  0.23639524609E-01  0.00000000000E+00 0. -1.
     999901    1    3    3    0    0 -0.98035419099E-01  0.81607452431E-01  0.55682079273E-01  0.89093838936E+00  0.88000000000E+00 0.  1.
        -11    1    4    4    0    0  0.51349223972E-01 -0.51678677706E-01 -0.51157217654E-01  0.89021068130E-01  0.51100000000E-03 0.  1.
         11    1    4    4    0    0  0.24143388787E-01 -0.30132473985E-01 -0.11638757364E-01  0.40331017897E-01  0.51100000000E-03 0. -1.
</event>
<event>
 8    1  0.1075206E+005  0.1043930E+01  0.7957747E-01            NaN
         13   -1    0    0    0    0  0.00000000000E+00  0.00000000000E+00  0.74505805969E-08  0.10566000000E+00  0.10566000000E+00 0.  1.
     999900   -1    0    0    0    0 -0.00000000000E+00 -0.00000000000E+00 -0.74505805969E-08  0.93827000000E+00  0.93827000000E+00 0.  1.
     999902    2    1    2    0    0 -0.11843437602E-01  0.16442479472E-01 -0.14359784983E-01  0.10190940267E+01  0.10187913475E+01 0.  0.
     999903    2    3    3    0    0  0.91512277024E-01 -0.49015611600E-01 -0.73395008986E-01  0.12867147357E+00  0.19811454777E-01 0.  0.
         14    1    1    2    0    0  0.11843437602E-01 -0.16442479472E-01  0.14359784983E-01  0.24835973308E-01  0.00000000000E+00 0.  1.
     999901    1    3    3    0    0 -0.10335571463E+00  0.65458091071E-01  0.59035224003E-01  0.89042255312E+00  0.88000000000E+00 0.  1.
        -11    1    4    4    0    0  0.28545917027E-01 -0.25704191770E-01 -0.23730965500E-01  0.45155228911E-01  0.51100000000E-03 0. -1.
         11    1    4    4    0    0  0.62966359997E-01 -0.23311419829E-01 -0.49664043486E-01  0.83516244660E-01  0.51100000000E-03 0.  1.
</event>
<event>
 8    1  0.1075206E+005  0.1043930E+01  0.7957747E-01            NaN
         13   -1    0    0    0    0  0.00000000000E+00  0.00000000000E+00  0.74505805969E-08  0.10566000000E+00  0.10566000000E+00 0.  1.
     999900   -1    0    0    0    0 -0.00000000000E+00 -0.00000000000E+00 -0.74505805969E-08  0.93827000000E+00  0.93827000000E+00 0.  1.
     999902    2    1    2    0    0 -0.15021553694E-01 -0.19360886919E-01 -0.46203847251E-02  0.10189933007E+01  0.10186881308E+01 0.  0.
     999903    2    3    3    0    0  0.10536202365E+00 -0.51911114365E-01 -0.49291429308E-01  0.12907913335E+00  0.20877208668E-01 0.  0.
         14    1    1    2    0    0  0.15021553694E-01  0.19360886919E-01  0.46203847251E-02  0.24936699314E-01  0.00000000000E+00 0.  1.
     999901    1    3    3    0    0 -0.12038357734E+00  0.32550227447E-01  0.44671044583E-01  0.88991416734E+00  0.88000000000E+00 0. -1.
        -11    1    4    4    0    0  0.89608072034E-01 -0.51858878862E-01 -0.42963322881E-01  0.11209397006E+00  0.51100000000E-03 0. -1.
         11    1    4    4    0    0  0.15753951613E-01 -0.52235503227E-04 -0.63281064275E-02  0.16985163288E-01  0.51100000000E-03 0.  1.
</event>
<event>
 8    1  0.1075206E+005  0.1043930E+01  0.7957747E-01            NaN
         13   -1    0    0    0    0  0.00000000000E+00  0.00000000000E+00  0.74505805969E-08  0.10566000000E+00  0.10566000000E+00 0. -1.
     999900   -1    0    0    0    0 -0.00000000000E+00 -0.00000000000E+00 -0.74505805969E-08  0.93827000000E+00  0.93827000000E+00 0.  1.
     999902    2    1    2    0    0 -0.80097521650E-02 -0.10322191997E-01  0.74411786044E-02  0.10288942121E+01  0.10287843432E+01 0.  0.
     999903    2    3    3    0    0 -0.12305187106E+00 -0.71487847963E-03  0.63131181932E-01  0.13960890019E+00  0.19047962045E-01 0.  0.
         14    1    1    2    0    0  0.80097521650E-02  0.10322191997E-01 -0.74411786044E-02  0.15035787854E-01  0.00000000000E+00 0. -1.
     999901    1    3    3    0    0  0.11504211889E+00 -0.96073135171E-02 -0.55690003328E-01  0.88928531196E+00  0.88000000000E+00 0.  1.
        -11    1    4    4    0    0 -0.43133839239E-01 -0.55964587770E-03  0.32530954425E-01  0.54031152198E-01  0.51100000000E-03 0. -1.
         11    1    4    4    0    0 -0.79918031818E-01 -0.15523260193E-03  0.30600227507E-01  0.85577747991E-01  0.51100000000E-03 0.  1.
</event>
<event>
 8    1  0.1075206E+005  0.1043930E+01  0.7957747E-01            NaN
         13   -1    0    0    0    0  0.00000000000E+00  0.00000000000E+00  0.74505805969E-08  0.10566000000E+00  0.10566000000E+00 0. -1.
     999900   -1    0    0    0    0 -0.00000000000E+00 -0.00000000000E+00 -0.74505805969E-08  0.93827000000E+00  0.93827000000E+00 0. -1.
     999902    2    1    2    0    0 -0.12319859787E-01  0.20332054481E-01 -0.46702338749E-02  0.10197022789E+01  0.10194144178E+01 0.  0.
     999903    2    3    3    0    0  0.12653655027E+00 -0.16160311234E-02 -0.97698824003E-02  0.12852955296E+00  0.20255499777E-01 0.  0.
         14    1    1    2    0    0  0.12319859787E-01 -0.20332054481E-01  0.46702338749E-02  0.24227721086E-01  0.00000000000E+00 0. -1.
     999901    1    3    3    0    0 -0.13885641005E+00  0.21948085604E-01  0.50996485253E-02  0.89117272596E+00  0.88000000000E+00 0. -1.
        -11    1    4    4    0    0  0.54414613371E-01 -0.66040852362E-02 -0.12339106140E-01  0.56187887943E-01  0.51100000000E-03 0. -1.
         11    1    4    4    0    0  0.72121936895E-01  0.49880541128E-02  0.25692237398E-02  0.72341665014E-01  0.51100000000E-03 0.  1.
</event>
<event>
 8    1  0.1075206E+005  0.1043930E+01  0.7957747E-01            NaN
         13   -1    0    0    0    0  0.00000000000E+00  0.00000000000E+00  0.74505805969E-08  0.10566000000E+00  0.10566000000E+00 0. -1.
     999900   -1    0    0    0    0 -0.00000000000E+00 -0.00000000000E+00 -0.74505805969E-08  0.93827000000E+00  0.93827000000E+00 0.  1.
     999902    2    1    2    0    0 -0.20083000849E-01  0.12033250577E-01  0.38462251590E-02  0.10202040756E+01  0.10199281525E+01 0.  0.
     999903    2    3    3    0    0 -0.98308494849E-01 -0.78521078249E-01 -0.33320953476E-01  0.13132797984E+00  0.17510923977E-01 0.  0.
         14    1    1    2    0    0  0.20083000849E-01 -0.12033250577E-01 -0.38462251590E-02  0.23725924440E-01  0.00000000000E+00 0. -1.
     999901    1    3    3    0    0  0.78225494000E-01  0.90554328826E-01  0.37167178636E-01  0.88887609572E+00  0.88000000000E+00 0. -1.
        -11    1    4    4    0    0 -0.24358775429E-01 -0.19745035331E-01 -0.16297246435E-01  0.35342293686E-01  0.51100000000E-03 0.  1.
         11    1    4    4    0    0 -0.73949719420E-01 -0.58776042919E-01 -0.17023707042E-01  0.95985686151E-01  0.51100000000E-03 0. -1.
</event>
<event>
 8    1  0.1075206E+005  0.1043930E+01  0.7957747E-01            NaN
         13   -1    0    0    0    0  0.00000000000E+00  0.00000000000E+00  0.74505805969E-08  0.10566000000E+00  0.10566000000E+00 0. -1.
     999900   -1    0    0    0    0 -0.00000000000E+00 -0.00000000000E+00 -0.74505805969E-08  0.93827000000E+00  0.93827000000E+00 0.  1.
     999902    2    1    2    0    0  0.18220080335E-01 -0.53043827741E-02  0.13628810542E-01  0.10205665182E+01  0.10202990571E+01 0.  0.
     999903    2    3    3    0    0 -0.60944590287E-01  0.75108600627E-01  0.83323647018E-01  0.13062794551E+00  0.27663785380E-01 0.  0.
         14    1    1    2    0    0 -0.18220080335E-01  0.53043827741E-02 -0.13628810542E-01  0.23363481779E-01  0.00000000000E+00 0.  1.
     999901    1    3    3    0    0  0.79164670622E-01 -0.80412983401E-01 -0.69694836476E-01  0.88993857271E+00  0.88000000000E+00 0.  1.
        -11    1    4    4    0    0 -0.87677751714E-02  0.13032507140E-02  0.14573644711E-01  0.17065303544E-01  0.51100000000E-03 0. -1.
         11    1    4    4    0    0 -0.52176815115E-01  0.73805349913E-01  0.68750002307E-01  0.11356264196E+00  0.51100000000E-03 0.  1.
</event>
<event>
 8    1  0.1075206E+005  0.1043930E+01  0.7957747E-01            NaN
         13   -1    0    0    0    0  0.00000000000E+00  0.00000000000E+00  0.74505805969E-08  0.10566000000E+00  0.10566000000E+00 0.  1.
     999900   -1    0    0    0    0 -0.00000000000E+00 -0.00000000000E+00 -0.74505805969E-08  0.93827000000E+00  0.93827000000E+00 0. -1.
     999902    2    1    2    0    0 -0.80613073728E-02  0.52951573648E-02  0.19738131472E-01  0.10219614497E+01  0.10217252994E+01 0.  0.
     999903    2    3    3    0    0 -0.45099304512E-01 -0.40100758993E-01  0.11862602252E+00  0.13448670784E+00  0.19300860818E-01 0.  0.
         14    1    1    2    0    0  0.80613073728E-02 -0.52951573648E-02 -0.19738131472E-01  0.21968550295E-01  0.00000000000E+00 0. -1.
     999901    1    3    3    0    0  0.37037997139E-01  0.45395916357E-01 -0.98887891044E-01  0.88747474187E+00  0.88000000000E+00 0. -1.
        -11    1    4    4    0    0 -0.35221001919E-01 -0.39146921674E-01  0.10650185207E+00  0.11881037862E+00  0.51100000000E-03 0. -1.
         11    1    4    4    0    0 -0.98783025933E-02 -0.95383731900E-03  0.12124170441E-01  0.15676329215E-01  0.51100000000E-03 0.  1.
</event>
<event>
 8    1  0.1075206E+005  0.1043930E+01  0.7957747E-01            NaN
         13   -1    0    0    0    0  0.00000000000E+00  0.00000000000E+00  0.74505805969E-08  0.10566000000E+00  0.10566000000E+00 0. -1.
     999900   -1    0    0    0    0 -0.00000000000E+00 -0.00000000000E+00 -0.74505805969E-08  0.93827000000E+00  0.93827000000E+00 0.  1.
     999902    2    1    2    0    0 -0.96763650864E-02 -0.25914506545E-01 -0.18027578757E-02  0.10162091842E+01  0.10158310206E+01 0.  0.
     999903    2    3    3    0    0  0.79384874372E-01 -0.16376828553E-01  0.94867564169E-01  0.12639570780E+00  0.20146002757E-01 0.  0.
         14    1    1    2    0    0  0.96763650864E-02  0.25914506545E-01  0.18027578757E-02  0.27720815766E-01  0.00000000000E+00 0. -1.
     999901    1    3    3    0    0 -0.89061239458E-01 -0.95376779920E-02 -0.96670322045E-01  0.88981347643E+00  0.88000000000E+00 0.  1.
        -11    1    4    4    0    0  0.66234123401E-02  0.41713632118E-02  0.10486930250E-01  0.13096056244E-01  0.51100000000E-03 0. -1.
         11    1    4    4    0    0  0.72761462032E-01 -0.20548191765E-01  0.84380633919E-01  0.11329965156E+00  0.51100000000E-03 0.  1.
</event>
<event>
 8    1  0.1075206E+005  0.1043930E+01  0.7957747E-01            NaN
         13   -1    0    0    0    0  0.00000000000E+00  0.00000000000E+00  0.74505805969E-08  0.10566000000E+00  0.10566000000E+00 0.  1.
     999900   -1    0    0    0    0 -0.00000000000E+00 -0.00000000000E+00 -0.74505805969E-08  0.93827000000E+00  0.93827000000E+00 0.  1.
     999902    2    1    2    0    0 -0.18428634717E-01 -0.86004767608E-02 -0.11387947108E-01  0.10206218873E+01  0.10203557070E+01 0.  0.
     999903    2    3    3    0    0 -0.85484675267E-01  0.32351162315E-02  0.97529239682E-01  0.13129655459E+00  0.20217244401E-01 0.  0.
         14    1    1    2    0    0  0.18428634717E-01  0.86004767608E-02  0.11387947108E-01  0.23308112695E-01  0.00000000000E+00 0.  1.
     999901    1    3    3    0    0  0.67056040549E-01 -0.11835592992E-01 -0.10891718679E+00  0.88932533272E+00  0.88000000000E+00 0.  1.
        -11    1    4    4    0    0 -0.73129600276E-01  0.91059184885E-02  0.76659154029E-01  0.10633787287E+00  0.51100000000E-03 0. -1.
         11    1    4    4    0    0 -0.12355074991E-01 -0.58708022570E-02  0.20870085653E-01  0.24958681722E-01  0.51100000000E-03 0.  1.
</event>
<event>
 8    1  0.1075206E+005  0.1043930E+01  0.7957747E-01            NaN
         13   -1    0    0    0    0  0.00000000000E+00  0.00000000000E+00  0.74505805969E-08  0.10566000000E+00  0.10566000000E+00 0.  1.
     999900   -1    0    0    0    0 -0.00000000000E+00 -0.00000000000E+00 -0.74505805969E-08  0.93827000000E+00  0.93827000000E+00 0.  1.
     999902    2    1    2    0    0 -0.19841454253E-01  0.64487625558E-03  0.13439916484E-01  0.10199564619E+01  0.10196746803E+01 0.  0.
     999903    2    3    3    0    0 -0.27943712543E-01  0.12506296983E+00  0.19648430823E-01  0.13114599043E+00  0.19789201061E-01 0.  0.
         14    1    1    2    0    0  0.19841454253E-01 -0.64487625558E-03 -0.13439916484E-01  0.23973538065E-01  0.00000000000E+00 0. -1.
     999901    1    3    3    0    0  0.81022582904E-02 -0.12441809358E+00 -0.62085143383E-02  0.88881047150E+00  0.88000000000E+00 0. -1.
        -11    1    4    4    0    0 -0.99549891118E-02  0.77611957215E-01  0.54039268617E-02  0.78435841663E-01  0.51100000000E-03 0.  1.
         11    1    4    4    0    0 -0.17988723432E-01  0.47451012620E-01  0.14244503961E-01  0.52710148771E-01  0.51100000000E-03 0. -1.
</event>
<event>
 8    1  0.1075206E+005  0.1043930E+01  0.7957747E-01            NaN
         13   -1    0    0    0    0  0.00000000000E+00  0.00000000000E+00  0.74505805969E-08  0.10566000000E+00  0.10566000000E+00 0. -1.
     999900   -1    0    0    0    0 -0.00000000000E+00 -0.00000000000E+00 -0.74505805969E-08  0.93827000000E+00  0.93827000000E+00 0. -1.
     999902    2    1    2    0    0  0.12572676926E-01 -0.11369199576E-01 -0.37061673007E-04  0.10269791216E+01  0.10268392201E+01 0.  0.
     999903    2    3    3    0    0 -0.75347596797E-01 -0.10568312471E+00 -0.37627798827E-01  0.13678916744E+00  0.21195327149E-01 0.  0.
         14    1    1    2    0    0 -0.12572676926E-01  0.11369199576E-01  0.37061673007E-04  0.16950878374E-01  0.00000000000E+00 0.  1.
     999901    1    3    3    0    0  0.87920273723E-01  0.94313925139E-01  0.37590737154E-01  0.89018995418E+00  0.88000000000E+00 0. -1.
        -11    1    4    4    0    0 -0.43333871002E-01 -0.42605641424E-01 -0.17656697742E-01  0.63285742102E-01  0.51100000000E-03 0.  1.
         11    1    4    4    0    0 -0.32013725794E-01 -0.63077483291E-01 -0.19971101085E-01  0.73503425342E-01  0.51100000000E-03 0. -1.
</event>
<event>
 8    1  0.1075206E+005  0.1043930E+01  0.7957747E-01            NaN
         13   -1    0    0    0    0  0.00000000000E+00  0.00000000000E+00  0.74505805969E-08  0.10566000000E+00  0.10566000000E+00 0. -1.
     999900   -1    0    0    0    0 -0.00000000000E+00 -0.00000000000E+00 -0.74505805969E-08  0.93827000000E+00  0.93827000000E+00 0.  1.
     999902    2    1    2    0    0 -0.29749225492E-02 -0.20790266279E-01  0.48987805023E-02  0.10223642080E+01  0.10221367278E+01 0.  0.
     999903    2    3    3    0    0  0.14873943855E-01  0.64389789141E-01  0.11162731267E+00  0.13165370310E+00  0.22466896870E-01 0.  0.
         14    1    1    2    0    0  0.29749225492E-02  0.20790266279E-01 -0.48987805023E-02  0.21565792045E-01  0.00000000000E+00 0. -1.
     999901    1    3    3    0    0 -0.17848866404E-01 -0.85180055419E-01 -0.10672853217E+00  0.89071050485E+00  0.88000000000E+00 0.  1.
        -11    1    4    4    0    0  0.96325756370E-02  0.34803620528E-01  0.81291995442E-01  0.88953516845E-01  0.51100000000E-03 0. -1.
         11    1    4    4    0    0  0.52413682176E-02  0.29586168613E-01  0.30335317231E-01  0.42700186259E-01  0.51100000000E-03 0.  1.
</event>
<event>
 8    1  0.1075206E+005  0.1043930E+01  0.7957747E-01            NaN
         13   -1    0    0    0    0  0.00000000000E+00  0.00000000000E+00  0.74505805969E-08  0.10566000000E+00  0.10566000000E+00 0.  1.
     999900   -1    0    0    0    0 -0.00000000000E+00 -0.00000000000E+00 -0.74505805969E-08  0.93827000000E+00  0.93827000000E+00 0.  1.
     999902    2    1    2    0    0  0.21825022985E-01 -0.42443864360E-02 -0.10165702382E-01  0.10194823427E+01  0.10191891674E+01 0.  0.
     999903    2    3    3    0    0  0.37375318874E-01 -0.11571665881E+00 -0.44789572654E-01  0.13163849850E+00  0.23137175354E-01 0.  0.
         14    1    1    2    0    0 -0.21825022985E-01  0.42443864360E-02  0.10165702382E-01  0.24447657341E-01  0.00000000000E+00 0. -1.
     999901    1    3    3    0    0 -0.15550295889E-01  0.11147227237E+00  0.34623870272E-01  0.88784384415E+00  0.88000000000E+00 0. -1.
        -11    1    4    4    0    0  0.11915487764E-01 -0.18152223225E-01 -0.11003605358E-02  0.21747504937E-01  0.51100000000E-03 0.  1.
         11    1    4    4    0    0  0.25459831110E-01 -0.97564435583E-01 -0.43689212118E-01  0.10989099357E+00  0.51100000000E-03 0. -1.
</event>
<event>
 8    1  0.1075206E+005  0.1043930E+01  0.7957747E-01            NaN
         13   -1    0    0    0    0  0.00000000000E+00  0.00000000000E+00  0.74505805969E-08  0.10566000000E+00  0.10566000000E+00 0.  1.
     999900   -1    0    0    0    0 -0.00000000000E+00 -0.00000000000E+00 -0.74505805969E-08  0.93827000000E+00  0.93827000000E+00 0.  1.
     999902    2    1    2    0    0  0.18031345735E-01 -0.97554368486E-02  0.60938295094E-03  0.10234197751E+01  0.10232142331E+01 0.  0.
     999903    2    3    3    0    0 -0.54723280162E-01  0.97131048532E-01 -0.66647459528E-01  0.13143242139E+00  0.20087796069E-01 0.  0.
         14    1    1    2    0    0 -0.18031345735E-01  0.97554368486E-02 -0.60938295094E-03  0.20510224882E-01  0.00000000000E+00 0. -1.
     999901    1    3    3    0    0  0.72754625897E-01 -0.10688648538E+00  0.67256842479E-01  0.89198735373E+00  0.88000000000E+00 0. -1.
        -11    1    4    4    0    0 -0.19900872868E-01  0.35606466059E-01 -0.35889018786E-01  0.54333672401E-01  0.51100000000E-03 0. -1.
         11    1    4    4    0    0 -0.34822407293E-01  0.61524582473E-01 -0.30758440743E-01  0.77098748992E-01  0.51100000000E-03 0.  1.
</event>
<event>
 8    1  0.1075206E+005  0.1043930E+01  0.7957747E-01            NaN
         13   -1    0    0    0    0  0.00000000000E+00  0.00000000000E+00  0.74505805969E-08  0.10566000000E+00  0.10566000000E+00 0.  1.
     999900   -1    0    0    0    0 -0.00000000000E+00 -0.00000000000E+00 -0.74505805969E-08  0.93827000000E+00  0.93827000000E+00 0. -1.
     999902    2    1    2    0    0 -0.57777314723E-02 -0.23960498249E-01 -0.85429254993E-03  0.10192679345E+01  0.10189695309E+01 0.  0.
     999903    2    3    3    0    0 -0.35667839743E-01  0.23819580222E-01 -0.12043517963E+00  0.12939381814E+00  0.19963979724E-01 0.  0.
         14    1    1    2    0    0  0.57777314723E-02  0.23960498249E-01  0.85429254993E-03  0.24662065466E-01  0.00000000000E+00 0. -1.
     999901    1    3    3    0    0  0.29890108271E-01 -0.47780078471E-01  0.11958088708E+00  0.88987411639E+00  0.88000000000E+00 0.  1.
        -11    1    4    4    0    0 -0.26943384804E-01  0.21483405178E-01 -0.68548472988E-01  0.76724422140E-01  0.51100000000E-03 0.  1.
         11    1    4    4    0    0 -0.87244549392E-02  0.23361750436E-02 -0.51886706643E-01  0.52669396000E-01  0.51100000000E-03 0. -1.
</event>
<event>
 8    1  0.1075206E+005  0.1043930E+01  0.7957747E-01            NaN
         13   -1    0    0    0    0  0.00000000000E+00  0.00000000000E+00  0.74505805969E-08  0.10566000000E+00  0.10566000000E+00 0. -1.
     999900   -1    0    0    0    0 -0.00000000000E+00 -0.00000000000E+00 -0.74505805969E-08  0.93827000000E+00  0.93827000000E+00 0. -1.
     999902    2    1    2    0    0  0.77282274402E-02 -0.22916684520E-01  0.68254480366E-02  0.10188006015E+01  0.10184906376E+01 0.  0.
     999903    2    3    3    0    0  0.71069784896E-01  0.84661419663E-01  0.62067514834E-01  0.12827441583E+00  0.19582621215E-01 0.  0.
         14    1    1    2    0    0 -0.77282274402E-02  0.22916684520E-01 -0.68254480366E-02  0.25129398514E-01  0.00000000000E+00 0. -1.
     999901    1    3    3    0    0 -0.63341557455E-01 -0.10757810418E+00 -0.55242066798E-01  0.89052618566E+00  0.88000000000E+00 0. -1.
        -11    1    4    4    0    0  0.44242688238E-01  0.66380987058E-01  0.43138244221E-01  0.90691896776E-01  0.51100000000E-03 0. -1.
         11    1    4    4    0    0  0.26827096657E-01  0.18280432605E-01  0.18929270613E-01  0.37582519051E-01  0.51100000000E-03 0.  1.
</event>
<event>
 8    1  0.1075206E+005  0.1043930E+01  0.7957747E-01            NaN
         13   -1    0    0    0    0  0.00000000000E+00  0.00000000000E+00  0.74505805969E-08  0.10566000000E+00  0.10566000000E+00 0. -1.
     999900   -1    0    0    0    0 -0.00000000000E+00 -0.00000000000E+00 -0.74505805969E-08  0.93827000000E+00  0.93827000000E+00 0. -1.
     999902    2    1    2    0    0  0.20056435330E-01  0.11960835683E-01  0.11583078769E-01  0.10178629729E+01  0.10175291355E+01 0.  0.
     999903    2    3    3    0    0 -0.10323847887E+00 -0.46908022782E-02 -0.68911395745E-01  0.12547389108E+00  0.17740623808E-01 0.  0.
         14    1    1    2    0    0 -0.20056435330E-01 -0.11960835683E-01 -0.11583078769E-01  0.26067027106E-01  0.00000000000E+00 0. -1.
     999901    1    3    3    0    0  0.12329491420E+00  0.16651637961E-01  0.80494474514E-01  0.89238908181E+00  0.88000000000E+00 0. -1.
        -11    1    4    4    0    0 -0.43172731092E-01  0.16103302633E-02 -0.38414304705E-01  0.57813474212E-01  0.51100000000E-03 0. -1.
         11    1    4    4    0    0 -0.60065747780E-01 -0.63011325414E-02 -0.30497091041E-01  0.67660416867E-01  0.51100000000E-03 0.  1.
</event>
<event>
 8    1  0.1075206E+005  0.1043930E+01  0.7957747E-01            NaN
         13   -1    0    0    0    0  0.00000000000E+00  0.00000000000E+00  0.74505805969E-08  0.10566000000E+00  0.10566000000E+00 0. -1.
     999900   -1    0    0    0    0 -0.00000000000E+00 -0.00000000000E+00 -0.74505805969E-08  0.93827000000E+00  0.93827000000E+00 0. -1.
     999902    2    1    2    0    0  0.20148446300E-01  0.47508966057E-02 -0.11533426448E-01  0.10202329362E+01  0.10199576919E+01 0.  0.
     999903    2    3    3    0    0 -0.31596784416E-01  0.12447977268E+00 -0.12325868211E-01  0.13061886222E+00  0.20390918262E-01 0.  0.
         14    1    1    2    0    0 -0.20148446300E-01 -0.47508966057E-02  0.11533426448E-01  0.23697063794E-01  0.00000000000E+00 0.  1.
     999901    1    3    3    0    0  0.51745230716E-01 -0.11972887608E+00  0.79244176360E-03  0.88961407399E+00  0.88000000000E+00 0. -1.
        -11    1    4    4    0    0 -0.72607854794E-02  0.65924954665E-01 -0.10716660667E-01  0.67185761812E-01  0.51100000000E-03 0.  1.
         11    1    4    4    0    0 -0.24335998937E-01  0.58554818019E-01 -0.16092075445E-02  0.63433100409E-01  0.51100000000E-03 0. -1.
</event>
<event>
 8    1  0.1075206E+005  0.1043930E+01  0.7957747E-01            NaN
         13   -1    0    0    0    0  0.00000000000E+00  0.00000000000E+00  0.74505805969E-08  0.10566000000E+00  0.10566000000E+00 0. -1.
     999900   -1    0    0    0    0 -0.00000000000E+00 -0.00000000000E+00 -0.74505805969E-08  0.93827000000E+00  0.93827000000E+00 0. -1.
     999902    2    1    2    0    0 -0.42240664948E-02 -0.10868639247E-01  0.21028225315E-01  0.10198851187E+01  0.10196016374E+01 0.  0.
     999903    2    3    3    0    0  0.62308897176E-01 -0.24525680952E-01 -0.10712881830E+00  0.12801215809E+00  0.20654810955E-01 0.  0.
         14    1    1    2    0    0  0.42240664948E-02  0.10868639247E-01 -0.21028225315E-01  0.24044881300E-01  0.00000000000E+00 0.  1.
     999901    1    3    3    0    0 -0.66532963671E-01  0.13657041704E-01  0.12815704361E+00  0.89187296061E+00  0.88000000000E+00 0.  1.
        -11    1    4    4    0    0  0.32686367844E-01 -0.46085658638E-02 -0.39001804460E-01  0.51098330641E-01  0.51100000000E-03 0.  1.
         11    1    4    4    0    0  0.29622529332E-01 -0.19917115088E-01 -0.68127013836E-01  0.76913827448E-01  0.51100000000E-03 0. -1.
</event>
<event>
 8    1  0.1075206E+005  0.1043930E+01  0.7957747E-01            NaN
         13   -1    0    0    0    0  0.00000000000E+00  0.00000000000E+00  0.74505805969E-08  0.10566000000E+00  0.10566000000E+00 0. -1.
     999900   -1    0    0    0    0 -0.00000000000E+00 -0.00000000000E+00 -0.74505805969E-08  0.93827000000E+00  0.93827000000E+00 0.  1.
     999902    2    1    2    0    0  0.33730831248E-02  0.17473507591E-01 -0.14859597501E-01  0.10207457641E+01  0.10204824379E+01 0.  0.
     999903    2    3    3    0    0  0.98497893980E-01  0.81416142218E-01 -0.31770490743E-01  0.13315161782E+00  0.19737424202E-01 0.  0.
         14    1    1    2    0    0 -0.33730831248E-02 -0.17473507591E-01  0.14859597501E-01  0.23184235920E-01  0.00000000000E+00 0. -1.
     999901    1    3    3    0    0 -0.95124810856E-01 -0.63942634626E-01  0.16910893242E-01  0.88759414626E+00  0.88000000000E+00 0.  1.
        -11    1    4    4    0    0  0.62394337573E-01  0.49576357102E-01 -0.10005287872E-01  0.80319583236E-01  0.51100000000E-03 0. -1.
         11    1    4    4    0    0  0.36103556407E-01  0.31839785115E-01 -0.21765202871E-01  0.52832034586E-01  0.51100000000E-03 0.  1.
</event>
<event>
 8    1  0.1075206E+005  0.1043930E+01  0.7957747E-01            NaN
         13   -1    0    0    0    0  0.00000000000E+00  0.00000000000E+00  0.74505805969E-08  0.10566000000E+00  0.10566000000E+00 0.  1.
     999900   -1    0    0    0    0 -0.00000000000E+00 -0.00000000000E+00 -0.74505805969E-08  0.93827000000E+00  0.93827000000E+00 0. -1.
     999902    2    1    2    0    0  0.23543744022E-01 -0.42486343087E-02 -0.25734205760E-02  0.10198679704E+01  0.10195840798E+01 0.  0.
     999903    2    3    3    0    0 -0.50016676650E-01 -0.96355516865E-01  0.67343728791E-01  0.12925962712E+00  0.19667735576E-01 0.  0.
         14    1    1    2    0    0 -0.23543744022E-01  0.42486343087E-02  0.25734205760E-02  0.24062029621E-01  0.00000000000E+00 0.  1.
     999901    1    3    3    0    0  0.73560420671E-01  0.92106882556E-01 -0.69917149367E-01  0.89060834326E+00  0.88000000000E+00 0. -1.
        -11    1    4    4    0    0 -0.20651166877E-01 -0.44283859103E-01  0.41578612836E-01  0.64160525534E-01  0.51100000000E-03 0.  1.
         11    1    4    4    0    0 -0.29365509773E-01 -0.52071657762E-01  0.25765115954E-01  0.65099101588E-01  0.51100000000E-03 0. -1.
</event>
<event>
 8    1  0.1075206E+005  0.1043930E+01  0.7957747E-01            NaN
         13   -1    0    0    0    0  0.00000000000E+00  0.00000000000E+00  0.74505805969E-08  0.10566000000E+00  0.10566000000E+00 0. -1.
     999900   -1    0    0    0    0 -0.00000000000E+00 -0.00000000000E+00 -0.74505805969E-08  0.93827000000E+00  0.93827000000E+00 0. -1.
     999902    2    1    2    0    0 -0.15286264575E-01  0.12275774144E-01 -0.19417945930E-01  0.10163361395E+01  0.10159614792E+01 0.  0.
     999903    2    3    3    0    0  0.24564511922E-01 -0.60584551298E-01  0.10341331481E+00  0.12393251439E+00  0.19775018115E-01 0.  0.
         14    1    1    2    0    0  0.15286264575E-01 -0.12275774144E-01  0.19417945930E-01  0.27593860542E-01  0.00000000000E+00 0. -1.
     999901    1    3    3    0    0 -0.39850776497E-01  0.72860325442E-01 -0.12283126074E+00  0.89240362506E+00  0.88000000000E+00 0. -1.
        -11    1    4    4    0    0  0.11344197593E-01 -0.32451360907E-01  0.36461156052E-01  0.50114455653E-01  0.51100000000E-03 0. -1.
         11    1    4    4    0    0  0.13220314329E-01 -0.28133190391E-01  0.66952158761E-01  0.73818058741E-01  0.51100000000E-03 0.  1.
</event>
<event>
 8    1  0.1075206E+005  0.1043930E+01  0.7957747E-01            NaN
         13   -1    0    0    0    0  0.00000000000E+00  0.00000000000E+00  0.74505805969E-08  0.10566000000E+00  0.10566000000E+00 0.  1.
     999900   -1    0    0    0    0 -0.00000000000E+00 -0.00000000000E+00 -0.74505805969E-08  0.93827000000E+00  0.93827000000E+00 0.  1.
     999902    2    1    2    0    0 -0.20681936068E-01  0.34983180454E-02 -0.45859369419E-02  0.10224588210E+01  0.10222333536E+01 0.  0.
     999903    2    3    3    0    0 -0.12418752013E+00 -0.47306089962E-01 -0.12669260396E-01  0.13490046581E+00  0.19422132026E-01 0.  0.
         14    1    1    2    0    0  0.20681936068E-01 -0.34983180454E-02  0.45859369419E-02  0.21471178968E-01  0.00000000000E+00 0. -1.
     999901    1    3    3    0    0  0.10350558407E+00  0.50804408007E-01  0.80833234542E-02  0.88755835522E+00  0.88000000000E+00 0.  1.
        -11    1    4    4    0    0 -0.39749728567E-01 -0.12030030848E-01 -0.12551877344E-01  0.43388631105E-01  0.51100000000E-03 0.  1.
         11    1    4    4    0    0 -0.84437791567E-01 -0.35276059114E-01 -0.11738305224E-03  0.91511834705E-01  0.51100000000E-03 0. -1.
</event>
<event>
 8    1  0.1075206E+005  0.1043930E+01  0.7957747E-01            NaN
         13   -1    0    0    0    0  0.00000000000E+00  0.00000000000E+00  0.74505805969E-08  0.10566000000E+00  0.10566000000E+00 0.  1.
     999900   -1    0    0    0    0 -0.00000000000E+00 -0.00000000000E+00 -0.74505805969E-08  0.93827000000E+00  0.93827000000E+00 0. -1.
     999902    2    1    2    0    0 -0.15254220427E-01  0.88636785570E-02  0.14186475318E-01  0.10212912695E+01  0.10210403248E+01 0.  0.
     999903    2    3    3    0    0  0.98254649669E-01  0.41566897118E-01 -0.70148022372E-01  0.12940222278E+00  0.21033475692E-01 0.  0.
         14    1    1    2    0    0  0.15254220427E-01 -0.88636785570E-02 -0.14186475318E-01  0.22638730537E-01  0.00000000000E+00 0. -1.
     999901    1    3    3    0    0 -0.11350887010E+00 -0.32703218561E-01  0.84334497690E-01  0.89188904668E+00  0.88000000000E+00 0. -1.
        -11    1    4    4    0    0  0.23274607763E-01  0.17135745368E-01 -0.11442947389E-01  0.31089279531E-01  0.51100000000E-03 0.  1.
         11    1    4    4    0    0  0.74980041906E-01  0.24431151750E-01 -0.58705074984E-01  0.98312943247E-01  0.51100000000E-03 0. -1.
</event>
<event>
 8    1  0.1075206E+005  0.1043930E+01  0.7957747E-01            NaN
         13   -1    0    0    0    0  0.00000000000E+00  0.00000000000E+00  0.74505805969E-08  0.10566000000E+00  0.10566000000E+00 0. -1.
     999900   -1    0    0    0    0 -0.00000000000E+00 -0.00000000000E+00 -0.74505805969E-08  0.93827000000E+00  0.93827000000E+00 0. -1.
     999902    2    1    2    0    0 -0.17185880765E-01  0.12925385694E-01 -0.66168723328E-02  0.10214310424E+01  0.10211832212E+01 0.  0.
     999903    2    3    3    0    0 -0.13083197993E+00  0.15762708781E-01  0.13770728447E-01  0.13388434476E+00  0.19233170532E-01 0.  0.
         14    1    1    2    0    0  0.17185880765E-01 -0.12925385694E-01  0.66168723328E-02  0.22498957587E-01  0.00000000000E+00 0. -1.
     999901    1    3    3    0    0  0.11364609916E+00 -0.28373230862E-02 -0.20387600780E-01  0.88754669766E+00  0.88000000000E+00 0.  1.
        -11    1    4    4    0    0 -0.34488888411E-01 -0.38952788901E-02  0.97330001492E-03  0.34725567747E-01  0.51100000000E-03 0.  1.
         11    1    4    4    0    0 -0.96343091517E-01  0.19657987671E-01  0.12797428432E-01  0.99158777009E-01  0.51100000000E-03 0. -1.
</event>
<event>
 8    1  0.1075206E+005  0.1043930E+01  0.7957747E-01            NaN
         13   -1    0    0    0    0  0.00000000000E+00  0.00000000000E+00  0.74505805969E-08  0.10566000000E+00  0.10566000000E+00 0. -1.
     999900   -1    0    0    0    0 -0.00000000000E+00 -0.00000000000E+00 -0.74505805969E-08  0.93827000000E+00  0.93827000000E+00 0.  1.
     999902    2    1    2    0    0  0.41860528074E-02  0.22413791674E-01  0.55184949575E-02  0.10204703563E+01  0.10202006632E+01 0.  0.
     999903    2    3    3    0    0  0.10941893365E+00  0.14822613266E-01 -0.67905764670E-01  0.13113200276E+00  0.19803948243E-01 0.  0.
         14    1    1    2    0    0 -0.41860528074E-02 -0.22413791674E-01 -0.55184949575E-02  0.23459643687E-01  0.00000000000E+00 0. -1.
     999901    1    3    3    0    0 -0.10523288085E+00  0.75911784077E-02  0.73424259628E-01  0.88933835355E+00  0.88000000000E+00 0.  1.
        -11    1    4    4    0    0  0.81704610687E-01  0.18484004938E-01 -0.55863908755E-01  0.10068932053E+00  0.51100000000E-03 0.  1.
         11    1    4    4    0    0  0.27714322968E-01 -0.36613916718E-02 -0.12041855916E-01  0.30442682231E-01  0.51100000000E-03 0. -1.
</event>
<event>
 8    1  0.1075206E+005  0.1043930E+01  0.7957747E-01            NaN
         13   -1    0    0    0    0  0.00000000000E+00  0.00000000000E+00  0.74505805969E-08  0.10566000000E+00  0.10566000000E+00 0.  1.
     999900   -1    0    0    0    0 -0.00000000000E+00 -0.00000000000E+00 -0.74505805969E-08  0.93827000000E+00  0.93827000000E+00 0.  1.
     999902    2    1    2    0    0  0.11548283234E-01  0.21393036704E-01  0.10698982959E-02  0.10195954660E+01  0.10193050302E+01 0.  0.
     999903    2    3    3    0    0 -0.39070667213E-01  0.25215779574E-01 -0.11920711469E+00  0.12996438996E+00  0.22760797202E-01 0.  0.
         14    1    1    2    0    0 -0.11548283234E-01 -0.21393036704E-01 -0.10698982959E-02  0.24334534050E-01  0.00000000000E+00 0. -1.
     999901    1    3    3    0    0  0.50618950447E-01 -0.38227428701E-02  0.12027701299E+00  0.88963107599E+00  0.88000000000E+00 0. -1.
        -11    1    4    4    0    0 -0.16156656413E-01  0.17857457091E-01 -0.35768187221E-01  0.43122507560E-01  0.51100000000E-03 0.  1.
         11    1    4    4    0    0 -0.22914010800E-01  0.73583224822E-02 -0.83438927472E-01  0.86841882404E-01  0.51100000000E-03 0. -1.
</event>
<event>
 8    1  0.1075206E+005  0.1043930E+01  0.7957747E-01            NaN
         13   -1    0    0    0    0  0.00000000000E+00  0.00000000000E+00  0.74505805969E-08  0.10566000000E+00  0.10566000000E+00 0.  1.
     999900   -1    0    0    0    0 -0.00000000000E+00 -0.00000000000E+00 -0.74505805969E-08  0.93827000000E+00  0.93827000000E+00 0.  1.
     999902    2    1    2    0    0 -0.31029608920E-01 -0.65517252192E-02  0.22502451618E-02  0.10121365205E+01  0.10116370450E+01 0.  0.
     999903    2    3    3    0    0  0.10189051959E+00  0.57121623135E-01 -0.13953956207E-01  0.11973267026E+00  0.22285457633E-01 0.  0.
         14    1    1    2    0    0  0.31029608920E-01  0.65517252192E-02 -0.22502451618E-02  0.31793479463E-01  0.00000000000E+00 0. -1.
     999901    1    3    3    0    0 -0.13292012851E+00 -0.63673348355E-01  0.16204201368E-01  0.89240385028E+00  0.88000000000E+00 0. -1.
        -11    1    4    4    0    0  0.40686313049E-01  0.35420429501E-01 -0.49832745766E-02  0.54176351318E-01  0.51100000000E-03 0. -1.
         11    1    4    4    0    0  0.61204206537E-01  0.21701193634E-01 -0.89706816299E-02  0.65556318940E-01  0.51100000000E-03 0.  1.
</event>
<event>
 8    1  0.1075206E+005  0.1043930E+01  0.7957747E-01            NaN
         13   -1    0    0    0    0  0.00000000000E+00  0.00000000000E+00  0.74505805969E-08  0.10566000000E+00  0.10566000000E+00 0. -1.
     999900   -1    0    0    0    0 -0.00000000000E+00 -0.00000000000E+00 -0.74505805969E-08  0.93827000000E+00  0.93827000000E+00 0. -1.
     999902    2    1    2    0    0  0.22006314992E-01  0.89080447224E-02  0.20872509405E-02  0.10200975059E+01  0.10198190691E+01 0.  0.
     999903    2    3    3    0    0 -0.45086348950E-01  0.28573638542E-01  0.11670318811E+00  0.12991495482E+00  0.20224482419E-01 0.  0.
         14    1    1    2    0    0 -0.22006314992E-01 -0.89080447224E-02 -0.20872509405E-02  0.23832494137E-01  0.00000000000E+00 0.  1.
     999901    1    3    3    0    0  0.67092663942E-01 -0.19665593820E-01 -0.11461593717E+00  0.89018255105E+00  0.88000000000E+00 0. -1.
        -11    1    4    4    0    0 -0.10740988975E-01 -0.19960782476E-02  0.26488572840E-01  0.28657613031E-01  0.51100000000E-03 0. -1.
         11    1    4    4    0    0 -0.34345359974E-01  0.30569716790E-01  0.90214615268E-01  0.10125734179E+00  0.51100000000E-03 0.  1.
</event>
<event>
 8    1  0.1075206E+005  0.1043930E+01  0.7957747E-01            NaN
         13   -1    0    0    0    0  0.00000000000E+00  0.00000000000E+00  0.74505805969E-08  0.10566000000E+00  0.10566000000E+00 0. -1.
     999900   -1    0    0    0    0 -0.00000000000E+00 -0.00000000000E+00 -0.74505805969E-08  0.93827000000E+00  0.93827000000E+00 0. -1.
     999902    2    1    2    0    0  0.14493296921E-01 -0.15358007585E-01 -0.11243746809E-01  0.10200062483E+01  0.10197256497E+01 0.  0.
     999903    2    3    3    0    0 -0.69679252887E-01  0.97952773849E-01 -0.40238471266E-01  0.12828597526E+00  0.19703113707E-01 0.  0.
         14    1    1    2    0    0 -0.14493296921E-01  0.15358007585E-01  0.11243746809E-01  0.23923751690E-01  0.00000000000E+00 0. -1.
     999901    1    3    3    0    0  0.84172549808E-01 -0.11331078143E+00  0.28994724457E-01  0.89172027305E+00  0.88000000000E+00 0. -1.
        -11    1    4    4    0    0 -0.30534296739E-01  0.44076108962E-01 -0.77260274496E-02  0.54175633634E-01  0.51100000000E-03 0. -1.
         11    1    4    4    0    0 -0.39144956149E-01  0.53876664887E-01 -0.32512443817E-01  0.74110341621E-01  0.51100000000E-03 0.  1.
</event>
<event>
 8    1  0.1075206E+005  0.1043930E+01  0.7957747E-01            NaN
         13   -1    0    0    0    0  0.00000000000E+00  0.00000000000E+00  0.74505805969E-08  0.10566000000E+00  0.10566000000E+00 0. -1.
     999900   -1    0    0    0    0 -0.00000000000E+00 -0.00000000000E+00 -0.74505805969E-08  0.93827000000E+00  0.93827000000E+00 0. -1.
     999902    2    1    2    0    0 -0.11747763061E-01 -0.52929427537E-02 -0.19589076349E-01  0.10204831006E+01  0.10202137038E+01 0.  0.
     999903    2    3    3    0    0  0.94004451995E-01  0.14729214081E-01  0.83147152499E-01  0.12799268020E+00  0.20368860422E-01 0.  0.
         14    1    1    2    0    0  0.11747763061E-01  0.52929427537E-02  0.19589076349E-01  0.23446899414E-01  0.00000000000E+00 0. -1.
     999901    1    3    3    0    0 -0.10575221506E+00 -0.20022156835E-01 -0.10273622885E+00  0.89249042038E+00  0.88000000000E+00 0. -1.
        -11    1    4    4    0    0  0.22878850937E-01  0.10493303159E-01  0.14509796559E-01  0.29057641828E-01  0.51100000000E-03 0.  1.
         11    1    4    4    0    0  0.71125601058E-01  0.42359109220E-02  0.68637355940E-01  0.98935038377E-01  0.51100000000E-03 0. -1.
</event>
<event>
 8    1  0.1075206E+005  0.1043930E+01  0.7957747E-01            NaN
         13   -1    0    0    0    0  0.00000000000E+00  0.00000000000E+00  0.74505805969E-08  0.10566000000E+00  0.10566000000E+00 0. -1.
     999900   -1    0    0    0    0 -0.00000000000E+00 -0.00000000000E+00 -0.74505805969E-08  0.93827000000E+00  0.93827000000E+00 0.  1.
     999902    2    1    2    0    0 -0.13224473947E-01 -0.17612755205E-01  0.83423590043E-02  0.10203781251E+01  0.10201062824E+01 0.  0.
     999903    2    3    3    0    0 -0.87854316707E-01 -0.90500816432E-01 -0.38469978824E-01  0.13298098861E+00  0.17182122142E-01 0.  0.
         14    1    1    2    0    0  0.13224473947E-01  0.17612755205E-01 -0.83423590043E-02  0.23551874890E-01  0.00000000000E+00 0. -1.
     999901    1    3    3    0    0  0.74629842760E-01  0.72888061227E-01  0.46812337828E-01  0.88739713650E+00  0.88000000000E+00 0.  1.
        -11    1    4    4    0    0 -0.64370547151E-01 -0.75006347441E-01 -0.33769290694E-01  0.10445164246E+00  0.51100000000E-03 0. -1.
         11    1    4    4    0    0 -0.23483769556E-01 -0.15494468991E-01 -0.47006881298E-02  0.28529346150E-01  0.51100000000E-03 0.  1.
</event>
<event>
 8    1  0.1075206E+005  0.1043930E+01  0.7957747E-01            NaN
         13   -1    0    0    0    0  0.00000000000E+00  0.00000000000E+00  0.74505805969E-08  0.10566000000E+00  0.10566000000E+00 0.  1.
     999900   -1    0    0    0    0 -0.00000000000E+00 -0.00000000000E+00 -0.74505805969E-08  0.93827000000E+00  0.93827000000E+00 0. -1.
     999902    2    1    2    0    0  0.95295357220E-02  0.22267707256E-01  0.14160388190E-02  0.10196675186E+01  0.10193788209E+01 0.  0.
     999903    2    3    3    0    0  0.22207479181E-01 -0.69776314310E-01  0.10469647874E+00  0.12876927446E+00  0.16070694221E-01 0.  0.
         14    1    1    2    0    0 -0.95295357220E-02 -0.22267707256E-01 -0.14160388190E-02  0.24262481395E-01  0.00000000000E+00 0.  1.
     999901    1    3    3    0    0 -0.12677943459E-01  0.92044021566E-01 -0.10328043992E+00  0.89089824415E+00  0.88000000000E+00 0. -1.
        -11    1    4    4    0    0  0.90137080689E-02 -0.11286467150E-01  0.14601734847E-01  0.20545146761E-01  0.51100000000E-03 0. -1.
         11    1    4    4    0    0  0.13193771113E-01 -0.58489847160E-01  0.90094743895E-01  0.10822412770E+00  0.51100000000E-03 0.  1.
</event>
<event>
 8    1  0.1075206E+005  0.1043930E+01  0.7957747E-01            NaN
         13   -1    0    0    0    0  0.00000000000E+00  0.00000000000E+00  0.74505805969E-08  0.10566000000E+00  0.10566000000E+00 0.  1.
     999900   -1    0    0    0    0 -0.00000000000E+00 -0.00000000000E+00 -0.74505805969E-08  0.93827000000E+00  0.93827000000E+00 0.  1.
     999902    2    1    2    0    0  0.14474769197E-01  0.17165595898E-01 -0.99372746039E-02  0.10193754474E+01  0.10190796714E+01 0.  0.
     999903    2    3    3    0    0 -0.49605939314E-02 -0.12278086362E+00 -0.28592444728E-01  0.12790993477E+00  0.21063607325E-01 0.  0.
         14    1    1    2    0    0 -0.14474769197E-01 -0.17165595898E-01  0.99372746039E-02  0.24554552580E-01  0.00000000000E+00 0.  1.
     999901    1    3    3    0    0  0.19435363129E-01  0.13994645952E+00  0.18655170124E-01  0.89146551265E+00  0.88000000000E+00 0. -1.
        -11    1    4    4    0    0 -0.92322164951E-03 -0.42782395721E-01 -0.20342747975E-01  0.47384324813E-01  0.51100000000E-03 0.  1.
         11    1    4    4    0    0 -0.40373722819E-02 -0.79998467900E-01 -0.82496967529E-02  0.80525609956E-01  0.51100000000E-03 0. -1.
</event>
<event>
 8    1  0.1075206E+005  0.1043930E+01  0.7957747E-01            NaN
         13   -1    0    0    0    0  0.00000000000E+00  0.00000000000E+00  0.74505805969E-08  0.10566000000E+00  0.10566000000E+00 0.  1.
     999900   -1    0    0    0    0 -0.00000000000E+00 -0.00000000000E+00 -0.74505805969E-08  0.93827000000E+00  0.93827000000E+00 0.  1.
     999902    2    1    2    0    0 -0.10998489281E-01 -0.15647302606E-01 -0.23161728957E-01  0.10138921816E+01  0.10134471300E+01 0.  0.
     999903    2    3    3    0    0  0.34429716288E-01  0.93683692018E-01 -0.72110812087E-01  0.12461550870E+00  0.19157668820E-01 0.  0.
         14    1    1    2    0    0  0.10998489281E-01  0.15647302606E-01  0.23161728957E-01  0.30037818389E-01  0.00000000000E+00 0.  1.
     999901    1    3    3    0    0 -0.45428205569E-01 -0.10933099462E+00  0.48949083130E-01  0.88927667291E+00  0.88000000000E+00 0. -1.
        -11    1    4    4    0    0  0.33293632825E-01  0.84935455890E-01 -0.71214682502E-01  0.11573370200E+00  0.51100000000E-03 0. -1.
         11    1    4    4    0    0  0.11360834628E-02  0.87482361279E-02 -0.89612958476E-03  0.88818066978E-02  0.51100000000E-03 0.  1.
</event>
<event>
 8    1  0.1075206E+005  0.1043930E+01  0.7957747E-01            NaN
         13   -1    0    0    0    0  0.00000000000E+00  0.00000000000E+00  0.74505805969E-08  0.10566000000E+00  0.10566000000E+00 0. -1.
     999900   -1    0    0    0    0 -0.00000000000E+00 -0.00000000000E+00 -0.74505805969E-08  0.93827000000E+00  0.93827000000E+00 0.  1.
     999902    2    1    2    0    0 -0.34286600343E-02  0.53172184488E-03  0.23137667648E-01  0.10205336306E+01  0.10202654072E+01 0.  0.
     999903    2    3    3    0    0 -0.56015129743E-01  0.58603009436E-01  0.10456885941E+00  0.13330837721E+00  0.16262521335E-01 0.  0.
         14    1    1    2    0    0  0.34286600343E-02 -0.53172184488E-03 -0.23137667648E-01  0.23396369418E-01  0.00000000000E+00 0.  1.
     999901    1    3    3    0    0  0.52586469709E-01 -0.58071287591E-01 -0.81431191760E-01  0.88722525338E+00  0.88000000000E+00 0.  1.
        -11    1    4    4    0    0 -0.23282137472E-01  0.29769433567E-01  0.60230263814E-01  0.71107122711E-01  0.51100000000E-03 0. -1.
         11    1    4    4    0    0 -0.32732992271E-01  0.28833575869E-01  0.44338595594E-01  0.62201254494E-01  0.51100000000E-03 0.  1.
</event>
<event>
 8    1  0.1075206E+005  0.1043930E+01  0.7957747E-01            NaN
         13   -1    0    0    0    0  0.00000000000E+00  0.00000000000E+00  0.74505805969E-08  0.10566000000E+00  0.10566000000E+00 0. -1.
     999900   -1    0    0    0    0 -0.00000000000E+00 -0.00000000000E+00 -0.74505805969E-08  0.93827000000E+00  0.93827000000E+00 0. -1.
     999902    2    1    2    0    0 -0.19337844942E-01  0.74393801362E-02  0.11847076783E-01  0.10200626614E+01  0.10197834002E+01 0.  0.
     999903    2    3    3    0    0  0.32781787250E-01 -0.11332172556E+00  0.49662310859E-01  0.12948437026E+00  0.19580550609E-01 0.  0.
         14    1    1    2    0    0  0.19337844942E-01 -0.74393801362E-02 -0.11847076783E-01  0.23867338606E-01  0.00000000000E+00 0.  1.
     999901    1    3    3    0    0 -0.52119632193E-01  0.12076110570E+00 -0.37815234076E-01  0.89057829113E+00  0.88000000000E+00 0. -1.
        -11    1    4    4    0    0  0.10264780660E-01 -0.45503607599E-01  0.98363368024E-02  0.47675556307E-01  0.51100000000E-03 0. -1.
         11    1    4    4    0    0  0.22517006590E-01 -0.67818117964E-01  0.39825974056E-01  0.81808813953E-01  0.51100000000E-03 0.  1.
</event>
<event>
 8    1  0.1075206E+005  0.1043930E+01  0.7957747E-01            NaN
         13   -1    0    0    0    0  0.00000000000E+00  0.00000000000E+00  0.74505805969E-08  0.10566000000E+00  0.10566000000E+00 0. -1.
     999900   -1    0    0    0    0 -0.00000000000E+00 -0.00000000000E+00 -0.74505805969E-08  0.93827000000E+00  0.93827000000E+00 0. -1.
     999902    2    1    2    0    0  0.62052629293E-02 -0.10735689351E-01  0.19996641988E-01  0.10204007415E+01  0.10201294267E+01 0.  0.
     999903    2    3    3    0    0  0.58424095944E-01 -0.10325065282E+00  0.56341083844E-01  0.13326673617E+00  0.22619304740E-01 0.  0.
         14    1    1    2    0    0 -0.62052629293E-02  0.10735689351E-01 -0.19996641988E-01  0.23529258481E-01  0.00000000000E+00 0.  1.
     999901    1    3    3    0    0 -0.52218833015E-01  0.92514963469E-01 -0.36344441856E-01  0.88713400535E+00  0.88000000000E+00 0. -1.
        -11    1    4    4    0    0  0.47863916518E-01 -0.66480981219E-01  0.44446098351E-01  0.93200816241E-01  0.51100000000E-03 0.  1.
         11    1    4    4    0    0  0.10560179425E-01 -0.36769671601E-01  0.11894985493E-01  0.40065919933E-01  0.51100000000E-03 0. -1.
</event>
<event>
 8    1  0.1075206E+005  0.1043930E+01  0.7957747E-01            NaN
         13   -1    0    0    0    0  0.00000000000E+00  0.00000000000E+00  0.74505805969E-08  0.10566000000E+00  0.10566000000E+00 0. -1.
     999900   -1    0    0    0    0 -0.00000000000E+00 -0.00000000000E+00 -0.74505805969E-08  0.93827000000E+00  0.93827000000E+00 0. -1.
     999902    2    1    2    0    0 -0.16604972657E-01  0.12486202881E-01  0.11262255825E-01  0.10202980558E+01  0.10200243399E+01 0.  0.
     999903    2    3    3    0    0 -0.89324963530E-01  0.19876227834E-01 -0.91946744071E-01  0.13125648919E+00  0.20001216629E-01 0.  0.
         14    1    1    2    0    0  0.16604972657E-01 -0.12486202881E-01 -0.11262255825E-01  0.23631944177E-01  0.00000000000E+00 0.  1.
     999901    1    3    3    0    0  0.72719990873E-01 -0.73900249528E-02  0.10320899990E+00  0.88904156663E+00  0.88000000000E+00 0.  1.
        -11    1    4    4    0    0 -0.42473638550E-01 -0.61054170342E-03 -0.43896903047E-01  0.61086675724E-01  0.51100000000E-03 0.  1.
         11    1    4    4    0    0 -0.46851324980E-01  0.20486769537E-01 -0.48049841023E-01  0.70169813466E-01  0.51100000000E-03 0. -1.
</event>
<event>
 8    1  0.1075206E+005  0.1043930E+01  0.7957747E-01            NaN
         13   -1    0    0    0    0  0.00000000000E+00  0.00000000000E+00  0.74505805969E-08  0.10566000000E+00  0.10566000000E+00 0.  1.
     999900   -1    0    0    0    0 -0.00000000000E+00 -0.00000000000E+00 -0.74505805969E-08  0.93827000000E+00  0.93827000000E+00 0. -1.
     999902    2    1    2    0    0 -0.91110134237E-02 -0.10575467938E-01  0.19136393775E-01  0.10202434499E+01  0.10199684527E+01 0.  0.
     999903    2    3    3    0    0  0.90692559485E-01  0.81922673983E-01  0.37814869528E-01  0.12958889013E+00  0.20660378264E-01 0.  0.
         14    1    1    2    0    0  0.91110134237E-02  0.10575467938E-01 -0.19136393775E-01  0.23686550074E-01  0.00000000000E+00 0. -1.
     999901    1    3    3    0    0 -0.99803572909E-01 -0.92498141921E-01 -0.18678475753E-01  0.89065455979E+00  0.88000000000E+00 0. -1.
        -11    1    4    4    0    0  0.26490933416E-01  0.25735469850E-01  0.17990176858E-02  0.36980826752E-01  0.51100000000E-03 0.  1.
         11    1    4    4    0    0  0.64201626069E-01  0.56187204133E-01  0.36015851842E-01  0.92608063380E-01  0.51100000000E-03 0. -1.
</event>
<event>
 8    1  0.1075206E+005  0.1043930E+01  0.7957747E-01            NaN
         13   -1    0    0    0    0  0.00000000000E+00  0.00000000000E+00  0.74505805969E-08  0.10566000000E+00  0.10566000000E+00 0. -1.
     999900   -1    0    0    0    0 -0.00000000000E+00 -0.00000000000E+00 -0.74505805969E-08  0.93827000000E+00  0.93827000000E+00 0. -1.
     999902    2    1    2    0    0  0.20770246971E-01  0.10371812085E-01  0.55459216278E-02  0.10200608800E+01  0.10197815766E+01 0.  0.
     999903    2    3    3    0    0  0.12211331897E+00 -0.46575149828E-01 -0.36884986019E-02  0.13236799994E+00  0.20658536599E-01 0.  0.
         14    1    1    2    0    0 -0.20770246971E-01 -0.10371812085E-01 -0.55459216278E-02  0.23869120048E-01  0.00000000000E+00 0.  1.
     999901    1    3    3    0    0 -0.10134307200E+00  0.56946961912E-01  0.92344202297E-02  0.88769288002E+00  0.88000000000E+00 0. -1.
        -11    1    4    4    0    0  0.84520892891E-01 -0.25444383594E-01  0.48549509366E-02  0.88402656415E-01  0.51100000000E-03 0.  1.
         11    1    4    4    0    0  0.37592426077E-01 -0.21130766234E-01 -0.85434495386E-02  0.43965343522E-01  0.51100000000E-03 0. -1.
</event>
<event>
 8    1  0.1075206E+005  0.1043930E+01  0.7957747E-01            NaN
         13   -1    0    0    0    0  0.00000000000E+00  0.00000000000E+00  0.74505805969E-08  0.10566000000E+00  0.10566000000E+00 0. -1.
     999900   -1    0    0    0    0 -0.00000000000E+00 -0.00000000000E+00 -0.74505805969E-08  0.93827000000E+00  0.93827000000E+00 0.  1.
     999902    2    1    2    0    0 -0.85596036929E-02  0.11955705561E-01  0.17758911681E-01  0.10208738803E+01  0.10206134895E+01 0.  0.
     999903    2    3    3    0    0  0.11762259515E+00  0.17500831902E-01 -0.47252553492E-01  0.12948216713E+00  0.19785696501E-01 0.  0.
         14    1    1    2    0    0  0.85596036929E-02 -0.11955705561E-01 -0.17758911681E-01  0.23056119685E-01  0.00000000000E+00 0.  1.
     999901    1    3    3    0    0 -0.12618219884E+00 -0.55451263403E-02  0.65011465173E-01  0.89139171319E+00  0.88000000000E+00 0.  1.
        -11    1    4    4    0    0  0.67242848432E-01  0.14685263799E-03 -0.27529334513E-01  0.72661871781E-01  0.51100000000E-03 0. -1.
         11    1    4    4    0    0  0.50379746718E-01  0.17353979264E-01 -0.19723218980E-01  0.56820295349E-01  0.51100000000E-03 0.  1.
</event>
<event>
 8    1  0.1075206E+005  0.1043930E+01  0.7957747E-01            NaN
         13   -1    0    0    0    0  0.00000000000E+00  0.00000000000E+00  0.74505805969E-08  0.10566000000E+00  0.10566000000E+00 0.  1.
     999900   -1    0    0    0    0 -0.00000000000E+00 -0.00000000000E+00 -0.74505805969E-08  0.93827000000E+00  0.93827000000E+00 0. -1.
     999902    2    1    2    0    0  0.23671113318E-01 -0.35329919966E-02  0.45903037941E-02  0.10195604590E+01  0.10192691770E+01 0.  0.
     999903    2    3    3    0    0  0.79357247713E-01 -0.72220892410E-01  0.74924799783E-01  0.13233674736E+00  0.19643294369E-01 0.  0.
         14    1    1    2    0    0 -0.23671113318E-01  0.35329919966E-02 -0.45903037941E-02  0.24369540970E-01  0.00000000000E+00 0.  1.
     999901    1    3    3    0    0 -0.55686134395E-01  0.68687900414E-01 -0.70334495989E-01  0.88722371167E+00  0.88000000000E+00 0.  1.
        -11    1    4    4    0    0  0.82155007864E-02 -0.68606631131E-02  0.15734841496E-01  0.19037056217E-01  0.51100000000E-03 0. -1.
         11    1    4    4    0    0  0.71141746926E-01 -0.65360229297E-01  0.59189958287E-01  0.11329969114E+00  0.51100000000E-03 0.  1.
</event>
<event>
 8    1  0.1075206E+005  0.1043930E+01  0.7957747E-01            NaN
         13   -1    0    0    0    0  0.00000000000E+00  0.00000000000E+00  0.74505805969E-08  0.10566000000E+00  0.10566000000E+00 0.  1.
     999900   -1    0    0    0    0 -0.00000000000E+00 -0.00000000000E+00 -0.74505805969E-08  0.93827000000E+00  0.93827000000E+00 0.  1.
     999902    2    1    2    0    0  0.20656266688E-01  0.46412097933E-02  0.10707274013E-01  0.10202051628E+01  0.10199292654E+01 0.  0.
     999903    2    3    3    0    0  0.11198634977E-01  0.70547003167E-01 -0.10637013883E+00  0.12995792695E+00  0.21729410056E-01 0.  0.
         14    1    1    2    0    0 -0.20656266688E-01 -0.46412097933E-02 -0.10707274013E-01  0.23724837167E-01  0.00000000000E+00 0. -1.
     999901    1    3    3    0    0  0.94576317107E-02 -0.65905793374E-01  0.11707741284E+00  0.89024723588E+00  0.88000000000E+00 0. -1.
        -11    1    4    4    0    0 -0.42729054421E-02  0.31308651263E-01 -0.35903807724E-01  0.47831306640E-01  0.51100000000E-03 0. -1.
         11    1    4    4    0    0  0.15471540419E-01  0.39238351904E-01 -0.70466331105E-01  0.82126620310E-01  0.51100000000E-03 0.  1.
</event>
<event>
 8    1  0.1075206E+005  0.1043930E+01  0.7957747E-01            NaN
         13   -1    0    0    0    0  0.00000000000E+00  0.00000000000E+00  0.74505805969E-08  0.10566000000E+00  0.10566000000E+00 0.  1.
     999900   -1    0    0    0    0 -0.00000000000E+00 -0.00000000000E+00 -0.74505805969E-08  0.93827000000E+00  0.93827000000E+00 0.  1.
     999902    2    1    2    0    0  0.22267646842E-01 -0.44115970977E-02  0.42474687754E-02  0.10208356008E+01  0.10205743346E+01 0.  0.
     999903    2    3    3    0    0  0.12095327979E+00 -0.49220496344E-01 -0.21519704897E-01  0.13381212935E+00  0.19754369413E-01 0.  0.
         14    1    1    2    0    0 -0.22267646842E-01  0.44115970977E-02 -0.42474687754E-02  0.23094399231E-01  0.00000000000E+00 0. -1.
     999901    1    3    3    0    0 -0.98685632949E-01  0.44808899246E-01  0.25767173673E-01  0.88702347142E+00  0.88000000000E+00 0. -1.
        -11    1    4    4    0    0  0.82140834757E-01 -0.40742503254E-01 -0.88865191763E-02  0.92121114030E-01  0.51100000000E-03 0.  1.
         11    1    4    4    0    0  0.38812445033E-01 -0.84779930903E-02 -0.12633185721E-01  0.41691015324E-01  0.51100000000E-03 0. -1.
</event>
<event>
 8    1  0.1075206E+005  0.1043930E+01  0.7957747E-01            NaN
         13   -1    0    0    0    0  0.00000000000E+00  0.00000000000E+00  0.74505805969E-08  0.10566000000E+00  0.10566000000E+00 0. -1.
     999900   -1    0    0    0    0 -0.00000000000E+00 -0.00000000000E+00 -0.74505805969E-08  0.93827000000E+00  0.93827000000E+00 0. -1.
     999902    2    1    2    0    0 -0.22215229732E-01  0.22152371531E-02  0.14869389442E-01  0.10171060844E+01  0.10167523122E+01 0.  0.
     999903    2    3    3    0    0  0.79313078970E-01 -0.22305285232E-01  0.94559456276E-01  0.12735344445E+00  0.22120551444E-01 0.  0.
         14    1    1    2    0    0  0.22215229732E-01 -0.22152371531E-02 -0.14869389442E-01  0.26823915637E-01  0.00000000000E+00 0.  1.
     999901    1    3    3    0    0 -0.10152830870E+00  0.24520522385E-01 -0.79690066834E-01  0.88975263992E+00  0.88000000000E+00 0. -1.
        -11    1    4    4    0    0  0.69908872419E-01 -0.13555207484E-01  0.71264129548E-01  0.10074637152E+00  0.51100000000E-03 0. -1.
         11    1    4    4    0    0  0.94042065511E-02 -0.87500777478E-02  0.23295326729E-01  0.26607072929E-01  0.51100000000E-03 0.  1.
</event>
<event>
 8    1  0.1075206E+005  0.1043930E+01  0.7957747E-01            NaN
         13   -1    0    0    0    0  0.00000000000E+00  0.00000000000E+00  0.74505805969E-08  0.10566000000E+00  0.10566000000E+00 0. -1.
     999900   -1    0    0    0    0 -0.00000000000E+00 -0.00000000000E+00 -0.74505805969E-08  0.93827000000E+00  0.93827000000E+00 0. -1.
     999902    2    1    2    0    0  0.16993648599E-01 -0.12149507962E-01  0.48403663281E-02  0.10224864979E+01  0.10222616175E+01 0.  0.
     999903    2    3    3    0    0  0.45676298859E-01 -0.50220955377E-01  0.11430407454E+00  0.13442431935E+00  0.19899938201E-01 0.  0.
         14    1    1    2    0    0 -0.16993648599E-01  0.12149507962E-01 -0.48403663281E-02  0.21443502107E-01  0.00000000000E+00 0. -1.
     999901    1    3    3    0    0 -0.28682650260E-01  0.38071447415E-01 -0.10946370821E+00  0.88806217854E+00  0.88000000000E+00 0. -1.
        -11    1    4    4    0    0  0.13160784243E-01 -0.22225027780E-01  0.59136705429E-01  0.64533473111E-01  0.51100000000E-03 0.  1.
         11    1    4    4    0    0  0.32515514616E-01 -0.27995927597E-01  0.55167369113E-01  0.69890846244E-01  0.51100000000E-03 0. -1.
</event>
<event>
 8    1  0.1075206E+005  0.1043930E+01  0.7957747E-01            NaN
         13   -1    0    0    0    0  0.00000000000E+00  0.00000000000E+00  0.74505805969E-08  0.10566000000E+00  0.10566000000E+00 0. -1.
     999900   -1    0    0    0    0 -0.00000000000E+00 -0.00000000000E+00 -0.74505805969E-08  0.93827000000E+00  0.93827000000E+00 0. -1.
     999902    2    1    2    0    0 -0.16587520190E-01  0.11816400076E-01 -0.10389333221E-01  0.10210671178E+01  0.10208111224E+01 0.  0.
     999903    2    3    3    0    0 -0.12912280064E+00  0.20990811371E-01 -0.19215211295E-01  0.13380940143E+00  0.20552852817E-01 0.  0.
         14    1    1    2    0    0  0.16587520190E-01 -0.11816400076E-01  0.10389333221E-01  0.22862882181E-01  0.00000000000E+00 0. -1.
     999901    1    3    3    0    0  0.11253528045E+00 -0.91744112948E-02  0.88258780734E-02  0.88725771639E+00  0.88000000000E+00 0. -1.
        -11    1    4    4    0    0 -0.23389831176E-01 -0.12343506843E-02 -0.96652522919E-02  0.25343362975E-01  0.51100000000E-03 0.  1.
         11    1    4    4    0    0 -0.10573296946E+00  0.22225162055E-01 -0.95499590026E-02  0.10846603845E+00  0.51100000000E-03 0. -1.
</event>
<event>
 8    1  0.1075206E+005  0.1043930E+01  0.7957747E-01            NaN
         13   -1    0    0    0    0  0.00000000000E+00  0.00000000000E+00  0.74505805969E-08  0.10566000000E+00  0.10566000000E+00 0. -1.
     999900   -1    0    0    0    0 -0.00000000000E+00 -0.00000000000E+00 -0.74505805969E-08  0.93827000000E+00  0.93827000000E+00 0. -1.
     999902    2    1    2    0    0 -0.35764975423E-02 -0.17170925908E-01  0.15303718728E-01  0.10206526325E+01  0.10203871620E+01 0.  0.
     999903    2    3    3    0    0  0.12507582008E+00  0.27302484990E-01 -0.87963840653E-02  0.12986078360E+00  0.19926371685E-01 0.  0.
         14    1    1    2    0    0  0.35764975423E-02  0.17170925908E-01 -0.15303718728E-01  0.23277367508E-01  0.00000000000E+00 0.  1.
     999901    1    3    3    0    0 -0.12865231762E+00 -0.44473410898E-01  0.24100102793E-01  0.89079184890E+00  0.88000000000E+00 0. -1.
        -11    1    4    4    0    0  0.10391828969E+00  0.25527208521E-01 -0.14197701611E-01  0.10794667738E+00  0.51100000000E-03 0. -1.
         11    1    4    4    0    0  0.21157530392E-01  0.17752764692E-02  0.54013175455E-02  0.21914106211E-01  0.51100000000E-03 0.  1.
</event>
<event>
 8    1  0.1075206E+005  0.1043930E+01  0.7957747E-01            NaN
         13   -1    0    0    0    0  0.00000000000E+00  0.00000000000E+00  0.74505805969E-08  0.10566000000E+00  0.10566000000E+00 0.  1.
     999900   -1    0    0    0    0 -0.00000000000E+00 -0.00000000000E+00 -0.74505805969E-08  0.93827000000E+00  0.93827000000E+00 0. -1.
     999902    2    1    2    0    0 -0.33248079321E-02 -0.21715631111E-01  0.72717118259E-02  0.10207891103E+01  0.10205267792E+01 0.  0.
     999903    2    3    3    0    0 -0.73267141741E-01  0.91767850043E-01 -0.49397365915E-01  0.12894729984E+00  0.19947280901E-01 0.  0.
         14    1    1    2    0    0  0.33248079321E-02  0.21715631111E-01 -0.72717118259E-02  0.23140889680E-01  0.00000000000E+00 0. -1.
     999901    1    3    3    0    0  0.69942333809E-01 -0.11348348115E+00  0.56669077741E-01  0.89184181048E+00  0.88000000000E+00 0.  1.
        -11    1    4    4    0    0 -0.12818961469E-01  0.15085076857E-01 -0.65640749055E-03  0.19813563756E-01  0.51100000000E-03 0. -1.
         11    1    4    4    0    0 -0.60448180272E-01  0.76682773187E-01 -0.48740958425E-01  0.10913373608E+00  0.51100000000E-03 0.  1.
</event>
<event>
 8    1  0.1075206E+005  0.1043930E+01  0.7957747E-01            NaN
         13   -1    0    0    0    0  0.00000000000E+00  0.00000000000E+00  0.74505805969E-08  0.10566000000E+00  0.10566000000E+00 0.  1.
     999900   -1    0    0    0    0 -0.00000000000E+00 -0.00000000000E+00 -0.74505805969E-08  0.93827000000E+00  0.93827000000E+00 0.  1.
     999902    2    1    2    0    0 -0.59777639995E-02  0.20914916606E-01  0.76428002393E-02  0.10208739857E+01  0.10206135973E+01 0.  0.
     999903    2    3    3    0    0  0.33945883232E-01 -0.10521574782E+00  0.63667548050E-01  0.12922292477E+00  0.20550694291E-01 0.  0.
         14    1    1    2    0    0  0.59777639995E-02 -0.20914916606E-01 -0.76428002393E-02  0.23056014282E-01  0.00000000000E+00 0.  1.
     999901    1    3    3    0    0 -0.39923647232E-01  0.12613066442E+00 -0.56024747810E-01  0.89165106094E+00  0.88000000000E+00 0. -1.
        -11    1    4    4    0    0  0.11655835648E-01 -0.64591662222E-01  0.43104567420E-01  0.78525194599E-01  0.51100000000E-03 0. -1.
         11    1    4    4    0    0  0.22290047585E-01 -0.40624085593E-01  0.20562980629E-01  0.50697730175E-01  0.51100000000E-03 0.  1.
</event>
<event>
 8    1  0.1075206E+005  0.1043930E+01  0.7957747E-01            NaN
         13   -1    0    0    0    0  0.00000000000E+00  0.00000000000E+00  0.74505805969E-08  0.10566000000E+00  0.10566000000E+00 0. -1.
     999900   -1    0    0    0    0 -0.00000000000E+00 -0.00000000000E+00 -0.74505805969E-08  0.93827000000E+00  0.93827000000E+00 0.  1.
     999902    2    1    2    0    0  0.23865335850E-01  0.69401882165E-02  0.78629407156E-02  0.10178618910E+01  0.10175280256E+01 0.  0.
     999903    2    3    3    0    0  0.11060352006E+00  0.67822688270E-01 -0.47974803989E-02  0.13141365360E+00  0.20334129952E-01 0.  0.
         14    1    1    2    0    0 -0.23865335850E-01 -0.69401882165E-02 -0.78629407156E-02  0.26068108954E-01  0.00000000000E+00 0.  1.
     999901    1    3    3    0    0 -0.86738184206E-01 -0.60882500054E-01  0.12660421114E-01  0.88644823745E+00  0.88000000000E+00 0. -1.
        -11    1    4    4    0    0  0.73638847134E-01  0.53700005557E-01  0.24879228209E-02  0.91174674582E-01  0.51100000000E-03 0. -1.
         11    1    4    4    0    0  0.36964672922E-01  0.14122682713E-01 -0.72854032198E-02  0.40238979017E-01  0.51100000000E-03 0.  1.
</event>
<event>
 8    1  0.1075206E+005  0.1043930E+01  0.7957747E-01            NaN
         13   -1    0    0    0    0  0.00000000000E+00  0.00000000000E+00  0.74505805969E-08  0.10566000000E+00  0.10566000000E+00 0.  1.
     999900   -1    0    0    0    0 -0.00000000000E+00 -0.00000000000E+00 -0.74505805969E-08  0.93827000000E+00  0.93827000000E+00 0.  1.
     999902    2    1    2    0    0 -0.37837818147E-02  0.83796114663E-02 -0.22324196373E-01  0.10197865819E+01  0.10195007445E+01 0.  0.
     999903    2    3    3    0    0  0.52144065144E-01  0.70477347643E-02  0.11424047130E+00  0.12749761167E+00  0.20882566961E-01 0.  0.
         14    1    1    2    0    0  0.37837818147E-02 -0.83796114663E-02  0.22324196373E-01  0.24143418085E-01  0.00000000000E+00 0.  1.
     999901    1    3    3    0    0 -0.55927846959E-01  0.13318767020E-02 -0.13656466768E+00  0.89228897024E+00  0.88000000000E+00 0.  1.
        -11    1    4    4    0    0  0.10036659199E-01  0.30210434841E-02  0.46216238945E-01  0.47392648110E-01  0.51100000000E-03 0. -1.
         11    1    4    4    0    0  0.42107405945E-01  0.40266912802E-02  0.68024232359E-01  0.80104963561E-01  0.51100000000E-03 0.  1.
</event>
<event>
 8    1  0.1075206E+005  0.1043930E+01  0.7957747E-01            NaN
         13   -1    0    0    0    0  0.00000000000E+00  0.00000000000E+00  0.74505805969E-08  0.10566000000E+00  0.10566000000E+00 0.  1.
     999900   -1    0    0    0    0 -0.00000000000E+00 -0.00000000000E+00 -0.74505805969E-08  0.93827000000E+00  0.93827000000E+00 0.  1.
     999902    2    1    2    0    0  0.12837728878E-01 -0.19366237311E-01 -0.94783163656E-03  0.10206758216E+01  0.10204108858E+01 0.  0.
     999903    2    3    3    0    0  0.10843121949E+00 -0.66403867216E-01  0.35360780966E-01  0.13350674555E+00  0.20170853591E-01 0.  0.
         14    1    1    2    0    0 -0.12837728878E-01  0.19366237311E-01  0.94783163656E-03  0.23254178445E-01  0.00000000000E+00 0. -1.
     999901    1    3    3    0    0 -0.95593490614E-01  0.47037629905E-01 -0.36308612602E-01  0.88716907601E+00  0.88000000000E+00 0.  1.
        -11    1    4    4    0    0  0.51575320261E-01 -0.41955785492E-01  0.23294519454E-01  0.70449963477E-01  0.51100000000E-03 0. -1.
         11    1    4    4    0    0  0.56855899231E-01 -0.24448081724E-01  0.12066261511E-01  0.63056782071E-01  0.51100000000E-03 0.  1.
</event>
<event>
 8    1  0.1075206E+005  0.1043930E+01  0.7957747E-01            NaN
         13   -1    0    0    0    0  0.00000000000E+00  0.00000000000E+00  0.74505805969E-08  0.10566000000E+00  0.10566000000E+00 0. -1.
     999900   -1    0    0    0    0 -0.00000000000E+00 -0.00000000000E+00 -0.74505805969E-08  0.93827000000E+00  0.93827000000E+00 0.  1.
     999902    2    1    2    0    0  0.15983121633E-01 -0.69779585895E-02 -0.19911732109E-03  0.10264889068E+01  0.10263407252E+01 0.  0.
     999903    2    3    3    0    0 -0.40576472466E-01  0.12582507636E+00 -0.15677057325E-01  0.13459474248E+00  0.19788244474E-01 0.  0.
         14    1    1    2    0    0 -0.15983121633E-01  0.69779585895E-02  0.19911732109E-03  0.17441093168E-01  0.00000000000E+00 0.  1.
     999901    1    3    3    0    0  0.56559594098E-01 -0.13280303495E+00  0.15477940003E-01  0.89189416435E+00  0.88000000000E+00 0. -1.
        -11    1    4    4    0    0 -0.25836027339E-02  0.27677189444E-01 -0.86396911628E-02  0.29113694423E-01  0.51100000000E-03 0. -1.
         11    1    4    4    0    0 -0.37992869732E-01  0.98147886913E-01 -0.70373661617E-02  0.10548104806E+00  0.51100000000E-03 0.  1.
</event>
<event>
 8    1  0.1075206E+005  0.1043930E+01  0.7957747E-01            NaN
         13   -1    0    0    0    0  0.00000000000E+00  0.00000000000E+00  0.74505805969E-08  0.10566000000E+00  0.10566000000E+00 0. -1.
     999900   -1    0    0    0    0 -0.00000000000E+00 -0.00000000000E+00 -0.74505805969E-08  0.93827000000E+00  0.93827000000E+00 0.  1.
     999902    2    1    2    0    0  0.10140113775E-01  0.94514281461E-03  0.22343577629E-01  0.10193749463E+01  0.10190791581E+01 0.  0.
     999903    2    3    3    0    0  0.45607854797E-01  0.11461076182E+00 -0.34462813832E-01  0.12954080459E+00  0.19427593023E-01 0.  0.
         14    1    1    2    0    0 -0.10140113775E-01 -0.94514281461E-03 -0.22343577629E-01  0.24555053727E-01  0.00000000000E+00 0.  1.
     999901    1    3    3    0    0 -0.35467741022E-01 -0.11366561901E+00  0.56806391460E-01  0.88983414169E+00  0.88000000000E+00 0. -1.
        -11    1    4    4    0    0  0.34989604933E-01  0.10071183661E+00 -0.24469352711E-01  0.10938993020E+00  0.51100000000E-03 0.  1.
         11    1    4    4    0    0  0.10618249864E-01  0.13898925217E-01 -0.99934611210E-02  0.20150874387E-01  0.51100000000E-03 0. -1.
</event>
<event>
 8    1  0.1075206E+005  0.1043930E+01  0.7957747E-01            NaN
         13   -1    0    0    0    0  0.00000000000E+00  0.00000000000E+00  0.74505805969E-08  0.10566000000E+00  0.10566000000E+00 0. -1.
     999900   -1    0    0    0    0 -0.00000000000E+00 -0.00000000000E+00 -0.74505805969E-08  0.93827000000E+00  0.93827000000E+00 0.  1.
     999902    2    1    2    0    0  0.88827278618E-02  0.11274068499E-01  0.20894670567E-01  0.10185805477E+01  0.10182650624E+01 0.  0.
     999903    2    3    3    0    0  0.35562645075E-01 -0.97980240287E-02  0.12502816655E+00  0.13178878179E+00  0.19378791881E-01 0.  0.
         14    1    1    2    0    0 -0.88827278618E-02 -0.11274068499E-01 -0.20894670567E-01  0.25349452319E-01  0.00000000000E+00 0.  1.
     999901    1    3    3    0    0 -0.26679917214E-01  0.21072092527E-01 -0.10413349598E+00  0.88679176589E+00  0.88000000000E+00 0.  1.
        -11    1    4    4    0    0  0.13121900857E-01  0.57189524253E-02  0.39807462248E-01  0.42305860948E-01  0.51100000000E-03 0.  1.
         11    1    4    4    0    0  0.22440744218E-01 -0.15516976454E-01  0.85220704303E-01  0.89482920841E-01  0.51100000000E-03 0. -1.
</event>
<event>
 8    1  0.1075206E+005  0.1043930E+01  0.7957747E-01            NaN
         13   -1    0    0    0    0  0.00000000000E+00  0.00000000000E+00  0.74505805969E-08  0.10566000000E+00  0.10566000000E+00 0.  1.
     999900   -1    0    0    0    0 -0.00000000000E+00 -0.00000000000E+00 -0.74505805969E-08  0.93827000000E+00  0.93827000000E+00 0. -1.
     999902    2    1    2    0    0  0.21276193527E-01  0.96959463117E-02 -0.93524086554E-03  0.10205299474E+01  0.10202616385E+01 0.  0.
     999903    2    3    3    0    0 -0.12541784493E-01 -0.85306698815E-01  0.94698555900E-01  0.12962311653E+00  0.19995165130E-01 0.  0.
         14    1    1    2    0    0 -0.21276193527E-01 -0.96959463117E-02  0.93524086554E-03  0.23400052593E-01  0.00000000000E+00 0. -1.
     999901    1    3    3    0    0  0.33817978020E-01  0.95002645126E-01 -0.95633796766E-01  0.89090683088E+00  0.88000000000E+00 0. -1.
        -11    1    4    4    0    0 -0.64224868814E-02 -0.77453981582E-01  0.77587479687E-01  0.10982006067E+00  0.51100000000E-03 0. -1.
         11    1    4    4    0    0 -0.61192976114E-02 -0.78527172328E-02  0.17111076214E-01  0.19803055860E-01  0.51100000000E-03 0.  1.
</event>
<event>
 8    1  0.1075206E+005  0.1043930E+01  0.7957747E-01            NaN
         13   -1    0    0    0    0  0.00000000000E+00  0.00000000000E+00  0.74505805969E-08  0.10566000000E+00  0.10566000000E+00 0. -1.
     999900   -1    0    0    0    0 -0.00000000000E+00 -0.00000000000E+00 -0.74505805969E-08  0.93827000000E+00  0.93827000000E+00 0. -1.
     999902    2    1    2    0    0 -0.12751658495E-01 -0.73678059478E-04  0.19824861006E-01  0.10203580816E+01  0.10200857706E+01 0.  0.
     999903    2    3    3    0    0  0.56297151023E-01  0.10656659678E+00 -0.41410101615E-01  0.12912881427E+00  0.20824154139E-01 0.  0.
         14    1    1    2    0    0  0.12751658495E-01  0.73678059478E-04 -0.19824861006E-01  0.23571918393E-01  0.00000000000E+00 0.  1.
     999901    1    3    3    0    0 -0.69048809518E-01 -0.10664027484E+00  0.61234962621E-01  0.89122926734E+00  0.88000000000E+00 0.  1.
        -11    1    4    4    0    0  0.20445183961E-01  0.56453894936E-01 -0.13815542547E-01  0.61613132833E-01  0.51100000000E-03 0. -1.
         11    1    4    4    0    0  0.35851967062E-01  0.50112701846E-01 -0.27594559068E-01  0.67515681435E-01  0.51100000000E-03 0.  1.
</event>
<event>
 8    1  0.1075206E+005  0.1043930E+01  0.7957747E-01            NaN
         13   -1    0    0    0    0  0.00000000000E+00  0.00000000000E+00  0.74505805969E-08  0.10566000000E+00  0.10566000000E+00 0. -1.
     999900   -1    0    0    0    0 -0.00000000000E+00 -0.00000000000E+00 -0.74505805969E-08  0.93827000000E+00  0.93827000000E+00 0. -1.
     999902    2    1    2    0    0  0.81664491020E-02 -0.93999108137E-02 -0.20596868701E-01  0.10198617592E+01  0.10195777203E+01 0.  0.
     999903    2    3    3    0    0 -0.82064089909E-01 -0.48642844448E-01 -0.88783140624E-01  0.13175651450E+00  0.19408551862E-01 0.  0.
         14    1    1    2    0    0 -0.81664491020E-02  0.93999108137E-02  0.20596868701E-01  0.24068240786E-01  0.00000000000E+00 0. -1.
     999901    1    3    3    0    0  0.90230539011E-01  0.39242933634E-01  0.68186271923E-01  0.88810524471E+00  0.88000000000E+00 0.  1.
        -11    1    4    4    0    0 -0.41007369540E-01 -0.23461361678E-01 -0.30902628158E-01  0.56455942083E-01  0.51100000000E-03 0.  1.
         11    1    4    4    0    0 -0.41056720369E-01 -0.25181482770E-01 -0.57880512466E-01  0.75300572417E-01  0.51100000000E-03 0. -1.
</event>
<event>
 8    1  0.1075206E+005  0.1043930E+01  0.7957747E-01            NaN
         13   -1    0    0    0    0  0.00000000000E+00  0.00000000000E+00  0.74505805969E-08  0.10566000000E+00  0.10566000000E+00 0.  1.
     999900   -1    0    0    0    0 -0.00000000000E+00 -0.00000000000E+00 -0.74505805969E-08  0.93827000000E+00  0.93827000000E+00 0. -1.
     999902    2    1    2    0    0  0.21647720662E-01 -0.10304131816E-01 -0.44441587867E-02  0.10195466145E+01  0.10192549973E+01 0.  0.
     999903    2    3    3    0    0  0.10978886375E+00 -0.58093942902E-01  0.42351954185E-01  0.13261786686E+00  0.19113078822E-01 0.  0.
         14    1    1    2    0    0 -0.21647720662E-01  0.10304131816E-01  0.44441587867E-02  0.24383385525E-01  0.00000000000E+00 0.  1.
     999901    1    3    3    0    0 -0.88141143092E-01  0.47789811087E-01 -0.46796112972E-01  0.88692874761E+00  0.88000000000E+00 0. -1.
        -11    1    4    4    0    0  0.81285331609E-01 -0.38008642221E-01  0.22587290294E-01  0.92533284941E-01  0.51100000000E-03 0. -1.
         11    1    4    4    0    0  0.28503532145E-01 -0.20085300681E-01  0.19764663891E-01  0.40084581923E-01  0.51100000000E-03 0.  1.
</event>
<event>
 8    1  0.1075206E+005  0.1043930E+01  0.7957747E-01            NaN
         13   -1    0    0    0    0  0.00000000000E+00  0.00000000000E+00  0.74505805969E-08  0.10566000000E+00  0.10566000000E+00 0. -1.
     999900   -1    0    0    0    0 -0.00000000000E+00 -0.00000000000E+00 -0.74505805969E-08  0.93827000000E+00  0.93827000000E+00 0.  1.
     999902    2    1    2    0    0 -0.23523488323E-01  0.24223713309E-02 -0.52637813419E-03  0.10202762591E+01  0.10200020320E+01 0.  0.
     999903    2    3    3    0    0  0.87369251763E-01  0.80795199893E-01  0.44846847356E-01  0.12870560587E+00  0.19815216022E-01 0.  0.
         14    1    1    2    0    0  0.23523488323E-01 -0.24223713309E-02  0.52637813419E-03  0.23653740924E-01  0.00000000000E+00 0.  1.
     999901    1    3    3    0    0 -0.11089274009E+00 -0.78372828562E-01 -0.45373225490E-01  0.89157065320E+00  0.88000000000E+00 0.  1.
        -11    1    4    4    0    0  0.55558028981E-01  0.42642367606E-01  0.18343484622E-01  0.72400349780E-01  0.51100000000E-03 0.  1.
         11    1    4    4    0    0  0.31811222782E-01  0.38152832287E-01  0.26503362735E-01  0.56305256093E-01  0.51100000000E-03 0. -1.
</event>
<event>
 8    1  0.1075206E+005  0.1043930E+01  0.7957747E-01            NaN
         13   -1    0    0    0    0  0.00000000000E+00  0.00000000000E+00  0.74505805969E-08  0.10566000000E+00  0.10566000000E+00 0. -1.
     999900   -1    0    0    0    0 -0.00000000000E+00 -0.00000000000E+00 -0.74505805969E-08  0.93827000000E+00  0.93827000000E+00 0.  1.
     999902    2    1    2    0    0  0.13843756642E-01 -0.87087441224E-02 -0.16474113041E-01  0.10207160339E+01  0.10204520242E+01 0.  0.
     999903    2    3    3    0    0 -0.28887394252E-01  0.12445903617E+00 -0.97992608663E-02  0.12964692174E+00  0.19691764110E-01 0.  0.
         14    1    1    2    0    0 -0.13843756642E-01  0.87087441224E-02  0.16474113041E-01  0.23213966112E-01  0.00000000000E+00 0. -1.
     999901    1    3    3    0    0  0.42731150895E-01 -0.13316778029E+00 -0.66748521742E-02  0.89106911214E+00  0.88000000000E+00 0. -1.
        -11    1    4    4    0    0 -0.25927695180E-01  0.10197982509E+00 -0.74697525587E-03  0.10522808178E+00  0.51100000000E-03 0.  1.
         11    1    4    4    0    0 -0.29596990725E-02  0.22479211079E-01 -0.90522856105E-02  0.24418839963E-01  0.51100000000E-03 0. -1.
</event>
<event>
 8    1  0.1075206E+005  0.1043930E+01  0.7957747E-01            NaN
         13   -1    0    0    0    0  0.00000000000E+00  0.00000000000E+00  0.74505805969E-08  0.10566000000E+00  0.10566000000E+00 0. -1.
     999900   -1    0    0    0    0 -0.00000000000E+00 -0.00000000000E+00 -0.74505805969E-08  0.93827000000E+00  0.93827000000E+00 0.  1.
     999902    2    1    2    0    0  0.20265561790E-02  0.24089470292E-01 -0.11550420612E-02  0.10197278590E+01  0.10194406126E+01 0.  0.
     999903    2    3    3    0    0 -0.96413335487E-01  0.11021664252E-01  0.84016114038E-01  0.13005639956E+00  0.20951164812E-01 0.  0.
         14    1    1    2    0    0 -0.20265561790E-02 -0.24089470292E-01  0.11550420612E-02  0.24202141043E-01  0.00000000000E+00 0. -1.
     999901    1    3    3    0    0  0.98439891667E-01  0.13067806040E-01 -0.85171156100E-01  0.88967145939E+00  0.88000000000E+00 0.  1.
        -11    1    4    4    0    0 -0.33412725550E-01 -0.61455070509E-02  0.28942859035E-01  0.44633257731E-01  0.51100000000E-03 0. -1.
         11    1    4    4    0    0 -0.63000609938E-01  0.17167171303E-01  0.55073255004E-01  0.85423141834E-01  0.51100000000E-03 0.  1.
</event>
<event>
 8    1  0.1075206E+005  0.1043930E+01  0.7957747E-01            NaN
         13   -1    0    0    0    0  0.00000000000E+00  0.00000000000E+00  0.74505805969E-08  0.10566000000E+00  0.10566000000E+00 0.  1.
     999900   -1    0    0    0    0 -0.00000000000E+00 -0.00000000000E+00 -0.74505805969E-08  0.93827000000E+00  0.93827000000E+00 0.  1.
     999902    2    1    2    0    0 -0.17963861837E-01 -0.43262993362E-02  0.15080644889E-01  0.10200795692E+01  0.10198007082E+01 0.  0.
     999903    2    3    3    0    0 -0.86407644432E-01 -0.97002704363E-01  0.17582348580E-01  0.13256634343E+00  0.19720313386E-01 0.  0.
         14    1    1    2    0    0  0.17963861837E-01  0.43262993362E-02 -0.15080644889E-01  0.23850430779E-01  0.00000000000E+00 0. -1.
     999901    1    3    3    0    0  0.68443782594E-01  0.92676405027E-01 -0.25017036910E-02  0.88751322579E+00  0.88000000000E+00 0. -1.
        -11    1    4    4    0    0 -0.12890935923E-01 -0.21353322552E-01  0.97571657999E-02  0.26788132044E-01  0.51100000000E-03 0.  1.
         11    1    4    4    0    0 -0.73516708509E-01 -0.75649381812E-01  0.78251827802E-02  0.10577821139E+00  0.51100000000E-03 0. -1.
</event>
<event>
 8    1  0.1075206E+005  0.1043930E+01  0.7957747E-01            NaN
         13   -1    0    0    0    0  0.00000000000E+00  0.00000000000E+00  0.74505805969E-08  0.10566000000E+00  0.10566000000E+00 0. -1.
     999900   -1    0    0    0    0 -0.00000000000E+00 -0.00000000000E+00 -0.74505805969E-08  0.93827000000E+00  0.93827000000E+00 0.  1.
     999902    2    1    2    0    0 -0.19383837639E-01 -0.15202579460E-01  0.73582064875E-03  0.10192846553E+01  0.10189866611E+01 0.  0.
     999903    2    3    3    0    0 -0.81387303602E-01  0.82284047796E-01 -0.55507611880E-01  0.12995266105E+00  0.20298803579E-01 0.  0.
         14    1    1    2    0    0  0.19383837639E-01  0.15202579460E-01 -0.73582064875E-03  0.24645344710E-01  0.00000000000E+00 0. -1.
     999901    1    3    3    0    0  0.62003465963E-01 -0.97486627256E-01  0.56243432529E-01  0.88933199425E+00  0.88000000000E+00 0.  1.
        -11    1    4    4    0    0 -0.51147592235E-01  0.45778682367E-01 -0.22695684362E-01  0.72298818527E-01  0.51100000000E-03 0.  1.
         11    1    4    4    0    0 -0.30239711367E-01  0.36505365429E-01 -0.32811927518E-01  0.57653842518E-01  0.51100000000E-03 0. -1.
</event>
<event>
 8    1  0.1075206E+005  0.1043930E+01  0.7957747E-01            NaN
         13   -1    0    0    0    0  0.00000000000E+00  0.00000000000E+00  0.74505805969E-08  0.10566000000E+00  0.10566000000E+00 0. -1.
     999900   -1    0    0    0    0 -0.00000000000E+00 -0.00000000000E+00 -0.74505805969E-08  0.93827000000E+00  0.93827000000E+00 0. -1.
     999902    2    1    2    0    0 -0.21243621128E-01 -0.40070570358E-03  0.11150365750E-01  0.10199345283E+01  0.10196522248E+01 0.  0.
     999903    2    3    3    0    0  0.97119862231E-01  0.74697209841E-01  0.33231987285E-01  0.12856636135E+00  0.20322487423E-01 0.  0.
         14    1    1    2    0    0  0.21243621128E-01  0.40070570358E-03 -0.11150365750E-01  0.23995471657E-01  0.00000000000E+00 0.  1.
     999901    1    3    3    0    0 -0.11836348336E+00 -0.75097915544E-01 -0.22081621535E-01  0.89136816699E+00  0.88000000000E+00 0. -1.
        -11    1    4    4    0    0  0.35412897349E-01  0.15665131738E-01  0.12417349686E-01  0.40668431802E-01  0.51100000000E-03 0.  1.
         11    1    4    4    0    0  0.61706964882E-01  0.59032078103E-01  0.20814637599E-01  0.87897929552E-01  0.51100000000E-03 0. -1.
</event>
<event>
 8    1  0.1075206E+005  0.1043930E+01  0.7957747E-01            NaN
         13   -1    0    0    0    0  0.00000000000E+00  0.00000000000E+00  0.74505805969E-08  0.10566000000E+00  0.10566000000E+00 0.  1.
     999900   -1    0    0    0    0 -0.00000000000E+00 -0.00000000000E+00 -0.74505805969E-08  0.93827000000E+00  0.93827000000E+00 0. -1.
     999902    2    1    2    0    0 -0.48779625005E-02  0.11814547247E-01 -0.19807729370E-01  0.10203561970E+01  0.10200838419E+01 0.  0.
     999903    2    3    3    0    0  0.38180159871E-01 -0.49957638040E-01 -0.11419423809E+00  0.13211151348E+00  0.21439164516E-01 0.  0.
         14    1    1    2    0    0  0.48779625005E-02 -0.11814547247E-01  0.19807729370E-01  0.23573802994E-01  0.00000000000E+00 0.  1.
     999901    1    3    3    0    0 -0.43058122371E-01  0.61772185287E-01  0.94386508722E-01  0.88824468352E+00  0.88000000000E+00 0.  1.
        -11    1    4    4    0    0 -0.15177002378E-02  0.47822306739E-03 -0.67579890529E-02  0.69615837532E-02  0.51100000000E-03 0.  1.
         11    1    4    4    0    0  0.39697860108E-01 -0.50435861107E-01 -0.10743624904E+00  0.12514992973E+00  0.51100000000E-03 0. -1.
</event>
<event>
 8    1  0.1075206E+005  0.1043930E+01  0.7957747E-01            NaN
         13   -1    0    0    0    0  0.00000000000E+00  0.00000000000E+00  0.74505805969E-08  0.10566000000E+00  0.10566000000E+00 0. -1.
     999900   -1    0    0    0    0 -0.00000000000E+00 -0.00000000000E+00 -0.74505805969E-08  0.93827000000E+00  0.93827000000E+00 0.  1.
     999902    2    1    2    0    0  0.22816276627E-01  0.28954153499E-03  0.21721199017E-02  0.10210087344E+01  0.10207514150E+01 0.  0.
     999903    2    3    3    0    0 -0.54460889995E-01 -0.11225024495E+00  0.28461416820E-01  0.13009454593E+00  0.23418637923E-01 0.  0.
         14    1    1    2    0    0 -0.22816276627E-01 -0.28954153499E-03 -0.21721199017E-02  0.22921265635E-01  0.00000000000E+00 0. -1.
     999901    1    3    3    0    0  0.77277166623E-01  0.11253978649E+00 -0.26289296918E-01  0.89091418844E+00  0.88000000000E+00 0.  1.
        -11    1    4    4    0    0 -0.45033210806E-01 -0.78343670378E-01  0.28964840498E-01  0.94894382710E-01  0.51100000000E-03 0. -1.
         11    1    4    4    0    0 -0.94276791889E-02 -0.33906574575E-01 -0.50342367805E-03  0.35200163219E-01  0.51100000000E-03 0.  1.
</event>
<event>
 8    1  0.1075206E+005  0.1043930E+01  0.7957747E-01            NaN
         13   -1    0    0    0    0  0.00000000000E+00  0.00000000000E+00  0.74505805969E-08  0.10566000000E+00  0.10566000000E+00 0.  1.
     999900   -1    0    0    0    0 -0.00000000000E+00 -0.00000000000E+00 -0.74505805969E-08  0.93827000000E+00  0.93827000000E+00 0. -1.
     999902    2    1    2    0    0 -0.73236435674E-02  0.22323615315E-01 -0.56691823034E-02  0.10197614422E+01  0.10194750021E+01 0.  0.
     999903    2    3    3    0    0  0.37472762452E-01  0.12479188377E+00  0.10103640635E-01  0.13254374293E+00  0.22102896980E-01 0.  0.
         14    1    1    2    0    0  0.73236435674E-02 -0.22323615315E-01  0.56691823034E-02  0.24168557752E-01  0.00000000000E+00 0.  1.
     999901    1    3    3    0    0 -0.44796406019E-01 -0.10246826846E+00 -0.15772822938E-01  0.88721769931E+00  0.88000000000E+00 0.  1.
        -11    1    4    4    0    0  0.63968451187E-02  0.39395079665E-01 -0.56480410483E-02  0.40311951304E-01  0.51100000000E-03 0.  1.
         11    1    4    4    0    0  0.31075917333E-01  0.85396804110E-01  0.15751681683E-01  0.92231791629E-01  0.51100000000E-03 0. -1.
</event>
<event>
 8    1  0.1075206E+005  0.1043930E+01  0.7957747E-01            NaN
         13   -1    0    0    0    0  0.00000000000E+00  0.00000000000E+00  0.74505805969E-08  0.10566000000E+00  0.10566000000E+00 0.  1.
     999900   -1    0    0    0    0 -0.00000000000E+00 -0.00000000000E+00 -0.74505805969E-08  0.93827000000E+00  0.93827000000E+00 0. -1.
     999902    2    1    2    0    0 -0.18160121691E-01  0.74730998477E-02 -0.12710212351E-01  0.10205379770E+01  0.10202698544E+01 0.  0.
     999903    2    3    3    0    0 -0.74630926225E-01  0.10469596659E+00 -0.29152466802E-01  0.13323217555E+00  0.19233452947E-01 0.  0.
         14    1    1    2    0    0  0.18160121691E-01 -0.74730998477E-02  0.12710212351E-01  0.23392022982E-01  0.00000000000E+00 0.  1.
     999901    1    3    3    0    0  0.56470804534E-01 -0.97222866743E-01  0.16442254452E-01  0.88730580147E+00  0.88000000000E+00 0.  1.
        -11    1    4    4    0    0 -0.46187983363E-01  0.79718289209E-01 -0.19800647174E-01  0.94237265405E-01  0.51100000000E-03 0.  1.
         11    1    4    4    0    0 -0.28442942863E-01  0.24977677382E-01 -0.93518196280E-02  0.38994910148E-01  0.51100000000E-03 0. -1.
</event>
<event>
 8    1  0.1075206E+005  0.1043930E+01  0.7957747E-01            NaN
         13   -1    0    0    0    0  0.00000000000E+00  0.00000000000E+00  0.74505805969E-08  0.10566000000E+00  0.10566000000E+00 0.  1.
     999900   -1    0    0    0    0 -0.00000000000E+00 -0.00000000000E+00 -0.74505805969E-08  0.93827000000E+00  0.93827000000E+00 0.  1.
     999902    2    1    2    0    0  0.42090139632E-02  0.89581231456E-02 -0.23284602350E-01  0.10186290815E+01  0.10183148183E+01 0.  0.
     999903    2    3    3    0    0 -0.88259047719E-01 -0.21073612618E-01  0.83646542828E-01  0.12684070002E+00  0.29292702193E-01 0.  0.
         14    1    1    2    0    0 -0.42090139632E-02 -0.89581231456E-02  0.23284602350E-01  0.25300918470E-01  0.00000000000E+00 0.  1.
     999901    1    3    3    0    0  0.92468061683E-01  0.30031735764E-01 -0.10693114518E+00  0.89178838151E+00  0.88000000000E+00 0.  1.
        -11    1    4    4    0    0 -0.37707789191E-01  0.55495591760E-02  0.36306376712E-01  0.52641134901E-01  0.51100000000E-03 0.  1.
         11    1    4    4    0    0 -0.50551258528E-01 -0.26623171794E-01  0.47340166116E-01  0.74199565121E-01  0.51100000000E-03 0. -1.
</event>
<event>
 8    1  0.1075206E+005  0.1043930E+01  0.7957747E-01            NaN
         13   -1    0    0    0    0  0.00000000000E+00  0.00000000000E+00  0.74505805969E-08  0.10566000000E+00  0.10566000000E+00 0.  1.
     999900   -1    0    0    0    0 -0.00000000000E+00 -0.00000000000E+00 -0.74505805969E-08  0.93827000000E+00  0.93827000000E+00 0. -1.
     999902    2    1    2    0    0 -0.22517574357E-01  0.45777551765E-02  0.32628302582E-02  0.10207213150E+01  0.10204574268E+01 0.  0.
     999903    2    3    3    0    0  0.90761676580E-01 -0.83021671609E-01  0.31851855277E-01  0.12868814264E+00  0.20391603163E-01 0.  0.
         14    1    1    2    0    0  0.22517574357E-01 -0.45777551765E-02 -0.32628302582E-02  0.23208684984E-01  0.00000000000E+00 0. -1.
     999901    1    3    3    0    0 -0.11327925094E+00  0.87599426785E-01 -0.28589025018E-01  0.89203317238E+00  0.88000000000E+00 0. -1.
        -11    1    4    4    0    0  0.42233310493E-01 -0.32468268299E-01  0.23097909273E-01  0.58065613708E-01  0.51100000000E-03 0. -1.
         11    1    4    4    0    0  0.48528366087E-01 -0.50553403309E-01  0.87539460037E-02  0.70622528933E-01  0.51100000000E-03 0.  1.
</event>
<event>
 8    1  0.1075206E+005  0.1043930E+01  0.7957747E-01            NaN
         13   -1    0    0    0    0  0.00000000000E+00  0.00000000000E+00  0.74505805969E-08  0.10566000000E+00  0.10566000000E+00 0.  1.
     999900   -1    0    0    0    0 -0.00000000000E+00 -0.00000000000E+00 -0.74505805969E-08  0.93827000000E+00  0.93827000000E+00 0.  1.
     999902    2    1    2    0    0 -0.60286762503E-02 -0.22597490842E-01  0.11975147557E-01  0.10176546182E+01  0.10173153524E+01 0.  0.
     999903    2    3    3    0    0 -0.93617223593E-01 -0.39957194248E-01  0.79309622649E-01  0.13057680625E+00  0.19988100437E-01 0.  0.
         14    1    1    2    0    0  0.60286762503E-02  0.22597490842E-01 -0.11975147557E-01  0.26275381799E-01  0.00000000000E+00 0. -1.
     999901    1    3    3    0    0  0.87588547343E-01  0.17359703406E-01 -0.67334475092E-01  0.88707781196E+00  0.88000000000E+00 0. -1.
        -11    1    4    4    0    0 -0.75392589758E-01 -0.36468718488E-01  0.72603143772E-01  0.11083991892E+00  0.51100000000E-03 0. -1.
         11    1    4    4    0    0 -0.18224633835E-01 -0.34884757595E-02  0.67064788773E-02  0.19736887330E-01  0.51100000000E-03 0.  1.
</event>
<event>
 8    1  0.1075206E+005  0.1043930E+01  0.7957747E-01            NaN
         13   -1    0    0    0    0  0.00000000000E+00  0.00000000000E+00  0.74505805969E-08  0.10566000000E+00  0.10566000000E+00 0.  1.
     999900   -1    0    0    0    0 -0.00000000000E+00 -0.00000000000E+00 -0.74505805969E-08  0.93827000000E+00  0.93827000000E+00 0.  1.
     999902    2    1    2    0    0 -0.21653419598E-02  0.40608911397E-02  0.22942803972E-01  0.10205301753E+01  0.10202618717E+01 0.  0.
     999903    2    3    3    0    0 -0.73946682155E-01 -0.96865885573E-01  0.45216398785E-01  0.13157860850E+00  0.20427821882E-01 0.  0.
         14    1    1    2    0    0  0.21653419598E-02 -0.40608911397E-02 -0.22942803972E-01  0.23399824716E-01  0.00000000000E+00 0. -1.
     999901    1    3    3    0    0  0.71781340195E-01  0.10092677671E+00 -0.22273594813E-01  0.88895156678E+00  0.88000000000E+00 0.  1.
        -11    1    4    4    0    0 -0.18260695958E-01 -0.11940573111E-01  0.52861332966E-02  0.22455169323E-01  0.51100000000E-03 0. -1.
         11    1    4    4    0    0 -0.55685986197E-01 -0.84925312461E-01  0.39930265488E-01  0.10912343918E+00  0.51100000000E-03 0.  1.
</event>
<event>
 8    1  0.1075206E+005  0.1043930E+01  0.7957747E-01            NaN
         13   -1    0    0    0    0  0.00000000000E+00  0.00000000000E+00  0.74505805969E-08  0.10566000000E+00  0.10566000000E+00 0.  1.
     999900   -1    0    0    0    0 -0.00000000000E+00 -0.00000000000E+00 -0.74505805969E-08  0.93827000000E+00  0.93827000000E+00 0.  1.
     999902    2    1    2    0    0 -0.14666223452E-01  0.10024596962E-01  0.16083016260E-01  0.10199664012E+01  0.10196848560E+01 0.  0.
     999903    2    3    3    0    0 -0.10726515933E+00 -0.71209434792E-01  0.15483939914E-01  0.13138669757E+00  0.21121408402E-01 0.  0.
         14    1    1    2    0    0  0.14666223452E-01 -0.10024596962E-01 -0.16083016260E-01  0.23963598782E-01  0.00000000000E+00 0. -1.
     999901    1    3    3    0    0  0.92598935882E-01  0.81234031754E-01  0.59907634578E-03  0.88857970365E+00  0.88000000000E+00 0. -1.
        -11    1    4    4    0    0 -0.10938353329E-01 -0.13726452220E-01  0.69575153897E-02  0.18887329231E-01  0.51100000000E-03 0. -1.
         11    1    4    4    0    0 -0.96326806005E-01 -0.57482982572E-01  0.85264245243E-02  0.11249936834E+00  0.51100000000E-03 0.  1.
</event>
<event>
 8    1  0.1075206E+005  0.1043930E+01  0.7957747E-01            NaN
         13   -1    0    0    0    0  0.00000000000E+00  0.00000000000E+00  0.74505805969E-08  0.10566000000E+00  0.10566000000E+00 0. -1.
     999900   -1    0    0    0    0 -0.00000000000E+00 -0.00000000000E+00 -0.74505805969E-08  0.93827000000E+00  0.93827000000E+00 0.  1.
     999902    2    1    2    0    0  0.13995622216E-01 -0.22299549099E-02 -0.19452901691E-01  0.10198620644E+01  0.10195780328E+01 0.  0.
     999903    2    3    3    0    0 -0.19846011979E-02 -0.12358699561E+00  0.34269364908E-01  0.12976713643E+00  0.19683399057E-01 0.  0.
         14    1    1    2    0    0 -0.13995622216E-01  0.22299549099E-02  0.19452901691E-01  0.24067935605E-01  0.00000000000E+00 0. -1.
     999901    1    3    3    0    0  0.15980223414E-01  0.12135704070E+00 -0.53722266599E-01  0.89009492797E+00  0.88000000000E+00 0.  1.
        -11    1    4    4    0    0  0.42375920987E-02 -0.25394682570E-01  0.54277233042E-03  0.25756607160E-01  0.51100000000E-03 0.  1.
         11    1    4    4    0    0 -0.62221932966E-02 -0.98192313043E-01  0.33726592578E-01  0.10401052927E+00  0.51100000000E-03 0. -1.
</event>
<event>
 8    1  0.1075206E+005  0.1043930E+01  0.7957747E-01            NaN
         13   -1    0    0    0    0  0.00000000000E+00  0.00000000000E+00  0.74505805969E-08  0.10566000000E+00  0.10566000000E+00 0. -1.
     999900   -1    0    0    0    0 -0.00000000000E+00 -0.00000000000E+00 -0.74505805969E-08  0.93827000000E+00  0.93827000000E+00 0.  1.
     999902    2    1    2    0    0  0.18149487213E-01 -0.85578100428E-02  0.10784434680E-01  0.10211496569E+01  0.10208955274E+01 0.  0.
     999903    2    3    3    0    0  0.71266188789E-01 -0.77676546250E-01  0.80165452517E-01  0.13412513116E+00  0.21225822260E-01 0.  0.
         14    1    1    2    0    0 -0.18149487213E-01  0.85578100428E-02 -0.10784434680E-01  0.22780343066E-01  0.00000000000E+00 0.  1.
     999901    1    3    3    0    0 -0.53116701576E-01  0.69118736208E-01 -0.69381017837E-01  0.88702452577E+00  0.88000000000E+00 0.  1.
        -11    1    4    4    0    0  0.44591272290E-01 -0.48867199580E-01  0.62708734694E-01  0.91153887943E-01  0.51100000000E-03 0. -1.
         11    1    4    4    0    0  0.26674916499E-01 -0.28809346670E-01  0.17456717823E-01  0.42971243221E-01  0.51100000000E-03 0.  1.
</event>
<event>
 8    1  0.1075206E+005  0.1043930E+01  0.7957747E-01            NaN
         13   -1    0    0    0    0  0.00000000000E+00  0.00000000000E+00  0.74505805969E-08  0.10566000000E+00  0.10566000000E+00 0.  1.
     999900   -1    0    0    0    0 -0.00000000000E+00 -0.00000000000E+00 -0.74505805969E-08  0.93827000000E+00  0.93827000000E+00 0.  1.
     999902    2    1    2    0    0 -0.22926201892E-01  0.66659900491E-02 -0.23325024706E-02  0.10199406956E+01  0.10196585389E+01 0.  0.
     999903    2    3    3    0    0  0.12312296915E-01 -0.11670631860E+00  0.50708099748E-01  0.12905586366E+00  0.17667685455E-01 0.  0.
         14    1    1    2    0    0  0.22926201892E-01 -0.66659900491E-02  0.23325024706E-02  0.23989304373E-01  0.00000000000E+00 0. -1.
     999901    1    3    3    0    0 -0.35238498807E-01  0.12337230865E+00 -0.53040602218E-01  0.89088483196E+00  0.88000000000E+00 0.  1.
        -11    1    4    4    0    0 -0.23670599417E-02 -0.35174893928E-01  0.21045913550E-01  0.41061755123E-01  0.51100000000E-03 0. -1.
         11    1    4    4    0    0  0.14679356857E-01 -0.81531424672E-01  0.29662186197E-01  0.87994108540E-01  0.51100000000E-03 0.  1.
</event>
<event>
 7    1  0.1075206E+005  0.1043930E+01  0.7957747E-01            NaN
         13   -1    0    0    0    0  0.00000000000E+00  0.00000000000E+00  0.74505805969E-08  0.10566000000E+00  0.10566000000E+00 0. -1.
     999900   -1    0    0    0    0 -0.00000000000E+00 -0.00000000000E+00 -0.74505805969E-08  0.93827000000E+00  0.93827000000E+00 0. -1.
     999903    2    1    2    0    0  0.11033272970E+00 -0.80185718537E-01 -0.43727754051E-01  0.14459735023E+00  0.19829687837E-01 0.  0.
         14    1    1    2    0    0 -0.16176203247E-02 -0.71061003781E-02  0.61645041778E-03  0.73139161341E-02  0.00000000000E+00 0. -1.
     999901    1    1    2    0    0 -0.10871510937E+00  0.87291818915E-01  0.43111303633E-01  0.89201873364E+00  0.88000000000E+00 0.  1.
        -11    1    3    3    0    0  0.68356177247E-01 -0.56716862289E-01 -0.36201396697E-01  0.95917525403E-01  0.51100000000E-03 0. -1.
         11    1    3    3    0    0  0.41976552450E-01 -0.23468856248E-01 -0.75263573541E-02  0.48679824827E-01  0.51100000000E-03 0.  1.
</event>
<event>
 8    1  0.1075206E+005  0.1043930E+01  0.7957747E-01            NaN
         13   -1    0    0    0    0  0.00000000000E+00  0.00000000000E+00  0.74505805969E-08  0.10566000000E+00  0.10566000000E+00 0.  1.
     999900   -1    0    0    0    0 -0.00000000000E+00 -0.00000000000E+00 -0.74505805969E-08  0.93827000000E+00  0.93827000000E+00 0. -1.
     999902    2    1    2    0    0 -0.18272731952E-01 -0.24666223380E-02  0.74495550038E-02  0.10240435014E+01  0.10238503894E+01 0.  0.
     999903    2    3    3    0    0  0.52193276871E-01 -0.16554132883E-01 -0.11864811003E+00  0.13215531470E+00  0.19735139353E-01 0.  0.
         14    1    1    2    0    0  0.18272731952E-01  0.24666223380E-02 -0.74495550038E-02  0.19886498649E-01  0.00000000000E+00 0.  1.
     999901    1    3    3    0    0 -0.70466008823E-01  0.14087510545E-01  0.12609766503E+00  0.89188818665E+00  0.88000000000E+00 0.  1.
        -11    1    4    4    0    0  0.14645551178E-01 -0.14125774442E-01 -0.36304121810E-01  0.41620668595E-01  0.51100000000E-03 0. -1.
         11    1    4    4    0    0  0.37547725693E-01 -0.24283584403E-02 -0.82343988219E-01  0.90534646110E-01  0.51100000000E-03 0.  1.
</event>
<event>
 8    1  0.1075206E+005  0.1043930E+01  0.7957747E-01            NaN
         13   -1    0    0    0    0  0.00000000000E+00  0.00000000000E+00  0.74505805969E-08  0.10566000000E+00  0.10566000000E+00 0. -1.
     999900   -1    0    0    0    0 -0.00000000000E+00 -0.00000000000E+00 -0.74505805969E-08  0.93827000000E+00  0.93827000000E+00 0. -1.
     999902    2    1    2    0    0 -0.14314858470E-02 -0.12430289543E-01  0.20188405748E-01  0.10201785163E+01  0.10199019915E+01 0.  0.
     999903    2    3    3    0    0 -0.10086145827E+00  0.71521897533E-01  0.36135090101E-01  0.13046587403E+00  0.20668428995E-01 0.  0.
         14    1    1    2    0    0  0.14314858470E-02  0.12430289543E-01 -0.20188405748E-01  0.23751483670E-01  0.00000000000E+00 0.  1.
     999901    1    3    3    0    0  0.99429972428E-01 -0.83952187076E-01 -0.15946684353E-01  0.88971264230E+00  0.88000000000E+00 0.  1.
        -11    1    4    4    0    0 -0.99290534333E-01  0.66225607164E-01  0.32060047149E-01  0.12358215485E+00  0.51100000000E-03 0.  1.
         11    1    4    4    0    0 -0.15709239421E-02  0.52962903686E-02  0.40750429519E-02  0.68837191807E-02  0.51100000000E-03 0. -1.
</event>
<event>
 8    1  0.1075206E+005  0.1043930E+01  0.7957747E-01            NaN
         13   -1    0    0    0    0  0.00000000000E+00  0.00000000000E+00  0.74505805969E-08  0.10566000000E+00  0.10566000000E+00 0. -1.
     999900   -1    0    0    0    0 -0.00000000000E+00 -0.00000000000E+00 -0.74505805969E-08  0.93827000000E+00  0.93827000000E+00 0.  1.
     999902    2    1    2    0    0 -0.41774037707E-02 -0.20304149404E-01  0.11555630947E-01  0.10201972844E+01  0.10199212015E+01 0.  0.
     999903    2    3    3    0    0  0.39803268237E-02 -0.84473981354E-01  0.10119256565E+00  0.13328178896E+00  0.19297756314E-01 0.  0.
         14    1    1    2    0    0  0.41774037707E-02  0.20304149404E-01 -0.11555630947E-01  0.23732715644E-01  0.00000000000E+00 0. -1.
     999901    1    3    3    0    0 -0.81577305944E-02  0.64169831950E-01 -0.89636934706E-01  0.88691549539E+00  0.88000000000E+00 0.  1.
        -11    1    4    4    0    0  0.75555971053E-02 -0.19386742579E-01  0.32402071210E-01  0.38510883853E-01  0.51100000000E-03 0. -1.
         11    1    4    4    0    0 -0.35752702816E-02 -0.65087238775E-01  0.68790494443E-01  0.94770905111E-01  0.51100000000E-03 0.  1.
</event>
<event>
 8    1  0.1075206E+005  0.1043930E+01  0.7957747E-01            NaN
         13   -1    0    0    0    0  0.00000000000E+00  0.00000000000E+00  0.74505805969E-08  0.10566000000E+00  0.10566000000E+00 0. -1.
     999900   -1    0    0    0    0 -0.00000000000E+00 -0.00000000000E+00 -0.74505805969E-08  0.93827000000E+00  0.93827000000E+00 0.  1.
     999902    2    1    2    0    0  0.78413967893E-02  0.11978030343E-01  0.18254977556E-01  0.10207307560E+01  0.10204670849E+01 0.  0.
     999903    2    3    3    0    0  0.27517786452E-01  0.72350651753E-01  0.10743834439E+00  0.13394685529E+00  0.20172179219E-01 0.  0.
         14    1    1    2    0    0 -0.78413967893E-02 -0.11978030343E-01 -0.18254977556E-01  0.23199243954E-01  0.00000000000E+00 0.  1.
     999901    1    3    3    0    0 -0.19676389663E-01 -0.60372621410E-01 -0.89183366839E-01  0.88678390076E+00  0.88000000000E+00 0.  1.
        -11    1    4    4    0    0 -0.44150590141E-03  0.15886332909E-01  0.13638215297E-01  0.20948330202E-01  0.51100000000E-03 0.  1.
         11    1    4    4    0    0  0.27959292354E-01  0.56464318843E-01  0.93800129098E-01  0.11299852508E+00  0.51100000000E-03 0. -1.
</event>
<event>
 8    1  0.1075206E+005  0.1043930E+01  0.7957747E-01            NaN
         13   -1    0    0    0    0  0.00000000000E+00  0.00000000000E+00  0.74505805969E-08  0.10566000000E+00  0.10566000000E+00 0.  1.
     999900   -1    0    0    0    0 -0.00000000000E+00 -0.00000000000E+00 -0.74505805969E-08  0.93827000000E+00  0.93827000000E+00 0.  1.
     999902    2    1    2    0    0  0.42513818025E-02 -0.17111014861E-02 -0.20696499824E-01  0.10227321883E+01  0.10225124849E+01 0.  0.
     999903    2    3    3    0    0  0.12169383866E+00 -0.33527785627E-01 -0.40344060026E-01  0.13414282382E+00  0.20812285426E-01 0.  0.
         14    1    1    2    0    0 -0.42513818025E-02  0.17111014861E-02  0.20696499824E-01  0.21197811691E-01  0.00000000000E+00 0.  1.
     999901    1    3    3    0    0 -0.11744245686E+00  0.31816684141E-01  0.19647560202E-01  0.88858936449E+00  0.88000000000E+00 0.  1.
        -11    1    4    4    0    0  0.32910010280E-01 -0.43193988024E-02 -0.24486285672E-02  0.33286376875E-01  0.51100000000E-03 0. -1.
         11    1    4    4    0    0  0.88783828385E-01 -0.29208386825E-01 -0.37895431459E-01  0.10085644694E+00  0.51100000000E-03 0.  1.
</event>
<event>
 8    1  0.1075206E+005  0.1043930E+01  0.7957747E-01            NaN
         13   -1    0    0    0    0  0.00000000000E+00  0.00000000000E+00  0.74505805969E-08  0.10566000000E+00  0.10566000000E+00 0.  1.
     999900   -1    0    0    0    0 -0.00000000000E+00 -0.00000000000E+00 -0.74505805969E-08  0.93827000000E+00  0.93827000000E+00 0.  1.
     999902    2    1    2    0    0 -0.24612937630E-01 -0.36782775200E-02 -0.32282931581E-02  0.10188352137E+01  0.10185261137E+01 0.  0.
     999903    2    3    3    0    0 -0.74075769904E-01  0.87731717146E-01 -0.59141002605E-01  0.13095651138E+00  0.21630436968E-01 0.  0.
         14    1    1    2    0    0  0.24612937630E-01  0.36782775200E-02  0.32282931581E-02  0.25094786331E-01  0.00000000000E+00 0.  1.
     999901    1    3    3    0    0  0.49462832274E-01 -0.91409994666E-01  0.55912709447E-01  0.88787870229E+00  0.88000000000E+00 0. -1.
        -11    1    4    4    0    0 -0.32756351762E-01  0.35428659051E-01 -0.13283824055E-01  0.50048871770E-01  0.51100000000E-03 0. -1.
         11    1    4    4    0    0 -0.41319418141E-01  0.52303058094E-01 -0.45857178551E-01  0.80907639610E-01  0.51100000000E-03 0.  1.
</event>
<event>
 8    1  0.1075206E+005  0.1043930E+01  0.7957747E-01            NaN
         13   -1    0    0    0    0  0.00000000000E+00  0.00000000000E+00  0.74505805969E-08  0.10566000000E+00  0.10566000000E+00 0.  1.
     999900   -1    0    0    0    0 -0.00000000000E+00 -0.00000000000E+00 -0.74505805969E-08  0.93827000000E+00  0.93827000000E+00 0.  1.
     999902    2    1    2    0    0 -0.21217980506E-02  0.18636025300E-01  0.11587150784E-01  0.10218831061E+01  0.10216452501E+01 0.  0.
     999903    2    3    3    0    0 -0.83330479852E-01 -0.42837156396E-01  0.91264304841E-01  0.13243257297E+00  0.20741798479E-01 0.  0.
         14    1    1    2    0    0  0.21217980506E-02 -0.18636025300E-01 -0.11587150784E-01  0.22046893868E-01  0.00000000000E+00 0. -1.
     999901    1    3    3    0    0  0.81208681802E-01  0.61473181696E-01 -0.79677154057E-01  0.88945053316E+00  0.88000000000E+00 0.  1.
        -11    1    4    4    0    0 -0.73630650925E-01 -0.42259150243E-01  0.87723850885E-01  0.12207802288E+00  0.51100000000E-03 0. -1.
         11    1    4    4    0    0 -0.96998289271E-02 -0.57800615374E-03  0.35404539563E-02  0.10354550089E-01  0.51100000000E-03 0.  1.
</event>
<event>
 8    1  0.1075206E+005  0.1043930E+01  0.7957747E-01            NaN
         13   -1    0    0    0    0  0.00000000000E+00  0.00000000000E+00  0.74505805969E-08  0.10566000000E+00  0.10566000000E+00 0. -1.
     999900   -1    0    0    0    0 -0.00000000000E+00 -0.00000000000E+00 -0.74505805969E-08  0.93827000000E+00  0.93827000000E+00 0. -1.
     999902    2    1    2    0    0 -0.21173344490E-01 -0.92809871899E-02  0.26054147227E-02  0.10206655330E+01  0.10204003600E+01 0.  0.
     999903    2    3    3    0    0  0.11463935706E+00 -0.44726325126E-01 -0.33026182954E-01  0.12882974504E+00  0.19072181320E-01 0.  0.
         14    1    1    2    0    0  0.21173344490E-01  0.92809871899E-02 -0.26054147227E-02  0.23264467026E-01  0.00000000000E+00 0. -1.
     999901    1    3    3    0    0 -0.13581270155E+00  0.35445337936E-01  0.35631597676E-01  0.89183578793E+00  0.88000000000E+00 0.  1.
        -11    1    4    4    0    0  0.84252432868E-01 -0.38093321317E-01 -0.17667471111E-01  0.94138059410E-01  0.51100000000E-03 0. -1.
         11    1    4    4    0    0  0.30386924193E-01 -0.66330038093E-02 -0.15358711843E-01  0.34691685631E-01  0.51100000000E-03 0.  1.
</event>
<event>
 8    1  0.1075206E+005  0.1043930E+01  0.7957747E-01            NaN
         13   -1    0    0    0    0  0.00000000000E+00  0.00000000000E+00  0.74505805969E-08  0.10566000000E+00  0.10566000000E+00 0.  1.
     999900   -1    0    0    0    0 -0.00000000000E+00 -0.00000000000E+00 -0.74505805969E-08  0.93827000000E+00  0.93827000000E+00 0.  1.
     999902    2    1    2    0    0  0.16943393418E-01 -0.14810855856E-02  0.12005063998E-01  0.10231118887E+01  0.10229000651E+01 0.  0.
     999903    2    3    3    0    0 -0.10520072819E+00 -0.57212233962E-01  0.50141983292E-01  0.13211269011E+00  0.24476753738E-01 0.  0.
         14    1    1    2    0    0 -0.16943393418E-01  0.14810855856E-02 -0.12005063998E-01  0.20818111264E-01  0.00000000000E+00 0. -1.
     999901    1    3    3    0    0  0.12214412160E+00  0.55731148376E-01 -0.38136919294E-01  0.89099919863E+00  0.88000000000E+00 0. -1.
        -11    1    4    4    0    0 -0.66322858398E-01 -0.37200602416E-01  0.18866661221E-01  0.78350611950E-01  0.51100000000E-03 0.  1.
         11    1    4    4    0    0 -0.38877869787E-01 -0.20011631546E-01  0.31275322071E-01  0.53762078159E-01  0.51100000000E-03 0. -1.
</event>
<event>
 8    1  0.1075206E+005  0.1043930E+01  0.7957747E-01            NaN
         13   -1    0    0    0    0  0.00000000000E+00  0.00000000000E+00  0.74505805969E-08  0.10566000000E+00  0.10566000000E+00 0. -1.
     999900   -1    0    0    0    0 -0.00000000000E+00 -0.00000000000E+00 -0.74505805969E-08  0.93827000000E+00  0.93827000000E+00 0.  1.
     999902    2    1    2    0    0 -0.64021904207E-02 -0.19676166027E-01  0.11200053779E-01  0.10204017031E+01  0.10201304107E+01 0.  0.
     999903    2    3    3    0    0  0.17353584946E-01 -0.81532673378E-01  0.10207736225E+00  0.13324374106E+00  0.19631171876E-01 0.  0.
         14    1    1    2    0    0  0.64021904207E-02  0.19676166027E-01 -0.11200053779E-01  0.23528296928E-01  0.00000000000E+00 0.  1.
     999901    1    3    3    0    0 -0.23755775367E-01  0.61856507351E-01 -0.90877308471E-01  0.88715796201E+00  0.88000000000E+00 0.  1.
        -11    1    4    4    0    0  0.69694859441E-02 -0.41270305312E-01  0.36199302150E-01  0.55339519622E-01  0.51100000000E-03 0. -1.
         11    1    4    4    0    0  0.10384099002E-01 -0.40262368066E-01  0.65878060100E-01  0.77904221438E-01  0.51100000000E-03 0.  1.
</event>
<event>
 8    1  0.1075206E+005  0.1043930E+01  0.7957747E-01            NaN
         13   -1    0    0    0    0  0.00000000000E+00  0.00000000000E+00  0.74505805969E-08  0.10566000000E+00  0.10566000000E+00 0. -1.
     999900   -1    0    0    0    0 -0.00000000000E+00 -0.00000000000E+00 -0.74505805969E-08  0.93827000000E+00  0.93827000000E+00 0. -1.
     999902    2    1    2    0    0 -0.20303257122E-02 -0.89480438107E-02  0.14292807902E-01  0.10269454756E+01  0.10268050135E+01 0.  0.
     999903    2    3    3    0    0 -0.68831099437E-01 -0.22219217470E-01 -0.11244625711E+00  0.13526096975E+00  0.20492811505E-01 0.  0.
         14    1    1    2    0    0  0.20303257122E-02  0.89480438107E-02 -0.14292807902E-01  0.16984524376E-01  0.00000000000E+00 0.  1.
     999901    1    3    3    0    0  0.66800773725E-01  0.13271173660E-01  0.12673906502E+00  0.89168450588E+00  0.88000000000E+00 0.  1.
        -11    1    4    4    0    0 -0.45288903961E-01 -0.24116751587E-01 -0.71854263167E-01  0.88294953340E-01  0.51100000000E-03 0.  1.
         11    1    4    4    0    0 -0.23542195477E-01  0.18975341171E-02 -0.40591993946E-01  0.46966016407E-01  0.51100000000E-03 0. -1.
</event>
<event>
 8    1  0.1075206E+005  0.1043930E+01  0.7957747E-01            NaN
         13   -1    0    0    0    0  0.00000000000E+00  0.00000000000E+00  0.74505805969E-08  0.10566000000E+00  0.10566000000E+00 0.  1.
     999900   -1    0    0    0    0 -0.00000000000E+00 -0.00000000000E+00 -0.74505805969E-08  0.93827000000E+00  0.93827000000E+00 0. -1.
     999902    2    1    2    0    0  0.13366866877E-01  0.76569432738E-02 -0.18131445306E-01  0.10201381691E+01  0.10198606928E+01 0.  0.
     999903    2    3    3    0    0 -0.88278170604E-01  0.65471395704E-01  0.63898112887E-01  0.12862088209E+00  0.19514697509E-01 0.  0.
         14    1    1    2    0    0 -0.13366866877E-01 -0.76569432738E-02  0.18131445306E-01  0.23791830936E-01  0.00000000000E+00 0.  1.
     999901    1    3    3    0    0  0.10164503748E+00 -0.57814452430E-01 -0.82029558192E-01  0.89151728697E+00  0.88000000000E+00 0. -1.
        -11    1    4    4    0    0 -0.43825002837E-02  0.10247975386E-01  0.72605615030E-02  0.13311806135E-01  0.51100000000E-03 0. -1.
         11    1    4    4    0    0 -0.83895670320E-01  0.55223420318E-01  0.56637551384E-01  0.11530907596E+00  0.51100000000E-03 0.  1.
</event>
<event>
 8    1  0.1075206E+005  0.1043930E+01  0.7957747E-01            NaN
         13   -1    0    0    0    0  0.00000000000E+00  0.00000000000E+00  0.74505805969E-08  0.10566000000E+00  0.10566000000E+00 0.  1.
     999900   -1    0    0    0    0 -0.00000000000E+00 -0.00000000000E+00 -0.74505805969E-08  0.93827000000E+00  0.93827000000E+00 0.  1.
     999902    2    1    2    0    0 -0.13275998509E-01 -0.11487915298E-01 -0.20540232293E-01  0.10169091659E+01  0.10165501100E+01 0.  0.
     999903    2    3    3    0    0 -0.79643770100E-01 -0.91342902752E-01  0.39005714900E-01  0.12880600748E+00  0.19567467084E-01 0.  0.
         14    1    1    2    0    0  0.13275998509E-01  0.11487915298E-01  0.20540232293E-01  0.27020834128E-01  0.00000000000E+00 0.  1.
     999901    1    3    3    0    0  0.66367771591E-01  0.79854987454E-01 -0.59545947193E-01  0.88810315840E+00  0.88000000000E+00 0. -1.
        -11    1    4    4    0    0 -0.12325410942E-01 -0.21596959141E-01  0.14618592925E-01  0.28849762203E-01  0.51100000000E-03 0. -1.
         11    1    4    4    0    0 -0.67318359158E-01 -0.69745943610E-01  0.24387121975E-01  0.99956245273E-01  0.51100000000E-03 0.  1.
</event>
<event>
 8    1  0.1075206E+005  0.1043930E+01  0.7957747E-01            NaN
         13   -1    0    0    0    0  0.00000000000E+00  0.00000000000E+00  0.74505805969E-08  0.10566000000E+00  0.10566000000E+00 0.  1.
     999900   -1    0    0    0    0 -0.00000000000E+00 -0.00000000000E+00 -0.74505805969E-08  0.93827000000E+00  0.93827000000E+00 0.  1.
     999902    2    1    2    0    0  0.23447797269E-01  0.13901436565E-02 -0.47837958657E-02  0.10199588424E+01  0.10196771174E+01 0.  0.
     999903    2    3    3    0    0 -0.11133678733E+00  0.32562636104E-01 -0.50247227265E-01  0.12799161643E+00  0.20021601959E-01 0.  0.
         14    1    1    2    0    0 -0.23447797269E-01 -0.13901436565E-02  0.47837958657E-02  0.23971157649E-01  0.00000000000E+00 0.  1.
     999901    1    3    3    0    0  0.13478458460E+00 -0.31172492448E-01  0.45463431399E-01  0.89196722593E+00  0.88000000000E+00 0.  1.
        -11    1    4    4    0    0 -0.65515085466E-01  0.23179476017E-01 -0.39718920957E-01  0.80046038847E-01  0.51100000000E-03 0.  1.
         11    1    4    4    0    0 -0.45821701861E-01  0.93831600872E-02 -0.10528306308E-01  0.47945577579E-01  0.51100000000E-03 0. -1.
</event>
<event>
 8    1  0.1075206E+005  0.1043930E+01  0.7957747E-01            NaN
         13   -1    0    0    0    0  0.00000000000E+00  0.00000000000E+00  0.74505805969E-08  0.10566000000E+00  0.10566000000E+00 0.  1.
     999900   -1    0    0    0    0 -0.00000000000E+00 -0.00000000000E+00 -0.74505805969E-08  0.93827000000E+00  0.93827000000E+00 0. -1.
     999902    2    1    2    0    0 -0.17581265671E-01 -0.14629645123E-01  0.48681907649E-02  0.10205456740E+01  0.10202777299E+01 0.  0.
     999903    2    3    3    0    0  0.61031682817E-01  0.10600843443E+00  0.33600648781E-01  0.12838027679E+00  0.19744300287E-01 0.  0.
         14    1    1    2    0    0  0.17581265671E-01  0.14629645123E-01 -0.48681907649E-02  0.23384325954E-01  0.00000000000E+00 0. -1.
     999901    1    3    3    0    0 -0.78612948488E-01 -0.12063807955E+00 -0.28732458016E-01  0.89216539725E+00  0.88000000000E+00 0. -1.
        -11    1    4    4    0    0  0.46403792218E-01  0.62112513468E-01  0.18551114478E-01  0.79722526496E-01  0.51100000000E-03 0.  1.
         11    1    4    4    0    0  0.14627890599E-01  0.43895920961E-01  0.15049534303E-01  0.48657750299E-01  0.51100000000E-03 0. -1.
</event>
<event>
 8    1  0.1075206E+005  0.1043930E+01  0.7957747E-01            NaN
         13   -1    0    0    0    0  0.00000000000E+00  0.00000000000E+00  0.74505805969E-08  0.10566000000E+00  0.10566000000E+00 0. -1.
     999900   -1    0    0    0    0 -0.00000000000E+00 -0.00000000000E+00 -0.74505805969E-08  0.93827000000E+00  0.93827000000E+00 0.  1.
     999902    2    1    2    0    0 -0.14758592744E-02 -0.17482378902E-02 -0.23999598283E-01  0.10198215945E+01  0.10195365955E+01 0.  0.
     999903    2    3    3    0    0  0.46628191294E-01 -0.12997459418E-01 -0.12222979363E+00  0.13297904033E+00  0.20004513067E-01 0.  0.
         14    1    1    2    0    0  0.14758592744E-02  0.17482378902E-02  0.23999598283E-01  0.24108405465E-01  0.00000000000E+00 0. -1.
     999901    1    3    3    0    0 -0.48104050568E-01  0.11249221528E-01  0.98230195345E-01  0.88684255420E+00  0.88000000000E+00 0.  1.
        -11    1    4    4    0    0  0.43129581633E-01 -0.17586923065E-01 -0.10827402278E+00  0.11786851065E+00  0.51100000000E-03 0.  1.
         11    1    4    4    0    0  0.34986096610E-02  0.45894636466E-02 -0.13955770852E-01  0.15110529680E-01  0.51100000000E-03 0. -1.
</event>
<event>
 8    1  0.1075206E+005  0.1043930E+01  0.7957747E-01            NaN
         13   -1    0    0    0    0  0.00000000000E+00  0.00000000000E+00  0.74505805969E-08  0.10566000000E+00  0.10566000000E+00 0.  1.
     999900   -1    0    0    0    0 -0.00000000000E+00 -0.00000000000E+00 -0.74505805969E-08  0.93827000000E+00  0.93827000000E+00 0.  1.
     999902    2    1    2    0    0  0.10889491333E-01 -0.72649339740E-02  0.17641097301E-01  0.10219625559E+01  0.10217264296E+01 0.  0.
     999903    2    3    3    0    0  0.10014420552E+00 -0.79455167790E-01 -0.31186941108E-01  0.13316448478E+00  0.20449183892E-01 0.  0.
         14    1    1    2    0    0 -0.10889491333E-01  0.72649339740E-02 -0.17641097301E-01  0.21967444119E-01  0.00000000000E+00 0. -1.
     999901    1    3    3    0    0 -0.89254714190E-01  0.72190233816E-01  0.48828038409E-01  0.88879807110E+00  0.88000000000E+00 0. -1.
        -11    1    4    4    0    0  0.36286499489E-01 -0.17972741293E-01 -0.14137329714E-01  0.42893527334E-01  0.51100000000E-03 0.  1.
         11    1    4    4    0    0  0.63857706034E-01 -0.61482426497E-01 -0.17049611394E-01  0.90270957442E-01  0.51100000000E-03 0. -1.
</event>
<event>
 8    1  0.1075206E+005  0.1043930E+01  0.7957747E-01            NaN
         13   -1    0    0    0    0  0.00000000000E+00  0.00000000000E+00  0.74505805969E-08  0.10566000000E+00  0.10566000000E+00 0. -1.
     999900   -1    0    0    0    0 -0.00000000000E+00 -0.00000000000E+00 -0.74505805969E-08  0.93827000000E+00  0.93827000000E+00 0. -1.
     999902    2    1    2    0    0 -0.17407693145E-01 -0.14120740103E-01 -0.26128284660E-01  0.10095045684E+01  0.10089174214E+01 0.  0.
     999903    2    3    3    0    0 -0.38899082105E-01  0.17892868553E-01  0.10860567669E+00  0.11841535217E+00  0.19842108955E-01 0.  0.
         14    1    1    2    0    0  0.17407693145E-01  0.14120740103E-01  0.26128284660E-01  0.34425431601E-01  0.00000000000E+00 0. -1.
     999901    1    3    3    0    0  0.21491388960E-01 -0.32013608656E-01 -0.13473396134E+00  0.89108921623E+00  0.88000000000E+00 0. -1.
        -11    1    4    4    0    0 -0.24742678629E-01  0.19131060420E-01  0.87876915432E-01  0.93278137875E-01  0.51100000000E-03 0. -1.
         11    1    4    4    0    0 -0.14156403476E-01 -0.12381918667E-02  0.20728761253E-01  0.25137214296E-01  0.51100000000E-03 0.  1.
</event>
<event>
 8    1  0.1075206E+005  0.1043930E+01  0.7957747E-01            NaN
         13   -1    0    0    0    0  0.00000000000E+00  0.00000000000E+00  0.74505805969E-08  0.10566000000E+00  0.10566000000E+00 0. -1.
     999900   -1    0    0    0    0 -0.00000000000E+00 -0.00000000000E+00 -0.74505805969E-08  0.93827000000E+00  0.93827000000E+00 0. -1.
     999902    2    1    2    0    0 -0.28859690654E-02  0.41375297485E-02  0.23657822338E-01  0.10197403219E+01  0.10194533749E+01 0.  0.
     999903    2    3    3    0    0 -0.41989362253E-01 -0.42602873498E-02 -0.11846580943E+00  0.12744063825E+00  0.20632781784E-01 0.  0.
         14    1    1    2    0    0  0.28859690654E-02 -0.41375297485E-02 -0.23657822338E-01  0.24189678122E-01  0.00000000000E+00 0.  1.
     999901    1    3    3    0    0  0.39103393187E-01  0.83978170983E-02  0.14212363177E+00  0.89229968362E+00  0.88000000000E+00 0.  1.
        -11    1    4    4    0    0 -0.25670408418E-01  0.64809749405E-02 -0.55165109199E-01  0.61191693052E-01  0.51100000000E-03 0. -1.
         11    1    4    4    0    0 -0.16318953834E-01 -0.10741262290E-01 -0.63300700229E-01  0.66248945202E-01  0.51100000000E-03 0.  1.
</event>
<event>
 8    1  0.1075206E+005  0.1043930E+01  0.7957747E-01            NaN
         13   -1    0    0    0    0  0.00000000000E+00  0.00000000000E+00  0.74505805969E-08  0.10566000000E+00  0.10566000000E+00 0.  1.
     999900   -1    0    0    0    0 -0.00000000000E+00 -0.00000000000E+00 -0.74505805969E-08  0.93827000000E+00  0.93827000000E+00 0.  1.
     999902    2    1    2    0    0 -0.96795061655E-03 -0.90950892241E-02 -0.22427716618E-01  0.10197089338E+01  0.10194212326E+01 0.  0.
     999903    2    3    3    0    0  0.95909355801E-01  0.20806008723E-01 -0.85567227941E-01  0.13164030690E+00  0.19388795035E-01 0.  0.
         14    1    1    2    0    0  0.96795061655E-03  0.90950892241E-02  0.22427716618E-01  0.24221066225E-01  0.00000000000E+00 0.  1.
     999901    1    3    3    0    0 -0.96877306417E-01 -0.29901097947E-01  0.63139511323E-01  0.88806862688E+00  0.88000000000E+00 0.  1.
        -11    1    4    4    0    0  0.44033170556E-01  0.10909814842E-01 -0.52241168693E-01  0.69190642406E-01  0.51100000000E-03 0. -1.
         11    1    4    4    0    0  0.51876185245E-01  0.98961938811E-02 -0.33326059248E-01  0.62449664490E-01  0.51100000000E-03 0.  1.
</event>
<event>
 8    1  0.1075206E+005  0.1043930E+01  0.7957747E-01            NaN
         13   -1    0    0    0    0  0.00000000000E+00  0.00000000000E+00  0.74505805969E-08  0.10566000000E+00  0.10566000000E+00 0. -1.
     999900   -1    0    0    0    0 -0.00000000000E+00 -0.00000000000E+00 -0.74505805969E-08  0.93827000000E+00  0.93827000000E+00 0. -1.
     999902    2    1    2    0    0 -0.25514616359E-02 -0.12119664840E-01 -0.20635787678E-01  0.10198627616E+01  0.10195787466E+01 0.  0.
     999903    2    3    3    0    0  0.11686879604E+00 -0.54311020782E-01  0.25078422208E-02  0.13049392017E+00  0.20356116116E-01 0.  0.
         14    1    1    2    0    0  0.25514616359E-02  0.12119664840E-01  0.20635787678E-01  0.24067238425E-01  0.00000000000E+00 0. -1.
     999901    1    3    3    0    0 -0.11942025767E+00  0.42191355941E-01 -0.23143629899E-01  0.88936884141E+00  0.88000000000E+00 0. -1.
        -11    1    4    4    0    0  0.19078045927E-01 -0.77100576154E-02  0.78618385959E-02  0.22033757100E-01  0.51100000000E-03 0.  1.
         11    1    4    4    0    0  0.97790750109E-01 -0.46600963166E-01 -0.53539963751E-02  0.10846016307E+00  0.51100000000E-03 0. -1.
</event>
<event>
 8    1  0.1075206E+005  0.1043930E+01  0.7957747E-01            NaN
         13   -1    0    0    0    0  0.00000000000E+00  0.00000000000E+00  0.74505805969E-08  0.10566000000E+00  0.10566000000E+00 0.  1.
     999900   -1    0    0    0    0 -0.00000000000E+00 -0.00000000000E+00 -0.74505805969E-08  0.93827000000E+00  0.93827000000E+00 0.  1.
     999902    2    1    2    0    0  0.10770959067E-01 -0.20148203185E-01 -0.35351237646E-03  0.10210807413E+01  0.10208250544E+01 0.  0.
     999903    2    3    3    0    0  0.16991257193E-01  0.11249261104E+00  0.58160919943E-01  0.12919721951E+00  0.19129520622E-01 0.  0.
         14    1    1    2    0    0 -0.10770959067E-01  0.20148203185E-01  0.35351237646E-03  0.22849258671E-01  0.00000000000E+00 0. -1.
     999901    1    3    3    0    0 -0.62202981256E-02 -0.13264081423E+00 -0.58514432320E-01  0.89188352182E+00  0.88000000000E+00 0.  1.
        -11    1    4    4    0    0 -0.40098490002E-02  0.26789568980E-01  0.12367386591E-01  0.29782096421E-01  0.51100000000E-03 0. -1.
         11    1    4    4    0    0  0.21001106193E-01  0.85703042065E-01  0.45793533352E-01  0.99415123086E-01  0.51100000000E-03 0.  1.
</event>
<event>
 8    1  0.1075206E+005  0.1043930E+01  0.7957747E-01            NaN
         13   -1    0    0    0    0  0.00000000000E+00  0.00000000000E+00  0.74505805969E-08  0.10566000000E+00  0.10566000000E+00 0. -1.
     999900   -1    0    0    0    0 -0.00000000000E+00 -0.00000000000E+00 -0.74505805969E-08  0.93827000000E+00  0.93827000000E+00 0.  1.
     999902    2    1    2    0    0 -0.74204177245E-03 -0.20997988076E-01 -0.89394352585E-02  0.10210962611E+01  0.10208409253E+01 0.  0.
     999903    2    3    3    0    0 -0.53878632081E-01 -0.11341787785E+00  0.40238970606E-01  0.13329929735E+00  0.19570536690E-01 0.  0.
         14    1    1    2    0    0  0.74204177245E-03  0.20997988076E-01  0.89394352585E-02  0.22833738896E-01  0.00000000000E+00 0. -1.
     999901    1    3    3    0    0  0.53136590309E-01  0.92419889774E-01 -0.49178405864E-01  0.88779696376E+00  0.88000000000E+00 0.  1.
        -11    1    4    4    0    0 -0.28712939943E-01 -0.44876923315E-01  0.24322166018E-01  0.58567909705E-01  0.51100000000E-03 0. -1.
         11    1    4    4    0    0 -0.25165692138E-01 -0.68540954535E-01  0.15916804588E-01  0.74731387640E-01  0.51100000000E-03 0.  1.
</event>
<event>
 8    1  0.1075206E+005  0.1043930E+01  0.7957747E-01            NaN
         13   -1    0    0    0    0  0.00000000000E+00  0.00000000000E+00  0.74505805969E-08  0.10566000000E+00  0.10566000000E+00 0. -1.
     999900   -1    0    0    0    0 -0.00000000000E+00 -0.00000000000E+00 -0.74505805969E-08  0.93827000000E+00  0.93827000000E+00 0.  1.
     999902    2    1    2    0    0 -0.56496381108E-03 -0.10131821959E-01  0.22436360401E-01  0.10193055555E+01  0.10190080727E+01 0.  0.
     999903    2    3    3    0    0 -0.10453393974E+00 -0.63386013488E-01  0.42570028881E-01  0.13135796610E+00  0.22306425870E-01 0.  0.
         14    1    1    2    0    0  0.56496381108E-03  0.10131821959E-01 -0.22436360401E-01  0.24624444529E-01  0.00000000000E+00 0.  1.
     999901    1    3    3    0    0  0.10396897593E+00  0.53254191529E-01 -0.20133668480E-01  0.88794758938E+00  0.88000000000E+00 0.  1.
        -11    1    4    4    0    0 -0.52299596835E-01 -0.36891560775E-01  0.32997323768E-01  0.72009163183E-01  0.51100000000E-03 0.  1.
         11    1    4    4    0    0 -0.52234342902E-01 -0.26494452714E-01  0.95727051126E-02  0.59348802912E-01  0.51100000000E-03 0. -1.
</event>
<event>
 8    1  0.1075206E+005  0.1043930E+01  0.7957747E-01            NaN
         13   -1    0    0    0    0  0.00000000000E+00  0.00000000000E+00  0.74505805969E-08  0.10566000000E+00  0.10566000000E+00 0. -1.
     999900   -1    0    0    0    0 -0.00000000000E+00 -0.00000000000E+00 -0.74505805969E-08  0.93827000000E+00  0.93827000000E+00 0.  1.
     999902    2    1    2    0    0  0.12672182975E-01 -0.18852806057E-01  0.81269009236E-02  0.10198041003E+01  0.10195186825E+01 0.  0.
     999903    2    3    3    0    0  0.12953157978E-01 -0.10672069972E+00 -0.73063475610E-01  0.13170910374E+00  0.21258515666E-01 0.  0.
         14    1    1    2    0    0 -0.12672182975E-01  0.18852806057E-01 -0.81269009236E-02  0.24125899697E-01  0.00000000000E+00 0.  1.
     999901    1    3    3    0    0 -0.28097500296E-03  0.87867893664E-01  0.81190376534E-01  0.88809499657E+00  0.88000000000E+00 0. -1.
        -11    1    4    4    0    0  0.16900387130E-01 -0.87055074073E-01 -0.52887703602E-01  0.10325492395E+00  0.51100000000E-03 0. -1.
         11    1    4    4    0    0 -0.39472291521E-02 -0.19665625649E-01 -0.20175772008E-01  0.28454179785E-01  0.51100000000E-03 0.  1.
</event>
<event>
 8    1  0.1075206E+005  0.1043930E+01  0.7957747E-01            NaN
         13   -1    0    0    0    0  0.00000000000E+00  0.00000000000E+00  0.74505805969E-08  0.10566000000E+00  0.10566000000E+00 0. -1.
     999900   -1    0    0    0    0 -0.00000000000E+00 -0.00000000000E+00 -0.74505805969E-08  0.93827000000E+00  0.93827000000E+00 0.  1.
     999902    2    1    2    0    0  0.18687799512E-01 -0.72229658473E-03  0.13127308104E-01  0.10210808910E+01  0.10208252075E+01 0.  0.
     999903    2    3    3    0    0  0.88602015161E-01  0.67798606297E-01  0.70889263720E-01  0.13377059851E+00  0.20550357877E-01 0.  0.
         14    1    1    2    0    0 -0.18687799512E-01  0.72229658473E-03 -0.13127308104E-01  0.22849108976E-01  0.00000000000E+00 0.  1.
     999901    1    3    3    0    0 -0.69914215649E-01 -0.68520902882E-01 -0.57761955617E-01  0.88731029251E+00  0.88000000000E+00 0.  1.
        -11    1    4    4    0    0  0.10218572926E-01  0.32494365448E-02  0.16315588219E-02  0.10858230781E-01  0.51100000000E-03 0. -1.
         11    1    4    4    0    0  0.78383442235E-01  0.64549169753E-01  0.69257704899E-01  0.12291236773E+00  0.51100000000E-03 0.  1.
</event>
<event>
 8    1  0.1075206E+005  0.1043930E+01  0.7957747E-01            NaN
         13   -1    0    0    0    0  0.00000000000E+00  0.00000000000E+00  0.74505805969E-08  0.10566000000E+00  0.10566000000E+00 0.  1.
     999900   -1    0    0    0    0 -0.00000000000E+00 -0.00000000000E+00 -0.74505805969E-08  0.93827000000E+00  0.93827000000E+00 0. -1.
     999902    2    1    2    0    0  0.62400944582E-02 -0.18527466259E-01  0.14195860279E-01  0.10197695316E+01  0.10194832855E+01 0.  0.
     999903    2    3    3    0    0 -0.71015614587E-01  0.10011297147E+00 -0.27103902365E-01  0.12749733745E+00  0.21333657946E-01 0.  0.
         14    1    1    2    0    0 -0.62400944582E-02  0.18527466259E-01 -0.14195860279E-01  0.24160468412E-01  0.00000000000E+00 0. -1.
     999901    1    3    3    0    0  0.77255709045E-01 -0.11864043773E+00  0.41299762645E-01  0.89227219414E+00  0.88000000000E+00 0. -1.
        -11    1    4    4    0    0 -0.52319544956E-01  0.66308271394E-01 -0.27600683262E-01  0.88860455081E-01  0.51100000000E-03 0. -1.
         11    1    4    4    0    0 -0.18696069631E-01  0.33804700072E-01  0.49678089617E-03  0.38636882365E-01  0.51100000000E-03 0.  1.
</event>
<event>
 8    1  0.1075206E+005  0.1043930E+01  0.7957747E-01            NaN
         13   -1    0    0    0    0  0.00000000000E+00  0.00000000000E+00  0.74505805969E-08  0.10566000000E+00  0.10566000000E+00 0. -1.
     999900   -1    0    0    0    0 -0.00000000000E+00 -0.00000000000E+00 -0.74505805969E-08  0.93827000000E+00  0.93827000000E+00 0.  1.
     999902    2    1    2    0    0 -0.42406698196E-03  0.89304048933E-02 -0.22650043589E-01  0.10195793031E+01  0.10192884768E+01 0.  0.
     999903    2    3    3    0    0  0.14940459122E-01 -0.28690749224E-01  0.12121297779E+00  0.12697189287E+00  0.19567809894E-01 0.  0.
         14    1    1    2    0    0  0.42406698196E-03 -0.89304048933E-02  0.22650043589E-01  0.24350696889E-01  0.00000000000E+00 0. -1.
     999901    1    3    3    0    0 -0.15364526104E-01  0.37621154118E-01 -0.14386302138E+00  0.89260741024E+00  0.88000000000E+00 0.  1.
        -11    1    4    4    0    0  0.13507908533E-01 -0.24256025506E-01  0.66586342294E-01  0.72144441694E-01  0.51100000000E-03 0. -1.
         11    1    4    4    0    0  0.14325505890E-02 -0.44347237186E-02  0.54626635496E-01  0.54827451174E-01  0.51100000000E-03 0.  1.
</event>
<event>
 8    1  0.1075206E+005  0.1043930E+01  0.7957747E-01            NaN
         13   -1    0    0    0    0  0.00000000000E+00  0.00000000000E+00  0.74505805969E-08  0.10566000000E+00  0.10566000000E+00 0. -1.
     999900   -1    0    0    0    0 -0.00000000000E+00 -0.00000000000E+00 -0.74505805969E-08  0.93827000000E+00  0.93827000000E+00 0. -1.
     999902    2    1    2    0    0  0.11507345409E-01 -0.79432241843E-02 -0.18872100209E-01  0.10204423442E+01  0.10201719992E+01 0.  0.
     999903    2    3    3    0    0 -0.28913366693E-01  0.11833999848E+00  0.36507310655E-01  0.12878760976E+00  0.20325518047E-01 0.  0.
         14    1    1    2    0    0 -0.11507345409E-01  0.79432241843E-02  0.18872100209E-01  0.23487655802E-01  0.00000000000E+00 0. -1.
     999901    1    3    3    0    0  0.40420712102E-01 -0.12628322266E+00 -0.55379410864E-01  0.89165473444E+00  0.88000000000E+00 0.  1.
        -11    1    4    4    0    0 -0.10879689933E-01  0.79548751547E-01  0.18646645931E-01  0.82427726228E-01  0.51100000000E-03 0. -1.
         11    1    4    4    0    0 -0.18033676760E-01  0.38791246931E-01  0.17860664724E-01  0.46359883535E-01  0.51100000000E-03 0.  1.
</event>
<event>
 8    1  0.1075206E+005  0.1043930E+01  0.7957747E-01            NaN
         13   -1    0    0    0    0  0.00000000000E+00  0.00000000000E+00  0.74505805969E-08  0.10566000000E+00  0.10566000000E+00 0. -1.
     999900   -1    0    0    0    0 -0.00000000000E+00 -0.00000000000E+00 -0.74505805969E-08  0.93827000000E+00  0.93827000000E+00 0. -1.
     999902    2    1    2    0    0  0.10605399902E-01  0.20630152430E-01 -0.38050953537E-04  0.10207334670E+01  0.10204698582E+01 0.  0.
     999903    2    3    3    0    0 -0.81031869878E-01  0.10212392169E+00  0.97515281143E-02  0.13217595083E+00  0.19491802392E-01 0.  0.
         14    1    1    2    0    0 -0.10605399902E-01 -0.20630152430E-01  0.38050953537E-04  0.23196533022E-01  0.00000000000E+00 0. -1.
     999901    1    3    3    0    0  0.91637269779E-01 -0.81493769261E-01 -0.97895790678E-02  0.88855751615E+00  0.88000000000E+00 0. -1.
        -11    1    4    4    0    0 -0.10731025083E-01  0.24214989664E-01 -0.20747944669E-02  0.26572288514E-01  0.51100000000E-03 0. -1.
         11    1    4    4    0    0 -0.70300844794E-01  0.77908932027E-01  0.11826322581E-01  0.10560366232E+00  0.51100000000E-03 0.  1.
</event>
<event>
 8    1  0.1075206E+005  0.1043930E+01  0.7957747E-01            NaN
         13   -1    0    0    0    0  0.00000000000E+00  0.00000000000E+00  0.74505805969E-08  0.10566000000E+00  0.10566000000E+00 0.  1.
     999900   -1    0    0    0    0 -0.00000000000E+00 -0.00000000000E+00 -0.74505805969E-08  0.93827000000E+00  0.93827000000E+00 0. -1.
     999902    2    1    2    0    0 -0.13057502757E-01  0.77839521023E-02  0.17981069695E-01  0.10203841478E+01  0.10201124457E+01 0.  0.
     999903    2    3    3    0    0  0.86357352458E-01 -0.49627522232E-01 -0.77470311265E-01  0.12780902101E+00  0.20322732068E-01 0.  0.
         14    1    1    2    0    0  0.13057502757E-01 -0.77839521023E-02 -0.17981069695E-01  0.23545852203E-01  0.00000000000E+00 0. -1.
     999901    1    3    3    0    0 -0.99414855216E-01  0.57411474334E-01  0.95451380961E-01  0.89257512678E+00  0.88000000000E+00 0.  1.
        -11    1    4    4    0    0  0.69358298815E-01 -0.40717934156E-01 -0.51468444677E-01  0.95487097007E-01  0.51100000000E-03 0. -1.
         11    1    4    4    0    0  0.16999053643E-01 -0.89095880761E-02 -0.26001866588E-01  0.32321924007E-01  0.51100000000E-03 0.  1.
</event>
<event>
 8    1  0.1075206E+005  0.1043930E+01  0.7957747E-01            NaN
         13   -1    0    0    0    0  0.00000000000E+00  0.00000000000E+00  0.74505805969E-08  0.10566000000E+00  0.10566000000E+00 0. -1.
     999900   -1    0    0    0    0 -0.00000000000E+00 -0.00000000000E+00 -0.74505805969E-08  0.93827000000E+00  0.93827000000E+00 0. -1.
     999902    2    1    2    0    0 -0.46992076976E-02 -0.43837147442E-02 -0.23729160297E-01  0.10193460102E+01  0.10190495159E+01 0.  0.
     999903    2    3    3    0    0 -0.12203948988E+00  0.27714128661E-02  0.38011113293E-01  0.12938432612E+00  0.19852992060E-01 0.  0.
         14    1    1    2    0    0  0.46992076976E-02  0.43837147442E-02  0.23729160297E-01  0.24583989838E-01  0.00000000000E+00 0. -1.
     999901    1    3    3    0    0  0.11734028218E+00 -0.71551276102E-02 -0.61740273590E-01  0.88996168404E+00  0.88000000000E+00 0.  1.
        -11    1    4    4    0    0 -0.26263507671E-01 -0.52786353147E-03  0.16938932885E-01  0.31260822819E-01  0.51100000000E-03 0.  1.
         11    1    4    4    0    0 -0.95775982208E-01  0.32992763975E-02  0.21072180408E-01  0.98123503305E-01  0.51100000000E-03 0. -1.
</event>
<event>
 8    1  0.1075206E+005  0.1043930E+01  0.7957747E-01            NaN
         13   -1    0    0    0    0  0.00000000000E+00  0.00000000000E+00  0.74505805969E-08  0.10566000000E+00  0.10566000000E+00 0.  1.
     999900   -1    0    0    0    0 -0.00000000000E+00 -0.00000000000E+00 -0.74505805969E-08  0.93827000000E+00  0.93827000000E+00 0.  1.
     999902    2    1    2    0    0  0.69443778948E-02  0.16530390016E-01 -0.38133962705E-02  0.10255991471E+01  0.10254353175E+01 0.  0.
     999903    2    3    3    0    0  0.12094865809E+00 -0.29505911929E-01  0.49986146029E-01  0.13542460926E+00  0.18494141384E-01 0.  0.
         14    1    1    2    0    0 -0.69443778948E-02 -0.16530390016E-01  0.38133962705E-02  0.18330852941E-01  0.00000000000E+00 0.  1.
     999901    1    3    3    0    0 -0.11400428019E+00  0.46036301945E-01 -0.53799542300E-01  0.89017453780E+00  0.88000000000E+00 0.  1.
        -11    1    4    4    0    0  0.50548038997E-01 -0.21074126284E-01  0.18117128344E-01  0.57686345919E-01  0.51100000000E-03 0.  1.
         11    1    4    4    0    0  0.70400619091E-01 -0.84317856446E-02  0.31869017685E-01  0.77738263337E-01  0.51100000000E-03 0. -1.
</event>
<event>
 8    1  0.1075206E+005  0.1043930E+01  0.7957747E-01            NaN
         13   -1    0    0    0    0  0.00000000000E+00  0.00000000000E+00  0.74505805969E-08  0.10566000000E+00  0.10566000000E+00 0. -1.
     999900   -1    0    0    0    0 -0.00000000000E+00 -0.00000000000E+00 -0.74505805969E-08  0.93827000000E+00  0.93827000000E+00 0.  1.
     999902    2    1    2    0    0  0.10820158361E-01  0.16877796591E-01 -0.12906541537E-01  0.10200864546E+01  0.10198077565E+01 0.  0.
     999903    2    3    3    0    0  0.13025166763E+00  0.50677509857E-02  0.10718506355E-02  0.13183043402E+00  0.19670674833E-01 0.  0.
         14    1    1    2    0    0 -0.10820158361E-01 -0.16877796591E-01  0.12906541537E-01  0.23843545441E-01  0.00000000000E+00 0. -1.
     999901    1    3    3    0    0 -0.11943150927E+00  0.11810045605E-01 -0.13978392173E-01  0.88825602054E+00  0.88000000000E+00 0.  1.
        -11    1    4    4    0    0  0.85155415700E-01  0.55456844153E-02 -0.83839520733E-02  0.85748184891E-01  0.51100000000E-03 0.  1.
         11    1    4    4    0    0  0.45096251931E-01 -0.47793342954E-03  0.94558027088E-02  0.46082249125E-01  0.51100000000E-03 0. -1.
</event>
<event>
 8    1  0.1075206E+005  0.1043930E+01  0.7957747E-01            NaN
         13   -1    0    0    0    0  0.00000000000E+00  0.00000000000E+00  0.74505805969E-08  0.10566000000E+00  0.10566000000E+00 0.  1.
     999900   -1    0    0    0    0 -0.00000000000E+00 -0.00000000000E+00 -0.74505805969E-08  0.93827000000E+00  0.93827000000E+00 0. -1.
     999902    2    1    2    0    0  0.23148814110E-01  0.49028815480E-02 -0.44859591380E-03  0.10202634185E+01  0.10199888901E+01 0.  0.
     999903    2    3    3    0    0 -0.17298291312E-01 -0.35896419852E-01  0.12198564763E+00  0.12993162903E+00  0.20345666680E-01 0.  0.
         14    1    1    2    0    0 -0.23148814110E-01 -0.49028815480E-02  0.44859591380E-03  0.23666581512E-01  0.00000000000E+00 0. -1.
     999901    1    3    3    0    0  0.40447105422E-01  0.40799301400E-01 -0.12243424355E+00  0.89033178946E+00  0.88000000000E+00 0. -1.
        -11    1    4    4    0    0 -0.36965920023E-02 -0.10550815834E-01  0.12721574355E-01  0.16943555774E-01  0.51100000000E-03 0.  1.
         11    1    4    4    0    0 -0.13601699310E-01 -0.25345604018E-01  0.10926407328E+00  0.11298807325E+00  0.51100000000E-03 0. -1.
</event>
<event>
 8    1  0.1075206E+005  0.1043930E+01  0.7957747E-01            NaN
         13   -1    0    0    0    0  0.00000000000E+00  0.00000000000E+00  0.74505805969E-08  0.10566000000E+00  0.10566000000E+00 0.  1.
     999900   -1    0    0    0    0 -0.00000000000E+00 -0.00000000000E+00 -0.74505805969E-08  0.93827000000E+00  0.93827000000E+00 0. -1.
     999902    2    1    2    0    0  0.16099774173E-01  0.15020669298E-01  0.87066550942E-02  0.10202523929E+01  0.10199776057E+01 0.  0.
     999903    2    3    3    0    0  0.11486541425E+00 -0.58827298333E-01 -0.14769172025E-01  0.13134334895E+00  0.19448199152E-01 0.  0.
         14    1    1    2    0    0 -0.16099774173E-01 -0.15020669298E-01 -0.87066550942E-02  0.23677607090E-01  0.00000000000E+00 0.  1.
     999901    1    3    3    0    0 -0.98765640076E-01  0.73847967631E-01  0.23475827119E-01  0.88890904396E+00  0.88000000000E+00 0.  1.
        -11    1    4    4    0    0  0.46663118213E-01 -0.34718265773E-01 -0.72247162714E-02  0.58611110089E-01  0.51100000000E-03 0.  1.
         11    1    4    4    0    0  0.68202296035E-01 -0.24109032560E-01 -0.75444557538E-02  0.72732238856E-01  0.51100000000E-03 0. -1.
</event>
<event>
 8    1  0.1075206E+005  0.1043930E+01  0.7957747E-01            NaN
         13   -1    0    0    0    0  0.00000000000E+00  0.00000000000E+00  0.74505805969E-08  0.10566000000E+00  0.10566000000E+00 0.  1.
     999900   -1    0    0    0    0 -0.00000000000E+00 -0.00000000000E+00 -0.74505805969E-08  0.93827000000E+00  0.93827000000E+00 0. -1.
     999902    2    1    2    0    0 -0.89379263440E-02 -0.11374794046E-01 -0.18717855632E-01  0.10202734874E+01  0.10199991954E+01 0.  0.
     999903    2    3    3    0    0 -0.30936087634E-02 -0.90303481091E-01  0.91196397490E-01  0.12991118100E+00  0.19895801633E-01 0.  0.
         14    1    1    2    0    0  0.89379263440E-02  0.11374794046E-01  0.18717855632E-01  0.23656512557E-01  0.00000000000E+00 0.  1.
     999901    1    3    3    0    0 -0.58443175806E-02  0.78928687045E-01 -0.10991425312E+00  0.89036230644E+00  0.88000000000E+00 0. -1.
        -11    1    4    4    0    0 -0.11286044588E-01 -0.40568413973E-01  0.41805586691E-01  0.59339187847E-01  0.51100000000E-03 0. -1.
         11    1    4    4    0    0  0.81924358243E-02 -0.49735067118E-01  0.49390810799E-01  0.70571993158E-01  0.51100000000E-03 0.  1.
</event>
<event>
 8    1  0.1075206E+005  0.1043930E+01  0.7957747E-01            NaN
         13   -1    0    0    0    0  0.00000000000E+00  0.00000000000E+00  0.74505805969E-08  0.10566000000E+00  0.10566000000E+00 0.  1.
     999900   -1    0    0    0    0 -0.00000000000E+00 -0.00000000000E+00 -0.74505805969E-08  0.93827000000E+00  0.93827000000E+00 0. -1.
     999902    2    1    2    0    0 -0.19619414730E-01 -0.11784847665E-01 -0.53989765620E-02  0.10204150470E+01  0.10201440658E+01 0.  0.
     999903    2    3    3    0    0  0.77279014377E-01  0.22686940670E-01 -0.99445365726E-01  0.12944796952E+00  0.19510323131E-01 0.  0.
         14    1    1    2    0    0  0.19619414730E-01  0.11784847665E-01  0.53989765620E-02  0.23514953046E-01  0.00000000000E+00 0.  1.
     999901    1    3    3    0    0 -0.96898429107E-01 -0.34471788335E-01  0.94046389164E-01  0.89096707743E+00  0.88000000000E+00 0.  1.
        -11    1    4    4    0    0  0.65535985045E-01  0.16272705973E-01 -0.70869212377E-01  0.97890105115E-01  0.51100000000E-03 0. -1.
         11    1    4    4    0    0  0.11743029332E-01  0.64142346977E-02 -0.28576153349E-01  0.31557864406E-01  0.51100000000E-03 0.  1.
</event>
<event>
 8    1  0.1075206E+005  0.1043930E+01  0.7957747E-01            NaN
         13   -1    0    0    0    0  0.00000000000E+00  0.00000000000E+00  0.74505805969E-08  0.10566000000E+00  0.10566000000E+00 0.  1.
     999900   -1    0    0    0    0 -0.00000000000E+00 -0.00000000000E+00 -0.74505805969E-08  0.93827000000E+00  0.93827000000E+00 0. -1.
     999902    2    1    2    0    0  0.21966026880E-01 -0.63142210581E-02 -0.69537219174E-02  0.10200400445E+01  0.10197602475E+01 0.  0.
     999903    2    3    3    0    0  0.42172124816E-01  0.22445867877E-01 -0.12126584456E+00  0.13195069626E+00  0.20573674707E-01 0.  0.
         14    1    1    2    0    0 -0.21966026880E-01  0.63142210581E-02  0.69537219174E-02  0.23889955482E-01  0.00000000000E+00 0.  1.
     999901    1    3    3    0    0 -0.20206097936E-01 -0.28760088935E-01  0.11431212264E+00  0.88808934826E+00  0.88000000000E+00 0.  1.
        -11    1    4    4    0    0  0.23155512227E-02  0.90017979527E-02 -0.14902232099E-01  0.17570765105E-01  0.51100000000E-03 0.  1.
         11    1    4    4    0    0  0.39856573593E-01  0.13444069924E-01 -0.10636361246E+00  0.11437993115E+00  0.51100000000E-03 0. -1.
</event>
<event>
 8    1  0.1101193E+005  0.1043930E+01  0.7957747E-01            NaN
         13   -1    0    0    0    0  0.00000000000E+00  0.00000000000E+00  0.74505805969E-08  0.10566000000E+00  0.10566000000E+00 0. -1.
     999900   -1    0    0    0    0 -0.00000000000E+00 -0.00000000000E+00 -0.74505805969E-08  0.93827000000E+00  0.93827000000E+00 0. -1.
     999902    2    1    2    0    0  0.15215158755E-01 -0.46969421305E-02  0.18136307167E-01  0.10197952127E+01  0.10195095820E+01 0.  0.
     999903    2    3    3    0    0  0.11704717936E+00 -0.43221078603E-01 -0.36370985591E-01  0.13141189762E+00  0.19445678472E-01 0.  0.
         14    1    1    2    0    0 -0.15215158755E-01  0.46969421305E-02 -0.18136307167E-01  0.24134787320E-01  0.00000000000E+00 0.  1.
     999901    1    3    3    0    0 -0.10183202061E+00  0.38524136473E-01  0.54507292759E-01  0.88838331506E+00  0.88000000000E+00 0.  1.
        -11    1    4    4    0    0  0.76259817503E-01 -0.18419670110E-01 -0.20264122751E-01  0.81029252770E-01  0.51100000000E-03 0. -1.
         11    1    4    4    0    0  0.40787361859E-01 -0.24801408493E-01 -0.16106862840E-01  0.50382644851E-01  0.51100000000E-03 0.  1.
</event>
<event>
 8    1  0.1075206E+005  0.1043930E+01  0.7957747E-01            NaN
         13   -1    0    0    0    0  0.00000000000E+00  0.00000000000E+00  0.74505805969E-08  0.10566000000E+00  0.10566000000E+00 0.  1.
     999900   -1    0    0    0    0 -0.00000000000E+00 -0.00000000000E+00 -0.74505805969E-08  0.93827000000E+00  0.93827000000E+00 0. -1.
     999902    2    1    2    0    0 -0.50799730294E-02 -0.18647649309E-01  0.14022563863E-01  0.10200516992E+01  0.10197721784E+01 0.  0.
     999903    2    3    3    0    0  0.10469827350E+00  0.54229100081E-01 -0.48015671185E-01  0.12808139332E+00  0.14029072163E-01 0.  0.
         14    1    1    2    0    0  0.50799730294E-02  0.18647649309E-01 -0.14022563863E-01  0.23878300778E-01  0.00000000000E+00 0. -1.
     999901    1    3    3    0    0 -0.10977824652E+00 -0.72876749390E-01  0.62038235048E-01  0.89197030591E+00  0.88000000000E+00 0. -1.
        -11    1    4    4    0    0  0.48042280970E-01  0.22132449943E-01 -0.14524071575E-01  0.54855408826E-01  0.51100000000E-03 0.  1.
         11    1    4    4    0    0  0.56655992525E-01  0.32096650138E-01 -0.33491599609E-01  0.73225984490E-01  0.51100000000E-03 0. -1.
</event>
<event>
 8    1  0.1075206E+005  0.1043930E+01  0.7957747E-01            NaN
         13   -1    0    0    0    0  0.00000000000E+00  0.00000000000E+00  0.74505805969E-08  0.10566000000E+00  0.10566000000E+00 0. -1.
     999900   -1    0    0    0    0 -0.00000000000E+00 -0.00000000000E+00 -0.74505805969E-08  0.93827000000E+00  0.93827000000E+00 0. -1.
     999902    2    1    2    0    0  0.46323662807E-02 -0.21615285447E-01  0.11235066386E-01  0.10191326998E+01  0.10188309740E+01 0.  0.
     999903    2    3    3    0    0  0.86371724357E-01  0.75568345609E-01  0.56978994982E-01  0.12884146213E+00  0.13522827662E-01 0.  0.
         14    1    1    2    0    0 -0.46323662807E-02  0.21615285447E-01 -0.11235066386E-01  0.24797300237E-01  0.00000000000E+00 0.  1.
     999901    1    3    3    0    0 -0.81739358077E-01 -0.97183631056E-01 -0.45743928595E-01  0.89029123763E+00  0.88000000000E+00 0.  1.
        -11    1    4    4    0    0  0.14188472215E-01  0.13490866807E-01  0.15567565529E-01  0.25018522108E-01  0.51100000000E-03 0.  1.
         11    1    4    4    0    0  0.72183252143E-01  0.62077478803E-01  0.41411429453E-01  0.10382294002E+00  0.51100000000E-03 0. -1.
</event>
<event>
 8    1  0.1075206E+005  0.1043930E+01  0.7957747E-01            NaN
         13   -1    0    0    0    0  0.00000000000E+00  0.00000000000E+00  0.74505805969E-08  0.10566000000E+00  0.10566000000E+00 0.  1.
     999900   -1    0    0    0    0 -0.00000000000E+00 -0.00000000000E+00 -0.74505805969E-08  0.93827000000E+00  0.93827000000E+00 0. -1.
     999902    2    1    2    0    0  0.15231715994E-01  0.60223388565E-02  0.17581367254E-01  0.10199013044E+01  0.10196182092E+01 0.  0.
     999903    2    3    3    0    0 -0.47408560997E-01  0.11417119565E+00 -0.33445468778E-01  0.12960712970E+00  0.19919214669E-01 0.  0.
         14    1    1    2    0    0 -0.15231715994E-01 -0.60223388565E-02 -0.17581367254E-01  0.24028695594E-01  0.00000000000E+00 0.  1.
     999901    1    3    3    0    0  0.62640276991E-01 -0.10814885680E+00  0.51026836032E-01  0.89029417471E+00  0.88000000000E+00 0. -1.
        -11    1    4    4    0    0 -0.29358172766E-01  0.45940657381E-01 -0.17337382878E-01  0.57212693302E-01  0.51100000000E-03 0.  1.
         11    1    4    4    0    0 -0.18050388231E-01  0.68230538274E-01 -0.16108085901E-01  0.72394436394E-01  0.51100000000E-03 0. -1.
</event>
<event>
 8    1  0.1075206E+005  0.1043930E+01  0.7957747E-01            NaN
         13   -1    0    0    0    0  0.00000000000E+00  0.00000000000E+00  0.74505805969E-08  0.10566000000E+00  0.10566000000E+00 0.  1.
     999900   -1    0    0    0    0 -0.00000000000E+00 -0.00000000000E+00 -0.74505805969E-08  0.93827000000E+00  0.93827000000E+00 0.  1.
     999902    2    1    2    0    0 -0.57685839217E-03 -0.17471283800E-01  0.16425887447E-01  0.10199427471E+01  0.10196606392E+01 0.  0.
     999903    2    3    3    0    0  0.14693619053E-01 -0.10604775997E+00 -0.72578193471E-01  0.13089791919E+00  0.20115696497E-01 0.  0.
         14    1    1    2    0    0  0.57685839217E-03  0.17471283800E-01 -0.16425887447E-01  0.23987252899E-01  0.00000000000E+00 0.  1.
     999901    1    3    3    0    0 -0.15270477445E-01  0.88576476171E-01  0.89004080918E-01  0.88904482791E+00  0.88000000000E+00 0. -1.
        -11    1    4    4    0    0  0.90861191931E-02 -0.10012145337E+00 -0.64762076981E-01  0.11958783685E+00  0.51100000000E-03 0. -1.
         11    1    4    4    0    0  0.56074998594E-02 -0.59263066058E-02 -0.78161164892E-02  0.11310082344E-01  0.51100000000E-03 0.  1.
</event>
<event>
 8    1  0.1075206E+005  0.1043930E+01  0.7957747E-01            NaN
         13   -1    0    0    0    0  0.00000000000E+00  0.00000000000E+00  0.74505805969E-08  0.10566000000E+00  0.10566000000E+00 0.  1.
     999900   -1    0    0    0    0 -0.00000000000E+00 -0.00000000000E+00 -0.74505805969E-08  0.93827000000E+00  0.93827000000E+00 0.  1.
     999902    2    1    2    0    0 -0.11883400362E-02  0.41028388600E-02 -0.21426949704E-01  0.10220814391E+01  0.10218478892E+01 0.  0.
     999903    2    3    3    0    0  0.55081310974E-01 -0.68669710204E-01 -0.98727078424E-01  0.13391623635E+00  0.20905559677E-01 0.  0.
         14    1    1    2    0    0  0.11883400362E-02 -0.41028388600E-02  0.21426949704E-01  0.21848560876E-01  0.00000000000E+00 0.  1.
     999901    1    3    3    0    0 -0.56269651010E-01  0.72772549064E-01  0.77300128720E-01  0.88816520278E+00  0.88000000000E+00 0. -1.
        -11    1    4    4    0    0  0.92999500590E-02 -0.31318711718E-02 -0.16685213993E-01  0.19363759323E-01  0.51100000000E-03 0. -1.
         11    1    4    4    0    0  0.45781360915E-01 -0.65537839032E-01 -0.82041864431E-01  0.11455247702E+00  0.51100000000E-03 0.  1.
</event>
<event>
 8    1  0.1075206E+005  0.1043930E+01  0.7957747E-01            NaN
         13   -1    0    0    0    0  0.00000000000E+00  0.00000000000E+00  0.74505805969E-08  0.10566000000E+00  0.10566000000E+00 0. -1.
     999900   -1    0    0    0    0 -0.00000000000E+00 -0.00000000000E+00 -0.74505805969E-08  0.93827000000E+00  0.93827000000E+00 0.  1.
     999902    2    1    2    0    0  0.13652057303E-01  0.18764366542E-01  0.53283569029E-02  0.10201209364E+01  0.10198430533E+01 0.  0.
     999903    2    3    3    0    0  0.78310275951E-01  0.10516123672E+00 -0.13911471338E-01  0.13332035265E+00  0.19733280745E-01 0.  0.
         14    1    1    2    0    0 -0.13652057303E-01 -0.18764366542E-01 -0.53283569029E-02  0.23809063560E-01  0.00000000000E+00 0. -1.
     999901    1    3    3    0    0 -0.64658218648E-01 -0.86396870177E-01  0.19239828241E-01  0.88680058379E+00  0.88000000000E+00 0. -1.
        -11    1    4    4    0    0  0.24248716943E-01  0.34329322583E-01  0.46857707809E-02  0.42293264608E-01  0.51100000000E-03 0.  1.
         11    1    4    4    0    0  0.54061559008E-01  0.70831914136E-01 -0.18597242119E-01  0.91027088045E-01  0.51100000000E-03 0. -1.
</event>
<event>
 8    1  0.1360231E+005  0.1043930E+01  0.7957747E-01            NaN
         13   -1    0    0    0    0  0.00000000000E+00  0.00000000000E+00  0.74505805969E-08  0.10566000000E+00  0.10566000000E+00 0.  1.
     999900   -1    0    0    0    0 -0.00000000000E+00 -0.00000000000E+00 -0.74505805969E-08  0.93827000000E+00  0.93827000000E+00 0.  1.
     999902    2    1    2    0    0  0.11889100769E-01 -0.19430932217E-01  0.51984213252E-02  0.10205647389E+01  0.10202972365E+01 0.  0.
     999903    2    3    3    0    0  0.66793284441E-02 -0.37204204194E-01 -0.12379303814E+00  0.13096829803E+00  0.19980304253E-01 0.  0.
         14    1    1    2    0    0 -0.11889100769E-01  0.19430932217E-01 -0.51984213252E-02  0.23365261141E-01  0.00000000000E+00 0.  1.
     999901    1    3    3    0    0  0.52097723250E-02  0.17773271977E-01  0.12899145947E+00  0.88959644083E+00  0.88000000000E+00 0. -1.
        -11    1    4    4    0    0 -0.57044449724E-02 -0.12221970650E-01 -0.57213736245E-01  0.58784266561E-01  0.51100000000E-03 0. -1.
         11    1    4    4    0    0  0.12383773416E-01 -0.24982233544E-01 -0.66579301896E-01  0.72184031467E-01  0.51100000000E-03 0.  1.
</event>
<event>
 8    1  0.1075206E+005  0.1043930E+01  0.7957747E-01            NaN
         13   -1    0    0    0    0  0.00000000000E+00  0.00000000000E+00  0.74505805969E-08  0.10566000000E+00  0.10566000000E+00 0. -1.
     999900   -1    0    0    0    0 -0.00000000000E+00 -0.00000000000E+00 -0.74505805969E-08  0.93827000000E+00  0.93827000000E+00 0. -1.
     999902    2    1    2    0    0 -0.16630142939E-01  0.38375644891E-02  0.16932320127E-01  0.10198885354E+01  0.10196051356E+01 0.  0.
     999903    2    3    3    0    0  0.32885350286E-01 -0.56700879301E-01 -0.10747129920E+00  0.12770416670E+00  0.21490417949E-01 0.  0.
         14    1    1    2    0    0  0.16630142939E-01 -0.38375644891E-02 -0.16932320127E-01  0.24041464603E-01  0.00000000000E+00 0.  1.
     999901    1    3    3    0    0 -0.49515493224E-01  0.60538443790E-01  0.12440361933E+00  0.89218436870E+00  0.88000000000E+00 0.  1.
        -11    1    4    4    0    0  0.11086767628E-01 -0.39220556963E-01 -0.58099881566E-01  0.70972007608E-01  0.51100000000E-03 0.  1.
         11    1    4    4    0    0  0.21798582658E-01 -0.17480322338E-01 -0.49371417635E-01  0.56732159092E-01  0.51100000000E-03 0. -1.
</event>
<event>
 8    1  0.1075206E+005  0.1043930E+01  0.7957747E-01            NaN
         13   -1    0    0    0    0  0.00000000000E+00  0.00000000000E+00  0.74505805969E-08  0.10566000000E+00  0.10566000000E+00 0. -1.
     999900   -1    0    0    0    0 -0.00000000000E+00 -0.00000000000E+00 -0.74505805969E-08  0.93827000000E+00  0.93827000000E+00 0.  1.
     999902    2    1    2    0    0 -0.16993535839E-01 -0.15394562407E-01 -0.68606356399E-02  0.10199959002E+01  0.10197150559E+01 0.  0.
     999903    2    3    3    0    0 -0.75492415893E-01 -0.74412100251E-01 -0.78052332821E-01  0.13321890090E+00  0.20465663343E-01 0.  0.
         14    1    1    2    0    0  0.16993535839E-01  0.15394562407E-01  0.68606356399E-02  0.23934099803E-01  0.00000000000E+00 0.  1.
     999901    1    3    3    0    0  0.58498880055E-01  0.59017537844E-01  0.71191697181E-01  0.88677699930E+00  0.88000000000E+00 0. -1.
        -11    1    4    4    0    0 -0.13018314212E-01 -0.71670361923E-02 -0.18788402425E-01  0.23960552986E-01  0.51100000000E-03 0. -1.
         11    1    4    4    0    0 -0.62474101681E-01 -0.67245064059E-01 -0.59263930395E-01  0.10925834791E+00  0.51100000000E-03 0.  1.
</event>
<event>
 8    1  0.1075206E+005  0.1043930E+01  0.7957747E-01            NaN
         13   -1    0    0    0    0  0.00000000000E+00  0.00000000000E+00  0.74505805969E-08  0.10566000000E+00  0.10566000000E+00 0.  1.
     999900   -1    0    0    0    0 -0.00000000000E+00 -0.00000000000E+00 -0.74505805969E-08  0.93827000000E+00  0.93827000000E+00 0. -1.
     999902    2    1    2    0    0  0.46764799027E-02 -0.78941075270E-02 -0.22254877747E-01  0.10198579004E+01  0.10195737692E+01 0.  0.
     999903    2    3    3    0    0 -0.10169954049E+00 -0.74069949960E-01  0.24078080626E-01  0.12977821691E+00  0.20820124787E-01 0.  0.
         14    1    1    2    0    0 -0.46764799027E-02  0.78941075270E-02  0.22254877747E-01  0.24072099648E-01  0.00000000000E+00 0.  1.
     999901    1    3    3    0    0  0.10637602039E+00  0.66175842433E-01 -0.46332958373E-01  0.89007968344E+00  0.88000000000E+00 0. -1.
        -11    1    4    4    0    0 -0.34229497704E-01 -0.24902921827E-01  0.18219635584E-01  0.46087202892E-01  0.51100000000E-03 0. -1.
         11    1    4    4    0    0 -0.67470042786E-01 -0.49167028133E-01  0.58584450424E-02  0.83691014023E-01  0.51100000000E-03 0.  1.
</event>
<event>
 8    1  0.1075206E+005  0.1043930E+01  0.7957747E-01            NaN
         13   -1    0    0    0    0  0.00000000000E+00  0.00000000000E+00  0.74505805969E-08  0.10566000000E+00  0.10566000000E+00 0.  1.
     999900   -1    0    0    0    0 -0.00000000000E+00 -0.00000000000E+00 -0.74505805969E-08  0.93827000000E+00  0.93827000000E+00 0. -1.
     999902    2    1    2    0    0  0.78529626890E-02 -0.17527529626E-01  0.19459237465E-02  0.10246253390E+01  0.10244434662E+01 0.  0.
     999903    2    3    3    0    0 -0.12284156140E+00 -0.49628630075E-01  0.12237016960E-01  0.13433468651E+00  0.18520617882E-01 0.  0.
         14    1    1    2    0    0 -0.78529626890E-02  0.17527529626E-01 -0.19459237465E-02  0.19304661017E-01  0.00000000000E+00 0. -1.
     999901    1    3    3    0    0  0.13069452409E+00  0.32101100450E-01 -0.10291093214E-01  0.89029065247E+00  0.88000000000E+00 0. -1.
        -11    1    4    4    0    0 -0.56929715607E-01 -0.13654882615E-01  0.83888144754E-02  0.59144582741E-01  0.51100000000E-03 0.  1.
         11    1    4    4    0    0 -0.65911845790E-01 -0.35973747461E-01  0.38482024850E-02  0.75190103771E-01  0.51100000000E-03 0. -1.
</event>
<event>
 8    1  0.1075206E+005  0.1043930E+01  0.7957747E-01            NaN
         13   -1    0    0    0    0  0.00000000000E+00  0.00000000000E+00  0.74505805969E-08  0.10566000000E+00  0.10566000000E+00 0.  1.
     999900   -1    0    0    0    0 -0.00000000000E+00 -0.00000000000E+00 -0.74505805969E-08  0.93827000000E+00  0.93827000000E+00 0.  1.
     999902    2    1    2    0    0  0.41468440781E-03 -0.22952711400E-01  0.63281940734E-02  0.10201172941E+01  0.10198393249E+01 0.  0.
     999903    2    3    3    0    0 -0.72576300634E-01 -0.90933510302E-01  0.60297650983E-01  0.13283956122E+00  0.21778879730E-01 0.  0.
         14    1    1    2    0    0 -0.41468440781E-03  0.22952711400E-01 -0.63281940734E-02  0.23812705936E-01  0.00000000000E+00 0. -1.
     999901    1    3    3    0    0  0.72990985041E-01  0.67980798902E-01 -0.53969456910E-01  0.88727773284E+00  0.88000000000E+00 0. -1.
        -11    1    4    4    0    0 -0.40965642756E-01 -0.36229643173E-01  0.34037894536E-01  0.64417469030E-01  0.51100000000E-03 0.  1.
         11    1    4    4    0    0 -0.31610657878E-01 -0.54703867129E-01  0.26259756448E-01  0.68422092193E-01  0.51100000000E-03 0. -1.
</event>
<event>
 8    1  0.1075206E+005  0.1043930E+01  0.7957747E-01            NaN
         13   -1    0    0    0    0  0.00000000000E+00  0.00000000000E+00  0.74505805969E-08  0.10566000000E+00  0.10566000000E+00 0. -1.
     999900   -1    0    0    0    0 -0.00000000000E+00 -0.00000000000E+00 -0.74505805969E-08  0.93827000000E+00  0.93827000000E+00 0.  1.
     999902    2    1    2    0    0 -0.35688884233E-02 -0.23296110080E-01  0.87208799785E-03  0.10203459748E+01  0.10200733807E+01 0.  0.
     999903    2    3    3    0    0 -0.84593237638E-01  0.93065043502E-01  0.21096709449E-01  0.12876653435E+00  0.17850239319E-01 0.  0.
         14    1    1    2    0    0  0.35688884233E-02  0.23296110080E-01 -0.87208799785E-03  0.23584025248E-01  0.00000000000E+00 0. -1.
     999901    1    3    3    0    0  0.81024349214E-01 -0.11636115358E+00 -0.20224621451E-01  0.89157944040E+00  0.88000000000E+00 0.  1.
        -11    1    4    4    0    0 -0.35303872867E-01  0.42377956650E-01  0.17902973595E-01  0.57991656588E-01  0.51100000000E-03 0.  1.
         11    1    4    4    0    0 -0.49289364771E-01  0.50687086852E-01  0.31937358536E-02  0.70774877766E-01  0.51100000000E-03 0. -1.
</event>
<event>
 8    1  0.1075206E+005  0.1043930E+01  0.7957747E-01            NaN
         13   -1    0    0    0    0  0.00000000000E+00  0.00000000000E+00  0.74505805969E-08  0.10566000000E+00  0.10566000000E+00 0. -1.
     999900   -1    0    0    0    0 -0.00000000000E+00 -0.00000000000E+00 -0.74505805969E-08  0.93827000000E+00  0.93827000000E+00 0.  1.
     999902    2    1    2    0    0  0.23481072930E-03  0.22686669304E-01 -0.17925254806E-02  0.10211714138E+01  0.10209177749E+01 0.  0.
     999903    2    3    3    0    0 -0.12033263585E+00  0.48656614272E-01 -0.16504564471E-01  0.13244907731E+00  0.20565701235E-01 0.  0.
         14    1    1    2    0    0 -0.23481072930E-03 -0.22686669304E-01  0.17925254806E-02  0.22758586243E-01  0.00000000000E+00 0. -1.
     999901    1    3    3    0    0  0.12056744658E+00 -0.25969944969E-01  0.14712038990E-01  0.88872233645E+00  0.88000000000E+00 0.  1.
        -11    1    4    4    0    0 -0.64771579193E-01  0.36534108641E-01 -0.12782585080E-01  0.75456968980E-01  0.51100000000E-03 0. -1.
         11    1    4    4    0    0 -0.55561056658E-01  0.12122505632E-01 -0.37219793902E-02  0.56992108325E-01  0.51100000000E-03 0.  1.
</event>
<event>
 8    1  0.1075206E+005  0.1043930E+01  0.7957747E-01            NaN
         13   -1    0    0    0    0  0.00000000000E+00  0.00000000000E+00  0.74505805969E-08  0.10566000000E+00  0.10566000000E+00 0. -1.
     999900   -1    0    0    0    0 -0.00000000000E+00 -0.00000000000E+00 -0.74505805969E-08  0.93827000000E+00  0.93827000000E+00 0.  1.
     999902    2    1    2    0    0  0.59680148988E-02 -0.20666091680E-01 -0.73402025454E-02  0.10212015350E+01  0.10209485746E+01 0.  0.
     999903    2    3    3    0    0  0.10965969470E+00 -0.38871047359E-01 -0.61587582625E-01  0.13326788709E+00  0.20762765494E-01 0.  0.
         14    1    1    2    0    0 -0.59680148988E-02  0.20666091680E-01  0.73402025454E-02  0.22728464985E-01  0.00000000000E+00 0.  1.
     999901    1    3    3    0    0 -0.10369167980E+00  0.18204955679E-01  0.54247380080E-01  0.88793364792E+00  0.88000000000E+00 0. -1.
        -11    1    4    4    0    0  0.43160912752E-01 -0.25373158716E-01 -0.30514285050E-01  0.58634838500E-01  0.51100000000E-03 0. -1.
         11    1    4    4    0    0  0.66498781950E-01 -0.13497888643E-01 -0.31073297575E-01  0.74633048590E-01  0.51100000000E-03 0.  1.
</event>
<event>
 8    1  0.1075206E+005  0.1043930E+01  0.7957747E-01            NaN
         13   -1    0    0    0    0  0.00000000000E+00  0.00000000000E+00  0.74505805969E-08  0.10566000000E+00  0.10566000000E+00 0. -1.
     999900   -1    0    0    0    0 -0.00000000000E+00 -0.00000000000E+00 -0.74505805969E-08  0.93827000000E+00  0.93827000000E+00 0.  1.
     999902    2    1    2    0    0 -0.94621597338E-02 -0.16643810774E-01  0.10097273225E-01  0.10222850507E+01  0.10220558796E+01 0.  0.
     999903    2    3    3    0    0  0.10765953225E+00 -0.39853271287E-01  0.61225434770E-01  0.13275131963E+00  0.26372350767E-01 0.  0.
         14    1    1    2    0    0  0.94621597338E-02  0.16643810774E-01 -0.10097273225E-01  0.21644949307E-01  0.00000000000E+00 0.  1.
     999901    1    3    3    0    0 -0.11712169198E+00  0.23209460512E-01 -0.51128161545E-01  0.88953373106E+00  0.88000000000E+00 0.  1.
        -11    1    4    4    0    0  0.41597297031E-01 -0.16112126727E-01  0.96553792841E-02  0.45644531086E-01  0.51100000000E-03 0. -1.
         11    1    4    4    0    0  0.66062235220E-01 -0.23741144559E-01  0.51570055486E-01  0.87106788547E-01  0.51100000000E-03 0.  1.
</event>
<event>
 8    1  0.1075206E+005  0.1043930E+01  0.7957747E-01            NaN
         13   -1    0    0    0    0  0.00000000000E+00  0.00000000000E+00  0.74505805969E-08  0.10566000000E+00  0.10566000000E+00 0.  1.
     999900   -1    0    0    0    0 -0.00000000000E+00 -0.00000000000E+00 -0.74505805969E-08  0.93827000000E+00  0.93827000000E+00 0. -1.
     999902    2    1    2    0    0 -0.66291876108E-02 -0.24143071419E-01 -0.20074493723E-01  0.10118392019E+01  0.10113301890E+01 0.  0.
     999903    2    3    3    0    0 -0.57695256243E-01  0.80309511885E-01 -0.65647280163E-01  0.12302259290E+00  0.32351702886E-01 0.  0.
         14    1    1    2    0    0  0.66291876108E-02  0.24143071419E-01  0.20074493723E-01  0.32090798123E-01  0.00000000000E+00 0.  1.
     999901    1    3    3    0    0  0.51066068632E-01 -0.10445258330E+00  0.45572786440E-01  0.88881660897E+00  0.88000000000E+00 0.  1.
        -11    1    4    4    0    0 -0.18131574697E-01  0.47697493275E-02 -0.12586875724E-01  0.22587498116E-01  0.51100000000E-03 0. -1.
         11    1    4    4    0    0 -0.39563681546E-01  0.75539762557E-01 -0.53060404439E-01  0.10043509479E+00  0.51100000000E-03 0.  1.
</event>
<event>
 8    1  0.1075206E+005  0.1043930E+01  0.7957747E-01            NaN
         13   -1    0    0    0    0  0.00000000000E+00  0.00000000000E+00  0.74505805969E-08  0.10566000000E+00  0.10566000000E+00 0. -1.
     999900   -1    0    0    0    0 -0.00000000000E+00 -0.00000000000E+00 -0.74505805969E-08  0.93827000000E+00  0.93827000000E+00 0.  1.
     999902    2    1    2    0    0  0.83482627007E-02 -0.22420341245E-01  0.11643221189E-01  0.10173230499E+01  0.10169750529E+01 0.  0.
     999903    2    3    3    0    0 -0.86878222912E-01 -0.72888264814E-01  0.59104919195E-01  0.12947863359E+00  0.20268209574E-01 0.  0.
         14    1    1    2    0    0 -0.83482627007E-02  0.22420341245E-01 -0.11643221189E-01  0.26606950057E-01  0.00000000000E+00 0. -1.
     999901    1    3    3    0    0  0.95226485613E-01  0.50467923569E-01 -0.47461698006E-01  0.88784441635E+00  0.88000000000E+00 0. -1.
        -11    1    4    4    0    0 -0.50769616591E-01 -0.55168439022E-01  0.38449163786E-01  0.84259776582E-01  0.51100000000E-03 0. -1.
         11    1    4    4    0    0 -0.36108606321E-01 -0.17719825793E-01  0.20655755409E-01  0.45218857008E-01  0.51100000000E-03 0.  1.
</event>
<event>
 8    1  0.1075206E+005  0.1043930E+01  0.7957747E-01            NaN
         13   -1    0    0    0    0  0.00000000000E+00  0.00000000000E+00  0.74505805969E-08  0.10566000000E+00  0.10566000000E+00 0.  1.
     999900   -1    0    0    0    0 -0.00000000000E+00 -0.00000000000E+00 -0.74505805969E-08  0.93827000000E+00  0.93827000000E+00 0.  1.
     999902    2    1    2    0    0  0.49624310168E-02  0.18287692692E-01  0.14201453685E-01  0.10202499089E+01  0.10199750634E+01 0.  0.
     999903    2    3    3    0    0  0.12057894991E+00 -0.40398526579E-01  0.22345619232E-01  0.13071206309E+00  0.20371367875E-01 0.  0.
         14    1    1    2    0    0 -0.49624310168E-02 -0.18287692692E-01 -0.14201453685E-01  0.23680091054E-01  0.00000000000E+00 0. -1.
     999901    1    3    3    0    0 -0.11561651889E+00  0.58686219271E-01 -0.81441655472E-02  0.88953784585E+00  0.88000000000E+00 0.  1.
        -11    1    4    4    0    0  0.52642107435E-01 -0.14592377759E-01 -0.16822336911E-03  0.54629830532E-01  0.51100000000E-03 0.  1.
         11    1    4    4    0    0  0.67936842470E-01 -0.25806148820E-01  0.22513842601E-01  0.76082232561E-01  0.51100000000E-03 0. -1.
</event>
<event>
 8    1  0.1075206E+005  0.1043930E+01  0.7957747E-01            NaN
         13   -1    0    0    0    0  0.00000000000E+00  0.00000000000E+00  0.74505805969E-08  0.10566000000E+00  0.10566000000E+00 0. -1.
     999900   -1    0    0    0    0 -0.00000000000E+00 -0.00000000000E+00 -0.74505805969E-08  0.93827000000E+00  0.93827000000E+00 0. -1.
     999902    2    1    2    0    0  0.57785109715E-02  0.72543085175E-02  0.18805185556E-01  0.10229621392E+01  0.10227472254E+01 0.  0.
     999903    2    3    3    0    0  0.68540655092E-01  0.10159059758E+00  0.53183317569E-01  0.13503180519E+00  0.19663474433E-01 0.  0.
         14    1    1    2    0    0 -0.57785109715E-02 -0.72543085175E-02 -0.18805185556E-01  0.20967860761E-01  0.00000000000E+00 0. -1.
     999901    1    3    3    0    0 -0.62762144120E-01 -0.94336289064E-01 -0.34378132013E-01  0.88793033405E+00  0.88000000000E+00 0. -1.
        -11    1    4    4    0    0  0.10070658020E-01  0.29771379696E-01  0.11483242685E-01  0.33464596001E-01  0.51100000000E-03 0.  1.
         11    1    4    4    0    0  0.58469997072E-01  0.71819217886E-01  0.41700074885E-01  0.10156720919E+00  0.51100000000E-03 0. -1.
</event>
<event>
 8    1  0.1075206E+005  0.1043930E+01  0.7957747E-01            NaN
         13   -1    0    0    0    0  0.00000000000E+00  0.00000000000E+00  0.74505805969E-08  0.10566000000E+00  0.10566000000E+00 0. -1.
     999900   -1    0    0    0    0 -0.00000000000E+00 -0.00000000000E+00 -0.74505805969E-08  0.93827000000E+00  0.93827000000E+00 0. -1.
     999902    2    1    2    0    0  0.10193355943E-01 -0.14999331639E-01  0.92467511125E-02  0.10235735057E+01  0.10233710640E+01 0.  0.
     999903    2    3    3    0    0 -0.15432411908E-01 -0.11088831889E+00 -0.71249834319E-01  0.13434289547E+00  0.20906842689E-01 0.  0.
         14    1    1    2    0    0 -0.10193355943E-01  0.14999331639E-01 -0.92467511125E-02  0.20356494324E-01  0.00000000000E+00 0.  1.
     999901    1    3    3    0    0  0.25625767851E-01  0.95888987247E-01  0.80496585432E-01  0.88923061020E+00  0.88000000000E+00 0.  1.
        -11    1    4    4    0    0 -0.10463321117E-01 -0.92466881456E-01 -0.49495652458E-01  0.10540249517E+00  0.51100000000E-03 0.  1.
         11    1    4    4    0    0 -0.49690907909E-02 -0.18421437431E-01 -0.21754181862E-01  0.28940400304E-01  0.51100000000E-03 0. -1.
</event>
<event>
 8    1  0.1075206E+005  0.1043930E+01  0.7957747E-01            NaN
         13   -1    0    0    0    0  0.00000000000E+00  0.00000000000E+00  0.74505805969E-08  0.10566000000E+00  0.10566000000E+00 0.  1.
     999900   -1    0    0    0    0 -0.00000000000E+00 -0.00000000000E+00 -0.74505805969E-08  0.93827000000E+00  0.93827000000E+00 0. -1.
     999902    2    1    2    0    0 -0.95256007554E-02 -0.19145653731E-01 -0.10606226895E-01  0.10200598267E+01  0.10197804983E+01 0.  0.
     999903    2    3    3    0    0 -0.21768069140E-01  0.80225136034E-01  0.95425860347E-01  0.12805801308E+00  0.19566261940E-01 0.  0.
         14    1    1    2    0    0  0.95256007554E-02  0.19145653731E-01  0.10606226895E-01  0.23870173345E-01  0.00000000000E+00 0.  1.
     999901    1    3    3    0    0  0.12242468385E-01 -0.99370789765E-01 -0.10603208724E+00  0.89200181357E+00  0.88000000000E+00 0.  1.
        -11    1    4    4    0    0 -0.11568733685E-01  0.56990541492E-01  0.53343769353E-01  0.78914993939E-01  0.51100000000E-03 0. -1.
         11    1    4    4    0    0 -0.10199335456E-01  0.23234594542E-01  0.42082090994E-01  0.49143019145E-01  0.51100000000E-03 0.  1.
</event>
<event>
 8    1  0.1075206E+005  0.1043930E+01  0.7957747E-01            NaN
         13   -1    0    0    0    0  0.00000000000E+00  0.00000000000E+00  0.74505805969E-08  0.10566000000E+00  0.10566000000E+00 0.  1.
     999900   -1    0    0    0    0 -0.00000000000E+00 -0.00000000000E+00 -0.74505805969E-08  0.93827000000E+00  0.93827000000E+00 0. -1.
     999902    2    1    2    0    0  0.85327104437E-02 -0.14769614956E-01  0.16100808880E-01  0.10204739833E+01  0.10202043745E+01 0.  0.
     999903    2    3    3    0    0  0.98667427691E-01  0.74838013513E-01  0.38072618742E-01  0.13107162509E+00  0.19855907248E-01 0.  0.
         14    1    1    2    0    0 -0.85327104437E-02  0.14769614956E-01 -0.16100808880E-01  0.23456016714E-01  0.00000000000E+00 0. -1.
     999901    1    3    3    0    0 -0.90134717248E-01 -0.89607628469E-01 -0.21971809862E-01  0.88940235819E+00  0.88000000000E+00 0.  1.
        -11    1    4    4    0    0  0.29443890774E-01  0.31757562391E-01  0.19228909639E-01  0.47386681249E-01  0.51100000000E-03 0.  1.
         11    1    4    4    0    0  0.69223536917E-01  0.43080451122E-01  0.18843709103E-01  0.83684943843E-01  0.51100000000E-03 0. -1.
</event>
<event>
 8    1  0.1075206E+005  0.1043930E+01  0.7957747E-01            NaN
         13   -1    0    0    0    0  0.00000000000E+00  0.00000000000E+00  0.74505805969E-08  0.10566000000E+00  0.10566000000E+00 0. -1.
     999900   -1    0    0    0    0 -0.00000000000E+00 -0.00000000000E+00 -0.74505805969E-08  0.93827000000E+00  0.93827000000E+00 0.  1.
     999902    2    1    2    0    0 -0.19047889220E-01 -0.12597092223E-01  0.59060382655E-02  0.10203420772E+01  0.10200693919E+01 0.  0.
     999903    2    3    3    0    0  0.59659396731E-01  0.11148355303E-01 -0.11166019019E+00  0.12872528659E+00  0.20461473300E-01 0.  0.
         14    1    1    2    0    0  0.19047889220E-01  0.12597092223E-01 -0.59060382655E-02  0.23587922846E-01  0.00000000000E+00 0. -1.
     999901    1    3    3    0    0 -0.78707285950E-01 -0.23745447526E-01  0.11756622846E+00  0.89161679056E+00  0.88000000000E+00 0. -1.
        -11    1    4    4    0    0  0.18405226608E-01 -0.12275486469E-02 -0.18705541661E-01  0.26275799740E-01  0.51100000000E-03 0. -1.
         11    1    4    4    0    0  0.41254170123E-01  0.12375903950E-01 -0.92954648533E-01  0.10244948685E+00  0.51100000000E-03 0.  1.
</event>
<event>
 8    1  0.1075206E+005  0.1043930E+01  0.7957747E-01            NaN
         13   -1    0    0    0    0  0.00000000000E+00  0.00000000000E+00  0.74505805969E-08  0.10566000000E+00  0.10566000000E+00 0. -1.
     999900   -1    0    0    0    0 -0.00000000000E+00 -0.00000000000E+00 -0.74505805969E-08  0.93827000000E+00  0.93827000000E+00 0.  1.
     999902    2    1    2    0    0 -0.13222695353E-01 -0.19178582477E-01 -0.60941568351E-02  0.10198510373E+01  0.10195667422E+01 0.  0.
     999903    2    3    3    0    0  0.73726127864E-01 -0.95606031239E-01  0.46284213342E-01  0.13072520454E+00  0.19256052498E-01 0.  0.
         14    1    1    2    0    0  0.13222695353E-01  0.19178582477E-01  0.60941568351E-02  0.24078962722E-01  0.00000000000E+00 0. -1.
     999901    1    3    3    0    0 -0.86948823217E-01  0.76427448762E-01 -0.52378370177E-01  0.88912583274E+00  0.88000000000E+00 0.  1.
        -11    1    4    4    0    0  0.33028302997E-01 -0.39741726502E-01  0.99071063489E-02  0.52618300063E-01  0.51100000000E-03 0. -1.
         11    1    4    4    0    0  0.40697824866E-01 -0.55864304736E-01  0.36377106993E-01  0.78106904475E-01  0.51100000000E-03 0.  1.
</event>
<event>
 8    1  0.1075206E+005  0.1043930E+01  0.7957747E-01            NaN
         13   -1    0    0    0    0  0.00000000000E+00  0.00000000000E+00  0.74505805969E-08  0.10566000000E+00  0.10566000000E+00 0. -1.
     999900   -1    0    0    0    0 -0.00000000000E+00 -0.00000000000E+00 -0.74505805969E-08  0.93827000000E+00  0.93827000000E+00 0. -1.
     999902    2    1    2    0    0  0.87190167228E-02  0.10340272284E-01  0.20772475823E-01  0.10191421353E+01  0.10188406420E+01 0.  0.
     999903    2    3    3    0    0  0.66199686708E-01 -0.10526899702E+00 -0.20650045001E-01  0.12875718722E+00  0.26230300215E-01 0.  0.
         14    1    1    2    0    0 -0.87190167228E-02 -0.10340272284E-01 -0.20772475823E-01  0.24787864679E-01  0.00000000000E+00 0.  1.
     999901    1    3    3    0    0 -0.57480669985E-01  0.11560926930E+00  0.41422520824E-01  0.89038494810E+00  0.88000000000E+00 0. -1.
        -11    1    4    4    0    0  0.33813270642E-01 -0.32880772126E-01 -0.13866022508E-01  0.49163097424E-01  0.51100000000E-03 0. -1.
         11    1    4    4    0    0  0.32386416066E-01 -0.72388224892E-01 -0.67840224922E-02  0.79594089798E-01  0.51100000000E-03 0.  1.
</event>
<event>
 8    1  0.1075206E+005  0.1043930E+01  0.7957747E-01            NaN
         13   -1    0    0    0    0  0.00000000000E+00  0.00000000000E+00  0.74505805969E-08  0.10566000000E+00  0.10566000000E+00 0. -1.
     999900   -1    0    0    0    0 -0.00000000000E+00 -0.00000000000E+00 -0.74505805969E-08  0.93827000000E+00  0.93827000000E+00 0.  1.
     999902    2    1    2    0    0  0.17188039012E-01 -0.80279341153E-02 -0.14091708505E-01  0.10202983970E+01  0.10200246891E+01 0.  0.
     999903    2    3    3    0    0 -0.96663282768E-01  0.40240213581E-01 -0.73520974555E-01  0.12966728638E+00  0.21099915506E-01 0.  0.
         14    1    1    2    0    0 -0.17188039012E-01  0.80279341153E-02  0.14091708505E-01  0.23631602989E-01  0.00000000000E+00 0. -1.
     999901    1    3    3    0    0  0.11385132178E+00 -0.48268147696E-01  0.59429266050E-01  0.89063111063E+00  0.88000000000E+00 0. -1.
        -11    1    4    4    0    0 -0.50797725480E-02  0.53322353188E-02 -0.11548063628E-01  0.13706046738E-01  0.51100000000E-03 0.  1.
         11    1    4    4    0    0 -0.91583510220E-01  0.34907978262E-01 -0.61972910926E-01  0.11596123965E+00  0.51100000000E-03 0. -1.
</event>
<event>
 8    1  0.1075206E+005  0.1043930E+01  0.7957747E-01            NaN
         13   -1    0    0    0    0  0.00000000000E+00  0.00000000000E+00  0.74505805969E-08  0.10566000000E+00  0.10566000000E+00 0.  1.
     999900   -1    0    0    0    0 -0.00000000000E+00 -0.00000000000E+00 -0.74505805969E-08  0.93827000000E+00  0.93827000000E+00 0.  1.
     999902    2    1    2    0    0 -0.11670438649E-01 -0.11835860980E-01 -0.17031158467E-01  0.10201319517E+01  0.10198543287E+01 0.  0.
     999903    2    3    3    0    0  0.10660580503E+00  0.63872542172E-01 -0.28060808670E-01  0.12892900889E+00  0.19768182512E-01 0.  0.
         14    1    1    2    0    0  0.11670438649E-01  0.11835860980E-01  0.17031158467E-01  0.23798048283E-01  0.00000000000E+00 0.  1.
     999901    1    3    3    0    0 -0.11827624368E+00 -0.75708403152E-01  0.11029650203E-01  0.89120294283E+00  0.88000000000E+00 0. -1.
        -11    1    4    4    0    0  0.68146032981E-01  0.30414709588E-01 -0.12815790296E-01  0.75719495325E-01  0.51100000000E-03 0.  1.
         11    1    4    4    0    0  0.38459772047E-01  0.33457832585E-01 -0.15245018374E-01  0.53209513561E-01  0.51100000000E-03 0. -1.
</event>
<event>
 8    1  0.1075206E+005  0.1043930E+01  0.7957747E-01            NaN
         13   -1    0    0    0    0  0.00000000000E+00  0.00000000000E+00  0.74505805969E-08  0.10566000000E+00  0.10566000000E+00 0. -1.
     999900   -1    0    0    0    0 -0.00000000000E+00 -0.00000000000E+00 -0.74505805969E-08  0.93827000000E+00  0.93827000000E+00 0.  1.
     999902    2    1    2    0    0  0.30672573726E-02 -0.10149704553E-01  0.21437403121E-01  0.10200137540E+01  0.10197333335E+01 0.  0.
     999903    2    3    3    0    0  0.74655245128E-01  0.85165277634E-01 -0.57449256717E-01  0.12847974403E+00  0.19496086530E-01 0.  0.
         14    1    1    2    0    0 -0.30672573726E-02  0.10149704553E-01 -0.21437403121E-01  0.23916246003E-01  0.00000000000E+00 0. -1.
     999901    1    3    3    0    0 -0.71587987756E-01 -0.95314982188E-01  0.78886659838E-01  0.89153400996E+00  0.88000000000E+00 0.  1.
        -11    1    4    4    0    0  0.11965901404E-01  0.26411548272E-01 -0.14455150501E-01  0.32403166135E-01  0.51100000000E-03 0. -1.
         11    1    4    4    0    0  0.62689343724E-01  0.58753729362E-01 -0.42994106216E-01  0.96076577899E-01  0.51100000000E-03 0.  1.
</event>
<event>
 8    1  0.1075206E+005  0.1043930E+01  0.7957747E-01            NaN
         13   -1    0    0    0    0  0.00000000000E+00  0.00000000000E+00  0.74505805969E-08  0.10566000000E+00  0.10566000000E+00 0.  1.
     999900   -1    0    0    0    0 -0.00000000000E+00 -0.00000000000E+00 -0.74505805969E-08  0.93827000000E+00  0.93827000000E+00 0.  1.
     999902    2    1    2    0    0 -0.52443994558E-02  0.15925724227E-01  0.16095337598E-01  0.10206879624E+01  0.10204233065E+01 0.  0.
     999903    2    3    3    0    0  0.72283955438E-01 -0.64901770834E-01  0.85343283817E-01  0.13089079014E+00  0.20290706718E-01 0.  0.
         14    1    1    2    0    0  0.52443994558E-02 -0.15925724227E-01 -0.16095337598E-01  0.23242037566E-01  0.00000000000E+00 0. -1.
     999901    1    3    3    0    0 -0.77528354894E-01  0.80827495061E-01 -0.69247946219E-01  0.88979717230E+00  0.88000000000E+00 0. -1.
        -11    1    4    4    0    0  0.36104189184E-01 -0.21360695395E-01  0.43950158787E-01  0.60759109299E-01  0.51100000000E-03 0. -1.
         11    1    4    4    0    0  0.36179766254E-01 -0.43541075438E-01  0.41393125030E-01  0.70131680839E-01  0.51100000000E-03 0.  1.
</event>
<event>
 8    1  0.1075206E+005  0.1043930E+01  0.7957747E-01            NaN
         13   -1    0    0    0    0  0.00000000000E+00  0.00000000000E+00  0.74505805969E-08  0.10566000000E+00  0.10566000000E+00 0.  1.
     999900   -1    0    0    0    0 -0.00000000000E+00 -0.00000000000E+00 -0.74505805969E-08  0.93827000000E+00  0.93827000000E+00 0.  1.
     999902    2    1    2    0    0 -0.35572281026E-02 -0.20190480691E-01 -0.10201026692E-01  0.10210308662E+01  0.10207740492E+01 0.  0.
     999903    2    3    3    0    0 -0.11944932205E+00 -0.50858650865E-01 -0.19432959151E-01  0.13285478983E+00  0.20445350891E-01 0.  0.
         14    1    1    2    0    0  0.35572281026E-02  0.20190480691E-01  0.10201026692E-01  0.22899133780E-01  0.00000000000E+00 0.  1.
     999901    1    3    3    0    0  0.11589209394E+00  0.30668170174E-01  0.92319324590E-02  0.88817607639E+00  0.88000000000E+00 0.  1.
        -11    1    4    4    0    0 -0.80522411887E-01 -0.29873859660E-01 -0.38823741552E-02  0.85974648922E-01  0.51100000000E-03 0.  1.
         11    1    4    4    0    0 -0.38926910160E-01 -0.20984791205E-01 -0.15550584996E-01  0.46880140904E-01  0.51100000000E-03 0. -1.
</event>
<event>
 8    1  0.1075206E+005  0.1043930E+01  0.7957747E-01            NaN
         13   -1    0    0    0    0  0.00000000000E+00  0.00000000000E+00  0.74505805969E-08  0.10566000000E+00  0.10566000000E+00 0.  1.
     999900   -1    0    0    0    0 -0.00000000000E+00 -0.00000000000E+00 -0.74505805969E-08  0.93827000000E+00  0.93827000000E+00 0. -1.
     999902    2    1    2    0    0 -0.39368613042E-02 -0.16319618829E-01 -0.16392807518E-01  0.10204661347E+01  0.10201963434E+01 0.  0.
     999903    2    3    3    0    0  0.56644961935E-01  0.10703953590E+00  0.35811017086E-01  0.12827059692E+00  0.22467824349E-01 0.  0.
         14    1    1    2    0    0  0.39368613042E-02  0.16319618829E-01  0.16392807518E-01  0.23463865282E-01  0.00000000000E+00 0.  1.
     999901    1    3    3    0    0 -0.60581823239E-01 -0.12335915473E+00 -0.52203824604E-01  0.89219553780E+00  0.88000000000E+00 0. -1.
        -11    1    4    4    0    0  0.24203499608E-01  0.38202217899E-01  0.24184335371E-01  0.51287055326E-01  0.51100000000E-03 0.  1.
         11    1    4    4    0    0  0.32441462327E-01  0.68837318003E-01  0.11626681714E-01  0.76983541595E-01  0.51100000000E-03 0. -1.
</event>
<event>
 8    1  0.1075206E+005  0.1043930E+01  0.7957747E-01            NaN
         13   -1    0    0    0    0  0.00000000000E+00  0.00000000000E+00  0.74505805969E-08  0.10566000000E+00  0.10566000000E+00 0.  1.
     999900   -1    0    0    0    0 -0.00000000000E+00 -0.00000000000E+00 -0.74505805969E-08  0.93827000000E+00  0.93827000000E+00 0. -1.
     999902    2    1    2    0    0  0.20240142975E-01 -0.81014030699E-03  0.14111903405E-01  0.10192426443E+01  0.10189436208E+01 0.  0.
     999903    2    3    3    0    0  0.83866324781E-01 -0.89065370371E-01 -0.41305620458E-01  0.13081235517E+00  0.20964669151E-01 0.  0.
         14    1    1    2    0    0 -0.20240142975E-01  0.81014030699E-03 -0.14111903405E-01  0.24687355725E-01  0.00000000000E+00 0. -1.
     999901    1    3    3    0    0 -0.63626181806E-01  0.88255230064E-01  0.55417523863E-01  0.88843028910E+00  0.88000000000E+00 0. -1.
        -11    1    4    4    0    0  0.56251682106E-01 -0.57175208077E-01 -0.16554059427E-01  0.81899659114E-01  0.51100000000E-03 0.  1.
         11    1    4    4    0    0  0.27614642675E-01 -0.31890162294E-01 -0.24751561032E-01  0.48912696058E-01  0.51100000000E-03 0. -1.
</event>
<event>
 8    1  0.1075206E+005  0.1043930E+01  0.7957747E-01            NaN
         13   -1    0    0    0    0  0.00000000000E+00  0.00000000000E+00  0.74505805969E-08  0.10566000000E+00  0.10566000000E+00 0. -1.
     999900   -1    0    0    0    0 -0.00000000000E+00 -0.00000000000E+00 -0.74505805969E-08  0.93827000000E+00  0.93827000000E+00 0. -1.
     999902    2    1    2    0    0  0.78489700395E-02 -0.23879175367E-01 -0.31697209719E-02  0.10185948766E+01  0.10182797524E+01 0.  0.
     999903    2    3    3    0    0 -0.11109193165E+00 -0.29939011389E-02  0.60372976505E-01  0.12807771945E+00  0.20214480082E-01 0.  0.
         14    1    1    2    0    0 -0.78489700395E-02  0.23879175367E-01  0.31697209719E-02  0.25335123405E-01  0.00000000000E+00 0. -1.
     999901    1    3    3    0    0  0.11894090169E+00 -0.20885274229E-01 -0.63542697477E-01  0.89051715715E+00  0.88000000000E+00 0. -1.
        -11    1    4    4    0    0 -0.59510381015E-01 -0.72166154201E-02  0.22873506961E-01  0.64164035319E-01  0.51100000000E-03 0. -1.
         11    1    4    4    0    0 -0.51581550633E-01  0.42227142812E-02  0.37499469544E-01  0.63913684127E-01  0.51100000000E-03 0.  1.
</event>
<event>
 8    1  0.1075206E+005  0.1043930E+01  0.7957747E-01            NaN
         13   -1    0    0    0    0  0.00000000000E+00  0.00000000000E+00  0.74505805969E-08  0.10566000000E+00  0.10566000000E+00 0.  1.
     999900   -1    0    0    0    0 -0.00000000000E+00 -0.00000000000E+00 -0.74505805969E-08  0.93827000000E+00  0.93827000000E+00 0. -1.
     999902    2    1    2    0    0  0.53522636524E-02  0.11489625967E-01 -0.18265646731E-01  0.10216973195E+01  0.10214553934E+01 0.  0.
     999903    2    3    3    0    0  0.11668688920E+00  0.58206563131E-01 -0.19715541102E-01  0.13345187300E+00  0.20417290325E-01 0.  0.
         14    1    1    2    0    0 -0.53522636524E-02 -0.11489625967E-01  0.18265646731E-01  0.22232680485E-01  0.00000000000E+00 0.  1.
     999901    1    3    3    0    0 -0.11133462554E+00 -0.46716937163E-01  0.14498943714E-02  0.88824544652E+00  0.88000000000E+00 0. -1.
        -11    1    4    4    0    0  0.67779512168E-01  0.27657152248E-01 -0.19598950023E-01  0.75784960930E-01  0.51100000000E-03 0. -1.
         11    1    4    4    0    0  0.48907377028E-01  0.30549410883E-01 -0.11659107913E-03  0.57666912068E-01  0.51100000000E-03 0.  1.
</event>
<event>
 8    1  0.1075206E+005  0.1043930E+01  0.7957747E-01            NaN
         13   -1    0    0    0    0  0.00000000000E+00  0.00000000000E+00  0.74505805969E-08  0.10566000000E+00  0.10566000000E+00 0. -1.
     999900   -1    0    0    0    0 -0.00000000000E+00 -0.00000000000E+00 -0.74505805969E-08  0.93827000000E+00  0.93827000000E+00 0.  1.
     999902    2    1    2    0    0  0.58034150994E-03  0.91177179956E-02  0.20774243796E-01  0.10212355341E+01  0.10209833384E+01 0.  0.
     999903    2    3    3    0    0  0.62623957792E-01 -0.96483541626E-01  0.61224077969E-01  0.13183279886E+00  0.20016624006E-01 0.  0.
         14    1    1    2    0    0 -0.58034150994E-03 -0.91177179956E-02 -0.20774243796E-01  0.22694465912E-01  0.00000000000E+00 0.  1.
     999901    1    3    3    0    0 -0.62043616282E-01  0.10560125962E+00 -0.40449834172E-01  0.88940273523E+00  0.88000000000E+00 0. -1.
        -11    1    4    4    0    0  0.15308613175E-01 -0.15425626325E-01  0.46101893808E-02  0.22222028530E-01  0.51100000000E-03 0. -1.
         11    1    4    4    0    0  0.47315344617E-01 -0.81057915302E-01  0.56613888588E-01  0.10961077033E+00  0.51100000000E-03 0.  1.
</event>
<event>
 8    1  0.1075206E+005  0.1043930E+01  0.7957747E-01            NaN
         13   -1    0    0    0    0  0.00000000000E+00  0.00000000000E+00  0.74505805969E-08  0.10566000000E+00  0.10566000000E+00 0.  1.
     999900   -1    0    0    0    0 -0.00000000000E+00 -0.00000000000E+00 -0.74505805969E-08  0.93827000000E+00  0.93827000000E+00 0.  1.
     999902    2    1    2    0    0  0.13244273336E-01  0.10691231302E-01  0.16506569002E-01  0.10202196642E+01  0.10199441079E+01 0.  0.
     999903    2    3    3    0    0  0.33660543898E-01 -0.95353459616E-01  0.81323857264E-01  0.13125195871E+00  0.19702599512E-01 0.  0.
         14    1    1    2    0    0 -0.13244273336E-01 -0.10691231302E-01 -0.16506569002E-01  0.23710335788E-01  0.00000000000E+00 0. -1.
     999901    1    3    3    0    0 -0.20416270562E-01  0.10604469092E+00 -0.64817288262E-01  0.88896770551E+00  0.88000000000E+00 0.  1.
        -11    1    4    4    0    0  0.13748734124E-01 -0.66265918545E-01  0.56038030230E-01  0.87867636839E-01  0.51100000000E-03 0. -1.
         11    1    4    4    0    0  0.19911809774E-01 -0.29087541071E-01  0.25285827034E-01  0.43384321867E-01  0.51100000000E-03 0.  1.
</event>
<event>
 8    1  0.1075206E+005  0.1043930E+01  0.7957747E-01            NaN
         13   -1    0    0    0    0  0.00000000000E+00  0.00000000000E+00  0.74505805969E-08  0.10566000000E+00  0.10566000000E+00 0.  1.
     999900   -1    0    0    0    0 -0.00000000000E+00 -0.00000000000E+00 -0.74505805969E-08  0.93827000000E+00  0.93827000000E+00 0.  1.
     999902    2    1    2    0    0  0.16790791479E-01  0.23755359257E-01 -0.10791088605E-02  0.10148196539E+01  0.10144020494E+01 0.  0.
     999903    2    3    3    0    0  0.82474228492E-01  0.24596764643E-01  0.92237885100E-01  0.12745102523E+00  0.18136625572E-01 0.  0.
         14    1    1    2    0    0 -0.16790791479E-01 -0.23755359257E-01  0.10791088605E-02  0.29110346062E-01  0.00000000000E+00 0. -1.
     999901    1    3    3    0    0 -0.65683437013E-01 -0.84140538624E-03 -0.93316993961E-01  0.88736862871E+00  0.88000000000E+00 0. -1.
        -11    1    4    4    0    0  0.42836318669E-01  0.33389980897E-02  0.45638365762E-01  0.62683495881E-01  0.51100000000E-03 0.  1.
         11    1    4    4    0    0  0.39637909822E-01  0.21257766554E-01  0.46599519338E-01  0.64767529345E-01  0.51100000000E-03 0. -1.
</event>
<event>
 8    1  0.1075206E+005  0.1043930E+01  0.7957747E-01            NaN
         13   -1    0    0    0    0  0.00000000000E+00  0.00000000000E+00  0.74505805969E-08  0.10566000000E+00  0.10566000000E+00 0. -1.
     999900   -1    0    0    0    0 -0.00000000000E+00 -0.00000000000E+00 -0.74505805969E-08  0.93827000000E+00  0.93827000000E+00 0.  1.
     999902    2    1    2    0    0 -0.10523557021E-01  0.17265207014E-01  0.84862103230E-02  0.10220017445E+01  0.10217664691E+01 0.  0.
     999903    2    3    3    0    0 -0.12847607337E-01 -0.12624210818E+00 -0.22456449440E-01  0.12983741042E+00  0.15853394935E-01 0.  0.
         14    1    1    2    0    0  0.10523557021E-01 -0.17265207014E-01 -0.84862103230E-02  0.21928255545E-01  0.00000000000E+00 0.  1.
     999901    1    3    3    0    0  0.23240503161E-02  0.14350731520E+00  0.30942659763E-01  0.89216433403E+00  0.88000000000E+00 0.  1.
        -11    1    4    4    0    0 -0.55515894404E-02 -0.56534245620E-01 -0.18056005411E-01  0.59608904750E-01  0.51100000000E-03 0.  1.
         11    1    4    4    0    0 -0.72960178968E-02 -0.69707862564E-01 -0.44004440285E-02  0.70228505673E-01  0.51100000000E-03 0. -1.
</event>
<event>
 7    1  0.1381576E+005  0.1043930E+01  0.7957747E-01            NaN
         13   -1    0    0    0    0  0.00000000000E+00  0.00000000000E+00  0.74505805969E-08  0.10566000000E+00  0.10566000000E+00 0.  1.
     999900   -1    0    0    0    0 -0.00000000000E+00 -0.00000000000E+00 -0.74505805969E-08  0.93827000000E+00  0.93827000000E+00 0.  1.
     999903    2    1    2    0    0  0.16276472622E-01 -0.96495654887E-01 -0.13293684061E-02  0.99800712196E-01  0.19546865771E-01 0.  0.
         14    1    1    2    0    0  0.48076688732E-01 -0.42262787183E-02 -0.27564955207E-01  0.55579278394E-01  0.00000000000E+00 0. -1.
     999901    1    1    2    0    0 -0.64353161354E-01  0.10072193361E+00  0.28894323613E-01  0.88855000941E+00  0.88000000000E+00 0.  1.
        -11    1    3    3    0    0  0.17151324953E-01 -0.45388979580E-01 -0.33909351270E-02  0.48642440081E-01  0.51100000000E-03 0. -1.
         11    1    3    3    0    0 -0.87485233127E-03 -0.51106675307E-01  0.20615667210E-02  0.51158272116E-01  0.51100000000E-03 0.  1.
</event>
<event>
 8    1  0.1075206E+005  0.1043930E+01  0.7957747E-01            NaN
         13   -1    0    0    0    0  0.00000000000E+00  0.00000000000E+00  0.74505805969E-08  0.10566000000E+00  0.10566000000E+00 0.  1.
     999900   -1    0    0    0    0 -0.00000000000E+00 -0.00000000000E+00 -0.74505805969E-08  0.93827000000E+00  0.93827000000E+00 0.  1.
     999902    2    1    2    0    0  0.70558256214E-02  0.22536811739E-01  0.22800028752E-02  0.10202046766E+01  0.10199287677E+01 0.  0.
     999903    2    3    3    0    0  0.74106730690E-01  0.99437039038E-01  0.44257373582E-01  0.13331597528E+00  0.20854301298E-01 0.  0.
         14    1    1    2    0    0 -0.70558256214E-02 -0.22536811739E-01 -0.22800028752E-02  0.23725323426E-01  0.00000000000E+00 0.  1.
     999901    1    3    3    0    0 -0.67050905068E-01 -0.76900227300E-01 -0.41977370707E-01  0.88688870129E+00  0.88000000000E+00 0. -1.
        -11    1    4    4    0    0  0.53318465442E-01  0.64841214801E-01  0.20269693223E-01  0.86361817247E-01  0.51100000000E-03 0. -1.
         11    1    4    4    0    0  0.20788265248E-01  0.34595824238E-01  0.23987680359E-01  0.46954158034E-01  0.51100000000E-03 0.  1.
</event>
<event>
 8    1  0.1075206E+005  0.1043930E+01  0.7957747E-01            NaN
         13   -1    0    0    0    0  0.00000000000E+00  0.00000000000E+00  0.74505805969E-08  0.10566000000E+00  0.10566000000E+00 0. -1.
     999900   -1    0    0    0    0 -0.00000000000E+00 -0.00000000000E+00 -0.74505805969E-08  0.93827000000E+00  0.93827000000E+00 0.  1.
     999902    2    1    2    0    0  0.67369088284E-02 -0.14601040315E-02  0.25094390972E-01  0.10179060437E+01  0.10175733229E+01 0.  0.
     999903    2    3    3    0    0 -0.48950298843E-02  0.77029037024E-01  0.10368452613E+00  0.13084784006E+00  0.20328365109E-01 0.  0.
         14    1    1    2    0    0 -0.67369088284E-02  0.14601040315E-02 -0.25094390972E-01  0.26023956321E-01  0.00000000000E+00 0.  1.
     999901    1    3    3    0    0  0.11631938713E-01 -0.78489141055E-01 -0.78590135157E-01  0.88705820362E+00  0.88000000000E+00 0. -1.
        -11    1    4    4    0    0 -0.11524215501E-01  0.62743514928E-01  0.87189620406E-01  0.10803632369E+00  0.51100000000E-03 0. -1.
         11    1    4    4    0    0  0.66291856167E-02  0.14285522095E-01  0.16494905722E-01  0.22811516373E-01  0.51100000000E-03 0.  1.
</event>
<event>
 8    1  0.1075206E+005  0.1043930E+01  0.7957747E-01            NaN
         13   -1    0    0    0    0  0.00000000000E+00  0.00000000000E+00  0.74505805969E-08  0.10566000000E+00  0.10566000000E+00 0. -1.
     999900   -1    0    0    0    0 -0.00000000000E+00 -0.00000000000E+00 -0.74505805969E-08  0.93827000000E+00  0.93827000000E+00 0. -1.
     999902    2    1    2    0    0 -0.12458749241E-02  0.19356884837E-01  0.12493768931E-01  0.10208576040E+01  0.10205968412E+01 0.  0.
     999903    2    3    3    0    0 -0.39369680679E-01  0.85629542112E-01 -0.89367704646E-01  0.13168875082E+00  0.21747418712E-01 0.  0.
         14    1    1    2    0    0  0.12458749241E-02 -0.19356884837E-01 -0.12493768931E-01  0.23072395996E-01  0.00000000000E+00 0.  1.
     999901    1    3    3    0    0  0.38123805755E-01 -0.66272657275E-01  0.10186147358E+00  0.88916885318E+00  0.88000000000E+00 0.  1.
        -11    1    4    4    0    0 -0.13885573435E-01  0.22365443576E-01 -0.13225915324E-01  0.29465372441E-01  0.51100000000E-03 0. -1.
         11    1    4    4    0    0 -0.25484107244E-01  0.63264098536E-01 -0.76141789322E-01  0.10222337838E+00  0.51100000000E-03 0.  1.
</event>
<event>
 8    1  0.1075206E+005  0.1043930E+01  0.7957747E-01            NaN
         13   -1    0    0    0    0  0.00000000000E+00  0.00000000000E+00  0.74505805969E-08  0.10566000000E+00  0.10566000000E+00 0.  1.
     999900   -1    0    0    0    0 -0.00000000000E+00 -0.00000000000E+00 -0.74505805969E-08  0.93827000000E+00  0.93827000000E+00 0. -1.
     999902    2    1    2    0    0  0.41977661911E-04  0.20513514515E-01 -0.11391972578E-01  0.10204654932E+01  0.10201956870E+01 0.  0.
     999903    2    3    3    0    0  0.62935070470E-01  0.10933765497E+00 -0.38182529624E-01  0.13335614087E+00  0.20258550032E-01 0.  0.
         14    1    1    2    0    0 -0.41977661911E-04 -0.20513514515E-01  0.11391972578E-01  0.23464506794E-01  0.00000000000E+00 0.  1.
     999901    1    3    3    0    0 -0.62893092808E-01 -0.88824140460E-01  0.26790557046E-01  0.88710935233E+00  0.88000000000E+00 0.  1.
        -11    1    4    4    0    0  0.45903288926E-01  0.93525485265E-01 -0.27375189598E-01  0.10772089145E+00  0.51100000000E-03 0. -1.
         11    1    4    4    0    0  0.17031781544E-01  0.15812169710E-01 -0.10807340026E-01  0.25635249422E-01  0.51100000000E-03 0.  1.
</event>
<event>
 8    1  0.1075206E+005  0.1043930E+01  0.7957747E-01            NaN
         13   -1    0    0    0    0  0.00000000000E+00  0.00000000000E+00  0.74505805969E-08  0.10566000000E+00  0.10566000000E+00 0.  1.
     999900   -1    0    0    0    0 -0.00000000000E+00 -0.00000000000E+00 -0.74505805969E-08  0.93827000000E+00  0.93827000000E+00 0. -1.
     999902    2    1    2    0    0  0.23312442725E-01  0.48956683451E-03 -0.20333469248E-02  0.10205239290E+01  0.10202554805E+01 0.  0.
     999903    2    3    3    0    0 -0.15725455395E-01 -0.31385987958E-01 -0.12425558385E+00  0.13064849741E+00  0.19930117160E-01 0.  0.
         14    1    1    2    0    0 -0.23312442725E-01 -0.48956683451E-03  0.20333469248E-02  0.23406071034E-01  0.00000000000E+00 0.  1.
     999901    1    3    3    0    0  0.39037898120E-01  0.31875554792E-01  0.12222223693E+00  0.88987543155E+00  0.88000000000E+00 0.  1.
        -11    1    4    4    0    0 -0.10939805250E-01 -0.72421896448E-02 -0.67783975918E-01  0.69043878526E-01  0.51100000000E-03 0. -1.
         11    1    4    4    0    0 -0.47856501443E-02 -0.24143798313E-01 -0.56471607936E-01  0.61604618886E-01  0.51100000000E-03 0.  1.
</event>
<event>
 8    1  0.1075206E+005  0.1043930E+01  0.7957747E-01            NaN
         13   -1    0    0    0    0  0.00000000000E+00  0.00000000000E+00  0.74505805969E-08  0.10566000000E+00  0.10566000000E+00 0. -1.
     999900   -1    0    0    0    0 -0.00000000000E+00 -0.00000000000E+00 -0.74505805969E-08  0.93827000000E+00  0.93827000000E+00 0.  1.
     999902    2    1    2    0    0  0.47904294823E-03 -0.13958452364E-01 -0.18459820881E-01  0.10207819361E+01  0.10205194404E+01 0.  0.
     999903    2    3    3    0    0  0.64355491437E-01  0.85405986555E-01 -0.73127715265E-01  0.13120784079E+00  0.20785161263E-01 0.  0.
         14    1    1    2    0    0 -0.47904294823E-03  0.13958452364E-01  0.18459820881E-01  0.23148063882E-01  0.00000000000E+00 0.  1.
     999901    1    3    3    0    0 -0.63876448489E-01 -0.99364438918E-01  0.54667894384E-01  0.88957409532E+00  0.88000000000E+00 0. -1.
        -11    1    4    4    0    0  0.58930337423E-01  0.77507488138E-01 -0.72856689599E-01  0.12160819761E+00  0.51100000000E-03 0. -1.
         11    1    4    4    0    0  0.54251540139E-02  0.78984984162E-02 -0.27102566544E-03  0.95996431818E-02  0.51100000000E-03 0.  1.
</event>
<event>
 8    1  0.1075206E+005  0.1043930E+01  0.7957747E-01            NaN
         13   -1    0    0    0    0  0.00000000000E+00  0.00000000000E+00  0.74505805969E-08  0.10566000000E+00  0.10566000000E+00 0.  1.
     999900   -1    0    0    0    0 -0.00000000000E+00 -0.00000000000E+00 -0.74505805969E-08  0.93827000000E+00  0.93827000000E+00 0. -1.
     999902    2    1    2    0    0 -0.10313901452E-01 -0.16681846335E-01 -0.13185698695E-01  0.10202969043E+01  0.10200231614E+01 0.  0.
     999903    2    3    3    0    0  0.15830795864E-02 -0.12641670379E+00  0.32952747878E-01  0.13220229601E+00  0.20195899063E-01 0.  0.
         14    1    1    2    0    0  0.10313901452E-01  0.16681846335E-01  0.13185698695E-01  0.23633095658E-01  0.00000000000E+00 0.  1.
     999901    1    3    3    0    0 -0.11896981039E-01  0.10973485746E+00 -0.46138446573E-01  0.88809460833E+00  0.88000000000E+00 0. -1.
        -11    1    4    4    0    0  0.93980707498E-02 -0.84721662992E-01  0.17286779853E-01  0.86978030517E-01  0.51100000000E-03 0. -1.
         11    1    4    4    0    0 -0.78149911634E-02 -0.41695040799E-01  0.15665968025E-01  0.45224265491E-01  0.51100000000E-03 0.  1.
</event>
<event>
 8    1  0.1075206E+005  0.1043930E+01  0.7957747E-01            NaN
         13   -1    0    0    0    0  0.00000000000E+00  0.00000000000E+00  0.74505805969E-08  0.10566000000E+00  0.10566000000E+00 0. -1.
     999900   -1    0    0    0    0 -0.00000000000E+00 -0.00000000000E+00 -0.74505805969E-08  0.93827000000E+00  0.93827000000E+00 0.  1.
     999902    2    1    2    0    0 -0.97512699756E-02 -0.16289083963E-01 -0.14472917827E-01  0.10200576965E+01  0.10197783178E+01 0.  0.
     999903    2    3    3    0    0 -0.44325166216E-01  0.11045927769E+00 -0.39351390139E-01  0.12995689333E+00  0.34267912537E-01 0.  0.
         14    1    1    2    0    0  0.97512699756E-02  0.16289083963E-01  0.14472917827E-01  0.23872303469E-01  0.00000000000E+00 0. -1.
     999901    1    3    3    0    0  0.34573896240E-01 -0.12674836165E+00  0.24878472312E-01  0.89010080321E+00  0.88000000000E+00 0. -1.
        -11    1    4    4    0    0 -0.29477936761E-01  0.81259988480E-01 -0.43780651342E-01  0.96897580137E-01  0.51100000000E-03 0. -1.
         11    1    4    4    0    0 -0.14847229455E-01  0.29199289208E-01  0.44292612027E-02  0.33059313189E-01  0.51100000000E-03 0.  1.
</event>
<event>
 8    1  0.1075206E+005  0.1043930E+01  0.7957747E-01            NaN
         13   -1    0    0    0    0  0.00000000000E+00  0.00000000000E+00  0.74505805969E-08  0.10566000000E+00  0.10566000000E+00 0. -1.
     999900   -1    0    0    0    0 -0.00000000000E+00 -0.00000000000E+00 -0.74505805969E-08  0.93827000000E+00  0.93827000000E+00 0.  1.
     999902    2    1    2    0    0 -0.21177549592E-01 -0.99834533954E-02 -0.69873716676E-02  0.10194967990E+01  0.10192039746E+01 0.  0.
     999903    2    3    3    0    0 -0.53725215530E-01  0.10737410826E+00 -0.46433906849E-01  0.13023408361E+00  0.19728429231E-01 0.  0.
         14    1    1    2    0    0  0.21177549592E-01  0.99834533954E-02  0.69873716676E-02  0.24433201003E-01  0.00000000000E+00 0. -1.
     999901    1    3    3    0    0  0.32547665937E-01 -0.11735756166E+00  0.39446535181E-01  0.88926271539E+00  0.88000000000E+00 0. -1.
        -11    1    4    4    0    0 -0.37700483599E-02  0.13877233668E-01  0.27742536135E-03  0.14391975707E-01  0.51100000000E-03 0. -1.
         11    1    4    4    0    0 -0.49955167170E-01  0.93496874595E-01 -0.46711332210E-01  0.11584210791E+00  0.51100000000E-03 0.  1.
</event>
<event>
 8    1  0.1075206E+005  0.1043930E+01  0.7957747E-01            NaN
         13   -1    0    0    0    0  0.00000000000E+00  0.00000000000E+00  0.74505805969E-08  0.10566000000E+00  0.10566000000E+00 0.  1.
     999900   -1    0    0    0    0 -0.00000000000E+00 -0.00000000000E+00 -0.74505805969E-08  0.93827000000E+00  0.93827000000E+00 0.  1.
     999902    2    1    2    0    0  0.60859557249E-02 -0.21691564458E-01  0.68277927754E-02  0.10203889384E+01  0.10201173482E+01 0.  0.
     999903    2    3    3    0    0  0.10269511935E+00  0.29070283818E-01 -0.71904965500E-01  0.13015922484E+00  0.19486682823E-01 0.  0.
         14    1    1    2    0    0 -0.60859557249E-02  0.21691564458E-01 -0.68277927754E-02  0.23541061571E-01  0.00000000000E+00 0. -1.
     999901    1    3    3    0    0 -0.96609163622E-01 -0.50761848276E-01  0.78732758276E-01  0.89022971359E+00  0.88000000000E+00 0. -1.
        -11    1    4    4    0    0  0.50092274287E-01  0.91880440214E-02 -0.24080221906E-01  0.56336261006E-01  0.51100000000E-03 0.  1.
         11    1    4    4    0    0  0.52602845061E-01  0.19882239797E-01 -0.47824743594E-01  0.73822963830E-01  0.51100000000E-03 0. -1.
</event>
<event>
 8    1  0.1075206E+005  0.1043930E+01  0.7957747E-01            NaN
         13   -1    0    0    0    0  0.00000000000E+00  0.00000000000E+00  0.74505805969E-08  0.10566000000E+00  0.10566000000E+00 0. -1.
     999900   -1    0    0    0    0 -0.00000000000E+00 -0.00000000000E+00 -0.74505805969E-08  0.93827000000E+00  0.93827000000E+00 0.  1.
     999902    2    1    2    0    0  0.31548716236E-02  0.22651693092E-01 -0.75413377985E-02  0.10198483848E+01  0.10195640263E+01 0.  0.
     999903    2    3    3    0    0  0.21648096873E-01 -0.50133385227E-01 -0.11576677813E+00  0.13004367985E+00  0.22965525015E-01 0.  0.
         14    1    1    2    0    0 -0.31548716236E-02 -0.22651693092E-01  0.75413377985E-02  0.24081615201E-01  0.00000000000E+00 0. -1.
     999901    1    3    3    0    0 -0.18493225249E-01  0.72785078319E-01  0.10822544033E+00  0.88980470494E+00  0.88000000000E+00 0. -1.
        -11    1    4    4    0    0  0.22260709568E-01 -0.31084955438E-01 -0.60395445943E-01  0.71482058285E-01  0.51100000000E-03 0. -1.
         11    1    4    4    0    0 -0.61261269588E-03 -0.19048429789E-01 -0.55371332187E-01  0.58561621570E-01  0.51100000000E-03 0.  1.
</event>
<event>
 8    1  0.1091992E+005  0.1043930E+01  0.7957747E-01            NaN
         13   -1    0    0    0    0  0.00000000000E+00  0.00000000000E+00  0.74505805969E-08  0.10566000000E+00  0.10566000000E+00 0. -1.
     999900   -1    0    0    0    0 -0.00000000000E+00 -0.00000000000E+00 -0.74505805969E-08  0.93827000000E+00  0.93827000000E+00 0.  1.
     999902    2    1    2    0    0  0.10815921565E-01  0.19830249279E-01 -0.68261642292E-02  0.10203329776E+01  0.10200600795E+01 0.  0.
     999903    2    3    3    0    0  0.30856605859E-01 -0.11055625869E+00  0.53888027492E-01  0.12843136673E+00  0.20393135907E-01 0.  0.
         14    1    1    2    0    0 -0.10815921565E-01 -0.19830249279E-01  0.68261642292E-02  0.23597022351E-01  0.00000000000E+00 0. -1.
     999901    1    3    3    0    0 -0.20040684294E-01  0.13038650797E+00 -0.60714191721E-01  0.89190161092E+00  0.88000000000E+00 0.  1.
        -11    1    4    4    0    0  0.33901558510E-02 -0.44034694103E-01  0.25958362549E-01  0.51231290718E-01  0.51100000000E-03 0.  1.
         11    1    4    4    0    0  0.27466450008E-01 -0.66521564587E-01  0.27929664942E-01  0.77200076010E-01  0.51100000000E-03 0. -1.
</event>
<event>
 8    1  0.1075206E+005  0.1043930E+01  0.7957747E-01            NaN
         13   -1    0    0    0    0  0.00000000000E+00  0.00000000000E+00  0.74505805969E-08  0.10566000000E+00  0.10566000000E+00 0. -1.
     999900   -1    0    0    0    0 -0.00000000000E+00 -0.00000000000E+00 -0.74505805969E-08  0.93827000000E+00  0.93827000000E+00 0.  1.
     999902    2    1    2    0    0  0.19911567071E-01 -0.89730855071E-02 -0.90027160673E-02  0.10203072215E+01  0.10200337203E+01 0.  0.
     999903    2    3    3    0    0  0.10180142791E+00 -0.69587352381E-01 -0.47807924018E-01  0.13357959545E+00  0.18761140347E-01 0.  0.
         14    1    1    2    0    0 -0.19911567071E-01  0.89730855071E-02  0.90027160673E-02  0.23622778485E-01  0.00000000000E+00 0. -1.
     999901    1    3    3    0    0 -0.81889860837E-01  0.60614266874E-01  0.38805207951E-01  0.88672762606E+00  0.88000000000E+00 0. -1.
        -11    1    4    4    0    0  0.42731889602E-01 -0.37924492952E-01 -0.28391047330E-01  0.63801208798E-01  0.51100000000E-03 0. -1.
         11    1    4    4    0    0  0.59069538306E-01 -0.31662859429E-01 -0.19416876688E-01  0.69778386655E-01  0.51100000000E-03 0.  1.
</event>
<event>
 8    1  0.1075206E+005  0.1043930E+01  0.7957747E-01            NaN
         13   -1    0    0    0    0  0.00000000000E+00  0.00000000000E+00  0.74505805969E-08  0.10566000000E+00  0.10566000000E+00 0.  1.
     999900   -1    0    0    0    0 -0.00000000000E+00 -0.00000000000E+00 -0.74505805969E-08  0.93827000000E+00  0.93827000000E+00 0.  1.
     999902    2    1    2    0    0  0.49699380600E-02 -0.11816143367E-01 -0.19389622750E-01  0.10206860976E+01  0.10204213987E+01 0.  0.
     999903    2    3    3    0    0 -0.93545712138E-01  0.19294353112E-01  0.84041194520E-01  0.12862604901E+00  0.18938473718E-01 0.  0.
         14    1    1    2    0    0 -0.49699380600E-02  0.11816143367E-01  0.19389622750E-01  0.23243902400E-01  0.00000000000E+00 0.  1.
     999901    1    3    3    0    0  0.98515650198E-01 -0.31110496478E-01 -0.10343081727E+00  0.89206004859E+00  0.88000000000E+00 0.  1.
        -11    1    4    4    0    0 -0.29103955536E-01  0.80012142596E-02  0.38437569474E-01  0.48875019443E-01  0.51100000000E-03 0. -1.
         11    1    4    4    0    0 -0.64441756601E-01  0.11293138852E-01  0.45603625046E-01  0.79751029569E-01  0.51100000000E-03 0.  1.
</event>
<event>
 8    1  0.1075206E+005  0.1043930E+01  0.7957747E-01            NaN
         13   -1    0    0    0    0  0.00000000000E+00  0.00000000000E+00  0.74505805969E-08  0.10566000000E+00  0.10566000000E+00 0. -1.
     999900   -1    0    0    0    0 -0.00000000000E+00 -0.00000000000E+00 -0.74505805969E-08  0.93827000000E+00  0.93827000000E+00 0. -1.
     999902    2    1    2    0    0  0.21502976900E-01  0.10649917968E-01  0.19697118096E-01  0.10128852705E+01  0.10124094014E+01 0.  0.
     999903    2    3    3    0    0 -0.62116714234E-01 -0.56510924256E-01 -0.83981763084E-01  0.12033155118E+00  0.19359104608E-01 0.  0.
         14    1    1    2    0    0 -0.21502976900E-01 -0.10649917968E-01 -0.19697118096E-01  0.31044729498E-01  0.00000000000E+00 0.  1.
     999901    1    3    3    0    0  0.83619691134E-01  0.67160842224E-01  0.10367888118E+00  0.89255371932E+00  0.88000000000E+00 0.  1.
        -11    1    4    4    0    0 -0.42098539301E-01 -0.49368838202E-01 -0.64718960703E-01  0.91642643961E-01  0.51100000000E-03 0.  1.
         11    1    4    4    0    0 -0.20018174933E-01 -0.71420860538E-02 -0.19262802381E-01  0.28688907219E-01  0.51100000000E-03 0. -1.
</event>
<event>
 8    1  0.1075206E+005  0.1043930E+01  0.7957747E-01            NaN
         13   -1    0    0    0    0  0.00000000000E+00  0.00000000000E+00  0.74505805969E-08  0.10566000000E+00  0.10566000000E+00 0.  1.
     999900   -1    0    0    0    0 -0.00000000000E+00 -0.00000000000E+00 -0.74505805969E-08  0.93827000000E+00  0.93827000000E+00 0. -1.
     999902    2    1    2    0    0 -0.23177375325E-01  0.75614241955E-02  0.71151801571E-03  0.10195399996E+01  0.10192482223E+01 0.  0.
     999903    2    3    3    0    0 -0.64754151650E-01  0.98564710519E-01 -0.56325344273E-01  0.13203595445E+00  0.18784209986E-01 0.  0.
         14    1    1    2    0    0  0.23177375325E-01 -0.75614241955E-02 -0.71151801571E-03  0.24390000425E-01  0.00000000000E+00 0.  1.
     999901    1    3    3    0    0  0.41576776325E-01 -0.91003286323E-01  0.57036862289E-01  0.88750404512E+00  0.88000000000E+00 0. -1.
        -11    1    4    4    0    0 -0.36826420478E-01  0.63357446702E-01 -0.43821938065E-01  0.85387204396E-01  0.51100000000E-03 0. -1.
         11    1    4    4    0    0 -0.27927731173E-01  0.35207263817E-01 -0.12503406208E-01  0.46648750055E-01  0.51100000000E-03 0.  1.
</event>
<event>
 8    1  0.1075206E+005  0.1043930E+01  0.7957747E-01            NaN
         13   -1    0    0    0    0  0.00000000000E+00  0.00000000000E+00  0.74505805969E-08  0.10566000000E+00  0.10566000000E+00 0. -1.
     999900   -1    0    0    0    0 -0.00000000000E+00 -0.00000000000E+00 -0.74505805969E-08  0.93827000000E+00  0.93827000000E+00 0. -1.
     999902    2    1    2    0    0  0.17628957244E-01 -0.19687554985E-02  0.14714688998E-01  0.10208826964E+01  0.10206225069E+01 0.  0.
     999903    2    3    3    0    0  0.41979350142E-01  0.87073818565E-02  0.12504054696E+00  0.13359541682E+00  0.19352329910E-01 0.  0.
         14    1    1    2    0    0 -0.17628957244E-01  0.19687554985E-02 -0.14714688998E-01  0.23047303617E-01  0.00000000000E+00 0.  1.
     999901    1    3    3    0    0 -0.24350392898E-01 -0.10676137355E-01 -0.11032585796E+00  0.88728727957E+00  0.88000000000E+00 0. -1.
        -11    1    4    4    0    0  0.10396672475E-01 -0.61183962393E-02  0.29030508448E-01  0.31441328103E-01  0.51100000000E-03 0.  1.
         11    1    4    4    0    0  0.31582677667E-01  0.14825778096E-01  0.96010038513E-01  0.10215408871E+00  0.51100000000E-03 0. -1.
</event>
<event>
 8    1  0.1075206E+005  0.1043930E+01  0.7957747E-01            NaN
         13   -1    0    0    0    0  0.00000000000E+00  0.00000000000E+00  0.74505805969E-08  0.10566000000E+00  0.10566000000E+00 0.  1.
     999900   -1    0    0    0    0 -0.00000000000E+00 -0.00000000000E+00 -0.74505805969E-08  0.93827000000E+00  0.93827000000E+00 0.  1.
     999902    2    1    2    0    0  0.98627361382E-03 -0.19829023560E-01 -0.13903055071E-01  0.10196924702E+01  0.10194043731E+01 0.  0.
     999903    2    3    3    0    0 -0.10800810795E+00  0.62022629464E-01  0.25067239299E-01  0.12834621191E+00  0.18216082912E-01 0.  0.
         14    1    1    2    0    0 -0.98627361382E-03  0.19829023560E-01  0.13903055071E-01  0.24237529810E-01  0.00000000000E+00 0. -1.
     999901    1    3    3    0    0  0.10899438156E+00 -0.81851653024E-01 -0.38970294370E-01  0.89134625828E+00  0.88000000000E+00 0. -1.
        -11    1    4    4    0    0 -0.40932782537E-01  0.20273373614E-01  0.77589057075E-03  0.45687695183E-01  0.51100000000E-03 0. -1.
         11    1    4    4    0    0 -0.67075325409E-01  0.41749255851E-01  0.24291348728E-01  0.82658516723E-01  0.51100000000E-03 0.  1.
</event>
<event>
 8    1  0.1075206E+005  0.1043930E+01  0.7957747E-01            NaN
         13   -1    0    0    0    0  0.00000000000E+00  0.00000000000E+00  0.74505805969E-08  0.10566000000E+00  0.10566000000E+00 0. -1.
     999900   -1    0    0    0    0 -0.00000000000E+00 -0.00000000000E+00 -0.74505805969E-08  0.93827000000E+00  0.93827000000E+00 0.  1.
     999902    2    1    2    0    0 -0.15471666494E-02  0.21370176304E-01 -0.88256925863E-02  0.10207573651E+01  0.10204943054E+01 0.  0.
     999903    2    3    3    0    0 -0.58593863542E-01  0.92977086083E-01 -0.72926630781E-01  0.13368870627E+00  0.21826528013E-01 0.  0.
         14    1    1    2    0    0  0.15471666494E-02 -0.21370176304E-01  0.88256925863E-02  0.23172634928E-01  0.00000000000E+00 0. -1.
     999901    1    3    3    0    0  0.57046696893E-01 -0.71606909779E-01  0.64100938195E-01  0.88706865880E+00  0.88000000000E+00 0.  1.
        -11    1    4    4    0    0 -0.56313772701E-01  0.76393524477E-01 -0.57811316991E-01  0.11112884896E+00  0.51100000000E-03 0. -1.
         11    1    4    4    0    0 -0.22800908413E-02  0.16583561607E-01 -0.15115313790E-01  0.22559857308E-01  0.51100000000E-03 0.  1.
</event>
<event>
 8    1  0.1075206E+005  0.1043930E+01  0.7957747E-01            NaN
         13   -1    0    0    0    0  0.00000000000E+00  0.00000000000E+00  0.74505805969E-08  0.10566000000E+00  0.10566000000E+00 0. -1.
     999900   -1    0    0    0    0 -0.00000000000E+00 -0.00000000000E+00 -0.74505805969E-08  0.93827000000E+00  0.93827000000E+00 0.  1.
     999902    2    1    2    0    0 -0.69391717211E-03 -0.61605514865E-02 -0.10571535447E-01  0.10316747449E+01  0.10316019523E+01 0.  0.
     999903    2    3    3    0    0  0.17246485854E-02  0.11335464559E+00 -0.82277142071E-01  0.14070256475E+00  0.13245132333E-01 0.  0.
         14    1    1    2    0    0  0.69391717211E-03  0.61605514865E-02  0.10571535447E-01  0.12255255092E-01  0.00000000000E+00 0. -1.
     999901    1    3    3    0    0 -0.24185657575E-02 -0.11951519708E+00  0.71705606624E-01  0.89097218016E+00  0.88000000000E+00 0. -1.
        -11    1    4    4    0    0  0.39906629194E-03  0.88990656212E-01 -0.70863053477E-01  0.11375996491E+00  0.51100000000E-03 0. -1.
         11    1    4    4    0    0  0.13255822934E-02  0.24363989378E-01 -0.11414088595E-01  0.26942599843E-01  0.51100000000E-03 0.  1.
</event>
<event>
 8    1  0.1075206E+005  0.1043930E+01  0.7957747E-01            NaN
         13   -1    0    0    0    0  0.00000000000E+00  0.00000000000E+00  0.74505805969E-08  0.10566000000E+00  0.10566000000E+00 0. -1.
     999900   -1    0    0    0    0 -0.00000000000E+00 -0.00000000000E+00 -0.74505805969E-08  0.93827000000E+00  0.93827000000E+00 0.  1.
     999902    2    1    2    0    0  0.21587528905E-01  0.29016933274E-02  0.75606656306E-02  0.10208734414E+01  0.10206130405E+01 0.  0.
     999903    2    3    3    0    0  0.35678790916E-01  0.12495700796E+00 -0.12320416581E-01  0.13211513856E+00  0.20381050308E-01 0.  0.
         14    1    1    2    0    0 -0.21587528905E-01 -0.29016933274E-02 -0.75606656306E-02  0.23056558571E-01  0.00000000000E+00 0.  1.
     999901    1    3    3    0    0 -0.14091262012E-01 -0.12205531463E+00  0.19881082212E-01  0.88875830287E+00  0.88000000000E+00 0. -1.
        -11    1    4    4    0    0  0.41521760292E-02  0.25122701154E-01 -0.10094884988E-01  0.27396322800E-01  0.51100000000E-03 0.  1.
         11    1    4    4    0    0  0.31526614887E-01  0.99834306805E-01 -0.22255315936E-02  0.10471881576E+00  0.51100000000E-03 0. -1.
</event>
<event>
 8    1  0.1075206E+005  0.1043930E+01  0.7957747E-01            NaN
         13   -1    0    0    0    0  0.00000000000E+00  0.00000000000E+00  0.74505805969E-08  0.10566000000E+00  0.10566000000E+00 0. -1.
     999900   -1    0    0    0    0 -0.00000000000E+00 -0.00000000000E+00 -0.74505805969E-08  0.93827000000E+00  0.93827000000E+00 0. -1.
     999902    2    1    2    0    0  0.20332660019E-01  0.81574166412E-02 -0.76501868630E-02  0.10207247017E+01  0.10204608914E+01 0.  0.
     999903    2    3    3    0    0 -0.11028436673E+00 -0.30183333902E-01  0.54269981072E-01  0.12810780291E+00  0.19816738633E-01 0.  0.
         14    1    1    2    0    0 -0.20332660019E-01 -0.81574166412E-02  0.76501868630E-02  0.23205298291E-01  0.00000000000E+00 0. -1.
     999901    1    3    3    0    0  0.13061702675E+00  0.38340750543E-01 -0.61920167935E-01  0.89261689880E+00  0.88000000000E+00 0.  1.
        -11    1    4    4    0    0 -0.38668773965E-01 -0.10921084698E-01  0.29743563918E-01  0.49994848599E-01  0.51100000000E-03 0. -1.
         11    1    4    4    0    0 -0.71615592765E-01 -0.19262249204E-01  0.24526417153E-01  0.78112954309E-01  0.51100000000E-03 0.  1.
</event>
<event>
 8    1  0.1075206E+005  0.1043930E+01  0.7957747E-01            NaN
         13   -1    0    0    0    0  0.00000000000E+00  0.00000000000E+00  0.74505805969E-08  0.10566000000E+00  0.10566000000E+00 0. -1.
     999900   -1    0    0    0    0 -0.00000000000E+00 -0.00000000000E+00 -0.74505805969E-08  0.93827000000E+00  0.93827000000E+00 0. -1.
     999902    2    1    2    0    0 -0.18676412446E-01  0.16600289104E-01  0.40864510656E-02  0.10186105004E+01  0.10182957696E+01 0.  0.
     999903    2    3    3    0    0  0.79146645839E-01  0.93882217352E-01  0.35203706109E-01  0.12927921746E+00  0.19893538169E-01 0.  0.
         14    1    1    2    0    0  0.18676412446E-01 -0.16600289104E-01 -0.40864510656E-02  0.25319499649E-01  0.00000000000E+00 0.  1.
     999901    1    3    3    0    0 -0.97823058285E-01 -0.77281928248E-01 -0.31117255043E-01  0.88933128289E+00  0.88000000000E+00 0. -1.
        -11    1    4    4    0    0  0.77518081316E-01  0.88150207813E-01  0.36921314959E-01  0.12305672142E+00  0.51100000000E-03 0. -1.
         11    1    4    4    0    0  0.16285645231E-02  0.57320095385E-02 -0.17176088498E-02  0.62224960359E-02  0.51100000000E-03 0.  1.
</event>
<event>
 7    1  0.1075206E+005  0.1043930E+01  0.7957747E-01            NaN
         13   -1    0    0    0    0  0.00000000000E+00  0.00000000000E+00  0.74505805969E-08  0.10566000000E+00  0.10566000000E+00 0.  1.
     999900   -1    0    0    0    0 -0.00000000000E+00 -0.00000000000E+00 -0.74505805969E-08  0.93827000000E+00  0.93827000000E+00 0.  1.
     999903    2    1    2    0    0  0.60936577395E-01 -0.60090624951E-01  0.11821953574E+00  0.14627757085E+00  0.98549192226E-02 0.  0.
         14    1    1    2    0    0  0.33341912806E-02  0.27575702437E-02 -0.43678027715E-02  0.61480668666E-02  0.00000000000E+00 0. -1.
     999901    1    1    2    0    0 -0.64270768676E-01  0.57333054708E-01 -0.11385173296E+00  0.89150436228E+00  0.88000000000E+00 0.  1.
        -11    1    3    3    0    0  0.28521900080E-01 -0.30868170718E-01  0.50376909014E-01  0.65608207036E-01  0.51100000000E-03 0.  1.
         11    1    3    3    0    0  0.32414677315E-01 -0.29222454233E-01  0.67842626722E-01  0.80669363816E-01  0.51100000000E-03 0. -1.
</event>
<event>
 8    1  0.1075206E+005  0.1043930E+01  0.7957747E-01            NaN
         13   -1    0    0    0    0  0.00000000000E+00  0.00000000000E+00  0.74505805969E-08  0.10566000000E+00  0.10566000000E+00 0.  1.
     999900   -1    0    0    0    0 -0.00000000000E+00 -0.00000000000E+00 -0.74505805969E-08  0.93827000000E+00  0.93827000000E+00 0. -1.
     999902    2    1    2    0    0  0.90786220246E-02 -0.15044213455E-01 -0.16006197235E-01  0.10201613634E+01  0.10198844343E+01 0.  0.
     999903    2    3    3    0    0  0.28526846262E-01 -0.72170756045E-01 -0.10677148265E+00  0.13343704753E+00  0.19567758186E-01 0.  0.
         14    1    1    2    0    0 -0.90786220246E-02  0.15044213455E-01  0.16006197235E-01  0.23768636610E-01  0.00000000000E+00 0.  1.
     999901    1    3    3    0    0 -0.19448224238E-01  0.57126542590E-01  0.90765285419E-01  0.88672431586E+00  0.88000000000E+00 0.  1.
        -11    1    4    4    0    0  0.30316617176E-01 -0.58376087689E-01 -0.83208384638E-01  0.10606960585E+00  0.51100000000E-03 0. -1.
         11    1    4    4    0    0 -0.17897709135E-02 -0.13794668357E-01 -0.23563098016E-01  0.27367441680E-01  0.51100000000E-03 0.  1.
</event>
<event>
 8    1  0.1075206E+005  0.1043930E+01  0.7957747E-01            NaN
         13   -1    0    0    0    0  0.00000000000E+00  0.00000000000E+00  0.74505805969E-08  0.10566000000E+00  0.10566000000E+00 0. -1.
     999900   -1    0    0    0    0 -0.00000000000E+00 -0.00000000000E+00 -0.74505805969E-08  0.93827000000E+00  0.93827000000E+00 0.  1.
     999902    2    1    2    0    0  0.55813438203E-02  0.24300788970E-01  0.29733684004E-02  0.10188198295E+01  0.10185103457E+01 0.  0.
     999903    2    3    3    0    0  0.10999252895E+00 -0.44529758706E-01  0.45858715105E-01  0.12894428042E+00  0.21032115123E-01 0.  0.
         14    1    1    2    0    0 -0.55813438203E-02 -0.24300788970E-01 -0.29733684004E-02  0.25110170511E-01  0.00000000000E+00 0.  1.
     999901    1    3    3    0    0 -0.10441118513E+00  0.68830547676E-01 -0.42885346704E-01  0.88987554907E+00  0.88000000000E+00 0.  1.
        -11    1    4    4    0    0  0.39156667744E-01 -0.21634244987E-01  0.26594745559E-01  0.52046390819E-01  0.51100000000E-03 0. -1.
         11    1    4    4    0    0  0.70835861205E-01 -0.22895513719E-01  0.19263969545E-01  0.76897889599E-01  0.51100000000E-03 0.  1.
</event>
<event>
 8    1  0.1075206E+005  0.1043930E+01  0.7957747E-01            NaN
         13   -1    0    0    0    0  0.00000000000E+00  0.00000000000E+00  0.74505805969E-08  0.10566000000E+00  0.10566000000E+00 0.  1.
     999900   -1    0    0    0    0 -0.00000000000E+00 -0.00000000000E+00 -0.74505805969E-08  0.93827000000E+00  0.93827000000E+00 0. -1.
     999902    2    1    2    0    0 -0.19380071538E-01 -0.13132913054E-01 -0.12948074504E-02  0.10204835268E+01  0.10202141400E+01 0.  0.
     999903    2    3    3    0    0  0.10243070659E+00  0.25219426079E-01  0.70232105031E-01  0.12839335941E+00  0.20597015787E-01 0.  0.
         14    1    1    2    0    0  0.19380071538E-01  0.13132913054E-01  0.12948074504E-02  0.23446473177E-01  0.00000000000E+00 0. -1.
     999901    1    3    3    0    0 -0.12181077813E+00 -0.38352339133E-01 -0.71526912482E-01  0.89209016741E+00  0.88000000000E+00 0. -1.
        -11    1    4    4    0    0  0.85062630651E-01  0.17233143745E-01  0.48418587613E-01  0.99384370622E-01  0.51100000000E-03 0.  1.
         11    1    4    4    0    0  0.17368075939E-01  0.79862823343E-02  0.21813517418E-01  0.29008988788E-01  0.51100000000E-03 0. -1.
</event>
<event>
 8    1  0.1075206E+005  0.1043930E+01  0.7957747E-01            NaN
         13   -1    0    0    0    0  0.00000000000E+00  0.00000000000E+00  0.74505805969E-08  0.10566000000E+00  0.10566000000E+00 0.  1.
     999900   -1    0    0    0    0 -0.00000000000E+00 -0.00000000000E+00 -0.74505805969E-08  0.93827000000E+00  0.93827000000E+00 0.  1.
     999902    2    1    2    0    0  0.20237050244E-01 -0.11805202196E-01  0.79870345593E-03  0.10204877533E+01  0.10202184647E+01 0.  0.
     999903    2    3    3    0    0 -0.10210153474E+00 -0.22274423356E-02  0.75860447492E-01  0.12880803041E+00  0.20174645181E-01 0.  0.
         14    1    1    2    0    0 -0.20237050244E-01  0.11805202196E-01 -0.79870345593E-03  0.23442246664E-01  0.00000000000E+00 0. -1.
     999901    1    3    3    0    0  0.12233858499E+00 -0.95777598602E-02 -0.75061744036E-01  0.89167972293E+00  0.88000000000E+00 0.  1.
        -11    1    4    4    0    0 -0.41305781443E-01  0.65336204576E-02  0.22773964513E-01  0.47621112519E-01  0.51100000000E-03 0. -1.
         11    1    4    4    0    0 -0.60795753299E-01 -0.87610627931E-02  0.53086482979E-01  0.81186917890E-01  0.51100000000E-03 0.  1.
</event>
<event>
 8    1  0.1075206E+005  0.1043930E+01  0.7957747E-01            NaN
         13   -1    0    0    0    0  0.00000000000E+00  0.00000000000E+00  0.74505805969E-08  0.10566000000E+00  0.10566000000E+00 0. -1.
     999900   -1    0    0    0    0 -0.00000000000E+00 -0.00000000000E+00 -0.74505805969E-08  0.93827000000E+00  0.93827000000E+00 0. -1.
     999902    2    1    2    0    0  0.52269966979E-03  0.24981305380E-01  0.34506446874E-02  0.10187060871E+01  0.10183937579E+01 0.  0.
     999903    2    3    3    0    0 -0.56589530899E-01  0.10762141973E+00  0.47061147030E-01  0.13191802262E+00  0.20071575422E-01 0.  0.
         14    1    1    2    0    0 -0.52269966979E-03 -0.24981305380E-01 -0.34506446874E-02  0.25223912904E-01  0.00000000000E+00 0. -1.
     999901    1    3    3    0    0  0.57112230569E-01 -0.82640114352E-01 -0.43610502343E-01  0.88678806447E+00  0.88000000000E+00 0. -1.
        -11    1    4    4    0    0 -0.25522626209E-02  0.18816965864E-01  0.40850867597E-02  0.19430422117E-01  0.51100000000E-03 0. -1.
         11    1    4    4    0    0 -0.54037268278E-01  0.88804453869E-01  0.42976060270E-01  0.11248760050E+00  0.51100000000E-03 0.  1.
</event>
<event>
 8    1  0.1075206E+005  0.1043930E+01  0.7957747E-01            NaN
         13   -1    0    0    0    0  0.00000000000E+00  0.00000000000E+00  0.74505805969E-08  0.10566000000E+00  0.10566000000E+00 0. -1.
     999900   -1    0    0    0    0 -0.00000000000E+00 -0.00000000000E+00 -0.74505805969E-08  0.93827000000E+00  0.93827000000E+00 0. -1.
     999902    2    1    2    0    0  0.18067322318E-01 -0.13164967350E-01  0.61106381052E-02  0.10207549186E+01  0.10204918027E+01 0.  0.
     999903    2    3    3    0    0  0.14930743044E-02 -0.13108707169E+00 -0.27506006370E-02  0.13269025317E+00  0.20324562667E-01 0.  0.
         14    1    1    2    0    0 -0.18067322318E-01  0.13164967350E-01 -0.61106381052E-02  0.23175081427E-01  0.00000000000E+00 0.  1.
     999901    1    3    3    0    0  0.16574248014E-01  0.11792210434E+00  0.88612387422E-02  0.88806466540E+00  0.88000000000E+00 0. -1.
        -11    1    4    4    0    0 -0.28102128590E-02 -0.72289670372E-01  0.79102907505E-02  0.72777246166E-01  0.51100000000E-03 0. -1.
         11    1    4    4    0    0  0.43032871634E-02 -0.58797401315E-01 -0.10660891387E-01  0.59913007002E-01  0.51100000000E-03 0.  1.
</event>
<event>
 8    1  0.1075206E+005  0.1043930E+01  0.7957747E-01            NaN
         13   -1    0    0    0    0  0.00000000000E+00  0.00000000000E+00  0.74505805969E-08  0.10566000000E+00  0.10566000000E+00 0. -1.
     999900   -1    0    0    0    0 -0.00000000000E+00 -0.00000000000E+00 -0.74505805969E-08  0.93827000000E+00  0.93827000000E+00 0.  1.
     999902    2    1    2    0    0 -0.13498409071E-01 -0.87938366819E-02 -0.17448651872E-01  0.10201814408E+01  0.10199049849E+01 0.  0.
     999903    2    3    3    0    0 -0.10556719484E+00  0.50486293886E-01  0.54816591962E-01  0.13045504430E+00  0.17898640536E-01 0.  0.
         14    1    1    2    0    0  0.13498409071E-01  0.87938366819E-02  0.17448651872E-01  0.23748559182E-01  0.00000000000E+00 0. -1.
     999901    1    3    3    0    0  0.92068785766E-01 -0.59280130568E-01 -0.72265243834E-01  0.88972639652E+00  0.88000000000E+00 0.  1.
        -11    1    4    4    0    0 -0.24141537263E-01  0.90071567573E-02  0.45878622598E-02  0.26177324069E-01  0.51100000000E-03 0.  1.
         11    1    4    4    0    0 -0.81425657575E-01  0.41479137129E-01  0.50228729702E-01  0.10427772023E+00  0.51100000000E-03 0. -1.
</event>
<event>
 8    1  0.1075206E+005  0.1043930E+01  0.7957747E-01            NaN
         13   -1    0    0    0    0  0.00000000000E+00  0.00000000000E+00  0.74505805969E-08  0.10566000000E+00  0.10566000000E+00 0. -1.
     999900   -1    0    0    0    0 -0.00000000000E+00 -0.00000000000E+00 -0.74505805969E-08  0.93827000000E+00  0.93827000000E+00 0. -1.
     999902    2    1    2    0    0 -0.18940623061E-01 -0.13425823416E-01 -0.31379489918E-02  0.10205025234E+01  0.10202335780E+01 0.  0.
     999903    2    3    3    0    0 -0.49123593079E-01  0.10402975702E+00 -0.58165899511E-01  0.13048291665E+00  0.20179245001E-01 0.  0.
         14    1    1    2    0    0  0.18940623061E-01  0.13425823416E-01  0.31379489918E-02  0.23427476608E-01  0.00000000000E+00 0. -1.
     999901    1    3    3    0    0  0.30182970019E-01 -0.11745558043E+00  0.55027950519E-01  0.89001960675E+00  0.88000000000E+00 0. -1.
        -11    1    4    4    0    0 -0.28694044840E-01  0.69211374525E-01 -0.27609613277E-01  0.79850575698E-01  0.51100000000E-03 0. -1.
         11    1    4    4    0    0 -0.20429548240E-01  0.34818382491E-01 -0.30556286234E-01  0.50632340949E-01  0.51100000000E-03 0.  1.
</event>
<event>
 8    1  0.1075206E+005  0.1043930E+01  0.7957747E-01            NaN
         13   -1    0    0    0    0  0.00000000000E+00  0.00000000000E+00  0.74505805969E-08  0.10566000000E+00  0.10566000000E+00 0. -1.
     999900   -1    0    0    0    0 -0.00000000000E+00 -0.00000000000E+00 -0.74505805969E-08  0.93827000000E+00  0.93827000000E+00 0. -1.
     999902    2    1    2    0    0 -0.18862989369E-01 -0.98446322048E-02  0.15600711481E-01  0.10175460778E+01  0.10172039663E+01 0.  0.
     999903    2    3    3    0    0 -0.59163437716E-02 -0.26421897285E-01  0.12602639520E+00  0.13039544068E+00  0.19677369797E-01 0.  0.
         14    1    1    2    0    0  0.18862989369E-01  0.98446322048E-02 -0.15600711481E-01  0.26383922185E-01  0.00000000000E+00 0.  1.
     999901    1    3    3    0    0 -0.12946645597E-01  0.16577265080E-01 -0.11042568372E+00  0.88715063714E+00  0.88000000000E+00 0. -1.
        -11    1    4    4    0    0  0.18696646798E-02 -0.22542280198E-01  0.10835907973E+00  0.11069598604E+00  0.51100000000E-03 0.  1.
         11    1    4    4    0    0 -0.77860084514E-02 -0.38796170862E-02  0.17667315466E-01  0.19699454640E-01  0.51100000000E-03 0. -1.
</event>
<event>
 8    1  0.1075206E+005  0.1043930E+01  0.7957747E-01            NaN
         13   -1    0    0    0    0  0.00000000000E+00  0.00000000000E+00  0.74505805969E-08  0.10566000000E+00  0.10566000000E+00 0.  1.
     999900   -1    0    0    0    0 -0.00000000000E+00 -0.00000000000E+00 -0.74505805969E-08  0.93827000000E+00  0.93827000000E+00 0. -1.
     999902    2    1    2    0    0 -0.47057049970E-02 -0.13642076803E-01  0.18520131854E-01  0.10204513884E+01  0.10201812539E+01 0.  0.
     999903    2    3    3    0    0  0.12618357035E+00 -0.98419414136E-02 -0.20540077398E-01  0.12990540790E+00  0.20841376736E-01 0.  0.
         14    1    1    2    0    0  0.47057049970E-02  0.13642076803E-01 -0.18520131854E-01  0.23478611605E-01  0.00000000000E+00 0. -1.
     999901    1    3    3    0    0 -0.13088927535E+00 -0.38001353896E-02  0.39060209251E-01  0.89054598050E+00  0.88000000000E+00 0.  1.
        -11    1    4    4    0    0  0.27607914836E-01 -0.10874076244E-01 -0.55105009575E-02  0.30183923495E-01  0.51100000000E-03 0.  1.
         11    1    4    4    0    0  0.98575655517E-01  0.10321348301E-02 -0.15029576440E-01  0.99721484404E-01  0.51100000000E-03 0. -1.
</event>
<event>
 8    1  0.1075206E+005  0.1043930E+01  0.7957747E-01            NaN
         13   -1    0    0    0    0  0.00000000000E+00  0.00000000000E+00  0.74505805969E-08  0.10566000000E+00  0.10566000000E+00 0.  1.
     999900   -1    0    0    0    0 -0.00000000000E+00 -0.00000000000E+00 -0.74505805969E-08  0.93827000000E+00  0.93827000000E+00 0. -1.
     999902    2    1    2    0    0 -0.12967478680E-01  0.16774911096E-02  0.22091334889E-01  0.10182590718E+01  0.10179354305E+01 0.  0.
     999903    2    3    3    0    0 -0.21652134784E-02  0.39850647787E-01 -0.11845723660E+00  0.12622332148E+00  0.17534186722E-01 0.  0.
         14    1    1    2    0    0  0.12967478680E-01 -0.16774911096E-02 -0.22091334889E-01  0.25670928244E-01  0.00000000000E+00 0. -1.
     999901    1    3    3    0    0 -0.10802265202E-01 -0.38173156677E-01  0.14054857149E+00  0.89203575028E+00  0.88000000000E+00 0.  1.
        -11    1    4    4    0    0  0.35641752215E-02  0.24649090794E-01 -0.90688752110E-01  0.94047817106E-01  0.51100000000E-03 0.  1.
         11    1    4    4    0    0 -0.57293886998E-02  0.15201556992E-01 -0.27768484489E-01  0.32175504373E-01  0.51100000000E-03 0. -1.
</event>
<event>
 8    1  0.1075206E+005  0.1043930E+01  0.7957747E-01            NaN
         13   -1    0    0    0    0  0.00000000000E+00  0.00000000000E+00  0.74505805969E-08  0.10566000000E+00  0.10566000000E+00 0. -1.
     999900   -1    0    0    0    0 -0.00000000000E+00 -0.00000000000E+00 -0.74505805969E-08  0.93827000000E+00  0.93827000000E+00 0.  1.
     999902    2    1    2    0    0  0.15399395829E-01  0.17574611345E-01 -0.21464967187E-02  0.10204647959E+01  0.10201949734E+01 0.  0.
     999903    2    3    3    0    0  0.32218881844E-01  0.32745294727E-01  0.12111111925E+00  0.13158601639E+00  0.23166049066E-01 0.  0.
         14    1    1    2    0    0 -0.15399395829E-01 -0.17574611345E-01  0.21464967187E-02  0.23465204111E-01  0.00000000000E+00 0.  1.
     999901    1    3    3    0    0 -0.16819486015E-01 -0.15170683382E-01 -0.12325761597E+00  0.88887877950E+00  0.88000000000E+00 0.  1.
        -11    1    4    4    0    0  0.33740588899E-01  0.22883567867E-01  0.10487820102E+00  0.11252458926E+00  0.51100000000E-03 0. -1.
         11    1    4    4    0    0 -0.15217070558E-02  0.98617268599E-02  0.16232918232E-01  0.19061427133E-01  0.51100000000E-03 0.  1.
</event>
<event>
 8    1  0.1075206E+005  0.1043930E+01  0.7957747E-01            NaN
         13   -1    0    0    0    0  0.00000000000E+00  0.00000000000E+00  0.74505805969E-08  0.10566000000E+00  0.10566000000E+00 0. -1.
     999900   -1    0    0    0    0 -0.00000000000E+00 -0.00000000000E+00 -0.74505805969E-08  0.93827000000E+00  0.93827000000E+00 0. -1.
     999902    2    1    2    0    0  0.83545008728E-02 -0.13512244229E-02  0.22600620817E-01  0.10197967956E+01  0.10195112029E+01 0.  0.
     999903    2    3    3    0    0  0.11552462502E+00 -0.52187232026E-01 -0.23226408864E-01  0.13065684498E+00  0.21501137149E-01 0.  0.
         14    1    1    2    0    0 -0.83545008728E-02  0.13512244229E-02 -0.22600620817E-01  0.24133204379E-01  0.00000000000E+00 0.  1.
     999901    1    3    3    0    0 -0.10717012415E+00  0.50836007603E-01  0.45827029681E-01  0.88913995064E+00  0.88000000000E+00 0.  1.
        -11    1    4    4    0    0  0.73091722129E-01 -0.44049068448E-01 -0.14172640546E-01  0.86509219948E-01  0.51100000000E-03 0. -1.
         11    1    4    4    0    0  0.42432902890E-01 -0.81381635777E-02 -0.90537683177E-02  0.44147625031E-01  0.51100000000E-03 0.  1.
</event>
<event>
 8    1  0.1075206E+005  0.1043930E+01  0.7957747E-01            NaN
         13   -1    0    0    0    0  0.00000000000E+00  0.00000000000E+00  0.74505805969E-08  0.10566000000E+00  0.10566000000E+00 0. -1.
     999900   -1    0    0    0    0 -0.00000000000E+00 -0.00000000000E+00 -0.74505805969E-08  0.93827000000E+00  0.93827000000E+00 0.  1.
     999902    2    1    2    0    0 -0.16564816611E-01 -0.87155530825E-02 -0.14989588922E-01  0.10199499710E+01  0.10196680350E+01 0.  0.
     999903    2    3    3    0    0 -0.27878370056E-01 -0.92818374936E-01 -0.88513847090E-01  0.13281576600E+00  0.20319260059E-01 0.  0.
         14    1    1    2    0    0  0.16564816611E-01  0.87155530825E-02  0.14989588922E-01  0.23980029002E-01  0.00000000000E+00 0. -1.
     999901    1    3    3    0    0  0.11313553445E-01  0.84102821853E-01  0.73524258169E-01  0.88713420500E+00  0.88000000000E+00 0. -1.
        -11    1    4    4    0    0 -0.89011034026E-02 -0.53744524517E-01 -0.39319947094E-01  0.67186478683E-01  0.51100000000E-03 0.  1.
         11    1    4    4    0    0 -0.18977266654E-01 -0.39073850418E-01 -0.49193899996E-01  0.65629287319E-01  0.51100000000E-03 0. -1.
</event>
<event>
 8    1  0.1075206E+005  0.1043930E+01  0.7957747E-01            NaN
         13   -1    0    0    0    0  0.00000000000E+00  0.00000000000E+00  0.74505805969E-08  0.10566000000E+00  0.10566000000E+00 0.  1.
     999900   -1    0    0    0    0 -0.00000000000E+00 -0.00000000000E+00 -0.74505805969E-08  0.93827000000E+00  0.93827000000E+00 0. -1.
     999902    2    1    2    0    0  0.16793549929E-01 -0.13172162230E-01  0.95433220723E-02  0.10205504326E+01  0.10202825987E+01 0.  0.
     999903    2    3    3    0    0 -0.29516321461E-01 -0.11760073151E+00  0.49050579791E-01  0.13228765969E+00  0.19822215951E-01 0.  0.
         14    1    1    2    0    0 -0.16793549929E-01  0.13172162230E-01 -0.95433220723E-02  0.23379567429E-01  0.00000000000E+00 0.  1.
     999901    1    3    3    0    0  0.46309871389E-01  0.10442856928E+00 -0.39507257718E-01  0.88826277288E+00  0.88000000000E+00 0. -1.
        -11    1    4    4    0    0 -0.20522810148E-01 -0.44969711184E-01  0.23816528996E-01  0.54872113453E-01  0.51100000000E-03 0. -1.
         11    1    4    4    0    0 -0.89935113124E-02 -0.72631020323E-01  0.25234050795E-01  0.77415546239E-01  0.51100000000E-03 0.  1.
</event>
<event>
 8    1  0.1075206E+005  0.1043930E+01  0.7957747E-01            NaN
         13   -1    0    0    0    0  0.00000000000E+00  0.00000000000E+00  0.74505805969E-08  0.10566000000E+00  0.10566000000E+00 0.  1.
     999900   -1    0    0    0    0 -0.00000000000E+00 -0.00000000000E+00 -0.74505805969E-08  0.93827000000E+00  0.93827000000E+00 0.  1.
     999902    2    1    2    0    0 -0.50622851746E-02  0.50529780107E-03 -0.22173311448E-01  0.10211805429E+01  0.10209271098E+01 0.  0.
     999903    2    3    3    0    0 -0.48155005144E-01 -0.10455534776E+00 -0.63238314600E-01  0.13293448678E+00  0.20536992879E-01 0.  0.
         14    1    1    2    0    0  0.50622851746E-02 -0.50529780107E-03  0.22173311448E-01  0.22749457084E-01  0.00000000000E+00 0.  1.
     999901    1    3    3    0    0  0.43092719970E-01  0.10506064556E+00  0.41065003151E-01  0.88824605614E+00  0.88000000000E+00 0. -1.
        -11    1    4    4    0    0 -0.30361741860E-01 -0.41590510750E-01 -0.27657112483E-01  0.58453254359E-01  0.51100000000E-03 0.  1.
         11    1    4    4    0    0 -0.17793263284E-01 -0.62964837008E-01 -0.35581202116E-01  0.74481232419E-01  0.51100000000E-03 0. -1.
</event>
<event>
 8    1  0.1075206E+005  0.1043930E+01  0.7957747E-01            NaN
         13   -1    0    0    0    0  0.00000000000E+00  0.00000000000E+00  0.74505805969E-08  0.10566000000E+00  0.10566000000E+00 0. -1.
     999900   -1    0    0    0    0 -0.00000000000E+00 -0.00000000000E+00 -0.74505805969E-08  0.93827000000E+00  0.93827000000E+00 0.  1.
     999902    2    1    2    0    0 -0.16790276931E-01 -0.10871532965E-01  0.70335506764E-02  0.10227268289E+01  0.10225070132E+01 0.  0.
     999903    2    3    3    0    0 -0.40218986585E-01  0.68208873595E-01  0.10551807709E+00  0.13340022015E+00  0.19787289472E-01 0.  0.
         14    1    1    2    0    0  0.16790276931E-01  0.10871532965E-01 -0.70335506764E-02  0.21203171073E-01  0.00000000000E+00 0. -1.
     999901    1    3    3    0    0  0.23428709654E-01 -0.79080406560E-01 -0.98484526411E-01  0.88932660878E+00  0.88000000000E+00 0.  1.
        -11    1    4    4    0    0 -0.26755145040E-01  0.30801494168E-01  0.42729689144E-01  0.59081784709E-01  0.51100000000E-03 0. -1.
         11    1    4    4    0    0 -0.13463841545E-01  0.37407379427E-01  0.62788387943E-01  0.74318435440E-01  0.51100000000E-03 0.  1.
</event>
<event>
 8    1  0.1075206E+005  0.1043930E+01  0.7957747E-01            NaN
         13   -1    0    0    0    0  0.00000000000E+00  0.00000000000E+00  0.74505805969E-08  0.10566000000E+00  0.10566000000E+00 0.  1.
     999900   -1    0    0    0    0 -0.00000000000E+00 -0.00000000000E+00 -0.74505805969E-08  0.93827000000E+00  0.93827000000E+00 0. -1.
     999902    2    1    2    0    0 -0.22558532816E-01 -0.25310086278E-02 -0.62259391186E-02  0.10203916117E+01  0.10201200838E+01 0.  0.
     999903    2    3    3    0    0  0.48782877102E-01 -0.93700632562E-01 -0.73201147545E-01  0.13028646302E+00  0.21367657901E-01 0.  0.
         14    1    1    2    0    0  0.22558532816E-01  0.25310086278E-02  0.62259391186E-02  0.23538388334E-01  0.00000000000E+00 0. -1.
     999901    1    3    3    0    0 -0.71341409918E-01  0.91169623934E-01  0.66975208426E-01  0.89010514864E+00  0.88000000000E+00 0.  1.
        -11    1    4    4    0    0  0.28897173384E-01 -0.65175757549E-01 -0.37945281449E-01  0.80765286521E-01  0.51100000000E-03 0.  1.
         11    1    4    4    0    0  0.19885703718E-01 -0.28524875013E-01 -0.35255866096E-01  0.49521176501E-01  0.51100000000E-03 0. -1.
</event>
<event>
 8    1  0.1075206E+005  0.1043930E+01  0.7957747E-01            NaN
         13   -1    0    0    0    0  0.00000000000E+00  0.00000000000E+00  0.74505805969E-08  0.10566000000E+00  0.10566000000E+00 0.  1.
     999900   -1    0    0    0    0 -0.00000000000E+00 -0.00000000000E+00 -0.74505805969E-08  0.93827000000E+00  0.93827000000E+00 0.  1.
     999902    2    1    2    0    0 -0.76248317448E-03 -0.18563068352E-02  0.22306512491E-01  0.10215333986E+01  0.10212878520E+01 0.  0.
     999903    2    3    3    0    0  0.11795408865E+00 -0.42532435363E-03  0.57692987729E-01  0.13285579969E+00  0.20219662419E-01 0.  0.
         14    1    1    2    0    0  0.76248317448E-03  0.18563068352E-02 -0.22306512491E-01  0.22396601420E-01  0.00000000000E+00 0. -1.
     999901    1    3    3    0    0 -0.11871657183E+00 -0.14309824816E-02 -0.35386475238E-01  0.88867759889E+00  0.88000000000E+00 0.  1.
        -11    1    4    4    0    0  0.77759683604E-01 -0.84692107959E-02  0.43312367645E-01  0.89412069866E-01  0.51100000000E-03 0.  1.
         11    1    4    4    0    0  0.40194405046E-01  0.80438864422E-02  0.14380620084E-01  0.43443729825E-01  0.51100000000E-03 0. -1.
</event>
<event>
 8    1  0.1075206E+005  0.1043930E+01  0.7957747E-01            NaN
         13   -1    0    0    0    0  0.00000000000E+00  0.00000000000E+00  0.74505805969E-08  0.10566000000E+00  0.10566000000E+00 0. -1.
     999900   -1    0    0    0    0 -0.00000000000E+00 -0.00000000000E+00 -0.74505805969E-08  0.93827000000E+00  0.93827000000E+00 0.  1.
     999902    2    1    2    0    0  0.93898144234E-02 -0.10436956932E-01  0.19637264293E-01  0.10197903887E+01  0.10195046425E+01 0.  0.
     999903    2    3    3    0    0 -0.63530007332E-01  0.10539060301E+00 -0.28407110029E-01  0.12791506896E+00  0.20299259417E-01 0.  0.
         14    1    1    2    0    0 -0.93898144234E-02  0.10436956932E-01 -0.19637264293E-01  0.24139611302E-01  0.00000000000E+00 0.  1.
     999901    1    3    3    0    0  0.72919821755E-01 -0.11582755994E+00  0.48044374322E-01  0.89187531973E+00  0.88000000000E+00 0. -1.
        -11    1    4    4    0    0 -0.29095941121E-01  0.30944175102E-01 -0.13285017898E-01  0.44506949840E-01  0.51100000000E-03 0.  1.
         11    1    4    4    0    0 -0.34434066211E-01  0.74446427910E-01 -0.15122092131E-01  0.83408119124E-01  0.51100000000E-03 0. -1.
</event>
<event>
 8    1  0.1075206E+005  0.1043930E+01  0.7957747E-01            NaN
         13   -1    0    0    0    0  0.00000000000E+00  0.00000000000E+00  0.74505805969E-08  0.10566000000E+00  0.10566000000E+00 0. -1.
     999900   -1    0    0    0    0 -0.00000000000E+00 -0.00000000000E+00 -0.74505805969E-08  0.93827000000E+00  0.93827000000E+00 0.  1.
     999902    2    1    2    0    0  0.19962801235E-01 -0.69788442464E-03  0.10153295218E-01  0.10215226378E+01  0.10212768526E+01 0.  0.
     999903    2    3    3    0    0 -0.62922688031E-01  0.99651695281E-01  0.53892485883E-01  0.13087503115E+00  0.18279734749E-01 0.  0.
         14    1    1    2    0    0 -0.19962801235E-01  0.69788442464E-03 -0.10153295218E-01  0.22407362174E-01  0.00000000000E+00 0. -1.
     999901    1    3    3    0    0  0.82885489265E-01 -0.10034957971E+00 -0.43739190665E-01  0.89064760668E+00  0.88000000000E+00 0.  1.
        -11    1    4    4    0    0 -0.32299041490E-01  0.62584623450E-01  0.39163838416E-01  0.80586168379E-01  0.51100000000E-03 0.  1.
         11    1    4    4    0    0 -0.30623646541E-01  0.37067071831E-01  0.14728647466E-01  0.50288862771E-01  0.51100000000E-03 0. -1.
</event>
<event>
 8    1  0.1075206E+005  0.1043930E+01  0.7957747E-01            NaN
         13   -1    0    0    0    0  0.00000000000E+00  0.00000000000E+00  0.74505805969E-08  0.10566000000E+00  0.10566000000E+00 0. -1.
     999900   -1    0    0    0    0 -0.00000000000E+00 -0.00000000000E+00 -0.74505805969E-08  0.93827000000E+00  0.93827000000E+00 0.  1.
     999902    2    1    2    0    0 -0.22545236189E-01 -0.96374139832E-03  0.36885529411E-02  0.10210647011E+01  0.10208086510E+01 0.  0.
     999903    2    3    3    0    0  0.62142678941E-01 -0.10367734211E+00 -0.42635139276E-01  0.12984754953E+00  0.20782858460E-01 0.  0.
         14    1    1    2    0    0  0.22545236189E-01  0.96374139832E-03 -0.36885529411E-02  0.22865298929E-01  0.00000000000E+00 0.  1.
     999901    1    3    3    0    0 -0.84687915130E-01  0.10271360071E+00  0.46323692217E-01  0.89121715154E+00  0.88000000000E+00 0.  1.
        -11    1    4    4    0    0  0.15787976430E-01 -0.30614083242E-01 -0.22056643010E-01  0.40905243116E-01  0.51100000000E-03 0. -1.
         11    1    4    4    0    0  0.46354702511E-01 -0.73063258865E-01 -0.20578496266E-01  0.88942306415E-01  0.51100000000E-03 0.  1.
</event>
<event>
 8    1  0.1075206E+005  0.1043930E+01  0.7957747E-01            NaN
         13   -1    0    0    0    0  0.00000000000E+00  0.00000000000E+00  0.74505805969E-08  0.10566000000E+00  0.10566000000E+00 0.  1.
     999900   -1    0    0    0    0 -0.00000000000E+00 -0.00000000000E+00 -0.74505805969E-08  0.93827000000E+00  0.93827000000E+00 0. -1.
     999902    2    1    2    0    0  0.18164039480E-01  0.13887814621E-01  0.23726666697E-02  0.10209423235E+01  0.10206834938E+01 0.  0.
     999903    2    3    3    0    0 -0.87352777193E-01 -0.77117566483E-01  0.50725427230E-01  0.12866783238E+00  0.20117539076E-01 0.  0.
         14    1    1    2    0    0 -0.18164039480E-01 -0.13887814621E-01 -0.23726666697E-02  0.22987676532E-01  0.00000000000E+00 0.  1.
     999901    1    3    3    0    0  0.10551681667E+00  0.91005381104E-01 -0.48352760560E-01  0.89227449109E+00  0.88000000000E+00 0. -1.
        -11    1    4    4    0    0 -0.16435640616E-01 -0.60560415776E-02  0.11053597561E-01  0.20718326721E-01  0.51100000000E-03 0. -1.
         11    1    4    4    0    0 -0.70917136577E-01 -0.71061524905E-01  0.39671829669E-01  0.10794950566E+00  0.51100000000E-03 0.  1.
</event>
<event>
 8    1  0.1075206E+005  0.1043930E+01  0.7957747E-01            NaN
         13   -1    0    0    0    0  0.00000000000E+00  0.00000000000E+00  0.74505805969E-08  0.10566000000E+00  0.10566000000E+00 0. -1.
     999900   -1    0    0    0    0 -0.00000000000E+00 -0.00000000000E+00 -0.74505805969E-08  0.93827000000E+00  0.93827000000E+00 0. -1.
     999902    2    1    2    0    0  0.21395781182E-01 -0.46914220062E-02  0.83528557519E-03  0.10220099956E+01  0.10217748991E+01 0.  0.
     999903    2    3    3    0    0 -0.45772407863E-01  0.68046790966E-02  0.12112831907E+00  0.13121588923E+00  0.20102808905E-01 0.  0.
         14    1    1    2    0    0 -0.21395781182E-01  0.46914220062E-02 -0.83528557519E-03  0.21920004444E-01  0.00000000000E+00 0.  1.
     999901    1    3    3    0    0  0.67168189045E-01 -0.11496101103E-01 -0.12029303350E+00  0.89079410633E+00  0.88000000000E+00 0. -1.
        -11    1    4    4    0    0 -0.54225805352E-02  0.66859682247E-02  0.35840445726E-01  0.36863331668E-01  0.51100000000E-03 0. -1.
         11    1    4    4    0    0 -0.40349827328E-01  0.11871087191E-03  0.85287873345E-01  0.94352557561E-01  0.51100000000E-03 0.  1.
</event>
<event>
 8    1  0.1075206E+005  0.1043930E+01  0.7957747E-01            NaN
         13   -1    0    0    0    0  0.00000000000E+00  0.00000000000E+00  0.74505805969E-08  0.10566000000E+00  0.10566000000E+00 0.  1.
     999900   -1    0    0    0    0 -0.00000000000E+00 -0.00000000000E+00 -0.74505805969E-08  0.93827000000E+00  0.93827000000E+00 0.  1.
     999902    2    1    2    0    0  0.76628378439E-02  0.21085517204E-01 -0.79404700443E-02  0.10201314878E+01  0.10198538538E+01 0.  0.
     999903    2    3    3    0    0  0.10110456270E+00 -0.76374757245E-01  0.18209492405E-01  0.12944990518E+00  0.19247238642E-01 0.  0.
         14    1    1    2    0    0 -0.76628378439E-02 -0.21085517204E-01  0.79404700443E-02  0.23798512225E-01  0.00000000000E+00 0.  1.
     999901    1    3    3    0    0 -0.93441724851E-01  0.97460274449E-01 -0.26149962450E-01  0.89068158260E+00  0.88000000000E+00 0. -1.
        -11    1    4    4    0    0  0.37499825490E-01 -0.35036902721E-01 -0.46645675812E-03  0.51325433919E-01  0.51100000000E-03 0. -1.
         11    1    4    4    0    0  0.63604737205E-01 -0.41337854524E-01  0.18675949163E-01  0.78124471261E-01  0.51100000000E-03 0.  1.
</event>
<event>
 8    1  0.1075206E+005  0.1043930E+01  0.7957747E-01            NaN
         13   -1    0    0    0    0  0.00000000000E+00  0.00000000000E+00  0.74505805969E-08  0.10566000000E+00  0.10566000000E+00 0.  1.
     999900   -1    0    0    0    0 -0.00000000000E+00 -0.00000000000E+00 -0.74505805969E-08  0.93827000000E+00  0.93827000000E+00 0.  1.
     999902    2    1    2    0    0  0.14250982953E-01 -0.98224033050E-02 -0.18531873010E-02  0.10265229777E+01  0.10263753794E+01 0.  0.
     999903    2    3    3    0    0 -0.12945038576E+00  0.28634477314E-01 -0.34139720872E-02  0.13403687077E+00  0.19413702754E-01 0.  0.
         14    1    1    2    0    0 -0.14250982953E-01  0.98224033050E-02  0.18531873010E-02  0.17407022289E-01  0.00000000000E+00 0.  1.
     999901    1    3    3    0    0  0.14370136872E+00 -0.38456880619E-01  0.15607847861E-02  0.89248610694E+00  0.88000000000E+00 0.  1.
        -11    1    4    4    0    0 -0.76559929454E-01  0.17645845355E-01  0.74902231602E-02  0.78925048117E-01  0.51100000000E-03 0.  1.
         11    1    4    4    0    0 -0.52890456309E-01  0.10988631958E-01 -0.10904195247E-01  0.55111822651E-01  0.51100000000E-03 0. -1.
</event>
<event>
 8    1  0.1075206E+005  0.1043930E+01  0.7957747E-01            NaN
         13   -1    0    0    0    0  0.00000000000E+00  0.00000000000E+00  0.74505805969E-08  0.10566000000E+00  0.10566000000E+00 0.  1.
     999900   -1    0    0    0    0 -0.00000000000E+00 -0.00000000000E+00 -0.74505805969E-08  0.93827000000E+00  0.93827000000E+00 0. -1.
     999902    2    1    2    0    0 -0.15380354043E-01  0.10668609827E-01  0.14625226036E-01  0.10201755949E+01  0.10198990012E+01 0.  0.
     999903    2    3    3    0    0  0.86399680615E-01  0.83603749774E-01  0.47168313909E-01  0.13071634192E+00  0.20184658099E-01 0.  0.
         14    1    1    2    0    0  0.15380354043E-01 -0.10668609827E-01 -0.14625226036E-01  0.23754405123E-01  0.00000000000E+00 0. -1.
     999901    1    3    3    0    0 -0.10178003466E+00 -0.72935139947E-01 -0.32543087873E-01  0.88945925295E+00  0.88000000000E+00 0. -1.
        -11    1    4    4    0    0  0.67478938173E-01  0.73296426658E-01  0.33122006911E-01  0.10499096019E+00  0.51100000000E-03 0. -1.
         11    1    4    4    0    0  0.18920742442E-01  0.10307323116E-01  0.14046306998E-01  0.25725381740E-01  0.51100000000E-03 0.  1.
</event>
<event>
 8    1  0.1075206E+005  0.1043930E+01  0.7957747E-01            NaN
         13   -1    0    0    0    0  0.00000000000E+00  0.00000000000E+00  0.74505805969E-08  0.10566000000E+00  0.10566000000E+00 0. -1.
     999900   -1    0    0    0    0 -0.00000000000E+00 -0.00000000000E+00 -0.74505805969E-08  0.93827000000E+00  0.93827000000E+00 0. -1.
     999902    2    1    2    0    0  0.11032334912E-01 -0.18364085659E-01  0.10085171429E-01  0.10202516821E+01  0.10199768782E+01 0.  0.
     999903    2    3    3    0    0 -0.16978101569E-02  0.76032250193E-01 -0.10136642066E+00  0.12812266554E+00  0.18880692738E-01 0.  0.
         14    1    1    2    0    0 -0.11032334912E-01  0.18364085659E-01 -0.10085171429E-01  0.23678317897E-01  0.00000000000E+00 0.  1.
     999901    1    3    3    0    0  0.12730145069E-01 -0.94396335852E-01  0.11145159209E+00  0.89212901656E+00  0.88000000000E+00 0.  1.
        -11    1    4    4    0    0 -0.78948125969E-02  0.27265949951E-01 -0.46236152239E-01  0.54256824340E-01  0.51100000000E-03 0.  1.
         11    1    4    4    0    0  0.61970024401E-02  0.48766300243E-01 -0.55130268423E-01  0.73865841198E-01  0.51100000000E-03 0. -1.
</event>
<event>
 8    1  0.1075206E+005  0.1043930E+01  0.7957747E-01            NaN
         13   -1    0    0    0    0  0.00000000000E+00  0.00000000000E+00  0.74505805969E-08  0.10566000000E+00  0.10566000000E+00 0.  1.
     999900   -1    0    0    0    0 -0.00000000000E+00 -0.00000000000E+00 -0.74505805969E-08  0.93827000000E+00  0.93827000000E+00 0.  1.
     999902    2    1    2    0    0 -0.23141601142E-01 -0.76594397646E-02 -0.34735938673E-02  0.10193075189E+01  0.10190100841E+01 0.  0.
     999903    2    3    3    0    0  0.23970801470E-01 -0.15929007208E-01  0.12411969182E+00  0.12882000592E+00  0.18988507964E-01 0.  0.
         14    1    1    2    0    0  0.23141601142E-01  0.76594397646E-02  0.34735938673E-02  0.24622481095E-01  0.00000000000E+00 0.  1.
     999901    1    3    3    0    0 -0.47112402611E-01  0.82695674431E-02 -0.12759328569E+00  0.89048751298E+00  0.88000000000E+00 0.  1.
        -11    1    4    4    0    0  0.21544602624E-01 -0.11746489495E-01  0.64655974335E-01  0.69157834378E-01  0.51100000000E-03 0. -1.
         11    1    4    4    0    0  0.24261988458E-02 -0.41825177131E-02  0.59463717485E-01  0.59662171545E-01  0.51100000000E-03 0.  1.
</event>
<event>
 8    1  0.1075206E+005  0.1043930E+01  0.7957747E-01            NaN
         13   -1    0    0    0    0  0.00000000000E+00  0.00000000000E+00  0.74505805969E-08  0.10566000000E+00  0.10566000000E+00 0. -1.
     999900   -1    0    0    0    0 -0.00000000000E+00 -0.00000000000E+00 -0.74505805969E-08  0.93827000000E+00  0.93827000000E+00 0.  1.
     999902    2    1    2    0    0  0.23002547847E-02 -0.38311591007E-03  0.22870861839E-01  0.10209405617E+01  0.10206816920E+01 0.  0.
     999903    2    3    3    0    0  0.42282762584E-01  0.10981658209E+00 -0.51643480145E-01  0.13004496656E+00  0.19928135152E-01 0.  0.
         14    1    1    2    0    0 -0.23002547847E-02  0.38311591007E-03 -0.22870861839E-01  0.22989438252E-01  0.00000000000E+00 0.  1.
     999901    1    3    3    0    0 -0.39982507799E-01 -0.11019969800E+00  0.74514341984E-01  0.89089559519E+00  0.88000000000E+00 0. -1.
        -11    1    4    4    0    0  0.37249354292E-01  0.75673767831E-01 -0.41901613638E-01  0.94180889141E-01  0.51100000000E-03 0.  1.
         11    1    4    4    0    0  0.50334082919E-02  0.34142814263E-01 -0.97418665074E-02  0.35864077416E-01  0.51100000000E-03 0. -1.
</event>
<event>
 8    1  0.1075206E+005  0.1043930E+01  0.7957747E-01            NaN
         13   -1    0    0    0    0  0.00000000000E+00  0.00000000000E+00  0.74505805969E-08  0.10566000000E+00  0.10566000000E+00 0. -1.
     999900   -1    0    0    0    0 -0.00000000000E+00 -0.00000000000E+00 -0.74505805969E-08  0.93827000000E+00  0.93827000000E+00 0. -1.
     999902    2    1    2    0    0 -0.34729417716E-02  0.14352514329E-01 -0.18881844519E-01  0.10199596007E+01  0.10196778937E+01 0.  0.
     999903    2    3    3    0    0 -0.16001465521E-01 -0.65489539274E-01 -0.11089447676E+00  0.13147885133E+00  0.21075500434E-01 0.  0.
         14    1    1    2    0    0  0.34729417716E-02 -0.14352514329E-01  0.18881844519E-01  0.23970399341E-01  0.00000000000E+00 0. -1.
     999901    1    3    3    0    0  0.12528523749E-01  0.79842053603E-01  0.92012632242E-01  0.88848074933E+00  0.88000000000E+00 0.  1.
        -11    1    4    4    0    0 -0.12131908575E-01 -0.30097573095E-01 -0.70625224224E-01  0.77725353196E-01  0.51100000000E-03 0. -1.
         11    1    4    4    0    0 -0.38695569462E-02 -0.35391966179E-01 -0.40269252538E-01  0.53753498137E-01  0.51100000000E-03 0.  1.
</event>
<event>
 8    1  0.1075206E+005  0.1043930E+01  0.7957747E-01            NaN
         13   -1    0    0    0    0  0.00000000000E+00  0.00000000000E+00  0.74505805969E-08  0.10566000000E+00  0.10566000000E+00 0.  1.
     999900   -1    0    0    0    0 -0.00000000000E+00 -0.00000000000E+00 -0.74505805969E-08  0.93827000000E+00  0.93827000000E+00 0.  1.
     999902    2    1    2    0    0 -0.12011361923E-01  0.15953274694E-01  0.12052927803E-01  0.10206050593E+01  0.10203384900E+01 0.  0.
     999903    2    3    3    0    0 -0.70955102394E-01 -0.46361921175E-01  0.99376689299E-01  0.13213278205E+00  0.19982277762E-01 0.  0.
         14    1    1    2    0    0  0.12011361923E-01 -0.15953274694E-01 -0.12052927803E-01  0.23324940671E-01  0.00000000000E+00 0.  1.
     999901    1    3    3    0    0  0.58943740471E-01  0.62315195869E-01 -0.87323761496E-01  0.88847227728E+00  0.88000000000E+00 0.  1.
        -11    1    4    4    0    0 -0.58934176190E-01 -0.46262463730E-01  0.83070137209E-01  0.11186760698E+00  0.51100000000E-03 0. -1.
         11    1    4    4    0    0 -0.12020926204E-01 -0.99457445187E-04  0.16306552090E-01  0.20265175071E-01  0.51100000000E-03 0.  1.
</event>
<event>
 8    1  0.1075206E+005  0.1043930E+01  0.7957747E-01            NaN
         13   -1    0    0    0    0  0.00000000000E+00  0.00000000000E+00  0.74505805969E-08  0.10566000000E+00  0.10566000000E+00 0.  1.
     999900   -1    0    0    0    0 -0.00000000000E+00 -0.00000000000E+00 -0.74505805969E-08  0.93827000000E+00  0.93827000000E+00 0. -1.
     999902    2    1    2    0    0  0.17159813101E-01 -0.12642065963E-01 -0.11135964594E-01  0.10198823239E+01  0.10195987759E+01 0.  0.
     999903    2    3    3    0    0  0.86552484533E-01 -0.51274440907E-01  0.82146873046E-01  0.13139513153E+00  0.19904044041E-01 0.  0.
         14    1    1    2    0    0 -0.17159813101E-01  0.12642065963E-01  0.11135964594E-01  0.24047676081E-01  0.00000000000E+00 0.  1.
     999901    1    3    3    0    0 -0.69392671431E-01  0.38632374944E-01 -0.93282837640E-01  0.88848719239E+00  0.88000000000E+00 0. -1.
        -11    1    4    4    0    0  0.35124013657E-01 -0.27244949068E-01  0.25744510836E-01  0.51371437047E-01  0.51100000000E-03 0.  1.
         11    1    4    4    0    0  0.51428470875E-01 -0.24029491839E-01  0.56402362210E-01  0.80023694482E-01  0.51100000000E-03 0. -1.
</event>
<event>
 8    1  0.1075206E+005  0.1043930E+01  0.7957747E-01            NaN
         13   -1    0    0    0    0  0.00000000000E+00  0.00000000000E+00  0.74505805969E-08  0.10566000000E+00  0.10566000000E+00 0. -1.
     999900   -1    0    0    0    0 -0.00000000000E+00 -0.00000000000E+00 -0.74505805969E-08  0.93827000000E+00  0.93827000000E+00 0. -1.
     999902    2    1    2    0    0  0.50289793131E-03  0.12366832333E-01 -0.18535130277E-01  0.10216422791E+01  0.10213991404E+01 0.  0.
     999903    2    3    3    0    0 -0.33537344993E-01  0.12058868413E+00 -0.45023394523E-01  0.13396422064E+00  0.15903524955E-01 0.  0.
         14    1    1    2    0    0 -0.50289793131E-03 -0.12366832333E-01  0.18535130277E-01  0.22287720894E-01  0.00000000000E+00 0. -1.
     999901    1    3    3    0    0  0.34040242924E-01 -0.10822185180E+00  0.26488264246E-01  0.88767805847E+00  0.88000000000E+00 0.  1.
        -11    1    4    4    0    0 -0.52813615011E-02  0.47594185668E-01 -0.17842587377E-01  0.51104973672E-01  0.51100000000E-03 0.  1.
         11    1    4    4    0    0 -0.28255983492E-01  0.72994498466E-01 -0.27180807146E-01  0.82859246964E-01  0.51100000000E-03 0. -1.
</event>
<event>
 8    1  0.1075206E+005  0.1043930E+01  0.7957747E-01            NaN
         13   -1    0    0    0    0  0.00000000000E+00  0.00000000000E+00  0.74505805969E-08  0.10566000000E+00  0.10566000000E+00 0. -1.
     999900   -1    0    0    0    0 -0.00000000000E+00 -0.00000000000E+00 -0.74505805969E-08  0.93827000000E+00  0.93827000000E+00 0.  1.
     999902    2    1    2    0    0  0.18121532930E-01  0.14076750640E-01  0.33237375346E-02  0.10207439677E+01  0.10204806002E+01 0.  0.
     999903    2    3    3    0    0 -0.83485537671E-02 -0.36759418039E-01 -0.12271467134E+00  0.12991813617E+00  0.19971939817E-01 0.  0.
         14    1    1    2    0    0 -0.18121532930E-01 -0.14076750640E-01 -0.33237375346E-02  0.23186032337E-01  0.00000000000E+00 0.  1.
     999901    1    3    3    0    0  0.26470086698E-01  0.50836168679E-01  0.12603840888E+00  0.89082583149E+00  0.88000000000E+00 0. -1.
        -11    1    4    4    0    0  0.41104073701E-03 -0.32666347593E-01 -0.10071373943E+00  0.10588095981E+00  0.51100000000E-03 0.  1.
         11    1    4    4    0    0 -0.87595945041E-02 -0.40930704460E-02 -0.22000931912E-01  0.24037176364E-01  0.51100000000E-03 0. -1.
</event>
<event>
 8    1  0.1075206E+005  0.1043930E+01  0.7957747E-01            NaN
         13   -1    0    0    0    0  0.00000000000E+00  0.00000000000E+00  0.74505805969E-08  0.10566000000E+00  0.10566000000E+00 0. -1.
     999900   -1    0    0    0    0 -0.00000000000E+00 -0.00000000000E+00 -0.74505805969E-08  0.93827000000E+00  0.93827000000E+00 0.  1.
     999902    2    1    2    0    0  0.67786005758E-02 -0.80048857747E-02 -0.21284827049E-01  0.10202008727E+01  0.10199248742E+01 0.  0.
     999903    2    3    3    0    0  0.26984610000E-01  0.51607730246E-01  0.11202557989E+00  0.12793767639E+00  0.20658932494E-01 0.  0.
         14    1    1    2    0    0 -0.67786005758E-02  0.80048857747E-02  0.21284827049E-01  0.23729127345E-01  0.00000000000E+00 0. -1.
     999901    1    3    3    0    0 -0.20206009424E-01 -0.59612616021E-01 -0.13331040694E+00  0.89226319626E+00  0.88000000000E+00 0.  1.
        -11    1    4    4    0    0  0.20402505668E-01  0.27182141149E-01  0.81400891504E-01  0.88212795522E-01  0.51100000000E-03 0. -1.
         11    1    4    4    0    0  0.65821043317E-02  0.24425589097E-01  0.30624688391E-01  0.39724880870E-01  0.51100000000E-03 0.  1.
</event>
<event>
 8    1  0.1075206E+005  0.1043930E+01  0.7957747E-01            NaN
         13   -1    0    0    0    0  0.00000000000E+00  0.00000000000E+00  0.74505805969E-08  0.10566000000E+00  0.10566000000E+00 0.  1.
     999900   -1    0    0    0    0 -0.00000000000E+00 -0.00000000000E+00 -0.74505805969E-08  0.93827000000E+00  0.93827000000E+00 0.  1.
     999902    2    1    2    0    0 -0.10420497376E-01 -0.13781167697E-01 -0.15088512625E-01  0.10209915920E+01  0.10207338832E+01 0.  0.
     999903    2    3    3    0    0  0.12702646927E+00 -0.81010870453E-02  0.15460575208E-01  0.12978051782E+00  0.20064942391E-01 0.  0.
         14    1    1    2    0    0  0.10420497376E-01  0.13781167697E-01  0.15088512625E-01  0.22938408006E-01  0.00000000000E+00 0.  1.
     999901    1    3    3    0    0 -0.13744696665E+00 -0.56800806515E-02 -0.30549087833E-01  0.89121107417E+00  0.88000000000E+00 0.  1.
        -11    1    4    4    0    0  0.40669778626E-01  0.44743455628E-02 -0.11974636847E-02  0.40935873046E-01  0.51100000000E-03 0.  1.
         11    1    4    4    0    0  0.86356690647E-01 -0.12575432608E-01  0.16658038893E-01  0.88844644777E-01  0.51100000000E-03 0. -1.
</event>
<event>
 8    1  0.1075206E+005  0.1043930E+01  0.7957747E-01            NaN
         13   -1    0    0    0    0  0.00000000000E+00  0.00000000000E+00  0.74505805969E-08  0.10566000000E+00  0.10566000000E+00 0. -1.
     999900   -1    0    0    0    0 -0.00000000000E+00 -0.00000000000E+00 -0.74505805969E-08  0.93827000000E+00  0.93827000000E+00 0. -1.
     999902    2    1    2    0    0  0.19869545242E-01 -0.13973753786E-01 -0.52056892747E-02  0.10190872179E+01  0.10187843706E+01 0.  0.
     999903    2    3    3    0    0  0.74033102008E-01 -0.10407955390E+00 -0.29180687094E-01  0.13250527207E+00  0.19816177617E-01 0.  0.
         14    1    1    2    0    0 -0.19869545242E-01  0.13973753786E-01  0.52056892747E-02  0.24842782127E-01  0.00000000000E+00 0. -1.
     999901    1    3    3    0    0 -0.54163556767E-01  0.90105800113E-01  0.23974997820E-01  0.88658194580E+00  0.88000000000E+00 0. -1.
        -11    1    4    4    0    0  0.25494812198E-01 -0.32673270333E-01 -0.18901305560E-01  0.45552700426E-01  0.51100000000E-03 0. -1.
         11    1    4    4    0    0  0.48538289811E-01 -0.71406283567E-01 -0.10279381535E-01  0.86952571648E-01  0.51100000000E-03 0.  1.
</event>
<event>
 8    1  0.1075206E+005  0.1043930E+01  0.7957747E-01            NaN
         13   -1    0    0    0    0  0.00000000000E+00  0.00000000000E+00  0.74505805969E-08  0.10566000000E+00  0.10566000000E+00 0. -1.
     999900   -1    0    0    0    0 -0.00000000000E+00 -0.00000000000E+00 -0.74505805969E-08  0.93827000000E+00  0.93827000000E+00 0.  1.
     999902    2    1    2    0    0 -0.39990250356E-02  0.23168267544E-01 -0.60789740965E-02  0.10196459569E+01  0.10193567397E+01 0.  0.
     999903    2    3    3    0    0 -0.73504126477E-01  0.39377017442E-01 -0.99676203383E-01  0.13180919037E+00  0.22020695598E-01 0.  0.
         14    1    1    2    0    0  0.39990250356E-02 -0.23168267544E-01  0.60789740965E-02  0.24284043080E-01  0.00000000000E+00 0. -1.
     999901    1    3    3    0    0  0.69505101441E-01 -0.16208749897E-01  0.93597229287E-01  0.88783676655E+00  0.88000000000E+00 0. -1.
        -11    1    4    4    0    0 -0.13681051353E-01 -0.83891415041E-03 -0.21195755001E-01  0.25246704619E-01  0.51100000000E-03 0. -1.
         11    1    4    4    0    0 -0.59823075124E-01  0.40215931592E-01 -0.78480448383E-01  0.10656248576E+00  0.51100000000E-03 0.  1.
</event>
<event>
 8    1  0.1075206E+005  0.1043930E+01  0.7957747E-01            NaN
         13   -1    0    0    0    0  0.00000000000E+00  0.00000000000E+00  0.74505805969E-08  0.10566000000E+00  0.10566000000E+00 0. -1.
     999900   -1    0    0    0    0 -0.00000000000E+00 -0.00000000000E+00 -0.74505805969E-08  0.93827000000E+00  0.93827000000E+00 0. -1.
     999902    2    1    2    0    0  0.14715793876E-01  0.15294227729E-01 -0.10130437348E-01  0.10204120547E+01  0.10201410038E+01 0.  0.
     999903    2    3    3    0    0  0.81035623002E-01  0.99016850813E-01 -0.31109881568E-01  0.13370582687E+00  0.23201604867E-01 0.  0.
         14    1    1    2    0    0 -0.14715793876E-01 -0.15294227729E-01  0.10130437348E-01  0.23517945320E-01  0.00000000000E+00 0.  1.
     999901    1    3    3    0    0 -0.66319829125E-01 -0.83722623084E-01  0.20979444220E-01  0.88670622781E+00  0.88000000000E+00 0.  1.
        -11    1    4    4    0    0  0.70384094515E-02  0.12808063676E-01 -0.11066432363E-01  0.18338831724E-01  0.51100000000E-03 0.  1.
         11    1    4    4    0    0  0.73997213550E-01  0.86208787136E-01 -0.20043449206E-01  0.11536699515E+00  0.51100000000E-03 0. -1.
</event>
<event>
 8    1  0.1075206E+005  0.1043930E+01  0.7957747E-01            NaN
         13   -1    0    0    0    0  0.00000000000E+00  0.00000000000E+00  0.74505805969E-08  0.10566000000E+00  0.10566000000E+00 0. -1.
     999900   -1    0    0    0    0 -0.00000000000E+00 -0.00000000000E+00 -0.74505805969E-08  0.93827000000E+00  0.93827000000E+00 0.  1.
     999902    2    1    2    0    0 -0.29865910607E-01 -0.70322034386E-02 -0.57238227007E-03  0.10132420199E+01  0.10127771911E+01 0.  0.
     999903    2    3    3    0    0 -0.21800927449E-01  0.37806111832E-01 -0.11501132367E+00  0.12466349788E+00  0.20218818029E-01 0.  0.
         14    1    1    2    0    0  0.29865910607E-01  0.70322034386E-02  0.57238227007E-03  0.30687980107E-01  0.00000000000E+00 0.  1.
     999901    1    3    3    0    0 -0.80649831581E-02 -0.44838315271E-01  0.11443894140E+00  0.88857852201E+00  0.88000000000E+00 0. -1.
        -11    1    4    4    0    0 -0.23644127618E-01  0.34092355234E-01 -0.87528700296E-01  0.96865205067E-01  0.51100000000E-03 0.  1.
         11    1    4    4    0    0  0.18432001687E-02  0.37137565978E-02 -0.27482623374E-01  0.27798292815E-01  0.51100000000E-03 0. -1.
</event>
<event>
 8    1  0.1075206E+005  0.1043930E+01  0.7957747E-01            NaN
         13   -1    0    0    0    0  0.00000000000E+00  0.00000000000E+00  0.74505805969E-08  0.10566000000E+00  0.10566000000E+00 0.  1.
     999900   -1    0    0    0    0 -0.00000000000E+00 -0.00000000000E+00 -0.74505805969E-08  0.93827000000E+00  0.93827000000E+00 0. -1.
     999902    2    1    2    0    0 -0.21799193723E-01 -0.10468232634E-01  0.58166970335E-02  0.10190578729E+01  0.10187543009E+01 0.  0.
     999903    2    3    3    0    0 -0.12193614723E+00  0.40426708820E-01 -0.19887071760E-01  0.13154540074E+00  0.20148301306E-01 0.  0.
         14    1    1    2    0    0  0.21799193723E-01  0.10468232634E-01 -0.58166970335E-02  0.24872127087E-01  0.00000000000E+00 0. -1.
     999901    1    3    3    0    0  0.10013695351E+00 -0.50894941454E-01  0.25703768793E-01  0.88751247217E+00  0.88000000000E+00 0. -1.
        -11    1    4    4    0    0 -0.83740526055E-01  0.31241508499E-01 -0.49600655530E-02  0.89517433657E-01  0.51100000000E-03 0. -1.
         11    1    4    4    0    0 -0.38195621179E-01  0.91852003204E-02 -0.14927006207E-01  0.42027967087E-01  0.51100000000E-03 0.  1.
</event>
<event>
 8    1  0.1075206E+005  0.1043930E+01  0.7957747E-01            NaN
         13   -1    0    0    0    0  0.00000000000E+00  0.00000000000E+00  0.74505805969E-08  0.10566000000E+00  0.10566000000E+00 0.  1.
     999900   -1    0    0    0    0 -0.00000000000E+00 -0.00000000000E+00 -0.74505805969E-08  0.93827000000E+00  0.93827000000E+00 0.  1.
     999902    2    1    2    0    0 -0.92398804331E-03 -0.23730030319E-01  0.29481784572E-03  0.10201801577E+01  0.10199036715E+01 0.  0.
     999903    2    3    3    0    0  0.98634780748E-01  0.12358644257E-01  0.81418762339E-01  0.13012654398E+00  0.20551071202E-01 0.  0.
         14    1    1    2    0    0  0.92398804331E-03  0.23730030319E-01 -0.29481784572E-03  0.23749842323E-01  0.00000000000E+00 0.  1.
     999901    1    3    3    0    0 -0.99558768791E-01 -0.36088674575E-01 -0.81123944493E-01  0.89005361369E+00  0.88000000000E+00 0.  1.
        -11    1    4    4    0    0  0.39818536385E-01 -0.42581369561E-03  0.43550233548E-01  0.59013397803E-01  0.51100000000E-03 0. -1.
         11    1    4    4    0    0  0.58816244363E-01  0.12784457952E-01  0.37868528791E-01  0.71113146182E-01  0.51100000000E-03 0.  1.
</event>
<event>
 8    1  0.1075206E+005  0.1043930E+01  0.7957747E-01            NaN
         13   -1    0    0    0    0  0.00000000000E+00  0.00000000000E+00  0.74505805969E-08  0.10566000000E+00  0.10566000000E+00 0.  1.
     999900   -1    0    0    0    0 -0.00000000000E+00 -0.00000000000E+00 -0.74505805969E-08  0.93827000000E+00  0.93827000000E+00 0.  1.
     999902    2    1    2    0    0  0.12556506010E-01  0.18937344987E-01 -0.39243008319E-02  0.10208716172E+01  0.10206111747E+01 0.  0.
     999903    2    3    3    0    0  0.12362622968E+00  0.46273647214E-01  0.33984936660E-02  0.13343858864E+00  0.19225298155E-01 0.  0.
         14    1    1    2    0    0 -0.12556506010E-01 -0.18937344987E-01  0.39243008319E-02  0.23058382757E-01  0.00000000000E+00 0.  1.
     999901    1    3    3    0    0 -0.11106972366E+00 -0.27336302227E-01 -0.73227944978E-02  0.88743302860E+00  0.88000000000E+00 0. -1.
        -11    1    4    4    0    0  0.10549978519E+00  0.45908164693E-01  0.54498913950E-02  0.11518561845E+00  0.51100000000E-03 0.  1.
         11    1    4    4    0    0  0.18126444480E-01  0.36548252104E-03 -0.20513977290E-02  0.18252970186E-01  0.51100000000E-03 0. -1.
</event>
<event>
 8    1  0.1075206E+005  0.1043930E+01  0.7957747E-01            NaN
         13   -1    0    0    0    0  0.00000000000E+00  0.00000000000E+00  0.74505805969E-08  0.10566000000E+00  0.10566000000E+00 0.  1.
     999900   -1    0    0    0    0 -0.00000000000E+00 -0.00000000000E+00 -0.74505805969E-08  0.93827000000E+00  0.93827000000E+00 0. -1.
     999902    2    1    2    0    0  0.13526846308E-01  0.13500556627E-01  0.13078085262E-01  0.10207723465E+01  0.10205096308E+01 0.  0.
     999903    2    3    3    0    0  0.63646092297E-01 -0.11145415191E+00 -0.10127640691E-01  0.13023086870E+00  0.19612674869E-01 0.  0.
         14    1    1    2    0    0 -0.13526846308E-01 -0.13500556627E-01 -0.13078085262E-01  0.23157653474E-01  0.00000000000E+00 0.  1.
     999901    1    3    3    0    0 -0.50119245989E-01  0.12495470853E+00  0.23205725953E-01  0.89054147782E+00  0.88000000000E+00 0.  1.
        -11    1    4    4    0    0  0.50123603566E-01 -0.71426599961E-01 -0.11119579290E-01  0.87966135422E-01  0.51100000000E-03 0.  1.
         11    1    4    4    0    0  0.13522488731E-01 -0.40027551946E-01  0.99193859847E-03  0.42264733282E-01  0.51100000000E-03 0. -1.
</event>
<event>
 8    1  0.1075206E+005  0.1043930E+01  0.7957747E-01            NaN
         13   -1    0    0    0    0  0.00000000000E+00  0.00000000000E+00  0.74505805969E-08  0.10566000000E+00  0.10566000000E+00 0.  1.
     999900   -1    0    0    0    0 -0.00000000000E+00 -0.00000000000E+00 -0.74505805969E-08  0.93827000000E+00  0.93827000000E+00 0. -1.
     999902    2    1    2    0    0 -0.10451090662E-01 -0.19787576436E-01  0.64761560770E-02  0.10206337755E+01  0.10203678698E+01 0.  0.
     999903    2    3    3    0    0 -0.11713537882E+00  0.25243818290E-01 -0.49548120764E-01  0.13128115511E+00  0.20537236493E-01 0.  0.
         14    1    1    2    0    0  0.10451090662E-01  0.19787576436E-01 -0.64761560770E-02  0.23296224474E-01  0.00000000000E+00 0.  1.
     999901    1    3    3    0    0  0.10668428815E+00 -0.45031394726E-01  0.56024276841E-01  0.88935262042E+00  0.88000000000E+00 0.  1.
        -11    1    4    4    0    0 -0.28955603250E-01  0.75796432949E-02 -0.31960626934E-02  0.30105711913E-01  0.51100000000E-03 0.  1.
         11    1    4    4    0    0 -0.88179775566E-01  0.17664174995E-01 -0.46352058071E-01  0.10117544319E+00  0.51100000000E-03 0. -1.
</event>
<event>
 8    1  0.1075206E+005  0.1043930E+01  0.7957747E-01            NaN
         13   -1    0    0    0    0  0.00000000000E+00  0.00000000000E+00  0.74505805969E-08  0.10566000000E+00  0.10566000000E+00 0. -1.
     999900   -1    0    0    0    0 -0.00000000000E+00 -0.00000000000E+00 -0.74505805969E-08  0.93827000000E+00  0.93827000000E+00 0. -1.
     999902    2    1    2    0    0 -0.14998387374E-01 -0.17007787890E-02 -0.18087460695E-01  0.10203715513E+01  0.10200995550E+01 0.  0.
     999903    2    3    3    0    0 -0.49743322363E-01  0.12031639024E-02 -0.12298032152E+00  0.13345658598E+00  0.14513963521E-01 0.  0.
         14    1    1    2    0    0  0.14998387374E-01  0.17007787890E-02  0.18087460695E-01  0.23558448733E-01  0.00000000000E+00 0. -1.
     999901    1    3    3    0    0  0.34744934989E-01 -0.29039426914E-02  0.10489286083E+00  0.88691496528E+00  0.88000000000E+00 0.  1.
        -11    1    4    4    0    0 -0.12301368865E-01  0.52483873696E-02 -0.43338627904E-01  0.45358208028E-01  0.51100000000E-03 0. -1.
         11    1    4    4    0    0 -0.37441953498E-01 -0.40452234672E-02 -0.79641693621E-01  0.88098377956E-01  0.51100000000E-03 0.  1.
</event>
<event>
 8    1  0.1075206E+005  0.1043930E+01  0.7957747E-01            NaN
         13   -1    0    0    0    0  0.00000000000E+00  0.00000000000E+00  0.74505805969E-08  0.10566000000E+00  0.10566000000E+00 0.  1.
     999900   -1    0    0    0    0 -0.00000000000E+00 -0.00000000000E+00 -0.74505805969E-08  0.93827000000E+00  0.93827000000E+00 0. -1.
     999902    2    1    2    0    0  0.12882192222E-01  0.22405632779E-01  0.21763990552E-02  0.10179935398E+01  0.10176630813E+01 0.  0.
     999903    2    3    3    0    0  0.65988032888E-01  0.11221428968E+00  0.73400048598E-03  0.13182882275E+00  0.20780578874E-01 0.  0.
         14    1    1    2    0    0 -0.12882192222E-01 -0.22405632779E-01 -0.21763990552E-02  0.25936460235E-01  0.00000000000E+00 0. -1.
     999901    1    3    3    0    0 -0.53105840666E-01 -0.89808656900E-01  0.14423985693E-02  0.88616471701E+00  0.88000000000E+00 0.  1.
        -11    1    4    4    0    0  0.32452402400E-01  0.35949952804E-01  0.24781851825E-02  0.48497010742E-01  0.51100000000E-03 0.  1.
         11    1    4    4    0    0  0.33535630488E-01  0.76264336876E-01 -0.17441846965E-02  0.83331812008E-01  0.51100000000E-03 0. -1.
</event>
<event>
 8    1  0.1075206E+005  0.1043930E+01  0.7957747E-01            NaN
         13   -1    0    0    0    0  0.00000000000E+00  0.00000000000E+00  0.74505805969E-08  0.10566000000E+00  0.10566000000E+00 0.  1.
     999900   -1    0    0    0    0 -0.00000000000E+00 -0.00000000000E+00 -0.74505805969E-08  0.93827000000E+00  0.93827000000E+00 0. -1.
     999902    2    1    2    0    0 -0.35184671621E-02 -0.11777747672E-01 -0.25050536843E-01  0.10160261589E+01  0.10156429152E+01 0.  0.
     999903    2    3    3    0    0  0.16737286802E-01  0.80450537052E-03  0.12089220799E+00  0.12368771783E+00  0.20073405062E-01 0.  0.
         14    1    1    2    0    0  0.35184671621E-02  0.11777747672E-01  0.25050536843E-01  0.27903841089E-01  0.00000000000E+00 0. -1.
     999901    1    3    3    0    0 -0.20255753964E-01 -0.12582253042E-01 -0.14594274483E+00  0.89233844108E+00  0.88000000000E+00 0. -1.
        -11    1    4    4    0    0  0.11130618850E-01  0.10008342813E-01  0.59593973814E-01  0.61447216680E-01  0.51100000000E-03 0. -1.
         11    1    4    4    0    0  0.56066679523E-02 -0.92038374420E-02  0.61298234178E-01  0.62240501151E-01  0.51100000000E-03 0.  1.
</event>
<event>
 8    1  0.1075206E+005  0.1043930E+01  0.7957747E-01            NaN
         13   -1    0    0    0    0  0.00000000000E+00  0.00000000000E+00  0.74505805969E-08  0.10566000000E+00  0.10566000000E+00 0. -1.
     999900   -1    0    0    0    0 -0.00000000000E+00 -0.00000000000E+00 -0.74505805969E-08  0.93827000000E+00  0.93827000000E+00 0. -1.
     999902    2    1    2    0    0  0.14957026139E-01  0.32553956430E-03  0.13763182120E-01  0.10236016014E+01  0.10233997238E+01 0.  0.
     999903    2    3    3    0    0  0.62148804708E-01 -0.11665595492E+00  0.16081589517E-01  0.13460378982E+00  0.19709819041E-01 0.  0.
         14    1    1    2    0    0 -0.14957026139E-01 -0.32553956430E-03 -0.13763182120E-01  0.20328398584E-01  0.00000000000E+00 0.  1.
     999901    1    3    3    0    0 -0.47191778570E-01  0.11698149448E+00 -0.23184073970E-02  0.88899781160E+00  0.88000000000E+00 0.  1.
        -11    1    4    4    0    0  0.47379978998E-01 -0.83589654074E-01  0.20094748496E-01  0.98163907401E-01  0.51100000000E-03 0. -1.
         11    1    4    4    0    0  0.14768825711E-01 -0.33066300845E-01 -0.40131589787E-02  0.36439882416E-01  0.51100000000E-03 0.  1.
</event>
<event>
 8    1  0.1075206E+005  0.1043930E+01  0.7957747E-01            NaN
         13   -1    0    0    0    0  0.00000000000E+00  0.00000000000E+00  0.74505805969E-08  0.10566000000E+00  0.10566000000E+00 0.  1.
     999900   -1    0    0    0    0 -0.00000000000E+00 -0.00000000000E+00 -0.74505805969E-08  0.93827000000E+00  0.93827000000E+00 0. -1.
     999902    2    1    2    0    0  0.29367284933E-02 -0.21344741509E-01 -0.99833763762E-02  0.10201836283E+01  0.10199072239E+01 0.  0.
     999903    2    3    3    0    0 -0.59766208502E-01  0.73510327657E-01 -0.85937285623E-01  0.12962305273E+00  0.21003589885E-01 0.  0.
         14    1    1    2    0    0 -0.29367284933E-02  0.21344741509E-01  0.99833763762E-02  0.23746371685E-01  0.00000000000E+00 0.  1.
     999901    1    3    3    0    0  0.62702936996E-01 -0.94855069166E-01  0.75953909247E-01  0.89056057558E+00  0.88000000000E+00 0. -1.
        -11    1    4    4    0    0 -0.55177908031E-01  0.72612334763E-01 -0.76333470543E-01  0.11892944354E+00  0.51100000000E-03 0.  1.
         11    1    4    4    0    0 -0.45883004709E-02  0.89799289422E-03 -0.96038150808E-02  0.10693609192E-01  0.51100000000E-03 0. -1.
</event>
<event>
 8    1  0.1075206E+005  0.1043930E+01  0.7957747E-01            NaN
         13   -1    0    0    0    0  0.00000000000E+00  0.00000000000E+00  0.74505805969E-08  0.10566000000E+00  0.10566000000E+00 0. -1.
     999900   -1    0    0    0    0 -0.00000000000E+00 -0.00000000000E+00 -0.74505805969E-08  0.93827000000E+00  0.93827000000E+00 0.  1.
     999902    2    1    2    0    0  0.15382384881E-01  0.17273338277E-02 -0.80229151960E-02  0.10264953043E+01  0.10263472322E+01 0.  0.
     999903    2    3    3    0    0 -0.10999792741E+00  0.74623820244E-01  0.32314747681E-02  0.13455316392E+00  0.20636203879E-01 0.  0.
         14    1    1    2    0    0 -0.15382384881E-01 -0.17273338277E-02  0.80229151960E-02  0.17434695725E-01  0.00000000000E+00 0. -1.
     999901    1    3    3    0    0  0.12538031229E+00 -0.72896486416E-01 -0.11254389964E-01  0.89194214035E+00  0.88000000000E+00 0. -1.
        -11    1    4    4    0    0 -0.70152786566E-01  0.39334478731E-01  0.93654624789E-02  0.80972758928E-01  0.51100000000E-03 0. -1.
         11    1    4    4    0    0 -0.39845140843E-01  0.35289341512E-01 -0.61339877108E-02  0.53580404995E-01  0.51100000000E-03 0.  1.
</event>
<event>
 8    1  0.1075206E+005  0.1043930E+01  0.7957747E-01            NaN
         13   -1    0    0    0    0  0.00000000000E+00  0.00000000000E+00  0.74505805969E-08  0.10566000000E+00  0.10566000000E+00 0. -1.
     999900   -1    0    0    0    0 -0.00000000000E+00 -0.00000000000E+00 -0.74505805969E-08  0.93827000000E+00  0.93827000000E+00 0.  1.
     999902    2    1    2    0    0  0.11069489539E-01  0.36187605547E-02 -0.20044973171E-01  0.10207474640E+01  0.10204841769E+01 0.  0.
     999903    2    3    3    0    0 -0.37448100698E-01 -0.61540492829E-01 -0.11041116166E+00  0.13239745814E+00  0.12201221255E-01 0.  0.
         14    1    1    2    0    0 -0.11069489539E-01 -0.36187605547E-02  0.20044973171E-01  0.23182536014E-01  0.00000000000E+00 0. -1.
     999901    1    3    3    0    0  0.48517590238E-01  0.65159253384E-01  0.90366188487E-01  0.88835000585E+00  0.88000000000E+00 0. -1.
        -11    1    4    4    0    0 -0.18666261592E-01 -0.41953616573E-01 -0.69816677686E-01  0.83565332941E-01  0.51100000000E-03 0. -1.
         11    1    4    4    0    0 -0.18781839106E-01 -0.19586876256E-01 -0.40594483971E-01  0.48832125200E-01  0.51100000000E-03 0.  1.
</event>
<event>
 8    1  0.1075206E+005  0.1043930E+01  0.7957747E-01            NaN
         13   -1    0    0    0    0  0.00000000000E+00  0.00000000000E+00  0.74505805969E-08  0.10566000000E+00  0.10566000000E+00 0.  1.
     999900   -1    0    0    0    0 -0.00000000000E+00 -0.00000000000E+00 -0.74505805969E-08  0.93827000000E+00  0.93827000000E+00 0. -1.
     999902    2    1    2    0    0 -0.66534298773E-02  0.64864639986E-02  0.21455900393E-01  0.10205484259E+01  0.10202805456E+01 0.  0.
     999903    2    3    3    0    0 -0.71079911102E-01 -0.87334706168E-01  0.66864518976E-01  0.13205806239E+00  0.16993036265E-01 0.  0.
         14    1    1    2    0    0  0.66534298773E-02 -0.64864639986E-02 -0.21455900393E-01  0.23381574071E-01  0.00000000000E+00 0. -1.
     999901    1    3    3    0    0  0.64426481225E-01  0.93821170167E-01 -0.45408618583E-01  0.88849036354E+00  0.88000000000E+00 0.  1.
        -11    1    4    4    0    0 -0.38749278417E-01 -0.34355387215E-01  0.29083597425E-01  0.59396262245E-01  0.51100000000E-03 0.  1.
         11    1    4    4    0    0 -0.32330632685E-01 -0.52979318953E-01  0.37780921551E-01  0.72661800148E-01  0.51100000000E-03 0. -1.
</event>
<event>
 8    1  0.1075206E+005  0.1043930E+01  0.7957747E-01            NaN
         13   -1    0    0    0    0  0.00000000000E+00  0.00000000000E+00  0.74505805969E-08  0.10566000000E+00  0.10566000000E+00 0. -1.
     999900   -1    0    0    0    0 -0.00000000000E+00 -0.00000000000E+00 -0.74505805969E-08  0.93827000000E+00  0.93827000000E+00 0. -1.
     999902    2    1    2    0    0 -0.19001263118E-01  0.11432869095E-01  0.76865935241E-02  0.10204599720E+01  0.10201900373E+01 0.  0.
     999903    2    3    3    0    0  0.57122907010E-01  0.11140695352E-01 -0.11092437367E+00  0.12924533105E+00  0.31827618943E-01 0.  0.
         14    1    1    2    0    0  0.19001263118E-01 -0.11432869095E-01 -0.76865935241E-02  0.23470028032E-01  0.00000000000E+00 0.  1.
     999901    1    3    3    0    0 -0.76124170127E-01  0.29217374312E-03  0.11861096719E+00  0.89121464091E+00  0.88000000000E+00 0.  1.
        -11    1    4    4    0    0  0.24651231068E-01  0.10099214167E-01 -0.80263357598E-01  0.84570355408E-01  0.51100000000E-03 0.  1.
         11    1    4    4    0    0  0.32471675942E-01  0.10414811843E-02 -0.30661016069E-01  0.44674975645E-01  0.51100000000E-03 0. -1.
</event>
<event>
 8    1  0.1075206E+005  0.1043930E+01  0.7957747E-01            NaN
         13   -1    0    0    0    0  0.00000000000E+00  0.00000000000E+00  0.74505805969E-08  0.10566000000E+00  0.10566000000E+00 0.  1.
     999900   -1    0    0    0    0 -0.00000000000E+00 -0.00000000000E+00 -0.74505805969E-08  0.93827000000E+00  0.93827000000E+00 0.  1.
     999902    2    1    2    0    0  0.44841554291E-02  0.55125963429E-03  0.23056395937E-01  0.10204351297E+01  0.10201646166E+01 0.  0.
     999903    2    3    3    0    0 -0.58766477343E-01 -0.74622575108E-01  0.90000779968E-01  0.13244115532E+00  0.20457068510E-01 0.  0.
         14    1    1    2    0    0 -0.44841554291E-02 -0.55125963429E-03 -0.23056395937E-01  0.23494870306E-01  0.00000000000E+00 0. -1.
     999901    1    3    3    0    0  0.63250632772E-01  0.75173834742E-01 -0.66944384031E-01  0.88799397438E+00  0.88000000000E+00 0.  1.
        -11    1    4    4    0    0 -0.26508098110E-01 -0.48854159079E-01  0.56635547831E-01  0.79355242573E-01  0.51100000000E-03 0. -1.
         11    1    4    4    0    0 -0.32258379233E-01 -0.25768416029E-01  0.33365232137E-01  0.53085912744E-01  0.51100000000E-03 0.  1.
</event>
<event>
 8    1  0.1075206E+005  0.1043930E+01  0.7957747E-01            NaN
         13   -1    0    0    0    0  0.00000000000E+00  0.00000000000E+00  0.74505805969E-08  0.10566000000E+00  0.10566000000E+00 0.  1.
     999900   -1    0    0    0    0 -0.00000000000E+00 -0.00000000000E+00 -0.74505805969E-08  0.93827000000E+00  0.93827000000E+00 0. -1.
     999902    2    1    2    0    0 -0.94208628158E-03 -0.12406765132E-01 -0.20309491161E-01  0.10201121332E+01  0.10198340421E+01 0.  0.
     999903    2    3    3    0    0 -0.32273446328E-01 -0.10905741025E+00  0.60790000826E-01  0.13056161247E+00  0.20391576277E-01 0.  0.
         14    1    1    2    0    0  0.94208628158E-03  0.12406765132E-01  0.20309491161E-01  0.23817866799E-01  0.00000000000E+00 0.  1.
     999901    1    3    3    0    0  0.31331360046E-01  0.96650645118E-01 -0.81099491988E-01  0.88955052073E+00  0.88000000000E+00 0.  1.
        -11    1    4    4    0    0 -0.19238011335E-01 -0.42931809099E-01  0.16253770529E-01  0.49776374819E-01  0.51100000000E-03 0.  1.
         11    1    4    4    0    0 -0.13035434993E-01 -0.66125601151E-01  0.44536230297E-01  0.80785237656E-01  0.51100000000E-03 0. -1.
</event>
<event>
 8    1  0.1075206E+005  0.1043930E+01  0.7957747E-01            NaN
         13   -1    0    0    0    0  0.00000000000E+00  0.00000000000E+00  0.74505805969E-08  0.10566000000E+00  0.10566000000E+00 0.  1.
     999900   -1    0    0    0    0 -0.00000000000E+00 -0.00000000000E+00 -0.74505805969E-08  0.93827000000E+00  0.93827000000E+00 0.  1.
     999902    2    1    2    0    0 -0.86378047162E-02  0.45179767664E-02  0.21911917810E-01  0.10199475913E+01  0.10196655987E+01 0.  0.
     999903    2    3    3    0    0 -0.10232818660E+00 -0.47457820959E-01  0.66580094196E-01  0.13232457607E+00  0.18803774779E-01 0.  0.
         14    1    1    2    0    0  0.86378047162E-02 -0.45179767664E-02 -0.21911917810E-01  0.23982408688E-01  0.00000000000E+00 0. -1.
     999901    1    3    3    0    0  0.93690381883E-01  0.51975797726E-01 -0.44668176385E-01  0.88762301524E+00  0.88000000000E+00 0.  1.
        -11    1    4    4    0    0 -0.38594437074E-01 -0.21903805969E-01  0.36045916424E-01  0.57174089418E-01  0.51100000000E-03 0.  1.
         11    1    4    4    0    0 -0.63733749525E-01 -0.25554014991E-01  0.30534177771E-01  0.75150486651E-01  0.51100000000E-03 0. -1.
</event>
<event>
 8    1  0.1075206E+005  0.1043930E+01  0.7957747E-01            NaN
         13   -1    0    0    0    0  0.00000000000E+00  0.00000000000E+00  0.74505805969E-08  0.10566000000E+00  0.10566000000E+00 0.  1.
     999900   -1    0    0    0    0 -0.00000000000E+00 -0.00000000000E+00 -0.74505805969E-08  0.93827000000E+00  0.93827000000E+00 0.  1.
     999902    2    1    2    0    0  0.12474846340E-01 -0.16226884963E-01 -0.11583062460E-01  0.10204119022E+01  0.10201408478E+01 0.  0.
     999903    2    3    3    0    0 -0.92707981730E-01  0.86353778289E-01 -0.18517092439E-02  0.12817823383E+00  0.19351638144E-01 0.  0.
         14    1    1    2    0    0 -0.12474846340E-01  0.16226884963E-01  0.11583062460E-01  0.23518097771E-01  0.00000000000E+00 0.  1.
     999901    1    3    3    0    0  0.10518282807E+00 -0.10258066325E+00 -0.97313532159E-02  0.89223366840E+00  0.88000000000E+00 0.  1.
        -11    1    4    4    0    0 -0.36869849456E-01  0.28064697297E-01  0.74131961898E-02  0.46927919537E-01  0.51100000000E-03 0.  1.
         11    1    4    4    0    0 -0.55838132274E-01  0.58289080991E-01 -0.92649054337E-02  0.81250314291E-01  0.51100000000E-03 0. -1.
</event>
<event>
 8    1  0.1075206E+005  0.1043930E+01  0.7957747E-01            NaN
         13   -1    0    0    0    0  0.00000000000E+00  0.00000000000E+00  0.74505805969E-08  0.10566000000E+00  0.10566000000E+00 0.  1.
     999900   -1    0    0    0    0 -0.00000000000E+00 -0.00000000000E+00 -0.74505805969E-08  0.93827000000E+00  0.93827000000E+00 0. -1.
     999902    2    1    2    0    0  0.18637663046E-01  0.10059228021E-01  0.10201972566E-01  0.10204218993E+01  0.10201510780E+01 0.  0.
     999903    2    3    3    0    0 -0.27141941927E-01  0.75389522084E-01  0.10287396310E+00  0.13196710737E+00  0.20297785423E-01 0.  0.
         14    1    1    2    0    0 -0.18637663046E-01 -0.10059228021E-01 -0.10201972566E-01  0.23508100655E-01  0.00000000000E+00 0. -1.
     999901    1    3    3    0    0  0.45779604973E-01 -0.65330294063E-01 -0.92671990530E-01  0.88845479197E+00  0.88000000000E+00 0. -1.
        -11    1    4    4    0    0  0.13507906246E-03 -0.90915917035E-03  0.39790356883E-02  0.41156606710E-02  0.51100000000E-03 0. -1.
         11    1    4    4    0    0 -0.27277020989E-01  0.76298681254E-01  0.98894927407E-01  0.12785144670E+00  0.51100000000E-03 0.  1.
</event>
<event>
 8    1  0.1075206E+005  0.1043930E+01  0.7957747E-01            NaN
         13   -1    0    0    0    0  0.00000000000E+00  0.00000000000E+00  0.74505805969E-08  0.10566000000E+00  0.10566000000E+00 0. -1.
     999900   -1    0    0    0    0 -0.00000000000E+00 -0.00000000000E+00 -0.74505805969E-08  0.93827000000E+00  0.93827000000E+00 0.  1.
     999902    2    1    2    0    0  0.13978707227E-01  0.11294928082E-01  0.15530974612E-01  0.10201772985E+01  0.10199007449E+01 0.  0.
     999903    2    3    3    0    0  0.54795124208E-01  0.65544632218E-01  0.10092111974E+00  0.13344143750E+00  0.17970542139E-01 0.  0.
         14    1    1    2    0    0 -0.13978707227E-01 -0.11294928082E-01 -0.15530974612E-01  0.23752701499E-01  0.00000000000E+00 0.  1.
     999901    1    3    3    0    0 -0.40816416981E-01 -0.54249704136E-01 -0.85390145125E-01  0.88673586100E+00  0.88000000000E+00 0.  1.
        -11    1    4    4    0    0  0.34225091503E-01  0.44569721558E-01  0.78203110558E-01  0.96300594962E-01  0.51100000000E-03 0. -1.
         11    1    4    4    0    0  0.20570032705E-01  0.20974910660E-01  0.22718009178E-01  0.37140842542E-01  0.51100000000E-03 0.  1.
</event>
<event>
 8    1  0.1075206E+005  0.1043930E+01  0.7957747E-01            NaN
         13   -1    0    0    0    0  0.00000000000E+00  0.00000000000E+00  0.74505805969E-08  0.10566000000E+00  0.10566000000E+00 0.  1.
     999900   -1    0    0    0    0 -0.00000000000E+00 -0.00000000000E+00 -0.74505805969E-08  0.93827000000E+00  0.93827000000E+00 0. -1.
     999902    2    1    2    0    0 -0.17894872041E-01  0.97253961158E-02 -0.10638756785E-01  0.10209519035E+01  0.10206932920E+01 0.  0.
     999903    2    3    3    0    0  0.78023132254E-01 -0.88494684822E-01  0.46948470903E-01  0.12844770927E+00  0.19383928586E-01 0.  0.
         14    1    1    2    0    0  0.17894872041E-01 -0.97253961158E-02  0.10638756785E-01  0.22978096546E-01  0.00000000000E+00 0. -1.
     999901    1    3    3    0    0 -0.95918004295E-01  0.98220080938E-01 -0.57587227687E-01  0.89250419419E+00  0.88000000000E+00 0. -1.
        -11    1    4    4    0    0  0.39241629451E-01 -0.56902551194E-01  0.21943708474E-01  0.72523053417E-01  0.51100000000E-03 0. -1.
         11    1    4    4    0    0  0.38781502803E-01 -0.31592133628E-01  0.25004762429E-01  0.55924655850E-01  0.51100000000E-03 0.  1.
</event>
<event>
 8    1  0.1075206E+005  0.1043930E+01  0.7957747E-01            NaN
         13   -1    0    0    0    0  0.00000000000E+00  0.00000000000E+00  0.74505805969E-08  0.10566000000E+00  0.10566000000E+00 0. -1.
     999900   -1    0    0    0    0 -0.00000000000E+00 -0.00000000000E+00 -0.74505805969E-08  0.93827000000E+00  0.93827000000E+00 0. -1.
     999902    2    1    2    0    0 -0.13629500316E-01 -0.13113961661E-01  0.15895775046E-01  0.10192234233E+01  0.10189239283E+01 0.  0.
     999903    2    3    3    0    0 -0.10710821588E+00 -0.64449873632E-01 -0.35030870480E-01  0.13132299566E+00  0.19814418594E-01 0.  0.
         14    1    1    2    0    0  0.13629500316E-01  0.13113961661E-01 -0.15895775046E-01  0.24706576728E-01  0.00000000000E+00 0.  1.
     999901    1    3    3    0    0  0.93478715561E-01  0.51335911971E-01  0.50926645526E-01  0.88790042761E+00  0.88000000000E+00 0. -1.
        -11    1    4    4    0    0 -0.43340823971E-01 -0.22116118618E-01 -0.43265199748E-02  0.48852119927E-01  0.51100000000E-03 0.  1.
         11    1    4    4    0    0 -0.63767391906E-01 -0.42333755014E-01 -0.30704350505E-01  0.82470875738E-01  0.51100000000E-03 0. -1.
</event>
<event>
 8    1  0.1075206E+005  0.1043930E+01  0.7957747E-01            NaN
         13   -1    0    0    0    0  0.00000000000E+00  0.00000000000E+00  0.74505805969E-08  0.10566000000E+00  0.10566000000E+00 0.  1.
     999900   -1    0    0    0    0 -0.00000000000E+00 -0.00000000000E+00 -0.74505805969E-08  0.93827000000E+00  0.93827000000E+00 0.  1.
     999902    2    1    2    0    0  0.13400088924E-01 -0.18800686547E-01 -0.22576944588E-02  0.10207324703E+01  0.10204688386E+01 0.  0.
     999903    2    3    3    0    0 -0.88216953087E-01 -0.57521377182E-01  0.72703465256E-01  0.13087602654E+00  0.27418986459E-01 0.  0.
         14    1    1    2    0    0 -0.13400088924E-01  0.18800686547E-01  0.22576944588E-02  0.23197529655E-01  0.00000000000E+00 0. -1.
     999901    1    3    3    0    0  0.10161704201E+00  0.38720690635E-01 -0.74961159715E-01  0.88985644380E+00  0.88000000000E+00 0.  1.
        -11    1    4    4    0    0 -0.75060873641E-01 -0.37247335992E-01  0.62958033564E-01  0.10481161148E+00  0.51100000000E-03 0. -1.
         11    1    4    4    0    0 -0.13156079446E-01 -0.20274041190E-01  0.97454316921E-02  0.26064415060E-01  0.51100000000E-03 0.  1.
</event>
<event>
 8    1  0.1075206E+005  0.1043930E+01  0.7957747E-01            NaN
         13   -1    0    0    0    0  0.00000000000E+00  0.00000000000E+00  0.74505805969E-08  0.10566000000E+00  0.10566000000E+00 0. -1.
     999900   -1    0    0    0    0 -0.00000000000E+00 -0.00000000000E+00 -0.74505805969E-08  0.93827000000E+00  0.93827000000E+00 0.  1.
     999902    2    1    2    0    0 -0.20372263050E-01  0.71984144052E-02 -0.69791347291E-02  0.10212241727E+01  0.10209717216E+01 0.  0.
     999903    2    3    3    0    0 -0.99482646643E-01  0.72921213765E-01  0.47081104726E-01  0.13358660667E+00  0.20358061263E-01 0.  0.
         14    1    1    2    0    0  0.20372263050E-01 -0.71984144052E-02  0.69791347291E-02  0.22705827298E-01  0.00000000000E+00 0.  1.
     999901    1    3    3    0    0  0.79110383593E-01 -0.65722799360E-01 -0.54060239455E-01  0.88763756604E+00  0.88000000000E+00 0. -1.
        -11    1    4    4    0    0 -0.62984371097E-01  0.34103579129E-01  0.29692210485E-01  0.77536917636E-01  0.51100000000E-03 0.  1.
         11    1    4    4    0    0 -0.36498275545E-01  0.38817634636E-01  0.17388894241E-01  0.56049689030E-01  0.51100000000E-03 0. -1.
</event>
<event>
 8    1  0.1075206E+005  0.1043930E+01  0.7957747E-01            NaN
         13   -1    0    0    0    0  0.00000000000E+00  0.00000000000E+00  0.74505805969E-08  0.10566000000E+00  0.10566000000E+00 0.  1.
     999900   -1    0    0    0    0 -0.00000000000E+00 -0.00000000000E+00 -0.74505805969E-08  0.93827000000E+00  0.93827000000E+00 0.  1.
     999902    2    1    2    0    0  0.23962111515E-01  0.24560652805E-02  0.11911108563E-01  0.10170582760E+01  0.10167032247E+01 0.  0.
     999903    2    3    3    0    0 -0.52655087991E-01  0.99688926771E-01  0.55580785057E-01  0.12732153668E+00  0.20275838375E-01 0.  0.
         14    1    1    2    0    0 -0.23962111515E-01 -0.24560652805E-02 -0.11911108563E-01  0.26871724026E-01  0.00000000000E+00 0.  1.
     999901    1    3    3    0    0  0.76617199506E-01 -0.97232861490E-01 -0.43669676494E-01  0.88973673930E+00  0.88000000000E+00 0.  1.
        -11    1    4    4    0    0 -0.26489108867E-02  0.30004329534E-02 -0.16249691164E-02  0.43498244128E-02  0.51100000000E-03 0. -1.
         11    1    4    4    0    0 -0.50006177104E-01  0.96688493817E-01  0.57205754173E-01  0.12297171226E+00  0.51100000000E-03 0.  1.
</event>
<event>
 8    1  0.1075206E+005  0.1043930E+01  0.7957747E-01            NaN
         13   -1    0    0    0    0  0.00000000000E+00  0.00000000000E+00  0.74505805969E-08  0.10566000000E+00  0.10566000000E+00 0.  1.
     999900   -1    0    0    0    0 -0.00000000000E+00 -0.00000000000E+00 -0.74505805969E-08  0.93827000000E+00  0.93827000000E+00 0.  1.
     999902    2    1    2    0    0 -0.12651880100E-01 -0.77986259708E-02  0.17946047931E-01  0.10206287281E+01  0.10203627058E+01 0.  0.
     999903    2    3    3    0    0 -0.16935506996E-01  0.98728774821E-01  0.83284759427E-01  0.13178926912E+00  0.19946877609E-01 0.  0.
         14    1    1    2    0    0  0.12651880100E-01  0.77986259708E-02 -0.17946047931E-01  0.23301271928E-01  0.00000000000E+00 0. -1.
     999901    1    3    3    0    0  0.42836268959E-02 -0.10652740079E+00 -0.65338711496E-01  0.88883945896E+00  0.88000000000E+00 0.  1.
        -11    1    4    4    0    0  0.10474752767E-03  0.57471469271E-01  0.45490033129E-01  0.73297919393E-01  0.51100000000E-03 0.  1.
         11    1    4    4    0    0 -0.17040254524E-01  0.41257305550E-01  0.37794726298E-01  0.58491349723E-01  0.51100000000E-03 0. -1.
</event>
<event>
 8    1  0.1075206E+005  0.1043930E+01  0.7957747E-01            NaN
         13   -1    0    0    0    0  0.00000000000E+00  0.00000000000E+00  0.74505805969E-08  0.10566000000E+00  0.10566000000E+00 0.  1.
     999900   -1    0    0    0    0 -0.00000000000E+00 -0.00000000000E+00 -0.74505805969E-08  0.93827000000E+00  0.93827000000E+00 0.  1.
     999902    2    1    2    0    0 -0.14647286664E-01 -0.22675506466E-02 -0.18255227893E-01  0.10204153633E+01  0.10201443896E+01 0.  0.
     999903    2    3    3    0    0 -0.12854737483E+00 -0.23177672014E-01 -0.13985944981E-01  0.13281821933E+00  0.19581641207E-01 0.  0.
         14    1    1    2    0    0  0.14647286664E-01  0.22675506466E-02  0.18255227893E-01  0.23514636675E-01  0.00000000000E+00 0.  1.
     999901    1    3    3    0    0  0.11390008817E+00  0.20910121368E-01 -0.42692829119E-02  0.88759714400E+00  0.88000000000E+00 0.  1.
        -11    1    4    4    0    0 -0.49172638367E-01 -0.68033404722E-02 -0.14676108396E-01  0.51767587197E-01  0.51100000000E-03 0.  1.
         11    1    4    4    0    0 -0.79374736462E-01 -0.16374331542E-01  0.69016341524E-03  0.81050632128E-01  0.51100000000E-03 0. -1.
</event>
<event>
 8    1  0.1075206E+005  0.1043930E+01  0.7957747E-01            NaN
         13   -1    0    0    0    0  0.00000000000E+00  0.00000000000E+00  0.74505805969E-08  0.10566000000E+00  0.10566000000E+00 0.  1.
     999900   -1    0    0    0    0 -0.00000000000E+00 -0.00000000000E+00 -0.74505805969E-08  0.93827000000E+00  0.93827000000E+00 0.  1.
     999902    2    1    2    0    0 -0.59289945351E-02  0.21929684640E-01  0.47296294156E-02  0.10207258314E+01  0.10204620471E+01 0.  0.
     999903    2    3    3    0    0  0.76286635818E-02 -0.11016231349E+00 -0.62088005937E-01  0.12825919202E+00  0.20039162514E-01 0.  0.
         14    1    1    2    0    0  0.59289945351E-02 -0.21929684640E-01 -0.47296294156E-02  0.23204168570E-01  0.00000000000E+00 0. -1.
     999901    1    3    3    0    0 -0.13557658117E-01  0.13209199813E+00  0.66817635352E-01  0.89246663941E+00  0.88000000000E+00 0. -1.
        -11    1    4    4    0    0  0.98086778796E-02 -0.60916966006E-01 -0.25029035272E-01  0.66586790258E-01  0.51100000000E-03 0.  1.
         11    1    4    4    0    0 -0.21800142978E-02 -0.49245347488E-01 -0.37058970665E-01  0.61672401763E-01  0.51100000000E-03 0. -1.
</event>
<event>
 8    1  0.1075206E+005  0.1043930E+01  0.7957747E-01            NaN
         13   -1    0    0    0    0  0.00000000000E+00  0.00000000000E+00  0.74505805969E-08  0.10566000000E+00  0.10566000000E+00 0.  1.
     999900   -1    0    0    0    0 -0.00000000000E+00 -0.00000000000E+00 -0.74505805969E-08  0.93827000000E+00  0.93827000000E+00 0.  1.
     999902    2    1    2    0    0 -0.17780089876E-01 -0.10447140198E-01 -0.10659810639E-01  0.10207156532E+01  0.10204516347E+01 0.  0.
     999903    2    3    3    0    0  0.55436023934E-01 -0.46023444316E-01 -0.10814082239E+00  0.13159877653E+00  0.20796402124E-01 0.  0.
         14    1    1    2    0    0  0.17780089876E-01  0.10447140198E-01  0.10659810639E-01  0.23214346796E-01  0.00000000000E+00 0.  1.
     999901    1    3    3    0    0 -0.73216113809E-01  0.35576304117E-01  0.97481011748E-01  0.88911687667E+00  0.88000000000E+00 0. -1.
        -11    1    4    4    0    0  0.42673184521E-01 -0.25107616198E-01 -0.61921091351E-01  0.79283514954E-01  0.51100000000E-03 0.  1.
         11    1    4    4    0    0  0.12762839413E-01 -0.20915828117E-01 -0.46219731036E-01  0.52315261576E-01  0.51100000000E-03 0. -1.
</event>
<event>
 8    1  0.1075206E+005  0.1043930E+01  0.7957747E-01            NaN
         13   -1    0    0    0    0  0.00000000000E+00  0.00000000000E+00  0.74505805969E-08  0.10566000000E+00  0.10566000000E+00 0.  1.
     999900   -1    0    0    0    0 -0.00000000000E+00 -0.00000000000E+00 -0.74505805969E-08  0.93827000000E+00  0.93827000000E+00 0.  1.
     999902    2    1    2    0    0  0.14975887199E-03  0.16672364651E-01  0.15540215923E-01  0.10211377100E+01  0.10208833109E+01 0.  0.
     999903    2    3    3    0    0  0.12526043001E+00 -0.85384454294E-02 -0.30464068131E-01  0.13074192213E+00  0.20057676297E-01 0.  0.
         14    1    1    2    0    0 -0.14975887199E-03 -0.16672364651E-01 -0.15540215923E-01  0.22792289962E-01  0.00000000000E+00 0. -1.
     999901    1    3    3    0    0 -0.12511067114E+00  0.25210810081E-01  0.46004284054E-01  0.89039578791E+00  0.88000000000E+00 0.  1.
        -11    1    4    4    0    0  0.10741219552E+00 -0.54475774119E-02 -0.18775129269E-01  0.10917793938E+00  0.51100000000E-03 0.  1.
         11    1    4    4    0    0  0.17848234488E-01 -0.30908680176E-02 -0.11688938862E-01  0.21563982753E-01  0.51100000000E-03 0. -1.
</event>
<event>
 8    1  0.1075206E+005  0.1043930E+01  0.7957747E-01            NaN
         13   -1    0    0    0    0  0.00000000000E+00  0.00000000000E+00  0.74505805969E-08  0.10566000000E+00  0.10566000000E+00 0. -1.
     999900   -1    0    0    0    0 -0.00000000000E+00 -0.00000000000E+00 -0.74505805969E-08  0.93827000000E+00  0.93827000000E+00 0.  1.
     999902    2    1    2    0    0 -0.18663195306E-01 -0.12303280446E-01  0.11973137100E-01  0.10185717355E+01  0.10182560281E+01 0.  0.
     999903    2    3    3    0    0  0.36774727204E-01  0.11186391219E+00  0.44885194309E-01  0.12751951561E+00  0.19509761206E-01 0.  0.
         14    1    1    2    0    0  0.18663195306E-01  0.12303280446E-01 -0.11973137100E-01  0.25358264546E-01  0.00000000000E+00 0.  1.
     999901    1    3    3    0    0 -0.55437922510E-01 -0.12416719263E+00 -0.32912057209E-01  0.89105221984E+00  0.88000000000E+00 0.  1.
        -11    1    4    4    0    0  0.12799504060E-01  0.17859400663E-01  0.44993887304E-02  0.22434150667E-01  0.51100000000E-03 0. -1.
         11    1    4    4    0    0  0.23975223144E-01  0.94004511525E-01  0.40385805579E-01  0.10508536494E+00  0.51100000000E-03 0.  1.
</event>
<event>
 8    1  0.1075206E+005  0.1043930E+01  0.7957747E-01            NaN
         13   -1    0    0    0    0  0.00000000000E+00  0.00000000000E+00  0.74505805969E-08  0.10566000000E+00  0.10566000000E+00 0.  1.
     999900   -1    0    0    0    0 -0.00000000000E+00 -0.00000000000E+00 -0.74505805969E-08  0.93827000000E+00  0.93827000000E+00 0.  1.
     999902    2    1    2    0    0 -0.23535766191E-01  0.39306417905E-02  0.51106261590E-02  0.10195271163E+01  0.10192350269E+01 0.  0.
     999903    2    3    3    0    0  0.61431844230E-01 -0.92764693692E-01  0.60904097354E-01  0.12841410763E+00  0.20042806248E-01 0.  0.
         14    1    1    2    0    0  0.23535766191E-01 -0.39306417905E-02 -0.51106261590E-02  0.24402883740E-01  0.00000000000E+00 0. -1.
     999901    1    3    3    0    0 -0.84967610421E-01  0.96695335482E-01 -0.55793471195E-01  0.89111300863E+00  0.88000000000E+00 0. -1.
        -11    1    4    4    0    0  0.44196037912E-01 -0.61583217817E-01  0.51235813245E-01  0.91494000698E-01  0.51100000000E-03 0. -1.
         11    1    4    4    0    0  0.17235806318E-01 -0.31181475874E-01  0.96682841089E-02  0.36920106930E-01  0.51100000000E-03 0.  1.
</event>
<event>
 8    1  0.1075206E+005  0.1043930E+01  0.7957747E-01            NaN
         13   -1    0    0    0    0  0.00000000000E+00  0.00000000000E+00  0.74505805969E-08  0.10566000000E+00  0.10566000000E+00 0. -1.
     999900   -1    0    0    0    0 -0.00000000000E+00 -0.00000000000E+00 -0.74505805969E-08  0.93827000000E+00  0.93827000000E+00 0. -1.
     999902    2    1    2    0    0  0.93994188175E-02  0.50611956636E-02  0.20563981446E-01  0.10207601466E+01  0.10204971508E+01 0.  0.
     999903    2    3    3    0    0  0.10810641228E+00 -0.71766197829E-01  0.19092854207E-01  0.13191388135E+00  0.14119188579E-01 0.  0.
         14    1    1    2    0    0 -0.93994188175E-02 -0.50611956636E-02 -0.20563981446E-01  0.23169853443E-01  0.00000000000E+00 0.  1.
     999901    1    3    3    0    0 -0.98706993460E-01  0.76827393492E-01  0.14711272388E-02  0.88884626520E+00  0.88000000000E+00 0. -1.
        -11    1    4    4    0    0  0.55425000530E-01 -0.29189890351E-01  0.12267512095E-01  0.63833638126E-01  0.51100000000E-03 0. -1.
         11    1    4    4    0    0  0.52681411747E-01 -0.42576307478E-01  0.68253421121E-02  0.68080243228E-01  0.51100000000E-03 0.  1.
</event>
<event>
 8    1  0.1075206E+005  0.1043930E+01  0.7957747E-01            NaN
         13   -1    0    0    0    0  0.00000000000E+00  0.00000000000E+00  0.74505805969E-08  0.10566000000E+00  0.10566000000E+00 0.  1.
     999900   -1    0    0    0    0 -0.00000000000E+00 -0.00000000000E+00 -0.74505805969E-08  0.93827000000E+00  0.93827000000E+00 0.  1.
     999902    2    1    2    0    0  0.12623597405E-01 -0.19431115939E-01  0.89071253712E-02  0.10191054082E+01  0.10188030097E+01 0.  0.
     999903    2    3    3    0    0  0.73881695498E-01  0.70645901861E-01  0.77431700140E-01  0.12974494070E+00  0.19716314847E-01 0.  0.
         14    1    1    2    0    0 -0.12623597405E-01  0.19431115939E-01 -0.89071253712E-02  0.24824591849E-01  0.00000000000E+00 0. -1.
     999901    1    3    3    0    0 -0.61258098093E-01 -0.90077017800E-01 -0.68524574769E-01  0.88936046745E+00  0.88000000000E+00 0. -1.
        -11    1    4    4    0    0  0.60935704130E-01  0.64602768772E-01  0.72428721197E-01  0.11459868475E+00  0.51100000000E-03 0. -1.
         11    1    4    4    0    0  0.12945991368E-01  0.60431330892E-02  0.50029789431E-02  0.15146255951E-01  0.51100000000E-03 0.  1.
</event>
<event>
 8    1  0.1075206E+005  0.1043930E+01  0.7957747E-01            NaN
         13   -1    0    0    0    0  0.00000000000E+00  0.00000000000E+00  0.74505805969E-08  0.10566000000E+00  0.10566000000E+00 0. -1.
     999900   -1    0    0    0    0 -0.00000000000E+00 -0.00000000000E+00 -0.74505805969E-08  0.93827000000E+00  0.93827000000E+00 0.  1.
     999902    2    1    2    0    0 -0.22599052757E-02 -0.12923459184E-01 -0.19845949387E-01  0.10201395675E+01  0.10198621243E+01 0.  0.
     999903    2    3    3    0    0 -0.12919513459E-01  0.12346486905E+00 -0.30718404620E-01  0.12950293367E+00  0.20418171529E-01 0.  0.
         14    1    1    2    0    0  0.22599052757E-02  0.12923459184E-01  0.19845949387E-01  0.23790432451E-01  0.00000000000E+00 0. -1.
     999901    1    3    3    0    0  0.10659608183E-01 -0.13638832824E+00  0.10872455232E-01  0.89063663388E+00  0.88000000000E+00 0.  1.
        -11    1    4    4    0    0 -0.16832646739E-01  0.78832188543E-01 -0.24596182862E-01  0.84279803507E-01  0.51100000000E-03 0.  1.
         11    1    4    4    0    0  0.39131332803E-02  0.44632680508E-01 -0.61222217577E-02  0.45223130162E-01  0.51100000000E-03 0. -1.
</event>
<event>
 8    1  0.1075206E+005  0.1043930E+01  0.7957747E-01            NaN
         13   -1    0    0    0    0  0.00000000000E+00  0.00000000000E+00  0.74505805969E-08  0.10566000000E+00  0.10566000000E+00 0.  1.
     999900   -1    0    0    0    0 -0.00000000000E+00 -0.00000000000E+00 -0.74505805969E-08  0.93827000000E+00  0.93827000000E+00 0.  1.
     999902    2    1    2    0    0  0.10174100506E-01  0.22560707191E-01 -0.28762825873E-02  0.10190147269E+01  0.10187100878E+01 0.  0.
     999903    2    3    3    0    0  0.74242909008E-01 -0.73270988526E-01 -0.72718915726E-01  0.12875267590E+00  0.20212954966E-01 0.  0.
         14    1    1    2    0    0 -0.10174100506E-01 -0.22560707191E-01  0.28762825873E-02  0.24915273059E-01  0.00000000000E+00 0.  1.
     999901    1    3    3    0    0 -0.64068808502E-01  0.95831695717E-01  0.69842633139E-01  0.89026205104E+00  0.88000000000E+00 0. -1.
        -11    1    4    4    0    0  0.33883154199E-01 -0.41701431960E-01 -0.27264859638E-01  0.60255383643E-01  0.51100000000E-03 0.  1.
         11    1    4    4    0    0  0.40359754810E-01 -0.31569556566E-01 -0.45454056088E-01  0.68497292253E-01  0.51100000000E-03 0. -1.
</event>
<event>
 8    1  0.1075206E+005  0.1043930E+01  0.7957747E-01            NaN
         13   -1    0    0    0    0  0.00000000000E+00  0.00000000000E+00  0.74505805969E-08  0.10566000000E+00  0.10566000000E+00 0.  1.
     999900   -1    0    0    0    0 -0.00000000000E+00 -0.00000000000E+00 -0.74505805969E-08  0.93827000000E+00  0.93827000000E+00 0.  1.
     999902    2    1    2    0    0 -0.75901064998E-02  0.16557282676E-01  0.17778145244E-01  0.10184777747E+01  0.10181596936E+01 0.  0.
     999903    2    3    3    0    0  0.75081296899E-01 -0.78746840013E-01  0.64697296710E-01  0.12824250041E+00  0.20545869533E-01 0.  0.
         14    1    1    2    0    0  0.75901064998E-02 -0.16557282676E-01 -0.17778145244E-01  0.25452225337E-01  0.00000000000E+00 0. -1.
     999901    1    3    3    0    0 -0.82671403399E-01  0.95304122689E-01 -0.46919151466E-01  0.89023527425E+00  0.88000000000E+00 0.  1.
        -11    1    4    4    0    0  0.32710522754E-01 -0.20881261865E-01  0.26378567386E-01  0.46926488621E-01  0.51100000000E-03 0.  1.
         11    1    4    4    0    0  0.42370774145E-01 -0.57865578148E-01  0.38318729324E-01  0.81316011794E-01  0.51100000000E-03 0. -1.
</event>
<event>
 8    1  0.1075206E+005  0.1043930E+01  0.7957747E-01            NaN
         13   -1    0    0    0    0  0.00000000000E+00  0.00000000000E+00  0.74505805969E-08  0.10566000000E+00  0.10566000000E+00 0. -1.
     999900   -1    0    0    0    0 -0.00000000000E+00 -0.00000000000E+00 -0.74505805969E-08  0.93827000000E+00  0.93827000000E+00 0.  1.
     999902    2    1    2    0    0  0.66053561645E-02  0.16912550268E-01  0.14818981938E-01  0.10204935474E+01  0.10202243934E+01 0.  0.
     999903    2    3    3    0    0  0.11369378458E-01  0.83566082642E-01  0.10200700217E+00  0.13366372143E+00  0.18654999350E-01 0.  0.
         14    1    1    2    0    0 -0.66053561645E-02 -0.16912550268E-01 -0.14818981938E-01  0.23436452639E-01  0.00000000000E+00 0.  1.
     999901    1    3    3    0    0 -0.47640222932E-02 -0.66653532374E-01 -0.87188020231E-01  0.88682982593E+00  0.88000000000E+00 0. -1.
        -11    1    4    4    0    0 -0.83926065802E-03  0.39097995057E-01  0.57744699334E-01  0.69742877759E-01  0.51100000000E-03 0.  1.
         11    1    4    4    0    0  0.12208639116E-01  0.44468087586E-01  0.44262302834E-01  0.63920843672E-01  0.51100000000E-03 0. -1.
</event>
<event>
 8    1  0.1075206E+005  0.1043930E+01  0.7957747E-01            NaN
         13   -1    0    0    0    0  0.00000000000E+00  0.00000000000E+00  0.74505805969E-08  0.10566000000E+00  0.10566000000E+00 0. -1.
     999900   -1    0    0    0    0 -0.00000000000E+00 -0.00000000000E+00 -0.74505805969E-08  0.93827000000E+00  0.93827000000E+00 0. -1.
     999902    2    1    2    0    0 -0.10355085025E-01 -0.12322829736E-01  0.17809620983E-01  0.10199245315E+01  0.10196419898E+01 0.  0.
     999903    2    3    3    0    0  0.61104270295E-01  0.64563962229E-01 -0.88813851012E-01  0.12729550271E+00  0.20347181940E-01 0.  0.
         14    1    1    2    0    0  0.10355085025E-01  0.12322829736E-01 -0.17809620983E-01  0.24005468505E-01  0.00000000000E+00 0.  1.
     999901    1    3    3    0    0 -0.71459355319E-01 -0.76886791965E-01  0.10662347200E+00  0.89262902878E+00  0.88000000000E+00 0.  1.
        -11    1    4    4    0    0  0.31107924133E-01  0.27957051797E-01 -0.28437949906E-01  0.50579420765E-01  0.51100000000E-03 0.  1.
         11    1    4    4    0    0  0.29996346162E-01  0.36606910431E-01 -0.60375901106E-01  0.76716081950E-01  0.51100000000E-03 0. -1.
</event>
<event>
 8    1  0.1075206E+005  0.1043930E+01  0.7957747E-01            NaN
         13   -1    0    0    0    0  0.00000000000E+00  0.00000000000E+00  0.74505805969E-08  0.10566000000E+00  0.10566000000E+00 0.  1.
     999900   -1    0    0    0    0 -0.00000000000E+00 -0.00000000000E+00 -0.74505805969E-08  0.93827000000E+00  0.93827000000E+00 0. -1.
     999902    2    1    2    0    0 -0.11292735167E-01 -0.18227735995E-01  0.11729089065E-01  0.10194893012E+01  0.10191962949E+01 0.  0.
     999903    2    3    3    0    0 -0.16828188499E-01 -0.93138833097E-03  0.12874325419E+00  0.13155793014E+00  0.21180369984E-01 0.  0.
         14    1    1    2    0    0  0.11292735167E-01  0.18227735995E-01 -0.11729089065E-01  0.24440698790E-01  0.00000000000E+00 0. -1.
     999901    1    3    3    0    0  0.55354533322E-02 -0.17296347664E-01 -0.11701416512E+00  0.88793137107E+00  0.88000000000E+00 0. -1.
        -11    1    4    4    0    0 -0.10013909511E-02  0.76559443353E-02  0.59867521270E-01  0.60365532314E-01  0.51100000000E-03 0.  1.
         11    1    4    4    0    0 -0.15826797548E-01 -0.85873326662E-02  0.68875732916E-01  0.71192397829E-01  0.51100000000E-03 0. -1.
</event>
<event>
 8    1  0.1075206E+005  0.1043930E+01  0.7957747E-01            NaN
         13   -1    0    0    0    0  0.00000000000E+00  0.00000000000E+00  0.74505805969E-08  0.10566000000E+00  0.10566000000E+00 0. -1.
     999900   -1    0    0    0    0 -0.00000000000E+00 -0.00000000000E+00 -0.74505805969E-08  0.93827000000E+00  0.93827000000E+00 0.  1.
     999902    2    1    2    0    0 -0.11524136389E-01  0.15487783625E-01 -0.10670415923E-01  0.10218724630E+01  0.10216343748E+01 0.  0.
     999903    2    3    3    0    0  0.82696685805E-01 -0.58013389028E-02 -0.10095664136E+00  0.13199472279E+00  0.18919990301E-01 0.  0.
         14    1    1    2    0    0  0.11524136389E-01 -0.15487783625E-01  0.10670415923E-01  0.22057536968E-01  0.00000000000E+00 0. -1.
     999901    1    3    3    0    0 -0.94220822194E-01  0.21289122528E-01  0.90286225441E-01  0.88987774024E+00  0.88000000000E+00 0. -1.
        -11    1    4    4    0    0  0.39211551716E-01  0.14384094383E-02 -0.34536041896E-01  0.52274411718E-01  0.51100000000E-03 0. -1.
         11    1    4    4    0    0  0.43485134089E-01 -0.72397483411E-02 -0.66420599468E-01  0.79720311073E-01  0.51100000000E-03 0.  1.
</event>
<event>
 8    1  0.1075206E+005  0.1043930E+01  0.7957747E-01            NaN
         13   -1    0    0    0    0  0.00000000000E+00  0.00000000000E+00  0.74505805969E-08  0.10566000000E+00  0.10566000000E+00 0.  1.
     999900   -1    0    0    0    0 -0.00000000000E+00 -0.00000000000E+00 -0.74505805969E-08  0.93827000000E+00  0.93827000000E+00 0. -1.
     999902    2    1    2    0    0  0.17700822449E-01 -0.18029923565E-01 -0.22108017071E-02  0.10185669382E+01  0.10182511099E+01 0.  0.
     999903    2    3    3    0    0 -0.39554449304E-01 -0.10236580089E+00  0.66860120766E-01  0.12999420698E+00  0.19619032805E-01 0.  0.
         14    1    1    2    0    0 -0.17700822449E-01  0.18029923565E-01  0.22108017071E-02  0.25363061790E-01  0.00000000000E+00 0.  1.
     999901    1    3    3    0    0  0.57255271754E-01  0.84335877328E-01 -0.69070922473E-01  0.88857273123E+00  0.88000000000E+00 0. -1.
        -11    1    4    4    0    0 -0.24991313324E-01 -0.38409652627E-01  0.29595464379E-01  0.54552908166E-01  0.51100000000E-03 0.  1.
         11    1    4    4    0    0 -0.14563135980E-01 -0.63956148266E-01  0.37264656387E-01  0.75441298818E-01  0.51100000000E-03 0. -1.
</event>
<event>
 8    1  0.1075206E+005  0.1043930E+01  0.7957747E-01            NaN
         13   -1    0    0    0    0  0.00000000000E+00  0.00000000000E+00  0.74505805969E-08  0.10566000000E+00  0.10566000000E+00 0.  1.
     999900   -1    0    0    0    0 -0.00000000000E+00 -0.00000000000E+00 -0.74505805969E-08  0.93827000000E+00  0.93827000000E+00 0. -1.
     999902    2    1    2    0    0 -0.23573751170E-01  0.83990688784E-02  0.27447127454E-02  0.10187546241E+01  0.10184435108E+01 0.  0.
     999903    2    3    3    0    0  0.41398240334E-01 -0.80551751508E-01 -0.87261044866E-01  0.12733180384E+00  0.19912291282E-01 0.  0.
         14    1    1    2    0    0  0.23573751170E-01 -0.83990688784E-02 -0.27447127454E-02  0.25175375872E-01  0.00000000000E+00 0. -1.
     999901    1    3    3    0    0 -0.64971991503E-01  0.88950820387E-01  0.90005757612E-01  0.89142282029E+00  0.88000000000E+00 0.  1.
        -11    1    4    4    0    0  0.91660946623E-02 -0.39395286221E-01 -0.38371391003E-01  0.55755095160E-01  0.51100000000E-03 0.  1.
         11    1    4    4    0    0  0.32232145671E-01 -0.41156465287E-01 -0.48889653863E-01  0.71576708679E-01  0.51100000000E-03 0. -1.
</event>
<event>
 8    1  0.1075206E+005  0.1043930E+01  0.7957747E-01            NaN
         13   -1    0    0    0    0  0.00000000000E+00  0.00000000000E+00  0.74505805969E-08  0.10566000000E+00  0.10566000000E+00 0. -1.
     999900   -1    0    0    0    0 -0.00000000000E+00 -0.00000000000E+00 -0.74505805969E-08  0.93827000000E+00  0.93827000000E+00 0. -1.
     999902    2    1    2    0    0 -0.13370704626E-01  0.17924773837E-02 -0.19511026750E-01  0.10202093575E+01  0.10199335587E+01 0.  0.
     999903    2    3    3    0    0 -0.92554894002E-01  0.30151270806E-01  0.84260120317E-01  0.13012913188E+00  0.18929224861E-01 0.  0.
         14    1    1    2    0    0  0.13370704626E-01 -0.17924773837E-02  0.19511026750E-01  0.23720642533E-01  0.00000000000E+00 0. -1.
     999901    1    3    3    0    0  0.79184189376E-01 -0.28358793422E-01 -0.10377114707E+00  0.89008022558E+00  0.88000000000E+00 0. -1.
        -11    1    4    4    0    0 -0.36686346274E-01  0.18025053544E-01  0.25686575480E-01  0.48278896415E-01  0.51100000000E-03 0. -1.
         11    1    4    4    0    0 -0.55868547728E-01  0.12126217262E-01  0.58573544838E-01  0.81850235468E-01  0.51100000000E-03 0.  1.
</event>
<event>
 8    1  0.1075206E+005  0.1043930E+01  0.7957747E-01            NaN
         13   -1    0    0    0    0  0.00000000000E+00  0.00000000000E+00  0.74505805969E-08  0.10566000000E+00  0.10566000000E+00 0.  1.
     999900   -1    0    0    0    0 -0.00000000000E+00 -0.00000000000E+00 -0.74505805969E-08  0.93827000000E+00  0.93827000000E+00 0.  1.
     999902    2    1    2    0    0  0.18428357293E-01  0.94960784276E-02 -0.90418750297E-02  0.10213128525E+01  0.10210623915E+01 0.  0.
     999903    2    3    3    0    0  0.38543623637E-01  0.11616240936E+00  0.47912596217E-01  0.13281628980E+00  0.19111088087E-01 0.  0.
         14    1    1    2    0    0 -0.18428357293E-01 -0.94960784276E-02  0.90418750297E-02  0.22617147523E-01  0.00000000000E+00 0.  1.
     999901    1    3    3    0    0 -0.20115266343E-01 -0.10666633093E+00 -0.56954471246E-01  0.88849656268E+00  0.88000000000E+00 0.  1.
        -11    1    4    4    0    0  0.31291409291E-01  0.10902944097E+00  0.46240249171E-01  0.12249486952E+00  0.51100000000E-03 0. -1.
         11    1    4    4    0    0  0.72522143454E-02  0.71329683939E-02  0.16723470458E-02  0.10321420283E-01  0.51100000000E-03 0.  1.
</event>
<event>
 8    1  0.1075206E+005  0.1043930E+01  0.7957747E-01            NaN
         13   -1    0    0    0    0  0.00000000000E+00  0.00000000000E+00  0.74505805969E-08  0.10566000000E+00  0.10566000000E+00 0.  1.
     999900   -1    0    0    0    0 -0.00000000000E+00 -0.00000000000E+00 -0.74505805969E-08  0.93827000000E+00  0.93827000000E+00 0.  1.
     999902    2    1    2    0    0 -0.19788914589E-03  0.11560670334E-01 -0.20265439198E-01  0.10205981273E+01  0.10203313977E+01 0.  0.
     999903    2    3    3    0    0 -0.84293837900E-01  0.53268964610E-01 -0.86112831264E-01  0.13315934660E+00  0.19312125236E-01 0.  0.
         14    1    1    2    0    0  0.19788914589E-03 -0.11560670334E-01  0.20265439198E-01  0.23331872719E-01  0.00000000000E+00 0.  1.
     999901    1    3    3    0    0  0.84095948754E-01 -0.41708294277E-01  0.65847392067E-01  0.88743878068E+00  0.88000000000E+00 0. -1.
        -11    1    4    4    0    0 -0.20298682820E-01  0.16763448541E-01 -0.33577567682E-01  0.42670410165E-01  0.51100000000E-03 0.  1.
         11    1    4    4    0    0 -0.63995155080E-01  0.36505516070E-01 -0.52535263582E-01  0.90488936439E-01  0.51100000000E-03 0. -1.
</event>
<event>
 8    1  0.1075206E+005  0.1043930E+01  0.7957747E-01            NaN
         13   -1    0    0    0    0  0.00000000000E+00  0.00000000000E+00  0.74505805969E-08  0.10566000000E+00  0.10566000000E+00 0. -1.
     999900   -1    0    0    0    0 -0.00000000000E+00 -0.00000000000E+00 -0.74505805969E-08  0.93827000000E+00  0.93827000000E+00 0.  1.
     999902    2    1    2    0    0  0.20084879507E-01 -0.12760918388E-01 -0.71804265450E-03  0.10201232991E+01  0.10198454718E+01 0.  0.
     999903    2    3    3    0    0 -0.28333078452E-01  0.11690917971E+00  0.40079776278E-01  0.12837047738E+00  0.20051717190E-01 0.  0.
         14    1    1    2    0    0 -0.20084879507E-01  0.12760918388E-01  0.71804265450E-03  0.23806700909E-01  0.00000000000E+00 0. -1.
     999901    1    3    3    0    0  0.48417957959E-01 -0.12967009810E+00 -0.40797818933E-01  0.89175282171E+00  0.88000000000E+00 0.  1.
        -11    1    4    4    0    0 -0.26447575512E-01  0.77708946573E-01  0.33078727298E-01  0.88502078781E-01  0.51100000000E-03 0.  1.
         11    1    4    4    0    0 -0.18855029408E-02  0.39200233137E-01  0.70010489798E-02  0.39868398603E-01  0.51100000000E-03 0. -1.
</event>
<event>
 8    1  0.1075206E+005  0.1043930E+01  0.7957747E-01            NaN
         13   -1    0    0    0    0  0.00000000000E+00  0.00000000000E+00  0.74505805969E-08  0.10566000000E+00  0.10566000000E+00 0. -1.
     999900   -1    0    0    0    0 -0.00000000000E+00 -0.00000000000E+00 -0.74505805969E-08  0.93827000000E+00  0.93827000000E+00 0. -1.
     999902    2    1    2    0    0  0.10181210392E-01  0.58782223326E-02  0.20605011814E-01  0.10202070774E+01  0.10199312250E+01 0.  0.
     999903    2    3    3    0    0  0.88411336507E-01 -0.94244104249E-01 -0.20812621038E-02  0.13079204500E+00  0.20092580080E-01 0.  0.
         14    1    1    2    0    0 -0.10181210392E-01 -0.58782223326E-02 -0.20605011814E-01  0.23722922558E-01  0.00000000000E+00 0.  1.
     999901    1    3    3    0    0 -0.78230126115E-01  0.10012232658E+00  0.22686273918E-01  0.88941503244E+00  0.88000000000E+00 0.  1.
        -11    1    4    4    0    0  0.37658425030E-01 -0.42125714342E-01 -0.10776621308E-01  0.57525033441E-01  0.51100000000E-03 0. -1.
         11    1    4    4    0    0  0.50752911477E-01 -0.52118389907E-01  0.86953592038E-02  0.73267011558E-01  0.51100000000E-03 0.  1.
</event>
<event>
 8    1  0.1075206E+005  0.1043930E+01  0.7957747E-01            NaN
         13   -1    0    0    0    0  0.00000000000E+00  0.00000000000E+00  0.74505805969E-08  0.10566000000E+00  0.10566000000E+00 0. -1.
     999900   -1    0    0    0    0 -0.00000000000E+00 -0.00000000000E+00 -0.74505805969E-08  0.93827000000E+00  0.93827000000E+00 0.  1.
     999902    2    1    2    0    0  0.21355409873E-01  0.13733661126E-01  0.93768711002E-03  0.10185223981E+01  0.10182054454E+01 0.  0.
     999903    2    3    3    0    0  0.52923567793E-01 -0.45443708375E-01 -0.10717316644E+00  0.12937310447E+00  0.19628497044E-01 0.  0.
         14    1    1    2    0    0 -0.21355409873E-01 -0.13733661126E-01 -0.93768711002E-03  0.25407601931E-01  0.00000000000E+00 0. -1.
     999901    1    3    3    0    0 -0.31568157920E-01  0.59177369502E-01  0.10811085355E+00  0.88914929360E+00  0.88000000000E+00 0. -1.
        -11    1    4    4    0    0  0.15906118775E-01 -0.49728478147E-02 -0.16880541026E-01  0.23726517153E-01  0.51100000000E-03 0.  1.
         11    1    4    4    0    0  0.37017449018E-01 -0.40470860561E-01 -0.90292625414E-01  0.10564658732E+00  0.51100000000E-03 0. -1.
</event>
<event>
 8    1  0.1075206E+005  0.1043930E+01  0.7957747E-01            NaN
         13   -1    0    0    0    0  0.00000000000E+00  0.00000000000E+00  0.74505805969E-08  0.10566000000E+00  0.10566000000E+00 0.  1.
     999900   -1    0    0    0    0 -0.00000000000E+00 -0.00000000000E+00 -0.74505805969E-08  0.93827000000E+00  0.93827000000E+00 0.  1.
     999902    2    1    2    0    0 -0.66281645874E-02  0.22350619568E-01 -0.40105716287E-02  0.10202748220E+01  0.10200005613E+01 0.  0.
     999903    2    3    3    0    0  0.21199879879E-01  0.95844269997E-01  0.86264672881E-01  0.13217272401E+00  0.19811011725E-01 0.  0.
         14    1    1    2    0    0  0.66281645874E-02 -0.22350619568E-01  0.40105716287E-02  0.23655177988E-01  0.00000000000E+00 0.  1.
     999901    1    3    3    0    0 -0.27828044467E-01 -0.73493650430E-01 -0.90275244510E-01  0.88810209801E+00  0.88000000000E+00 0.  1.
        -11    1    4    4    0    0  0.27106624903E-03  0.25133264066E-01  0.31579136144E-01  0.40364060749E-01  0.51100000000E-03 0.  1.
         11    1    4    4    0    0  0.20928813630E-01  0.70711005931E-01  0.54685536737E-01  0.91808663257E-01  0.51100000000E-03 0. -1.
</event>
<event>
 8    1  0.1075206E+005  0.1043930E+01  0.7957747E-01            NaN
         13   -1    0    0    0    0  0.00000000000E+00  0.00000000000E+00  0.74505805969E-08  0.10566000000E+00  0.10566000000E+00 0. -1.
     999900   -1    0    0    0    0 -0.00000000000E+00 -0.00000000000E+00 -0.74505805969E-08  0.93827000000E+00  0.93827000000E+00 0.  1.
     999902    2    1    2    0    0  0.21429799541E-01  0.27244601372E-02  0.90973403755E-02  0.10204902774E+01  0.10202210475E+01 0.  0.
     999903    2    3    3    0    0  0.10052341806E+00 -0.42024527315E-01 -0.71933066254E-01  0.13210736498E+00  0.20173531838E-01 0.  0.
         14    1    1    2    0    0 -0.21429799541E-01 -0.27244601372E-02 -0.90973403755E-02  0.23439722552E-01  0.00000000000E+00 0.  1.
     999901    1    3    3    0    0 -0.79093618518E-01  0.44748987452E-01  0.81030406630E-01  0.88838291247E+00  0.88000000000E+00 0.  1.
        -11    1    4    4    0    0  0.59804591945E-01 -0.23888033413E-01 -0.54047101306E-01  0.84074833563E-01  0.51100000000E-03 0. -1.
         11    1    4    4    0    0  0.40718826114E-01 -0.18136493902E-01 -0.17885964948E-01  0.48032531416E-01  0.51100000000E-03 0.  1.
</event>
<event>
 8    1  0.1075206E+005  0.1043930E+01  0.7957747E-01            NaN
         13   -1    0    0    0    0  0.00000000000E+00  0.00000000000E+00  0.74505805969E-08  0.10566000000E+00  0.10566000000E+00 0. -1.
     999900   -1    0    0    0    0 -0.00000000000E+00 -0.00000000000E+00 -0.74505805969E-08  0.93827000000E+00  0.93827000000E+00 0. -1.
     999902    2    1    2    0    0  0.47716076928E-02  0.18425705368E-01 -0.13673130935E-01  0.10204943569E+01  0.10202252217E+01 0.  0.
     999903    2    3    3    0    0 -0.90041333310E-01  0.73631297182E-01 -0.61066159259E-01  0.13241595366E+00  0.16610218215E-01 0.  0.
         14    1    1    2    0    0 -0.47716076928E-02 -0.18425705368E-01  0.13673130935E-01  0.23435643107E-01  0.00000000000E+00 0. -1.
     999901    1    3    3    0    0  0.94812941003E-01 -0.55205591814E-01  0.47393028324E-01  0.88807840323E+00  0.88000000000E+00 0.  1.
        -11    1    4    4    0    0 -0.46425980558E-01  0.27539517394E-01 -0.30063402120E-01  0.61788882148E-01  0.51100000000E-03 0. -1.
         11    1    4    4    0    0 -0.43615352752E-01  0.46091779788E-01 -0.31002757139E-01  0.70627071516E-01  0.51100000000E-03 0.  1.
</event>
<event>
 8    1  0.1075206E+005  0.1043930E+01  0.7957747E-01            NaN
         13   -1    0    0    0    0  0.00000000000E+00  0.00000000000E+00  0.74505805969E-08  0.10566000000E+00  0.10566000000E+00 0. -1.
     999900   -1    0    0    0    0 -0.00000000000E+00 -0.00000000000E+00 -0.74505805969E-08  0.93827000000E+00  0.93827000000E+00 0. -1.
     999902    2    1    2    0    0 -0.69332762422E-02 -0.55346979682E-02  0.21680189847E-01  0.10205049315E+01  0.10202360420E+01 0.  0.
     999903    2    3    3    0    0  0.13060832623E-01  0.12755181504E+00 -0.10521071954E-01  0.12969142378E+00  0.16404925410E-01 0.  0.
         14    1    1    2    0    0  0.69332762422E-02  0.55346979682E-02 -0.21680189847E-01  0.23425068470E-01  0.00000000000E+00 0.  1.
     999901    1    3    3    0    0 -0.19994108866E-01 -0.13308651301E+00  0.32201261801E-01  0.89081350775E+00  0.88000000000E+00 0.  1.
        -11    1    4    4    0    0  0.14314818387E-02  0.63424941363E-01  0.12837651995E-02  0.63456138405E-01  0.51100000000E-03 0. -1.
         11    1    4    4    0    0  0.11629350785E-01  0.64126873675E-01 -0.11804837154E-01  0.66235285372E-01  0.51100000000E-03 0.  1.
</event>
<event>
 8    1  0.1075206E+005  0.1043930E+01  0.7957747E-01            NaN
         13   -1    0    0    0    0  0.00000000000E+00  0.00000000000E+00  0.74505805969E-08  0.10566000000E+00  0.10566000000E+00 0.  1.
     999900   -1    0    0    0    0 -0.00000000000E+00 -0.00000000000E+00 -0.74505805969E-08  0.93827000000E+00  0.93827000000E+00 0.  1.
     999902    2    1    2    0    0  0.19070323121E-01 -0.16401442263E-02  0.17326332989E-01  0.10181120002E+01  0.10177845921E+01 0.  0.
     999903    2    3    3    0    0  0.17794723041E-01 -0.96760657937E-01  0.83406028120E-01  0.13052196796E+00  0.20003537210E-01 0.  0.
         14    1    1    2    0    0 -0.19070323121E-01  0.16401442263E-02 -0.17326332989E-01  0.25817999765E-01  0.00000000000E+00 0. -1.
     999901    1    3    3    0    0  0.12756000804E-02  0.95120513711E-01 -0.66079695131E-01  0.88759003227E+00  0.88000000000E+00 0.  1.
        -11    1    4    4    0    0  0.52368172797E-02 -0.31744620596E-01  0.15653893753E-01  0.35783385846E-01  0.51100000000E-03 0. -1.
         11    1    4    4    0    0  0.12557905761E-01 -0.65016037342E-01  0.67752134367E-01  0.94738582114E-01  0.51100000000E-03 0.  1.
</event>
<event>
 8    1  0.1075206E+005  0.1043930E+01  0.7957747E-01            NaN
         13   -1    0    0    0    0  0.00000000000E+00  0.00000000000E+00  0.74505805969E-08  0.10566000000E+00  0.10566000000E+00 0.  1.
     999900   -1    0    0    0    0 -0.00000000000E+00 -0.00000000000E+00 -0.74505805969E-08  0.93827000000E+00  0.93827000000E+00 0. -1.
     999902    2    1    2    0    0  0.63127925477E-04  0.11587962466E-01  0.21454674280E-01  0.10195458267E+01  0.10192541905E+01 0.  0.
     999903    2    3    3    0    0 -0.91717744699E-01 -0.78947844658E-01  0.42763704136E-01  0.12989728053E+00  0.19991553906E-01 0.  0.
         14    1    1    2    0    0 -0.63127925477E-04 -0.11587962466E-01 -0.21454674280E-01  0.24384173304E-01  0.00000000000E+00 0. -1.
     999901    1    3    3    0    0  0.91780872624E-01  0.90535807124E-01 -0.21309029857E-01  0.88964854617E+00  0.88000000000E+00 0.  1.
        -11    1    4    4    0    0 -0.35718814130E-01 -0.30060700584E-01  0.26910361293E-01  0.53887921359E-01  0.51100000000E-03 0.  1.
         11    1    4    4    0    0 -0.55998930569E-01 -0.48887144074E-01  0.15853342843E-01  0.76009359167E-01  0.51100000000E-03 0. -1.
</event>
<event>
 8    1  0.1075206E+005  0.1043930E+01  0.7957747E-01            NaN
         13   -1    0    0    0    0  0.00000000000E+00  0.00000000000E+00  0.74505805969E-08  0.10566000000E+00  0.10566000000E+00 0. -1.
     999900   -1    0    0    0    0 -0.00000000000E+00 -0.00000000000E+00 -0.74505805969E-08  0.93827000000E+00  0.93827000000E+00 0.  1.
     999902    2    1    2    0    0  0.18196706233E-01  0.82430156168E-02  0.12349551466E-01  0.10204442842E+01  0.10201739844E+01 0.  0.
     999903    2    3    3    0    0 -0.80282895141E-01  0.83376553833E-01  0.56429441650E-01  0.13067672066E+00  0.22251527040E-01 0.  0.
         14    1    1    2    0    0 -0.18196706233E-01 -0.82430156168E-02 -0.12349551466E-01  0.23485715778E-01  0.00000000000E+00 0. -1.
     999901    1    3    3    0    0  0.98479601375E-01 -0.75133538216E-01 -0.44079890184E-01  0.88976756356E+00  0.88000000000E+00 0.  1.
        -11    1    4    4    0    0 -0.37985497121E-01  0.44323008826E-01  0.16665991438E-01  0.60707853648E-01  0.51100000000E-03 0. -1.
         11    1    4    4    0    0 -0.42297398020E-01  0.39053545007E-01  0.39763450212E-01  0.69968867010E-01  0.51100000000E-03 0.  1.
</event>
<event>
 7    1  0.1075206E+005  0.1043930E+01  0.7957747E-01            NaN
         13   -1    0    0    0    0  0.00000000000E+00  0.00000000000E+00  0.74505805969E-08  0.10566000000E+00  0.10566000000E+00 0. -1.
     999900   -1    0    0    0    0 -0.00000000000E+00 -0.00000000000E+00 -0.74505805969E-08  0.93827000000E+00  0.93827000000E+00 0. -1.
     999903    2    1    2    0    0 -0.41466961075E-01 -0.59692208893E-01  0.49802420166E-01  0.90256536684E-01  0.19577862412E-01 0.  0.
         14    1    1    2    0    0 -0.45827815797E-01  0.41572297199E-01 -0.30439984291E-01  0.68956778048E-01  0.00000000000E+00 0.  1.
     999901    1    1    2    0    0  0.87294776872E-01  0.18119911694E-01 -0.19362435875E-01  0.88471668527E+00  0.88000000000E+00 0. -1.
        -11    1    3    3    0    0 -0.60358671483E-02 -0.84911701408E-02  0.16825674389E-01  0.19796365884E-01  0.51100000000E-03 0. -1.
         11    1    3    3    0    0 -0.35431093926E-01 -0.51201038752E-01  0.32976745777E-01  0.70460170800E-01  0.51100000000E-03 0.  1.
</event>
<event>
 8    1  0.1075206E+005  0.1043930E+01  0.7957747E-01            NaN
         13   -1    0    0    0    0  0.00000000000E+00  0.00000000000E+00  0.74505805969E-08  0.10566000000E+00  0.10566000000E+00 0.  1.
     999900   -1    0    0    0    0 -0.00000000000E+00 -0.00000000000E+00 -0.74505805969E-08  0.93827000000E+00  0.93827000000E+00 0. -1.
     999902    2    1    2    0    0  0.10075049981E-01 -0.78455363825E-02  0.15604389861E-01  0.10237667647E+01  0.10235681866E+01 0.  0.
     999903    2    3    3    0    0  0.10705242706E+00  0.64770529802E-01 -0.42173029876E-01  0.13358929088E+00  0.20300012805E-01 0.  0.
         14    1    1    2    0    0 -0.10075049981E-01  0.78455363825E-02 -0.15604389861E-01  0.20163235261E-01  0.00000000000E+00 0.  1.
     999901    1    3    3    0    0 -0.96977377075E-01 -0.72616066184E-01  0.57777419737E-01  0.89017747386E+00  0.88000000000E+00 0.  1.
        -11    1    4    4    0    0  0.87823629414E-01  0.54699956317E-01 -0.42548750947E-01  0.11187373433E+00  0.51100000000E-03 0. -1.
         11    1    4    4    0    0  0.19228797642E-01  0.10070573485E-01  0.37572107064E-03  0.21715556552E-01  0.51100000000E-03 0.  1.
</event>
<event>
 8    1  0.1075206E+005  0.1043930E+01  0.7957747E-01            NaN
         13   -1    0    0    0    0  0.00000000000E+00  0.00000000000E+00  0.74505805969E-08  0.10566000000E+00  0.10566000000E+00 0. -1.
     999900   -1    0    0    0    0 -0.00000000000E+00 -0.00000000000E+00 -0.74505805969E-08  0.93827000000E+00  0.93827000000E+00 0. -1.
     999902    2    1    2    0    0 -0.41389272907E-02  0.12376086352E-01  0.19876015203E-01  0.10201528216E+01  0.10198756911E+01 0.  0.
     999903    2    3    3    0    0 -0.66560993979E-01 -0.15649586436E-01 -0.10693058516E+00  0.12843433090E+00  0.19645656940E-01 0.  0.
         14    1    1    2    0    0  0.41389272907E-02 -0.12376086352E-01 -0.19876015203E-01  0.23777178404E-01  0.00000000000E+00 0.  1.
     999901    1    3    3    0    0  0.62422066688E-01  0.28025672788E-01  0.12680660037E+00  0.89171849069E+00  0.88000000000E+00 0.  1.
        -11    1    4    4    0    0 -0.27017770244E-01 -0.27923163457E-02 -0.26825861834E-01  0.38179116329E-01  0.51100000000E-03 0.  1.
         11    1    4    4    0    0 -0.39543223735E-01 -0.12857270090E-01 -0.80104723328E-01  0.90255214575E-01  0.51100000000E-03 0. -1.
</event>
<event>
 8    1  0.1075206E+005  0.1043930E+01  0.7957747E-01            NaN
         13   -1    0    0    0    0  0.00000000000E+00  0.00000000000E+00  0.74505805969E-08  0.10566000000E+00  0.10566000000E+00 0.  1.
     999900   -1    0    0    0    0 -0.00000000000E+00 -0.00000000000E+00 -0.74505805969E-08  0.93827000000E+00  0.93827000000E+00 0. -1.
     999902    2    1    2    0    0 -0.21495418760E-01 -0.19908549144E-02 -0.90136713059E-02  0.10205363513E+01  0.10202681909E+01 0.  0.
     999903    2    3    3    0    0  0.92079432129E-02  0.12005279975E+00 -0.45871386595E-01  0.13081963159E+00  0.22630310566E-01 0.  0.
         14    1    1    2    0    0  0.21495418760E-01  0.19908549144E-02  0.90136713059E-02  0.23393648740E-01  0.00000000000E+00 0. -1.
     999901    1    3    3    0    0 -0.30703361973E-01 -0.12204365466E+00  0.36857715289E-01  0.88971671967E+00  0.88000000000E+00 0.  1.
        -11    1    4    4    0    0 -0.44197307241E-02  0.80480577284E-01 -0.32029340412E-01  0.86734059676E-01  0.51100000000E-03 0. -1.
         11    1    4    4    0    0  0.13627673937E-01  0.39572222463E-01 -0.13842046183E-01  0.44085571916E-01  0.51100000000E-03 0.  1.
</event>
<event>
 8    1  0.1075206E+005  0.1043930E+01  0.7957747E-01            NaN
         13   -1    0    0    0    0  0.00000000000E+00  0.00000000000E+00  0.74505805969E-08  0.10566000000E+00  0.10566000000E+00 0. -1.
     999900   -1    0    0    0    0 -0.00000000000E+00 -0.00000000000E+00 -0.74505805969E-08  0.93827000000E+00  0.93827000000E+00 0.  1.
     999902    2    1    2    0    0  0.40008306588E-03  0.26825646249E-01  0.46291882477E-02  0.10167049243E+01  0.10163403457E+01 0.  0.
     999903    2    3    3    0    0  0.67308776386E-01 -0.45050039214E-01  0.95406177121E-01  0.12660192514E+00  0.19124105321E-01 0.  0.
         14    1    1    2    0    0 -0.40008306588E-03 -0.26825646249E-01 -0.46291882477E-02  0.27225075702E-01  0.00000000000E+00 0.  1.
     999901    1    3    3    0    0 -0.66908693320E-01  0.71875685463E-01 -0.90776988873E-01  0.89010299916E+00  0.88000000000E+00 0.  1.
        -11    1    4    4    0    0  0.23064568022E-01 -0.21491988680E-01  0.49145037615E-01  0.58389859724E-01  0.51100000000E-03 0.  1.
         11    1    4    4    0    0  0.44244208365E-01 -0.23558050534E-01  0.46261139506E-01  0.68212065415E-01  0.51100000000E-03 0. -1.
</event>
<event>
 8    1  0.1075206E+005  0.1043930E+01  0.7957747E-01            NaN
         13   -1    0    0    0    0  0.00000000000E+00  0.00000000000E+00  0.74505805969E-08  0.10566000000E+00  0.10566000000E+00 0.  1.
     999900   -1    0    0    0    0 -0.00000000000E+00 -0.00000000000E+00 -0.74505805969E-08  0.93827000000E+00  0.93827000000E+00 0. -1.
     999902    2    1    2    0    0 -0.14099405715E-01  0.10199628076E-01  0.16667574490E-01  0.10198336581E+01  0.10195489476E+01 0.  0.
     999903    2    3    3    0    0  0.84023205097E-01  0.75428417285E-01  0.62789080160E-01  0.13078358358E+00  0.20310884195E-01 0.  0.
         14    1    1    2    0    0  0.14099405715E-01 -0.10199628076E-01 -0.16667574490E-01  0.24096341917E-01  0.00000000000E+00 0.  1.
     999901    1    3    3    0    0 -0.98122610813E-01 -0.65228789209E-01 -0.46121505670E-01  0.88905007451E+00  0.88000000000E+00 0.  1.
        -11    1    4    4    0    0  0.29520487148E-01  0.28174261907E-01  0.33985358008E-01  0.53108510386E-01  0.51100000000E-03 0.  1.
         11    1    4    4    0    0  0.54502717950E-01  0.47254155378E-01  0.28803722152E-01  0.77675073191E-01  0.51100000000E-03 0. -1.
</event>
<event>
 8    1  0.1075206E+005  0.1043930E+01  0.7957747E-01            NaN
         13   -1    0    0    0    0  0.00000000000E+00  0.00000000000E+00  0.74505805969E-08  0.10566000000E+00  0.10566000000E+00 0.  1.
     999900   -1    0    0    0    0 -0.00000000000E+00 -0.00000000000E+00 -0.74505805969E-08  0.93827000000E+00  0.93827000000E+00 0. -1.
     999902    2    1    2    0    0  0.86127702337E-02 -0.63976245064E-02  0.21585629139E-01  0.10198250462E+01  0.10195401297E+01 0.  0.
     999903    2    3    3    0    0  0.73816384045E-01  0.87352277442E-01  0.61927030971E-01  0.13153005916E+00  0.19644856073E-01 0.  0.
         14    1    1    2    0    0 -0.86127702337E-02  0.63976245064E-02 -0.21585629139E-01  0.24104953760E-01  0.00000000000E+00 0. -1.
     999901    1    3    3    0    0 -0.65203613812E-01 -0.93749901948E-01 -0.40341401832E-01  0.88829498708E+00  0.88000000000E+00 0. -1.
        -11    1    4    4    0    0  0.64207987621E-01  0.74142536558E-01  0.60232331066E-01  0.11509985329E+00  0.51100000000E-03 0. -1.
         11    1    4    4    0    0  0.96083964244E-02  0.13209740883E-01  0.16946999050E-02  0.16430205867E-01  0.51100000000E-03 0.  1.
</event>
<event>
 8    1  0.1075206E+005  0.1043930E+01  0.7957747E-01            NaN
         13   -1    0    0    0    0  0.00000000000E+00  0.00000000000E+00  0.74505805969E-08  0.10566000000E+00  0.10566000000E+00 0.  1.
     999900   -1    0    0    0    0 -0.00000000000E+00 -0.00000000000E+00 -0.74505805969E-08  0.93827000000E+00  0.93827000000E+00 0. -1.
     999902    2    1    2    0    0  0.75421436632E-02  0.21329685383E-01  0.68913475864E-02  0.10202798397E+01  0.10200056967E+01 0.  0.
     999903    2    3    3    0    0 -0.70751551360E-01 -0.86953760018E-01 -0.57962694188E-01  0.12783306038E+00  0.20368578915E-01 0.  0.
         14    1    1    2    0    0 -0.75421436632E-02 -0.21329685383E-01 -0.68913475864E-02  0.23650160277E-01  0.00000000000E+00 0. -1.
     999901    1    3    3    0    0  0.78293695024E-01  0.10828344540E+00  0.64854041774E-01  0.89244677934E+00  0.88000000000E+00 0. -1.
        -11    1    4    4    0    0 -0.30005004384E-01 -0.49958011478E-01 -0.23144019661E-01  0.62705741093E-01  0.51100000000E-03 0. -1.
         11    1    4    4    0    0 -0.40746546977E-01 -0.36995748540E-01 -0.34818674526E-01  0.65127319286E-01  0.51100000000E-03 0.  1.
</event>
<event>
 8    1  0.1075206E+005  0.1043930E+01  0.7957747E-01            NaN
         13   -1    0    0    0    0  0.00000000000E+00  0.00000000000E+00  0.74505805969E-08  0.10566000000E+00  0.10566000000E+00 0.  1.
     999900   -1    0    0    0    0 -0.00000000000E+00 -0.00000000000E+00 -0.74505805969E-08  0.93827000000E+00  0.93827000000E+00 0. -1.
     999902    2    1    2    0    0  0.31559445379E-02  0.22581395559E-01 -0.16307281838E-02  0.10210708949E+01  0.10208149851E+01 0.  0.
     999903    2    3    3    0    0  0.65024140820E-02  0.46921481693E-01  0.12183478922E+00  0.13211230608E+00  0.19132138429E-01 0.  0.
         14    1    1    2    0    0 -0.31559445379E-02 -0.22581395559E-01  0.16307281838E-02  0.22859105095E-01  0.00000000000E+00 0.  1.
     999901    1    3    3    0    0 -0.33464695441E-02 -0.24340086133E-01 -0.12346551741E+00  0.88895858882E+00  0.88000000000E+00 0. -1.
        -11    1    4    4    0    0  0.15159566973E-02  0.30117158362E-01  0.52036088747E-01  0.60144467789E-01  0.51100000000E-03 0. -1.
         11    1    4    4    0    0  0.49864573847E-02  0.16804323330E-01  0.69798700475E-01  0.71967838295E-01  0.51100000000E-03 0.  1.
</event>
<event>
 8    1  0.1075206E+005  0.1043930E+01  0.7957747E-01            NaN
         13   -1    0    0    0    0  0.00000000000E+00  0.00000000000E+00  0.74505805969E-08  0.10566000000E+00  0.10566000000E+00 0.  1.
     999900   -1    0    0    0    0 -0.00000000000E+00 -0.00000000000E+00 -0.74505805969E-08  0.93827000000E+00  0.93827000000E+00 0.  1.
     999902    2    1    2    0    0 -0.70230461774E-02  0.19578656655E-01  0.81187583345E-02  0.10216015157E+01  0.10213574769E+01 0.  0.
     999903    2    3    3    0    0 -0.83091206734E-01 -0.85728296101E-01 -0.48163609321E-01  0.13028584533E+00  0.20029449350E-01 0.  0.
         14    1    1    2    0    0  0.70230461774E-02 -0.19578656655E-01 -0.81187583345E-02  0.22328484296E-01  0.00000000000E+00 0.  1.
     999901    1    3    3    0    0  0.76068160556E-01  0.10530695276E+00  0.56282367655E-01  0.89131567038E+00  0.88000000000E+00 0. -1.
        -11    1    4    4    0    0 -0.63939372574E-02 -0.10599289792E-01 -0.11302394771E-01  0.16769991840E-01  0.51100000000E-03 0. -1.
         11    1    4    4    0    0 -0.76697269476E-01 -0.75129006309E-01 -0.36861214549E-01  0.11351585349E+00  0.51100000000E-03 0.  1.
</event>
<event>
 8    1  0.1075206E+005  0.1043930E+01  0.7957747E-01            NaN
         13   -1    0    0    0    0  0.00000000000E+00  0.00000000000E+00  0.74505805969E-08  0.10566000000E+00  0.10566000000E+00 0.  1.
     999900   -1    0    0    0    0 -0.00000000000E+00 -0.00000000000E+00 -0.74505805969E-08  0.93827000000E+00  0.93827000000E+00 0.  1.
     999902    2    1    2    0    0 -0.15321660010E-01  0.97363392551E-02 -0.14677298622E-01  0.10205853505E+01  0.10203183253E+01 0.  0.
     999903    2    3    3    0    0 -0.23516401163E-01  0.12891370850E+00 -0.61290762453E-03  0.13240282067E+00  0.18930554756E-01 0.  0.
         14    1    1    2    0    0  0.15321660010E-01 -0.97363392551E-02  0.14677298622E-01  0.23344649545E-01  0.00000000000E+00 0.  1.
     999901    1    3    3    0    0  0.81947411537E-02 -0.11917736924E+00 -0.14064390997E-01  0.88818252979E+00  0.88000000000E+00 0.  1.
        -11    1    4    4    0    0 -0.25086137548E-02  0.60403977925E-01  0.40306534847E-02  0.60592416858E-01  0.51100000000E-03 0. -1.
         11    1    4    4    0    0 -0.21007787408E-01  0.68509730572E-01 -0.46435611092E-02  0.71810403812E-01  0.51100000000E-03 0.  1.
</event>
<event>
 8    1  0.1075206E+005  0.1043930E+01  0.7957747E-01            NaN
         13   -1    0    0    0    0  0.00000000000E+00  0.00000000000E+00  0.74505805969E-08  0.10566000000E+00  0.10566000000E+00 0.  1.
     999900   -1    0    0    0    0 -0.00000000000E+00 -0.00000000000E+00 -0.74505805969E-08  0.93827000000E+00  0.93827000000E+00 0. -1.
     999902    2    1    2    0    0 -0.24034956758E-01 -0.89611406451E-03 -0.33138171428E-02  0.10196511295E+01  0.10193620370E+01 0.  0.
     999903    2    3    3    0    0 -0.79183281744E-01  0.10333923747E+00 -0.38069691317E-02  0.13178481671E+00  0.20093650573E-01 0.  0.
         14    1    1    2    0    0  0.24034956758E-01  0.89611406451E-03  0.33138171428E-02  0.24278870460E-01  0.00000000000E+00 0.  1.
     999901    1    3    3    0    0  0.55148324986E-01 -0.10423535153E+00  0.49315198881E-03  0.88786631283E+00  0.88000000000E+00 0. -1.
        -11    1    4    4    0    0 -0.54080267487E-01  0.68901690922E-01 -0.11923587089E-01  0.88399951321E-01  0.51100000000E-03 0. -1.
         11    1    4    4    0    0 -0.25103014257E-01  0.34437546545E-01  0.81166179574E-02  0.43384865390E-01  0.51100000000E-03 0.  1.
</event>
<event>
 8    1  0.1075206E+005  0.1043930E+01  0.7957747E-01            NaN
         13   -1    0    0    0    0  0.00000000000E+00  0.00000000000E+00  0.74505805969E-08  0.10566000000E+00  0.10566000000E+00 0. -1.
     999900   -1    0    0    0    0 -0.00000000000E+00 -0.00000000000E+00 -0.74505805969E-08  0.93827000000E+00  0.93827000000E+00 0. -1.
     999902    2    1    2    0    0 -0.17176055664E-01 -0.56287176937E-02 -0.11218480235E-01  0.10226566916E+01  0.10224354039E+01 0.  0.
     999903    2    3    3    0    0  0.69770049542E-01 -0.85171757755E-01  0.68542561888E-01  0.13122607498E+00  0.20002795585E-01 0.  0.
         14    1    1    2    0    0  0.17176055664E-01  0.56287176937E-02  0.11218480235E-01  0.21273308390E-01  0.00000000000E+00 0.  1.
     999901    1    3    3    0    0 -0.86946105206E-01  0.79543040061E-01 -0.79761042124E-01  0.89143061663E+00  0.88000000000E+00 0. -1.
        -11    1    4    4    0    0  0.49926040219E-01 -0.72168920510E-01  0.58442173166E-01  0.10543581604E+00  0.51100000000E-03 0. -1.
         11    1    4    4    0    0  0.19844009323E-01 -0.13002837245E-01  0.10100388723E-01  0.25790258932E-01  0.51100000000E-03 0.  1.
</event>
<event>
 8    1  0.1075206E+005  0.1043930E+01  0.7957747E-01            NaN
         13   -1    0    0    0    0  0.00000000000E+00  0.00000000000E+00  0.74505805969E-08  0.10566000000E+00  0.10566000000E+00 0.  1.
     999900   -1    0    0    0    0 -0.00000000000E+00 -0.00000000000E+00 -0.74505805969E-08  0.93827000000E+00  0.93827000000E+00 0.  1.
     999902    2    1    2    0    0 -0.11630705310E-01 -0.20798887568E-01  0.24347928747E-02  0.10199759764E+01  0.10196946588E+01 0.  0.
     999903    2    3    3    0    0  0.11661756062E+00 -0.27301295208E-02 -0.52059791485E-01  0.12882853773E+00  0.16717092854E-01 0.  0.
         14    1    1    2    0    0  0.11630705310E-01  0.20798887568E-01 -0.24347928747E-02  0.23954023595E-01  0.00000000000E+00 0.  1.
     999901    1    3    3    0    0 -0.12824826592E+00 -0.18068758047E-01  0.54494584359E-01  0.89114743867E+00  0.88000000000E+00 0. -1.
        -11    1    4    4    0    0  0.72509054231E-01 -0.66449255296E-02 -0.25290849669E-01  0.77081814839E-01  0.51100000000E-03 0. -1.
         11    1    4    4    0    0  0.44108506384E-01  0.39147960088E-02 -0.26768941815E-01  0.51746722892E-01  0.51100000000E-03 0.  1.
</event>
<event>
 8    1  0.1075206E+005  0.1043930E+01  0.7957747E-01            NaN
         13   -1    0    0    0    0  0.00000000000E+00  0.00000000000E+00  0.74505805969E-08  0.10566000000E+00  0.10566000000E+00 0. -1.
     999900   -1    0    0    0    0 -0.00000000000E+00 -0.00000000000E+00 -0.74505805969E-08  0.93827000000E+00  0.93827000000E+00 0.  1.
     999902    2    1    2    0    0 -0.10450533254E-01  0.12090513954E-01  0.17627814001E-01  0.10201364295E+01  0.10198589122E+01 0.  0.
     999903    2    3    3    0    0 -0.49506439468E-01  0.10746262283E+00 -0.53264648735E-01  0.13129057992E+00  0.20024752586E-01 0.  0.
         14    1    1    2    0    0  0.10450533254E-01 -0.12090513954E-01 -0.17627814001E-01  0.23793570548E-01  0.00000000000E+00 0.  1.
     999901    1    3    3    0    0  0.39055906214E-01 -0.95372108876E-01  0.70892462736E-01  0.88884584953E+00  0.88000000000E+00 0. -1.
        -11    1    4    4    0    0 -0.12895160543E-01  0.49595197499E-01 -0.18418980146E-01  0.54456301114E-01  0.51100000000E-03 0. -1.
         11    1    4    4    0    0 -0.36611278925E-01  0.57867425330E-01 -0.34845668588E-01  0.76834278803E-01  0.51100000000E-03 0.  1.
</event>
<event>
 8    1  0.1075206E+005  0.1043930E+01  0.7957747E-01            NaN
         13   -1    0    0    0    0  0.00000000000E+00  0.00000000000E+00  0.74505805969E-08  0.10566000000E+00  0.10566000000E+00 0. -1.
     999900   -1    0    0    0    0 -0.00000000000E+00 -0.00000000000E+00 -0.74505805969E-08  0.93827000000E+00  0.93827000000E+00 0.  1.
     999902    2    1    2    0    0  0.15911105146E-01 -0.21727220635E-02  0.16767468139E-01  0.10207129378E+01  0.10204488569E+01 0.  0.
     999903    2    3    3    0    0 -0.92499997768E-01 -0.38976690032E-01 -0.77731692403E-01  0.12827941614E+00  0.18383706040E-01 0.  0.
         14    1    1    2    0    0 -0.15911105146E-01  0.21727220635E-02 -0.16767468139E-01  0.23217062172E-01  0.00000000000E+00 0.  1.
     999901    1    3    3    0    0  0.10841110291E+00  0.36803967969E-01  0.94499160542E-01  0.89243352169E+00  0.88000000000E+00 0. -1.
        -11    1    4    4    0    0 -0.68302996719E-01 -0.25206208272E-01 -0.65237608507E-01  0.97759188729E-01  0.51100000000E-03 0.  1.
         11    1    4    4    0    0 -0.24197001049E-01 -0.13770481760E-01 -0.12494083897E-01  0.30520227408E-01  0.51100000000E-03 0. -1.
</event>
<event>
 8    1  0.1075206E+005  0.1043930E+01  0.7957747E-01            NaN
         13   -1    0    0    0    0  0.00000000000E+00  0.00000000000E+00  0.74505805969E-08  0.10566000000E+00  0.10566000000E+00 0.  1.
     999900   -1    0    0    0    0 -0.00000000000E+00 -0.00000000000E+00 -0.74505805969E-08  0.93827000000E+00  0.93827000000E+00 0. -1.
     999902    2    1    2    0    0 -0.76761177269E-02 -0.81671379505E-04 -0.17748870033E-01  0.10245921656E+01  0.10244096612E+01 0.  0.
     999903    2    3    3    0    0  0.22830343823E-02  0.91981671158E-01 -0.98240876320E-01  0.13608003462E+00  0.20016642221E-01 0.  0.
         14    1    1    2    0    0  0.76761177269E-02  0.81671379505E-04  0.17748870033E-01  0.19337834445E-01  0.00000000000E+00 0.  1.
     999901    1    3    3    0    0 -0.99591521093E-02 -0.92063342537E-01  0.80492006287E-01  0.88851213094E+00  0.88000000000E+00 0. -1.
        -11    1    4    4    0    0 -0.66254947832E-02  0.65479718254E-01 -0.74394007935E-01  0.99328848888E-01  0.51100000000E-03 0.  1.
         11    1    4    4    0    0  0.89085291655E-02  0.26501952904E-01 -0.23846868385E-01  0.36751185727E-01  0.51100000000E-03 0. -1.
</event>
<event>
 8    1  0.1075206E+005  0.1043930E+01  0.7957747E-01            NaN
         13   -1    0    0    0    0  0.00000000000E+00  0.00000000000E+00  0.74505805969E-08  0.10566000000E+00  0.10566000000E+00 0. -1.
     999900   -1    0    0    0    0 -0.00000000000E+00 -0.00000000000E+00 -0.74505805969E-08  0.93827000000E+00  0.93827000000E+00 0. -1.
     999902    2    1    2    0    0  0.34763205259E-02 -0.20549129604E-01  0.11026395505E-01  0.10203517700E+01  0.10200793114E+01 0.  0.
     999903    2    3    3    0    0 -0.10490967410E+00  0.63476456578E-01  0.36222861039E-01  0.12937327148E+00  0.19749618997E-01 0.  0.
         14    1    1    2    0    0 -0.34763205259E-02  0.20549129604E-01 -0.11026395505E-01  0.23578229995E-01  0.00000000000E+00 0. -1.
     999901    1    3    3    0    0  0.10838599463E+00 -0.84025586182E-01 -0.25196465534E-01  0.89097849853E+00  0.88000000000E+00 0. -1.
        -11    1    4    4    0    0 -0.36534056676E-01  0.24065389246E-01  0.33512823033E-02  0.43879066430E-01  0.51100000000E-03 0. -1.
         11    1    4    4    0    0 -0.68375617427E-01  0.39411067332E-01  0.32871578736E-01  0.85494205046E-01  0.51100000000E-03 0.  1.
</event>
<event>
 8    1  0.1075206E+005  0.1043930E+01  0.7957747E-01            NaN
         13   -1    0    0    0    0  0.00000000000E+00  0.00000000000E+00  0.74505805969E-08  0.10566000000E+00  0.10566000000E+00 0.  1.
     999900   -1    0    0    0    0 -0.00000000000E+00 -0.00000000000E+00 -0.74505805969E-08  0.93827000000E+00  0.93827000000E+00 0.  1.
     999902    2    1    2    0    0 -0.20507449453E-01  0.12142484389E-02  0.12766131026E-01  0.10197431444E+01  0.10194562652E+01 0.  0.
     999903    2    3    3    0    0  0.11985455647E+00  0.32269060049E-01 -0.20070998335E-01  0.12747403080E+00  0.20985152108E-01 0.  0.
         14    1    1    2    0    0  0.20507449453E-01 -0.12142484389E-02 -0.12766131026E-01  0.24186855598E-01  0.00000000000E+00 0.  1.
     999901    1    3    3    0    0 -0.14036200593E+00 -0.31054811610E-01  0.32837129361E-01  0.89226911361E+00  0.88000000000E+00 0. -1.
        -11    1    4    4    0    0  0.96269962846E-01  0.23675807124E-01 -0.24148535521E-01  0.10203853428E+00  0.51100000000E-03 0.  1.
         11    1    4    4    0    0  0.23584593628E-01  0.85932529244E-02  0.40775371865E-02  0.25435496514E-01  0.51100000000E-03 0. -1.
</event>
<event>
 8    1  0.1075206E+005  0.1043930E+01  0.7957747E-01            NaN
         13   -1    0    0    0    0  0.00000000000E+00  0.00000000000E+00  0.74505805969E-08  0.10566000000E+00  0.10566000000E+00 0.  1.
     999900   -1    0    0    0    0 -0.00000000000E+00 -0.00000000000E+00 -0.74505805969E-08  0.93827000000E+00  0.93827000000E+00 0. -1.
     999902    2    1    2    0    0  0.27067779355E-01 -0.58495006374E-02  0.59513934975E-02  0.10156050919E+01  0.10152100286E+01 0.  0.
     999903    2    3    3    0    0 -0.27449775241E-01  0.11891419750E-01  0.12099230147E+00  0.12626752123E+00  0.20234966706E-01 0.  0.
         14    1    1    2    0    0 -0.27067779355E-01  0.58495006374E-02 -0.59513934975E-02  0.28324908146E-01  0.00000000000E+00 0.  1.
     999901    1    3    3    0    0  0.54517554596E-01 -0.17740920387E-01 -0.11504090797E+00  0.88933757062E+00  0.88000000000E+00 0. -1.
        -11    1    4    4    0    0 -0.11915650292E-02  0.32733130754E-02  0.49388307648E-01  0.49513639121E-01  0.51100000000E-03 0.  1.
         11    1    4    4    0    0 -0.26258210211E-01  0.86181066743E-02  0.71603993824E-01  0.76753882109E-01  0.51100000000E-03 0. -1.
</event>
<event>
 8    1  0.1075206E+005  0.1043930E+01  0.7957747E-01            NaN
         13   -1    0    0    0    0  0.00000000000E+00  0.00000000000E+00  0.74505805969E-08  0.10566000000E+00  0.10566000000E+00 0. -1.
     999900   -1    0    0    0    0 -0.00000000000E+00 -0.00000000000E+00 -0.74505805969E-08  0.93827000000E+00  0.93827000000E+00 0.  1.
     999902    2    1    2    0    0  0.11267595393E-01 -0.16122128185E-01  0.19264491313E-01  0.10163981575E+01  0.10160252026E+01 0.  0.
     999903    2    3    3    0    0 -0.50913556818E-01 -0.80296576983E-01  0.85812420461E-01  0.12937308325E+00  0.18272728866E-01 0.  0.
         14    1    1    2    0    0 -0.11267595393E-01  0.16122128185E-01 -0.19264491313E-01  0.27531842451E-01  0.00000000000E+00 0.  1.
     999901    1    3    3    0    0  0.62181152211E-01  0.64174448798E-01 -0.66547929148E-01  0.88702507430E+00  0.88000000000E+00 0.  1.
        -11    1    4    4    0    0 -0.25894451424E-01 -0.35829567577E-01  0.51554281750E-01  0.67914546417E-01  0.51100000000E-03 0. -1.
         11    1    4    4    0    0 -0.25019105394E-01 -0.44467009406E-01  0.34258138711E-01  0.61458536829E-01  0.51100000000E-03 0.  1.
</event>
<event>
 7    1  0.1677031E+005  0.1043930E+01  0.7957747E-01            NaN
         13   -1    0    0    0    0  0.00000000000E+00  0.00000000000E+00  0.74505805969E-08  0.10566000000E+00  0.10566000000E+00 0. -1.
     999900   -1    0    0    0    0 -0.00000000000E+00 -0.00000000000E+00 -0.74505805969E-08  0.93827000000E+00  0.93827000000E+00 0. -1.
     999903    2    1    2    0    0  0.33736321626E-01 -0.10342493994E+00 -0.43607093488E-01  0.11759662427E+00  0.96192430967E-02 0.  0.
         14    1    1    2    0    0  0.23525911270E-01  0.14412404074E-01  0.28778759966E-01  0.39867316407E-01  0.00000000000E+00 0. -1.
     999901    1    1    2    0    0 -0.57262232896E-01  0.89012535870E-01  0.14828333522E-01  0.88646605932E+00  0.88000000000E+00 0. -1.
        -11    1    3    3    0    0  0.70572549852E-02 -0.35726992413E-01 -0.13372467540E-01  0.38798284033E-01  0.51100000000E-03 0.  1.
         11    1    3    3    0    0  0.26679066641E-01 -0.67697947531E-01 -0.30234625948E-01  0.78798340236E-01  0.51100000000E-03 0. -1.
</event>
<event>
 8    1  0.1075206E+005  0.1043930E+01  0.7957747E-01            NaN
         13   -1    0    0    0    0  0.00000000000E+00  0.00000000000E+00  0.74505805969E-08  0.10566000000E+00  0.10566000000E+00 0.  1.
     999900   -1    0    0    0    0 -0.00000000000E+00 -0.00000000000E+00 -0.74505805969E-08  0.93827000000E+00  0.93827000000E+00 0. -1.
     999902    2    1    2    0    0  0.17260697189E-01  0.93391490922E-02 -0.10997764205E-01  0.10214332849E+01  0.10211855137E+01 0.  0.
     999903    2    3    3    0    0 -0.68985082717E-01 -0.93737288127E-01  0.52123967224E-01  0.12899424527E+00  0.19416140982E-01 0.  0.
         14    1    1    2    0    0 -0.17260697189E-01 -0.93391490922E-02  0.10997764205E-01  0.22496715110E-01  0.00000000000E+00 0.  1.
     999901    1    3    3    0    0  0.86245779906E-01  0.10307643722E+00 -0.63121731429E-01  0.89243903962E+00  0.88000000000E+00 0.  1.
        -11    1    4    4    0    0 -0.18357876632E-01 -0.40728262960E-01  0.20695241560E-01  0.49237761752E-01  0.51100000000E-03 0. -1.
         11    1    4    4    0    0 -0.50627206085E-01 -0.53009025167E-01  0.31428725665E-01  0.79756483517E-01  0.51100000000E-03 0.  1.
</event>
<event>
 8    1  0.1075206E+005  0.1043930E+01  0.7957747E-01            NaN
         13   -1    0    0    0    0  0.00000000000E+00  0.00000000000E+00  0.74505805969E-08  0.10566000000E+00  0.10566000000E+00 0.  1.
     999900   -1    0    0    0    0 -0.00000000000E+00 -0.00000000000E+00 -0.74505805969E-08  0.93827000000E+00  0.93827000000E+00 0.  1.
     999902    2    1    2    0    0 -0.51923153730E-02  0.41367816992E-02 -0.21728692172E-01  0.10212097631E+01  0.10209569879E+01 0.  0.
     999903    2    3    3    0    0 -0.10570573032E+00  0.73139958075E-01  0.21341741008E-01  0.13176080607E+00  0.19552115377E-01 0.  0.
         14    1    1    2    0    0  0.51923153730E-02 -0.41367816992E-02  0.21728692172E-01  0.22720236911E-01  0.00000000000E+00 0.  1.
     999901    1    3    3    0    0  0.10051341495E+00 -0.69003176376E-01 -0.43070433180E-01  0.88944895702E+00  0.88000000000E+00 0. -1.
        -11    1    4    4    0    0 -0.38219974702E-01  0.22976637644E-01  0.16432382903E-01  0.47528693150E-01  0.51100000000E-03 0.  1.
         11    1    4    4    0    0 -0.67485755620E-01  0.50163320432E-01  0.49093581045E-02  0.84232112916E-01  0.51100000000E-03 0. -1.
</event>
<event>
 8    1  0.1075206E+005  0.1043930E+01  0.7957747E-01            NaN
         13   -1    0    0    0    0  0.00000000000E+00  0.00000000000E+00  0.74505805969E-08  0.10566000000E+00  0.10566000000E+00 0.  1.
     999900   -1    0    0    0    0 -0.00000000000E+00 -0.00000000000E+00 -0.74505805969E-08  0.93827000000E+00  0.93827000000E+00 0. -1.
     999902    2    1    2    0    0  0.17991294939E-01 -0.10744389941E-01  0.13712772357E-01  0.10188866629E+01  0.10185788448E+01 0.  0.
     999903    2    3    3    0    0 -0.30149688156E-01 -0.39056814152E-01 -0.11709931502E+00  0.12746591495E+00  0.10043478867E-01 0.  0.
         14    1    1    2    0    0 -0.17991294939E-01  0.10744389941E-01 -0.13712772357E-01  0.25043337127E-01  0.00000000000E+00 0. -1.
     999901    1    3    3    0    0  0.48140983095E-01  0.28312424212E-01  0.13081208738E+00  0.89142074792E+00  0.88000000000E+00 0.  1.
        -11    1    4    4    0    0 -0.22615067500E-01 -0.21513011460E-01 -0.74919709916E-01  0.81163261363E-01  0.51100000000E-03 0. -1.
         11    1    4    4    0    0 -0.75346206566E-02 -0.17543802692E-01 -0.42179605108E-01  0.46302653589E-01  0.51100000000E-03 0.  1.
</event>
<event>
 8    1  0.1075206E+005  0.1043930E+01  0.7957747E-01            NaN
         13   -1    0    0    0    0  0.00000000000E+00  0.00000000000E+00  0.74505805969E-08  0.10566000000E+00  0.10566000000E+00 0. -1.
     999900   -1    0    0    0    0 -0.00000000000E+00 -0.00000000000E+00 -0.74505805969E-08  0.93827000000E+00  0.93827000000E+00 0.  1.
     999902    2    1    2    0    0  0.13201785282E-01 -0.96720896493E-02 -0.16412336170E-01  0.10207523981E+01  0.10204892243E+01 0.  0.
     999903    2    3    3    0    0 -0.70833140998E-01 -0.96983343667E-01 -0.49942214402E-01  0.13181518057E+00  0.21398930758E-01 0.  0.
         14    1    1    2    0    0 -0.13201785282E-01  0.96720896493E-02  0.16412336170E-01  0.23177601933E-01  0.00000000000E+00 0. -1.
     999901    1    3    3    0    0  0.84034926280E-01  0.87311254017E-01  0.33529878232E-01  0.88893721749E+00  0.88000000000E+00 0. -1.
        -11    1    4    4    0    0 -0.46700995029E-01 -0.61147532681E-01 -0.42725476780E-01  0.88009835682E-01  0.51100000000E-03 0. -1.
         11    1    4    4    0    0 -0.24132145968E-01 -0.35835810986E-01 -0.72167376214E-02  0.43805344890E-01  0.51100000000E-03 0.  1.
</event>
<event>
 8    1  0.1075206E+005  0.1043930E+01  0.7957747E-01            NaN
         13   -1    0    0    0    0  0.00000000000E+00  0.00000000000E+00  0.74505805969E-08  0.10566000000E+00  0.10566000000E+00 0. -1.
     999900   -1    0    0    0    0 -0.00000000000E+00 -0.00000000000E+00 -0.74505805969E-08  0.93827000000E+00  0.93827000000E+00 0. -1.
     999902    2    1    2    0    0 -0.10911941663E-02  0.14347895227E-01  0.18474062420E-01  0.10205132585E+01  0.10202445623E+01 0.  0.
     999903    2    3    3    0    0 -0.60037960234E-01  0.53091255428E-02 -0.11223286869E+00  0.12886269774E+00  0.19407075299E-01 0.  0.
         14    1    1    2    0    0  0.10911941663E-02 -0.14347895227E-01 -0.18474062420E-01  0.23416741542E-01  0.00000000000E+00 0.  1.
     999901    1    3    3    0    0  0.58946766068E-01  0.90387696840E-02  0.13070693111E+00  0.89165056072E+00  0.88000000000E+00 0.  1.
        -11    1    4    4    0    0 -0.41417445197E-01  0.11264775097E-01 -0.66841471365E-01  0.79437669527E-01  0.51100000000E-03 0.  1.
         11    1    4    4    0    0 -0.18620515037E-01 -0.59556495546E-02 -0.45391397325E-01  0.49425028214E-01  0.51100000000E-03 0. -1.
</event>
<event>
 8    1  0.1075206E+005  0.1043930E+01  0.7957747E-01            NaN
         13   -1    0    0    0    0  0.00000000000E+00  0.00000000000E+00  0.74505805969E-08  0.10566000000E+00  0.10566000000E+00 0.  1.
     999900   -1    0    0    0    0 -0.00000000000E+00 -0.00000000000E+00 -0.74505805969E-08  0.93827000000E+00  0.93827000000E+00 0.  1.
     999902    2    1    2    0    0 -0.78871819270E-02 -0.19341305101E-01 -0.11693085976E-01  0.10199921225E+01  0.10197111885E+01 0.  0.
     999903    2    3    3    0    0 -0.10018588102E+00 -0.29290092893E-01  0.76435591905E-01  0.13073136649E+00  0.18792822479E-01 0.  0.
         14    1    1    2    0    0  0.78871819270E-02  0.19341305101E-01  0.11693085976E-01  0.23937877545E-01  0.00000000000E+00 0.  1.
     999901    1    3    3    0    0  0.92298699095E-01  0.99487877923E-02 -0.88128677881E-01  0.88926075596E+00  0.88000000000E+00 0.  1.
        -11    1    4    4    0    0 -0.82098223387E-01 -0.28385973489E-01  0.55683135407E-01  0.10318311133E+00  0.51100000000E-03 0.  1.
         11    1    4    4    0    0 -0.18087657635E-01 -0.90411940432E-03  0.20752456498E-01  0.27548255159E-01  0.51100000000E-03 0. -1.
</event>
<event>
 8    1  0.1075206E+005  0.1043930E+01  0.7957747E-01            NaN
         13   -1    0    0    0    0  0.00000000000E+00  0.00000000000E+00  0.74505805969E-08  0.10566000000E+00  0.10566000000E+00 0. -1.
     999900   -1    0    0    0    0 -0.00000000000E+00 -0.00000000000E+00 -0.74505805969E-08  0.93827000000E+00  0.93827000000E+00 0. -1.
     999902    2    1    2    0    0 -0.84478745130E-02 -0.95613114093E-03 -0.21188085898E-01  0.10210998499E+01  0.10208445953E+01 0.  0.
     999903    2    3    3    0    0 -0.14190397421E-03 -0.60801971809E-01  0.11216711511E+00  0.12900449431E+00  0.19073487585E-01 0.  0.
         14    1    1    2    0    0  0.84478745130E-02  0.95613114093E-03  0.21188085898E-01  0.22830150121E-01  0.00000000000E+00 0. -1.
     999901    1    3    3    0    0 -0.83059705388E-02  0.59845840668E-01 -0.13335520100E+00  0.89209535557E+00  0.88000000000E+00 0. -1.
        -11    1    4    4    0    0  0.62032541964E-03 -0.41007625914E-01  0.55776383983E-01  0.69233491302E-01  0.51100000000E-03 0.  1.
         11    1    4    4    0    0 -0.76222939385E-03 -0.19794345895E-01  0.56390731123E-01  0.59771003008E-01  0.51100000000E-03 0. -1.
</event>
<event>
 8    1  0.1075206E+005  0.1043930E+01  0.7957747E-01            NaN
         13   -1    0    0    0    0  0.00000000000E+00  0.00000000000E+00  0.74505805969E-08  0.10566000000E+00  0.10566000000E+00 0. -1.
     999900   -1    0    0    0    0 -0.00000000000E+00 -0.00000000000E+00 -0.74505805969E-08  0.93827000000E+00  0.93827000000E+00 0. -1.
     999902    2    1    2    0    0 -0.29609315533E-02  0.22067915083E-01  0.97720614810E-02  0.10196143018E+01  0.10193243210E+01 0.  0.
     999903    2    3    3    0    0 -0.11062898876E+00  0.68139388208E-01 -0.11798748847E-02  0.13178834136E+00  0.22023293000E-01 0.  0.
         14    1    1    2    0    0  0.29609315533E-02 -0.22067915083E-01 -0.97720614810E-02  0.24315698167E-01  0.00000000000E+00 0. -1.
     999901    1    3    3    0    0  0.10766805721E+00 -0.46071473125E-01  0.10951936366E-01  0.88782596047E+00  0.88000000000E+00 0. -1.
        -11    1    4    4    0    0 -0.98501666374E-01  0.52560529478E-01  0.26073506569E-02  0.11167921443E+00  0.51100000000E-03 0.  1.
         11    1    4    4    0    0 -0.12127322385E-01  0.15578858730E-01 -0.37872255416E-02  0.20109126929E-01  0.51100000000E-03 0. -1.
</event>
<event>
 8    1  0.1075206E+005  0.1043930E+01  0.7957747E-01            NaN
         13   -1    0    0    0    0  0.00000000000E+00  0.00000000000E+00  0.74505805969E-08  0.10566000000E+00  0.10566000000E+00 0. -1.
     999900   -1    0    0    0    0 -0.00000000000E+00 -0.00000000000E+00 -0.74505805969E-08  0.93827000000E+00  0.93827000000E+00 0.  1.
     999902    2    1    2    0    0 -0.13897210616E-02  0.13348957778E-01 -0.18608311692E-01  0.10209866946E+01  0.10207288745E+01 0.  0.
     999903    2    3    3    0    0 -0.12547401753E+00  0.19898549675E-01  0.26004775873E-01  0.13113831574E+00  0.19527624871E-01 0.  0.
         14    1    1    2    0    0  0.13897210616E-02 -0.13348957778E-01  0.18608311692E-01  0.22943305395E-01  0.00000000000E+00 0. -1.
     999901    1    3    3    0    0  0.12408429647E+00 -0.65495918972E-02 -0.44613087565E-01  0.88984837886E+00  0.88000000000E+00 0.  1.
        -11    1    4    4    0    0 -0.95629694784E-01  0.16681453854E-01  0.28052240005E-01  0.10104701241E+00  0.51100000000E-03 0. -1.
         11    1    4    4    0    0 -0.29844322746E-01  0.32170958217E-02 -0.20474641326E-02  0.30091303329E-01  0.51100000000E-03 0.  1.
</event>
<event>
 8    1  0.1075206E+005  0.1043930E+01  0.7957747E-01            NaN
         13   -1    0    0    0    0  0.00000000000E+00  0.00000000000E+00  0.74505805969E-08  0.10566000000E+00  0.10566000000E+00 0. -1.
     999900   -1    0    0    0    0 -0.00000000000E+00 -0.00000000000E+00 -0.74505805969E-08  0.93827000000E+00  0.93827000000E+00 0. -1.
     999902    2    1    2    0    0  0.54456004505E-02  0.16152693879E-01 -0.20567215964E-01  0.10172171855E+01  0.10168663767E+01 0.  0.
     999903    2    3    3    0    0 -0.92883985753E-01 -0.68044973140E-01 -0.50132203041E-01  0.12725536439E+00  0.20570289354E-01 0.  0.
         14    1    1    2    0    0 -0.54456004505E-02 -0.16152693879E-01  0.20567215964E-01  0.26712814459E-01  0.00000000000E+00 0. -1.
     999901    1    3    3    0    0  0.98329586204E-01  0.84197667018E-01  0.29564987077E-01  0.88996182116E+00  0.88000000000E+00 0. -1.
        -11    1    4    4    0    0 -0.23525290207E-01 -0.21996076339E-01 -0.51316479331E-02  0.32616891102E-01  0.51100000000E-03 0.  1.
         11    1    4    4    0    0 -0.69358695546E-01 -0.46048896801E-01 -0.45000555107E-01  0.94638473284E-01  0.51100000000E-03 0. -1.
</event>
<event>
 8    1  0.1075206E+005  0.1043930E+01  0.7957747E-01            NaN
         13   -1    0    0    0    0  0.00000000000E+00  0.00000000000E+00  0.74505805969E-08  0.10566000000E+00  0.10566000000E+00 0. -1.
     999900   -1    0    0    0    0 -0.00000000000E+00 -0.00000000000E+00 -0.74505805969E-08  0.93827000000E+00  0.93827000000E+00 0. -1.
     999902    2    1    2    0    0 -0.37841557502E-02  0.16114236697E-01  0.17161066845E-01  0.10200869575E+01  0.10198082713E+01 0.  0.
     999903    2    3    3    0    0 -0.53222920489E-01 -0.20914757055E-03 -0.11570125726E+00  0.12859212215E+00  0.17788477760E-01 0.  0.
         14    1    1    2    0    0  0.37841557502E-02 -0.16114236697E-01 -0.17161066845E-01  0.23843042472E-01  0.00000000000E+00 0.  1.
     999901    1    3    3    0    0  0.49438764739E-01  0.16323384267E-01  0.13286232410E+00  0.89149483537E+00  0.88000000000E+00 0.  1.
        -11    1    4    4    0    0 -0.24377543269E-01  0.53758344413E-02 -0.69381641126E-01  0.73737625797E-01  0.51100000000E-03 0. -1.
         11    1    4    4    0    0 -0.28845377221E-01 -0.55849820118E-02 -0.46319616131E-01  0.54854496357E-01  0.51100000000E-03 0.  1.
</event>
<event>
 8    1  0.1075206E+005  0.1043930E+01  0.7957747E-01            NaN
         13   -1    0    0    0    0  0.00000000000E+00  0.00000000000E+00  0.74505805969E-08  0.10566000000E+00  0.10566000000E+00 0. -1.
     999900   -1    0    0    0    0 -0.00000000000E+00 -0.00000000000E+00 -0.74505805969E-08  0.93827000000E+00  0.93827000000E+00 0.  1.
     999902    2    1    2    0    0  0.43581387438E-02  0.24253584356E-01  0.25230263333E-02  0.10191591423E+01  0.10188580677E+01 0.  0.
     999903    2    3    3    0    0 -0.10488906504E+00 -0.12354196683E-01 -0.70463895241E-01  0.12865244843E+00  0.20783402380E-01 0.  0.
         14    1    1    2    0    0 -0.43581387438E-02 -0.24253584356E-01 -0.25230263333E-02  0.24770857662E-01  0.00000000000E+00 0.  1.
     999901    1    3    3    0    0  0.10924720378E+00  0.36607781040E-01  0.72986921575E-01  0.89050669390E+00  0.88000000000E+00 0. -1.
        -11    1    4    4    0    0 -0.44876224046E-01 -0.13915457350E-01 -0.37814261850E-01  0.60313306642E-01  0.51100000000E-03 0. -1.
         11    1    4    4    0    0 -0.60012840995E-01  0.15612606664E-02 -0.32649633391E-01  0.68339141791E-01  0.51100000000E-03 0.  1.
</event>
<event>
 8    1  0.1075206E+005  0.1043930E+01  0.7957747E-01            NaN
         13   -1    0    0    0    0  0.00000000000E+00  0.00000000000E+00  0.74505805969E-08  0.10566000000E+00  0.10566000000E+00 0.  1.
     999900   -1    0    0    0    0 -0.00000000000E+00 -0.00000000000E+00 -0.74505805969E-08  0.93827000000E+00  0.93827000000E+00 0.  1.
     999902    2    1    2    0    0 -0.13731680155E-01  0.10719039251E-01  0.86712934571E-02  0.10244711158E+01  0.10242862974E+01 0.  0.
     999903    2    3    3    0    0 -0.31651254898E-01 -0.39174130744E-01  0.12391457597E+00  0.13537525277E+00  0.20861986208E-01 0.  0.
         14    1    1    2    0    0  0.13731680155E-01 -0.10719039251E-01 -0.86712934571E-02  0.19458884155E-01  0.00000000000E+00 0. -1.
     999901    1    3    3    0    0  0.17919574744E-01  0.49893169995E-01 -0.11524328251E+00  0.88909586307E+00  0.88000000000E+00 0.  1.
        -11    1    4    4    0    0 -0.43905242394E-02 -0.16321255862E-01  0.24347798436E-01  0.29643490107E-01  0.51100000000E-03 0. -1.
         11    1    4    4    0    0 -0.27260730659E-01 -0.22852874881E-01  0.99566777535E-01  0.10573176266E+00  0.51100000000E-03 0.  1.
</event>
<event>
 8    1  0.1075206E+005  0.1043930E+01  0.7957747E-01            NaN
         13   -1    0    0    0    0  0.00000000000E+00  0.00000000000E+00  0.74505805969E-08  0.10566000000E+00  0.10566000000E+00 0. -1.
     999900   -1    0    0    0    0 -0.00000000000E+00 -0.00000000000E+00 -0.74505805969E-08  0.93827000000E+00  0.93827000000E+00 0. -1.
     999902    2    1    2    0    0  0.97957909506E-02  0.21033686609E-01  0.16650285682E-01  0.10153711921E+01  0.10149694835E+01 0.  0.
     999903    2    3    3    0    0 -0.13812134014E-01 -0.95279043830E-01 -0.73595549687E-01  0.12282971065E+00  0.20048981183E-01 0.  0.
         14    1    1    2    0    0 -0.97957909506E-02 -0.21033686609E-01 -0.16650285682E-01  0.28558807854E-01  0.00000000000E+00 0.  1.
     999901    1    3    3    0    0  0.23607924965E-01  0.11631273044E+00  0.90245835369E-01  0.89254148149E+00  0.88000000000E+00 0.  1.
        -11    1    4    4    0    0 -0.17917469366E-01 -0.56790092104E-01 -0.42200182417E-01  0.72988127710E-01  0.51100000000E-03 0.  1.
         11    1    4    4    0    0  0.41053353514E-02 -0.38488951726E-01 -0.31395367270E-01  0.49841582944E-01  0.51100000000E-03 0. -1.
</event>
<event>
 8    1  0.1075206E+005  0.1043930E+01  0.7957747E-01            NaN
         13   -1    0    0    0    0  0.00000000000E+00  0.00000000000E+00  0.74505805969E-08  0.10566000000E+00  0.10566000000E+00 0. -1.
     999900   -1    0    0    0    0 -0.00000000000E+00 -0.00000000000E+00 -0.74505805969E-08  0.93827000000E+00  0.93827000000E+00 0. -1.
     999902    2    1    2    0    0  0.48779589414E-02 -0.11410404537E-02 -0.23280673870E-01  0.10201164276E+01  0.10198384380E+01 0.  0.
     999903    2    3    3    0    0 -0.58057651070E-01  0.11289627714E+00  0.17372966407E-01  0.12960077959E+00  0.19449469580E-01 0.  0.
         14    1    1    2    0    0 -0.48779589414E-02  0.11410404537E-02  0.23280673870E-01  0.23813572445E-01  0.00000000000E+00 0. -1.
     999901    1    3    3    0    0  0.62935610011E-01 -0.11403731760E+00 -0.40653640276E-01  0.89051564797E+00  0.88000000000E+00 0.  1.
        -11    1    4    4    0    0 -0.38807940677E-01  0.54290851058E-01  0.96634626670E-02  0.67432902947E-01  0.51100000000E-03 0. -1.
         11    1    4    4    0    0 -0.19249710393E-01  0.58605426085E-01  0.77095037397E-02  0.62167876638E-01  0.51100000000E-03 0.  1.
</event>
<event>
 8    1  0.1075206E+005  0.1043930E+01  0.7957747E-01            NaN
         13   -1    0    0    0    0  0.00000000000E+00  0.00000000000E+00  0.74505805969E-08  0.10566000000E+00  0.10566000000E+00 0. -1.
     999900   -1    0    0    0    0 -0.00000000000E+00 -0.00000000000E+00 -0.74505805969E-08  0.93827000000E+00  0.93827000000E+00 0.  1.
     999902    2    1    2    0    0 -0.12021041412E-01  0.21868987331E-01  0.81975601503E-02  0.10176629477E+01  0.10173238998E+01 0.  0.
     999903    2    3    3    0    0 -0.22809199044E-01 -0.10707088664E+00  0.60314292002E-01  0.12667583827E+00  0.20603879656E-01 0.  0.
         14    1    1    2    0    0  0.12021041412E-01 -0.21868987331E-01 -0.81975601503E-02  0.26267052289E-01  0.00000000000E+00 0.  1.
     999901    1    3    3    0    0  0.10788157631E-01  0.12893987397E+00 -0.52116731852E-01  0.89098710944E+00  0.88000000000E+00 0.  1.
        -11    1    4    4    0    0 -0.91054155716E-02 -0.31550293855E-01  0.28876838708E-01  0.43731711261E-01  0.51100000000E-03 0.  1.
         11    1    4    4    0    0 -0.13703783472E-01 -0.75520592780E-01  0.31437453294E-01  0.82944127013E-01  0.51100000000E-03 0. -1.
</event>
<event>
 8    1  0.1075206E+005  0.1043930E+01  0.7957747E-01            NaN
         13   -1    0    0    0    0  0.00000000000E+00  0.00000000000E+00  0.74505805969E-08  0.10566000000E+00  0.10566000000E+00 0. -1.
     999900   -1    0    0    0    0 -0.00000000000E+00 -0.00000000000E+00 -0.74505805969E-08  0.93827000000E+00  0.93827000000E+00 0. -1.
     999902    2    1    2    0    0 -0.69425322797E-02  0.11861584910E-01  0.21268361317E-01  0.10186072998E+01  0.10182924885E+01 0.  0.
     999903    2    3    3    0    0 -0.71982066484E-02 -0.43828063185E-01  0.12194122830E+00  0.13111846698E+00  0.18699623595E-01 0.  0.
         14    1    1    2    0    0  0.69425322797E-02 -0.11861584910E-01 -0.21268361317E-01  0.25322700174E-01  0.00000000000E+00 0.  1.
     999901    1    3    3    0    0  0.25567436862E-03  0.55689648094E-01 -0.10067286699E+00  0.88748883284E+00  0.88000000000E+00 0. -1.
        -11    1    4    4    0    0 -0.58521733470E-02 -0.18237877668E-01  0.29393330986E-01  0.35086993917E-01  0.51100000000E-03 0.  1.
         11    1    4    4    0    0 -0.13460333014E-02 -0.25590185516E-01  0.92547897316E-01  0.96031473065E-01  0.51100000000E-03 0. -1.
</event>
<event>
 8    1  0.1075206E+005  0.1043930E+01  0.7957747E-01            NaN
         13   -1    0    0    0    0  0.00000000000E+00  0.00000000000E+00  0.74505805969E-08  0.10566000000E+00  0.10566000000E+00 0.  1.
     999900   -1    0    0    0    0 -0.00000000000E+00 -0.00000000000E+00 -0.74505805969E-08  0.93827000000E+00  0.93827000000E+00 0.  1.
     999902    2    1    2    0    0  0.15939044253E-01 -0.18863858986E-01  0.60336392366E-03  0.10192265113E+01  0.10189270921E+01 0.  0.
     999903    2    3    3    0    0  0.56971349585E-01 -0.11397354372E+00 -0.31933821418E-01  0.13255398398E+00  0.17750672625E-01 0.  0.
         14    1    1    2    0    0 -0.15939044253E-01  0.18863858986E-01 -0.60336392366E-03  0.24703488733E-01  0.00000000000E+00 0.  1.
     999901    1    3    3    0    0 -0.41032305333E-01  0.95109684730E-01  0.32537185341E-01  0.88667252728E+00  0.88000000000E+00 0. -1.
        -11    1    4    4    0    0  0.17441440093E-01 -0.19111632155E-01 -0.62132589221E-02  0.26614357471E-01  0.51100000000E-03 0. -1.
         11    1    4    4    0    0  0.39529909493E-01 -0.94861911561E-01 -0.25720562496E-01  0.10593962651E+00  0.51100000000E-03 0.  1.
</event>
<event>
 8    1  0.1075206E+005  0.1043930E+01  0.7957747E-01            NaN
         13   -1    0    0    0    0  0.00000000000E+00  0.00000000000E+00  0.74505805969E-08  0.10566000000E+00  0.10566000000E+00 0. -1.
     999900   -1    0    0    0    0 -0.00000000000E+00 -0.00000000000E+00 -0.74505805969E-08  0.93827000000E+00  0.93827000000E+00 0.  1.
     999902    2    1    2    0    0 -0.19816704401E-01 -0.11288981060E-01  0.67700571979E-02  0.10201397385E+01  0.10198622993E+01 0.  0.
     999903    2    3    3    0    0 -0.23202730937E-01 -0.31375759284E-01 -0.12282789898E+00  0.13041473939E+00  0.19962627286E-01 0.  0.
         14    1    1    2    0    0  0.19816704401E-01  0.11288981060E-01 -0.67700571979E-02  0.23790261477E-01  0.00000000000E+00 0.  1.
     999901    1    3    3    0    0  0.33860265365E-02  0.20086778224E-01  0.12959795618E+00  0.88972499913E+00  0.88000000000E+00 0. -1.
        -11    1    4    4    0    0 -0.83488350900E-02 -0.26603134522E-01 -0.86213482677E-01  0.90611563997E-01  0.51100000000E-03 0.  1.
         11    1    4    4    0    0 -0.14853895847E-01 -0.47726247623E-02 -0.36614416306E-01  0.39803175393E-01  0.51100000000E-03 0. -1.
</event>
<event>
 8    1  0.1075206E+005  0.1043930E+01  0.7957747E-01            NaN
         13   -1    0    0    0    0  0.00000000000E+00  0.00000000000E+00  0.74505805969E-08  0.10566000000E+00  0.10566000000E+00 0.  1.
     999900   -1    0    0    0    0 -0.00000000000E+00 -0.00000000000E+00 -0.74505805969E-08  0.93827000000E+00  0.93827000000E+00 0. -1.
     999902    2    1    2    0    0  0.50054832713E-02  0.14091636059E-01  0.18792387994E-01  0.10199136948E+01  0.10196308949E+01 0.  0.
     999903    2    3    3    0    0 -0.14398874202E-01 -0.12597892757E+00  0.69101550374E-02  0.12854537622E+00  0.19953589498E-01 0.  0.
         14    1    1    2    0    0 -0.50054832713E-02 -0.14091636059E-01 -0.18792387994E-01  0.24016305214E-01  0.00000000000E+00 0.  1.
     999901    1    3    3    0    0  0.19404357473E-01  0.14007056363E+00  0.11882232957E-01  0.89136831857E+00  0.88000000000E+00 0. -1.
        -11    1    4    4    0    0 -0.56582014789E-02 -0.97378166323E-01 -0.12120270475E-02  0.97551282160E-01  0.51100000000E-03 0. -1.
         11    1    4    4    0    0 -0.87406727228E-02 -0.28600761250E-01  0.81221820849E-02  0.30994094059E-01  0.51100000000E-03 0.  1.
</event>
<event>
 8    1  0.1075206E+005  0.1043930E+01  0.7957747E-01            NaN
         13   -1    0    0    0    0  0.00000000000E+00  0.00000000000E+00  0.74505805969E-08  0.10566000000E+00  0.10566000000E+00 0.  1.
     999900   -1    0    0    0    0 -0.00000000000E+00 -0.00000000000E+00 -0.74505805969E-08  0.93827000000E+00  0.93827000000E+00 0.  1.
     999902    2    1    2    0    0 -0.23340461017E-01 -0.13902153479E-02  0.18579849879E-02  0.10204744692E+01  0.10202048717E+01 0.  0.
     999903    2    3    3    0    0  0.12956356198E-03  0.47683645576E-01  0.12025084321E+00  0.13088132914E+00  0.19897491826E-01 0.  0.
         14    1    1    2    0    0  0.23340461017E-01  0.13902153479E-02 -0.18579849879E-02  0.23455530849E-01  0.00000000000E+00 0. -1.
     999901    1    3    3    0    0 -0.23470024579E-01 -0.49073860923E-01 -0.11839285823E+00  0.88959314001E+00  0.88000000000E+00 0.  1.
        -11    1    4    4    0    0  0.15533346031E-02  0.13797754163E-01  0.15697251346E-01  0.20963198447E-01  0.51100000000E-03 0.  1.
         11    1    4    4    0    0 -0.14237710411E-02  0.33885891412E-01  0.10455359187E+00  0.10991813069E+00  0.51100000000E-03 0. -1.
</event>
<event>
 8    1  0.1075206E+005  0.1043930E+01  0.7957747E-01            NaN
         13   -1    0    0    0    0  0.00000000000E+00  0.00000000000E+00  0.74505805969E-08  0.10566000000E+00  0.10566000000E+00 0. -1.
     999900   -1    0    0    0    0 -0.00000000000E+00 -0.00000000000E+00 -0.74505805969E-08  0.93827000000E+00  0.93827000000E+00 0. -1.
     999902    2    1    2    0    0 -0.12756407827E-01 -0.19001315247E-01 -0.51983290307E-02  0.10204609023E+01  0.10201909893E+01 0.  0.
     999903    2    3    3    0    0  0.84167066860E-02  0.11322877397E-01 -0.12845491577E+00  0.13110155783E+00  0.22088562115E-01 0.  0.
         14    1    1    2    0    0  0.12756407827E-01  0.19001315247E-01  0.51983290307E-02  0.23469097692E-01  0.00000000000E+00 0.  1.
     999901    1    3    3    0    0 -0.21173114513E-01 -0.30324192644E-01  0.12325658674E+00  0.88935934448E+00  0.88000000000E+00 0.  1.
        -11    1    4    4    0    0  0.10921620108E-01 -0.96859491418E-03 -0.31937854599E-01  0.33771402685E-01  0.51100000000E-03 0. -1.
         11    1    4    4    0    0 -0.25049134218E-02  0.12291472311E-01 -0.96517061169E-01  0.97330155144E-01  0.51100000000E-03 0.  1.
</event>
<event>
 8    1  0.1075206E+005  0.1043930E+01  0.7957747E-01            NaN
         13   -1    0    0    0    0  0.00000000000E+00  0.00000000000E+00  0.74505805969E-08  0.10566000000E+00  0.10566000000E+00 0. -1.
     999900   -1    0    0    0    0 -0.00000000000E+00 -0.00000000000E+00 -0.74505805969E-08  0.93827000000E+00  0.93827000000E+00 0.  1.
     999902    2    1    2    0    0  0.21240409413E-01  0.41588811745E-03 -0.10229756584E-01  0.10203508593E+01  0.10200783795E+01 0.  0.
     999903    2    3    3    0    0  0.24010591490E-01  0.41471323684E-01 -0.12172633784E+00  0.13236172070E+00  0.20148066694E-01 0.  0.
         14    1    1    2    0    0 -0.21240409413E-01 -0.41588811745E-03  0.10229756584E-01  0.23579140670E-01  0.00000000000E+00 0. -1.
     999901    1    3    3    0    0 -0.27701820772E-02 -0.41055435567E-01  0.11149658125E+00  0.88798913863E+00  0.88000000000E+00 0. -1.
        -11    1    4    4    0    0  0.13268743953E-01  0.56283736613E-02 -0.29651374605E-01  0.32972765931E-01  0.51100000000E-03 0. -1.
         11    1    4    4    0    0  0.10741847537E-01  0.35842950023E-01 -0.92074963230E-01  0.99388954767E-01  0.51100000000E-03 0.  1.
</event>
<event>
 8    1  0.1075206E+005  0.1043930E+01  0.7957747E-01            NaN
         13   -1    0    0    0    0  0.00000000000E+00  0.00000000000E+00  0.74505805969E-08  0.10566000000E+00  0.10566000000E+00 0.  1.
     999900   -1    0    0    0    0 -0.00000000000E+00 -0.00000000000E+00 -0.74505805969E-08  0.93827000000E+00  0.93827000000E+00 0. -1.
     999902    2    1    2    0    0 -0.12445613747E-01 -0.15728810158E-01 -0.11746526377E-01  0.10206862986E+01  0.10204216043E+01 0.  0.
     999903    2    3    3    0    0  0.10357980446E+00 -0.72214569914E-01 -0.28839361383E-01  0.13111072359E+00  0.20361558774E-01 0.  0.
         14    1    1    2    0    0  0.12445613747E-01  0.15728810158E-01  0.11746526377E-01  0.23243701350E-01  0.00000000000E+00 0.  1.
     999901    1    3    3    0    0 -0.11602541821E+00  0.56485759756E-01  0.17092835006E-01  0.88957557506E+00  0.88000000000E+00 0.  1.
        -11    1    4    4    0    0  0.58875190311E-01 -0.50335405769E-01 -0.24040681817E-01  0.81105835865E-01  0.51100000000E-03 0. -1.
         11    1    4    4    0    0  0.44704614153E-01 -0.21879164145E-01 -0.47986795663E-02  0.50004887730E-01  0.51100000000E-03 0.  1.
</event>
<event>
 8    1  0.1075206E+005  0.1043930E+01  0.7957747E-01            NaN
         13   -1    0    0    0    0  0.00000000000E+00  0.00000000000E+00  0.74505805969E-08  0.10566000000E+00  0.10566000000E+00 0. -1.
     999900   -1    0    0    0    0 -0.00000000000E+00 -0.00000000000E+00 -0.74505805969E-08  0.93827000000E+00  0.93827000000E+00 0. -1.
     999902    2    1    2    0    0  0.16031659841E-01  0.25247713449E-02  0.17104135748E-01  0.10203516191E+01  0.10200791570E+01 0.  0.
     999903    2    3    3    0    0 -0.61476928058E-01 -0.10759724569E+00 -0.28888794679E-01  0.12892030400E+00  0.20719612971E-01 0.  0.
         14    1    1    2    0    0 -0.16031659841E-01 -0.25247713449E-02 -0.17104135748E-01  0.23578380930E-01  0.00000000000E+00 0.  1.
     999901    1    3    3    0    0  0.77508587899E-01  0.11012201704E+00  0.45992930426E-01  0.89143131507E+00  0.88000000000E+00 0. -1.
        -11    1    4    4    0    0 -0.27758475833E-01 -0.34962910032E-01 -0.17853437326E-01  0.48082682993E-01  0.51100000000E-03 0.  1.
         11    1    4    4    0    0 -0.33718452225E-01 -0.72634335661E-01 -0.11035357353E-01  0.80837621009E-01  0.51100000000E-03 0. -1.
</event>
<event>
 8    1  0.1075206E+005  0.1043930E+01  0.7957747E-01            NaN
         13   -1    0    0    0    0  0.00000000000E+00  0.00000000000E+00  0.74505805969E-08  0.10566000000E+00  0.10566000000E+00 0.  1.
     999900   -1    0    0    0    0 -0.00000000000E+00 -0.00000000000E+00 -0.74505805969E-08  0.93827000000E+00  0.93827000000E+00 0. -1.
     999902    2    1    2    0    0  0.10362492762E-01  0.20810761227E-01  0.18898148070E-02  0.10206053255E+01  0.10203387624E+01 0.  0.
     999903    2    3    3    0    0 -0.57915029407E-01  0.52268932485E-01 -0.10350939790E+00  0.13113333012E+00  0.19888762690E-01 0.  0.
         14    1    1    2    0    0 -0.10362492762E-01 -0.20810761227E-01 -0.18898148070E-02  0.23324674469E-01  0.00000000000E+00 0. -1.
     999901    1    3    3    0    0  0.68277522170E-01 -0.31458171258E-01  0.10539921271E+00  0.88947199541E+00  0.88000000000E+00 0.  1.
        -11    1    4    4    0    0 -0.23283641967E-01  0.31827710927E-01 -0.60780742273E-01  0.72454750834E-01  0.51100000000E-03 0. -1.
         11    1    4    4    0    0 -0.34631387440E-01  0.20441221558E-01 -0.42728655627E-01  0.58678579290E-01  0.51100000000E-03 0.  1.
</event>
<event>
 8    1  0.1075206E+005  0.1043930E+01  0.7957747E-01            NaN
         13   -1    0    0    0    0  0.00000000000E+00  0.00000000000E+00  0.74505805969E-08  0.10566000000E+00  0.10566000000E+00 0. -1.
     999900   -1    0    0    0    0 -0.00000000000E+00 -0.00000000000E+00 -0.74505805969E-08  0.93827000000E+00  0.93827000000E+00 0. -1.
     999902    2    1    2    0    0  0.17553204183E-01 -0.23618341167E-02 -0.19606989344E-01  0.10175079019E+01  0.10171647866E+01 0.  0.
     999903    2    3    3    0    0 -0.33634071351E-01  0.21768634187E-01  0.11611798424E+00  0.12530630744E+00  0.24762072416E-01 0.  0.
         14    1    1    2    0    0 -0.17553204183E-01  0.23618341167E-02  0.19606989344E-01  0.26422098111E-01  0.00000000000E+00 0. -1.
     999901    1    3    3    0    0  0.51187275534E-01 -0.24130468304E-01 -0.13572497359E+00  0.89220159445E+00  0.88000000000E+00 0. -1.
        -11    1    4    4    0    0 -0.33991075916E-01  0.18811228555E-01  0.78714559000E-01  0.87780968787E-01  0.51100000000E-03 0.  1.
         11    1    4    4    0    0  0.35700456478E-03  0.29574056324E-02  0.37403425242E-01  0.37525338655E-01  0.51100000000E-03 0. -1.
</event>
<event>
 8    1  0.1075206E+005  0.1043930E+01  0.7957747E-01            NaN
         13   -1    0    0    0    0  0.00000000000E+00  0.00000000000E+00  0.74505805969E-08  0.10566000000E+00  0.10566000000E+00 0. -1.
     999900   -1    0    0    0    0 -0.00000000000E+00 -0.00000000000E+00 -0.74505805969E-08  0.93827000000E+00  0.93827000000E+00 0. -1.
     999902    2    1    2    0    0 -0.20805094059E-01  0.18323075296E-01 -0.13146884195E-01  0.10132473080E+01  0.10127826418E+01 0.  0.
     999903    2    3    3    0    0  0.11778897033E+00  0.23803371309E-01  0.91090423278E-02  0.12210552653E+00  0.19645430544E-01 0.  0.
         14    1    1    2    0    0  0.20805094059E-01 -0.18323075296E-01  0.13146884195E-01  0.30682692045E-01  0.00000000000E+00 0. -1.
     999901    1    3    3    0    0 -0.13859406439E+00 -0.54802960131E-02 -0.22255926523E-01  0.89114178142E+00  0.88000000000E+00 0. -1.
        -11    1    4    4    0    0  0.83230674699E-01  0.10690375576E-01 -0.47489325332E-03  0.83917316362E-01  0.51100000000E-03 0. -1.
         11    1    4    4    0    0  0.34558295630E-01  0.13112995733E-01  0.95839355811E-02  0.38188210172E-01  0.51100000000E-03 0.  1.
</event>
<event>
 8    1  0.1075206E+005  0.1043930E+01  0.7957747E-01            NaN
         13   -1    0    0    0    0  0.00000000000E+00  0.00000000000E+00  0.74505805969E-08  0.10566000000E+00  0.10566000000E+00 0. -1.
     999900   -1    0    0    0    0 -0.00000000000E+00 -0.00000000000E+00 -0.74505805969E-08  0.93827000000E+00  0.93827000000E+00 0. -1.
     999902    2    1    2    0    0 -0.11171655068E-01 -0.11631214723E-01  0.12943853789E-01  0.10232506774E+01  0.10230416973E+01 0.  0.
     999903    2    3    3    0    0  0.80716899228E-01  0.27757117162E-02 -0.10129558907E+00  0.13100535448E+00  0.19459808375E-01 0.  0.
         14    1    1    2    0    0  0.11171655068E-01  0.11631214723E-01 -0.12943853789E-01  0.20679322615E-01  0.00000000000E+00 0.  1.
     999901    1    3    3    0    0 -0.91888554296E-01 -0.14406926439E-01  0.11423944286E+00  0.89224532290E+00  0.88000000000E+00 0.  1.
        -11    1    4    4    0    0  0.76857223996E-01 -0.26027775420E-03 -0.88089030242E-01  0.11690611188E+00  0.51100000000E-03 0. -1.
         11    1    4    4    0    0  0.38596752318E-02  0.30359894704E-02 -0.13206558824E-01  0.14099242601E-01  0.51100000000E-03 0.  1.
</event>
<event>
 8    1  0.1075206E+005  0.1043930E+01  0.7957747E-01            NaN
         13   -1    0    0    0    0  0.00000000000E+00  0.00000000000E+00  0.74505805969E-08  0.10566000000E+00  0.10566000000E+00 0. -1.
     999900   -1    0    0    0    0 -0.00000000000E+00 -0.00000000000E+00 -0.74505805969E-08  0.93827000000E+00  0.93827000000E+00 0. -1.
     999902    2    1    2    0    0  0.13329105975E-01 -0.10447844624E-01  0.15489370459E-01  0.10209791150E+01  0.10207211226E+01 0.  0.
     999903    2    3    3    0    0  0.10956296547E+00  0.17462242766E-01  0.71687536136E-01  0.13351184098E+00  0.19425125990E-01 0.  0.
         14    1    1    2    0    0 -0.13329105975E-01  0.10447844624E-01 -0.15489370459E-01  0.22950884963E-01  0.00000000000E+00 0.  1.
     999901    1    3    3    0    0 -0.96233859497E-01 -0.27910087391E-01 -0.56198165678E-01  0.88746727405E+00  0.88000000000E+00 0.  1.
        -11    1    4    4    0    0  0.69241422037E-01  0.19435019343E-01  0.40866448168E-01  0.82718935011E-01  0.51100000000E-03 0. -1.
         11    1    4    4    0    0  0.40321543436E-01 -0.19727765763E-02  0.30821087969E-01  0.50792905971E-01  0.51100000000E-03 0.  1.
</event>
<event>
 8    1  0.1075206E+005  0.1043930E+01  0.7957747E-01            NaN
         13   -1    0    0    0    0  0.00000000000E+00  0.00000000000E+00  0.74505805969E-08  0.10566000000E+00  0.10566000000E+00 0. -1.
     999900   -1    0    0    0    0 -0.00000000000E+00 -0.00000000000E+00 -0.74505805969E-08  0.93827000000E+00  0.93827000000E+00 0.  1.
     999902    2    1    2    0    0 -0.28885986107E-02  0.13045983142E-01  0.19340312508E-01  0.10204227806E+01  0.10201519797E+01 0.  0.
     999903    2    3    3    0    0 -0.82650736257E-01  0.99234752984E-01  0.22645376341E-01  0.13261569222E+00  0.19885380318E-01 0.  0.
         14    1    1    2    0    0  0.28885986107E-02 -0.13045983142E-01 -0.19340312508E-01  0.23507219444E-01  0.00000000000E+00 0. -1.
     999901    1    3    3    0    0  0.79762137646E-01 -0.86188769842E-01 -0.33050638328E-02  0.88780708833E+00  0.88000000000E+00 0. -1.
        -11    1    4    4    0    0 -0.68007928478E-01  0.76970245478E-01  0.25442766201E-01  0.10581631489E+00  0.51100000000E-03 0.  1.
         11    1    4    4    0    0 -0.14642807778E-01  0.22264507506E-01 -0.27973898606E-02  0.26799377328E-01  0.51100000000E-03 0. -1.
</event>
<event>
 8    1  0.1075206E+005  0.1043930E+01  0.7957747E-01            NaN
         13   -1    0    0    0    0  0.00000000000E+00  0.00000000000E+00  0.74505805969E-08  0.10566000000E+00  0.10566000000E+00 0.  1.
     999900   -1    0    0    0    0 -0.00000000000E+00 -0.00000000000E+00 -0.74505805969E-08  0.93827000000E+00  0.93827000000E+00 0. -1.
     999902    2    1    2    0    0 -0.80598935115E-02  0.15537713097E-01 -0.15731438118E-01  0.10203957578E+01  0.10201243267E+01 0.  0.
     999903    2    3    3    0    0  0.11188390064E-01  0.43698375436E-01  0.11975203852E+00  0.12937426995E+00  0.19037408112E-01 0.  0.
         14    1    1    2    0    0  0.80598935115E-02 -0.15537713097E-01  0.15731438118E-01  0.23534242222E-01  0.00000000000E+00 0.  1.
     999901    1    3    3    0    0 -0.19248283576E-01 -0.28160662340E-01 -0.13548347664E+00  0.89102148783E+00  0.88000000000E+00 0. -1.
        -11    1    4    4    0    0  0.20135753803E-02  0.33879957887E-01  0.69382860628E-01  0.77240847368E-01  0.51100000000E-03 0. -1.
         11    1    4    4    0    0  0.91748146841E-02  0.98184175493E-02  0.50369177895E-01  0.52133422585E-01  0.51100000000E-03 0.  1.
</event>
<event>
 8    1  0.1075206E+005  0.1043930E+01  0.7957747E-01            NaN
         13   -1    0    0    0    0  0.00000000000E+00  0.00000000000E+00  0.74505805969E-08  0.10566000000E+00  0.10566000000E+00 0. -1.
     999900   -1    0    0    0    0 -0.00000000000E+00 -0.00000000000E+00 -0.74505805969E-08  0.93827000000E+00  0.93827000000E+00 0. -1.
     999902    2    1    2    0    0 -0.16510157419E-02  0.15774919391E-01  0.22619513814E-01  0.10163036296E+01  0.10159280739E+01 0.  0.
     999903    2    3    3    0    0 -0.24985551277E-01 -0.60364586198E-01  0.10935214072E+00  0.12846114730E+00  0.16619706507E-01 0.  0.
         14    1    1    2    0    0  0.16510157419E-02 -0.15774919391E-01 -0.22619513814E-01  0.27626370372E-01  0.00000000000E+00 0.  1.
     999901    1    3    3    0    0  0.23334535535E-01  0.76139505588E-01 -0.86732626911E-01  0.88784248233E+00  0.88000000000E+00 0. -1.
        -11    1    4    4    0    0 -0.18657855217E-01 -0.30247936870E-01  0.69955082513E-01  0.78466731400E-01  0.51100000000E-03 0.  1.
         11    1    4    4    0    0 -0.63276960598E-02 -0.30116649328E-01  0.39397058212E-01  0.49994415897E-01  0.51100000000E-03 0. -1.
</event>
<event>
 8    1  0.1075206E+005  0.1043930E+01  0.7957747E-01            NaN
         13   -1    0    0    0    0  0.00000000000E+00  0.00000000000E+00  0.74505805969E-08  0.10566000000E+00  0.10566000000E+00 0. -1.
     999900   -1    0    0    0    0 -0.00000000000E+00 -0.00000000000E+00 -0.74505805969E-08  0.93827000000E+00  0.93827000000E+00 0. -1.
     999902    2    1    2    0    0 -0.42084296399E-02  0.16476225208E-01 -0.15240336211E-01  0.10210948358E+01  0.10208394678E+01 0.  0.
     999903    2    3    3    0    0 -0.86430562791E-02  0.26336438280E-01  0.12520768925E+00  0.12989197584E+00  0.20655496497E-01 0.  0.
         14    1    1    2    0    0  0.42084296399E-02 -0.16476225208E-01  0.15240336211E-01  0.22835164220E-01  0.00000000000E+00 0.  1.
     999901    1    3    3    0    0  0.44346266393E-02 -0.98602130718E-02 -0.14044802546E+00  0.89120285994E+00  0.88000000000E+00 0. -1.
        -11    1    4    4    0    0 -0.13239330329E-01  0.22115709492E-01  0.11548555222E+00  0.11832818078E+00  0.51100000000E-03 0.  1.
         11    1    4    4    0    0  0.45962740494E-02  0.42207287886E-02  0.97221370313E-02  0.11563795056E-01  0.51100000000E-03 0. -1.
</event>
<event>
 7    1  0.1075206E+005  0.1043930E+01  0.7957747E-01            NaN
         13   -1    0    0    0    0  0.00000000000E+00  0.00000000000E+00  0.74505805969E-08  0.10566000000E+00  0.10566000000E+00 0.  1.
     999900   -1    0    0    0    0 -0.00000000000E+00 -0.00000000000E+00 -0.74505805969E-08  0.93827000000E+00  0.93827000000E+00 0. -1.
     999903    2    1    2    0    0 -0.88453305644E-01  0.83847796045E-02  0.71336063790E-01  0.11571611414E+00  0.20176552369E-01 0.  0.
         14    1    1    2    0    0  0.12322166894E-01 -0.34731259850E-01  0.16106257642E-01  0.40218251366E-01  0.00000000000E+00 0.  1.
     999901    1    1    2    0    0  0.76131138750E-01  0.26346480245E-01 -0.87442321432E-01  0.88799563450E+00  0.88000000000E+00 0.  1.
        -11    1    3    3    0    0 -0.70240970817E-01  0.12555757376E-01  0.63241668473E-01  0.95347840965E-01  0.51100000000E-03 0.  1.
         11    1    3    3    0    0 -0.18212334827E-01 -0.41709777716E-02  0.80943953177E-02  0.20368273171E-01  0.51100000000E-03 0. -1.
</event>
<event>
 8    1  0.1075206E+005  0.1043930E+01  0.7957747E-01            NaN
         13   -1    0    0    0    0  0.00000000000E+00  0.00000000000E+00  0.74505805969E-08  0.10566000000E+00  0.10566000000E+00 0.  1.
     999900   -1    0    0    0    0 -0.00000000000E+00 -0.00000000000E+00 -0.74505805969E-08  0.93827000000E+00  0.93827000000E+00 0.  1.
     999902    2    1    2    0    0 -0.12577393985E-01  0.95307780492E-02 -0.17765138135E-01  0.10201681250E+01  0.10198913553E+01 0.  0.
     999903    2    3    3    0    0 -0.43752891066E-01  0.11196054690E+00 -0.53161527773E-01  0.13297216382E+00  0.20148666896E-01 0.  0.
         14    1    1    2    0    0  0.12577393985E-01 -0.95307780492E-02  0.17765138135E-01  0.23761874981E-01  0.00000000000E+00 0.  1.
     999901    1    3    3    0    0  0.31175497081E-01 -0.10242976885E+00  0.35396389638E-01  0.88719596120E+00  0.88000000000E+00 0. -1.
        -11    1    4    4    0    0 -0.17685549693E-01  0.43067467275E-01 -0.31416763873E-01  0.56168136685E-01  0.51100000000E-03 0. -1.
         11    1    4    4    0    0 -0.26067341374E-01  0.68893079624E-01 -0.21744763900E-01  0.76804027137E-01  0.51100000000E-03 0.  1.
</event>
<event>
 8    1  0.1075206E+005  0.1043930E+01  0.7957747E-01            NaN
         13   -1    0    0    0    0  0.00000000000E+00  0.00000000000E+00  0.74505805969E-08  0.10566000000E+00  0.10566000000E+00 0.  1.
     999900   -1    0    0    0    0 -0.00000000000E+00 -0.00000000000E+00 -0.74505805969E-08  0.93827000000E+00  0.93827000000E+00 0.  1.
     999902    2    1    2    0    0  0.13977466247E-01 -0.26672724396E-02 -0.15078372818E-01  0.10231973872E+01  0.10229873176E+01 0.  0.
     999903    2    3    3    0    0  0.35243288487E-02 -0.10307480531E+00 -0.84524536766E-01  0.13470782038E+00  0.19104009337E-01 0.  0.
         14    1    1    2    0    0 -0.13977466247E-01  0.26672724396E-02  0.15078372818E-01  0.20732612759E-01  0.00000000000E+00 0.  1.
     999901    1    3    3    0    0  0.10453137398E-01  0.10040753287E+00  0.69446163948E-01  0.88848956686E+00  0.88000000000E+00 0. -1.
        -11    1    4    4    0    0  0.34672708534E-03 -0.96800093815E-01 -0.82953368482E-01  0.12748294335E+00  0.51100000000E-03 0. -1.
         11    1    4    4    0    0  0.31776017634E-02 -0.62747114908E-02 -0.15711682845E-02  0.72248770258E-02  0.51100000000E-03 0.  1.
</event>
<event>
 8    1  0.1075206E+005  0.1043930E+01  0.7957747E-01            NaN
         13   -1    0    0    0    0  0.00000000000E+00  0.00000000000E+00  0.74505805969E-08  0.10566000000E+00  0.10566000000E+00 0.  1.
     999900   -1    0    0    0    0 -0.00000000000E+00 -0.00000000000E+00 -0.74505805969E-08  0.93827000000E+00  0.93827000000E+00 0.  1.
     999902    2    1    2    0    0 -0.17488019382E-01 -0.51330243851E-03  0.15455393602E-01  0.10205855469E+01  0.10203185262E+01 0.  0.
     999903    2    3    3    0    0  0.51761579749E-01 -0.62608360350E-01 -0.97560188189E-01  0.12849596339E+00  0.19853321243E-01 0.  0.
         14    1    1    2    0    0  0.17488019382E-01  0.51330243851E-03 -0.15455393602E-01  0.23344453146E-01  0.00000000000E+00 0. -1.
     999901    1    3    3    0    0 -0.69249599131E-01  0.62095057911E-01  0.11301558179E+00  0.89208958346E+00  0.88000000000E+00 0. -1.
        -11    1    4    4    0    0  0.20872418505E-01 -0.14861285253E-01 -0.40556982985E-01  0.47975469184E-01  0.51100000000E-03 0.  1.
         11    1    4    4    0    0  0.30889161245E-01 -0.47747075097E-01 -0.57003205204E-01  0.80520494206E-01  0.51100000000E-03 0. -1.
</event>
<event>
 8    1  0.1075206E+005  0.1043930E+01  0.7957747E-01            NaN
         13   -1    0    0    0    0  0.00000000000E+00  0.00000000000E+00  0.74505805969E-08  0.10566000000E+00  0.10566000000E+00 0. -1.
     999900   -1    0    0    0    0 -0.00000000000E+00 -0.00000000000E+00 -0.74505805969E-08  0.93827000000E+00  0.93827000000E+00 0. -1.
     999902    2    1    2    0    0 -0.20991602981E-01 -0.55169288712E-02 -0.93192670129E-02  0.10203094023E+01  0.10200359522E+01 0.  0.
     999903    2    3    3    0    0  0.11098215160E+00 -0.48776517689E-01 -0.39012598360E-01  0.12892275335E+00  0.20072539681E-01 0.  0.
         14    1    1    2    0    0  0.20991602981E-01  0.55169288712E-02  0.93192670129E-02  0.23620597739E-01  0.00000000000E+00 0. -1.
     999901    1    3    3    0    0 -0.13197375458E+00  0.43259588818E-01  0.29693331347E-01  0.89138664891E+00  0.88000000000E+00 0.  1.
        -11    1    4    4    0    0  0.95718693732E-01 -0.35898873205E-01 -0.37491117394E-01  0.10888821071E+00  0.51100000000E-03 0. -1.
         11    1    4    4    0    0  0.15263457871E-01 -0.12877644484E-01 -0.15214809665E-02  0.20034542644E-01  0.51100000000E-03 0.  1.
</event>
<event>
 8    1  0.1075206E+005  0.1043930E+01  0.7957747E-01            NaN
         13   -1    0    0    0    0  0.00000000000E+00  0.00000000000E+00  0.74505805969E-08  0.10566000000E+00  0.10566000000E+00 0. -1.
     999900   -1    0    0    0    0 -0.00000000000E+00 -0.00000000000E+00 -0.74505805969E-08  0.93827000000E+00  0.93827000000E+00 0. -1.
     999902    2    1    2    0    0 -0.10537701311E-01 -0.15779660397E-01  0.12910893303E-01  0.10209793574E+01  0.10207213705E+01 0.  0.
     999903    2    3    3    0    0 -0.34561855287E-01 -0.88531122823E-01 -0.88841666816E-01  0.13180922812E+00  0.21178982652E-01 0.  0.
         14    1    1    2    0    0  0.10537701311E-01  0.15779660397E-01 -0.12910893303E-01  0.22950642628E-01  0.00000000000E+00 0.  1.
     999901    1    3    3    0    0  0.24024153976E-01  0.72751462425E-01  0.10175256012E+00  0.88917012925E+00  0.88000000000E+00 0.  1.
        -11    1    4    4    0    0 -0.29056221077E-01 -0.55121843393E-01 -0.67075166560E-01  0.91553376193E-01  0.51100000000E-03 0. -1.
         11    1    4    4    0    0 -0.55056342094E-02 -0.33409279430E-01 -0.21766500256E-01  0.40255851928E-01  0.51100000000E-03 0.  1.
</event>
<event>
 8    1  0.1075206E+005  0.1043930E+01  0.7957747E-01            NaN
         13   -1    0    0    0    0  0.00000000000E+00  0.00000000000E+00  0.74505805969E-08  0.10566000000E+00  0.10566000000E+00 0.  1.
     999900   -1    0    0    0    0 -0.00000000000E+00 -0.00000000000E+00 -0.74505805969E-08  0.93827000000E+00  0.93827000000E+00 0. -1.
     999902    2    1    2    0    0 -0.13204023065E-01  0.24864268230E-02 -0.19413941107E-01  0.10203200518E+01  0.10200468511E+01 0.  0.
     999903    2    3    3    0    0  0.64779841764E-01 -0.48351951103E-01  0.96667751440E-01  0.12782860470E+00  0.21474611459E-01 0.  0.
         14    1    1    2    0    0  0.13204023065E-01 -0.24864268230E-02  0.19413941107E-01  0.23609948174E-01  0.00000000000E+00 0.  1.
     999901    1    3    3    0    0 -0.77983864830E-01  0.50838377926E-01 -0.11608169255E+00  0.89249144712E+00  0.88000000000E+00 0. -1.
        -11    1    4    4    0    0  0.35015242434E-01 -0.17342222675E-01  0.58450411983E-01  0.70310252965E-01  0.51100000000E-03 0. -1.
         11    1    4    4    0    0  0.29764599331E-01 -0.31009728427E-01  0.38217339457E-01  0.57518351738E-01  0.51100000000E-03 0.  1.
</event>
<event>
 8    1  0.1151319E+005  0.1043930E+01  0.7957747E-01            NaN
         13   -1    0    0    0    0  0.00000000000E+00  0.00000000000E+00  0.74505805969E-08  0.10566000000E+00  0.10566000000E+00 0.  1.
     999900   -1    0    0    0    0 -0.00000000000E+00 -0.00000000000E+00 -0.74505805969E-08  0.93827000000E+00  0.93827000000E+00 0.  1.
     999902    2    1    2    0    0  0.16661839222E-01  0.26188281841E-02  0.16931275945E-01  0.10200313964E+01  0.10197513944E+01 0.  0.
     999903    2    3    3    0    0  0.10374917720E+00  0.45417655025E-01 -0.62830922018E-01  0.13111185438E+00  0.20394568875E-01 0.  0.
         14    1    1    2    0    0 -0.16661839222E-01 -0.26188281841E-02 -0.16931275945E-01  0.23898603566E-01  0.00000000000E+00 0. -1.
     999901    1    3    3    0    0 -0.87087337983E-01 -0.42798826841E-01  0.79762197963E-01  0.88891954205E+00  0.88000000000E+00 0. -1.
        -11    1    4    4    0    0  0.59871073656E-01  0.36717817047E-01 -0.41112867249E-01  0.81383490487E-01  0.51100000000E-03 0.  1.
         11    1    4    4    0    0  0.43878103548E-01  0.86998379781E-02 -0.21718054769E-01  0.49728363896E-01  0.51100000000E-03 0. -1.
</event>
<event>
 8    1  0.1075206E+005  0.1043930E+01  0.7957747E-01            NaN
         13   -1    0    0    0    0  0.00000000000E+00  0.00000000000E+00  0.74505805969E-08  0.10566000000E+00  0.10566000000E+00 0. -1.
     999900   -1    0    0    0    0 -0.00000000000E+00 -0.00000000000E+00 -0.74505805969E-08  0.93827000000E+00  0.93827000000E+00 0. -1.
     999902    2    1    2    0    0 -0.12981876162E-01  0.12668901585E-01 -0.15338283586E-01  0.10201751454E+01  0.10198985411E+01 0.  0.
     999903    2    3    3    0    0 -0.95880334791E-01 -0.40742647664E-01 -0.79217964787E-01  0.13236572790E+00  0.19803990514E-01 0.  0.
         14    1    1    2    0    0  0.12981876162E-01 -0.12668901585E-01  0.15338283586E-01  0.23754854649E-01  0.00000000000E+00 0.  1.
     999901    1    3    3    0    0  0.82898458630E-01  0.53411549249E-01  0.63879681200E-01  0.88780941745E+00  0.88000000000E+00 0.  1.
        -11    1    4    4    0    0 -0.91294626793E-01 -0.34041797420E-01 -0.69454238883E-01  0.11965661399E+00  0.51100000000E-03 0. -1.
         11    1    4    4    0    0 -0.45857079983E-02 -0.67008502440E-02 -0.97637259039E-02  0.12709113909E-01  0.51100000000E-03 0.  1.
</event>
<event>
 8    1  0.1075206E+005  0.1043930E+01  0.7957747E-01            NaN
         13   -1    0    0    0    0  0.00000000000E+00  0.00000000000E+00  0.74505805969E-08  0.10566000000E+00  0.10566000000E+00 0.  1.
     999900   -1    0    0    0    0 -0.00000000000E+00 -0.00000000000E+00 -0.74505805969E-08  0.93827000000E+00  0.93827000000E+00 0. -1.
     999902    2    1    2    0    0  0.51813810661E-02 -0.64445417806E-02 -0.22769735405E-01  0.10197052259E+01  0.10194174356E+01 0.  0.
     999903    2    3    3    0    0  0.12926960924E+00 -0.62757399329E-03 -0.50648249186E-02  0.13080411256E+00  0.19314183602E-01 0.  0.
         14    1    1    2    0    0 -0.51813810661E-02  0.64445417806E-02  0.22769735405E-01  0.24224774073E-01  0.00000000000E+00 0.  1.
     999901    1    3    3    0    0 -0.12408822818E+00 -0.58169677873E-02 -0.17704910486E-01  0.88890111337E+00  0.88000000000E+00 0.  1.
        -11    1    4    4    0    0  0.11547049417E+00  0.38783857594E-02 -0.36431527087E-03  0.11553731322E+00  0.51100000000E-03 0. -1.
         11    1    4    4    0    0  0.13799115078E-01 -0.45059597527E-02 -0.47005096477E-02  0.15266799343E-01  0.51100000000E-03 0.  1.
</event>
<event>
 8    1  0.1075206E+005  0.1043930E+01  0.7957747E-01            NaN
         13   -1    0    0    0    0  0.00000000000E+00  0.00000000000E+00  0.74505805969E-08  0.10566000000E+00  0.10566000000E+00 0.  1.
     999900   -1    0    0    0    0 -0.00000000000E+00 -0.00000000000E+00 -0.74505805969E-08  0.93827000000E+00  0.93827000000E+00 0. -1.
     999902    2    1    2    0    0  0.29161113073E-02  0.19280196797E-01 -0.13088941995E-01  0.10204448963E+01  0.10201746107E+01 0.  0.
     999903    2    3    3    0    0  0.51205201813E-01  0.11460226383E+00 -0.41335896476E-01  0.13353113320E+00  0.19137806234E-01 0.  0.
         14    1    1    2    0    0 -0.29161113073E-02 -0.19280196797E-01  0.13088941995E-01  0.23485103710E-01  0.00000000000E+00 0.  1.
     999901    1    3    3    0    0 -0.48289090505E-01 -0.95322067035E-01  0.28246954480E-01  0.88691376309E+00  0.88000000000E+00 0. -1.
        -11    1    4    4    0    0  0.38289479030E-01  0.10150402134E+00 -0.37022453369E-01  0.11463016064E+00  0.51100000000E-03 0. -1.
         11    1    4    4    0    0  0.12915722783E-01  0.13098242489E-01 -0.43134431070E-02  0.18900972561E-01  0.51100000000E-03 0.  1.
</event>
<event>
 8    1  0.1075206E+005  0.1043930E+01  0.7957747E-01            NaN
         13   -1    0    0    0    0  0.00000000000E+00  0.00000000000E+00  0.74505805969E-08  0.10566000000E+00  0.10566000000E+00 0. -1.
     999900   -1    0    0    0    0 -0.00000000000E+00 -0.00000000000E+00 -0.74505805969E-08  0.93827000000E+00  0.93827000000E+00 0.  1.
     999902    2    1    2    0    0  0.14002372010E-01 -0.18872889878E-01  0.46094607396E-02  0.10199821499E+01  0.10197009790E+01 0.  0.
     999903    2    3    3    0    0 -0.35106552447E-01  0.11999138983E+00 -0.15193188542E-01  0.12752087932E+00  0.20008448889E-01 0.  0.
         14    1    1    2    0    0 -0.14002372010E-01  0.18872889878E-01 -0.46094607396E-02  0.23947850061E-01  0.00000000000E+00 0.  1.
     999901    1    3    3    0    0  0.49108924457E-01 -0.13886427970E+00  0.19802649282E-01  0.89246127062E+00  0.88000000000E+00 0. -1.
        -11    1    4    4    0    0 -0.17553260787E-01  0.46373020265E-01 -0.15107568316E-01  0.51836991755E-01  0.51100000000E-03 0. -1.
         11    1    4    4    0    0 -0.17553291660E-01  0.73618369561E-01 -0.85620226141E-04  0.75683887563E-01  0.51100000000E-03 0.  1.
</event>
<event>
 8    1  0.1075206E+005  0.1043930E+01  0.7957747E-01            NaN
         13   -1    0    0    0    0  0.00000000000E+00  0.00000000000E+00  0.74505805969E-08  0.10566000000E+00  0.10566000000E+00 0.  1.
     999900   -1    0    0    0    0 -0.00000000000E+00 -0.00000000000E+00 -0.74505805969E-08  0.93827000000E+00  0.93827000000E+00 0. -1.
     999902    2    1    2    0    0 -0.21665630504E-01  0.42863998630E-02 -0.85402167626E-02  0.10202507249E+01  0.10199758985E+01 0.  0.
     999903    2    3    3    0    0 -0.74215829982E-01  0.80502786440E-01  0.70897864199E-01  0.13183591760E+00  0.19118419831E-01 0.  0.
         14    1    1    2    0    0  0.21665630504E-01 -0.42863998630E-02  0.85402167626E-02  0.23679275142E-01  0.00000000000E+00 0.  1.
     999901    1    3    3    0    0  0.52550199478E-01 -0.76216386577E-01 -0.79438080962E-01  0.88841480726E+00  0.88000000000E+00 0.  1.
        -11    1    4    4    0    0 -0.63002019093E-01  0.76157185979E-01  0.60187988962E-01  0.11572392373E+00  0.51100000000E-03 0.  1.
         11    1    4    4    0    0 -0.11213810889E-01  0.43456004609E-02  0.10709875237E-01  0.16111993875E-01  0.51100000000E-03 0. -1.
</event>
<event>
 8    1  0.1075206E+005  0.1043930E+01  0.7957747E-01            NaN
         13   -1    0    0    0    0  0.00000000000E+00  0.00000000000E+00  0.74505805969E-08  0.10566000000E+00  0.10566000000E+00 0. -1.
     999900   -1    0    0    0    0 -0.00000000000E+00 -0.00000000000E+00 -0.74505805969E-08  0.93827000000E+00  0.93827000000E+00 0.  1.
     999902    2    1    2    0    0 -0.41015543310E-02  0.11096689061E-01  0.20810090613E-01  0.10199921821E+01  0.10197112495E+01 0.  0.
     999903    2    3    3    0    0  0.44790960365E-01  0.34832673753E-01 -0.11317089182E+00  0.12819356208E+00  0.20159199154E-01 0.  0.
         14    1    1    2    0    0  0.41015543310E-02 -0.11096689061E-01 -0.20810090613E-01  0.23937817932E-01  0.00000000000E+00 0.  1.
     999901    1    3    3    0    0 -0.48892514696E-01 -0.23735984691E-01  0.13398098244E+00  0.89179861999E+00  0.88000000000E+00 0. -1.
        -11    1    4    4    0    0  0.10136846810E-01  0.36777629141E-02 -0.89321646248E-02  0.14011648339E-01  0.51100000000E-03 0. -1.
         11    1    4    4    0    0  0.34654113555E-01  0.31154910838E-01 -0.10423872720E+00  0.11418191374E+00  0.51100000000E-03 0.  1.
</event>
<event>
 8    1  0.1075206E+005  0.1043930E+01  0.7957747E-01            NaN
         13   -1    0    0    0    0  0.00000000000E+00  0.00000000000E+00  0.74505805969E-08  0.10566000000E+00  0.10566000000E+00 0. -1.
     999900   -1    0    0    0    0 -0.00000000000E+00 -0.00000000000E+00 -0.74505805969E-08  0.93827000000E+00  0.93827000000E+00 0. -1.
     999902    2    1    2    0    0 -0.12113137966E-01  0.15994482038E-01 -0.15961033681E-01  0.10182920172E+01  0.10179692167E+01 0.  0.
     999903    2    3    3    0    0 -0.33373929883E-01  0.82106813998E-01 -0.95732354217E-01  0.13195893910E+00  0.19827502721E-01 0.  0.
         14    1    1    2    0    0  0.12113137966E-01 -0.15994482038E-01  0.15961033681E-01  0.25637982823E-01  0.00000000000E+00 0. -1.
     999901    1    3    3    0    0  0.21260791916E-01 -0.66112331960E-01  0.79771320537E-01  0.88633307808E+00  0.88000000000E+00 0.  1.
        -11    1    4    4    0    0 -0.20114356834E-01  0.69741594186E-01 -0.74087277750E-01  0.10371915520E+00  0.51100000000E-03 0.  1.
         11    1    4    4    0    0 -0.13259573048E-01  0.12365219813E-01 -0.21645076468E-01  0.28239783900E-01  0.51100000000E-03 0. -1.
</event>
<event>
 8    1  0.1075206E+005  0.1043930E+01  0.7957747E-01            NaN
         13   -1    0    0    0    0  0.00000000000E+00  0.00000000000E+00  0.74505805969E-08  0.10566000000E+00  0.10566000000E+00 0. -1.
     999900   -1    0    0    0    0 -0.00000000000E+00 -0.00000000000E+00 -0.74505805969E-08  0.93827000000E+00  0.93827000000E+00 0.  1.
     999902    2    1    2    0    0 -0.14350504003E-01  0.18065282811E-01 -0.51285548268E-02  0.10202954177E+01  0.10200216399E+01 0.  0.
     999903    2    3    3    0    0  0.11219875847E-01 -0.12053463203E+00  0.36904230257E-01  0.12808998405E+00  0.19764581235E-01 0.  0.
         14    1    1    2    0    0  0.14350504003E-01 -0.18065282811E-01  0.51285548268E-02  0.23634582349E-01  0.00000000000E+00 0. -1.
     999901    1    3    3    0    0 -0.25570379850E-01  0.13859991484E+00 -0.42032785084E-01  0.89220543360E+00  0.88000000000E+00 0. -1.
        -11    1    4    4    0    0 -0.25273756921E-02 -0.73158918006E-01  0.24836314232E-01  0.77302771861E-01  0.51100000000E-03 0. -1.
         11    1    4    4    0    0  0.13747251539E-01 -0.47375714023E-01  0.12067916025E-01  0.50787212193E-01  0.51100000000E-03 0.  1.
</event>
<event>
 8    1  0.1075206E+005  0.1043930E+01  0.7957747E-01            NaN
         13   -1    0    0    0    0  0.00000000000E+00  0.00000000000E+00  0.74505805969E-08  0.10566000000E+00  0.10566000000E+00 0.  1.
     999900   -1    0    0    0    0 -0.00000000000E+00 -0.00000000000E+00 -0.74505805969E-08  0.93827000000E+00  0.93827000000E+00 0.  1.
     999902    2    1    2    0    0  0.56938764112E-02  0.54455178549E-02 -0.11711782274E-01  0.10298147693E+01  0.10297180291E+01 0.  0.
     999903    2    3    3    0    0  0.58575278524E-01  0.88091010474E-01 -0.90431399555E-01  0.14086960887E+00  0.21801818636E-01 0.  0.
         14    1    1    2    0    0 -0.56938764112E-02 -0.54455178549E-02  0.11711782274E-01  0.14115230686E-01  0.00000000000E+00 0.  1.
     999901    1    3    3    0    0 -0.52881402113E-01 -0.82645492619E-01  0.78719617281E-01  0.88894516045E+00  0.88000000000E+00 0. -1.
        -11    1    4    4    0    0  0.24679273719E-01  0.54688254160E-01 -0.56544649354E-01  0.82446529253E-01  0.51100000000E-03 0. -1.
         11    1    4    4    0    0  0.33896004806E-01  0.33402756314E-01 -0.33886750201E-01  0.58423079612E-01  0.51100000000E-03 0.  1.
</event>
<event>
 8    1  0.1075206E+005  0.1043930E+01  0.7957747E-01            NaN
         13   -1    0    0    0    0  0.00000000000E+00  0.00000000000E+00  0.74505805969E-08  0.10566000000E+00  0.10566000000E+00 0.  1.
     999900   -1    0    0    0    0 -0.00000000000E+00 -0.00000000000E+00 -0.74505805969E-08  0.93827000000E+00  0.93827000000E+00 0.  1.
     999902    2    1    2    0    0  0.46742436047E-02 -0.11241616672E-01  0.21045210405E-01  0.10196169710E+01  0.10193270546E+01 0.  0.
     999903    2    3    3    0    0 -0.10141997854E+00 -0.76510071921E-01 -0.18653718925E-01  0.12995863196E+00  0.20037006722E-01 0.  0.
         14    1    1    2    0    0 -0.46742436047E-02  0.11241616672E-01 -0.21045210405E-01  0.24313029010E-01  0.00000000000E+00 0.  1.
     999901    1    3    3    0    0  0.10609422214E+00  0.65268455248E-01  0.39698929329E-01  0.88965833903E+00  0.88000000000E+00 0. -1.
        -11    1    4    4    0    0 -0.44024536634E-01 -0.22933642120E-01 -0.19280994027E-02  0.49679879781E-01  0.51100000000E-03 0. -1.
         11    1    4    4    0    0 -0.57395441903E-01 -0.53576429800E-01 -0.16725619522E-01  0.80278752175E-01  0.51100000000E-03 0.  1.
</event>
<event>
 8    1  0.1075206E+005  0.1043930E+01  0.7957747E-01            NaN
         13   -1    0    0    0    0  0.00000000000E+00  0.00000000000E+00  0.74505805969E-08  0.10566000000E+00  0.10566000000E+00 0.  1.
     999900   -1    0    0    0    0 -0.00000000000E+00 -0.00000000000E+00 -0.74505805969E-08  0.93827000000E+00  0.93827000000E+00 0. -1.
     999902    2    1    2    0    0 -0.86579281486E-02  0.18169401544E-01  0.11116883414E-01  0.10209371322E+01  0.10206781843E+01 0.  0.
     999903    2    3    3    0    0 -0.29874859441E-01  0.78904996033E-01 -0.99200495768E-01  0.13171899544E+00  0.19764862100E-01 0.  0.
         14    1    1    2    0    0  0.86579281486E-02 -0.18169401544E-01 -0.11116883414E-01  0.22992867789E-01  0.00000000000E+00 0. -1.
     999901    1    3    3    0    0  0.21216931292E-01 -0.60735594488E-01  0.11031737918E+00  0.88921813677E+00  0.88000000000E+00 0.  1.
        -11    1    4    4    0    0 -0.13072598022E-01  0.15987574868E-01 -0.16401350342E-01  0.26377277783E-01  0.51100000000E-03 0. -1.
         11    1    4    4    0    0 -0.16802261419E-01  0.62917421164E-01 -0.82799145427E-01  0.10534171766E+00  0.51100000000E-03 0.  1.
</event>
<event>
 8    1  0.1075206E+005  0.1043930E+01  0.7957747E-01            NaN
         13   -1    0    0    0    0  0.00000000000E+00  0.00000000000E+00  0.74505805969E-08  0.10566000000E+00  0.10566000000E+00 0. -1.
     999900   -1    0    0    0    0 -0.00000000000E+00 -0.00000000000E+00 -0.74505805969E-08  0.93827000000E+00  0.93827000000E+00 0.  1.
     999902    2    1    2    0    0  0.14948370672E-01  0.10519951265E-01  0.15205662343E-01  0.10201532187E+01  0.10198760975E+01 0.  0.
     999903    2    3    3    0    0  0.11318872364E+00 -0.50721104584E-01  0.41197840479E-01  0.13219081682E+00  0.19819999574E-01 0.  0.
         14    1    1    2    0    0 -0.14948370672E-01 -0.10519951265E-01 -0.15205662343E-01  0.23776781272E-01  0.00000000000E+00 0. -1.
     999901    1    3    3    0    0 -0.98240352966E-01  0.61241055850E-01 -0.25992178136E-01  0.88796240190E+00  0.88000000000E+00 0. -1.
        -11    1    4    4    0    0  0.50215678322E-01 -0.28373197914E-01  0.10388501267E-01  0.58607463593E-01  0.51100000000E-03 0. -1.
         11    1    4    4    0    0  0.62973045316E-01 -0.22347906671E-01  0.30809339211E-01  0.73583353230E-01  0.51100000000E-03 0.  1.
</event>
<event>
 8    1  0.1075206E+005  0.1043930E+01  0.7957747E-01            NaN
         13   -1    0    0    0    0  0.00000000000E+00  0.00000000000E+00  0.74505805969E-08  0.10566000000E+00  0.10566000000E+00 0. -1.
     999900   -1    0    0    0    0 -0.00000000000E+00 -0.00000000000E+00 -0.74505805969E-08  0.93827000000E+00  0.93827000000E+00 0.  1.
     999902    2    1    2    0    0 -0.84850456504E-02 -0.13048605184E-01 -0.11594092195E-01  0.10245216237E+01  0.10243377726E+01 0.  0.
     999903    2    3    3    0    0  0.13039724395E+00  0.11753527132E-01 -0.12467055854E-01  0.13328417038E+00  0.21625354636E-01 0.  0.
         14    1    1    2    0    0  0.84850456504E-02  0.13048605184E-01  0.11594092195E-01  0.19408376304E-01  0.00000000000E+00 0. -1.
     999901    1    3    3    0    0 -0.13888228960E+00 -0.24802132316E-01  0.87296365908E-03  0.89123745332E+00  0.88000000000E+00 0.  1.
        -11    1    4    4    0    0  0.73277673508E-01  0.98620258275E-02  0.32429178849E-02  0.74011179059E-01  0.51100000000E-03 0.  1.
         11    1    4    4    0    0  0.57119570437E-01  0.18915013048E-02 -0.15709973739E-01  0.59272991319E-01  0.51100000000E-03 0. -1.
</event>
<event>
 8    1  0.1075206E+005  0.1043930E+01  0.7957747E-01            NaN
         13   -1    0    0    0    0  0.00000000000E+00  0.00000000000E+00  0.74505805969E-08  0.10566000000E+00  0.10566000000E+00 0.  1.
     999900   -1    0    0    0    0 -0.00000000000E+00 -0.00000000000E+00 -0.74505805969E-08  0.93827000000E+00  0.93827000000E+00 0.  1.
     999902    2    1    2    0    0 -0.19828729687E-01 -0.12862030960E-01 -0.18964287774E-02  0.10202190995E+01  0.10199435299E+01 0.  0.
     999903    2    3    3    0    0 -0.83315505862E-01  0.39741836641E-01 -0.91426375638E-01  0.13184229371E+00  0.22421444042E-01 0.  0.
         14    1    1    2    0    0  0.19828729687E-01  0.12862030960E-01  0.18964287774E-02  0.23710900521E-01  0.00000000000E+00 0. -1.
     999901    1    3    3    0    0  0.63486776175E-01 -0.52603867600E-01  0.89529946861E-01  0.88837680576E+00  0.88000000000E+00 0. -1.
        -11    1    4    4    0    0 -0.79842358548E-01  0.42545662752E-01 -0.87754672473E-01  0.12603999087E+00  0.51100000000E-03 0. -1.
         11    1    4    4    0    0 -0.34731473143E-02 -0.28038261111E-02 -0.36717031649E-02  0.58023028411E-02  0.51100000000E-03 0.  1.
</event>
<event>
 8    1  0.1075206E+005  0.1043930E+01  0.7957747E-01            NaN
         13   -1    0    0    0    0  0.00000000000E+00  0.00000000000E+00  0.74505805969E-08  0.10566000000E+00  0.10566000000E+00 0.  1.
     999900   -1    0    0    0    0 -0.00000000000E+00 -0.00000000000E+00 -0.74505805969E-08  0.93827000000E+00  0.93827000000E+00 0. -1.
     999902    2    1    2    0    0  0.12267084524E-01  0.13861519579E-01 -0.13383977396E-01  0.10210880662E+01  0.10208325451E+01 0.  0.
     999903    2    3    3    0    0  0.11744406560E+00  0.28481910325E-01 -0.53021574113E-01  0.13381860758E+00  0.22176669067E-01 0.  0.
         14    1    1    2    0    0 -0.12267084524E-01 -0.13861519579E-01  0.13383977396E-01  0.22841933777E-01  0.00000000000E+00 0. -1.
     999901    1    3    3    0    0 -0.10517698108E+00 -0.14620390746E-01  0.39637596718E-01  0.88726945865E+00  0.88000000000E+00 0.  1.
        -11    1    4    4    0    0  0.66061218424E-01  0.70309051451E-02 -0.21478399267E-01  0.69821923225E-01  0.51100000000E-03 0. -1.
         11    1    4    4    0    0  0.51382847179E-01  0.21451005180E-01 -0.31543174846E-01  0.63996684350E-01  0.51100000000E-03 0.  1.
</event>
<event>
 8    1  0.1075206E+005  0.1043930E+01  0.7957747E-01            NaN
         13   -1    0    0    0    0  0.00000000000E+00  0.00000000000E+00  0.74505805969E-08  0.10566000000E+00  0.10566000000E+00 0.  1.
     999900   -1    0    0    0    0 -0.00000000000E+00 -0.00000000000E+00 -0.74505805969E-08  0.93827000000E+00  0.93827000000E+00 0. -1.
     999902    2    1    2    0    0 -0.21405134199E-01  0.27087741243E-02 -0.11694922974E-01  0.10193884342E+01  0.10190929748E+01 0.  0.
     999903    2    3    3    0    0 -0.22017269886E-01  0.86981791461E-01  0.90992805286E-01  0.12941816186E+00  0.20464060835E-01 0.  0.
         14    1    1    2    0    0  0.21405134199E-01 -0.27087741243E-02  0.11694922974E-01  0.24541565775E-01  0.00000000000E+00 0.  1.
     999901    1    3    3    0    0  0.61213568688E-03 -0.84273017337E-01 -0.10268772826E+00  0.88997027237E+00  0.88000000000E+00 0.  1.
        -11    1    4    4    0    0 -0.80431104113E-02  0.25068831980E-01  0.40517279832E-01  0.48322345223E-01  0.51100000000E-03 0.  1.
         11    1    4    4    0    0 -0.13974159475E-01  0.61912959481E-01  0.50475525455E-01  0.81095816635E-01  0.51100000000E-03 0. -1.
</event>
<event>
 8    1  0.1075206E+005  0.1043930E+01  0.7957747E-01            NaN
         13   -1    0    0    0    0  0.00000000000E+00  0.00000000000E+00  0.74505805969E-08  0.10566000000E+00  0.10566000000E+00 0. -1.
     999900   -1    0    0    0    0 -0.00000000000E+00 -0.00000000000E+00 -0.74505805969E-08  0.93827000000E+00  0.93827000000E+00 0. -1.
     999902    2    1    2    0    0 -0.32544241957E-02  0.22492001923E-01 -0.69597966606E-02  0.10201619501E+01  0.10198850348E+01 0.  0.
     999903    2    3    3    0    0  0.11583215265E+00  0.35580575221E-01 -0.45536530788E-01  0.13120689613E+00  0.21415158961E-01 0.  0.
         14    1    1    2    0    0  0.32544241957E-02 -0.22492001923E-01  0.69597966606E-02  0.23768049918E-01  0.00000000000E+00 0.  1.
     999901    1    3    3    0    0 -0.11908657685E+00 -0.13088573298E-01  0.38576734127E-01  0.88895505396E+00  0.88000000000E+00 0.  1.
        -11    1    4    4    0    0  0.91389742051E-01  0.18690255201E-01 -0.32863397507E-01  0.98902348851E-01  0.51100000000E-03 0. -1.
         11    1    4    4    0    0  0.24442410603E-01  0.16890320020E-01 -0.12673133281E-01  0.32304547275E-01  0.51100000000E-03 0.  1.
</event>
<event>
 8    1  0.1075206E+005  0.1043930E+01  0.7957747E-01            NaN
         13   -1    0    0    0    0  0.00000000000E+00  0.00000000000E+00  0.74505805969E-08  0.10566000000E+00  0.10566000000E+00 0.  1.
     999900   -1    0    0    0    0 -0.00000000000E+00 -0.00000000000E+00 -0.74505805969E-08  0.93827000000E+00  0.93827000000E+00 0. -1.
     999902    2    1    2    0    0 -0.10255364049E-01  0.22571514592E-01 -0.75134861163E-02  0.10180244362E+01  0.10176947747E+01 0.  0.
     999903    2    3    3    0    0  0.12277188127E+00  0.18258594031E-01 -0.49076401308E-02  0.12801227913E+00  0.30931336678E-01 0.  0.
         14    1    1    2    0    0  0.10255364049E-01 -0.22571514592E-01  0.75134861163E-02  0.25905563811E-01  0.00000000000E+00 0.  1.
     999901    1    3    3    0    0 -0.13302724532E+00  0.43129205613E-02 -0.26058459855E-02  0.89001215706E+00  0.88000000000E+00 0. -1.
        -11    1    4    4    0    0  0.90771073246E-01  0.58448357649E-02 -0.15095014009E-01  0.92204503210E-01  0.51100000000E-03 0.  1.
         11    1    4    4    0    0  0.32000808028E-01  0.12413758266E-01  0.10187373878E-01  0.35807775919E-01  0.51100000000E-03 0. -1.
</event>
<event>
 8    1  0.1075206E+005  0.1043930E+01  0.7957747E-01            NaN
         13   -1    0    0    0    0  0.00000000000E+00  0.00000000000E+00  0.74505805969E-08  0.10566000000E+00  0.10566000000E+00 0. -1.
     999900   -1    0    0    0    0 -0.00000000000E+00 -0.00000000000E+00 -0.74505805969E-08  0.93827000000E+00  0.93827000000E+00 0. -1.
     999902    2    1    2    0    0  0.21423117209E-01 -0.12170145912E-02  0.13318234515E-01  0.10186751698E+01  0.10183620649E+01 0.  0.
     999903    2    3    3    0    0  0.11958566428E+00  0.51079626455E-01  0.48937982004E-02  0.13163413616E+00  0.19842812360E-01 0.  0.
         14    1    1    2    0    0 -0.21423117209E-01  0.12170145912E-02 -0.13318234515E-01  0.25254830153E-01  0.00000000000E+00 0.  1.
     999901    1    3    3    0    0 -0.98162547072E-01 -0.52296641046E-01  0.84244363141E-02  0.88704103368E+00  0.88000000000E+00 0. -1.
        -11    1    4    4    0    0  0.77318532220E-01  0.30211498641E-01  0.12286372517E-01  0.83917257733E-01  0.51100000000E-03 0. -1.
         11    1    4    4    0    0  0.42267132061E-01  0.20868127814E-01 -0.73925743165E-02  0.47716878431E-01  0.51100000000E-03 0.  1.
</event>
<event>
 8    1  0.1075206E+005  0.1043930E+01  0.7957747E-01            NaN
         13   -1    0    0    0    0  0.00000000000E+00  0.00000000000E+00  0.74505805969E-08  0.10566000000E+00  0.10566000000E+00 0. -1.
     999900   -1    0    0    0    0 -0.00000000000E+00 -0.00000000000E+00 -0.74505805969E-08  0.93827000000E+00  0.93827000000E+00 0.  1.
     999902    2    1    2    0    0  0.20174199444E-01 -0.69871987682E-02  0.10657044580E-01  0.10200680665E+01  0.10197889333E+01 0.  0.
     999903    2    3    3    0    0 -0.44256971365E-01  0.11830725645E+00  0.23735828614E-02  0.12882248196E+00  0.25185541864E-01 0.  0.
         14    1    1    2    0    0 -0.20174199444E-01  0.69871987682E-02 -0.10657044580E-01  0.23861933472E-01  0.00000000000E+00 0.  1.
     999901    1    3    3    0    0  0.64431170809E-01 -0.12529445522E+00  0.82834617185E-02  0.89124558457E+00  0.88000000000E+00 0. -1.
        -11    1    4    4    0    0 -0.12932133988E-01  0.61187858452E-01 -0.72808106425E-02  0.62964001112E-01  0.51100000000E-03 0. -1.
         11    1    4    4    0    0 -0.31324837377E-01  0.57119397997E-01  0.96543935039E-02  0.65858480845E-01  0.51100000000E-03 0.  1.
</event>
<event>
 8    1  0.1075206E+005  0.1043930E+01  0.7957747E-01            NaN
         13   -1    0    0    0    0  0.00000000000E+00  0.00000000000E+00  0.74505805969E-08  0.10566000000E+00  0.10566000000E+00 0.  1.
     999900   -1    0    0    0    0 -0.00000000000E+00 -0.00000000000E+00 -0.74505805969E-08  0.93827000000E+00  0.93827000000E+00 0.  1.
     999902    2    1    2    0    0 -0.55070932706E-02  0.19157832754E-01 -0.12753026233E-01  0.10202658856E+01  0.10199914152E+01 0.  0.
     999903    2    3    3    0    0 -0.95762114863E-02  0.13124604785E+00  0.12134862166E-02  0.13303683448E+00  0.19496098985E-01 0.  0.
         14    1    1    2    0    0  0.55070932706E-02 -0.19157832754E-01  0.12753026233E-01  0.23664114398E-01  0.00000000000E+00 0.  1.
     999901    1    3    3    0    0  0.40691182157E-02 -0.11208821510E+00 -0.13966512450E-01  0.88722905112E+00  0.88000000000E+00 0.  1.
        -11    1    4    4    0    0  0.39568785944E-02  0.59549270979E-01 -0.44783764924E-02  0.59850560059E-01  0.51100000000E-03 0. -1.
         11    1    4    4    0    0 -0.13533090081E-01  0.71696776874E-01  0.56918627090E-02  0.73186274420E-01  0.51100000000E-03 0.  1.
</event>
<event>
 8    1  0.1075206E+005  0.1043930E+01  0.7957747E-01            NaN
         13   -1    0    0    0    0  0.00000000000E+00  0.00000000000E+00  0.74505805969E-08  0.10566000000E+00  0.10566000000E+00 0. -1.
     999900   -1    0    0    0    0 -0.00000000000E+00 -0.00000000000E+00 -0.74505805969E-08  0.93827000000E+00  0.93827000000E+00 0. -1.
     999902    2    1    2    0    0 -0.11477959129E-01  0.13346356565E-02  0.20570047091E-01  0.10203365341E+01  0.10200637191E+01 0.  0.
     999903    2    3    3    0    0  0.43481500932E-01  0.16570624530E-01 -0.11687035173E+00  0.12784421429E+00  0.22808715320E-01 0.  0.
         14    1    1    2    0    0  0.11477959129E-01 -0.13346356565E-02 -0.20570047091E-01  0.23593465948E-01  0.00000000000E+00 0. -1.
     999901    1    3    3    0    0 -0.54959460061E-01 -0.15235988873E-01  0.13744039882E+00  0.89249231976E+00  0.88000000000E+00 0.  1.
        -11    1    4    4    0    0  0.29163730820E-01  0.81829770311E-03 -0.52777106950E-01  0.60306524900E-01  0.51100000000E-03 0.  1.
         11    1    4    4    0    0  0.14317770113E-01  0.15752326827E-01 -0.64093244775E-01  0.67537689391E-01  0.51100000000E-03 0. -1.
</event>
<event>
 8    1  0.1075206E+005  0.1043930E+01  0.7957747E-01            NaN
         13   -1    0    0    0    0  0.00000000000E+00  0.00000000000E+00  0.74505805969E-08  0.10566000000E+00  0.10566000000E+00 0. -1.
     999900   -1    0    0    0    0 -0.00000000000E+00 -0.00000000000E+00 -0.74505805969E-08  0.93827000000E+00  0.93827000000E+00 0.  1.
     999902    2    1    2    0    0  0.10716736306E-01  0.56958898528E-02 -0.20242178348E-01  0.10203283606E+01  0.10200553544E+01 0.  0.
     999903    2    3    3    0    0 -0.68686220496E-01 -0.35867802814E-01 -0.10463215666E+00  0.13175982720E+00  0.20210583663E-01 0.  0.
         14    1    1    2    0    0 -0.10716736306E-01 -0.56958898528E-02  0.20242178348E-01  0.23601639403E-01  0.00000000000E+00 0.  1.
     999901    1    3    3    0    0  0.79402956802E-01  0.41563692667E-01  0.84389978315E-01  0.88856853339E+00  0.88000000000E+00 0.  1.
        -11    1    4    4    0    0 -0.28834000703E-01 -0.75448343659E-02 -0.28250915839E-01  0.41069447146E-01  0.51100000000E-03 0.  1.
         11    1    4    4    0    0 -0.39852219794E-01 -0.28322968448E-01 -0.76381240824E-01  0.90690380058E-01  0.51100000000E-03 0. -1.
</event>
<event>
 8    1  0.1075206E+005  0.1043930E+01  0.7957747E-01            NaN
         13   -1    0    0    0    0  0.00000000000E+00  0.00000000000E+00  0.74505805969E-08  0.10566000000E+00  0.10566000000E+00 0.  1.
     999900   -1    0    0    0    0 -0.00000000000E+00 -0.00000000000E+00 -0.74505805969E-08  0.93827000000E+00  0.93827000000E+00 0.  1.
     999902    2    1    2    0    0  0.10412014311E-01  0.43060642247E-02 -0.21343486015E-01  0.10197950331E+01  0.10195093982E+01 0.  0.
     999903    2    3    3    0    0  0.54512259029E-01  0.50934455969E-01  0.10291969549E+00  0.12875049058E+00  0.20452870608E-01 0.  0.
         14    1    1    2    0    0 -0.10412014311E-01 -0.43060642247E-02  0.21343486015E-01  0.24134966882E-01  0.00000000000E+00 0.  1.
     999901    1    3    3    0    0 -0.44100244718E-01 -0.46628391744E-01 -0.12426318151E+00  0.89104454253E+00  0.88000000000E+00 0.  1.
        -11    1    4    4    0    0  0.15319863256E-01  0.80881615865E-02  0.37275265987E-01  0.41107458489E-01  0.51100000000E-03 0.  1.
         11    1    4    4    0    0  0.39192395773E-01  0.42846294382E-01  0.65644429506E-01  0.87643032096E-01  0.51100000000E-03 0. -1.
</event>
<event>
 8    1  0.1075206E+005  0.1043930E+01  0.7957747E-01            NaN
         13   -1    0    0    0    0  0.00000000000E+00  0.00000000000E+00  0.74505805969E-08  0.10566000000E+00  0.10566000000E+00 0. -1.
     999900   -1    0    0    0    0 -0.00000000000E+00 -0.00000000000E+00 -0.74505805969E-08  0.93827000000E+00  0.93827000000E+00 0. -1.
     999902    2    1    2    0    0  0.14587174729E-01 -0.10888978028E-01  0.17003730042E-01  0.10190205170E+01  0.10187160211E+01 0.  0.
     999903    2    3    3    0    0  0.22685168412E-01 -0.12270095948E+00 -0.32595491219E-01  0.13052314532E+00  0.20091866337E-01 0.  0.
         14    1    1    2    0    0 -0.14587174729E-01  0.10888978028E-01 -0.17003730042E-01  0.24909483022E-01  0.00000000000E+00 0.  1.
     999901    1    3    3    0    0 -0.80979936831E-02  0.11181198145E+00  0.49599221261E-01  0.88849737166E+00  0.88000000000E+00 0.  1.
        -11    1    4    4    0    0  0.16578645396E-01 -0.11514114516E+00 -0.27489767828E-01  0.11953360719E+00  0.51100000000E-03 0. -1.
         11    1    4    4    0    0  0.61065230155E-02 -0.75598143164E-02 -0.51057233904E-02  0.10989538124E-01  0.51100000000E-03 0.  1.
</event>
<event>
 8    1  0.1075206E+005  0.1043930E+01  0.7957747E-01            NaN
         13   -1    0    0    0    0  0.00000000000E+00  0.00000000000E+00  0.74505805969E-08  0.10566000000E+00  0.10566000000E+00 0.  1.
     999900   -1    0    0    0    0 -0.00000000000E+00 -0.00000000000E+00 -0.74505805969E-08  0.93827000000E+00  0.93827000000E+00 0. -1.
     999902    2    1    2    0    0  0.60724138932E-02 -0.14894591318E-01 -0.17184764595E-01  0.10203919628E+01  0.10201204432E+01 0.  0.
     999903    2    3    3    0    0  0.14583468986E-02 -0.92551244885E-01 -0.94324410088E-01  0.13359865522E+00  0.19586899537E-01 0.  0.
         14    1    1    2    0    0 -0.60724138932E-02  0.14894591318E-01  0.17184764595E-01  0.23538037200E-01  0.00000000000E+00 0.  1.
     999901    1    3    3    0    0  0.46140669946E-02  0.77656653567E-01  0.77139645493E-01  0.88679330758E+00  0.88000000000E+00 0.  1.
        -11    1    4    4    0    0  0.48801009018E-02 -0.62824147632E-01 -0.75068160883E-01  0.98011115747E-01  0.51100000000E-03 0.  1.
         11    1    4    4    0    0 -0.34217540033E-02 -0.29727097252E-01 -0.19256249205E-01  0.35587539476E-01  0.51100000000E-03 0. -1.
</event>
<event>
 8    1  0.1154111E+005  0.1043930E+01  0.7957747E-01            NaN
         13   -1    0    0    0    0  0.00000000000E+00  0.00000000000E+00  0.74505805969E-08  0.10566000000E+00  0.10566000000E+00 0.  1.
     999900   -1    0    0    0    0 -0.00000000000E+00 -0.00000000000E+00 -0.74505805969E-08  0.93827000000E+00  0.93827000000E+00 0.  1.
     999902    2    1    2    0    0 -0.58592789455E-02 -0.37808977017E-02 -0.23468005273E-01  0.10194478921E+01  0.10191538800E+01 0.  0.
     999903    2    3    3    0    0 -0.88924958166E-02  0.40312873971E-01  0.11749143831E+00  0.12713459180E+00  0.25588318932E-01 0.  0.
         14    1    1    2    0    0  0.58592789455E-02  0.37808977017E-02  0.23468005273E-01  0.24482107930E-01  0.00000000000E+00 0.  1.
     999901    1    3    3    0    0  0.30332168711E-02 -0.44093771673E-01 -0.14095944358E+00  0.89231330027E+00  0.88000000000E+00 0.  1.
        -11    1    4    4    0    0 -0.16872990864E-01  0.31051208907E-01  0.74894490760E-01  0.82814982114E-01  0.51100000000E-03 0.  1.
         11    1    4    4    0    0  0.79804950474E-02  0.92616650641E-02  0.42596947551E-01  0.44319609685E-01  0.51100000000E-03 0. -1.
</event>
<event>
 8    1  0.1075206E+005  0.1043930E+01  0.7957747E-01            NaN
         13   -1    0    0    0    0  0.00000000000E+00  0.00000000000E+00  0.74505805969E-08  0.10566000000E+00  0.10566000000E+00 0.  1.
     999900   -1    0    0    0    0 -0.00000000000E+00 -0.00000000000E+00 -0.74505805969E-08  0.93827000000E+00  0.93827000000E+00 0.  1.
     999902    2    1    2    0    0  0.15427813089E-01  0.18101171397E-01  0.81531027025E-02  0.10187875477E+01  0.10184772577E+01 0.  0.
     999903    2    3    3    0    0  0.11983301538E+00 -0.30641959601E-01  0.37238283166E-01  0.13079977371E+00  0.20567202189E-01 0.  0.
         14    1    1    2    0    0 -0.15427813089E-01 -0.18101171397E-01 -0.81531027025E-02  0.25142452274E-01  0.00000000000E+00 0. -1.
     999901    1    3    3    0    0 -0.10440520229E+00  0.48743130998E-01 -0.29085180464E-01  0.88798777402E+00  0.88000000000E+00 0. -1.
        -11    1    4    4    0    0  0.38244992190E-01 -0.19313979113E-01  0.95606390451E-02  0.43901892405E-01  0.51100000000E-03 0.  1.
         11    1    4    4    0    0  0.81588023189E-01 -0.11327980488E-01  0.27677644121E-01  0.86897881302E-01  0.51100000000E-03 0. -1.
</event>
<event>
 8    1  0.1075206E+005  0.1043930E+01  0.7957747E-01            NaN
         13   -1    0    0    0    0  0.00000000000E+00  0.00000000000E+00  0.74505805969E-08  0.10566000000E+00  0.10566000000E+00 0. -1.
     999900   -1    0    0    0    0 -0.00000000000E+00 -0.00000000000E+00 -0.74505805969E-08  0.93827000000E+00  0.93827000000E+00 0.  1.
     999902    2    1    2    0    0 -0.62226535749E-02  0.22106669717E-01  0.89436551025E-02  0.10192842046E+01  0.10189861994E+01 0.  0.
     999903    2    3    3    0    0  0.10044631854E+00  0.80486964138E-01  0.12122299596E-01  0.13091680755E+00  0.20606941741E-01 0.  0.
         14    1    1    2    0    0  0.62226535749E-02 -0.22106669717E-01 -0.89436551025E-02  0.24645795383E-01  0.00000000000E+00 0. -1.
     999901    1    3    3    0    0 -0.10666897211E+00 -0.58380294421E-01 -0.31786444933E-02  0.88836739707E+00  0.88000000000E+00 0.  1.
        -11    1    4    4    0    0  0.23870286012E-01  0.14253382988E-01 -0.49391956325E-02  0.28241923720E-01  0.51100000000E-03 0. -1.
         11    1    4    4    0    0  0.76576032526E-01  0.66233581149E-01  0.17061495228E-01  0.10267488383E+00  0.51100000000E-03 0.  1.
</event>
<event>
 8    1  0.1075206E+005  0.1043930E+01  0.7957747E-01            NaN
         13   -1    0    0    0    0  0.00000000000E+00  0.00000000000E+00  0.74505805969E-08  0.10566000000E+00  0.10566000000E+00 0.  1.
     999900   -1    0    0    0    0 -0.00000000000E+00 -0.00000000000E+00 -0.74505805969E-08  0.93827000000E+00  0.93827000000E+00 0. -1.
     999902    2    1    2    0    0 -0.20753031928E-01 -0.41245188373E-02  0.13161460385E-01  0.10190116528E+01  0.10187069375E+01 0.  0.
     999903    2    3    3    0    0 -0.43573462049E-01 -0.22265737116E-01 -0.11790883077E+00  0.12882667364E+00  0.17303462725E-01 0.  0.
         14    1    1    2    0    0  0.20753031928E-01  0.41245188373E-02 -0.13161460385E-01  0.24918347243E-01  0.00000000000E+00 0.  1.
     999901    1    3    3    0    0  0.22820430121E-01  0.18141218279E-01  0.13107029115E+00  0.89018497912E+00  0.88000000000E+00 0.  1.
        -11    1    4    4    0    0 -0.82502747701E-02 -0.61759011407E-02 -0.45643413230E-01  0.46795203611E-01  0.51100000000E-03 0.  1.
         11    1    4    4    0    0 -0.35323187279E-01 -0.16089835975E-01 -0.72265417539E-01  0.82031470024E-01  0.51100000000E-03 0. -1.
</event>
<event>
 8    1  0.1075206E+005  0.1043930E+01  0.7957747E-01            NaN
         13   -1    0    0    0    0  0.00000000000E+00  0.00000000000E+00  0.74505805969E-08  0.10566000000E+00  0.10566000000E+00 0.  1.
     999900   -1    0    0    0    0 -0.00000000000E+00 -0.00000000000E+00 -0.74505805969E-08  0.93827000000E+00  0.93827000000E+00 0. -1.
     999902    2    1    2    0    0  0.16716445885E-01 -0.15476672842E-01 -0.74263642234E-02  0.10199692435E+01  0.10196877659E+01 0.  0.
     999903    2    3    3    0    0 -0.61066728119E-02  0.11127237298E+00  0.57880245668E-01  0.12820068125E+00  0.25815874834E-01 0.  0.
         14    1    1    2    0    0 -0.16716445885E-01  0.15476672842E-01  0.74263642234E-02  0.23960756475E-01  0.00000000000E+00 0.  1.
     999901    1    3    3    0    0  0.22823118697E-01 -0.12674904582E+00 -0.65306609892E-01  0.89176856227E+00  0.88000000000E+00 0. -1.
        -11    1    4    4    0    0 -0.12912102059E-01  0.50364472038E-01  0.35474882257E-01  0.62944664710E-01  0.51100000000E-03 0.  1.
         11    1    4    4    0    0  0.68054292471E-02  0.60907900941E-01  0.22405363411E-01  0.65256016542E-01  0.51100000000E-03 0. -1.
</event>
<event>
 8    1  0.1075206E+005  0.1043930E+01  0.7957747E-01            NaN
         13   -1    0    0    0    0  0.00000000000E+00  0.00000000000E+00  0.74505805969E-08  0.10566000000E+00  0.10566000000E+00 0.  1.
     999900   -1    0    0    0    0 -0.00000000000E+00 -0.00000000000E+00 -0.74505805969E-08  0.93827000000E+00  0.93827000000E+00 0. -1.
     999902    2    1    2    0    0 -0.65078069924E-02  0.55351678195E-02  0.21830402595E-01  0.10204873868E+01  0.10202180897E+01 0.  0.
     999903    2    3    3    0    0  0.50339906890E-01 -0.10959842342E+00  0.46687423822E-01  0.13082156310E+00  0.19714086026E-01 0.  0.
         14    1    1    2    0    0  0.65078069924E-02 -0.55351678195E-02 -0.21830402595E-01  0.23442613167E-01  0.00000000000E+00 0. -1.
     999901    1    3    3    0    0 -0.56847713883E-01  0.11513359124E+00 -0.24857021227E-01  0.88966582373E+00  0.88000000000E+00 0. -1.
        -11    1    4    4    0    0  0.21051509996E-01 -0.43427646666E-01  0.29073528550E-01  0.56344101301E-01  0.51100000000E-03 0.  1.
         11    1    4    4    0    0  0.29288396894E-01 -0.66170776755E-01  0.17613895272E-01  0.74477461804E-01  0.51100000000E-03 0. -1.
</event>
<event>
 8    1  0.1075206E+005  0.1043930E+01  0.7957747E-01            NaN
         13   -1    0    0    0    0  0.00000000000E+00  0.00000000000E+00  0.74505805969E-08  0.10566000000E+00  0.10566000000E+00 0. -1.
     999900   -1    0    0    0    0 -0.00000000000E+00 -0.00000000000E+00 -0.74505805969E-08  0.93827000000E+00  0.93827000000E+00 0. -1.
     999902    2    1    2    0    0 -0.70605887274E-03  0.43060858623E-02 -0.22110683233E-01  0.10213928483E+01  0.10211441756E+01 0.  0.
     999903    2    3    3    0    0 -0.35780002080E-01 -0.66764111171E-01 -0.10841878604E+00  0.13362585013E+00  0.19067762474E-01 0.  0.
         14    1    1    2    0    0  0.70605887274E-03 -0.43060858623E-02  0.22110683233E-01  0.22537151719E-01  0.00000000000E+00 0. -1.
     999901    1    3    3    0    0  0.35073943207E-01  0.71070197034E-01  0.86308102812E-01  0.88776699815E+00  0.88000000000E+00 0.  1.
        -11    1    4    4    0    0 -0.19716574668E-01 -0.50510941771E-01 -0.65798212636E-01  0.85262913757E-01  0.51100000000E-03 0.  1.
         11    1    4    4    0    0 -0.16063427412E-01 -0.16253169400E-01 -0.42620573409E-01  0.48362936371E-01  0.51100000000E-03 0. -1.
</event>
<event>
 8    1  0.1075206E+005  0.1043930E+01  0.7957747E-01            NaN
         13   -1    0    0    0    0  0.00000000000E+00  0.00000000000E+00  0.74505805969E-08  0.10566000000E+00  0.10566000000E+00 0.  1.
     999900   -1    0    0    0    0 -0.00000000000E+00 -0.00000000000E+00 -0.74505805969E-08  0.93827000000E+00  0.93827000000E+00 0. -1.
     999902    2    1    2    0    0  0.15412660848E-01 -0.19422270176E-01 -0.49523071398E-02  0.10186456167E+01  0.10183317693E+01 0.  0.
     999903    2    3    3    0    0 -0.31001708043E-01 -0.12457193415E+00 -0.15182770860E-01  0.13111228895E+00  0.21923574106E-01 0.  0.
         14    1    1    2    0    0 -0.15412660848E-01  0.19422270176E-01  0.49523071398E-02  0.25284383307E-01  0.00000000000E+00 0.  1.
     999901    1    3    3    0    0  0.46414368890E-01  0.10514966398E+00  0.10230463720E-01  0.88753332775E+00  0.88000000000E+00 0. -1.
        -11    1    4    4    0    0 -0.19830695573E-01 -0.10692598419E+00 -0.17285700650E-01  0.11011575341E+00  0.51100000000E-03 0.  1.
         11    1    4    4    0    0 -0.11171012469E-01 -0.17645949967E-01  0.21029297904E-02  0.20996535536E-01  0.51100000000E-03 0. -1.
</event>
<event>
 8    1  0.1075206E+005  0.1043930E+01  0.7957747E-01            NaN
         13   -1    0    0    0    0  0.00000000000E+00  0.00000000000E+00  0.74505805969E-08  0.10566000000E+00  0.10566000000E+00 0.  1.
     999900   -1    0    0    0    0 -0.00000000000E+00 -0.00000000000E+00 -0.74505805969E-08  0.93827000000E+00  0.93827000000E+00 0.  1.
     999902    2    1    2    0    0 -0.21861777017E-01  0.83823864464E-02  0.11530847355E-02  0.10204879160E+01  0.10202186312E+01 0.  0.
     999903    2    3    3    0    0 -0.52025573898E-01  0.58231891493E-03  0.11934148249E+00  0.13204028500E+00  0.22028345081E-01 0.  0.
         14    1    1    2    0    0  0.21861777017E-01 -0.83823864464E-02 -0.11530847355E-02  0.23442083979E-01  0.00000000000E+00 0. -1.
     999901    1    3    3    0    0  0.30163796881E-01  0.78000675314E-02 -0.11818839775E+00  0.88844763102E+00  0.88000000000E+00 0.  1.
        -11    1    4    4    0    0 -0.52115421810E-02  0.54830606195E-02  0.31294912078E-01  0.32200260382E-01  0.51100000000E-03 0.  1.
         11    1    4    4    0    0 -0.46814031717E-01 -0.49007417045E-02  0.88046570409E-01  0.99840024622E-01  0.51100000000E-03 0. -1.
</event>
<event>
 8    1  0.1075206E+005  0.1043930E+01  0.7957747E-01            NaN
         13   -1    0    0    0    0  0.00000000000E+00  0.00000000000E+00  0.74505805969E-08  0.10566000000E+00  0.10566000000E+00 0. -1.
     999900   -1    0    0    0    0 -0.00000000000E+00 -0.00000000000E+00 -0.74505805969E-08  0.93827000000E+00  0.93827000000E+00 0.  1.
     999902    2    1    2    0    0  0.56716023061E-02 -0.11846770047E-01  0.21075943939E-01  0.10190963848E+01  0.10187937637E+01 0.  0.
     999903    2    3    3    0    0  0.10203944648E+00  0.72174940056E-01 -0.22603180187E-01  0.12878504874E+00  0.21293529862E-01 0.  0.
         14    1    1    2    0    0 -0.56716023061E-02  0.11846770047E-01 -0.21075943939E-01  0.24833615246E-01  0.00000000000E+00 0.  1.
     999901    1    3    3    0    0 -0.96367844170E-01 -0.84021710103E-01  0.43679124126E-01  0.89031133602E+00  0.88000000000E+00 0. -1.
        -11    1    4    4    0    0  0.20205382816E-01  0.11652673746E-01 -0.12587156837E-01  0.26509242510E-01  0.51100000000E-03 0. -1.
         11    1    4    4    0    0  0.81834063659E-01  0.60522266310E-01 -0.10016023349E-01  0.10227580623E+00  0.51100000000E-03 0.  1.
</event>
<event>
 8    1  0.1075206E+005  0.1043930E+01  0.7957747E-01            NaN
         13   -1    0    0    0    0  0.00000000000E+00  0.00000000000E+00  0.74505805969E-08  0.10566000000E+00  0.10566000000E+00 0.  1.
     999900   -1    0    0    0    0 -0.00000000000E+00 -0.00000000000E+00 -0.74505805969E-08  0.93827000000E+00  0.93827000000E+00 0.  1.
     999902    2    1    2    0    0 -0.23275447098E-01  0.16943480402E-02 -0.16752811873E-02  0.10205329100E+01  0.10202646699E+01 0.  0.
     999903    2    3    3    0    0 -0.12661133324E+00  0.11892822994E-01  0.35961869504E-01  0.13362881747E+00  0.19787265002E-01 0.  0.
         14    1    1    2    0    0  0.23275447098E-01 -0.16943480402E-02  0.16752811873E-02  0.23397089989E-01  0.00000000000E+00 0.  1.
     999901    1    3    3    0    0  0.10333588614E+00 -0.10198474954E-01 -0.37637150691E-01  0.88690409254E+00  0.88000000000E+00 0.  1.
        -11    1    4    4    0    0 -0.11082286776E+00  0.11747998710E-01  0.24486346252E-01  0.11410331181E+00  0.51100000000E-03 0.  1.
         11    1    4    4    0    0 -0.15788465475E-01  0.14482428383E-03  0.11475523252E-01  0.19525505654E-01  0.51100000000E-03 0. -1.
</event>
<event>
 8    1  0.1075206E+005  0.1043930E+01  0.7957747E-01            NaN
         13   -1    0    0    0    0  0.00000000000E+00  0.00000000000E+00  0.74505805969E-08  0.10566000000E+00  0.10566000000E+00 0.  1.
     999900   -1    0    0    0    0 -0.00000000000E+00 -0.00000000000E+00 -0.74505805969E-08  0.93827000000E+00  0.93827000000E+00 0.  1.
     999902    2    1    2    0    0 -0.14989302607E-01 -0.25218005027E-01 -0.25197869010E-02  0.10144855388E+01  0.10140581503E+01 0.  0.
     999903    2    3    3    0    0 -0.16894171443E-01  0.83526253645E-01  0.86760687671E-01  0.12330657502E+00  0.20372688605E-01 0.  0.
         14    1    1    2    0    0  0.14989302607E-01  0.25218005027E-01  0.25197869010E-02  0.29444461214E-01  0.00000000000E+00 0.  1.
     999901    1    3    3    0    0  0.19048688368E-02 -0.10874425867E+00 -0.89280474572E-01  0.89117896377E+00  0.88000000000E+00 0.  1.
        -11    1    4    4    0    0 -0.10232842040E-01  0.64137500988E-01  0.53114240790E-01  0.83903002240E-01  0.51100000000E-03 0.  1.
         11    1    4    4    0    0 -0.66613294033E-02  0.19388752658E-01  0.33646446882E-01  0.39403572780E-01  0.51100000000E-03 0. -1.
</event>
<event>
 8    1  0.1075206E+005  0.1043930E+01  0.7957747E-01            NaN
         13   -1    0    0    0    0  0.00000000000E+00  0.00000000000E+00  0.74505805969E-08  0.10566000000E+00  0.10566000000E+00 0.  1.
     999900   -1    0    0    0    0 -0.00000000000E+00 -0.00000000000E+00 -0.74505805969E-08  0.93827000000E+00  0.93827000000E+00 0.  1.
     999902    2    1    2    0    0 -0.38045800487E-02  0.54875428385E-02 -0.22156721264E-01  0.10207889488E+01  0.10205266139E+01 0.  0.
     999903    2    3    3    0    0 -0.34248116815E-01  0.79135937965E-01 -0.10020533827E+00  0.13374752827E+00  0.20294366612E-01 0.  0.
         14    1    1    2    0    0  0.38045800487E-02 -0.54875428385E-02  0.22156721264E-01  0.23141051249E-01  0.00000000000E+00 0.  1.
     999901    1    3    3    0    0  0.30443536766E-01 -0.73648395126E-01  0.78048617011E-01  0.88704142048E+00  0.88000000000E+00 0. -1.
        -11    1    4    4    0    0 -0.77147787757E-02  0.41282260480E-01 -0.41743850909E-01  0.59216155326E-01  0.51100000000E-03 0.  1.
         11    1    4    4    0    0 -0.26533338039E-01  0.37853677485E-01 -0.58461487365E-01  0.74531372941E-01  0.51100000000E-03 0. -1.
</event>
<event>
 8    1  0.1075206E+005  0.1043930E+01  0.7957747E-01            NaN
         13   -1    0    0    0    0  0.00000000000E+00  0.00000000000E+00  0.74505805969E-08  0.10566000000E+00  0.10566000000E+00 0. -1.
     999900   -1    0    0    0    0 -0.00000000000E+00 -0.00000000000E+00 -0.74505805969E-08  0.93827000000E+00  0.93827000000E+00 0. -1.
     999902    2    1    2    0    0  0.19064040423E-01 -0.62121290733E-02  0.73177231121E-02  0.10225857442E+01  0.10223629624E+01 0.  0.
     999903    2    3    3    0    0  0.17434798835E-01 -0.10989858954E+00 -0.70314331882E-01  0.13310259512E+00  0.19761664052E-01 0.  0.
         14    1    1    2    0    0 -0.19064040423E-01  0.62121290733E-02 -0.73177231121E-02  0.21344255818E-01  0.00000000000E+00 0.  1.
     999901    1    3    3    0    0  0.16292415885E-02  0.10368646046E+00  0.77632054994E-01  0.88948314907E+00  0.88000000000E+00 0.  1.
        -11    1    4    4    0    0  0.11931316109E-01 -0.61854344143E-01 -0.50900100723E-01  0.80990107841E-01  0.51100000000E-03 0. -1.
         11    1    4    4    0    0  0.55034827257E-02 -0.48044245392E-01 -0.19414231159E-01  0.52112487274E-01  0.51100000000E-03 0.  1.
</event>
<event>
 8    1  0.1075206E+005  0.1043930E+01  0.7957747E-01            NaN
         13   -1    0    0    0    0  0.00000000000E+00  0.00000000000E+00  0.74505805969E-08  0.10566000000E+00  0.10566000000E+00 0.  1.
     999900   -1    0    0    0    0 -0.00000000000E+00 -0.00000000000E+00 -0.74505805969E-08  0.93827000000E+00  0.93827000000E+00 0.  1.
     999902    2    1    2    0    0 -0.83645955751E-02 -0.10639695975E-01 -0.20623929975E-01  0.10192618814E+01  0.10189633294E+01 0.  0.
     999903    2    3    3    0    0  0.45436288525E-02  0.11384077082E+00  0.53833673098E-01  0.12729442482E+00  0.18039971381E-01 0.  0.
         14    1    1    2    0    0  0.83645955751E-02  0.10639695975E-01  0.20623929975E-01  0.24668118639E-01  0.00000000000E+00 0.  1.
     999901    1    3    3    0    0 -0.12908224428E-01 -0.12448046679E+00 -0.74457603073E-01  0.89196745654E+00  0.88000000000E+00 0. -1.
        -11    1    4    4    0    0  0.11001916952E-01  0.88857221056E-01  0.41359045028E-01  0.98627986074E-01  0.51100000000E-03 0. -1.
         11    1    4    4    0    0 -0.64582880993E-02  0.24983549763E-01  0.12474628070E-01  0.28666438747E-01  0.51100000000E-03 0.  1.
</event>
<event>
 8    1  0.1075206E+005  0.1043930E+01  0.7957747E-01            NaN
         13   -1    0    0    0    0  0.00000000000E+00  0.00000000000E+00  0.74505805969E-08  0.10566000000E+00  0.10566000000E+00 0.  1.
     999900   -1    0    0    0    0 -0.00000000000E+00 -0.00000000000E+00 -0.74505805969E-08  0.93827000000E+00  0.93827000000E+00 0.  1.
     999902    2    1    2    0    0  0.87972049855E-02  0.19008750778E-01  0.11382934449E-02  0.10229533670E+01  0.10227382714E+01 0.  0.
     999903    2    3    3    0    0 -0.70325553444E-01 -0.69601742608E-01 -0.83446584328E-01  0.13095177953E+00  0.19873351092E-01 0.  0.
         14    1    1    2    0    0 -0.87972049855E-02 -0.19008750778E-01 -0.11382934449E-02  0.20976633039E-01  0.00000000000E+00 0.  1.
     999901    1    3    3    0    0  0.79122758429E-01  0.88610493386E-01  0.84584877773E-01  0.89200158744E+00  0.88000000000E+00 0. -1.
        -11    1    4    4    0    0 -0.83965818639E-02 -0.19277555645E-02 -0.11450095891E-01  0.14338223231E-01  0.51100000000E-03 0. -1.
         11    1    4    4    0    0 -0.61928971580E-01 -0.67673987044E-01 -0.71996488437E-01  0.11661355629E+00  0.51100000000E-03 0.  1.
</event>
<event>
 8    1  0.1075206E+005  0.1043930E+01  0.7957747E-01            NaN
         13   -1    0    0    0    0  0.00000000000E+00  0.00000000000E+00  0.74505805969E-08  0.10566000000E+00  0.10566000000E+00 0.  1.
     999900   -1    0    0    0    0 -0.00000000000E+00 -0.00000000000E+00 -0.74505805969E-08  0.93827000000E+00  0.93827000000E+00 0. -1.
     999902    2    1    2    0    0 -0.37474290512E-02  0.11316638817E-01  0.26892460684E-01  0.10145137803E+01  0.10140872233E+01 0.  0.
     999903    2    3    3    0    0 -0.69425134262E-01  0.86289726154E-01 -0.55340107314E-01  0.12507759935E+00  0.17779546489E-01 0.  0.
         14    1    1    2    0    0  0.37474290512E-02 -0.11316638817E-01 -0.26892460684E-01  0.29416219680E-01  0.00000000000E+00 0. -1.
     999901    1    3    3    0    0  0.65677705211E-01 -0.74973087337E-01  0.82232567999E-01  0.88943618097E+00  0.88000000000E+00 0. -1.
        -11    1    4    4    0    0 -0.13657707673E-01  0.76887544955E-02 -0.97174625140E-02  0.18448309496E-01  0.51100000000E-03 0. -1.
         11    1    4    4    0    0 -0.55767426590E-01  0.78600971659E-01 -0.45622644800E-01  0.10662928985E+00  0.51100000000E-03 0.  1.
</event>
<event>
 8    1  0.1075206E+005  0.1043930E+01  0.7957747E-01            NaN
         13   -1    0    0    0    0  0.00000000000E+00  0.00000000000E+00  0.74505805969E-08  0.10566000000E+00  0.10566000000E+00 0. -1.
     999900   -1    0    0    0    0 -0.00000000000E+00 -0.00000000000E+00 -0.74505805969E-08  0.93827000000E+00  0.93827000000E+00 0.  1.
     999902    2    1    2    0    0  0.93060349530E-02  0.10747562565E-01 -0.14633503693E-01  0.10235277497E+01  0.10233243877E+01 0.  0.
     999903    2    3    3    0    0 -0.11107306386E+00  0.12779538754E-01 -0.70332503251E-01  0.13358526002E+00  0.19945389333E-01 0.  0.
         14    1    1    2    0    0 -0.93060349530E-02 -0.10747562565E-01  0.14633503693E-01  0.20402250317E-01  0.00000000000E+00 0. -1.
     999901    1    3    3    0    0  0.12037909881E+00 -0.20319761888E-02  0.55698999558E-01  0.88994248966E+00  0.88000000000E+00 0.  1.
        -11    1    4    4    0    0 -0.88418339590E-01  0.85695894026E-02 -0.45879592882E-01  0.99982192426E-01  0.51100000000E-03 0. -1.
         11    1    4    4    0    0 -0.22654724267E-01  0.42099493514E-02 -0.24452910370E-01  0.33603067593E-01  0.51100000000E-03 0.  1.
</event>
<event>
 8    1  0.1262692E+005  0.1043930E+01  0.7957747E-01            NaN
         13   -1    0    0    0    0  0.00000000000E+00  0.00000000000E+00  0.74505805969E-08  0.10566000000E+00  0.10566000000E+00 0.  1.
     999900   -1    0    0    0    0 -0.00000000000E+00 -0.00000000000E+00 -0.74505805969E-08  0.93827000000E+00  0.93827000000E+00 0. -1.
     999902    2    1    2    0    0  0.20971068817E-01  0.11185095889E-01  0.15012747706E-02  0.10201151743E+01  0.10198371551E+01 0.  0.
     999903    2    3    3    0    0 -0.10030338722E+00 -0.53409098042E-01  0.55209466663E-01  0.12783468395E+00  0.19501794002E-01 0.  0.
         14    1    1    2    0    0 -0.20971068817E-01 -0.11185095889E-01 -0.15012747706E-02  0.23814825704E-01  0.00000000000E+00 0. -1.
     999901    1    3    3    0    0  0.12127445604E+00  0.64594193931E-01 -0.53708191892E-01  0.89228049035E+00  0.88000000000E+00 0. -1.
        -11    1    4    4    0    0 -0.82302847846E-01 -0.36351822641E-01  0.38139260591E-01  0.97724500982E-01  0.51100000000E-03 0.  1.
         11    1    4    4    0    0 -0.18000539376E-01 -0.17057275401E-01  0.17070206072E-01  0.30110182967E-01  0.51100000000E-03 0. -1.
</event>
<event>
 8    1  0.1075206E+005  0.1043930E+01  0.7957747E-01            NaN
         13   -1    0    0    0    0  0.00000000000E+00  0.00000000000E+00  0.74505805969E-08  0.10566000000E+00  0.10566000000E+00 0. -1.
     999900   -1    0    0    0    0 -0.00000000000E+00 -0.00000000000E+00 -0.74505805969E-08  0.93827000000E+00  0.93827000000E+00 0. -1.
     999902    2    1    2    0    0  0.14365903269E-01 -0.25911446420E-02 -0.17663018730E-01  0.10210154754E+01  0.10207583091E+01 0.  0.
     999903    2    3    3    0    0 -0.11017840091E+00  0.64582456416E-01  0.19075062728E-02  0.12949622051E+00  0.21341481727E-01 0.  0.
         14    1    1    2    0    0 -0.14365903269E-01  0.25911446420E-02  0.17663018730E-01  0.22914524606E-01  0.00000000000E+00 0. -1.
     999901    1    3    3    0    0  0.12454430418E+00 -0.67173601058E-01 -0.19570525002E-01  0.89151925489E+00  0.88000000000E+00 0. -1.
        -11    1    4    4    0    0 -0.69570621894E-01  0.37531882891E-01  0.11150989273E-01  0.79833071762E-01  0.51100000000E-03 0. -1.
         11    1    4    4    0    0 -0.40607779015E-01  0.27050573524E-01 -0.92434829999E-02  0.49663148747E-01  0.51100000000E-03 0.  1.
</event>
<event>
 8    1  0.1075206E+005  0.1043930E+01  0.7957747E-01            NaN
         13   -1    0    0    0    0  0.00000000000E+00  0.00000000000E+00  0.74505805969E-08  0.10566000000E+00  0.10566000000E+00 0.  1.
     999900   -1    0    0    0    0 -0.00000000000E+00 -0.00000000000E+00 -0.74505805969E-08  0.93827000000E+00  0.93827000000E+00 0. -1.
     999902    2    1    2    0    0 -0.81775650389E-02  0.14758467573E-01 -0.17400267311E-01  0.10196925447E+01  0.10194044494E+01 0.  0.
     999903    2    3    3    0    0 -0.95538501142E-01  0.49860624321E-02  0.85457681263E-01  0.12935149175E+00  0.16623089695E-01 0.  0.
         14    1    1    2    0    0  0.81775650389E-02 -0.14758467573E-01  0.17400267311E-01  0.24237455262E-01  0.00000000000E+00 0.  1.
     999901    1    3    3    0    0  0.87360936104E-01  0.97724051409E-02 -0.10285794857E+00  0.89034105299E+00  0.88000000000E+00 0. -1.
        -11    1    4    4    0    0 -0.66101573662E-01  0.25907175846E-03  0.49180088158E-01  0.82391913141E-01  0.51100000000E-03 0. -1.
         11    1    4    4    0    0 -0.29436927480E-01  0.47269906737E-02  0.36277593104E-01  0.46959578605E-01  0.51100000000E-03 0.  1.
</event>
<event>
 8    1  0.1075206E+005  0.1043930E+01  0.7957747E-01            NaN
         13   -1    0    0    0    0  0.00000000000E+00  0.00000000000E+00  0.74505805969E-08  0.10566000000E+00  0.10566000000E+00 0.  1.
     999900   -1    0    0    0    0 -0.00000000000E+00 -0.00000000000E+00 -0.74505805969E-08  0.93827000000E+00  0.93827000000E+00 0. -1.
     999902    2    1    2    0    0  0.11494860956E-02 -0.23638569415E-01 -0.52033210017E-02  0.10196982474E+01  0.10194102893E+01 0.  0.
     999903    2    3    3    0    0  0.61635093809E-01  0.10983420957E+00  0.62930831894E-02  0.12750675523E+00  0.18866143085E-01 0.  0.
         14    1    1    2    0    0 -0.11494860956E-02  0.23638569415E-01  0.52033210017E-02  0.24231752551E-01  0.00000000000E+00 0.  1.
     999901    1    3    3    0    0 -0.60485607713E-01 -0.13347277898E+00 -0.11496404191E-01  0.89219149221E+00  0.88000000000E+00 0.  1.
        -11    1    4    4    0    0  0.25097259514E-01  0.39635586208E-01 -0.64166451678E-02  0.47352788570E-01  0.51100000000E-03 0. -1.
         11    1    4    4    0    0  0.36537834295E-01  0.70198623357E-01  0.12709728357E-01  0.80153966665E-01  0.51100000000E-03 0.  1.
</event>
<event>
 8    1  0.1075206E+005  0.1043930E+01  0.7957747E-01            NaN
         13   -1    0    0    0    0  0.00000000000E+00  0.00000000000E+00  0.74505805969E-08  0.10566000000E+00  0.10566000000E+00 0. -1.
     999900   -1    0    0    0    0 -0.00000000000E+00 -0.00000000000E+00 -0.74505805969E-08  0.93827000000E+00  0.93827000000E+00 0.  1.
     999902    2    1    2    0    0 -0.20385286605E-01 -0.71888731371E-02 -0.11617310233E-01  0.10193902016E+01  0.10190947853E+01 0.  0.
     999903    2    3    3    0    0  0.87010762885E-02  0.11213675439E+00 -0.61849466019E-01  0.12944194956E+00  0.16718296690E-01 0.  0.
         14    1    1    2    0    0  0.20385286605E-01  0.71888731371E-02  0.11617310233E-01  0.24539798369E-01  0.00000000000E+00 0. -1.
     999901    1    3    3    0    0 -0.29086362894E-01 -0.11932562753E+00  0.50232155787E-01  0.88994825207E+00  0.88000000000E+00 0. -1.
        -11    1    4    4    0    0  0.52659093054E-02  0.98951778584E-02 -0.84240969477E-02  0.14031068243E-01  0.51100000000E-03 0. -1.
         11    1    4    4    0    0  0.34351669831E-02  0.10224157653E+00 -0.53425369072E-01  0.11541088132E+00  0.51100000000E-03 0.  1.
</event>
<event>
 8    1  0.1075206E+005  0.1043930E+01  0.7957747E-01            NaN
         13   -1    0    0    0    0  0.00000000000E+00  0.00000000000E+00  0.74505805969E-08  0.10566000000E+00  0.10566000000E+00 0. -1.
     999900   -1    0    0    0    0 -0.00000000000E+00 -0.00000000000E+00 -0.74505805969E-08  0.93827000000E+00  0.93827000000E+00 0.  1.
     999902    2    1    2    0    0 -0.13292691355E-01  0.17814733964E-01  0.79310065256E-02  0.10203299734E+01  0.10200570050E+01 0.  0.
     999903    2    3    3    0    0 -0.61156676984E-01 -0.10481040818E+00  0.42240475180E-01  0.12987782635E+00  0.18937561363E-01 0.  0.
         14    1    1    2    0    0  0.13292691355E-01 -0.17814733964E-01 -0.79310065256E-02  0.23600026571E-01  0.00000000000E+00 0.  1.
     999901    1    3    3    0    0  0.47863985629E-01  0.12262514214E+00 -0.34309468654E-01  0.89045214708E+00  0.88000000000E+00 0.  1.
        -11    1    4    4    0    0 -0.37730866490E-01 -0.67857254582E-01  0.36337400851E-01  0.85725685224E-01  0.51100000000E-03 0.  1.
         11    1    4    4    0    0 -0.23425810495E-01 -0.36953153597E-01  0.59030743287E-02  0.44152141122E-01  0.51100000000E-03 0. -1.
</event>
<event>
 8    1  0.1075206E+005  0.1043930E+01  0.7957747E-01            NaN
         13   -1    0    0    0    0  0.00000000000E+00  0.00000000000E+00  0.74505805969E-08  0.10566000000E+00  0.10566000000E+00 0.  1.
     999900   -1    0    0    0    0 -0.00000000000E+00 -0.00000000000E+00 -0.74505805969E-08  0.93827000000E+00  0.93827000000E+00 0.  1.
     999902    2    1    2    0    0  0.18821609892E-01 -0.99604354830E-02 -0.10236810983E-01  0.10203025674E+01  0.10200289571E+01 0.  0.
     999903    2    3    3    0    0 -0.99817143355E-01  0.58706179571E-01  0.49870610590E-01  0.12766425319E+00  0.20030130189E-01 0.  0.
         14    1    1    2    0    0 -0.18821609892E-01  0.99604354830E-02  0.10236810983E-01  0.23627432638E-01  0.00000000000E+00 0.  1.
     999901    1    3    3    0    0  0.11863875325E+00 -0.68666615054E-01 -0.60107421573E-01  0.89263831417E+00  0.88000000000E+00 0. -1.
        -11    1    4    4    0    0 -0.45903420578E-01  0.19874752513E-01  0.13042384433E-01  0.51696177044E-01  0.51100000000E-03 0. -1.
         11    1    4    4    0    0 -0.53913722777E-01  0.38831427059E-01  0.36828226156E-01  0.75968076150E-01  0.51100000000E-03 0.  1.
</event>
<event>
 8    1  0.1075206E+005  0.1043930E+01  0.7957747E-01            NaN
         13   -1    0    0    0    0  0.00000000000E+00  0.00000000000E+00  0.74505805969E-08  0.10566000000E+00  0.10566000000E+00 0. -1.
     999900   -1    0    0    0    0 -0.00000000000E+00 -0.00000000000E+00 -0.74505805969E-08  0.93827000000E+00  0.93827000000E+00 0.  1.
     999902    2    1    2    0    0  0.59343428360E-02 -0.14739023536E-01  0.14425908592E-01  0.10224692899E+01  0.10222440446E+01 0.  0.
     999903    2    3    3    0    0  0.10568184242E+00  0.74636024275E-01  0.20789860858E-01  0.13231314475E+00  0.18312892251E-01 0.  0.
         14    1    1    2    0    0 -0.59343428360E-02  0.14739023536E-01 -0.14425908592E-01  0.21460710109E-01  0.00000000000E+00 0.  1.
     999901    1    3    3    0    0 -0.99747499582E-01 -0.89375047810E-01 -0.63639522655E-02  0.89015614514E+00  0.88000000000E+00 0. -1.
        -11    1    4    4    0    0  0.56330443723E-01  0.29441379872E-01  0.13660990957E-01  0.65013825712E-01  0.51100000000E-03 0.  1.
         11    1    4    4    0    0  0.49351398696E-01  0.45194644403E-01  0.71288699010E-02  0.67299319038E-01  0.51100000000E-03 0. -1.
</event>
<event>
 8    1  0.1075206E+005  0.1043930E+01  0.7957747E-01            NaN
         13   -1    0    0    0    0  0.00000000000E+00  0.00000000000E+00  0.74505805969E-08  0.10566000000E+00  0.10566000000E+00 0. -1.
     999900   -1    0    0    0    0 -0.00000000000E+00 -0.00000000000E+00 -0.74505805969E-08  0.93827000000E+00  0.93827000000E+00 0.  1.
     999902    2    1    2    0    0  0.18660209837E-01 -0.47061167111E-02  0.14809813196E-01  0.10196466408E+01  0.10193574401E+01 0.  0.
     999903    2    3    3    0    0 -0.68187044909E-01 -0.41564954419E-01  0.10120026634E+00  0.13039733385E+00  0.19617651188E-01 0.  0.
         14    1    1    2    0    0 -0.18660209837E-01  0.47061167111E-02 -0.14809813196E-01  0.24283359169E-01  0.00000000000E+00 0.  1.
     999901    1    3    3    0    0  0.86847254746E-01  0.36858837708E-01 -0.86390453144E-01  0.88924930698E+00  0.88000000000E+00 0.  1.
        -11    1    4    4    0    0 -0.47665212009E-01 -0.36467872883E-01  0.65003611541E-01  0.88473774775E-01  0.51100000000E-03 0.  1.
         11    1    4    4    0    0 -0.20521832901E-01 -0.50970815357E-02  0.36196654799E-01  0.41923559074E-01  0.51100000000E-03 0. -1.
</event>
<event>
 8    1  0.1075206E+005  0.1043930E+01  0.7957747E-01            NaN
         13   -1    0    0    0    0  0.00000000000E+00  0.00000000000E+00  0.74505805969E-08  0.10566000000E+00  0.10566000000E+00 0. -1.
     999900   -1    0    0    0    0 -0.00000000000E+00 -0.00000000000E+00 -0.74505805969E-08  0.93827000000E+00  0.93827000000E+00 0.  1.
     999902    2    1    2    0    0 -0.13651818677E-01  0.20696459696E-01 -0.79816966228E-02  0.10178834440E+01  0.10175501376E+01 0.  0.
     999903    2    3    3    0    0 -0.95874027201E-02  0.12814329545E+00  0.19626603780E-01  0.13090905869E+00  0.15471121847E-01 0.  0.
         14    1    1    2    0    0  0.13651818677E-01 -0.20696459696E-01  0.79816966228E-02  0.26046555974E-01  0.00000000000E+00 0. -1.
     999901    1    3    3    0    0 -0.40644159565E-02 -0.10744683576E+00 -0.27608300403E-01  0.88697438534E+00  0.88000000000E+00 0.  1.
        -11    1    4    4    0    0 -0.47261779155E-02  0.92741885614E-01  0.74818239552E-02  0.93164547526E-01  0.51100000000E-03 0.  1.
         11    1    4    4    0    0 -0.48612248045E-02  0.35401409837E-01  0.12144779825E-01  0.37744511164E-01  0.51100000000E-03 0. -1.
</event>
<event>
 8    1  0.1075206E+005  0.1043930E+01  0.7957747E-01            NaN
         13   -1    0    0    0    0  0.00000000000E+00  0.00000000000E+00  0.74505805969E-08  0.10566000000E+00  0.10566000000E+00 0.  1.
     999900   -1    0    0    0    0 -0.00000000000E+00 -0.00000000000E+00 -0.74505805969E-08  0.93827000000E+00  0.93827000000E+00 0. -1.
     999902    2    1    2    0    0 -0.21619422186E-02  0.24467089771E-01  0.88992085404E-02  0.10178051385E+01  0.10174697988E+01 0.  0.
     999903    2    3    3    0    0 -0.38901395262E-01  0.11867114971E+00 -0.34326809619E-01  0.13096091262E+00  0.19397691831E-01 0.  0.
         14    1    1    2    0    0  0.21619422186E-02 -0.24467089771E-01 -0.88992085404E-02  0.26124861505E-01  0.00000000000E+00 0. -1.
     999901    1    3    3    0    0  0.36739453043E-01 -0.94204059943E-01  0.43226018160E-01  0.88684422587E+00  0.88000000000E+00 0. -1.
        -11    1    4    4    0    0 -0.20049390767E-01  0.66589733143E-01 -0.28881367714E-01  0.75303154995E-01  0.51100000000E-03 0.  1.
         11    1    4    4    0    0 -0.18852004495E-01  0.52081416570E-01 -0.54454419057E-02  0.55657757626E-01  0.51100000000E-03 0. -1.
</event>
<event>
 8    1  0.1075206E+005  0.1043930E+01  0.7957747E-01            NaN
         13   -1    0    0    0    0  0.00000000000E+00  0.00000000000E+00  0.74505805969E-08  0.10566000000E+00  0.10566000000E+00 0. -1.
     999900   -1    0    0    0    0 -0.00000000000E+00 -0.00000000000E+00 -0.74505805969E-08  0.93827000000E+00  0.93827000000E+00 0.  1.
     999902    2    1    2    0    0  0.19598451311E-01  0.11334610248E-02  0.11052653451E-01  0.10214012367E+01  0.10211527511E+01 0.  0.
     999903    2    3    3    0    0  0.65626730693E-01  0.29970753968E-01  0.11122533983E+00  0.13405420252E+00  0.19857973658E-01 0.  0.
         14    1    1    2    0    0 -0.19598451311E-01 -0.11334610248E-02 -0.11052653451E-01  0.22528763304E-01  0.00000000000E+00 0.  1.
     999901    1    3    3    0    0 -0.46028279382E-01 -0.28837292943E-01 -0.10017268638E+00  0.88734703418E+00  0.88000000000E+00 0.  1.
        -11    1    4    4    0    0  0.50435294419E-01  0.31461540087E-01  0.85451430934E-01  0.10409493550E+00  0.51100000000E-03 0.  1.
         11    1    4    4    0    0  0.15191436274E-01 -0.14907861196E-02  0.25773908895E-01  0.29959267015E-01  0.51100000000E-03 0. -1.
</event>
<event>
 8    1  0.1075206E+005  0.1043930E+01  0.7957747E-01            NaN
         13   -1    0    0    0    0  0.00000000000E+00  0.00000000000E+00  0.74505805969E-08  0.10566000000E+00  0.10566000000E+00 0. -1.
     999900   -1    0    0    0    0 -0.00000000000E+00 -0.00000000000E+00 -0.74505805969E-08  0.93827000000E+00  0.93827000000E+00 0.  1.
     999902    2    1    2    0    0 -0.31824002973E-02 -0.19137964930E-01  0.14392423102E-01  0.10197736092E+01  0.10194874608E+01 0.  0.
     999903    2    3    3    0    0  0.96619385954E-01  0.45382554653E-01 -0.67604838787E-01  0.12800747117E+00  0.20508935616E-01 0.  0.
         14    1    1    2    0    0  0.31824002973E-02  0.19137964930E-01 -0.14392423102E-01  0.24156390792E-01  0.00000000000E+00 0.  1.
     999901    1    3    3    0    0 -0.99801786251E-01 -0.64520519584E-01  0.81997261889E-01  0.89176613803E+00  0.88000000000E+00 0.  1.
        -11    1    4    4    0    0  0.65447520032E-01  0.20033626756E-01 -0.40350922948E-01  0.79455535887E-01  0.51100000000E-03 0.  1.
         11    1    4    4    0    0  0.31171865922E-01  0.25348927897E-01 -0.27253915839E-01  0.48551935287E-01  0.51100000000E-03 0. -1.
</event>
<event>
 8    1  0.1075206E+005  0.1043930E+01  0.7957747E-01            NaN
         13   -1    0    0    0    0  0.00000000000E+00  0.00000000000E+00  0.74505805969E-08  0.10566000000E+00  0.10566000000E+00 0. -1.
     999900   -1    0    0    0    0 -0.00000000000E+00 -0.00000000000E+00 -0.74505805969E-08  0.93827000000E+00  0.93827000000E+00 0. -1.
     999902    2    1    2    0    0 -0.18305812835E-01  0.16304616746E-01 -0.52163308772E-02  0.10188670110E+01  0.10185587036E+01 0.  0.
     999903    2    3    3    0    0  0.54077406308E-01  0.10852213105E+00 -0.43668810208E-01  0.13026023995E+00  0.18956432304E-01 0.  0.
         14    1    1    2    0    0  0.18305812835E-01 -0.16304616746E-01  0.52163308772E-02  0.25062989020E-01  0.00000000000E+00 0. -1.
     999901    1    3    3    0    0 -0.72383219143E-01 -0.92217514303E-01  0.38452479331E-01  0.88860677103E+00  0.88000000000E+00 0.  1.
        -11    1    4    4    0    0  0.37360469287E-01  0.88493891900E-01 -0.29069917697E-01  0.10036082306E+00  0.51100000000E-03 0. -1.
         11    1    4    4    0    0  0.16716937021E-01  0.20028239150E-01 -0.14598892511E-01  0.29899416890E-01  0.51100000000E-03 0.  1.
</event>
<event>
 8    1  0.1075206E+005  0.1043930E+01  0.7957747E-01            NaN
         13   -1    0    0    0    0  0.00000000000E+00  0.00000000000E+00  0.74505805969E-08  0.10566000000E+00  0.10566000000E+00 0.  1.
     999900   -1    0    0    0    0 -0.00000000000E+00 -0.00000000000E+00 -0.74505805969E-08  0.93827000000E+00  0.93827000000E+00 0.  1.
     999902    2    1    2    0    0 -0.20330302153E-01  0.71349159307E-02 -0.44993939905E-02  0.10219192581E+01  0.10216821900E+01 0.  0.
     999903    2    3    3    0    0  0.72251692062E-01  0.99165823834E-01 -0.42599790652E-01  0.13147400216E+00  0.20408416382E-01 0.  0.
         14    1    1    2    0    0  0.20330302153E-01 -0.71349159307E-02  0.44993939905E-02  0.22010741860E-01  0.00000000000E+00 0.  1.
     999901    1    3    3    0    0 -0.92581994214E-01 -0.92030907903E-01  0.38100396661E-01  0.89044525597E+00  0.88000000000E+00 0. -1.
        -11    1    4    4    0    0  0.56831644486E-01  0.75492732037E-01 -0.23517375600E-01  0.97377186659E-01  0.51100000000E-03 0.  1.
         11    1    4    4    0    0  0.15420047575E-01  0.23673091797E-01 -0.19082415052E-01  0.34096815506E-01  0.51100000000E-03 0. -1.
</event>
<event>
 8    1  0.1075206E+005  0.1043930E+01  0.7957747E-01            NaN
         13   -1    0    0    0    0  0.00000000000E+00  0.00000000000E+00  0.74505805969E-08  0.10566000000E+00  0.10566000000E+00 0. -1.
     999900   -1    0    0    0    0 -0.00000000000E+00 -0.00000000000E+00 -0.74505805969E-08  0.93827000000E+00  0.93827000000E+00 0.  1.
     999902    2    1    2    0    0 -0.12363306097E-01  0.10780391217E-01  0.17046483370E-01  0.10202730609E+01  0.10199987588E+01 0.  0.
     999903    2    3    3    0    0 -0.11006474578E+00 -0.68432010745E-01  0.52699558820E-02  0.13125176614E+00  0.20051566525E-01 0.  0.
         14    1    1    2    0    0  0.12363306097E-01 -0.10780391217E-01 -0.17046483370E-01  0.23656939102E-01  0.00000000000E+00 0.  1.
     999901    1    3    3    0    0  0.97701439685E-01  0.79212401962E-01  0.11776527488E-01  0.88902129476E+00  0.88000000000E+00 0. -1.
        -11    1    4    4    0    0 -0.29391188372E-01 -0.29114492661E-01  0.28895948099E-02  0.41474166851E-01  0.51100000000E-03 0.  1.
         11    1    4    4    0    0 -0.80673557410E-01 -0.39317518084E-01  0.23803610721E-02  0.89777599285E-01  0.51100000000E-03 0. -1.
</event>
<event>
 8    1  0.1075206E+005  0.1043930E+01  0.7957747E-01            NaN
         13   -1    0    0    0    0  0.00000000000E+00  0.00000000000E+00  0.74505805969E-08  0.10566000000E+00  0.10566000000E+00 0.  1.
     999900   -1    0    0    0    0 -0.00000000000E+00 -0.00000000000E+00 -0.74505805969E-08  0.93827000000E+00  0.93827000000E+00 0.  1.
     999902    2    1    2    0    0  0.17355645735E-01 -0.64005049220E-02  0.13307722154E-01  0.10211422759E+01  0.10208879797E+01 0.  0.
     999903    2    3    3    0    0  0.13125148311E+00 -0.10086362585E-01  0.13230686364E-01  0.13379462514E+00  0.19931485792E-01 0.  0.
         14    1    1    2    0    0 -0.17355645735E-01  0.64005049220E-02 -0.13307722154E-01  0.22787724131E-01  0.00000000000E+00 0.  1.
     999901    1    3    3    0    0 -0.11389583738E+00  0.36858576627E-02  0.77035790275E-04  0.88734765073E+00  0.88000000000E+00 0. -1.
        -11    1    4    4    0    0  0.40269118299E-01 -0.15673408248E-02  0.13211041446E-01  0.42412865771E-01  0.51100000000E-03 0. -1.
         11    1    4    4    0    0  0.90982364813E-01 -0.85190217599E-02  0.19644917393E-04  0.91381759370E-01  0.51100000000E-03 0.  1.
</event>
<event>
 8    1  0.1075206E+005  0.1043930E+01  0.7957747E-01            NaN
         13   -1    0    0    0    0  0.00000000000E+00  0.00000000000E+00  0.74505805969E-08  0.10566000000E+00  0.10566000000E+00 0.  1.
     999900   -1    0    0    0    0 -0.00000000000E+00 -0.00000000000E+00 -0.74505805969E-08  0.93827000000E+00  0.93827000000E+00 0. -1.
     999902    2    1    2    0    0  0.22697012623E-01  0.52721726382E-02 -0.45336347574E-02  0.10201917602E+01  0.10199155472E+01 0.  0.
     999903    2    3    3    0    0 -0.49295993488E-01  0.11648317045E+00 -0.23123406868E-01  0.13008139701E+00  0.19699084569E-01 0.  0.
         14    1    1    2    0    0 -0.22697012623E-01 -0.52721726382E-02  0.45336347574E-02  0.23738239835E-01  0.00000000000E+00 0. -1.
     999901    1    3    3    0    0  0.71993006111E-01 -0.11121099781E+00  0.18589772110E-01  0.89011036315E+00  0.88000000000E+00 0.  1.
        -11    1    4    4    0    0 -0.30603823376E-01  0.51675667340E-01 -0.16619947168E-01  0.62317352039E-01  0.51100000000E-03 0.  1.
         11    1    4    4    0    0 -0.18692170111E-01  0.64807503105E-01 -0.65034596991E-02  0.67764044974E-01  0.51100000000E-03 0. -1.
</event>
<event>
 8    1  0.1075206E+005  0.1043930E+01  0.7957747E-01            NaN
         13   -1    0    0    0    0  0.00000000000E+00  0.00000000000E+00  0.74505805969E-08  0.10566000000E+00  0.10566000000E+00 0.  1.
     999900   -1    0    0    0    0 -0.00000000000E+00 -0.00000000000E+00 -0.74505805969E-08  0.93827000000E+00  0.93827000000E+00 0.  1.
     999902    2    1    2    0    0 -0.22547077338E-02  0.66037739115E-03  0.25712969205E-01  0.10181099188E+01  0.10177824572E+01 0.  0.
     999903    2    3    3    0    0 -0.10942703737E+00  0.35091141436E-02  0.68323335764E-01  0.13057982534E+00  0.19910353780E-01 0.  0.
         14    1    1    2    0    0  0.22547077338E-02 -0.66037739115E-03 -0.25712969205E-01  0.25820081150E-01  0.00000000000E+00 0. -1.
     999901    1    3    3    0    0  0.10717232963E+00 -0.28487367524E-02 -0.42610366559E-01  0.88753009351E+00  0.88000000000E+00 0.  1.
        -11    1    4    4    0    0 -0.41389687551E-01 -0.57397939376E-03  0.37172961945E-01  0.55637450595E-01  0.51100000000E-03 0.  1.
         11    1    4    4    0    0 -0.68037349817E-01  0.40830935373E-02  0.31150373820E-01  0.74942374749E-01  0.51100000000E-03 0. -1.
</event>
<event>
 8    1  0.1075206E+005  0.1043930E+01  0.7957747E-01            NaN
         13   -1    0    0    0    0  0.00000000000E+00  0.00000000000E+00  0.74505805969E-08  0.10566000000E+00  0.10566000000E+00 0.  1.
     999900   -1    0    0    0    0 -0.00000000000E+00 -0.00000000000E+00 -0.74505805969E-08  0.93827000000E+00  0.93827000000E+00 0.  1.
     999902    2    1    2    0    0  0.12520838329E-01 -0.19632283041E-01 -0.51760306814E-02  0.10200765050E+01  0.10197975715E+01 0.  0.
     999903    2    3    3    0    0 -0.36711934654E-01 -0.11246591475E-01 -0.12336992475E+00  0.13077116804E+00  0.20167005024E-01 0.  0.
         14    1    1    2    0    0 -0.12520838329E-01  0.19632283041E-01  0.51760306814E-02  0.23853494995E-01  0.00000000000E+00 0.  1.
     999901    1    3    3    0    0  0.49232772984E-01 -0.83856915653E-02  0.11819389407E+00  0.88930533696E+00  0.88000000000E+00 0.  1.
        -11    1    4    4    0    0 -0.12645150564E-01  0.42891245696E-02 -0.25433492071E-01  0.28730124648E-01  0.51100000000E-03 0.  1.
         11    1    4    4    0    0 -0.24066784090E-01 -0.15535716045E-01 -0.97936432680E-01  0.10204104339E+00  0.51100000000E-03 0. -1.
</event>
<event>
 8    1  0.1075206E+005  0.1043930E+01  0.7957747E-01            NaN
         13   -1    0    0    0    0  0.00000000000E+00  0.00000000000E+00  0.74505805969E-08  0.10566000000E+00  0.10566000000E+00 0. -1.
     999900   -1    0    0    0    0 -0.00000000000E+00 -0.00000000000E+00 -0.74505805969E-08  0.93827000000E+00  0.93827000000E+00 0. -1.
     999902    2    1    2    0    0  0.12621765818E-01 -0.11175989973E-01 -0.16884024353E-01  0.10200703688E+01  0.10197912900E+01 0.  0.
     999903    2    3    3    0    0 -0.66022880419E-01  0.10733499606E+00  0.12507893606E-01  0.12816582285E+00  0.19753699013E-01 0.  0.
         14    1    1    2    0    0 -0.12621765818E-01  0.11175989973E-01  0.16884024353E-01  0.23859631233E-01  0.00000000000E+00 0. -1.
     999901    1    3    3    0    0  0.78644646237E-01 -0.11851098604E+00 -0.29391917958E-01  0.89190454592E+00  0.88000000000E+00 0.  1.
        -11    1    4    4    0    0 -0.27792478745E-01  0.60771719218E-01  0.12108078490E-01  0.67915317987E-01  0.51100000000E-03 0.  1.
         11    1    4    4    0    0 -0.38230401674E-01  0.46563276845E-01  0.39981511591E-03  0.60250504860E-01  0.51100000000E-03 0. -1.
</event>
<event>
 8    1  0.1075206E+005  0.1043930E+01  0.7957747E-01            NaN
         13   -1    0    0    0    0  0.00000000000E+00  0.00000000000E+00  0.74505805969E-08  0.10566000000E+00  0.10566000000E+00 0.  1.
     999900   -1    0    0    0    0 -0.00000000000E+00 -0.00000000000E+00 -0.74505805969E-08  0.93827000000E+00  0.93827000000E+00 0.  1.
     999902    2    1    2    0    0 -0.82086743746E-02 -0.21410343803E-01 -0.66685340300E-02  0.10200499978E+01  0.10197704367E+01 0.  0.
     999903    2    3    3    0    0  0.10093166502E+00 -0.72923242500E-01  0.34656226773E-01  0.13085208497E+00  0.20401318230E-01 0.  0.
         14    1    1    2    0    0  0.82086743746E-02  0.21410343803E-01  0.66685340300E-02  0.23880002154E-01  0.00000000000E+00 0.  1.
     999901    1    3    3    0    0 -0.10914033939E+00  0.51512898697E-01 -0.41324760803E-01  0.88919791288E+00  0.88000000000E+00 0.  1.
        -11    1    4    4    0    0  0.98294576575E-01 -0.65101088908E-01  0.31984481024E-01  0.12216072899E+00  0.51100000000E-03 0.  1.
         11    1    4    4    0    0  0.26370884448E-02 -0.78221535921E-02  0.26717457492E-02  0.86913559720E-02  0.51100000000E-03 0. -1.
</event>
<event>
 8    1  0.1075206E+005  0.1043930E+01  0.7957747E-01            NaN
         13   -1    0    0    0    0  0.00000000000E+00  0.00000000000E+00  0.74505805969E-08  0.10566000000E+00  0.10566000000E+00 0. -1.
     999900   -1    0    0    0    0 -0.00000000000E+00 -0.00000000000E+00 -0.74505805969E-08  0.93827000000E+00  0.93827000000E+00 0. -1.
     999902    2    1    2    0    0 -0.16085022085E-01  0.14060181701E-01  0.92549793208E-02  0.10206475756E+01  0.10203819884E+01 0.  0.
     999903    2    3    3    0    0 -0.68578415772E-01 -0.10847776255E+00 -0.10831523134E-01  0.13038100216E+00  0.20284470703E-01 0.  0.
         14    1    1    2    0    0  0.16085022085E-01 -0.14060181701E-01 -0.92549793208E-02  0.23282424427E-01  0.00000000000E+00 0.  1.
     999901    1    3    3    0    0  0.52493393686E-01  0.12253794425E+00  0.20086502454E-01  0.89026657342E+00  0.88000000000E+00 0.  1.
        -11    1    4    4    0    0 -0.23607221152E-01 -0.34605022591E-01  0.58523241162E-02  0.42300346306E-01  0.51100000000E-03 0. -1.
         11    1    4    4    0    0 -0.44971194620E-01 -0.73872739961E-01 -0.16683847250E-01  0.88080655850E-01  0.51100000000E-03 0.  1.
</event>
<event>
 8    1  0.1075206E+005  0.1043930E+01  0.7957747E-01            NaN
         13   -1    0    0    0    0  0.00000000000E+00  0.00000000000E+00  0.74505805969E-08  0.10566000000E+00  0.10566000000E+00 0.  1.
     999900   -1    0    0    0    0 -0.00000000000E+00 -0.00000000000E+00 -0.74505805969E-08  0.93827000000E+00  0.93827000000E+00 0. -1.
     999902    2    1    2    0    0  0.11089025891E-01 -0.45423483826E-02 -0.20689041851E-01  0.10200210921E+01  0.10197408457E+01 0.  0.
     999903    2    3    3    0    0 -0.82212534635E-01 -0.30841575718E-01 -0.95856488712E-01  0.13151280536E+00  0.19926060836E-01 0.  0.
         14    1    1    2    0    0 -0.11089025891E-01  0.45423483826E-02  0.20689041851E-01  0.23908907895E-01  0.00000000000E+00 0.  1.
     999901    1    3    3    0    0  0.93301560525E-01  0.26299227335E-01  0.75167446862E-01  0.88850828675E+00  0.88000000000E+00 0.  1.
        -11    1    4    4    0    0 -0.29784249029E-01 -0.16578296946E-01 -0.49415955847E-01  0.60034483700E-01  0.51100000000E-03 0. -1.
         11    1    4    4    0    0 -0.52428285606E-01 -0.14263278772E-01 -0.46440532865E-01  0.71478321656E-01  0.51100000000E-03 0.  1.
</event>
<event>
 8    1  0.1075206E+005  0.1043930E+01  0.7957747E-01            NaN
         13   -1    0    0    0    0  0.00000000000E+00  0.00000000000E+00  0.74505805969E-08  0.10566000000E+00  0.10566000000E+00 0. -1.
     999900   -1    0    0    0    0 -0.00000000000E+00 -0.00000000000E+00 -0.74505805969E-08  0.93827000000E+00  0.93827000000E+00 0.  1.
     999902    2    1    2    0    0 -0.14825172938E-01 -0.10070672676E-01 -0.68425775506E-02  0.10247460205E+01  0.10245664359E+01 0.  0.
     999903    2    3    3    0    0 -0.13087319681E+00  0.25393534161E-01 -0.17495234350E-01  0.13635515334E+00  0.22671995863E-01 0.  0.
         14    1    1    2    0    0  0.14825172938E-01  0.10070672676E-01  0.68425775506E-02  0.19183979471E-01  0.00000000000E+00 0.  1.
     999901    1    3    3    0    0  0.11604802387E+00 -0.35464206837E-01  0.10652656800E-01  0.88839086719E+00  0.88000000000E+00 0. -1.
        -11    1    4    4    0    0 -0.77976169922E-01  0.92960590594E-02 -0.58332963809E-03  0.78532166558E-01  0.51100000000E-03 0. -1.
         11    1    4    4    0    0 -0.52897026888E-01  0.16097475102E-01 -0.16911904712E-01  0.57822986781E-01  0.51100000000E-03 0.  1.
</event>
<event>
 8    1  0.1075206E+005  0.1043930E+01  0.7957747E-01            NaN
         13   -1    0    0    0    0  0.00000000000E+00  0.00000000000E+00  0.74505805969E-08  0.10566000000E+00  0.10566000000E+00 0. -1.
     999900   -1    0    0    0    0 -0.00000000000E+00 -0.00000000000E+00 -0.74505805969E-08  0.93827000000E+00  0.93827000000E+00 0. -1.
     999902    2    1    2    0    0 -0.66123689583E-02 -0.54676787317E-02 -0.20553068034E-01  0.10216578753E+01  0.10214150805E+01 0.  0.
     999903    2    3    3    0    0  0.48676381109E-01  0.69742308125E-01  0.95140385849E-01  0.12919030540E+00  0.20126161345E-01 0.  0.
         14    1    1    2    0    0  0.66123689583E-02  0.54676787317E-02  0.20553068034E-01  0.22272124720E-01  0.00000000000E+00 0. -1.
     999901    1    3    3    0    0 -0.55288750067E-01 -0.75209986857E-01 -0.11569345388E+00  0.89246756987E+00  0.88000000000E+00 0.  1.
        -11    1    4    4    0    0  0.31480495329E-01  0.31456850250E-01  0.39596797284E-01  0.59571154848E-01  0.51100000000E-03 0. -1.
         11    1    4    4    0    0  0.17195885780E-01  0.38285457875E-01  0.55543588566E-01  0.69619150557E-01  0.51100000000E-03 0.  1.
</event>
<event>
 8    1  0.1075206E+005  0.1043930E+01  0.7957747E-01            NaN
         13   -1    0    0    0    0  0.00000000000E+00  0.00000000000E+00  0.74505805969E-08  0.10566000000E+00  0.10566000000E+00 0. -1.
     999900   -1    0    0    0    0 -0.00000000000E+00 -0.00000000000E+00 -0.74505805969E-08  0.93827000000E+00  0.93827000000E+00 0. -1.
     999902    2    1    2    0    0 -0.80301343003E-02 -0.64642438089E-02 -0.21239038272E-01  0.10203213945E+01  0.10200482253E+01 0.  0.
     999903    2    3    3    0    0 -0.17562972820E-01  0.68772432439E-01 -0.11010062400E+00  0.13260082258E+00  0.20560283718E-01 0.  0.
         14    1    1    2    0    0  0.80301343003E-02  0.64642438089E-02  0.21239038272E-01  0.23608605457E-01  0.00000000000E+00 0. -1.
     999901    1    3    3    0    0  0.95328385195E-02 -0.75236676248E-01  0.88861585728E-01  0.88772057196E+00  0.88000000000E+00 0.  1.
        -11    1    4    4    0    0 -0.72860064861E-02  0.12990367561E-01 -0.38301938738E-01  0.41099089674E-01  0.51100000000E-03 0.  1.
         11    1    4    4    0    0 -0.10276966334E-01  0.55782064878E-01 -0.71798685262E-01  0.91501732909E-01  0.51100000000E-03 0. -1.
</event>
<event>
 8    1  0.1075206E+005  0.1043930E+01  0.7957747E-01            NaN
         13   -1    0    0    0    0  0.00000000000E+00  0.00000000000E+00  0.74505805969E-08  0.10566000000E+00  0.10566000000E+00 0.  1.
     999900   -1    0    0    0    0 -0.00000000000E+00 -0.00000000000E+00 -0.74505805969E-08  0.93827000000E+00  0.93827000000E+00 0.  1.
     999902    2    1    2    0    0 -0.16535094882E-01  0.12150735521E-01 -0.11791683558E-01  0.10202637046E+01  0.10199891830E+01 0.  0.
     999903    2    3    3    0    0 -0.97326760567E-02 -0.22481167770E-01  0.12510588465E+00  0.12898003158E+00  0.19601996923E-01 0.  0.
         14    1    1    2    0    0  0.16535094882E-01 -0.12150735521E-01  0.11791683558E-01  0.23666295392E-01  0.00000000000E+00 0. -1.
     999901    1    3    3    0    0 -0.68024188249E-02  0.34631903291E-01 -0.13689756821E+00  0.89128367303E+00  0.88000000000E+00 0.  1.
        -11    1    4    4    0    0 -0.65824190155E-02 -0.22005458288E-01  0.67866716691E-01  0.71649988067E-01  0.51100000000E-03 0.  1.
         11    1    4    4    0    0 -0.31502570412E-02 -0.47570948170E-03  0.57239167962E-01  0.57330043511E-01  0.51100000000E-03 0. -1.
</event>
<event>
 8    1  0.1075206E+005  0.1043930E+01  0.7957747E-01            NaN
         13   -1    0    0    0    0  0.00000000000E+00  0.00000000000E+00  0.74505805969E-08  0.10566000000E+00  0.10566000000E+00 0.  1.
     999900   -1    0    0    0    0 -0.00000000000E+00 -0.00000000000E+00 -0.74505805969E-08  0.93827000000E+00  0.93827000000E+00 0.  1.
     999902    2    1    2    0    0 -0.21795127114E-01 -0.10152356700E-01 -0.10514493256E-01  0.10176878110E+01  0.10173494131E+01 0.  0.
     999903    2    3    3    0    0 -0.82007867368E-01 -0.59881048763E-01 -0.81128488002E-01  0.13141197749E+00  0.19397060354E-01 0.  0.
         14    1    1    2    0    0  0.21795127114E-01  0.10152356700E-01  0.10514493256E-01  0.26242188950E-01  0.00000000000E+00 0.  1.
     999901    1    3    3    0    0  0.60212740254E-01  0.49728692064E-01  0.70613994746E-01  0.88627583356E+00  0.88000000000E+00 0. -1.
        -11    1    4    4    0    0 -0.54808010026E-01 -0.50191609330E-01 -0.61855682289E-01  0.96692823739E-01  0.51100000000E-03 0. -1.
         11    1    4    4    0    0 -0.27199857342E-01 -0.96894394332E-02 -0.19272805713E-01  0.34719153748E-01  0.51100000000E-03 0.  1.
</event>
<event>
 8    1  0.1075206E+005  0.1043930E+01  0.7957747E-01            NaN
         13   -1    0    0    0    0  0.00000000000E+00  0.00000000000E+00  0.74505805969E-08  0.10566000000E+00  0.10566000000E+00 0.  1.
     999900   -1    0    0    0    0 -0.00000000000E+00 -0.00000000000E+00 -0.74505805969E-08  0.93827000000E+00  0.93827000000E+00 0. -1.
     999902    2    1    2    0    0 -0.21342739706E-01 -0.94528428023E-02  0.10373721259E-02  0.10205645358E+01  0.10202970287E+01 0.  0.
     999903    2    3    3    0    0 -0.70608638361E-01  0.89622244623E-01 -0.61849512234E-01  0.13140889031E+00  0.20620566134E-01 0.  0.
         14    1    1    2    0    0  0.21342739706E-01  0.94528428023E-02 -0.10373721259E-02  0.23365464175E-01  0.00000000000E+00 0. -1.
     999901    1    3    3    0    0  0.49265898655E-01 -0.99075087425E-01  0.62886884360E-01  0.88915564551E+00  0.88000000000E+00 0. -1.
        -11    1    4    4    0    0 -0.20768980660E-01  0.14023967345E-01 -0.94334793012E-02  0.26781969130E-01  0.51100000000E-03 0. -1.
         11    1    4    4    0    0 -0.49839657700E-01  0.75598277278E-01 -0.52416032933E-01  0.10462692118E+00  0.51100000000E-03 0.  1.
</event>
<event>
 8    1  0.1075206E+005  0.1043930E+01  0.7957747E-01            NaN
         13   -1    0    0    0    0  0.00000000000E+00  0.00000000000E+00  0.74505805969E-08  0.10566000000E+00  0.10566000000E+00 0.  1.
     999900   -1    0    0    0    0 -0.00000000000E+00 -0.00000000000E+00 -0.74505805969E-08  0.93827000000E+00  0.93827000000E+00 0. -1.
     999902    2    1    2    0    0 -0.13381847496E-01  0.74976870458E-02  0.18596515747E-01  0.10198235786E+01  0.10195386270E+01 0.  0.
     999903    2    3    3    0    0  0.11590816865E+00 -0.36250530678E-01  0.37351877665E-01  0.12910388174E+00  0.22887660019E-01 0.  0.
         14    1    1    2    0    0  0.13381847496E-01 -0.74976870458E-02 -0.18596515747E-01  0.24106421372E-01  0.00000000000E+00 0. -1.
     999901    1    3    3    0    0 -0.12929001614E+00  0.43748217723E-01 -0.18755361918E-01  0.89071969689E+00  0.88000000000E+00 0.  1.
        -11    1    4    4    0    0  0.70086050264E-01 -0.32812044570E-01  0.27309891281E-01  0.82065680971E-01  0.51100000000E-03 0.  1.
         11    1    4    4    0    0  0.45822118383E-01 -0.34384861075E-02  0.10041986384E-01  0.47038200766E-01  0.51100000000E-03 0. -1.
</event>
<event>
 8    1  0.1075206E+005  0.1043930E+01  0.7957747E-01            NaN
         13   -1    0    0    0    0  0.00000000000E+00  0.00000000000E+00  0.74505805969E-08  0.10566000000E+00  0.10566000000E+00 0.  1.
     999900   -1    0    0    0    0 -0.00000000000E+00 -0.00000000000E+00 -0.74505805969E-08  0.93827000000E+00  0.93827000000E+00 0. -1.
     999902    2    1    2    0    0 -0.17270414129E-01  0.11610150287E-01  0.12520510036E-01  0.10196436671E+01  0.10193543947E+01 0.  0.
     999903    2    3    3    0    0 -0.12788418387E-01  0.12926933758E+00  0.94276063540E-02  0.13179607957E+00  0.20179731025E-01 0.  0.
         14    1    1    2    0    0  0.17270414129E-01 -0.11610150287E-01 -0.12520510036E-01  0.24286332893E-01  0.00000000000E+00 0. -1.
     999901    1    3    3    0    0 -0.44819957421E-02 -0.11765918730E+00  0.30929036819E-02  0.88784758754E+00  0.88000000000E+00 0. -1.
        -11    1    4    4    0    0 -0.97193623805E-02  0.59484196106E-01 -0.49473792989E-02  0.60477874255E-01  0.51100000000E-03 0. -1.
         11    1    4    4    0    0 -0.30690560060E-02  0.69785141478E-01  0.14374985653E-01  0.71318205315E-01  0.51100000000E-03 0.  1.
</event>
<event>
 8    1  0.1075206E+005  0.1043930E+01  0.7957747E-01            NaN
         13   -1    0    0    0    0  0.00000000000E+00  0.00000000000E+00  0.74505805969E-08  0.10566000000E+00  0.10566000000E+00 0. -1.
     999900   -1    0    0    0    0 -0.00000000000E+00 -0.00000000000E+00 -0.74505805969E-08  0.93827000000E+00  0.93827000000E+00 0. -1.
     999902    2    1    2    0    0  0.14191738012E-01  0.94275076456E-02 -0.17388342716E-01  0.10195858469E+01  0.10192951787E+01 0.  0.
     999903    2    3    3    0    0 -0.36176736642E-01 -0.12193557762E+00  0.54692699280E-03  0.12823018426E+00  0.16298455817E-01 0.  0.
         14    1    1    2    0    0 -0.14191738012E-01 -0.94275076456E-02  0.17388342716E-01  0.24344153109E-01  0.00000000000E+00 0. -1.
     999901    1    3    3    0    0  0.50368474654E-01  0.13136308527E+00 -0.17935269708E-01  0.89135566263E+00  0.88000000000E+00 0. -1.
        -11    1    4    4    0    0 -0.30943578075E-01 -0.11193946182E+00  0.46013388522E-02  0.11622986525E+00  0.51100000000E-03 0. -1.
         11    1    4    4    0    0 -0.52331585672E-02 -0.99961158011E-02 -0.40544118594E-02  0.12000319005E-01  0.51100000000E-03 0.  1.
</event>
<event>
 8    1  0.1465654E+005  0.1043930E+01  0.7957747E-01            NaN
         13   -1    0    0    0    0  0.00000000000E+00  0.00000000000E+00  0.74505805969E-08  0.10566000000E+00  0.10566000000E+00 0.  1.
     999900   -1    0    0    0    0 -0.00000000000E+00 -0.00000000000E+00 -0.74505805969E-08  0.93827000000E+00  0.93827000000E+00 0.  1.
     999902    2    1    2    0    0 -0.24902296173E-02 -0.17275631067E-01 -0.17301023195E-01  0.10193541160E+01  0.10190578196E+01 0.  0.
     999903    2    3    3    0    0  0.60968468930E-01 -0.35525327261E-01  0.10533921041E+00  0.12839918741E+00  0.20268176933E-01 0.  0.
         14    1    1    2    0    0  0.24902296173E-02  0.17275631067E-01  0.17301023195E-01  0.24575884031E-01  0.00000000000E+00 0.  1.
     999901    1    3    3    0    0 -0.63458698547E-01  0.18249696194E-01 -0.12264023360E+00  0.89095492856E+00  0.88000000000E+00 0.  1.
        -11    1    4    4    0    0  0.10038126785E-01 -0.96720366559E-02  0.35720347505E-01  0.38347315803E-01  0.51100000000E-03 0. -1.
         11    1    4    4    0    0  0.50930342144E-01 -0.25853290605E-01  0.69618862904E-01  0.90051871603E-01  0.51100000000E-03 0.  1.
</event>
<event>
 8    1  0.1075206E+005  0.1043930E+01  0.7957747E-01            NaN
         13   -1    0    0    0    0  0.00000000000E+00  0.00000000000E+00  0.74505805969E-08  0.10566000000E+00  0.10566000000E+00 0.  1.
     999900   -1    0    0    0    0 -0.00000000000E+00 -0.00000000000E+00 -0.74505805969E-08  0.93827000000E+00  0.93827000000E+00 0.  1.
     999902    2    1    2    0    0 -0.20684113146E-01 -0.77752429132E-02 -0.59852965084E-02  0.10210365356E+01  0.10207798471E+01 0.  0.
     999903    2    3    3    0    0  0.77222850253E-01  0.23317880620E-01 -0.99943186898E-01  0.13009285555E+00  0.20698268044E-01 0.  0.
         14    1    1    2    0    0  0.20684113146E-01  0.77752429132E-02  0.59852965084E-02  0.22893464423E-01  0.00000000000E+00 0.  1.
     999901    1    3    3    0    0 -0.97906963399E-01 -0.31093123534E-01  0.93957890390E-01  0.89094368003E+00  0.88000000000E+00 0. -1.
        -11    1    4    4    0    0  0.35954622488E-01  0.36886391872E-02 -0.32409000125E-01  0.48548381512E-01  0.51100000000E-03 0.  1.
         11    1    4    4    0    0  0.41268227765E-01  0.19629241433E-01 -0.67534186773E-01  0.81544474039E-01  0.51100000000E-03 0. -1.
</event>
<event>
 8    1  0.1075206E+005  0.1043930E+01  0.7957747E-01            NaN
         13   -1    0    0    0    0  0.00000000000E+00  0.00000000000E+00  0.74505805969E-08  0.10566000000E+00  0.10566000000E+00 0.  1.
     999900   -1    0    0    0    0 -0.00000000000E+00 -0.00000000000E+00 -0.74505805969E-08  0.93827000000E+00  0.93827000000E+00 0.  1.
     999902    2    1    2    0    0  0.17345474073E-01 -0.64107503209E-02  0.13861633404E-01  0.10208192218E+01  0.10205575807E+01 0.  0.
     999903    2    3    3    0    0  0.95289027511E-01  0.88677367475E-01  0.14603504267E-01  0.13227125004E+00  0.18405080374E-01 0.  0.
         14    1    1    2    0    0 -0.17345474073E-01  0.64107503209E-02 -0.13861633404E-01  0.23110778246E-01  0.00000000000E+00 0.  1.
     999901    1    3    3    0    0 -0.77943553437E-01 -0.95088117795E-01 -0.74187086250E-03  0.88854797172E+00  0.88000000000E+00 0.  1.
        -11    1    4    4    0    0  0.56924586731E-01  0.64263025865E-01  0.66943308656E-02  0.86111673161E-01  0.51100000000E-03 0. -1.
         11    1    4    4    0    0  0.38364440780E-01  0.24414341609E-01  0.79091734013E-02  0.46159576877E-01  0.51100000000E-03 0.  1.
</event>
<event>
 8    1  0.1075206E+005  0.1043930E+01  0.7957747E-01            NaN
         13   -1    0    0    0    0  0.00000000000E+00  0.00000000000E+00  0.74505805969E-08  0.10566000000E+00  0.10566000000E+00 0. -1.
     999900   -1    0    0    0    0 -0.00000000000E+00 -0.00000000000E+00 -0.74505805969E-08  0.93827000000E+00  0.93827000000E+00 0.  1.
     999902    2    1    2    0    0 -0.54978097394E-02  0.29180792655E-02 -0.28228703372E-01  0.10150232397E+01  0.10146115396E+01 0.  0.
     999903    2    3    3    0    0  0.82059671442E-01  0.93059829210E-01  0.12128923961E-02  0.12560845727E+00  0.19547172182E-01 0.  0.
         14    1    1    2    0    0  0.54978097394E-02 -0.29180792655E-02  0.28228703372E-01  0.28906760327E-01  0.00000000000E+00 0. -1.
     999901    1    3    3    0    0 -0.87557481181E-01 -0.90141749944E-01 -0.29441595769E-01  0.88941478240E+00  0.88000000000E+00 0.  1.
        -11    1    4    4    0    0  0.24785357204E-01  0.42313342491E-01  0.19924248675E-02  0.49081195608E-01  0.51100000000E-03 0. -1.
         11    1    4    4    0    0  0.57274314238E-01  0.50746486719E-01 -0.77953247146E-03  0.76527261663E-01  0.51100000000E-03 0.  1.
</event>
<event>
 8    1  0.1075206E+005  0.1043930E+01  0.7957747E-01            NaN
         13   -1    0    0    0    0  0.00000000000E+00  0.00000000000E+00  0.74505805969E-08  0.10566000000E+00  0.10566000000E+00 0. -1.
     999900   -1    0    0    0    0 -0.00000000000E+00 -0.00000000000E+00 -0.74505805969E-08  0.93827000000E+00  0.93827000000E+00 0. -1.
     999902    2    1    2    0    0  0.23381467346E-01 -0.46229032498E-02 -0.77161833063E-02  0.10188779794E+01  0.10185699452E+01 0.  0.
     999903    2    3    3    0    0 -0.82634202974E-01 -0.37272851405E-01 -0.88574013984E-01  0.12823589068E+00  0.19529740222E-01 0.  0.
         14    1    1    2    0    0 -0.23381467346E-01  0.46229032498E-02  0.77161833063E-02  0.25052020568E-01  0.00000000000E+00 0.  1.
     999901    1    3    3    0    0  0.10601567032E+00  0.32649948155E-01  0.80857830678E-01  0.89064208875E+00  0.88000000000E+00 0.  1.
        -11    1    4    4    0    0 -0.21699349198E-01 -0.18196530507E-02 -0.15765824270E-01  0.26888570597E-01  0.51100000000E-03 0.  1.
         11    1    4    4    0    0 -0.60934853776E-01 -0.35453198354E-01 -0.72808189715E-01  0.10134732009E+00  0.51100000000E-03 0. -1.
</event>
<event>
 8    1  0.1075206E+005  0.1043930E+01  0.7957747E-01            NaN
         13   -1    0    0    0    0  0.00000000000E+00  0.00000000000E+00  0.74505805969E-08  0.10566000000E+00  0.10566000000E+00 0. -1.
     999900   -1    0    0    0    0 -0.00000000000E+00 -0.00000000000E+00 -0.74505805969E-08  0.93827000000E+00  0.93827000000E+00 0.  1.
     999902    2    1    2    0    0  0.12495351992E-02  0.58534933085E-02  0.35178445032E-01  0.10082460019E+01  0.10076143373E+01 0.  0.
     999903    2    3    3    0    0  0.67875221840E-01 -0.34987567201E-01 -0.85771513284E-01  0.11654208990E+00  0.19852723461E-01 0.  0.
         14    1    1    2    0    0 -0.12495351992E-02 -0.58534933085E-02 -0.35178445032E-01  0.35683998052E-01  0.00000000000E+00 0.  1.
     999901    1    3    3    0    0 -0.66625686641E-01  0.40841060510E-01  0.12094995832E+00  0.89170391205E+00  0.88000000000E+00 0. -1.
        -11    1    4    4    0    0  0.15610145503E-01 -0.17678467464E-02 -0.26543881508E-01  0.30848674060E-01  0.51100000000E-03 0.  1.
         11    1    4    4    0    0  0.52265076337E-01 -0.33219720455E-01 -0.59227631776E-01  0.85693415841E-01  0.51100000000E-03 0. -1.
</event>
<event>
 8    1  0.1075206E+005  0.1043930E+01  0.7957747E-01            NaN
         13   -1    0    0    0    0  0.00000000000E+00  0.00000000000E+00  0.74505805969E-08  0.10566000000E+00  0.10566000000E+00 0. -1.
     999900   -1    0    0    0    0 -0.00000000000E+00 -0.00000000000E+00 -0.74505805969E-08  0.93827000000E+00  0.93827000000E+00 0. -1.
     999902    2    1    2    0    0 -0.62864276058E-02 -0.16560454173E-01  0.14692685491E-01  0.10209160299E+01  0.10206566010E+01 0.  0.
     999903    2    3    3    0    0  0.37248977104E-01  0.30411574418E-01 -0.11499819834E+00  0.12910807504E+00  0.33644602326E-01 0.  0.
         14    1    1    2    0    0  0.62864276058E-02  0.16560454173E-01 -0.14692685491E-01  0.23013970136E-01  0.00000000000E+00 0.  1.
     999901    1    3    3    0    0 -0.43535404710E-01 -0.46972028591E-01  0.12969088383E+00  0.89180795482E+00  0.88000000000E+00 0.  1.
        -11    1    4    4    0    0  0.49998441405E-02  0.18933299229E-01 -0.19420647076E-01  0.27584251213E-01  0.51100000000E-03 0. -1.
         11    1    4    4    0    0  0.32249132963E-01  0.11478275189E-01 -0.95577551266E-01  0.10152382383E+00  0.51100000000E-03 0.  1.
</event>
<event>
 8    1  0.1075206E+005  0.1043930E+01  0.7957747E-01            NaN
         13   -1    0    0    0    0  0.00000000000E+00  0.00000000000E+00  0.74505805969E-08  0.10566000000E+00  0.10566000000E+00 0. -1.
     999900   -1    0    0    0    0 -0.00000000000E+00 -0.00000000000E+00 -0.74505805969E-08  0.93827000000E+00  0.93827000000E+00 0. -1.
     999902    2    1    2    0    0  0.13945096727E-01  0.26769802915E-01  0.71692838425E-02  0.10129060302E+01  0.10124308072E+01 0.  0.
     999903    2    3    3    0    0 -0.53839240777E-01  0.10975665542E+00 -0.21608815154E-01  0.12593945075E+00  0.21180583235E-01 0.  0.
         14    1    1    2    0    0 -0.13945096727E-01 -0.26769802915E-01 -0.71692838425E-02  0.31023969792E-01  0.00000000000E+00 0. -1.
     999901    1    3    3    0    0  0.67784337504E-01 -0.82986852502E-01  0.28778098997E-01  0.88696657946E+00  0.88000000000E+00 0.  1.
        -11    1    4    4    0    0 -0.42426935170E-01  0.89586134250E-01 -0.25692628562E-01  0.10240162382E+00  0.51100000000E-03 0.  1.
         11    1    4    4    0    0 -0.11412305607E-01  0.20170521167E-01  0.40838134078E-02  0.23537826926E-01  0.51100000000E-03 0. -1.
</event>
<event>
 8    1  0.1075206E+005  0.1043930E+01  0.7957747E-01            NaN
         13   -1    0    0    0    0  0.00000000000E+00  0.00000000000E+00  0.74505805969E-08  0.10566000000E+00  0.10566000000E+00 0. -1.
     999900   -1    0    0    0    0 -0.00000000000E+00 -0.00000000000E+00 -0.74505805969E-08  0.93827000000E+00  0.93827000000E+00 0.  1.
     999902    2    1    2    0    0 -0.14493322520E-01  0.23547732655E-02  0.18527941240E-01  0.10202892309E+01  0.10200153081E+01 0.  0.
     999903    2    3    3    0    0  0.11478469462E+00 -0.13209308779E-01  0.55990831345E-01  0.12991935584E+00  0.19850790138E-01 0.  0.
         14    1    1    2    0    0  0.14493322520E-01 -0.23547732655E-02 -0.18527941240E-01  0.23640769053E-01  0.00000000000E+00 0.  1.
     999901    1    3    3    0    0 -0.12927801714E+00  0.15564082045E-01 -0.37462890104E-01  0.89036987511E+00  0.88000000000E+00 0.  1.
        -11    1    4    4    0    0  0.39333338681E-01 -0.11366910705E-01  0.12506822190E-01  0.42813548242E-01  0.51100000000E-03 0. -1.
         11    1    4    4    0    0  0.75451355940E-01 -0.18423980741E-02  0.43484009154E-01  0.87105807596E-01  0.51100000000E-03 0.  1.
</event>
<event>
 8    1  0.1075206E+005  0.1043930E+01  0.7957747E-01            NaN
         13   -1    0    0    0    0  0.00000000000E+00  0.00000000000E+00  0.74505805969E-08  0.10566000000E+00  0.10566000000E+00 0.  1.
     999900   -1    0    0    0    0 -0.00000000000E+00 -0.00000000000E+00 -0.74505805969E-08  0.93827000000E+00  0.93827000000E+00 0.  1.
     999902    2    1    2    0    0  0.14165088068E-01  0.14148886711E-02  0.16528485680E-01  0.10221161863E+01  0.10218833866E+01 0.  0.
     999903    2    3    3    0    0 -0.34670792199E-01  0.11002271529E+00  0.62682714318E-01  0.13289696920E+00  0.20625713057E-01 0.  0.
         14    1    1    2    0    0 -0.14165088068E-01 -0.14148886711E-02 -0.16528485680E-01  0.21813813715E-01  0.00000000000E+00 0. -1.
     999901    1    3    3    0    0  0.48835880267E-01 -0.10860782661E+00 -0.46154228639E-01  0.88921921708E+00  0.88000000000E+00 0. -1.
        -11    1    4    4    0    0 -0.15191536394E-01  0.65033458698E-01  0.46054906644E-01  0.81126130656E-01  0.51100000000E-03 0. -1.
         11    1    4    4    0    0 -0.19479255805E-01  0.44989256587E-01  0.16627807674E-01  0.51770838549E-01  0.51100000000E-03 0.  1.
</event>
<event>
 8    1  0.1075206E+005  0.1043930E+01  0.7957747E-01            NaN
         13   -1    0    0    0    0  0.00000000000E+00  0.00000000000E+00  0.74505805969E-08  0.10566000000E+00  0.10566000000E+00 0.  1.
     999900   -1    0    0    0    0 -0.00000000000E+00 -0.00000000000E+00 -0.74505805969E-08  0.93827000000E+00  0.93827000000E+00 0. -1.
     999902    2    1    2    0    0  0.15167461355E-01  0.13444950305E-01 -0.12118965116E-01  0.10203145837E+01  0.10200412549E+01 0.  0.
     999903    2    3    3    0    0  0.56184925411E-01 -0.11504100013E+00  0.67095599460E-02  0.12983966254E+00  0.20546099875E-01 0.  0.
         14    1    1    2    0    0 -0.15167461355E-01 -0.13444950305E-01  0.12118965116E-01  0.23615416323E-01  0.00000000000E+00 0.  1.
     999901    1    3    3    0    0 -0.41017464057E-01  0.12848595043E+00 -0.18828525062E-01  0.89047492114E+00  0.88000000000E+00 0. -1.
        -11    1    4    4    0    0  0.45397315374E-01 -0.89334590290E-01  0.13574243444E-01  0.10112421308E+00  0.51100000000E-03 0.  1.
         11    1    4    4    0    0  0.10787610038E-01 -0.25706409838E-01 -0.68646834976E-02  0.28715449459E-01  0.51100000000E-03 0. -1.
</event>
<event>
 7    1  0.1075206E+005  0.1043930E+01  0.7957747E-01            NaN
         13   -1    0    0    0    0  0.00000000000E+00  0.00000000000E+00  0.74505805969E-08  0.10566000000E+00  0.10566000000E+00 0. -1.
     999900   -1    0    0    0    0 -0.00000000000E+00 -0.00000000000E+00 -0.74505805969E-08  0.93827000000E+00  0.93827000000E+00 0. -1.
     999903    2    1    2    0    0  0.50042583334E-01  0.84467093058E-01  0.54848530047E-01  0.11430373581E+00  0.20445850808E-01 0.  0.
         14    1    1    2    0    0  0.23014463111E-01  0.26501101505E-01 -0.16613353705E-01  0.38832684875E-01  0.00000000000E+00 0.  1.
     999901    1    1    2    0    0 -0.73057046445E-01 -0.11096819456E+00 -0.38235176342E-01  0.89079357932E+00  0.88000000000E+00 0. -1.
        -11    1    3    3    0    0  0.33654580625E-01  0.71888585135E-01  0.46654666813E-01  0.92073440938E-01  0.51100000000E-03 0. -1.
         11    1    3    3    0    0  0.16388002709E-01  0.12578507924E-01  0.81938632339E-02  0.22230294872E-01  0.51100000000E-03 0.  1.
</event>
<event>
 8    1  0.1075206E+005  0.1043930E+01  0.7957747E-01            NaN
         13   -1    0    0    0    0  0.00000000000E+00  0.00000000000E+00  0.74505805969E-08  0.10566000000E+00  0.10566000000E+00 0. -1.
     999900   -1    0    0    0    0 -0.00000000000E+00 -0.00000000000E+00 -0.74505805969E-08  0.93827000000E+00  0.93827000000E+00 0. -1.
     999902    2    1    2    0    0  0.68473855361E-02  0.14534555259E-01 -0.17615022654E-01  0.10200882507E+01  0.10198095951E+01 0.  0.
     999903    2    3    3    0    0 -0.91866710946E-02  0.98976028454E-01  0.81670944652E-01  0.13034381738E+00  0.20945605623E-01 0.  0.
         14    1    1    2    0    0 -0.68473855361E-02 -0.14534555259E-01  0.17615022654E-01  0.23841749272E-01  0.00000000000E+00 0.  1.
     999901    1    3    3    0    0  0.16034056631E-01 -0.84441473195E-01 -0.99285967306E-01  0.88974443335E+00  0.88000000000E+00 0. -1.
        -11    1    4    4    0    0 -0.21626043233E-06  0.64049635937E-01  0.62328866925E-01  0.89372840600E-01  0.51100000000E-03 0.  1.
         11    1    4    4    0    0 -0.91864548342E-02  0.34926392517E-01  0.19342077727E-01  0.40970976782E-01  0.51100000000E-03 0. -1.
</event>
<event>
 8    1  0.1075206E+005  0.1043930E+01  0.7957747E-01            NaN
         13   -1    0    0    0    0  0.00000000000E+00  0.00000000000E+00  0.74505805969E-08  0.10566000000E+00  0.10566000000E+00 0.  1.
     999900   -1    0    0    0    0 -0.00000000000E+00 -0.00000000000E+00 -0.74505805969E-08  0.93827000000E+00  0.93827000000E+00 0.  1.
     999902    2    1    2    0    0 -0.76758393353E-03  0.14499509222E-01  0.18877204647E-01  0.10201145889E+01  0.10198365558E+01 0.  0.
     999903    2    3    3    0    0  0.12419493619E-02  0.10736984486E+00 -0.71344729618E-01  0.13063781294E+00  0.21126800581E-01 0.  0.
         14    1    1    2    0    0  0.76758393353E-03 -0.14499509222E-01 -0.18877204647E-01  0.23815411146E-01  0.00000000000E+00 0.  1.
     999901    1    3    3    0    0 -0.20095332954E-02 -0.92870335637E-01  0.90221934264E-01  0.88947677591E+00  0.88000000000E+00 0. -1.
        -11    1    4    4    0    0  0.63796841366E-02  0.16284788763E-01 -0.17270882609E-01  0.24585345672E-01  0.51100000000E-03 0.  1.
         11    1    4    4    0    0 -0.51377347747E-02  0.91085056096E-01 -0.54073847008E-01  0.10605246727E+00  0.51100000000E-03 0. -1.
</event>
<event>
 8    1  0.1075206E+005  0.1043930E+01  0.7957747E-01            NaN
         13   -1    0    0    0    0  0.00000000000E+00  0.00000000000E+00  0.74505805969E-08  0.10566000000E+00  0.10566000000E+00 0.  1.
     999900   -1    0    0    0    0 -0.00000000000E+00 -0.00000000000E+00 -0.74505805969E-08  0.93827000000E+00  0.93827000000E+00 0. -1.
     999902    2    1    2    0    0  0.13695223836E-01 -0.19485771989E-01  0.20814418459E-02  0.10200221171E+01  0.10197418950E+01 0.  0.
     999903    2    3    3    0    0 -0.58523659481E-01 -0.11518270657E+00 -0.15619552905E-01  0.13171654149E+00  0.20327377035E-01 0.  0.
         14    1    1    2    0    0 -0.13695223836E-01  0.19485771989E-01 -0.20814418459E-02  0.23907882927E-01  0.00000000000E+00 0. -1.
     999901    1    3    3    0    0  0.72218883317E-01  0.95696934582E-01  0.17700994751E-01  0.88830557558E+00  0.88000000000E+00 0. -1.
        -11    1    4    4    0    0 -0.22292553739E-01 -0.54811395220E-01 -0.16024065398E-01  0.61304802349E-01  0.51100000000E-03 0. -1.
         11    1    4    4    0    0 -0.36231105743E-01 -0.60371311351E-01  0.40451249264E-03  0.70411739141E-01  0.51100000000E-03 0.  1.
</event>
<event>
 8    1  0.1075206E+005  0.1043930E+01  0.7957747E-01            NaN
         13   -1    0    0    0    0  0.00000000000E+00  0.00000000000E+00  0.74505805969E-08  0.10566000000E+00  0.10566000000E+00 0. -1.
     999900   -1    0    0    0    0 -0.00000000000E+00 -0.00000000000E+00 -0.74505805969E-08  0.93827000000E+00  0.93827000000E+00 0. -1.
     999902    2    1    2    0    0 -0.17472489563E-01 -0.12626887731E-02 -0.15216191328E-01  0.10207262341E+01  0.10204624590E+01 0.  0.
     999903    2    3    3    0    0  0.27138929490E-01 -0.11676832734E+00  0.46107434706E-01  0.12994437618E+00  0.19704862407E-01 0.  0.
         14    1    1    2    0    0  0.17472489563E-01  0.12626887731E-02  0.15216191328E-01  0.23203765923E-01  0.00000000000E+00 0. -1.
     999901    1    3    3    0    0 -0.44611419053E-01  0.11550563856E+00 -0.61323626035E-01  0.89078185790E+00  0.88000000000E+00 0. -1.
        -11    1    4    4    0    0  0.18103939240E-01 -0.55801131530E-01  0.31555084548E-01  0.66614588326E-01  0.51100000000E-03 0.  1.
         11    1    4    4    0    0  0.90349902502E-02 -0.60967195807E-01  0.14552350159E-01  0.63329787853E-01  0.51100000000E-03 0. -1.
</event>
<event>
 8    1  0.1075206E+005  0.1043930E+01  0.7957747E-01            NaN
         13   -1    0    0    0    0  0.00000000000E+00  0.00000000000E+00  0.74505805969E-08  0.10566000000E+00  0.10566000000E+00 0.  1.
     999900   -1    0    0    0    0 -0.00000000000E+00 -0.00000000000E+00 -0.74505805969E-08  0.93827000000E+00  0.93827000000E+00 0. -1.
     999902    2    1    2    0    0 -0.53556362999E-02  0.67062841425E-02  0.22983801258E-01  0.10193961009E+01  0.10191008283E+01 0.  0.
     999903    2    3    3    0    0 -0.27361441719E-01  0.12555839682E+00 -0.10027776671E-01  0.13052049401E+00  0.20530064447E-01 0.  0.
         14    1    1    2    0    0  0.53556362999E-02 -0.67062841425E-02 -0.22983801258E-01  0.24533899148E-01  0.00000000000E+00 0. -1.
     999901    1    3    3    0    0  0.22005805419E-01 -0.11885211268E+00  0.33011577929E-01  0.88887560684E+00  0.88000000000E+00 0. -1.
        -11    1    4    4    0    0 -0.20657493655E-01  0.95081554119E-01  0.13251864271E-02  0.97310077679E-01  0.51100000000E-03 0. -1.
         11    1    4    4    0    0 -0.67039480636E-02  0.30476842703E-01 -0.11352963098E-01  0.33210416331E-01  0.51100000000E-03 0.  1.
</event>
<event>
 8    1  0.1075206E+005  0.1043930E+01  0.7957747E-01            NaN
         13   -1    0    0    0    0  0.00000000000E+00  0.00000000000E+00  0.74505805969E-08  0.10566000000E+00  0.10566000000E+00 0.  1.
     999900   -1    0    0    0    0 -0.00000000000E+00 -0.00000000000E+00 -0.74505805969E-08  0.93827000000E+00  0.93827000000E+00 0.  1.
     999902    2    1    2    0    0  0.26135392610E-02 -0.20669430409E-01  0.11157273400E-01  0.10202965345E+01  0.10200227829E+01 0.  0.
     999903    2    3    3    0    0  0.10729324355E+00 -0.72497076139E-01 -0.17724791907E-01  0.13210842435E+00  0.19256203541E-01 0.  0.
         14    1    1    2    0    0 -0.26135392610E-02  0.20669430409E-01 -0.11157273400E-01  0.23633465481E-01  0.00000000000E+00 0.  1.
     999901    1    3    3    0    0 -0.10467970429E+00  0.51827645729E-01  0.28882065307E-01  0.88818811017E+00  0.88000000000E+00 0. -1.
        -11    1    4    4    0    0  0.73518299109E-01 -0.41699538099E-01 -0.50524768344E-02  0.84673374946E-01  0.51100000000E-03 0.  1.
         11    1    4    4    0    0  0.33774944444E-01 -0.30797538039E-01 -0.12672315072E-01  0.47435049402E-01  0.51100000000E-03 0. -1.
</event>
<event>
 7    1  0.1226341E+005  0.1043930E+01  0.7957747E-01            NaN
         13   -1    0    0    0    0  0.00000000000E+00  0.00000000000E+00  0.74505805969E-08  0.10566000000E+00  0.10566000000E+00 0.  1.
     999900   -1    0    0    0    0 -0.00000000000E+00 -0.00000000000E+00 -0.74505805969E-08  0.93827000000E+00  0.93827000000E+00 0.  1.
     999903    2    1    2    0    0 -0.33253132717E-02 -0.10138778391E+00 -0.48948723309E-01  0.11446654959E+00  0.20397868220E-01 0.  0.
         14    1    1    2    0    0  0.38084641837E-01  0.10383641792E-01  0.18421849136E-01  0.43561731903E-01  0.00000000000E+00 0.  1.
     999901    1    1    2    0    0 -0.34759328566E-01  0.91004142115E-01  0.30526874173E-01  0.88590171851E+00  0.88000000000E+00 0. -1.
        -11    1    3    3    0    0  0.60661515880E-02 -0.76021834654E-01 -0.33350595133E-01  0.83238457795E-01  0.51100000000E-03 0.  1.
         11    1    3    3    0    0 -0.93914648597E-02 -0.25365949253E-01 -0.15598128176E-01  0.31228091797E-01  0.51100000000E-03 0. -1.
</event>
<event>
 8    1  0.1075206E+005  0.1043930E+01  0.7957747E-01            NaN
         13   -1    0    0    0    0  0.00000000000E+00  0.00000000000E+00  0.74505805969E-08  0.10566000000E+00  0.10566000000E+00 0. -1.
     999900   -1    0    0    0    0 -0.00000000000E+00 -0.00000000000E+00 -0.74505805969E-08  0.93827000000E+00  0.93827000000E+00 0. -1.
     999902    2    1    2    0    0  0.36186644832E-02 -0.48969291463E-02 -0.20570439113E-01  0.10224773169E+01  0.10222522418E+01 0.  0.
     999903    2    3    3    0    0  0.90203427642E-01  0.72895987024E-01 -0.64164283900E-01  0.13374277703E+00  0.17877130564E-01 0.  0.
         14    1    1    2    0    0 -0.36186644832E-02  0.48969291463E-02  0.20570439113E-01  0.21452683119E-01  0.00000000000E+00 0. -1.
     999901    1    3    3    0    0 -0.86584763159E-01 -0.77792916170E-01  0.43593844786E-01  0.88873453985E+00  0.88000000000E+00 0.  1.
        -11    1    4    4    0    0  0.27610596390E-01  0.18679415311E-01 -0.27330246702E-01  0.43109965149E-01  0.51100000000E-03 0. -1.
         11    1    4    4    0    0  0.62592831252E-01  0.54216571713E-01 -0.36834037198E-01  0.90632811883E-01  0.51100000000E-03 0.  1.
</event>
<event>
 8    1  0.1075206E+005  0.1043930E+01  0.7957747E-01            NaN
         13   -1    0    0    0    0  0.00000000000E+00  0.00000000000E+00  0.74505805969E-08  0.10566000000E+00  0.10566000000E+00 0.  1.
     999900   -1    0    0    0    0 -0.00000000000E+00 -0.00000000000E+00 -0.74505805969E-08  0.93827000000E+00  0.93827000000E+00 0.  1.
     999902    2    1    2    0    0  0.16131709725E-01  0.84967441306E-02 -0.13551946918E-02  0.10256471317E+01  0.10254841664E+01 0.  0.
     999903    2    3    3    0    0 -0.54029177837E-01 -0.26327289194E-01  0.11825653808E+00  0.13410788411E+00  0.19698669133E-01 0.  0.
         14    1    1    2    0    0 -0.16131709725E-01 -0.84967441306E-02  0.13551946918E-02  0.18282868268E-01  0.00000000000E+00 0. -1.
     999901    1    3    3    0    0  0.70160887562E-01  0.34824033325E-01 -0.11961173278E+00  0.89153924763E+00  0.88000000000E+00 0.  1.
        -11    1    4    4    0    0 -0.26974004923E-01 -0.22987039456E-01  0.75369970769E-01  0.83288021584E-01  0.51100000000E-03 0.  1.
         11    1    4    4    0    0 -0.27055172914E-01 -0.33402497378E-02  0.42886567315E-01  0.50819862522E-01  0.51100000000E-03 0. -1.
</event>
<event>
 8    1  0.1075206E+005  0.1043930E+01  0.7957747E-01            NaN
         13   -1    0    0    0    0  0.00000000000E+00  0.00000000000E+00  0.74505805969E-08  0.10566000000E+00  0.10566000000E+00 0.  1.
     999900   -1    0    0    0    0 -0.00000000000E+00 -0.00000000000E+00 -0.74505805969E-08  0.93827000000E+00  0.93827000000E+00 0. -1.
     999902    2    1    2    0    0  0.19630190101E-01 -0.53917077525E-02 -0.12233536431E-01  0.10201797518E+01  0.10199032560E+01 0.  0.
     999903    2    3    3    0    0  0.16063587268E-01  0.94913393207E-01  0.84093136607E-01  0.12925177386E+00  0.19177444470E-01 0.  0.
         14    1    1    2    0    0 -0.19630190101E-01  0.53917077525E-02  0.12233536431E-01  0.23750248199E-01  0.00000000000E+00 0. -1.
     999901    1    3    3    0    0  0.35666028327E-02 -0.10030510096E+00 -0.96326673038E-01  0.89092797794E+00  0.88000000000E+00 0. -1.
        -11    1    4    4    0    0  0.47246004415E-02  0.70373829784E-01  0.66874798879E-01  0.97197209908E-01  0.51100000000E-03 0.  1.
         11    1    4    4    0    0  0.11338986827E-01  0.24539563423E-01  0.17218337729E-01  0.32054563955E-01  0.51100000000E-03 0. -1.
</event>
<event>
 8    1  0.1075206E+005  0.1043930E+01  0.7957747E-01            NaN
         13   -1    0    0    0    0  0.00000000000E+00  0.00000000000E+00  0.74505805969E-08  0.10566000000E+00  0.10566000000E+00 0. -1.
     999900   -1    0    0    0    0 -0.00000000000E+00 -0.00000000000E+00 -0.74505805969E-08  0.93827000000E+00  0.93827000000E+00 0. -1.
     999902    2    1    2    0    0 -0.96692295901E-03  0.20996386086E-01 -0.10467201998E-01  0.10204492529E+01  0.10201790687E+01 0.  0.
     999903    2    3    3    0    0  0.14204106796E-01  0.11676016773E+00  0.57407478345E-01  0.13252592607E+00  0.20804064338E-01 0.  0.
         14    1    1    2    0    0  0.96692295901E-03 -0.20996386086E-01  0.10467201998E-01  0.23480747143E-01  0.00000000000E+00 0. -1.
     999901    1    3    3    0    0 -0.15171029755E-01 -0.95763781644E-01 -0.67874680343E-01  0.88792332679E+00  0.88000000000E+00 0.  1.
        -11    1    4    4    0    0  0.64359866479E-02  0.76272410010E-02  0.38304420550E-02  0.10701875385E-01  0.51100000000E-03 0. -1.
         11    1    4    4    0    0  0.77681201480E-02  0.10913292673E+00  0.53577036290E-01  0.12182405069E+00  0.51100000000E-03 0.  1.
</event>
<event>
 8    1  0.1075206E+005  0.1043930E+01  0.7957747E-01            NaN
         13   -1    0    0    0    0  0.00000000000E+00  0.00000000000E+00  0.74505805969E-08  0.10566000000E+00  0.10566000000E+00 0. -1.
     999900   -1    0    0    0    0 -0.00000000000E+00 -0.00000000000E+00 -0.74505805969E-08  0.93827000000E+00  0.93827000000E+00 0.  1.
     999902    2    1    2    0    0 -0.89599453380E-02 -0.79701803516E-03  0.21891250130E-01  0.10202626662E+01  0.10199881202E+01 0.  0.
     999903    2    3    3    0    0 -0.35480450053E-01  0.12422163046E+00 -0.37689300293E-02  0.13066082013E+00  0.19187737535E-01 0.  0.
         14    1    1    2    0    0  0.89599453380E-02  0.79701803516E-03 -0.21891250130E-01  0.23667333826E-01  0.00000000000E+00 0.  1.
     999901    1    3    3    0    0  0.26520504715E-01 -0.12501864850E+00  0.25660180159E-01  0.88960184605E+00  0.88000000000E+00 0. -1.
        -11    1    4    4    0    0 -0.21832375120E-01  0.10351232897E+00 -0.36258650966E-02  0.10585302485E+00  0.51100000000E-03 0. -1.
         11    1    4    4    0    0 -0.13648074933E-01  0.20709301497E-01 -0.14306493269E-03  0.24807795276E-01  0.51100000000E-03 0.  1.
</event>
<event>
 8    1  0.1075206E+005  0.1043930E+01  0.7957747E-01            NaN
         13   -1    0    0    0    0  0.00000000000E+00  0.00000000000E+00  0.74505805969E-08  0.10566000000E+00  0.10566000000E+00 0.  1.
     999900   -1    0    0    0    0 -0.00000000000E+00 -0.00000000000E+00 -0.74505805969E-08  0.93827000000E+00  0.93827000000E+00 0. -1.
     999902    2    1    2    0    0 -0.12310905861E-01  0.15184036943E-01 -0.10217237357E-01  0.10218731344E+01  0.10216350608E+01 0.  0.
     999903    2    3    3    0    0  0.70740328263E-01  0.10393980975E+00  0.31808549251E-01  0.13252434937E+00  0.27262451745E-01 0.  0.
         14    1    1    2    0    0  0.12310905861E-01 -0.15184036943E-01  0.10217237357E-01  0.22056865602E-01  0.00000000000E+00 0. -1.
     999901    1    3    3    0    0 -0.83051234124E-01 -0.88755772811E-01 -0.42025786608E-01  0.88934878503E+00  0.88000000000E+00 0. -1.
        -11    1    4    4    0    0  0.34100012511E-01  0.71666881749E-01  0.25065145697E-01  0.83231457050E-01  0.51100000000E-03 0. -1.
         11    1    4    4    0    0  0.36640315752E-01  0.32272928004E-01  0.67434035540E-02  0.49292892316E-01  0.51100000000E-03 0.  1.
</event>
<event>
 8    1  0.1075206E+005  0.1043930E+01  0.7957747E-01            NaN
         13   -1    0    0    0    0  0.00000000000E+00  0.00000000000E+00  0.74505805969E-08  0.10566000000E+00  0.10566000000E+00 0.  1.
     999900   -1    0    0    0    0 -0.00000000000E+00 -0.00000000000E+00 -0.74505805969E-08  0.93827000000E+00  0.93827000000E+00 0.  1.
     999902    2    1    2    0    0  0.47018428742E-02 -0.22233945859E-01  0.61721167226E-02  0.10203810998E+01  0.10201093266E+01 0.  0.
     999903    2    3    3    0    0 -0.50866695854E-01  0.93475819923E-01  0.69760516567E-01  0.12879818332E+00  0.19932202547E-01 0.  0.
         14    1    1    2    0    0 -0.47018428742E-02  0.22233945859E-01 -0.61721167226E-02  0.23548900180E-01  0.00000000000E+00 0. -1.
     999901    1    3    3    0    0  0.55568538728E-01 -0.11570976578E+00 -0.63588399845E-01  0.89158291650E+00  0.88000000000E+00 0.  1.
        -11    1    4    4    0    0 -0.85364973011E-02  0.16734062508E-01  0.39659161218E-02  0.19206515714E-01  0.51100000000E-03 0.  1.
         11    1    4    4    0    0 -0.42330198553E-01  0.76741757415E-01  0.65794600445E-01  0.10959166761E+00  0.51100000000E-03 0. -1.
</event>
<event>
 8    1  0.1075206E+005  0.1043930E+01  0.7957747E-01            NaN
         13   -1    0    0    0    0  0.00000000000E+00  0.00000000000E+00  0.74505805969E-08  0.10566000000E+00  0.10566000000E+00 0. -1.
     999900   -1    0    0    0    0 -0.00000000000E+00 -0.00000000000E+00 -0.74505805969E-08  0.93827000000E+00  0.93827000000E+00 0. -1.
     999902    2    1    2    0    0 -0.57277197372E-02  0.24308302551E-01  0.66226751668E-02  0.10180928142E+01  0.10177649130E+01 0.  0.
     999903    2    3    3    0    0  0.12238588671E+00 -0.10362609644E-01  0.29323617124E-01  0.12785099247E+00  0.20007818672E-01 0.  0.
         14    1    1    2    0    0  0.57277197372E-02 -0.24308302551E-01 -0.66226751668E-02  0.25837185850E-01  0.00000000000E+00 0.  1.
     999901    1    3    3    0    0 -0.12811360645E+00  0.34670912195E-01 -0.22700941957E-01  0.89024182168E+00  0.88000000000E+00 0.  1.
        -11    1    4    4    0    0  0.84712538758E-01 -0.29852972493E-02  0.11570263119E-01  0.85552664085E-01  0.51100000000E-03 0.  1.
         11    1    4    4    0    0  0.37673347955E-01 -0.73773123951E-02  0.17753354005E-01  0.42298328380E-01  0.51100000000E-03 0. -1.
</event>
<event>
 8    1  0.1075206E+005  0.1043930E+01  0.7957747E-01            NaN
         13   -1    0    0    0    0  0.00000000000E+00  0.00000000000E+00  0.74505805969E-08  0.10566000000E+00  0.10566000000E+00 0. -1.
     999900   -1    0    0    0    0 -0.00000000000E+00 -0.00000000000E+00 -0.74505805969E-08  0.93827000000E+00  0.93827000000E+00 0. -1.
     999902    2    1    2    0    0  0.17548108674E-01  0.11993179136E-01  0.12714937134E-01  0.10191622369E+01  0.10188612383E+01 0.  0.
     999903    2    3    3    0    0  0.97524431486E-01 -0.58633293776E-01  0.62451782038E-01  0.13132325112E+00  0.19917161684E-01 0.  0.
         14    1    1    2    0    0 -0.17548108674E-01 -0.11993179136E-01 -0.12714937134E-01  0.24767763124E-01  0.00000000000E+00 0.  1.
     999901    1    3    3    0    0 -0.79976322812E-01  0.70626472911E-01 -0.49736844904E-01  0.88783898576E+00  0.88000000000E+00 0. -1.
        -11    1    4    4    0    0  0.40564183168E-01 -0.13372595541E-01  0.21178838982E-01  0.47676866604E-01  0.51100000000E-03 0.  1.
         11    1    4    4    0    0  0.56960248318E-01 -0.45260698235E-01  0.41272943056E-01  0.83646384517E-01  0.51100000000E-03 0. -1.
</event>
<event>
 8    1  0.1075206E+005  0.1043930E+01  0.7957747E-01            NaN
         13   -1    0    0    0    0  0.00000000000E+00  0.00000000000E+00  0.74505805969E-08  0.10566000000E+00  0.10566000000E+00 0. -1.
     999900   -1    0    0    0    0 -0.00000000000E+00 -0.00000000000E+00 -0.74505805969E-08  0.93827000000E+00  0.93827000000E+00 0. -1.
     999902    2    1    2    0    0 -0.12578118758E-01 -0.40048612814E-02  0.20729427658E-01  0.10193544602E+01  0.10190581722E+01 0.  0.
     999903    2    3    3    0    0  0.67759308692E-01 -0.82723861249E-01 -0.67075387956E-01  0.12786106771E+00  0.20366242484E-01 0.  0.
         14    1    1    2    0    0  0.12578118758E-01  0.40048612814E-02 -0.20729427658E-01  0.24575539798E-01  0.00000000000E+00 0.  1.
     999901    1    3    3    0    0 -0.80337427450E-01  0.78718999968E-01  0.87804815614E-01  0.89149339249E+00  0.88000000000E+00 0.  1.
        -11    1    4    4    0    0  0.44359538963E-01 -0.38369365906E-01 -0.34223232027E-01  0.67907787981E-01  0.51100000000E-03 0.  1.
         11    1    4    4    0    0  0.23399769729E-01 -0.44354495343E-01 -0.32852155929E-01  0.59953279733E-01  0.51100000000E-03 0. -1.
</event>
<event>
 8    1  0.1075206E+005  0.1043930E+01  0.7957747E-01            NaN
         13   -1    0    0    0    0  0.00000000000E+00  0.00000000000E+00  0.74505805969E-08  0.10566000000E+00  0.10566000000E+00 0.  1.
     999900   -1    0    0    0    0 -0.00000000000E+00 -0.00000000000E+00 -0.74505805969E-08  0.93827000000E+00  0.93827000000E+00 0. -1.
     999902    2    1    2    0    0 -0.20933642937E-01  0.79266669055E-02 -0.91697119309E-02  0.10197404760E+01  0.10194535327E+01 0.  0.
     999903    2    3    3    0    0 -0.22161552015E-01 -0.55619135946E-01  0.11257524018E+00  0.12908823736E+00  0.20148589319E-01 0.  0.
         14    1    1    2    0    0  0.20933642937E-01 -0.79266669055E-02  0.91697119309E-02  0.24189524008E-01  0.00000000000E+00 0.  1.
     999901    1    3    3    0    0  0.12279090776E-02  0.63545802851E-01 -0.12174495211E+00  0.89065223863E+00  0.88000000000E+00 0. -1.
        -11    1    4    4    0    0 -0.19819728203E-01 -0.47393287354E-01  0.77494566516E-01  0.92976417832E-01  0.51100000000E-03 0.  1.
         11    1    4    4    0    0 -0.23418238117E-02 -0.82258485925E-02  0.35080673662E-01  0.36111819525E-01  0.51100000000E-03 0. -1.
</event>
<event>
 8    1  0.1075206E+005  0.1043930E+01  0.7957747E-01            NaN
         13   -1    0    0    0    0  0.00000000000E+00  0.00000000000E+00  0.74505805969E-08  0.10566000000E+00  0.10566000000E+00 0. -1.
     999900   -1    0    0    0    0 -0.00000000000E+00 -0.00000000000E+00 -0.74505805969E-08  0.93827000000E+00  0.93827000000E+00 0. -1.
     999902    2    1    2    0    0  0.89059748409E-02  0.41714271405E-02 -0.21753663209E-01  0.10200566036E+01  0.10197771990E+01 0.  0.
     999903    2    3    3    0    0 -0.48680806338E-01 -0.11467590076E+00  0.26391177487E-01  0.12890069671E+00  0.19962771410E-01 0.  0.
         14    1    1    2    0    0 -0.89059748409E-02 -0.41714271405E-02  0.21753663209E-01  0.23873396392E-01  0.00000000000E+00 0. -1.
     999901    1    3    3    0    0  0.57586781179E-01  0.11884732790E+00 -0.48144840697E-01  0.89115590690E+00  0.88000000000E+00 0. -1.
        -11    1    4    4    0    0 -0.11587746181E-01 -0.51288461056E-01  0.80043161886E-02  0.53189400238E-01  0.51100000000E-03 0. -1.
         11    1    4    4    0    0 -0.37093060157E-01 -0.63387439703E-01  0.18386861299E-01  0.75711296471E-01  0.51100000000E-03 0.  1.
</event>
<event>
 8    1  0.1075206E+005  0.1043930E+01  0.7957747E-01            NaN
         13   -1    0    0    0    0  0.00000000000E+00  0.00000000000E+00  0.74505805969E-08  0.10566000000E+00  0.10566000000E+00 0. -1.
     999900   -1    0    0    0    0 -0.00000000000E+00 -0.00000000000E+00 -0.74505805969E-08  0.93827000000E+00  0.93827000000E+00 0.  1.
     999902    2    1    2    0    0  0.13941479584E-01 -0.48290386664E-02  0.18684782026E-01  0.10201223217E+01  0.10198444713E+01 0.  0.
     999903    2    3    3    0    0  0.21051633090E-01 -0.59603291778E-01 -0.11063788922E+00  0.12895728288E+00  0.19837203215E-01 0.  0.
         14    1    1    2    0    0 -0.13941479584E-01  0.48290386664E-02 -0.18684782026E-01  0.23807678316E-01  0.00000000000E+00 0.  1.
     999901    1    3    3    0    0 -0.71101535064E-02  0.54774253111E-01  0.12932267124E+00  0.89116503880E+00  0.88000000000E+00 0. -1.
        -11    1    4    4    0    0  0.30542366616E-02 -0.10390154737E-01 -0.37144676477E-01  0.38694596375E-01  0.51100000000E-03 0. -1.
         11    1    4    4    0    0  0.17997396428E-01 -0.49213137041E-01 -0.73493212739E-01  0.90262686506E-01  0.51100000000E-03 0.  1.
</event>
<event>
 8    1  0.1075206E+005  0.1043930E+01  0.7957747E-01            NaN
         13   -1    0    0    0    0  0.00000000000E+00  0.00000000000E+00  0.74505805969E-08  0.10566000000E+00  0.10566000000E+00 0. -1.
     999900   -1    0    0    0    0 -0.00000000000E+00 -0.00000000000E+00 -0.74505805969E-08  0.93827000000E+00  0.93827000000E+00 0. -1.
     999902    2    1    2    0    0  0.13375064730E-01 -0.14346533575E-01 -0.13367997487E-01  0.10201935567E+01  0.10199173861E+01 0.  0.
     999903    2    3    3    0    0  0.84692071828E-01 -0.93319107121E-01  0.34702016929E-01  0.13248104180E+00  0.21582253691E-01 0.  0.
         14    1    1    2    0    0 -0.13375064730E-01  0.14346533575E-01  0.13367997487E-01  0.23736443267E-01  0.00000000000E+00 0. -1.
     999901    1    3    3    0    0 -0.71317007098E-01  0.78972573546E-01 -0.48070014417E-01  0.88771251493E+00  0.88000000000E+00 0.  1.
        -11    1    4    4    0    0  0.53054598174E-01 -0.43745710924E-01  0.14340782421E-01  0.70245261570E-01  0.51100000000E-03 0. -1.
         11    1    4    4    0    0  0.31637473654E-01 -0.49573396197E-01  0.20361234508E-01  0.62235780235E-01  0.51100000000E-03 0.  1.
</event>
<event>
 8    1  0.1075206E+005  0.1043930E+01  0.7957747E-01            NaN
         13   -1    0    0    0    0  0.00000000000E+00  0.00000000000E+00  0.74505805969E-08  0.10566000000E+00  0.10566000000E+00 0. -1.
     999900   -1    0    0    0    0 -0.00000000000E+00 -0.00000000000E+00 -0.74505805969E-08  0.93827000000E+00  0.93827000000E+00 0.  1.
     999902    2    1    2    0    0  0.21424837356E-01 -0.93237439302E-02  0.49973548239E-02  0.10200358708E+01  0.10197559748E+01 0.  0.
     999903    2    3    3    0    0  0.12627995288E+00 -0.36596037662E-01 -0.98771559193E-02  0.13326666498E+00  0.19404878650E-01 0.  0.
         14    1    1    2    0    0 -0.21424837356E-01  0.93237439302E-02 -0.49973548239E-02  0.23894129233E-01  0.00000000000E+00 0.  1.
     999901    1    3    3    0    0 -0.10485511552E+00  0.27272293732E-01  0.14874510743E-01  0.88676920578E+00  0.88000000000E+00 0. -1.
        -11    1    4    4    0    0  0.81601196197E-01 -0.28511188266E-01  0.15100220357E-02  0.86453365259E-01  0.51100000000E-03 0. -1.
         11    1    4    4    0    0  0.44678756680E-01 -0.80848493962E-02 -0.11387177955E-01  0.46813299724E-01  0.51100000000E-03 0.  1.
</event>
<event>
 8    1  0.1075206E+005  0.1043930E+01  0.7957747E-01            NaN
         13   -1    0    0    0    0  0.00000000000E+00  0.00000000000E+00  0.74505805969E-08  0.10566000000E+00  0.10566000000E+00 0.  1.
     999900   -1    0    0    0    0 -0.00000000000E+00 -0.00000000000E+00 -0.74505805969E-08  0.93827000000E+00  0.93827000000E+00 0. -1.
     999902    2    1    2    0    0  0.19617757245E-01  0.42327391489E-02  0.12668183392E-01  0.10201969987E+01  0.10199209091E+01 0.  0.
     999903    2    3    3    0    0  0.20226088643E-01 -0.10370418328E+00  0.75300978099E-01  0.13139239911E+00  0.20738200219E-01 0.  0.
         14    1    1    2    0    0 -0.19617757245E-01 -0.42327391489E-02 -0.12668183392E-01  0.23733001296E-01  0.00000000000E+00 0. -1.
     999901    1    3    3    0    0 -0.60833139807E-03  0.10793692243E+00 -0.62632794706E-01  0.88880459960E+00  0.88000000000E+00 0. -1.
        -11    1    4    4    0    0  0.23186672693E-01 -0.75962042090E-01  0.50985220487E-01  0.94380122156E-01  0.51100000000E-03 0. -1.
         11    1    4    4    0    0 -0.29605840499E-02 -0.27742141194E-01  0.24315757612E-01  0.37012276952E-01  0.51100000000E-03 0.  1.
</event>
<event>
 8    1  0.1075206E+005  0.1043930E+01  0.7957747E-01            NaN
         13   -1    0    0    0    0  0.00000000000E+00  0.00000000000E+00  0.74505805969E-08  0.10566000000E+00  0.10566000000E+00 0. -1.
     999900   -1    0    0    0    0 -0.00000000000E+00 -0.00000000000E+00 -0.74505805969E-08  0.93827000000E+00  0.93827000000E+00 0.  1.
     999902    2    1    2    0    0  0.12377639152E-01  0.16800237797E-01  0.10816748578E-01  0.10204256176E+01  0.10201548829E+01 0.  0.
     999903    2    3    3    0    0 -0.36898638572E-01  0.61805751219E-01  0.10932019223E+00  0.13241853646E+00  0.20057516253E-01 0.  0.
         14    1    1    2    0    0 -0.12377639152E-01 -0.16800237797E-01 -0.10816748578E-01  0.23504382375E-01  0.00000000000E+00 0. -1.
     999901    1    3    3    0    0  0.49276277724E-01 -0.45005513422E-01 -0.98503443648E-01  0.88800708116E+00  0.88000000000E+00 0.  1.
        -11    1    4    4    0    0 -0.29078155106E-01  0.58845926734E-01  0.90313818350E-01  0.11164779041E+00  0.51100000000E-03 0. -1.
         11    1    4    4    0    0 -0.78204834659E-02  0.29598244845E-02  0.19006373877E-01  0.20770746052E-01  0.51100000000E-03 0.  1.
</event>
<event>
 8    1  0.1075206E+005  0.1043930E+01  0.7957747E-01            NaN
         13   -1    0    0    0    0  0.00000000000E+00  0.00000000000E+00  0.74505805969E-08  0.10566000000E+00  0.10566000000E+00 0.  1.
     999900   -1    0    0    0    0 -0.00000000000E+00 -0.00000000000E+00 -0.74505805969E-08  0.93827000000E+00  0.93827000000E+00 0.  1.
     999902    2    1    2    0    0 -0.14625569900E-01  0.17273729127E-01  0.49605726734E-02  0.10207589773E+01  0.10204959546E+01 0.  0.
     999903    2    3    3    0    0 -0.40216834460E-01  0.90417231754E-01  0.87473980701E-01  0.13350853501E+00  0.19497744699E-01 0.  0.
         14    1    1    2    0    0  0.14625569900E-01 -0.17273729127E-01 -0.49605726734E-02  0.23171022725E-01  0.00000000000E+00 0. -1.
     999901    1    3    3    0    0  0.25591264560E-01 -0.73143502627E-01 -0.82513408028E-01  0.88725044227E+00  0.88000000000E+00 0.  1.
        -11    1    4    4    0    0 -0.98787967165E-02  0.33698131352E-01  0.41916833868E-01  0.54684886063E-01  0.51100000000E-03 0. -1.
         11    1    4    4    0    0 -0.30338037744E-01  0.56719100402E-01  0.45557146833E-01  0.78823648946E-01  0.51100000000E-03 0.  1.
</event>
<event>
 8    1  0.1075206E+005  0.1043930E+01  0.7957747E-01            NaN
         13   -1    0    0    0    0  0.00000000000E+00  0.00000000000E+00  0.74505805969E-08  0.10566000000E+00  0.10566000000E+00 0. -1.
     999900   -1    0    0    0    0 -0.00000000000E+00 -0.00000000000E+00 -0.74505805969E-08  0.93827000000E+00  0.93827000000E+00 0.  1.
     999902    2    1    2    0    0  0.50836886821E-02  0.22316643479E-01  0.68359676533E-02  0.10200426201E+01  0.10197628841E+01 0.  0.
     999903    2    3    3    0    0  0.12356140811E+00  0.20499802111E-01 -0.33368860438E-01  0.13119128315E+00  0.20248665838E-01 0.  0.
         14    1    1    2    0    0 -0.50836886821E-02 -0.22316643479E-01 -0.68359676533E-02  0.23887379943E-01  0.00000000000E+00 0.  1.
     999901    1    3    3    0    0 -0.11847771943E+00  0.18168413686E-02  0.40204828091E-01  0.88885133690E+00  0.88000000000E+00 0.  1.
        -11    1    4    4    0    0  0.47378864296E-01  0.33235401159E-02 -0.36744245319E-02  0.47639954004E-01  0.51100000000E-03 0.  1.
         11    1    4    4    0    0  0.76182543812E-01  0.17176261995E-01 -0.29694435906E-01  0.83551329149E-01  0.51100000000E-03 0. -1.
</event>
<event>
 8    1  0.1075206E+005  0.1043930E+01  0.7957747E-01            NaN
         13   -1    0    0    0    0  0.00000000000E+00  0.00000000000E+00  0.74505805969E-08  0.10566000000E+00  0.10566000000E+00 0. -1.
     999900   -1    0    0    0    0 -0.00000000000E+00 -0.00000000000E+00 -0.74505805969E-08  0.93827000000E+00  0.93827000000E+00 0. -1.
     999902    2    1    2    0    0 -0.38523306652E-02  0.72596408528E-02  0.22187035869E-01  0.10202697507E+01  0.10199953710E+01 0.  0.
     999903    2    3    3    0    0 -0.41703354959E-01 -0.28155859657E-01  0.12077698110E+00  0.13324836706E+00  0.25221536660E-01 0.  0.
         14    1    1    2    0    0  0.38523306652E-02 -0.72596408528E-02 -0.22187035869E-01  0.23660249312E-01  0.00000000000E+00 0.  1.
     999901    1    3    3    0    0  0.37851024294E-01  0.35415500510E-01 -0.98589945233E-01  0.88702138363E+00  0.88000000000E+00 0. -1.
        -11    1    4    4    0    0 -0.32074133959E-01 -0.32425756477E-01  0.10143406455E+00  0.11121740117E+00  0.51100000000E-03 0. -1.
         11    1    4    4    0    0 -0.96292210001E-02  0.42698968196E-02  0.19342916557E-01  0.22030965885E-01  0.51100000000E-03 0.  1.
</event>
<event>
 8    1  0.1075206E+005  0.1043930E+01  0.7957747E-01            NaN
         13   -1    0    0    0    0  0.00000000000E+00  0.00000000000E+00  0.74505805969E-08  0.10566000000E+00  0.10566000000E+00 0. -1.
     999900   -1    0    0    0    0 -0.00000000000E+00 -0.00000000000E+00 -0.74505805969E-08  0.93827000000E+00  0.93827000000E+00 0.  1.
     999902    2    1    2    0    0 -0.23547684734E-01  0.27546449808E-02  0.33610707959E-02  0.10199846806E+01  0.10197035698E+01 0.  0.
     999903    2    3    3    0    0  0.61806523181E-01 -0.39085697412E-01 -0.10364976789E+00  0.12842017105E+00  0.20018189160E-01 0.  0.
         14    1    1    2    0    0  0.23547684734E-01 -0.27546449808E-02 -0.33610707959E-02  0.23945319421E-01  0.00000000000E+00 0.  1.
     999901    1    3    3    0    0 -0.85354207915E-01  0.41840342393E-01  0.10701083869E+00  0.89156450953E+00  0.88000000000E+00 0. -1.
        -11    1    4    4    0    0  0.56659463044E-01 -0.40971310013E-01 -0.92197663870E-01  0.11571349680E+00  0.51100000000E-03 0.  1.
         11    1    4    4    0    0  0.51470601372E-02  0.18856126013E-02 -0.11452104024E-01  0.12706674251E-01  0.51100000000E-03 0. -1.
</event>
<event>
 8    1  0.1075206E+005  0.1043930E+01  0.7957747E-01            NaN
         13   -1    0    0    0    0  0.00000000000E+00  0.00000000000E+00  0.74505805969E-08  0.10566000000E+00  0.10566000000E+00 0. -1.
     999900   -1    0    0    0    0 -0.00000000000E+00 -0.00000000000E+00 -0.74505805969E-08  0.93827000000E+00  0.93827000000E+00 0. -1.
     999902    2    1    2    0    0 -0.23590501266E-01  0.43862814664E-02 -0.44544557834E-02  0.10195252179E+01  0.10192330825E+01 0.  0.
     999903    2    3    3    0    0 -0.45262959226E-01 -0.11259945368E+00  0.42931298640E-01  0.13025542337E+00  0.19899911279E-01 0.  0.
         14    1    1    2    0    0  0.23590501266E-01 -0.43862814664E-02  0.44544557834E-02  0.24404782142E-01  0.00000000000E+00 0.  1.
     999901    1    3    3    0    0  0.21672457960E-01  0.11698573514E+00 -0.47385754423E-01  0.88926979449E+00  0.88000000000E+00 0.  1.
        -11    1    4    4    0    0 -0.37585386358E-01 -0.79387986932E-01  0.38401048636E-01  0.95864567981E-01  0.51100000000E-03 0.  1.
         11    1    4    4    0    0 -0.76775728674E-02 -0.33211466746E-01  0.45302500038E-02  0.34390855393E-01  0.51100000000E-03 0. -1.
</event>
<event>
 8    1  0.1075206E+005  0.1043930E+01  0.7957747E-01            NaN
         13   -1    0    0    0    0  0.00000000000E+00  0.00000000000E+00  0.74505805969E-08  0.10566000000E+00  0.10566000000E+00 0.  1.
     999900   -1    0    0    0    0 -0.00000000000E+00 -0.00000000000E+00 -0.74505805969E-08  0.93827000000E+00  0.93827000000E+00 0.  1.
     999902    2    1    2    0    0  0.13687017690E-01  0.18273132076E-02 -0.18393548238E-01  0.10209300838E+01  0.10206709754E+01 0.  0.
     999903    2    3    3    0    0 -0.11237674461E+00  0.22252780142E-01 -0.60012195929E-01  0.13073831590E+00  0.19165714958E-01 0.  0.
         14    1    1    2    0    0 -0.13687017690E-01 -0.18273132076E-02  0.18393548238E-01  0.22999916165E-01  0.00000000000E+00 0.  1.
     999901    1    3    3    0    0  0.12606376230E+00 -0.20425466934E-01  0.41618647691E-01  0.89019176794E+00  0.88000000000E+00 0.  1.
        -11    1    4    4    0    0 -0.59083477571E-01  0.21328476543E-01 -0.33940055218E-01  0.71399927890E-01  0.51100000000E-03 0.  1.
         11    1    4    4    0    0 -0.53293267043E-01  0.92430359936E-03 -0.26072140711E-01  0.59338388009E-01  0.51100000000E-03 0. -1.
</event>
<event>
 8    1  0.1075206E+005  0.1043930E+01  0.7957747E-01            NaN
         13   -1    0    0    0    0  0.00000000000E+00  0.00000000000E+00  0.74505805969E-08  0.10566000000E+00  0.10566000000E+00 0. -1.
     999900   -1    0    0    0    0 -0.00000000000E+00 -0.00000000000E+00 -0.74505805969E-08  0.93827000000E+00  0.93827000000E+00 0.  1.
     999902    2    1    2    0    0 -0.10658165566E-01 -0.86494394844E-02 -0.23925297009E-01  0.10163468687E+01  0.10159725037E+01 0.  0.
     999903    2    3    3    0    0 -0.21555631941E-01  0.91959589967E-01 -0.85011024561E-01  0.12844349686E+00  0.18698827031E-01 0.  0.
         14    1    1    2    0    0  0.10658165566E-01  0.86494394844E-02  0.23925297009E-01  0.27583131323E-01  0.00000000000E+00 0. -1.
     999901    1    3    3    0    0  0.10897466375E-01 -0.10060902945E+00  0.61085727552E-01  0.88790337182E+00  0.88000000000E+00 0. -1.
        -11    1    4    4    0    0 -0.25024181140E-01  0.80619032616E-01 -0.74466104990E-01  0.11256598054E+00  0.51100000000E-03 0. -1.
         11    1    4    4    0    0  0.34685491991E-02  0.11340557350E-01 -0.10544919572E-01  0.15877516315E-01  0.51100000000E-03 0.  1.
</event>
<event>
 8    1  0.1075206E+005  0.1043930E+01  0.7957747E-01            NaN
         13   -1    0    0    0    0  0.00000000000E+00  0.00000000000E+00  0.74505805969E-08  0.10566000000E+00  0.10566000000E+00 0.  1.
     999900   -1    0    0    0    0 -0.00000000000E+00 -0.00000000000E+00 -0.74505805969E-08  0.93827000000E+00  0.93827000000E+00 0. -1.
     999902    2    1    2    0    0  0.82238892942E-02  0.21247757811E-01 -0.11606033660E-03  0.10211459477E+01  0.10208917345E+01 0.  0.
     999903    2    3    3    0    0  0.59640934044E-01 -0.98222829161E-01 -0.57071379505E-01  0.12976452432E+00  0.19414536616E-01 0.  0.
         14    1    1    2    0    0 -0.82238892942E-02 -0.21247757811E-01  0.11606033660E-03  0.22784052254E-01  0.00000000000E+00 0.  1.
     999901    1    3    3    0    0 -0.51417044750E-01  0.11947058697E+00  0.56955319168E-01  0.89138142342E+00  0.88000000000E+00 0.  1.
        -11    1    4    4    0    0 -0.51413968752E-03 -0.80364394323E-02 -0.50614646152E-02  0.95251374488E-02  0.51100000000E-03 0. -1.
         11    1    4    4    0    0  0.60155073732E-01 -0.90186389729E-01 -0.52009914890E-01  0.12023938687E+00  0.51100000000E-03 0.  1.
</event>
<event>
 8    1  0.1075206E+005  0.1043930E+01  0.7957747E-01            NaN
         13   -1    0    0    0    0  0.00000000000E+00  0.00000000000E+00  0.74505805969E-08  0.10566000000E+00  0.10566000000E+00 0. -1.
     999900   -1    0    0    0    0 -0.00000000000E+00 -0.00000000000E+00 -0.74505805969E-08  0.93827000000E+00  0.93827000000E+00 0.  1.
     999902    2    1    2    0    0  0.62241597667E-02  0.16083644355E-01  0.17826323579E-01  0.10191267423E+01  0.10188248698E+01 0.  0.
     999903    2    3    3    0    0 -0.10703955836E+00 -0.29013104564E-01 -0.59605104342E-01  0.12735434272E+00  0.19160711260E-01 0.  0.
         14    1    1    2    0    0 -0.62241597667E-02 -0.16083644355E-01 -0.17826323579E-01  0.24803257707E-01  0.00000000000E+00 0.  1.
     999901    1    3    3    0    0  0.11326371813E+00  0.45096748919E-01  0.77431427921E-01  0.89177239957E+00  0.88000000000E+00 0. -1.
        -11    1    4    4    0    0 -0.94068984150E-01 -0.23675097669E-01 -0.58493489149E-01  0.11327503442E+00  0.51100000000E-03 0. -1.
         11    1    4    4    0    0 -0.12970574210E-01 -0.53380068953E-02 -0.11116151931E-02  0.14079308303E-01  0.51100000000E-03 0.  1.
</event>
<event>
 8    1  0.1075206E+005  0.1043930E+01  0.7957747E-01            NaN
         13   -1    0    0    0    0  0.00000000000E+00  0.00000000000E+00  0.74505805969E-08  0.10566000000E+00  0.10566000000E+00 0. -1.
     999900   -1    0    0    0    0 -0.00000000000E+00 -0.00000000000E+00 -0.74505805969E-08  0.93827000000E+00  0.93827000000E+00 0. -1.
     999902    2    1    2    0    0  0.11325380932E-01  0.20401608771E-01  0.37379388880E-02  0.10202981977E+01  0.10200244851E+01 0.  0.
     999903    2    3    3    0    0  0.42010425249E-01  0.65883695910E-01  0.10534658117E+00  0.13275410955E+00  0.20499127318E-01 0.  0.
         14    1    1    2    0    0 -0.11325380932E-01 -0.20401608771E-01 -0.37379388880E-02  0.23631802319E-01  0.00000000000E+00 0. -1.
     999901    1    3    3    0    0 -0.30685044316E-01 -0.45482087139E-01 -0.10160864228E+00  0.88754408813E+00  0.88000000000E+00 0. -1.
        -11    1    4    4    0    0  0.43973484464E-01  0.63575727473E-01  0.98209013998E-01  0.12498324692E+00  0.51100000000E-03 0. -1.
         11    1    4    4    0    0 -0.19630592156E-02  0.23079684371E-02  0.71375671723E-02  0.77708626245E-02  0.51100000000E-03 0.  1.
</event>
<event>
 8    1  0.1134739E+005  0.1043930E+01  0.7957747E-01            NaN
         13   -1    0    0    0    0  0.00000000000E+00  0.00000000000E+00  0.74505805969E-08  0.10566000000E+00  0.10566000000E+00 0. -1.
     999900   -1    0    0    0    0 -0.00000000000E+00 -0.00000000000E+00 -0.74505805969E-08  0.93827000000E+00  0.93827000000E+00 0. -1.
     999902    2    1    2    0    0 -0.64270290097E-02 -0.22830947149E-01  0.45383522667E-02  0.10197813874E+01  0.10194954255E+01 0.  0.
     999903    2    3    3    0    0  0.11577113238E+00 -0.20903609360E-01 -0.50596647851E-01  0.12962635959E+00  0.20076263388E-01 0.  0.
         14    1    1    2    0    0  0.64270290097E-02  0.22830947149E-01 -0.45383522667E-02  0.24148612609E-01  0.00000000000E+00 0.  1.
     999901    1    3    3    0    0 -0.12219816139E+00 -0.19273377893E-02  0.55135000118E-01  0.89015502780E+00  0.88000000000E+00 0.  1.
        -11    1    4    4    0    0  0.76107498374E-01 -0.23250401605E-01 -0.35024655911E-01  0.86947801158E-01  0.51100000000E-03 0.  1.
         11    1    4    4    0    0  0.39663634002E-01  0.23467922451E-02 -0.15571991940E-01  0.42678558435E-01  0.51100000000E-03 0. -1.
</event>
<event>
 8    1  0.1075206E+005  0.1043930E+01  0.7957747E-01            NaN
         13   -1    0    0    0    0  0.00000000000E+00  0.00000000000E+00  0.74505805969E-08  0.10566000000E+00  0.10566000000E+00 0. -1.
     999900   -1    0    0    0    0 -0.00000000000E+00 -0.00000000000E+00 -0.74505805969E-08  0.93827000000E+00  0.93827000000E+00 0. -1.
     999902    2    1    2    0    0  0.25200395774E-02 -0.11831300441E-02  0.23824021142E-01  0.10199438711E+01  0.10196617899E+01 0.  0.
     999903    2    3    3    0    0 -0.11497982455E+00  0.47919924163E-01  0.34204813484E-01  0.13071662857E+00  0.20004712821E-01 0.  0.
         14    1    1    2    0    0 -0.25200395774E-02  0.11831300441E-02 -0.23824021142E-01  0.23986128899E-01  0.00000000000E+00 0.  1.
     999901    1    3    3    0    0  0.11749986413E+00 -0.49103054207E-01 -0.10380792342E-01  0.88922724253E+00  0.88000000000E+00 0.  1.
        -11    1    4    4    0    0 -0.67948464807E-01  0.37632659426E-01  0.16428309200E-01  0.79393711270E-01  0.51100000000E-03 0. -1.
         11    1    4    4    0    0 -0.47031359743E-01  0.10287264737E-01  0.17776504284E-01  0.51322917304E-01  0.51100000000E-03 0.  1.
</event>
<event>
 8    1  0.1075206E+005  0.1043930E+01  0.7957747E-01            NaN
         13   -1    0    0    0    0  0.00000000000E+00  0.00000000000E+00  0.74505805969E-08  0.10566000000E+00  0.10566000000E+00 0. -1.
     999900   -1    0    0    0    0 -0.00000000000E+00 -0.00000000000E+00 -0.74505805969E-08  0.93827000000E+00  0.93827000000E+00 0. -1.
     999902    2    1    2    0    0 -0.53783747803E-02  0.64901113643E-02 -0.18962929072E-01  0.10231781052E+01  0.10229676406E+01 0.  0.
     999903    2    3    3    0    0 -0.65143116391E-01 -0.45553147718E-01  0.10270541728E+00  0.13127928148E+00  0.19160692297E-01 0.  0.
         14    1    1    2    0    0  0.53783747803E-02 -0.64901113643E-02  0.18962929072E-01  0.20751894848E-01  0.00000000000E+00 0. -1.
     999901    1    3    3    0    0  0.59764741611E-01  0.52043259082E-01 -0.12166834635E+00  0.89189882367E+00  0.88000000000E+00 0. -1.
        -11    1    4    4    0    0 -0.53665529754E-01 -0.27805845802E-01  0.72142071556E-01  0.94116384089E-01  0.51100000000E-03 0.  1.
         11    1    4    4    0    0 -0.11477586637E-01 -0.17747301916E-01  0.30563345719E-01  0.37162897396E-01  0.51100000000E-03 0. -1.
</event>
<event>
 8    1  0.1075206E+005  0.1043930E+01  0.7957747E-01            NaN
         13   -1    0    0    0    0  0.00000000000E+00  0.00000000000E+00  0.74505805969E-08  0.10566000000E+00  0.10566000000E+00 0. -1.
     999900   -1    0    0    0    0 -0.00000000000E+00 -0.00000000000E+00 -0.74505805969E-08  0.93827000000E+00  0.93827000000E+00 0. -1.
     999902    2    1    2    0    0 -0.11165929034E-01  0.54299377506E-02  0.19879859942E-01  0.10204913348E+01  0.10202221294E+01 0.  0.
     999903    2    3    3    0    0 -0.12018392644E-01 -0.12003502359E+00 -0.42292369949E-01  0.12942031104E+00  0.20202071769E-01 0.  0.
         14    1    1    2    0    0  0.11165929034E-01 -0.54299377506E-02 -0.19879859942E-01  0.23438665203E-01  0.00000000000E+00 0.  1.
     999901    1    3    3    0    0  0.85246360981E-03  0.12546496134E+00  0.62172229891E-01  0.89107102376E+00  0.88000000000E+00 0.  1.
        -11    1    4    4    0    0 -0.21517463782E-02 -0.83660055715E-01 -0.36429072875E-01  0.91274166149E-01  0.51100000000E-03 0.  1.
         11    1    4    4    0    0 -0.98666462659E-02 -0.36374967871E-01 -0.58632970741E-02  0.38146144887E-01  0.51100000000E-03 0. -1.
</event>
<event>
 8    1  0.1075206E+005  0.1043930E+01  0.7957747E-01            NaN
         13   -1    0    0    0    0  0.00000000000E+00  0.00000000000E+00  0.74505805969E-08  0.10566000000E+00  0.10566000000E+00 0.  1.
     999900   -1    0    0    0    0 -0.00000000000E+00 -0.00000000000E+00 -0.74505805969E-08  0.93827000000E+00  0.93827000000E+00 0. -1.
     999902    2    1    2    0    0 -0.23598460050E-02 -0.12387139520E-01 -0.41579847596E-02  0.10306522390E+01  0.10305667076E+01 0.  0.
     999903    2    3    3    0    0 -0.72478991687E-01 -0.42548546966E-01  0.11009876278E+00  0.13998899772E+00  0.20287898641E-01 0.  0.
         14    1    1    2    0    0  0.23598460050E-02  0.12387139520E-01  0.41579847596E-02  0.13277760953E-01  0.00000000000E+00 0. -1.
     999901    1    3    3    0    0  0.70119145682E-01  0.30161407445E-01 -0.11425674754E+00  0.89066324133E+00  0.88000000000E+00 0. -1.
        -11    1    4    4    0    0 -0.49807015062E-01 -0.21888371574E-01  0.81872016369E-01  0.98301209275E-01  0.51100000000E-03 0. -1.
         11    1    4    4    0    0 -0.22671976626E-01 -0.20660175392E-01  0.28226746415E-01  0.41687788446E-01  0.51100000000E-03 0.  1.
</event>
<event>
 8    1  0.1075206E+005  0.1043930E+01  0.7957747E-01            NaN
         13   -1    0    0    0    0  0.00000000000E+00  0.00000000000E+00  0.74505805969E-08  0.10566000000E+00  0.10566000000E+00 0. -1.
     999900   -1    0    0    0    0 -0.00000000000E+00 -0.00000000000E+00 -0.74505805969E-08  0.93827000000E+00  0.93827000000E+00 0. -1.
     999902    2    1    2    0    0 -0.93167626552E-02  0.12791056843E-01  0.16973288054E-01  0.10207242742E+01  0.10204604540E+01 0.  0.
     999903    2    3    3    0    0  0.42432486949E-01  0.36815288445E-01 -0.11452149002E+00  0.12912681729E+00  0.20066934401E-01 0.  0.
         14    1    1    2    0    0  0.93167626552E-02 -0.12791056843E-01 -0.16973288054E-01  0.23205725778E-01  0.00000000000E+00 0.  1.
     999901    1    3    3    0    0 -0.51749249604E-01 -0.24024231602E-01  0.13149477807E+00  0.89159745693E+00  0.88000000000E+00 0.  1.
        -11    1    4    4    0    0  0.13152923343E-01  0.71285239841E-02 -0.50915648309E-01  0.53070515452E-01  0.51100000000E-03 0.  1.
         11    1    4    4    0    0  0.29279563606E-01  0.29686764461E-01 -0.63605841711E-01  0.76056301842E-01  0.51100000000E-03 0. -1.
</event>
<event>
 8    1  0.1075206E+005  0.1043930E+01  0.7957747E-01            NaN
         13   -1    0    0    0    0  0.00000000000E+00  0.00000000000E+00  0.74505805969E-08  0.10566000000E+00  0.10566000000E+00 0.  1.
     999900   -1    0    0    0    0 -0.00000000000E+00 -0.00000000000E+00 -0.74505805969E-08  0.93827000000E+00  0.93827000000E+00 0.  1.
     999902    2    1    2    0    0 -0.39308386820E-02  0.49167691271E-02  0.23243947378E-01  0.10198487376E+01  0.10195643875E+01 0.  0.
     999903    2    3    3    0    0 -0.80477465706E-01 -0.11815952678E-01 -0.96979445655E-01  0.12822491871E+00  0.20503113798E-01 0.  0.
         14    1    1    2    0    0  0.39308386820E-02 -0.49167691271E-02 -0.23243947378E-01  0.24081262448E-01  0.00000000000E+00 0. -1.
     999901    1    3    3    0    0  0.76546627024E-01  0.16732721805E-01  0.12022339303E+00  0.89162381884E+00  0.88000000000E+00 0. -1.
        -11    1    4    4    0    0 -0.42868390438E-01  0.34306111008E-02 -0.44553759285E-01  0.61925492155E-01  0.51100000000E-03 0.  1.
         11    1    4    4    0    0 -0.37609075268E-01 -0.15246563779E-01 -0.52425686370E-01  0.66299426558E-01  0.51100000000E-03 0. -1.
</event>
<event>
 7    1  0.1075206E+005  0.1043930E+01  0.7957747E-01            NaN
         13   -1    0    0    0    0  0.00000000000E+00  0.00000000000E+00  0.74505805969E-08  0.10566000000E+00  0.10566000000E+00 0.  1.
     999900   -1    0    0    0    0 -0.00000000000E+00 -0.00000000000E+00 -0.74505805969E-08  0.93827000000E+00  0.93827000000E+00 0.  1.
     999903    2    1    2    0    0 -0.14836096297E-01  0.23472113019E-01  0.96491838834E-01  0.10247406374E+00  0.20474592420E-01 0.  0.
         14    1    1    2    0    0  0.26356779289E-01 -0.70009661418E-02  0.42322784969E-01  0.50347904315E-01  0.00000000000E+00 0.  1.
     999901    1    1    2    0    0 -0.11520682991E-01 -0.16471146877E-01 -0.13881462380E+00  0.89110803195E+00  0.88000000000E+00 0.  1.
        -11    1    3    3    0    0 -0.13566205890E-01  0.58009386066E-02  0.27165887696E-01  0.30918269782E-01  0.51100000000E-03 0. -1.
         11    1    3    3    0    0 -0.12698904072E-02  0.17671174412E-01  0.69325951137E-01  0.71555793957E-01  0.51100000000E-03 0.  1.
</event>
<event>
 8    1  0.1075206E+005  0.1043930E+01  0.7957747E-01            NaN
         13   -1    0    0    0    0  0.00000000000E+00  0.00000000000E+00  0.74505805969E-08  0.10566000000E+00  0.10566000000E+00 0. -1.
     999900   -1    0    0    0    0 -0.00000000000E+00 -0.00000000000E+00 -0.74505805969E-08  0.93827000000E+00  0.93827000000E+00 0. -1.
     999902    2    1    2    0    0  0.22543578950E-01 -0.20947713644E-02 -0.69010765295E-02  0.10202609088E+01  0.10199863216E+01 0.  0.
     999903    2    3    3    0    0  0.34012985501E-01 -0.10956411055E+00  0.60040134084E-01  0.13112518702E+00  0.20683797182E-01 0.  0.
         14    1    1    2    0    0 -0.22543578950E-01  0.20947713644E-02  0.69010765295E-02  0.23669091157E-01  0.00000000000E+00 0. -1.
     999901    1    3    3    0    0 -0.11469406551E-01  0.10746933918E+00 -0.66941210614E-01  0.88913572183E+00  0.88000000000E+00 0. -1.
        -11    1    4    4    0    0  0.11648922259E-01 -0.71286452133E-01  0.36740557671E-01  0.81040640091E-01  0.51100000000E-03 0. -1.
         11    1    4    4    0    0  0.22364063242E-01 -0.38277658417E-01  0.23299576413E-01  0.50084546924E-01  0.51100000000E-03 0.  1.
</event>
<event>
 8    1  0.1075206E+005  0.1043930E+01  0.7957747E-01            NaN
         13   -1    0    0    0    0  0.00000000000E+00  0.00000000000E+00  0.74505805969E-08  0.10566000000E+00  0.10566000000E+00 0. -1.
     999900   -1    0    0    0    0 -0.00000000000E+00 -0.00000000000E+00 -0.74505805969E-08  0.93827000000E+00  0.93827000000E+00 0. -1.
     999902    2    1    2    0    0  0.20220674582E-02 -0.13807368207E-01 -0.17414341292E-01  0.10216142778E+01  0.10213705210E+01 0.  0.
     999903    2    3    3    0    0 -0.11993124930E+00  0.47990477788E-01  0.22540539578E-02  0.13084021499E+00  0.20675845408E-01 0.  0.
         14    1    1    2    0    0 -0.20220674582E-02  0.13807368207E-01  0.17414341292E-01  0.22315722176E-01  0.00000000000E+00 0. -1.
     999901    1    3    3    0    0  0.12195331676E+00 -0.61797845995E-01 -0.19668395250E-01  0.89077406283E+00  0.88000000000E+00 0.  1.
        -11    1    4    4    0    0 -0.62632513350E-01  0.19928887667E-01  0.10303007802E-01  0.66531236145E-01  0.51100000000E-03 0.  1.
         11    1    4    4    0    0 -0.57298735951E-01  0.28061590121E-01 -0.80489538442E-02  0.64308978849E-01  0.51100000000E-03 0. -1.
</event>
<event>
 8    1  0.1075206E+005  0.1043930E+01  0.7957747E-01            NaN
         13   -1    0    0    0    0  0.00000000000E+00  0.00000000000E+00  0.74505805969E-08  0.10566000000E+00  0.10566000000E+00 0.  1.
     999900   -1    0    0    0    0 -0.00000000000E+00 -0.00000000000E+00 -0.74505805969E-08  0.93827000000E+00  0.93827000000E+00 0. -1.
     999902    2    1    2    0    0 -0.12560038371E-01  0.21587746137E-02  0.67520249573E-02  0.10295076315E+01  0.10294066051E+01 0.  0.
     999903    2    3    3    0    0  0.10362224112E+00 -0.62136416870E-01  0.62951213286E-01  0.13777306199E+00  0.20495321397E-01 0.  0.
         14    1    1    2    0    0  0.12560038371E-01 -0.21587746137E-02 -0.67520249573E-02  0.14422368486E-01  0.00000000000E+00 0. -1.
     999901    1    3    3    0    0 -0.11618227949E+00  0.64295191484E-01 -0.56199188329E-01  0.89173456952E+00  0.88000000000E+00 0. -1.
        -11    1    4    4    0    0  0.68364723966E-01 -0.49296036221E-01  0.36435077534E-01  0.91823802284E-01  0.51100000000E-03 0. -1.
         11    1    4    4    0    0  0.35257517156E-01 -0.12840380649E-01  0.26516135753E-01  0.45949259706E-01  0.51100000000E-03 0.  1.
</event>
<event>
 8    1  0.1075206E+005  0.1043930E+01  0.7957747E-01            NaN
         13   -1    0    0    0    0  0.00000000000E+00  0.00000000000E+00  0.74505805969E-08  0.10566000000E+00  0.10566000000E+00 0. -1.
     999900   -1    0    0    0    0 -0.00000000000E+00 -0.00000000000E+00 -0.74505805969E-08  0.93827000000E+00  0.93827000000E+00 0.  1.
     999902    2    1    2    0    0 -0.72911545648E-02 -0.20958574691E-01 -0.96915686051E-02  0.10197153497E+01  0.10194278028E+01 0.  0.
     999903    2    3    3    0    0 -0.12309878936E-01  0.11313156576E+00 -0.55757906038E-01  0.12835265089E+00  0.20375834061E-01 0.  0.
         14    1    1    2    0    0  0.72911545648E-02  0.20958574691E-01  0.96915686051E-02  0.24214650318E-01  0.00000000000E+00 0. -1.
     999901    1    3    3    0    0  0.50187243716E-02 -0.13409014045E+00  0.46066337433E-01  0.89136269880E+00  0.88000000000E+00 0.  1.
        -11    1    4    4    0    0 -0.41434146515E-02  0.97883661263E-01 -0.50756402025E-01  0.11033971404E+00  0.51100000000E-03 0.  1.
         11    1    4    4    0    0 -0.81664642850E-02  0.15247904495E-01 -0.50015040131E-02  0.18012936845E-01  0.51100000000E-03 0. -1.
</event>
<event>
 8    1  0.1075206E+005  0.1043930E+01  0.7957747E-01            NaN
         13   -1    0    0    0    0  0.00000000000E+00  0.00000000000E+00  0.74505805969E-08  0.10566000000E+00  0.10566000000E+00 0.  1.
     999900   -1    0    0    0    0 -0.00000000000E+00 -0.00000000000E+00 -0.74505805969E-08  0.93827000000E+00  0.93827000000E+00 0. -1.
     999902    2    1    2    0    0 -0.13335962926E-01 -0.19324440908E-01  0.38487172067E-02  0.10201372585E+01  0.10198597608E+01 0.  0.
     999903    2    3    3    0    0 -0.40165104743E-01  0.83940742937E-01  0.87899990900E-01  0.12971706688E+00  0.20995834744E-01 0.  0.
         14    1    1    2    0    0  0.13335962926E-01  0.19324440908E-01 -0.38487172067E-02  0.23792741492E-01  0.00000000000E+00 0.  1.
     999901    1    3    3    0    0  0.26829141816E-01 -0.10326518384E+00 -0.84051273693E-01  0.89042019163E+00  0.88000000000E+00 0. -1.
        -11    1    4    4    0    0 -0.13131035491E-01  0.50806741703E-01  0.52027700055E-01  0.73897846989E-01  0.51100000000E-03 0. -1.
         11    1    4    4    0    0 -0.27034069252E-01  0.33134001233E-01  0.35872290844E-01  0.55819219893E-01  0.51100000000E-03 0.  1.
</event>
<event>
 8    1  0.1075206E+005  0.1043930E+01  0.7957747E-01            NaN
         13   -1    0    0    0    0  0.00000000000E+00  0.00000000000E+00  0.74505805969E-08  0.10566000000E+00  0.10566000000E+00 0.  1.
     999900   -1    0    0    0    0 -0.00000000000E+00 -0.00000000000E+00 -0.74505805969E-08  0.93827000000E+00  0.93827000000E+00 0.  1.
     999902    2    1    2    0    0  0.11489820690E-01  0.46114843975E-02 -0.19114967140E-01  0.10211558099E+01  0.10209018191E+01 0.  0.
     999903    2    3    3    0    0  0.24122813511E-01  0.38336867488E-01  0.11950418390E+00  0.12957728667E+00  0.21386858351E-01 0.  0.
         14    1    1    2    0    0 -0.11489820690E-01 -0.46114843975E-02  0.19114967140E-01  0.22774190141E-01  0.00000000000E+00 0.  1.
     999901    1    3    3    0    0 -0.12632992821E-01 -0.33725383090E-01 -0.13861915104E+00  0.89157852319E+00  0.88000000000E+00 0.  1.
        -11    1    4    4    0    0 -0.75759935417E-03  0.15067769117E-01  0.26066138030E-01  0.30121691449E-01  0.51100000000E-03 0.  1.
         11    1    4    4    0    0  0.24880412865E-01  0.23269098371E-01  0.93438045874E-01  0.99455595223E-01  0.51100000000E-03 0. -1.
</event>
<event>
 8    1  0.1075206E+005  0.1043930E+01  0.7957747E-01            NaN
         13   -1    0    0    0    0  0.00000000000E+00  0.00000000000E+00  0.74505805969E-08  0.10566000000E+00  0.10566000000E+00 0.  1.
     999900   -1    0    0    0    0 -0.00000000000E+00 -0.00000000000E+00 -0.74505805969E-08  0.93827000000E+00  0.93827000000E+00 0.  1.
     999902    2    1    2    0    0  0.20212670063E-01  0.14874253822E-01  0.54126599982E-02  0.10182572061E+01  0.10179335172E+01 0.  0.
     999903    2    3    3    0    0 -0.11159908582E+00  0.42999740642E-01  0.38425306177E-01  0.12738391725E+00  0.21138225306E-01 0.  0.
         14    1    1    2    0    0 -0.20212670063E-01 -0.14874253822E-01 -0.54126599982E-02  0.25672793890E-01  0.00000000000E+00 0.  1.
     999901    1    3    3    0    0  0.13181175588E+00 -0.28125486819E-01 -0.33012646179E-01  0.89087328886E+00  0.88000000000E+00 0. -1.
        -11    1    4    4    0    0 -0.93850148890E-02 -0.23411450063E-03 -0.13305830666E-02  0.94955192782E-02  0.51100000000E-03 0. -1.
         11    1    4    4    0    0 -0.10221407093E+00  0.43233855142E-01  0.39755889244E-01  0.11788839797E+00  0.51100000000E-03 0.  1.
</event>
<event>
 8    1  0.1075206E+005  0.1043930E+01  0.7957747E-01            NaN
         13   -1    0    0    0    0  0.00000000000E+00  0.00000000000E+00  0.74505805969E-08  0.10566000000E+00  0.10566000000E+00 0. -1.
     999900   -1    0    0    0    0 -0.00000000000E+00 -0.00000000000E+00 -0.74505805969E-08  0.93827000000E+00  0.93827000000E+00 0. -1.
     999902    2    1    2    0    0 -0.15572897391E-01 -0.12952675861E-01  0.10434156037E-01  0.10211449488E+01  0.10208907130E+01 0.  0.
     999903    2    3    3    0    0  0.11198983938E+00  0.38305726035E-01 -0.46016072740E-01  0.12868413517E+00  0.20810452209E-01 0.  0.
         14    1    1    2    0    0  0.15572897391E-01  0.12952675861E-01 -0.10434156037E-01  0.22785051181E-01  0.00000000000E+00 0.  1.
     999901    1    3    3    0    0 -0.12756273677E+00 -0.51258401896E-01  0.56450228777E-01  0.89246081365E+00  0.88000000000E+00 0.  1.
        -11    1    4    4    0    0  0.82507480890E-01  0.22714855907E-01 -0.24593782369E-01  0.89042486117E-01  0.51100000000E-03 0.  1.
         11    1    4    4    0    0  0.29482358492E-01  0.15590870128E-01 -0.21422290370E-01  0.39641649049E-01  0.51100000000E-03 0. -1.
</event>
<event>
 8    1  0.1075206E+005  0.1043930E+01  0.7957747E-01            NaN
         13   -1    0    0    0    0  0.00000000000E+00  0.00000000000E+00  0.74505805969E-08  0.10566000000E+00  0.10566000000E+00 0. -1.
     999900   -1    0    0    0    0 -0.00000000000E+00 -0.00000000000E+00 -0.74505805969E-08  0.93827000000E+00  0.93827000000E+00 0. -1.
     999902    2    1    2    0    0 -0.80441340067E-02  0.15337144692E-01 -0.16349447165E-01  0.10201131883E+01  0.10198351221E+01 0.  0.
     999903    2    3    3    0    0 -0.89308785999E-01 -0.22219116748E-01  0.88724000121E-01  0.12935236415E+00  0.19756960984E-01 0.  0.
         14    1    1    2    0    0  0.80441340067E-02 -0.15337144692E-01  0.16349447165E-01  0.23816811747E-01  0.00000000000E+00 0. -1.
     999901    1    3    3    0    0  0.81264651992E-01  0.37556261440E-01 -0.10507344729E+00  0.89076082411E+00  0.88000000000E+00 0. -1.
        -11    1    4    4    0    0 -0.52689769230E-02 -0.66399945769E-03  0.13518482746E-01  0.14533186500E-01  0.51100000000E-03 0.  1.
         11    1    4    4    0    0 -0.84039809076E-01 -0.21555117291E-01  0.75205517375E-01  0.11481917765E+00  0.51100000000E-03 0. -1.
</event>
<event>
 8    1  0.1075206E+005  0.1043930E+01  0.7957747E-01            NaN
         13   -1    0    0    0    0  0.00000000000E+00  0.00000000000E+00  0.74505805969E-08  0.10566000000E+00  0.10566000000E+00 0.  1.
     999900   -1    0    0    0    0 -0.00000000000E+00 -0.00000000000E+00 -0.74505805969E-08  0.93827000000E+00  0.93827000000E+00 0. -1.
     999902    2    1    2    0    0  0.33754332506E-02  0.86804782213E-03 -0.23209345056E-01  0.10204604292E+01  0.10201905051E+01 0.  0.
     999903    2    3    3    0    0  0.46560555339E-01  0.52882949731E-01  0.10566530918E+00  0.12850797456E+00  0.19612503033E-01 0.  0.
         14    1    1    2    0    0 -0.33754332506E-02 -0.86804782213E-03  0.23209345056E-01  0.23469570822E-01  0.00000000000E+00 0.  1.
     999901    1    3    3    0    0 -0.43185122088E-01 -0.52014901908E-01 -0.12887465424E+00  0.89195245462E+00  0.88000000000E+00 0. -1.
        -11    1    4    4    0    0  0.28814875121E-01  0.18545565697E-01  0.44798423913E-01  0.56403855731E-01  0.51100000000E-03 0.  1.
         11    1    4    4    0    0  0.17745680218E-01  0.34337384034E-01  0.60866885271E-01  0.72104118830E-01  0.51100000000E-03 0. -1.
</event>
<event>
 8    1  0.1075206E+005  0.1043930E+01  0.7957747E-01            NaN
         13   -1    0    0    0    0  0.00000000000E+00  0.00000000000E+00  0.74505805969E-08  0.10566000000E+00  0.10566000000E+00 0.  1.
     999900   -1    0    0    0    0 -0.00000000000E+00 -0.00000000000E+00 -0.74505805969E-08  0.93827000000E+00  0.93827000000E+00 0. -1.
     999902    2    1    2    0    0  0.17649734979E-01 -0.88958812263E-02 -0.12146748794E-01  0.10207310053E+01  0.10204673399E+01 0.  0.
     999903    2    3    3    0    0  0.10804706348E+00  0.46219579637E-01  0.56059415129E-01  0.13176448637E+00  0.20218911360E-01 0.  0.
         14    1    1    2    0    0 -0.17649734979E-01  0.88958812263E-02  0.12146748794E-01  0.23198994674E-01  0.00000000000E+00 0.  1.
     999901    1    3    3    0    0 -0.90397328496E-01 -0.55115460864E-01 -0.68206163923E-01  0.88896651895E+00  0.88000000000E+00 0. -1.
        -11    1    4    4    0    0  0.74355065933E-01  0.40857206767E-01  0.44022581683E-01  0.95583659659E-01  0.51100000000E-03 0. -1.
         11    1    4    4    0    0  0.33691997542E-01  0.53623728701E-02  0.12036833446E-01  0.36180826712E-01  0.51100000000E-03 0.  1.
</event>
<event>
 7    1  0.1075206E+005  0.1043930E+01  0.7957747E-01            NaN
         13   -1    0    0    0    0  0.00000000000E+00  0.00000000000E+00  0.74505805969E-08  0.10566000000E+00  0.10566000000E+00 0.  1.
     999900   -1    0    0    0    0 -0.00000000000E+00 -0.00000000000E+00 -0.74505805969E-08  0.93827000000E+00  0.93827000000E+00 0.  1.
     999903    2    1    2    0    0 -0.10446537746E+00  0.19839429873E-01  0.45213505695E-01  0.11716611337E+00  0.19416976110E-01 0.  0.
         14    1    1    2    0    0  0.16360624124E-01  0.19776579991E-01  0.28572509145E-01  0.38407960330E-01  0.00000000000E+00 0.  1.
     999901    1    1    2    0    0  0.88104753332E-01 -0.39616009865E-01 -0.73786014840E-01  0.88835592629E+00  0.88000000000E+00 0.  1.
        -11    1    3    3    0    0 -0.15016633454E-01  0.55496160083E-02  0.21090657587E-03  0.16018836435E-01  0.51100000000E-03 0. -1.
         11    1    3    3    0    0 -0.89448744002E-01  0.14289813865E-01  0.45002599119E-01  0.10114727694E+00  0.51100000000E-03 0.  1.
</event>
<event>
 8    1  0.1075206E+005  0.1043930E+01  0.7957747E-01            NaN
         13   -1    0    0    0    0  0.00000000000E+00  0.00000000000E+00  0.74505805969E-08  0.10566000000E+00  0.10566000000E+00 0.  1.
     999900   -1    0    0    0    0 -0.00000000000E+00 -0.00000000000E+00 -0.74505805969E-08  0.93827000000E+00  0.93827000000E+00 0. -1.
     999902    2    1    2    0    0  0.33558792319E-02  0.12469270669E-01  0.19295568478E-01  0.10207122568E+01  0.10204481602E+01 0.  0.
     999903    2    3    3    0    0  0.30953960265E-02  0.10958029716E+00  0.69612037491E-01  0.13394150493E+00  0.32818713835E-01 0.  0.
         14    1    1    2    0    0 -0.33558792319E-02 -0.12469270669E-01 -0.19295568478E-01  0.23217743200E-01  0.00000000000E+00 0. -1.
     999901    1    3    3    0    0  0.26048320540E-03 -0.97111026488E-01 -0.50316469013E-01  0.88677075187E+00  0.88000000000E+00 0.  1.
        -11    1    4    4    0    0  0.15075737875E-01  0.64411899720E-01  0.51437405380E-01  0.83798797672E-01  0.51100000000E-03 0. -1.
         11    1    4    4    0    0 -0.11980341849E-01  0.45168397437E-01  0.18174632111E-01  0.50142707259E-01  0.51100000000E-03 0.  1.
</event>
<event>
 8    1  0.1075206E+005  0.1043930E+01  0.7957747E-01            NaN
         13   -1    0    0    0    0  0.00000000000E+00  0.00000000000E+00  0.74505805969E-08  0.10566000000E+00  0.10566000000E+00 0.  1.
     999900   -1    0    0    0    0 -0.00000000000E+00 -0.00000000000E+00 -0.74505805969E-08  0.93827000000E+00  0.93827000000E+00 0.  1.
     999902    2    1    2    0    0  0.17491518431E-01  0.15336386587E-01 -0.43168984405E-02  0.10202700426E+01  0.10199956697E+01 0.  0.
     999903    2    3    3    0    0 -0.68604044724E-02 -0.12574752015E+00 -0.17029733011E-01  0.12860906387E+00  0.19768043134E-01 0.  0.
         14    1    1    2    0    0 -0.17491518431E-01 -0.15336386587E-01  0.43168984405E-02  0.23659957369E-01  0.00000000000E+00 0. -1.
     999901    1    3    3    0    0  0.24351922903E-01  0.14108390673E+00  0.12712834571E-01  0.89166097876E+00  0.88000000000E+00 0. -1.
        -11    1    4    4    0    0 -0.23066754532E-02 -0.64985649062E-01  0.10897118926E-02  0.65037711589E-01  0.51100000000E-03 0. -1.
         11    1    4    4    0    0 -0.45537290192E-02 -0.60761871086E-01 -0.18119444904E-01  0.63571352278E-01  0.51100000000E-03 0.  1.
</event>
<event>
 8    1  0.1075206E+005  0.1043930E+01  0.7957747E-01            NaN
         13   -1    0    0    0    0  0.00000000000E+00  0.00000000000E+00  0.74505805969E-08  0.10566000000E+00  0.10566000000E+00 0. -1.
     999900   -1    0    0    0    0 -0.00000000000E+00 -0.00000000000E+00 -0.74505805969E-08  0.93827000000E+00  0.93827000000E+00 0. -1.
     999902    2    1    2    0    0 -0.99600402371E-02 -0.24358526990E-01  0.77519277177E-02  0.10164958493E+01  0.10161255725E+01 0.  0.
     999903    2    3    3    0    0  0.10789308296E+00  0.39149621811E-01 -0.44969671595E-01  0.12481080930E+00  0.19541149328E-01 0.  0.
         14    1    1    2    0    0  0.99600402371E-02  0.24358526990E-01 -0.77519277177E-02  0.27434150652E-01  0.00000000000E+00 0.  1.
     999901    1    3    3    0    0 -0.11785312319E+00 -0.63508148802E-01  0.52721599313E-01  0.89168504005E+00  0.88000000000E+00 0. -1.
        -11    1    4    4    0    0  0.42075182916E-01  0.11672336623E-01 -0.26699800531E-01  0.51183053143E-01  0.51100000000E-03 0. -1.
         11    1    4    4    0    0  0.65817900040E-01  0.27477285189E-01 -0.18269871064E-01  0.73627756157E-01  0.51100000000E-03 0.  1.
</event>
<event>
 8    1  0.1075206E+005  0.1043930E+01  0.7957747E-01            NaN
         13   -1    0    0    0    0  0.00000000000E+00  0.00000000000E+00  0.74505805969E-08  0.10566000000E+00  0.10566000000E+00 0. -1.
     999900   -1    0    0    0    0 -0.00000000000E+00 -0.00000000000E+00 -0.74505805969E-08  0.93827000000E+00  0.93827000000E+00 0.  1.
     999902    2    1    2    0    0  0.18805223028E-01 -0.15219433997E-01 -0.10735904494E-01  0.10174625251E+01  0.10171182147E+01 0.  0.
     999903    2    3    3    0    0 -0.41353135444E-01 -0.10252128123E+00 -0.64445525567E-01  0.12947301836E+00  0.19731745989E-01 0.  0.
         14    1    1    2    0    0 -0.18805223028E-01  0.15219433997E-01  0.10735904494E-01  0.26467474938E-01  0.00000000000E+00 0. -1.
     999901    1    3    3    0    0  0.60158358472E-01  0.87301847235E-01  0.53709621073E-01  0.88798950671E+00  0.88000000000E+00 0. -1.
        -11    1    4    4    0    0 -0.91673872853E-02 -0.42101515378E-01 -0.32237054963E-01  0.53815122600E-01  0.51100000000E-03 0. -1.
         11    1    4    4    0    0 -0.32185748159E-01 -0.60419765855E-01 -0.32208470604E-01  0.75657895756E-01  0.51100000000E-03 0.  1.
</event>
<event>
 8    1  0.1075206E+005  0.1043930E+01  0.7957747E-01            NaN
         13   -1    0    0    0    0  0.00000000000E+00  0.00000000000E+00  0.74505805969E-08  0.10566000000E+00  0.10566000000E+00 0. -1.
     999900   -1    0    0    0    0 -0.00000000000E+00 -0.00000000000E+00 -0.74505805969E-08  0.93827000000E+00  0.93827000000E+00 0.  1.
     999902    2    1    2    0    0  0.17321193202E-01  0.15354443680E-01  0.50926355436E-02  0.10202294175E+01  0.10199540905E+01 0.  0.
     999903    2    3    3    0    0 -0.52766480302E-01 -0.81865525936E-01  0.81904299419E-01  0.12879011155E+00  0.19806887407E-01 0.  0.
         14    1    1    2    0    0 -0.17321193202E-01 -0.15354443680E-01 -0.50926355436E-02  0.23700582512E-01  0.00000000000E+00 0. -1.
     999901    1    3    3    0    0  0.70087673504E-01  0.97219969615E-01 -0.76811663875E-01  0.89143930594E+00  0.88000000000E+00 0. -1.
        -11    1    4    4    0    0 -0.32403786234E-01 -0.32403086169E-01  0.40213332784E-01  0.60969981221E-01  0.51100000000E-03 0. -1.
         11    1    4    4    0    0 -0.20362694069E-01 -0.49462439767E-01  0.41690966635E-01  0.67820130326E-01  0.51100000000E-03 0.  1.
</event>
<event>
 8    1  0.1075206E+005  0.1043930E+01  0.7957747E-01            NaN
         13   -1    0    0    0    0  0.00000000000E+00  0.00000000000E+00  0.74505805969E-08  0.10566000000E+00  0.10566000000E+00 0.  1.
     999900   -1    0    0    0    0 -0.00000000000E+00 -0.00000000000E+00 -0.74505805969E-08  0.93827000000E+00  0.93827000000E+00 0.  1.
     999902    2    1    2    0    0  0.21005977847E-01 -0.80361045440E-02  0.12116624890E-01  0.10183831278E+01  0.10180626465E+01 0.  0.
     999903    2    3    3    0    0  0.31347710612E-02 -0.66488457135E-01 -0.10760978205E+00  0.12817502285E+00  0.20455551034E-01 0.  0.
         14    1    1    2    0    0 -0.21005977847E-01  0.80361045440E-02 -0.12116624890E-01  0.25546872221E-01  0.00000000000E+00 0. -1.
     999901    1    3    3    0    0  0.17871206786E-01  0.58452352591E-01  0.11972640694E+00  0.89020810493E+00  0.88000000000E+00 0. -1.
        -11    1    4    4    0    0 -0.80118765861E-02 -0.40444857318E-01 -0.66530988390E-01  0.78272665644E-01  0.51100000000E-03 0.  1.
         11    1    4    4    0    0  0.11146647647E-01 -0.26043599817E-01 -0.41078793664E-01  0.49902357210E-01  0.51100000000E-03 0. -1.
</event>
<event>
 8    1  0.1075206E+005  0.1043930E+01  0.7957747E-01            NaN
         13   -1    0    0    0    0  0.00000000000E+00  0.00000000000E+00  0.74505805969E-08  0.10566000000E+00  0.10566000000E+00 0.  1.
     999900   -1    0    0    0    0 -0.00000000000E+00 -0.00000000000E+00 -0.74505805969E-08  0.93827000000E+00  0.93827000000E+00 0.  1.
     999902    2    1    2    0    0  0.89959082737E-02  0.62084792954E-02 -0.20869766006E-01  0.10203711648E+01  0.10200991596E+01 0.  0.
     999903    2    3    3    0    0  0.12771778928E+00 -0.11083545376E-01 -0.25485362443E-01  0.13221847365E+00  0.19938465270E-01 0.  0.
         14    1    1    2    0    0 -0.89959082737E-02 -0.62084792954E-02  0.20869766006E-01  0.23558835157E-01  0.00000000000E+00 0.  1.
     999901    1    3    3    0    0 -0.11872188101E+00  0.17292024672E-01  0.46155964369E-02  0.88815269120E+00  0.88000000000E+00 0.  1.
        -11    1    4    4    0    0  0.56253222502E-01  0.47626544197E-02 -0.13403141450E-01  0.58025970399E-01  0.51100000000E-03 0. -1.
         11    1    4    4    0    0  0.71464566781E-01 -0.15846199796E-01 -0.12082220993E-01  0.74192503248E-01  0.51100000000E-03 0.  1.
</event>
<event>
 8    1  0.1075206E+005  0.1043930E+01  0.7957747E-01            NaN
         13   -1    0    0    0    0  0.00000000000E+00  0.00000000000E+00  0.74505805969E-08  0.10566000000E+00  0.10566000000E+00 0. -1.
     999900   -1    0    0    0    0 -0.00000000000E+00 -0.00000000000E+00 -0.74505805969E-08  0.93827000000E+00  0.93827000000E+00 0. -1.
     999902    2    1    2    0    0  0.11760432989E-01 -0.29878503954E-02 -0.10726965141E-01  0.10277342347E+01  0.10276066145E+01 0.  0.
     999903    2    3    3    0    0  0.46468964152E-01 -0.40071708176E-02 -0.12945484512E+00  0.13908242959E+00  0.20247055294E-01 0.  0.
         14    1    1    2    0    0 -0.11760432989E-01  0.29878503954E-02  0.10726965141E-01  0.16195765348E-01  0.00000000000E+00 0. -1.
     999901    1    3    3    0    0 -0.34708531163E-01  0.10193204222E-02  0.11872787998E+00  0.88865180506E+00  0.88000000000E+00 0.  1.
        -11    1    4    4    0    0  0.28561402945E-01 -0.11546244122E-01 -0.89407592594E-01  0.94567691238E-01  0.51100000000E-03 0. -1.
         11    1    4    4    0    0  0.17907561208E-01  0.75390733039E-02 -0.40047252529E-01  0.44514738355E-01  0.51100000000E-03 0.  1.
</event>
<event>
 8    1  0.1075206E+005  0.1043930E+01  0.7957747E-01            NaN
         13   -1    0    0    0    0  0.00000000000E+00  0.00000000000E+00  0.74505805969E-08  0.10566000000E+00  0.10566000000E+00 0.  1.
     999900   -1    0    0    0    0 -0.00000000000E+00 -0.00000000000E+00 -0.74505805969E-08  0.93827000000E+00  0.93827000000E+00 0. -1.
     999902    2    1    2    0    0 -0.71522614027E-02 -0.19239703153E-01  0.66483435270E-03  0.10233931301E+01  0.10231870483E+01 0.  0.
     999903    2    3    3    0    0 -0.10428093666E+00 -0.84314294940E-01  0.38079863397E-02  0.13565524003E+00  0.20110427813E-01 0.  0.
         14    1    1    2    0    0  0.71522614027E-02  0.19239703153E-01 -0.66483435270E-03  0.20536869901E-01  0.00000000000E+00 0. -1.
     999901    1    3    3    0    0  0.97128675257E-01  0.65074591787E-01 -0.31431519870E-02  0.88773789007E+00  0.88000000000E+00 0. -1.
        -11    1    4    4    0    0 -0.41172483716E-01 -0.22813019092E-01  0.63377483012E-02  0.47497741314E-01  0.51100000000E-03 0.  1.
         11    1    4    4    0    0 -0.63108452944E-01 -0.61501275848E-01 -0.25297619615E-02  0.88157498720E-01  0.51100000000E-03 0. -1.
</event>
<event>
 8    1  0.1075206E+005  0.1043930E+01  0.7957747E-01            NaN
         13   -1    0    0    0    0  0.00000000000E+00  0.00000000000E+00  0.74505805969E-08  0.10566000000E+00  0.10566000000E+00 0.  1.
     999900   -1    0    0    0    0 -0.00000000000E+00 -0.00000000000E+00 -0.74505805969E-08  0.93827000000E+00  0.93827000000E+00 0. -1.
     999902    2    1    2    0    0  0.45319700334E-02  0.11667170393E-01 -0.20104031490E-01  0.10202480723E+01  0.10199731836E+01 0.  0.
     999903    2    3    3    0    0  0.57894675222E-01  0.90294577970E-01 -0.76544795584E-01  0.13333465636E+00  0.20349953943E-01 0.  0.
         14    1    1    2    0    0 -0.45319700334E-02 -0.11667170393E-01  0.20104031490E-01  0.23681927699E-01  0.00000000000E+00 0.  1.
     999901    1    3    3    0    0 -0.53362705189E-01 -0.78627407577E-01  0.56440764094E-01  0.88691341594E+00  0.88000000000E+00 0.  1.
        -11    1    4    4    0    0  0.38932741982E-01  0.45303197440E-01 -0.49086788538E-01  0.77316958207E-01  0.51100000000E-03 0.  1.
         11    1    4    4    0    0  0.18961933240E-01  0.44991380530E-01 -0.27458007046E-01  0.56017698151E-01  0.51100000000E-03 0. -1.
</event>
<event>
 8    1  0.1075206E+005  0.1043930E+01  0.7957747E-01            NaN
         13   -1    0    0    0    0  0.00000000000E+00  0.00000000000E+00  0.74505805969E-08  0.10566000000E+00  0.10566000000E+00 0. -1.
     999900   -1    0    0    0    0 -0.00000000000E+00 -0.00000000000E+00 -0.74505805969E-08  0.93827000000E+00  0.93827000000E+00 0.  1.
     999902    2    1    2    0    0 -0.98947660177E-02 -0.15568734152E-01  0.14224663558E-01  0.10206355172E+01  0.10203696516E+01 0.  0.
     999903    2    3    3    0    0 -0.11900433981E+00 -0.53312702614E-01 -0.11475382083E-01  0.13272223389E+00  0.21891318395E-01 0.  0.
         14    1    1    2    0    0  0.98947660177E-02  0.15568734152E-01 -0.14224663558E-01  0.23294482845E-01  0.00000000000E+00 0.  1.
     999901    1    3    3    0    0  0.10910957380E+00  0.37743968462E-01  0.25700045641E-01  0.88791328326E+00  0.88000000000E+00 0.  1.
        -11    1    4    4    0    0 -0.64688770938E-01 -0.26468407768E-01  0.45668067795E-02  0.70045203550E-01  0.51100000000E-03 0.  1.
         11    1    4    4    0    0 -0.54315568875E-01 -0.26844294846E-01 -0.16042188862E-01  0.62677030342E-01  0.51100000000E-03 0. -1.
</event>
<event>
 8    1  0.1075206E+005  0.1043930E+01  0.7957747E-01            NaN
         13   -1    0    0    0    0  0.00000000000E+00  0.00000000000E+00  0.74505805969E-08  0.10566000000E+00  0.10566000000E+00 0.  1.
     999900   -1    0    0    0    0 -0.00000000000E+00 -0.00000000000E+00 -0.74505805969E-08  0.93827000000E+00  0.93827000000E+00 0. -1.
     999902    2    1    2    0    0 -0.17243105304E-01 -0.29845690442E-02 -0.14149098062E-01  0.10214260157E+01  0.10211780825E+01 0.  0.
     999903    2    3    3    0    0  0.97451636128E-01 -0.47906490463E-01 -0.71481938122E-01  0.13099919823E+00  0.16101839872E-01 0.  0.
         14    1    1    2    0    0  0.17243105304E-01  0.29845690442E-02  0.14149098062E-01  0.22503984289E-01  0.00000000000E+00 0. -1.
     999901    1    3    3    0    0 -0.11469474143E+00  0.44921921419E-01  0.57332840060E-01  0.89042681748E+00  0.88000000000E+00 0.  1.
        -11    1    4    4    0    0  0.34219337152E-01 -0.88364720239E-02 -0.20429260130E-01  0.40824772668E-01  0.51100000000E-03 0. -1.
         11    1    4    4    0    0  0.63232298977E-01 -0.39070018440E-01 -0.51052677992E-01  0.90174425564E-01  0.51100000000E-03 0.  1.
</event>
<event>
 8    1  0.1075206E+005  0.1043930E+01  0.7957747E-01            NaN
         13   -1    0    0    0    0  0.00000000000E+00  0.00000000000E+00  0.74505805969E-08  0.10566000000E+00  0.10566000000E+00 0.  1.
     999900   -1    0    0    0    0 -0.00000000000E+00 -0.00000000000E+00 -0.74505805969E-08  0.93827000000E+00  0.93827000000E+00 0.  1.
     999902    2    1    2    0    0  0.66816180418E-02  0.17543027888E-01 -0.13277514494E-01  0.10209366480E+01  0.10206776890E+01 0.  0.
     999903    2    3    3    0    0  0.11883873537E+00 -0.50172659748E-01  0.82338523556E-02  0.13097745101E+00  0.21150781031E-01 0.  0.
         14    1    1    2    0    0 -0.66816180418E-02 -0.17543027888E-01  0.13277514494E-01  0.22993352045E-01  0.00000000000E+00 0.  1.
     999901    1    3    3    0    0 -0.11215711733E+00  0.67715687636E-01 -0.21511366850E-01  0.88995919694E+00  0.88000000000E+00 0. -1.
        -11    1    4    4    0    0  0.81694807535E-02 -0.79827060911E-02  0.50392945003E-02  0.12494783807E-01  0.51100000000E-03 0. -1.
         11    1    4    4    0    0  0.11066925462E+00 -0.42189953657E-01  0.31945578552E-02  0.11848266720E+00  0.51100000000E-03 0.  1.
</event>
<event>
 8    1  0.1075206E+005  0.1043930E+01  0.7957747E-01            NaN
         13   -1    0    0    0    0  0.00000000000E+00  0.00000000000E+00  0.74505805969E-08  0.10566000000E+00  0.10566000000E+00 0. -1.
     999900   -1    0    0    0    0 -0.00000000000E+00 -0.00000000000E+00 -0.74505805969E-08  0.93827000000E+00  0.93827000000E+00 0. -1.
     999902    2    1    2    0    0 -0.97390879742E-02 -0.30256972341E-03  0.18153453680E-01  0.10233268628E+01  0.10231194353E+01 0.  0.
     999903    2    3    3    0    0 -0.18145949964E-01 -0.72875215195E-01 -0.10637416530E+00  0.13156198788E+00  0.18788856358E-01 0.  0.
         14    1    1    2    0    0  0.97390879742E-02  0.30256972341E-03 -0.18153453680E-01  0.20603137225E-01  0.00000000000E+00 0.  1.
     999901    1    3    3    0    0  0.84068619895E-02  0.72572645472E-01  0.12452761898E+00  0.89176487489E+00  0.88000000000E+00 0.  1.
        -11    1    4    4    0    0 -0.12052951235E-01 -0.26684086893E-01 -0.54241882496E-01  0.61642169530E-01  0.51100000000E-03 0.  1.
         11    1    4    4    0    0 -0.60929987291E-02 -0.46191128303E-01 -0.52132282803E-01  0.69919818354E-01  0.51100000000E-03 0. -1.
</event>
<event>
 8    1  0.1075206E+005  0.1043930E+01  0.7957747E-01            NaN
         13   -1    0    0    0    0  0.00000000000E+00  0.00000000000E+00  0.74505805969E-08  0.10566000000E+00  0.10566000000E+00 0.  1.
     999900   -1    0    0    0    0 -0.00000000000E+00 -0.00000000000E+00 -0.74505805969E-08  0.93827000000E+00  0.93827000000E+00 0.  1.
     999902    2    1    2    0    0  0.67280207014E-03 -0.66207384368E-02  0.22502355843E-01  0.10204642194E+01  0.10201943836E+01 0.  0.
     999903    2    3    3    0    0 -0.36946457403E-01 -0.10862248608E+00 -0.58029468522E-01  0.13012443038E+00  0.20026556536E-01 0.  0.
         14    1    1    2    0    0 -0.67280207014E-03  0.66207384368E-02 -0.22502355843E-01  0.23465780587E-01  0.00000000000E+00 0. -1.
     999901    1    3    3    0    0  0.37619259473E-01  0.10200174764E+00  0.80531824365E-01  0.89033978904E+00  0.88000000000E+00 0. -1.
        -11    1    4    4    0    0 -0.28672163338E-01 -0.78789993962E-01 -0.51751723534E-01  0.98531508203E-01  0.51100000000E-03 0. -1.
         11    1    4    4    0    0 -0.82742940646E-02 -0.29832492119E-01 -0.62777449887E-02  0.31592922174E-01  0.51100000000E-03 0.  1.
</event>
<event>
 8    1  0.1225862E+005  0.1043930E+01  0.7957747E-01            NaN
         13   -1    0    0    0    0  0.00000000000E+00  0.00000000000E+00  0.74505805969E-08  0.10566000000E+00  0.10566000000E+00 0. -1.
     999900   -1    0    0    0    0 -0.00000000000E+00 -0.00000000000E+00 -0.74505805969E-08  0.93827000000E+00  0.93827000000E+00 0. -1.
     999902    2    1    2    0    0  0.18504494509E-02 -0.14759358769E-01 -0.18594570233E-01  0.10201177998E+01  0.10198398427E+01 0.  0.
     999903    2    3    3    0    0  0.86246649197E-01  0.80513225479E-01  0.46907200534E-01  0.12855172499E+00  0.20109613663E-01 0.  0.
         14    1    1    2    0    0 -0.18504494509E-02  0.14759358769E-01  0.18594570233E-01  0.23812200163E-01  0.00000000000E+00 0. -1.
     999901    1    3    3    0    0 -0.84396199746E-01 -0.95272584248E-01 -0.65501770767E-01  0.89156607485E+00  0.88000000000E+00 0. -1.
        -11    1    4    4    0    0  0.40956308863E-01  0.51393461373E-01  0.22879917580E-01  0.69587778073E-01  0.51100000000E-03 0.  1.
         11    1    4    4    0    0  0.45290340334E-01  0.29119764106E-01  0.24027282954E-01  0.58963946919E-01  0.51100000000E-03 0. -1.
</event>
<event>
 8    1  0.1075206E+005  0.1043930E+01  0.7957747E-01            NaN
         13   -1    0    0    0    0  0.00000000000E+00  0.00000000000E+00  0.74505805969E-08  0.10566000000E+00  0.10566000000E+00 0. -1.
     999900   -1    0    0    0    0 -0.00000000000E+00 -0.00000000000E+00 -0.74505805969E-08  0.93827000000E+00  0.93827000000E+00 0. -1.
     999902    2    1    2    0    0  0.86431547648E-02  0.13124932361E-01  0.17912949259E-01  0.10201005702E+01  0.10198222059E+01 0.  0.
     999903    2    3    3    0    0  0.10353723826E+00  0.73241733389E-01  0.34259044442E-01  0.13280912333E+00  0.19500510207E-01 0.  0.
         14    1    1    2    0    0 -0.86431547648E-02 -0.13124932361E-01 -0.17912949259E-01  0.23829429807E-01  0.00000000000E+00 0.  1.
     999901    1    3    3    0    0 -0.94894083491E-01 -0.60116801028E-01 -0.16346095184E-01  0.88729144686E+00  0.88000000000E+00 0.  1.
        -11    1    4    4    0    0  0.62207684962E-02  0.40455751341E-02 -0.25353633731E-02  0.78583603432E-02  0.51100000000E-03 0. -1.
         11    1    4    4    0    0  0.97316469760E-01  0.69196158255E-01  0.36794407815E-01  0.12495076299E+00  0.51100000000E-03 0.  1.
</event>
<event>
 8    1  0.1075206E+005  0.1043930E+01  0.7957747E-01            NaN
         13   -1    0    0    0    0  0.00000000000E+00  0.00000000000E+00  0.74505805969E-08  0.10566000000E+00  0.10566000000E+00 0.  1.
     999900   -1    0    0    0    0 -0.00000000000E+00 -0.00000000000E+00 -0.74505805969E-08  0.93827000000E+00  0.93827000000E+00 0. -1.
     999902    2    1    2    0    0  0.94196333810E-02 -0.19701837760E-02  0.22391879079E-01  0.10195577337E+01  0.10192663857E+01 0.  0.
     999903    2    3    3    0    0  0.81140001178E-01 -0.12097880320E-01  0.10259354505E+00  0.13294694611E+00  0.20479172253E-01 0.  0.
         14    1    1    2    0    0 -0.94196333810E-02  0.19701837760E-02 -0.22391879079E-01  0.24372266325E-01  0.00000000000E+00 0. -1.
     999901    1    3    3    0    0 -0.71720367797E-01  0.10127696544E-01 -0.80201665970E-01  0.88661078756E+00  0.88000000000E+00 0. -1.
        -11    1    4    4    0    0  0.48302884570E-02  0.80169989185E-03  0.16319835161E-01  0.17046188723E-01  0.51100000000E-03 0.  1.
         11    1    4    4    0    0  0.76309712721E-01 -0.12899580212E-01  0.86273709888E-01  0.11590075739E+00  0.51100000000E-03 0. -1.
</event>
<event>
 8    1  0.1075206E+005  0.1043930E+01  0.7957747E-01            NaN
         13   -1    0    0    0    0  0.00000000000E+00  0.00000000000E+00  0.74505805969E-08  0.10566000000E+00  0.10566000000E+00 0.  1.
     999900   -1    0    0    0    0 -0.00000000000E+00 -0.00000000000E+00 -0.74505805969E-08  0.93827000000E+00  0.93827000000E+00 0.  1.
     999902    2    1    2    0    0  0.98195305845E-02 -0.80717725796E-02 -0.20162981806E-01  0.10200946790E+01  0.10198161754E+01 0.  0.
     999903    2    3    3    0    0 -0.71704774229E-01  0.80950530133E-01  0.64727597824E-01  0.12780683686E+00  0.21221749523E-01 0.  0.
         14    1    1    2    0    0 -0.98195305845E-02  0.80717725796E-02  0.20162981806E-01  0.23835321034E-01  0.00000000000E+00 0.  1.
     999901    1    3    3    0    0  0.81524304813E-01 -0.89022302713E-01 -0.84890579630E-01  0.89228784210E+00  0.88000000000E+00 0.  1.
        -11    1    4    4    0    0 -0.46101222397E-01  0.59120854021E-01  0.34324886749E-01  0.82456394889E-01  0.51100000000E-03 0.  1.
         11    1    4    4    0    0 -0.25603551832E-01  0.21829676112E-01  0.30402711075E-01  0.45350441974E-01  0.51100000000E-03 0. -1.
</event>
<event>
 8    1  0.1075206E+005  0.1043930E+01  0.7957747E-01            NaN
         13   -1    0    0    0    0  0.00000000000E+00  0.00000000000E+00  0.74505805969E-08  0.10566000000E+00  0.10566000000E+00 0.  1.
     999900   -1    0    0    0    0 -0.00000000000E+00 -0.00000000000E+00 -0.74505805969E-08  0.93827000000E+00  0.93827000000E+00 0. -1.
     999902    2    1    2    0    0  0.36272895874E-02  0.18657349896E-01 -0.12220586007E-01  0.10213336141E+01  0.10210836178E+01 0.  0.
     999903    2    3    3    0    0 -0.54438340150E-01  0.58820130368E-01 -0.10495912701E+00  0.13364836395E+00  0.20545710705E-01 0.  0.
         14    1    1    2    0    0 -0.36272895874E-02 -0.18657349896E-01  0.12220586007E-01  0.22596385933E-01  0.00000000000E+00 0.  1.
     999901    1    3    3    0    0  0.58065629737E-01 -0.40162780472E-01  0.92738541003E-01  0.88768525012E+00  0.88000000000E+00 0.  1.
        -11    1    4    4    0    0 -0.30664980865E-01  0.25081099589E-01 -0.65469976135E-01  0.76524385030E-01  0.51100000000E-03 0.  1.
         11    1    4    4    0    0 -0.23773359285E-01  0.33739030779E-01 -0.39489150875E-01  0.57123978918E-01  0.51100000000E-03 0. -1.
</event>
<event>
 8    1  0.1075206E+005  0.1043930E+01  0.7957747E-01            NaN
         13   -1    0    0    0    0  0.00000000000E+00  0.00000000000E+00  0.74505805969E-08  0.10566000000E+00  0.10566000000E+00 0. -1.
     999900   -1    0    0    0    0 -0.00000000000E+00 -0.00000000000E+00 -0.74505805969E-08  0.93827000000E+00  0.93827000000E+00 0.  1.
     999902    2    1    2    0    0  0.18869204151E-02 -0.20927964374E-01  0.11734675557E-01  0.10198625371E+01  0.10195785167E+01 0.  0.
     999903    2    3    3    0    0  0.75449412051E-01  0.79962399585E-01  0.66181929112E-01  0.12938243671E+00  0.16527796644E-01 0.  0.
         14    1    1    2    0    0 -0.18869204151E-02  0.20927964374E-01 -0.11734675557E-01  0.24067462931E-01  0.00000000000E+00 0.  1.
     999901    1    3    3    0    0 -0.73562491635E-01 -0.10089036396E+00 -0.54447253554E-01  0.89048010036E+00  0.88000000000E+00 0.  1.
        -11    1    4    4    0    0  0.26389598632E-01  0.22050453250E-01  0.28372415115E-01  0.44585742844E-01  0.51100000000E-03 0.  1.
         11    1    4    4    0    0  0.49059813419E-01  0.57911946335E-01  0.37809513997E-01  0.84796693866E-01  0.51100000000E-03 0. -1.
</event>
<event>
 8    1  0.1075206E+005  0.1043930E+01  0.7957747E-01            NaN
         13   -1    0    0    0    0  0.00000000000E+00  0.00000000000E+00  0.74505805969E-08  0.10566000000E+00  0.10566000000E+00 0. -1.
     999900   -1    0    0    0    0 -0.00000000000E+00 -0.00000000000E+00 -0.74505805969E-08  0.93827000000E+00  0.93827000000E+00 0.  1.
     999902    2    1    2    0    0 -0.19123393581E-01 -0.17011328018E-01  0.60402932644E-02  0.10176321939E+01  0.10172923412E+01 0.  0.
     999903    2    3    3    0    0  0.12418562116E+00 -0.41952302686E-02 -0.61178434872E-02  0.12586454123E+00  0.19099378776E-01 0.  0.
         14    1    1    2    0    0  0.19123393581E-01  0.17011328018E-01 -0.60402932644E-02  0.26297806100E-01  0.00000000000E+00 0.  1.
     999901    1    3    3    0    0 -0.14330901474E+00 -0.12816097749E-01  0.12158136752E-01  0.89176765267E+00  0.88000000000E+00 0. -1.
        -11    1    4    4    0    0  0.10098793430E+00  0.25372716551E-02 -0.95079661799E-02  0.10146754734E+00  0.51100000000E-03 0. -1.
         11    1    4    4    0    0  0.23197686857E-01 -0.67325019236E-02  0.33901226927E-02  0.24396993883E-01  0.51100000000E-03 0.  1.
</event>
<event>
 8    1  0.1075206E+005  0.1043930E+01  0.7957747E-01            NaN
         13   -1    0    0    0    0  0.00000000000E+00  0.00000000000E+00  0.74505805969E-08  0.10566000000E+00  0.10566000000E+00 0.  1.
     999900   -1    0    0    0    0 -0.00000000000E+00 -0.00000000000E+00 -0.74505805969E-08  0.93827000000E+00  0.93827000000E+00 0. -1.
     999902    2    1    2    0    0  0.16044460196E-01 -0.16398574766E-01 -0.57963840880E-02  0.10202670326E+01  0.10199925891E+01 0.  0.
     999903    2    3    3    0    0  0.60729736632E-01 -0.10942559811E+00  0.40442103656E-01  0.13303042451E+00  0.19986687156E-01 0.  0.
         14    1    1    2    0    0 -0.16044460196E-01  0.16398574766E-01  0.57963840880E-02  0.23662967393E-01  0.00000000000E+00 0. -1.
     999901    1    3    3    0    0 -0.44685276436E-01  0.93027023345E-01 -0.46238487744E-01  0.88723660810E+00  0.88000000000E+00 0. -1.
        -11    1    4    4    0    0  0.25788818973E-01 -0.59230684016E-01  0.28975920673E-01  0.70803970319E-01  0.51100000000E-03 0.  1.
         11    1    4    4    0    0  0.34940917659E-01 -0.50194914094E-01  0.11466182983E-01  0.62226454189E-01  0.51100000000E-03 0. -1.
</event>
<event>
 8    1  0.1075206E+005  0.1043930E+01  0.7957747E-01            NaN
         13   -1    0    0    0    0  0.00000000000E+00  0.00000000000E+00  0.74505805969E-08  0.10566000000E+00  0.10566000000E+00 0.  1.
     999900   -1    0    0    0    0 -0.00000000000E+00 -0.00000000000E+00 -0.74505805969E-08  0.93827000000E+00  0.93827000000E+00 0. -1.
     999902    2    1    2    0    0 -0.12343527866E-01 -0.20043792592E-01  0.37643039799E-02  0.10200912440E+01  0.10198126592E+01 0.  0.
     999903    2    3    3    0    0  0.96232048611E-01  0.17542128059E-01 -0.81082582596E-01  0.12857548343E+00  0.19721468058E-01 0.  0.
         14    1    1    2    0    0  0.12343527866E-01  0.20043792592E-01 -0.37643039799E-02  0.23838755968E-01  0.00000000000E+00 0.  1.
     999901    1    3    3    0    0 -0.10857557648E+00 -0.37585920651E-01  0.84846886576E-01  0.89151576060E+00  0.88000000000E+00 0.  1.
        -11    1    4    4    0    0  0.61649333891E-01  0.15632149060E-02 -0.51222235787E-01  0.80168962635E-01  0.51100000000E-03 0. -1.
         11    1    4    4    0    0  0.34582714720E-01  0.15978913153E-01 -0.29860346809E-01  0.48406520796E-01  0.51100000000E-03 0.  1.
</event>
<event>
 8    1  0.1075206E+005  0.1043930E+01  0.7957747E-01            NaN
         13   -1    0    0    0    0  0.00000000000E+00  0.00000000000E+00  0.74505805969E-08  0.10566000000E+00  0.10566000000E+00 0.  1.
     999900   -1    0    0    0    0 -0.00000000000E+00 -0.00000000000E+00 -0.74505805969E-08  0.93827000000E+00  0.93827000000E+00 0. -1.
     999902    2    1    2    0    0  0.12741531525E-01  0.18755061402E-01 -0.61968722137E-02  0.10204246776E+01  0.10201539210E+01 0.  0.
     999903    2    3    3    0    0  0.11856361864E+00 -0.46590436418E-01 -0.27276194802E-01  0.13142935367E+00  0.17369046384E-01 0.  0.
         14    1    1    2    0    0 -0.12741531525E-01 -0.18755061402E-01  0.61968722137E-02  0.23505322356E-01  0.00000000000E+00 0.  1.
     999901    1    3    3    0    0 -0.10582208712E+00  0.65345497820E-01  0.21079322589E-01  0.88899532397E+00  0.88000000000E+00 0. -1.
        -11    1    4    4    0    0  0.36741268897E-01 -0.23179985425E-01 -0.82542581847E-02  0.44222465599E-01  0.51100000000E-03 0. -1.
         11    1    4    4    0    0  0.81822349744E-01 -0.23410450993E-01 -0.19021936618E-01  0.87206888071E-01  0.51100000000E-03 0.  1.
</event>
<event>
 8    1  0.1075206E+005  0.1043930E+01  0.7957747E-01            NaN
         13   -1    0    0    0    0  0.00000000000E+00  0.00000000000E+00  0.74505805969E-08  0.10566000000E+00  0.10566000000E+00 0. -1.
     999900   -1    0    0    0    0 -0.00000000000E+00 -0.00000000000E+00 -0.74505805969E-08  0.93827000000E+00  0.93827000000E+00 0.  1.
     999902    2    1    2    0    0 -0.21891517438E-01  0.36560804024E-02  0.75368674403E-02  0.10204905070E+01  0.10202212824E+01 0.  0.
     999903    2    3    3    0    0 -0.69947276338E-01 -0.16983964795E-01 -0.10761815884E+00  0.13144829909E+00  0.22713667542E-01 0.  0.
         14    1    1    2    0    0  0.21891517438E-01 -0.36560804024E-02 -0.75368674403E-02  0.23439492965E-01  0.00000000000E+00 0. -1.
     999901    1    3    3    0    0  0.48055758900E-01  0.20640045198E-01  0.11515502629E+00  0.88904220795E+00  0.88000000000E+00 0. -1.
        -11    1    4    4    0    0 -0.55944955608E-01 -0.12634030313E-01 -0.66645126432E-01  0.87927758859E-01  0.51100000000E-03 0. -1.
         11    1    4    4    0    0 -0.14002320730E-01 -0.43499344826E-02 -0.40973032413E-01  0.43520540230E-01  0.51100000000E-03 0.  1.
</event>
<event>
 8    1  0.1075206E+005  0.1043930E+01  0.7957747E-01            NaN
         13   -1    0    0    0    0  0.00000000000E+00  0.00000000000E+00  0.74505805969E-08  0.10566000000E+00  0.10566000000E+00 0.  1.
     999900   -1    0    0    0    0 -0.00000000000E+00 -0.00000000000E+00 -0.74505805969E-08  0.93827000000E+00  0.93827000000E+00 0.  1.
     999902    2    1    2    0    0  0.13944827619E-01 -0.32054774956E-02 -0.16512154730E-01  0.10220808683E+01  0.10218473060E+01 0.  0.
     999903    2    3    3    0    0  0.10040651979E+00 -0.55543917001E-01 -0.67658721181E-01  0.13482053009E+00  0.20791268577E-01 0.  0.
         14    1    1    2    0    0 -0.13944827619E-01  0.32054774956E-02  0.16512154730E-01  0.21849131725E-01  0.00000000000E+00 0.  1.
     999901    1    3    3    0    0 -0.86461692170E-01  0.52338439506E-01  0.51146566450E-01  0.88726033819E+00  0.88000000000E+00 0. -1.
        -11    1    4    4    0    0  0.58643102696E-01 -0.39413632799E-01 -0.31928015600E-01  0.77537779472E-01  0.51100000000E-03 0. -1.
         11    1    4    4    0    0  0.41763417093E-01 -0.16130284203E-01 -0.35730705581E-01  0.57282750615E-01  0.51100000000E-03 0.  1.
</event>
<event>
 8    1  0.1075206E+005  0.1043930E+01  0.7957747E-01            NaN
         13   -1    0    0    0    0  0.00000000000E+00  0.00000000000E+00  0.74505805969E-08  0.10566000000E+00  0.10566000000E+00 0. -1.
     999900   -1    0    0    0    0 -0.00000000000E+00 -0.00000000000E+00 -0.74505805969E-08  0.93827000000E+00  0.93827000000E+00 0. -1.
     999902    2    1    2    0    0 -0.14523817001E-01 -0.13085801330E-02 -0.18616762052E-01  0.10202817977E+01  0.10200077006E+01 0.  0.
     999903    2    3    3    0    0  0.11046105741E+00 -0.63233615457E-01 -0.10322104356E-01  0.12925725811E+00  0.20018931212E-01 0.  0.
         14    1    1    2    0    0  0.14523817001E-01  0.13085801330E-02  0.18616762052E-01  0.23648202290E-01  0.00000000000E+00 0. -1.
     999901    1    3    3    0    0 -0.12498487441E+00  0.61925035324E-01 -0.82946576964E-02  0.89102453960E+00  0.88000000000E+00 0. -1.
        -11    1    4    4    0    0  0.98972746676E-01 -0.56200441553E-01 -0.28673356959E-02  0.11385331330E+00  0.51100000000E-03 0.  1.
         11    1    4    4    0    0  0.11488310733E-01 -0.70331739036E-02 -0.74547686599E-02  0.15403944801E-01  0.51100000000E-03 0. -1.
</event>
<event>
 8    1  0.1075206E+005  0.1043930E+01  0.7957747E-01            NaN
         13   -1    0    0    0    0  0.00000000000E+00  0.00000000000E+00  0.74505805969E-08  0.10566000000E+00  0.10566000000E+00 0. -1.
     999900   -1    0    0    0    0 -0.00000000000E+00 -0.00000000000E+00 -0.74505805969E-08  0.93827000000E+00  0.93827000000E+00 0. -1.
     999902    2    1    2    0    0  0.17389486456E-01 -0.13991481770E-01 -0.12152445584E-02  0.10215775366E+01  0.10213329676E+01 0.  0.
     999903    2    3    3    0    0 -0.18213214320E-01 -0.70082922117E-01  0.10895238176E+00  0.13222344070E+00  0.19211445303E-01 0.  0.
         14    1    1    2    0    0 -0.17389486456E-01  0.13991481770E-01  0.12152445584E-02  0.22352463414E-01  0.00000000000E+00 0.  1.
     999901    1    3    3    0    0  0.35602700777E-01  0.56091440347E-01 -0.11016762632E+00  0.88935409589E+00  0.88000000000E+00 0. -1.
        -11    1    4    4    0    0 -0.97624354973E-02 -0.36743570542E-01  0.40117953258E-01  0.55273017085E-01  0.51100000000E-03 0. -1.
         11    1    4    4    0    0 -0.84507788230E-02 -0.33339351574E-01  0.68834428502E-01  0.76950423614E-01  0.51100000000E-03 0.  1.
</event>
<event>
 8    1  0.1075206E+005  0.1043930E+01  0.7957747E-01            NaN
         13   -1    0    0    0    0  0.00000000000E+00  0.00000000000E+00  0.74505805969E-08  0.10566000000E+00  0.10566000000E+00 0. -1.
     999900   -1    0    0    0    0 -0.00000000000E+00 -0.00000000000E+00 -0.74505805969E-08  0.93827000000E+00  0.93827000000E+00 0. -1.
     999902    2    1    2    0    0 -0.25986987909E-01  0.15726794817E-01  0.42930381376E-02  0.10132528784E+01  0.10127883835E+01 0.  0.
     999903    2    3    3    0    0  0.66602703663E-01  0.44922269564E-01 -0.90810812577E-01  0.12282041649E+00  0.19604096189E-01 0.  0.
         14    1    1    2    0    0  0.25986987909E-01 -0.15726794817E-01 -0.42930381376E-02  0.30677121643E-01  0.00000000000E+00 0. -1.
     999901    1    3    3    0    0 -0.92589691572E-01 -0.29195474746E-01  0.95103850714E-01  0.89043246187E+00  0.88000000000E+00 0.  1.
        -11    1    4    4    0    0  0.11162623290E-01  0.65743142997E-02 -0.27210222222E-01  0.30141053094E-01  0.51100000000E-03 0.  1.
         11    1    4    4    0    0  0.55440080372E-01  0.38347955264E-01 -0.63600590355E-01  0.92679363394E-01  0.51100000000E-03 0. -1.
</event>
<event>
 8    1  0.1075206E+005  0.1043930E+01  0.7957747E-01            NaN
         13   -1    0    0    0    0  0.00000000000E+00  0.00000000000E+00  0.74505805969E-08  0.10566000000E+00  0.10566000000E+00 0. -1.
     999900   -1    0    0    0    0 -0.00000000000E+00 -0.00000000000E+00 -0.74505805969E-08  0.93827000000E+00  0.93827000000E+00 0. -1.
     999902    2    1    2    0    0 -0.19926723177E-01 -0.15583647466E-02 -0.79104165903E-02  0.10224340123E+01  0.10222080180E+01 0.  0.
     999903    2    3    3    0    0  0.97063515803E-01  0.49172007318E-01 -0.70265475735E-01  0.13105954548E+00  0.20003874066E-01 0.  0.
         14    1    1    2    0    0  0.19926723177E-01  0.15583647466E-02  0.79104165903E-02  0.21495987716E-01  0.00000000000E+00 0.  1.
     999901    1    3    3    0    0 -0.11699023898E+00 -0.50730372065E-01  0.62355059145E-01  0.89137446680E+00  0.88000000000E+00 0.  1.
        -11    1    4    4    0    0  0.67016060903E-01  0.43408819751E-01 -0.54129461612E-01  0.96466252061E-01  0.51100000000E-03 0. -1.
         11    1    4    4    0    0  0.30047454900E-01  0.57631875670E-02 -0.16136014123E-01  0.34593293421E-01  0.51100000000E-03 0.  1.
</event>
<event>
 8    1  0.1075206E+005  0.1043930E+01  0.7957747E-01            NaN
         13   -1    0    0    0    0  0.00000000000E+00  0.00000000000E+00  0.74505805969E-08  0.10566000000E+00  0.10566000000E+00 0.  1.
     999900   -1    0    0    0    0 -0.00000000000E+00 -0.00000000000E+00 -0.74505805969E-08  0.93827000000E+00  0.93827000000E+00 0. -1.
     999902    2    1    2    0    0 -0.84441934919E-02  0.40467623681E-02  0.22256736412E-01  0.10197837165E+01  0.10194978104E+01 0.  0.
     999903    2    3    3    0    0 -0.39815262984E-01  0.30297836591E-01 -0.11607604858E+00  0.12803867321E+00  0.20421525742E-01 0.  0.
         14    1    1    2    0    0  0.84441934919E-02 -0.40467623681E-02 -0.22256736412E-01  0.24146283463E-01  0.00000000000E+00 0. -1.
     999901    1    3    3    0    0  0.31371069492E-01 -0.26251074223E-01  0.13833278499E+00  0.89174504333E+00  0.88000000000E+00 0.  1.
        -11    1    4    4    0    0 -0.13149816052E-01 -0.39286717969E-03 -0.33524707652E-01  0.36017206318E-01  0.51100000000E-03 0. -1.
         11    1    4    4    0    0 -0.26665446932E-01  0.30690703771E-01 -0.82551340930E-01  0.92021466889E-01  0.51100000000E-03 0.  1.
</event>
<event>
 8    1  0.1075206E+005  0.1043930E+01  0.7957747E-01            NaN
         13   -1    0    0    0    0  0.00000000000E+00  0.00000000000E+00  0.74505805969E-08  0.10566000000E+00  0.10566000000E+00 0.  1.
     999900   -1    0    0    0    0 -0.00000000000E+00 -0.00000000000E+00 -0.74505805969E-08  0.93827000000E+00  0.93827000000E+00 0.  1.
     999902    2    1    2    0    0 -0.77662374588E-02  0.55512753144E-02  0.21729211277E-01  0.10201962745E+01  0.10199201679E+01 0.  0.
     999903    2    3    3    0    0 -0.54594927776E-01  0.96231405632E-01 -0.65762439339E-01  0.12998809596E+00  0.18196623161E-01 0.  0.
         14    1    1    2    0    0  0.77662374588E-02 -0.55512753144E-02 -0.21729211277E-01  0.23733725468E-01  0.00000000000E+00 0. -1.
     999901    1    3    3    0    0  0.46828690317E-01 -0.90680130318E-01  0.87491650616E-01  0.89020817857E+00  0.88000000000E+00 0. -1.
        -11    1    4    4    0    0 -0.41379401473E-01  0.69011029289E-01 -0.38281823553E-01  0.89109686148E-01  0.51100000000E-03 0. -1.
         11    1    4    4    0    0 -0.13215526302E-01  0.27220376343E-01 -0.27480615786E-01  0.40878409811E-01  0.51100000000E-03 0.  1.
</event>
<event>
 8    1  0.1075206E+005  0.1043930E+01  0.7957747E-01            NaN
         13   -1    0    0    0    0  0.00000000000E+00  0.00000000000E+00  0.74505805969E-08  0.10566000000E+00  0.10566000000E+00 0. -1.
     999900   -1    0    0    0    0 -0.00000000000E+00 -0.00000000000E+00 -0.74505805969E-08  0.93827000000E+00  0.93827000000E+00 0.  1.
     999902    2    1    2    0    0  0.12517258274E-01 -0.79087906833E-02  0.21755377564E-01  0.10176140889E+01  0.10172737619E+01 0.  0.
     999903    2    3    3    0    0 -0.88638447668E-01  0.30138813445E-01 -0.80626463577E-01  0.12511079006E+00  0.19671316154E-01 0.  0.
         14    1    1    2    0    0 -0.12517258274E-01  0.79087906833E-02 -0.21755377564E-01  0.26315911113E-01  0.00000000000E+00 0.  1.
     999901    1    3    3    0    0  0.10115570594E+00 -0.38047604128E-01  0.10238184114E+00  0.89250329883E+00  0.88000000000E+00 0. -1.
        -11    1    4    4    0    0 -0.70699179409E-01  0.27550485554E-01 -0.54989769203E-01  0.93709866404E-01  0.51100000000E-03 0. -1.
         11    1    4    4    0    0 -0.17939268259E-01  0.25883278905E-02 -0.25636694374E-01  0.31400923655E-01  0.51100000000E-03 0.  1.
</event>
<event>
 8    1  0.1075206E+005  0.1043930E+01  0.7957747E-01            NaN
         13   -1    0    0    0    0  0.00000000000E+00  0.00000000000E+00  0.74505805969E-08  0.10566000000E+00  0.10566000000E+00 0.  1.
     999900   -1    0    0    0    0 -0.00000000000E+00 -0.00000000000E+00 -0.74505805969E-08  0.93827000000E+00  0.93827000000E+00 0.  1.
     999902    2    1    2    0    0  0.18827400430E-01  0.11574677550E-01 -0.23814391523E-02  0.10217012929E+01  0.10214594542E+01 0.  0.
     999903    2    3    3    0    0  0.93761537003E-02  0.11702089542E+00  0.59544086808E-01  0.13319524244E+00  0.20338930924E-01 0.  0.
         14    1    1    2    0    0 -0.18827400430E-01 -0.11574677550E-01  0.23814391523E-02  0.22228707110E-01  0.00000000000E+00 0.  1.
     999901    1    3    3    0    0  0.94512467300E-02 -0.10544621787E+00 -0.61925525960E-01  0.88850605045E+00  0.88000000000E+00 0.  1.
        -11    1    4    4    0    0  0.14869748377E-01  0.58856953334E-01  0.31260088514E-01  0.68283999790E-01  0.51100000000E-03 0.  1.
         11    1    4    4    0    0 -0.54935946762E-02  0.58163942085E-01  0.28283998294E-01  0.64911242646E-01  0.51100000000E-03 0. -1.
</event>
<event>
 8    1  0.1075206E+005  0.1043930E+01  0.7957747E-01            NaN
         13   -1    0    0    0    0  0.00000000000E+00  0.00000000000E+00  0.74505805969E-08  0.10566000000E+00  0.10566000000E+00 0.  1.
     999900   -1    0    0    0    0 -0.00000000000E+00 -0.00000000000E+00 -0.74505805969E-08  0.93827000000E+00  0.93827000000E+00 0. -1.
     999902    2    1    2    0    0 -0.16072951195E-03  0.22883829182E-01  0.50862683884E-02  0.10204871845E+01  0.10202178827E+01 0.  0.
     999903    2    3    3    0    0 -0.47562892644E-01 -0.10630987462E+00  0.50670870370E-01  0.12862624574E+00  0.20326234016E-01 0.  0.
         14    1    1    2    0    0  0.16072951195E-03 -0.22883829182E-01 -0.50862683884E-02  0.23442815490E-01  0.00000000000E+00 0. -1.
     999901    1    3    3    0    0  0.47402163132E-01  0.12919370380E+00 -0.45584601981E-01  0.89186093877E+00  0.88000000000E+00 0. -1.
        -11    1    4    4    0    0 -0.39068262724E-01 -0.10072669887E+00  0.45887115241E-01  0.11738008981E+00  0.51100000000E-03 0.  1.
         11    1    4    4    0    0 -0.84946299208E-02 -0.55831757483E-02  0.47837551280E-02  0.11246155923E-01  0.51100000000E-03 0. -1.
</event>
<event>
 7    1  0.1301835E+005  0.1043930E+01  0.7957747E-01            NaN
         13   -1    0    0    0    0  0.00000000000E+00  0.00000000000E+00  0.74505805969E-08  0.10566000000E+00  0.10566000000E+00 0.  1.
     999900   -1    0    0    0    0 -0.00000000000E+00 -0.00000000000E+00 -0.74505805969E-08  0.93827000000E+00  0.93827000000E+00 0. -1.
     999903    2    1    2    0    0  0.37566032069E-01  0.17183813807E-01  0.37096926692E-01  0.58830831868E-01  0.19452367104E-01 0.  0.
         14    1    1    2    0    0  0.62009010786E-01  0.10499812854E-01 -0.75445847411E-01  0.98221379446E-01  0.00000000000E+00 0. -1.
     999901    1    1    2    0    0 -0.99575042855E-01 -0.27683626661E-01  0.38348920719E-01  0.88687778869E+00  0.88000000000E+00 0. -1.
        -11    1    3    3    0    0  0.25197223846E-01  0.16715105111E-02  0.25265559137E-01  0.35725392040E-01  0.51100000000E-03 0. -1.
         11    1    3    3    0    0  0.12368808222E-01  0.15512303296E-01  0.11831367555E-01  0.23105439828E-01  0.51100000000E-03 0.  1.
</event>
<event>
 8    1  0.1075206E+005  0.1043930E+01  0.7957747E-01            NaN
         13   -1    0    0    0    0  0.00000000000E+00  0.00000000000E+00  0.74505805969E-08  0.10566000000E+00  0.10566000000E+00 0.  1.
     999900   -1    0    0    0    0 -0.00000000000E+00 -0.00000000000E+00 -0.74505805969E-08  0.93827000000E+00  0.93827000000E+00 0.  1.
     999902    2    1    2    0    0  0.13219603733E-01 -0.19582004979E-01 -0.48298683929E-02  0.10198148498E+01  0.10195296893E+01 0.  0.
     999903    2    3    3    0    0  0.11111290645E+00 -0.67225354254E-01  0.18146191104E-01  0.13280814926E+00  0.21056923431E-01 0.  0.
         14    1    1    2    0    0 -0.13219603733E-01  0.19582004979E-01  0.48298683929E-02  0.24115150229E-01  0.00000000000E+00 0. -1.
     999901    1    3    3    0    0 -0.97893302712E-01  0.47643349275E-01 -0.22976059496E-01  0.88700670051E+00  0.88000000000E+00 0.  1.
        -11    1    4    4    0    0  0.13833290716E-01 -0.43523139293E-02 -0.36087269551E-02  0.14952812438E-01  0.51100000000E-03 0.  1.
         11    1    4    4    0    0  0.97279615729E-01 -0.62873040324E-01  0.21754918059E-01  0.11785533682E+00  0.51100000000E-03 0. -1.
</event>
<event>
 8    1  0.1075206E+005  0.1043930E+01  0.7957747E-01            NaN
         13   -1    0    0    0    0  0.00000000000E+00  0.00000000000E+00  0.74505805969E-08  0.10566000000E+00  0.10566000000E+00 0. -1.
     999900   -1    0    0    0    0 -0.00000000000E+00 -0.00000000000E+00 -0.74505805969E-08  0.93827000000E+00  0.93827000000E+00 0.  1.
     999902    2    1    2    0    0 -0.85352319928E-03 -0.25738075907E-02 -0.23815559798E-01  0.10199605637E+01  0.10196788797E+01 0.  0.
     999903    2    3    3    0    0  0.12192608061E+00 -0.95717994102E-02  0.36434566788E-01  0.12936869268E+00  0.21241292608E-01 0.  0.
         14    1    1    2    0    0  0.85352319928E-03  0.25738075907E-02  0.23815559798E-01  0.23969436286E-01  0.00000000000E+00 0. -1.
     999901    1    3    3    0    0 -0.12277960381E+00  0.69979918195E-02 -0.60250126586E-01  0.89059187104E+00  0.88000000000E+00 0.  1.
        -11    1    4    4    0    0  0.52354389657E-01 -0.63267903996E-02  0.26477798843E-01  0.59011400133E-01  0.51100000000E-03 0. -1.
         11    1    4    4    0    0  0.69571690952E-01 -0.32450090106E-02  0.99567679457E-02  0.70357292545E-01  0.51100000000E-03 0.  1.
</event>
<event>
 8    1  0.1075206E+005  0.1043930E+01  0.7957747E-01            NaN
         13   -1    0    0    0    0  0.00000000000E+00  0.00000000000E+00  0.74505805969E-08  0.10566000000E+00  0.10566000000E+00 0. -1.
     999900   -1    0    0    0    0 -0.00000000000E+00 -0.00000000000E+00 -0.74505805969E-08  0.93827000000E+00  0.93827000000E+00 0. -1.
     999902    2    1    2    0    0  0.51578863701E-02  0.20284725618E-01 -0.12423963451E-01  0.10195901407E+01  0.10192995763E+01 0.  0.
     999903    2    3    3    0    0  0.89050046313E-03 -0.86249485351E-01 -0.95063333762E-01  0.12931096297E+00  0.15637167395E-01 0.  0.
         14    1    1    2    0    0 -0.51578863701E-02 -0.20284725618E-01  0.12423963451E-01  0.24339859347E-01  0.00000000000E+00 0. -1.
     999901    1    3    3    0    0  0.42673859070E-02  0.10653421097E+00  0.82639370312E-01  0.89027917768E+00  0.88000000000E+00 0.  1.
        -11    1    4    4    0    0 -0.58696275943E-03 -0.58962940843E-01 -0.75002638657E-01  0.95407703277E-01  0.51100000000E-03 0.  1.
         11    1    4    4    0    0  0.14774632226E-02 -0.27286544508E-01 -0.20060695105E-01  0.33903259694E-01  0.51100000000E-03 0. -1.
</event>
<event>
 8    1  0.1075206E+005  0.1043930E+01  0.7957747E-01            NaN
         13   -1    0    0    0    0  0.00000000000E+00  0.00000000000E+00  0.74505805969E-08  0.10566000000E+00  0.10566000000E+00 0. -1.
     999900   -1    0    0    0    0 -0.00000000000E+00 -0.00000000000E+00 -0.74505805969E-08  0.93827000000E+00  0.93827000000E+00 0. -1.
     999902    2    1    2    0    0 -0.32420020722E-02  0.20854395254E-01 -0.12446278650E-01  0.10194284443E+01  0.10191339592E+01 0.  0.
     999903    2    3    3    0    0 -0.11493221220E+00 -0.55151147495E-01 -0.31855017846E-02  0.12907047835E+00  0.19949398184E-01 0.  0.
         14    1    1    2    0    0  0.32420020722E-02 -0.20854395254E-01  0.12446278650E-01  0.24501555687E-01  0.00000000000E+00 0. -1.
     999901    1    3    3    0    0  0.11169021013E+00  0.76005542749E-01 -0.92607768652E-02  0.89035796596E+00  0.88000000000E+00 0. -1.
        -11    1    4    4    0    0 -0.45232294808E-01 -0.23047153865E-01 -0.10960660178E-01  0.51937741454E-01  0.51100000000E-03 0.  1.
         11    1    4    4    0    0 -0.69699917395E-01 -0.32103993630E-01  0.77751583933E-02  0.77132736895E-01  0.51100000000E-03 0. -1.
</event>
<event>
 8    1  0.1075206E+005  0.1043930E+01  0.7957747E-01            NaN
         13   -1    0    0    0    0  0.00000000000E+00  0.00000000000E+00  0.74505805969E-08  0.10566000000E+00  0.10566000000E+00 0. -1.
     999900   -1    0    0    0    0 -0.00000000000E+00 -0.00000000000E+00 -0.74505805969E-08  0.93827000000E+00  0.93827000000E+00 0. -1.
     999902    2    1    2    0    0  0.10233998104E-01  0.19343940531E-01  0.79413057055E-02  0.10206493838E+01  0.10203838384E+01 0.  0.
     999903    2    3    3    0    0  0.54859601859E-01  0.74171845692E-01 -0.92535381761E-01  0.13211513666E+00  0.19508301990E-01 0.  0.
         14    1    1    2    0    0 -0.10233998104E-01 -0.19343940531E-01 -0.79413057055E-02  0.23280616160E-01  0.00000000000E+00 0.  1.
     999901    1    3    3    0    0 -0.44625603755E-01 -0.54827905162E-01  0.10047668747E+00  0.88853424718E+00  0.88000000000E+00 0.  1.
        -11    1    4    4    0    0  0.29202832795E-01  0.42184847565E-01 -0.64593365966E-01  0.82492004795E-01  0.51100000000E-03 0. -1.
         11    1    4    4    0    0  0.25656769064E-01  0.31986998127E-01 -0.27942015795E-01  0.49623131861E-01  0.51100000000E-03 0.  1.
</event>
<event>
 8    1  0.1075206E+005  0.1043930E+01  0.7957747E-01            NaN
         13   -1    0    0    0    0  0.00000000000E+00  0.00000000000E+00  0.74505805969E-08  0.10566000000E+00  0.10566000000E+00 0.  1.
     999900   -1    0    0    0    0 -0.00000000000E+00 -0.00000000000E+00 -0.74505805969E-08  0.93827000000E+00  0.93827000000E+00 0.  1.
     999902    2    1    2    0    0 -0.92797006884E-02  0.17770618850E-01  0.95634334859E-02  0.10217181338E+01  0.10214766654E+01 0.  0.
     999903    2    3    3    0    0  0.10709134406E+00 -0.13882549638E-01  0.72145576586E-01  0.13129089492E+00  0.19262235400E-01 0.  0.
         14    1    1    2    0    0  0.92797006884E-02 -0.17770618850E-01 -0.95634334859E-02  0.22211866181E-01  0.00000000000E+00 0.  1.
     999901    1    3    3    0    0 -0.11637104475E+00  0.31653168488E-01 -0.62582143100E-01  0.89042723889E+00  0.88000000000E+00 0.  1.
        -11    1    4    4    0    0  0.38349238521E-01 -0.12137575852E-01  0.33888298357E-01  0.52599075364E-01  0.51100000000E-03 0. -1.
         11    1    4    4    0    0  0.68742105537E-01 -0.17449737866E-02  0.38257278229E-01  0.78691819560E-01  0.51100000000E-03 0.  1.
</event>
<event>
 8    1  0.1075206E+005  0.1043930E+01  0.7957747E-01            NaN
         13   -1    0    0    0    0  0.00000000000E+00  0.00000000000E+00  0.74505805969E-08  0.10566000000E+00  0.10566000000E+00 0. -1.
     999900   -1    0    0    0    0 -0.00000000000E+00 -0.00000000000E+00 -0.74505805969E-08  0.93827000000E+00  0.93827000000E+00 0.  1.
     999902    2    1    2    0    0  0.20745111816E-01 -0.37421898802E-03 -0.11857223851E-01  0.10200324382E+01  0.10197524609E+01 0.  0.
     999903    2    3    3    0    0  0.44283591238E-02  0.11862881992E+00  0.48957694615E-01  0.12979291197E+00  0.18892772621E-01 0.  0.
         14    1    1    2    0    0 -0.20745111816E-01  0.37421898802E-03  0.11857223851E-01  0.23897561833E-01  0.00000000000E+00 0.  1.
     999901    1    3    3    0    0  0.16316752692E-01 -0.11900303891E+00 -0.60814918466E-01  0.89023952619E+00  0.88000000000E+00 0.  1.
        -11    1    4    4    0    0  0.89231388480E-02  0.27597411502E-01  0.13481481000E-01  0.31988294413E-01  0.51100000000E-03 0.  1.
         11    1    4    4    0    0 -0.44947797242E-02  0.91031408416E-01  0.35476213614E-01  0.97804617562E-01  0.51100000000E-03 0. -1.
</event>
<event>
 8    1  0.1075206E+005  0.1043930E+01  0.7957747E-01            NaN
         13   -1    0    0    0    0  0.00000000000E+00  0.00000000000E+00  0.74505805969E-08  0.10566000000E+00  0.10566000000E+00 0. -1.
     999900   -1    0    0    0    0 -0.00000000000E+00 -0.00000000000E+00 -0.74505805969E-08  0.93827000000E+00  0.93827000000E+00 0. -1.
     999902    2    1    2    0    0 -0.52557961899E-02  0.23421429020E-01 -0.32484953446E-02  0.10197072947E+01  0.10194195541E+01 0.  0.
     999903    2    3    3    0    0  0.11676565702E+00  0.55601990302E-01 -0.96841014914E-02  0.13068185039E+00  0.16067489385E-01 0.  0.
         14    1    1    2    0    0  0.52557961899E-02 -0.23421429020E-01  0.32484953446E-02  0.24222705318E-01  0.00000000000E+00 0.  1.
     999901    1    3    3    0    0 -0.12202145321E+00 -0.32180561282E-01  0.64356061468E-02  0.88902544429E+00  0.88000000000E+00 0. -1.
        -11    1    4    4    0    0  0.64022957300E-01  0.22077399449E-01 -0.75983341722E-02  0.68149441899E-01  0.51100000000E-03 0. -1.
         11    1    4    4    0    0  0.52742699721E-01  0.33524590853E-01 -0.20857673192E-02  0.62532408494E-01  0.51100000000E-03 0.  1.
</event>
<event>
 8    1  0.1075206E+005  0.1043930E+01  0.7957747E-01            NaN
         13   -1    0    0    0    0  0.00000000000E+00  0.00000000000E+00  0.74505805969E-08  0.10566000000E+00  0.10566000000E+00 0.  1.
     999900   -1    0    0    0    0 -0.00000000000E+00 -0.00000000000E+00 -0.74505805969E-08  0.93827000000E+00  0.93827000000E+00 0.  1.
     999902    2    1    2    0    0  0.70446285443E-02 -0.17551143249E-01 -0.14876192317E-01  0.10198681938E+01  0.10195843085E+01 0.  0.
     999903    2    3    3    0    0 -0.51013280328E-01  0.25833238483E-02 -0.11957539625E+00  0.13153377429E+00  0.19845152033E-01 0.  0.
         14    1    1    2    0    0 -0.70446285443E-02  0.17551143249E-01  0.14876192317E-01  0.24061806219E-01  0.00000000000E+00 0. -1.
     999901    1    3    3    0    0  0.58057908873E-01 -0.20134467097E-01  0.10469920393E+00  0.88833441949E+00  0.88000000000E+00 0. -1.
        -11    1    4    4    0    0 -0.24362255627E-01 -0.41330630128E-02 -0.36936891167E-01  0.44443185746E-01  0.51100000000E-03 0.  1.
         11    1    4    4    0    0 -0.26651024701E-01  0.67163868611E-02 -0.82638505081E-01  0.87090588545E-01  0.51100000000E-03 0. -1.
</event>
<event>
 8    1  0.1075206E+005  0.1043930E+01  0.7957747E-01            NaN
         13   -1    0    0    0    0  0.00000000000E+00  0.00000000000E+00  0.74505805969E-08  0.10566000000E+00  0.10566000000E+00 0.  1.
     999900   -1    0    0    0    0 -0.00000000000E+00 -0.00000000000E+00 -0.74505805969E-08  0.93827000000E+00  0.93827000000E+00 0. -1.
     999902    2    1    2    0    0  0.23811509395E-01  0.14142911466E-02 -0.54395483011E-03  0.10200703251E+01  0.10197912453E+01 0.  0.
     999903    2    3    3    0    0 -0.60275627645E-01  0.97114511047E-01 -0.56881151404E-01  0.12911406444E+00  0.19250888485E-01 0.  0.
         14    1    1    2    0    0 -0.23811509395E-01 -0.14142911466E-02  0.54395483011E-03  0.23859674892E-01  0.00000000000E+00 0. -1.
     999901    1    3    3    0    0  0.84087137040E-01 -0.95700219900E-01  0.56337196574E-01  0.89095626067E+00  0.88000000000E+00 0.  1.
        -11    1    4    4    0    0 -0.95943742861E-02  0.31089530259E-01 -0.13230010997E-01  0.35126987085E-01  0.51100000000E-03 0. -1.
         11    1    4    4    0    0 -0.50681253359E-01  0.66024980787E-01 -0.43651140407E-01  0.93987077355E-01  0.51100000000E-03 0.  1.
</event>
<event>
 8    1  0.1075206E+005  0.1043930E+01  0.7957747E-01            NaN
         13   -1    0    0    0    0  0.00000000000E+00  0.00000000000E+00  0.74505805969E-08  0.10566000000E+00  0.10566000000E+00 0. -1.
     999900   -1    0    0    0    0 -0.00000000000E+00 -0.00000000000E+00 -0.74505805969E-08  0.93827000000E+00  0.93827000000E+00 0. -1.
     999902    2    1    2    0    0 -0.18045972645E-01 -0.97711533625E-02  0.50336722498E-03  0.10234023127E+01  0.10231964170E+01 0.  0.
     999903    2    3    3    0    0 -0.23023604114E-01  0.11465406131E-01 -0.12950106498E+00  0.13358383647E+00  0.20311909063E-01 0.  0.
         14    1    1    2    0    0  0.18045972645E-01  0.97711533625E-02 -0.50336722498E-03  0.20527687286E-01  0.00000000000E+00 0. -1.
     999901    1    3    3    0    0  0.49776314687E-02 -0.21236559493E-01  0.13000443221E+00  0.88981847625E+00  0.88000000000E+00 0.  1.
        -11    1    4    4    0    0 -0.21626454198E-01  0.15652069712E-01 -0.91273067683E-01  0.95098500581E-01  0.51100000000E-03 0. -1.
         11    1    4    4    0    0 -0.13971499164E-02 -0.41866635813E-02 -0.38227997299E-01  0.38485335887E-01  0.51100000000E-03 0.  1.
</event>
<event>
 8    1  0.1075206E+005  0.1043930E+01  0.7957747E-01            NaN
         13   -1    0    0    0    0  0.00000000000E+00  0.00000000000E+00  0.74505805969E-08  0.10566000000E+00  0.10566000000E+00 0.  1.
     999900   -1    0    0    0    0 -0.00000000000E+00 -0.00000000000E+00 -0.74505805969E-08  0.93827000000E+00  0.93827000000E+00 0. -1.
     999902    2    1    2    0    0  0.23527127353E-01 -0.24562272793E-02  0.23204100938E-02  0.10201614688E+01  0.10198845421E+01 0.  0.
     999903    2    3    3    0    0  0.41691743854E-02  0.11492445224E+00 -0.57628369777E-01  0.13013517114E+00  0.19726176156E-01 0.  0.
         14    1    1    2    0    0 -0.23527127353E-01  0.24562272793E-02 -0.23204100938E-02  0.23768531232E-01  0.00000000000E+00 0.  1.
     999901    1    3    3    0    0  0.19357952967E-01 -0.11738067952E+00  0.59948779871E-01  0.89002629763E+00  0.88000000000E+00 0.  1.
        -11    1    4    4    0    0  0.15048860864E-02  0.90528482873E-01 -0.36059205134E-01  0.97458700429E-01  0.51100000000E-03 0. -1.
         11    1    4    4    0    0  0.26642882990E-02  0.24395969368E-01 -0.21569164642E-01  0.32676470708E-01  0.51100000000E-03 0.  1.
</event>
<event>
 8    1  0.1075206E+005  0.1043930E+01  0.7957747E-01            NaN
         13   -1    0    0    0    0  0.00000000000E+00  0.00000000000E+00  0.74505805969E-08  0.10566000000E+00  0.10566000000E+00 0.  1.
     999900   -1    0    0    0    0 -0.00000000000E+00 -0.00000000000E+00 -0.74505805969E-08  0.93827000000E+00  0.93827000000E+00 0. -1.
     999902    2    1    2    0    0 -0.88097797989E-02 -0.20148236515E-01 -0.80293576447E-02  0.10205198689E+01  0.10202513262E+01 0.  0.
     999903    2    3    3    0    0  0.14206626719E-01 -0.11808316216E-01  0.12697281157E+00  0.12988812965E+00  0.20188283034E-01 0.  0.
         14    1    1    2    0    0  0.88097797989E-02  0.20148236515E-01  0.80293576447E-02  0.23410131118E-01  0.00000000000E+00 0. -1.
     999901    1    3    3    0    0 -0.23016406518E-01 -0.83399202995E-02 -0.13500216921E+00  0.89063173923E+00  0.88000000000E+00 0. -1.
        -11    1    4    4    0    0 -0.32430293519E-03 -0.24015215984E-02  0.76256425432E-01  0.76296631768E-01  0.51100000000E-03 0.  1.
         11    1    4    4    0    0  0.14530929654E-01 -0.94067946175E-02  0.50716386133E-01  0.53591497880E-01  0.51100000000E-03 0. -1.
</event>
<event>
 8    1  0.1075206E+005  0.1043930E+01  0.7957747E-01            NaN
         13   -1    0    0    0    0  0.00000000000E+00  0.00000000000E+00  0.74505805969E-08  0.10566000000E+00  0.10566000000E+00 0. -1.
     999900   -1    0    0    0    0 -0.00000000000E+00 -0.00000000000E+00 -0.74505805969E-08  0.93827000000E+00  0.93827000000E+00 0. -1.
     999902    2    1    2    0    0 -0.10853733778E-01 -0.17400675633E-01 -0.12516837746E-01  0.10199038002E+01  0.10196207645E+01 0.  0.
     999903    2    3    3    0    0  0.73404089561E-01 -0.81169721613E-01  0.67043349284E-01  0.13001858548E+00  0.20816767692E-01 0.  0.
         14    1    1    2    0    0  0.10853733778E-01  0.17400675633E-01  0.12516837746E-01  0.24026199795E-01  0.00000000000E+00 0. -1.
     999901    1    3    3    0    0 -0.84257823338E-01  0.63769045980E-01 -0.79560187031E-01  0.88988521472E+00  0.88000000000E+00 0. -1.
        -11    1    4    4    0    0  0.33914436793E-01 -0.47311822764E-01  0.44735334438E-01  0.73417360785E-01  0.51100000000E-03 0.  1.
         11    1    4    4    0    0  0.39489652767E-01 -0.33857898848E-01  0.22308014846E-01  0.56601224700E-01  0.51100000000E-03 0. -1.
</event>
<event>
 8    1  0.1075206E+005  0.1043930E+01  0.7957747E-01            NaN
         13   -1    0    0    0    0  0.00000000000E+00  0.00000000000E+00  0.74505805969E-08  0.10566000000E+00  0.10566000000E+00 0. -1.
     999900   -1    0    0    0    0 -0.00000000000E+00 -0.00000000000E+00 -0.74505805969E-08  0.93827000000E+00  0.93827000000E+00 0. -1.
     999902    2    1    2    0    0  0.17079852128E-01 -0.32889571810E-02  0.18262321259E-01  0.10187099491E+01  0.10183977168E+01 0.  0.
     999903    2    3    3    0    0  0.83120848703E-01  0.71123866983E-02  0.10032337619E+00  0.13236711596E+00  0.22284793963E-01 0.  0.
         14    1    1    2    0    0 -0.17079852128E-01  0.32889571810E-02 -0.18262321259E-01  0.25220050869E-01  0.00000000000E+00 0.  1.
     999901    1    3    3    0    0 -0.66040996575E-01 -0.10401343879E-01 -0.82061054935E-01  0.88634283317E+00  0.88000000000E+00 0. -1.
        -11    1    4    4    0    0  0.42414627497E-01 -0.66904253360E-02  0.56670623518E-01  0.71102623776E-01  0.51100000000E-03 0. -1.
         11    1    4    4    0    0  0.40706221207E-01  0.13802812034E-01  0.43652752676E-01  0.61264492181E-01  0.51100000000E-03 0.  1.
</event>
<event>
 8    1  0.1075206E+005  0.1043930E+01  0.7957747E-01            NaN
         13   -1    0    0    0    0  0.00000000000E+00  0.00000000000E+00  0.74505805969E-08  0.10566000000E+00  0.10566000000E+00 0.  1.
     999900   -1    0    0    0    0 -0.00000000000E+00 -0.00000000000E+00 -0.74505805969E-08  0.93827000000E+00  0.93827000000E+00 0. -1.
     999902    2    1    2    0    0 -0.64607446823E-02 -0.26936880592E-01  0.26814071300E-02  0.10160996802E+01  0.10157184813E+01 0.  0.
     999903    2    3    3    0    0  0.51083169101E-01 -0.56905338473E-01 -0.99640705822E-01  0.12779836570E+00  0.23589071771E-01 0.  0.
         14    1    1    2    0    0  0.64607446823E-02  0.26936880592E-01 -0.26814071300E-02  0.27830319834E-01  0.00000000000E+00 0. -1.
     999901    1    3    3    0    0 -0.57543913783E-01  0.29968457880E-01  0.10232211295E+00  0.88830131446E+00  0.88000000000E+00 0.  1.
        -11    1    4    4    0    0  0.73486727963E-02 -0.20202853977E-01 -0.38809719504E-01  0.44369062979E-01  0.51100000000E-03 0.  1.
         11    1    4    4    0    0  0.43734496304E-01 -0.36702484496E-01 -0.60830986318E-01  0.83429302722E-01  0.51100000000E-03 0. -1.
</event>
<event>
 8    1  0.1075206E+005  0.1043930E+01  0.7957747E-01            NaN
         13   -1    0    0    0    0  0.00000000000E+00  0.00000000000E+00  0.74505805969E-08  0.10566000000E+00  0.10566000000E+00 0. -1.
     999900   -1    0    0    0    0 -0.00000000000E+00 -0.00000000000E+00 -0.74505805969E-08  0.93827000000E+00  0.93827000000E+00 0. -1.
     999902    2    1    2    0    0 -0.40419395257E-02  0.52360469075E-02 -0.22658151512E-01  0.10203260746E+01  0.10200530149E+01 0.  0.
     999903    2    3    3    0    0 -0.18157195344E-01 -0.10016985761E+00 -0.81518038526E-01  0.13197134175E+00  0.20188123287E-01 0.  0.
         14    1    1    2    0    0  0.40419395257E-02 -0.52360469075E-02  0.22658151512E-01  0.23603925358E-01  0.00000000000E+00 0. -1.
     999901    1    3    3    0    0  0.14115255818E-01  0.10540590452E+00  0.58859887014E-01  0.88835473289E+00  0.88000000000E+00 0.  1.
        -11    1    4    4    0    0 -0.30518406254E-02 -0.60469635829E-01 -0.39975049400E-01  0.72554505608E-01  0.51100000000E-03 0.  1.
         11    1    4    4    0    0 -0.15105354719E-01 -0.39700221781E-01 -0.41542989125E-01  0.59416836142E-01  0.51100000000E-03 0. -1.
</event>
<event>
 8    1  0.1075206E+005  0.1043930E+01  0.7957747E-01            NaN
         13   -1    0    0    0    0  0.00000000000E+00  0.00000000000E+00  0.74505805969E-08  0.10566000000E+00  0.10566000000E+00 0.  1.
     999900   -1    0    0    0    0 -0.00000000000E+00 -0.00000000000E+00 -0.74505805969E-08  0.93827000000E+00  0.93827000000E+00 0. -1.
     999902    2    1    2    0    0 -0.49214352894E-02  0.23352087520E-01  0.48886708773E-03  0.10200599454E+01  0.10197806199E+01 0.  0.
     999903    2    3    3    0    0 -0.18303483638E-01 -0.84427451445E-01 -0.92822020046E-01  0.12848693664E+00  0.20735317984E-01 0.  0.
         14    1    1    2    0    0  0.49214352894E-02 -0.23352087520E-01 -0.48886708773E-03  0.23870054627E-01  0.00000000000E+00 0.  1.
     999901    1    3    3    0    0  0.13382048349E-01  0.10777953897E+00  0.93310887134E-01  0.89157300873E+00  0.88000000000E+00 0. -1.
        -11    1    4    4    0    0 -0.10213612365E-01 -0.11962856942E-01 -0.13410005565E-01  0.20676488919E-01  0.51100000000E-03 0.  1.
         11    1    4    4    0    0 -0.80898712732E-02 -0.72464594504E-01 -0.79412014481E-01  0.10781044772E+00  0.51100000000E-03 0. -1.
</event>
<event>
 8    1  0.1075206E+005  0.1043930E+01  0.7957747E-01            NaN
         13   -1    0    0    0    0  0.00000000000E+00  0.00000000000E+00  0.74505805969E-08  0.10566000000E+00  0.10566000000E+00 0. -1.
     999900   -1    0    0    0    0 -0.00000000000E+00 -0.00000000000E+00 -0.74505805969E-08  0.93827000000E+00  0.93827000000E+00 0.  1.
     999902    2    1    2    0    0  0.10259460718E-01 -0.20285290350E-02  0.22039608167E-01  0.10195350048E+01  0.10192431065E+01 0.  0.
     999903    2    3    3    0    0 -0.13667075756E-01 -0.11614074305E+00  0.56150932030E-01  0.13118954328E+00  0.19552696547E-01 0.  0.
         14    1    1    2    0    0 -0.10259460718E-01  0.20285290350E-02 -0.22039608167E-01  0.24394995233E-01  0.00000000000E+00 0.  1.
     999901    1    3    3    0    0  0.23926536474E-01  0.11411221401E+00 -0.34111323863E-01  0.88834546149E+00  0.88000000000E+00 0.  1.
        -11    1    4    4    0    0 -0.18584884071E-01 -0.86450299780E-01  0.40412679165E-01  0.97223957985E-01  0.51100000000E-03 0. -1.
         11    1    4    4    0    0  0.49178083148E-02 -0.29690443267E-01  0.15738252864E-01  0.33965585292E-01  0.51100000000E-03 0.  1.
</event>
<event>
 8    1  0.1075206E+005  0.1043930E+01  0.7957747E-01            NaN
         13   -1    0    0    0    0  0.00000000000E+00  0.00000000000E+00  0.74505805969E-08  0.10566000000E+00  0.10566000000E+00 0. -1.
     999900   -1    0    0    0    0 -0.00000000000E+00 -0.00000000000E+00 -0.74505805969E-08  0.93827000000E+00  0.93827000000E+00 0. -1.
     999902    2    1    2    0    0 -0.16864411137E-01 -0.72765905704E-02 -0.14601017805E-01  0.10204662651E+01  0.10201964769E+01 0.  0.
     999903    2    3    3    0    0 -0.10015575087E-01  0.68519568441E-01 -0.11055071500E+00  0.13198536569E+00  0.20085645756E-01 0.  0.
         14    1    1    2    0    0  0.16864411137E-01  0.72765905704E-02  0.14601017805E-01  0.23463734875E-01  0.00000000000E+00 0. -1.
     999901    1    3    3    0    0 -0.68488360504E-02 -0.75796159011E-01  0.95949697192E-01  0.88848089944E+00  0.88000000000E+00 0.  1.
        -11    1    4    4    0    0 -0.15747847524E-01  0.43479895459E-01 -0.75243360898E-01  0.88319423067E-01  0.51100000000E-03 0. -1.
         11    1    4    4    0    0  0.57322724372E-02  0.25039672981E-01 -0.35307354099E-01  0.43665942619E-01  0.51100000000E-03 0.  1.
</event>
<event>
 8    1  0.1075206E+005  0.1043930E+01  0.7957747E-01            NaN
         13   -1    0    0    0    0  0.00000000000E+00  0.00000000000E+00  0.74505805969E-08  0.10566000000E+00  0.10566000000E+00 0.  1.
     999900   -1    0    0    0    0 -0.00000000000E+00 -0.00000000000E+00 -0.74505805969E-08  0.93827000000E+00  0.93827000000E+00 0.  1.
     999902    2    1    2    0    0 -0.66948115797E-02  0.27209587883E-02 -0.22680069527E-01  0.10201264357E+01  0.10198486825E+01 0.  0.
     999903    2    3    3    0    0  0.56009141686E-01 -0.74368625622E-01  0.84772584888E-01  0.12803862461E+00  0.23233205008E-01 0.  0.
         14    1    1    2    0    0  0.66948115797E-02 -0.27209587883E-02  0.22680069527E-01  0.23803564283E-01  0.00000000000E+00 0.  1.
     999901    1    3    3    0    0 -0.62703953265E-01  0.77089584411E-01 -0.10745265441E+00  0.89208781110E+00  0.88000000000E+00 0.  1.
        -11    1    4    4    0    0  0.55383920532E-01 -0.60463558521E-01  0.73579767013E-01  0.11017015838E+00  0.51100000000E-03 0.  1.
         11    1    4    4    0    0  0.62522115340E-03 -0.13905067102E-01  0.11192817875E-01  0.17868466234E-01  0.51100000000E-03 0. -1.
</event>
<event>
 8    1  0.1075206E+005  0.1043930E+01  0.7957747E-01            NaN
         13   -1    0    0    0    0  0.00000000000E+00  0.00000000000E+00  0.74505805969E-08  0.10566000000E+00  0.10566000000E+00 0.  1.
     999900   -1    0    0    0    0 -0.00000000000E+00 -0.00000000000E+00 -0.74505805969E-08  0.93827000000E+00  0.93827000000E+00 0. -1.
     999902    2    1    2    0    0  0.66263741289E-02  0.17701992556E-01 -0.21440956422E-01  0.10153470683E+01  0.10149446709E+01 0.  0.
     999903    2    3    3    0    0  0.96370245460E-01  0.44607148975E-01 -0.71014223210E-01  0.12898632981E+00  0.17816605468E-01 0.  0.
         14    1    1    2    0    0 -0.66263741289E-02 -0.17701992556E-01  0.21440956422E-01  0.28582931740E-01  0.00000000000E+00 0.  1.
     999901    1    3    3    0    0 -0.89743871331E-01 -0.26905156419E-01  0.49573266789E-01  0.88636073845E+00  0.88000000000E+00 0.  1.
        -11    1    4    4    0    0  0.68936229976E-01  0.30952843663E-01 -0.59741169298E-01  0.96330424914E-01  0.51100000000E-03 0. -1.
         11    1    4    4    0    0  0.27434015484E-01  0.13654305312E-01 -0.11273053912E-01  0.32655904897E-01  0.51100000000E-03 0.  1.
</event>
<event>
 8    1  0.1075206E+005  0.1043930E+01  0.7957747E-01            NaN
         13   -1    0    0    0    0  0.00000000000E+00  0.00000000000E+00  0.74505805969E-08  0.10566000000E+00  0.10566000000E+00 0. -1.
     999900   -1    0    0    0    0 -0.00000000000E+00 -0.00000000000E+00 -0.74505805969E-08  0.93827000000E+00  0.93827000000E+00 0. -1.
     999902    2    1    2    0    0 -0.83760857059E-02  0.15528241855E-01 -0.16719039037E-01  0.10196233883E+01  0.10193336267E+01 0.  0.
     999903    2    3    3    0    0  0.80805688437E-01 -0.97039625369E-01  0.10425156200E-02  0.12780480449E+00  0.19665529151E-01 0.  0.
         14    1    1    2    0    0  0.83760857059E-02 -0.15528241855E-01  0.16719039037E-01  0.24306611718E-01  0.00000000000E+00 0. -1.
     999901    1    3    3    0    0 -0.89181774143E-01  0.11256786722E+00 -0.17761554657E-01  0.89181858379E+00  0.88000000000E+00 0.  1.
        -11    1    4    4    0    0  0.76979770788E-01 -0.92033858775E-01 -0.34752209728E-02  0.12003522214E+00  0.51100000000E-03 0.  1.
         11    1    4    4    0    0  0.38259176494E-02 -0.50057665947E-02  0.45177365928E-02  0.77695823557E-02  0.51100000000E-03 0. -1.
</event>
<event>
 8    1  0.1075206E+005  0.1043930E+01  0.7957747E-01            NaN
         13   -1    0    0    0    0  0.00000000000E+00  0.00000000000E+00  0.74505805969E-08  0.10566000000E+00  0.10566000000E+00 0.  1.
     999900   -1    0    0    0    0 -0.00000000000E+00 -0.00000000000E+00 -0.74505805969E-08  0.93827000000E+00  0.93827000000E+00 0.  1.
     999902    2    1    2    0    0 -0.21827567750E-01  0.53927493114E-02 -0.90667659944E-02  0.10196868421E+01  0.10193986096E+01 0.  0.
     999903    2    3    3    0    0 -0.11332932504E+00 -0.32271209700E-01  0.56215536765E-01  0.13173812487E+00  0.17600570455E-01 0.  0.
         14    1    1    2    0    0  0.21827567750E-01 -0.53927493114E-02  0.90667659944E-02  0.24243157893E-01  0.00000000000E+00 0.  1.
     999901    1    3    3    0    0  0.91501757289E-01  0.37663959011E-01 -0.65282302759E-01  0.88794871724E+00  0.88000000000E+00 0. -1.
        -11    1    4    4    0    0 -0.82991368619E-01 -0.25692492085E-01  0.49436159442E-01  0.99959323708E-01  0.51100000000E-03 0.  1.
         11    1    4    4    0    0 -0.30337956420E-01 -0.65787176149E-02  0.67793773230E-02  0.31778801159E-01  0.51100000000E-03 0. -1.
</event>
<event>
 8    1  0.1075206E+005  0.1043930E+01  0.7957747E-01            NaN
         13   -1    0    0    0    0  0.00000000000E+00  0.00000000000E+00  0.74505805969E-08  0.10566000000E+00  0.10566000000E+00 0. -1.
     999900   -1    0    0    0    0 -0.00000000000E+00 -0.00000000000E+00 -0.74505805969E-08  0.93827000000E+00  0.93827000000E+00 0. -1.
     999902    2    1    2    0    0 -0.10860930972E-02  0.14667238768E-01 -0.22972709670E-01  0.10166526673E+01  0.10162866687E+01 0.  0.
     999903    2    3    3    0    0 -0.74517063325E-01  0.81324138560E-01  0.60452718912E-01  0.12716121042E+00  0.18682450912E-01 0.  0.
         14    1    1    2    0    0  0.10860930972E-02 -0.14667238768E-01  0.22972709670E-01  0.27277332730E-01  0.00000000000E+00 0. -1.
     999901    1    3    3    0    0  0.73430970228E-01 -0.66656899792E-01 -0.83425428582E-01  0.88949145685E+00  0.88000000000E+00 0.  1.
        -11    1    4    4    0    0 -0.34842489774E-02  0.10161822202E-01  0.22679825868E-02  0.10991245944E-01  0.51100000000E-03 0.  1.
         11    1    4    4    0    0 -0.71032814348E-01  0.71162316358E-01  0.58184736326E-01  0.11616996447E+00  0.51100000000E-03 0. -1.
</event>
<event>
 8    1  0.1075206E+005  0.1043930E+01  0.7957747E-01            NaN
         13   -1    0    0    0    0  0.00000000000E+00  0.00000000000E+00  0.74505805969E-08  0.10566000000E+00  0.10566000000E+00 0. -1.
     999900   -1    0    0    0    0 -0.00000000000E+00 -0.00000000000E+00 -0.74505805969E-08  0.93827000000E+00  0.93827000000E+00 0.  1.
     999902    2    1    2    0    0  0.10061897864E-01  0.21030524476E-01  0.24321926035E-02  0.10204898569E+01  0.10202206172E+01 0.  0.
     999903    2    3    3    0    0  0.36598916028E-01 -0.18050398417E-01 -0.12262515486E+00  0.13039386654E+00  0.17330155519E-01 0.  0.
         14    1    1    2    0    0 -0.10061897864E-01 -0.21030524476E-01 -0.24321926035E-02  0.23440143114E-01  0.00000000000E+00 0.  1.
     999901    1    3    3    0    0 -0.26537018164E-01  0.39080922893E-01  0.12505734746E+00  0.89009599034E+00  0.88000000000E+00 0. -1.
        -11    1    4    4    0    0  0.11221012921E-01 -0.10900954015E-03 -0.52501356484E-01  0.53689631846E-01  0.51100000000E-03 0.  1.
         11    1    4    4    0    0  0.25377903107E-01 -0.17941388877E-01 -0.70123798377E-01  0.76704234699E-01  0.51100000000E-03 0. -1.
</event>
<event>
 8    1  0.1075206E+005  0.1043930E+01  0.7957747E-01            NaN
         13   -1    0    0    0    0  0.00000000000E+00  0.00000000000E+00  0.74505805969E-08  0.10566000000E+00  0.10566000000E+00 0.  1.
     999900   -1    0    0    0    0 -0.00000000000E+00 -0.00000000000E+00 -0.74505805969E-08  0.93827000000E+00  0.93827000000E+00 0.  1.
     999902    2    1    2    0    0 -0.81051219364E-02 -0.12719259761E-01 -0.18283873814E-01  0.10202282572E+01  0.10199529029E+01 0.  0.
     999903    2    3    3    0    0 -0.64019500486E-01  0.80950184982E-01 -0.79028806397E-01  0.13141425559E+00  0.19306098546E-01 0.  0.
         14    1    1    2    0    0  0.81051219364E-02  0.12719259761E-01  0.18283873814E-01  0.23701742807E-01  0.00000000000E+00 0.  1.
     999901    1    3    3    0    0  0.55914378549E-01 -0.93669444743E-01  0.60744932584E-01  0.88881400160E+00  0.88000000000E+00 0. -1.
        -11    1    4    4    0    0 -0.94576264081E-02  0.17953872470E-01 -0.76791630438E-02  0.21702969843E-01  0.51100000000E-03 0.  1.
         11    1    4    4    0    0 -0.54561874078E-01  0.62996312512E-01 -0.71349643354E-01  0.10971128575E+00  0.51100000000E-03 0. -1.
</event>
<event>
 8    1  0.1075206E+005  0.1043930E+01  0.7957747E-01            NaN
         13   -1    0    0    0    0  0.00000000000E+00  0.00000000000E+00  0.74505805969E-08  0.10566000000E+00  0.10566000000E+00 0.  1.
     999900   -1    0    0    0    0 -0.00000000000E+00 -0.00000000000E+00 -0.74505805969E-08  0.93827000000E+00  0.93827000000E+00 0. -1.
     999902    2    1    2    0    0  0.14689463588E-01  0.17607843174E-01  0.70119257072E-02  0.10199511847E+01  0.10196692775E+01 0.  0.
     999903    2    3    3    0    0 -0.11100873421E+00  0.12863101075E-01 -0.59025987537E-01  0.12855702075E+00  0.23546590837E-01 0.  0.
         14    1    1    2    0    0 -0.14689463588E-01 -0.17607843174E-01 -0.70119257072E-02  0.23978815314E-01  0.00000000000E+00 0. -1.
     999901    1    3    3    0    0  0.12569819780E+00  0.47447420997E-02  0.66037913245E-01  0.89139416393E+00  0.88000000000E+00 0.  1.
        -11    1    4    4    0    0 -0.24554804873E-01  0.99316034160E-02 -0.22101456711E-01  0.34500879678E-01  0.51100000000E-03 0. -1.
         11    1    4    4    0    0 -0.86453929337E-01  0.29314976587E-02 -0.36924530826E-01  0.94056141075E-01  0.51100000000E-03 0.  1.
</event>
<event>
 8    1  0.1075206E+005  0.1043930E+01  0.7957747E-01            NaN
         13   -1    0    0    0    0  0.00000000000E+00  0.00000000000E+00  0.74505805969E-08  0.10566000000E+00  0.10566000000E+00 0. -1.
     999900   -1    0    0    0    0 -0.00000000000E+00 -0.00000000000E+00 -0.74505805969E-08  0.93827000000E+00  0.93827000000E+00 0. -1.
     999902    2    1    2    0    0 -0.78915488091E-02 -0.87483536426E-02 -0.19727625533E-01  0.10209519791E+01  0.10206933694E+01 0.  0.
     999903    2    3    3    0    0 -0.12821510816E+00  0.10337245665E-01  0.19730698881E-01  0.13168319051E+00  0.20129321335E-01 0.  0.
         14    1    1    2    0    0  0.78915488091E-02  0.87483536426E-02  0.19727625533E-01  0.22978020873E-01  0.00000000000E+00 0. -1.
     999901    1    3    3    0    0  0.12032355935E+00 -0.19085599307E-01 -0.39458324415E-01  0.88926878861E+00  0.88000000000E+00 0. -1.
        -11    1    4    4    0    0 -0.96833462868E-01  0.13692879902E-01  0.84468513903E-02  0.98162237701E-01  0.51100000000E-03 0.  1.
         11    1    4    4    0    0 -0.31381645291E-01 -0.33556342369E-02  0.11283847491E-01  0.33520952813E-01  0.51100000000E-03 0. -1.
</event>
<event>
 8    1  0.1075206E+005  0.1043930E+01  0.7957747E-01            NaN
         13   -1    0    0    0    0  0.00000000000E+00  0.00000000000E+00  0.74505805969E-08  0.10566000000E+00  0.10566000000E+00 0. -1.
     999900   -1    0    0    0    0 -0.00000000000E+00 -0.00000000000E+00 -0.74505805969E-08  0.93827000000E+00  0.93827000000E+00 0.  1.
     999902    2    1    2    0    0 -0.10255149173E-02  0.10606508063E-01 -0.27459326498E-01  0.10144755554E+01  0.10140478727E+01 0.  0.
     999903    2    3    3    0    0 -0.80146340945E-01 -0.14824680540E-01 -0.96479559323E-01  0.12786930515E+00  0.19976153600E-01 0.  0.
         14    1    1    2    0    0  0.10255149173E-02 -0.10606508063E-01  0.27459326498E-01  0.29454444586E-01  0.00000000000E+00 0. -1.
     999901    1    3    3    0    0  0.79120826028E-01  0.25431188603E-01  0.69020232825E-01  0.88660625026E+00  0.88000000000E+00 0. -1.
        -11    1    4    4    0    0 -0.35728047373E-02 -0.31827548677E-02 -0.13620953000E-01  0.14445980197E-01  0.51100000000E-03 0. -1.
         11    1    4    4    0    0 -0.76573536208E-01 -0.11641925672E-01 -0.82858606323E-01  0.11342332495E+00  0.51100000000E-03 0.  1.
</event>
<event>
 8    1  0.1075206E+005  0.1043930E+01  0.7957747E-01            NaN
         13   -1    0    0    0    0  0.00000000000E+00  0.00000000000E+00  0.74505805969E-08  0.10566000000E+00  0.10566000000E+00 0. -1.
     999900   -1    0    0    0    0 -0.00000000000E+00 -0.00000000000E+00 -0.74505805969E-08  0.93827000000E+00  0.93827000000E+00 0.  1.
     999902    2    1    2    0    0  0.17411656868E-01  0.15104680551E-01 -0.88053747735E-02  0.10192550776E+01  0.10189563590E+01 0.  0.
     999903    2    3    3    0    0  0.11121682694E-01  0.12919295735E+00  0.13868798362E-01  0.13157843785E+00  0.17493704126E-01 0.  0.
         14    1    1    2    0    0 -0.17411656868E-01 -0.15104680551E-01  0.88053747735E-02  0.24674922378E-01  0.00000000000E+00 0. -1.
     999901    1    3    3    0    0  0.62899741738E-02 -0.11408827680E+00 -0.22674173135E-01  0.88767663978E+00  0.88000000000E+00 0.  1.
        -11    1    4    4    0    0  0.85294125903E-02  0.54027399513E-01 -0.18970670594E-02  0.54731807586E-01  0.51100000000E-03 0. -1.
         11    1    4    4    0    0  0.25922701042E-02  0.75165557834E-01  0.15765865421E-01  0.76846630260E-01  0.51100000000E-03 0.  1.
</event>
<event>
 8    1  0.1075206E+005  0.1043930E+01  0.7957747E-01            NaN
         13   -1    0    0    0    0  0.00000000000E+00  0.00000000000E+00  0.74505805969E-08  0.10566000000E+00  0.10566000000E+00 0. -1.
     999900   -1    0    0    0    0 -0.00000000000E+00 -0.00000000000E+00 -0.74505805969E-08  0.93827000000E+00  0.93827000000E+00 0.  1.
     999902    2    1    2    0    0 -0.18179338600E-01 -0.28427758203E-02  0.14015336817E-01  0.10207999461E+01  0.10205378634E+01 0.  0.
     999903    2    3    3    0    0  0.27720590050E-01  0.10695542244E+00  0.68019170663E-01  0.13114896857E+00  0.19119384849E-01 0.  0.
         14    1    1    2    0    0  0.18179338600E-01  0.28427758203E-02 -0.14015336817E-01  0.23130053878E-01  0.00000000000E+00 0.  1.
     999901    1    3    3    0    0 -0.45899928650E-01 -0.10979819826E+00 -0.54003833845E-01  0.88965097755E+00  0.88000000000E+00 0.  1.
        -11    1    4    4    0    0  0.16178262121E-01  0.78348204229E-01  0.57615033799E-01  0.98589707940E-01  0.51100000000E-03 0.  1.
         11    1    4    4    0    0  0.11542327929E-01  0.28607218211E-01  0.10404136864E-01  0.32559260628E-01  0.51100000000E-03 0. -1.
</event>
<event>
 8    1  0.1075206E+005  0.1043930E+01  0.7957747E-01            NaN
         13   -1    0    0    0    0  0.00000000000E+00  0.00000000000E+00  0.74505805969E-08  0.10566000000E+00  0.10566000000E+00 0. -1.
     999900   -1    0    0    0    0 -0.00000000000E+00 -0.00000000000E+00 -0.74505805969E-08  0.93827000000E+00  0.93827000000E+00 0. -1.
     999902    2    1    2    0    0  0.19432801689E-01 -0.10076725778E-01  0.10342890340E-01  0.10197194741E+01  0.10194320263E+01 0.  0.
     999903    2    3    3    0    0  0.25235834125E-01 -0.65724783296E-01  0.11023820295E+00  0.13230217937E+00  0.19869846860E-01 0.  0.
         14    1    1    2    0    0 -0.19432801689E-01  0.10076725778E-01 -0.10342890340E-01  0.24210525903E-01  0.00000000000E+00 0.  1.
     999901    1    3    3    0    0 -0.58030324363E-02  0.55648057518E-01 -0.99895312610E-01  0.88741729472E+00  0.88000000000E+00 0. -1.
        -11    1    4    4    0    0  0.13743665708E-01 -0.54385042158E-01  0.93525888406E-01  0.10905949789E+00  0.51100000000E-03 0. -1.
         11    1    4    4    0    0  0.11492168417E-01 -0.11339741138E-01  0.16712314544E-01  0.23242681481E-01  0.51100000000E-03 0.  1.
</event>
<event>
 8    1  0.1075206E+005  0.1043930E+01  0.7957747E-01            NaN
         13   -1    0    0    0    0  0.00000000000E+00  0.00000000000E+00  0.74505805969E-08  0.10566000000E+00  0.10566000000E+00 0. -1.
     999900   -1    0    0    0    0 -0.00000000000E+00 -0.00000000000E+00 -0.74505805969E-08  0.93827000000E+00  0.93827000000E+00 0.  1.
     999902    2    1    2    0    0 -0.60509917908E-02 -0.19361734270E-01 -0.12160797411E-01  0.10202788637E+01  0.10200046977E+01 0.  0.
     999903    2    3    3    0    0  0.78492480013E-01 -0.26735478058E-01  0.97185209223E-01  0.12945984733E+00  0.20953089833E-01 0.  0.
         14    1    1    2    0    0  0.60509917908E-02  0.19361734270E-01  0.12160797411E-01  0.23651136321E-01  0.00000000000E+00 0. -1.
     999901    1    3    3    0    0 -0.84543471803E-01  0.73737437872E-02 -0.10934600663E+00  0.89081901635E+00  0.88000000000E+00 0.  1.
        -11    1    4    4    0    0  0.16649065975E-01 -0.55917088253E-02  0.35392645316E-01  0.39514036353E-01  0.51100000000E-03 0. -1.
         11    1    4    4    0    0  0.61843414038E-01 -0.21143769232E-01  0.61792563907E-01  0.89945810977E-01  0.51100000000E-03 0.  1.
</event>
<event>
 8    1  0.1075206E+005  0.1043930E+01  0.7957747E-01            NaN
         13   -1    0    0    0    0  0.00000000000E+00  0.00000000000E+00  0.74505805969E-08  0.10566000000E+00  0.10566000000E+00 0.  1.
     999900   -1    0    0    0    0 -0.00000000000E+00 -0.00000000000E+00 -0.74505805969E-08  0.93827000000E+00  0.93827000000E+00 0.  1.
     999902    2    1    2    0    0  0.60222739656E-02  0.78628001935E-02 -0.21103879706E-01  0.10206176610E+01  0.10203513830E+01 0.  0.
     999903    2    3    3    0    0 -0.92538473888E-01 -0.57426928886E-01  0.65310163213E-01  0.12851657001E+00  0.19745126955E-01 0.  0.
         14    1    1    2    0    0 -0.60222739656E-02 -0.78628001935E-02  0.21103879706E-01  0.23312338991E-01  0.00000000000E+00 0.  1.
     999901    1    3    3    0    0  0.98560747854E-01  0.65289729080E-01 -0.86414042918E-01  0.89210109099E+00  0.88000000000E+00 0.  1.
        -11    1    4    4    0    0 -0.32829155382E-01 -0.30093031232E-01  0.20600405861E-01  0.49071191288E-01  0.51100000000E-03 0. -1.
         11    1    4    4    0    0 -0.59709318506E-01 -0.27333897655E-01  0.44709757352E-01  0.79445378726E-01  0.51100000000E-03 0.  1.
</event>
<event>
 8    1  0.1075206E+005  0.1043930E+01  0.7957747E-01            NaN
         13   -1    0    0    0    0  0.00000000000E+00  0.00000000000E+00  0.74505805969E-08  0.10566000000E+00  0.10566000000E+00 0.  1.
     999900   -1    0    0    0    0 -0.00000000000E+00 -0.00000000000E+00 -0.74505805969E-08  0.93827000000E+00  0.93827000000E+00 0. -1.
     999902    2    1    2    0    0  0.16797560842E-01  0.40514816924E-02  0.16278502531E-01  0.10201905350E+01  0.10199142932E+01 0.  0.
     999903    2    3    3    0    0  0.78350053611E-01  0.76233183389E-01 -0.69209314097E-01  0.13097342190E+00  0.20344014747E-01 0.  0.
         14    1    1    2    0    0 -0.16797560842E-01 -0.40514816924E-02 -0.16278502531E-01  0.23739465007E-01  0.00000000000E+00 0.  1.
     999901    1    3    3    0    0 -0.61552492768E-01 -0.72181701697E-01  0.85487816628E-01  0.88921711309E+00  0.88000000000E+00 0.  1.
        -11    1    4    4    0    0  0.45104215065E-01  0.33776058031E-01 -0.43736338037E-01  0.71332606139E-01  0.51100000000E-03 0. -1.
         11    1    4    4    0    0  0.33245838546E-01  0.42457125358E-01 -0.25472976061E-01  0.59640815761E-01  0.51100000000E-03 0.  1.
</event>
<event>
 8    1  0.1075206E+005  0.1043930E+01  0.7957747E-01            NaN
         13   -1    0    0    0    0  0.00000000000E+00  0.00000000000E+00  0.74505805969E-08  0.10566000000E+00  0.10566000000E+00 0. -1.
     999900   -1    0    0    0    0 -0.00000000000E+00 -0.00000000000E+00 -0.74505805969E-08  0.93827000000E+00  0.93827000000E+00 0. -1.
     999902    2    1    2    0    0  0.79181105753E-02 -0.65310960199E-02 -0.20835755064E-01  0.10207032831E+01  0.10204389799E+01 0.  0.
     999903    2    3    3    0    0  0.10647523369E+00 -0.67888128531E-01 -0.36710592921E-01  0.13293630777E+00  0.19458183550E-01 0.  0.
         14    1    1    2    0    0 -0.79181105753E-02  0.65310960199E-02  0.20835755064E-01  0.23226716931E-01  0.00000000000E+00 0. -1.
     999901    1    3    3    0    0 -0.98557123111E-01  0.61357032511E-01  0.15874837857E-01  0.88776697530E+00  0.88000000000E+00 0. -1.
        -11    1    4    4    0    0  0.94408249335E-01 -0.63578623203E-01 -0.27355551398E-01  0.11706300092E+00  0.51100000000E-03 0.  1.
         11    1    4    4    0    0  0.12066984352E-01 -0.43095053277E-02 -0.93550415225E-02  0.15873306852E-01  0.51100000000E-03 0. -1.
</event>
<event>
 8    1  0.1075206E+005  0.1043930E+01  0.7957747E-01            NaN
         13   -1    0    0    0    0  0.00000000000E+00  0.00000000000E+00  0.74505805969E-08  0.10566000000E+00  0.10566000000E+00 0. -1.
     999900   -1    0    0    0    0 -0.00000000000E+00 -0.00000000000E+00 -0.74505805969E-08  0.93827000000E+00  0.93827000000E+00 0. -1.
     999902    2    1    2    0    0  0.33687005539E-02 -0.10424693506E-01  0.23077168770E-01  0.10183843918E+01  0.10180639427E+01 0.  0.
     999903    2    3    3    0    0 -0.50606107162E-01  0.69410234529E-01 -0.89819100352E-01  0.12595374289E+00  0.20447880559E-01 0.  0.
         14    1    1    2    0    0 -0.33687005539E-02  0.10424693506E-01 -0.23077168770E-01  0.25545608165E-01  0.00000000000E+00 0.  1.
     999901    1    3    3    0    0  0.53974807716E-01 -0.79834928036E-01  0.11289626912E+00  0.89243064895E+00  0.88000000000E+00 0. -1.
        -11    1    4    4    0    0 -0.47553654101E-01  0.66343473260E-01 -0.90112669801E-01  0.12158684486E+00  0.51100000000E-03 0.  1.
         11    1    4    4    0    0 -0.30524530606E-02  0.30667612697E-02  0.29356944916E-03  0.43668980288E-02  0.51100000000E-03 0. -1.
</event>
<event>
 8    1  0.1075206E+005  0.1043930E+01  0.7957747E-01            NaN
         13   -1    0    0    0    0  0.00000000000E+00  0.00000000000E+00  0.74505805969E-08  0.10566000000E+00  0.10566000000E+00 0.  1.
     999900   -1    0    0    0    0 -0.00000000000E+00 -0.00000000000E+00 -0.74505805969E-08  0.93827000000E+00  0.93827000000E+00 0.  1.
     999902    2    1    2    0    0  0.12197426514E-01 -0.15541870459E-02  0.20398419101E-01  0.10201121871E+01  0.10198340973E+01 0.  0.
     999903    2    3    3    0    0  0.15289425773E-01  0.10127742319E+00 -0.75932517871E-01  0.12889753843E+00  0.18919438550E-01 0.  0.
         14    1    1    2    0    0 -0.12197426514E-01  0.15541870459E-02 -0.20398419101E-01  0.23817812930E-01  0.00000000000E+00 0. -1.
     999901    1    3    3    0    0 -0.30919992586E-02 -0.10283161024E+00  0.96330936972E-01  0.89121464864E+00  0.88000000000E+00 0. -1.
        -11    1    4    4    0    0  0.15020689088E-01  0.88869119484E-01 -0.58350935994E-01  0.10737054694E+00  0.51100000000E-03 0. -1.
         11    1    4    4    0    0  0.26873668487E-03  0.12408303710E-01 -0.17581581878E-01  0.21526991492E-01  0.51100000000E-03 0.  1.
</event>
<event>
 8    1  0.1075206E+005  0.1043930E+01  0.7957747E-01            NaN
         13   -1    0    0    0    0  0.00000000000E+00  0.00000000000E+00  0.74505805969E-08  0.10566000000E+00  0.10566000000E+00 0.  1.
     999900   -1    0    0    0    0 -0.00000000000E+00 -0.00000000000E+00 -0.74505805969E-08  0.93827000000E+00  0.93827000000E+00 0. -1.
     999902    2    1    2    0    0  0.90801096711E-02  0.21107525901E-01 -0.14072598205E-02  0.10209092176E+01  0.10206496334E+01 0.  0.
     999903    2    3    3    0    0  0.30761661106E-01  0.30360153209E-01  0.12355530822E+00  0.13176842776E+00  0.15132272344E-01 0.  0.
         14    1    1    2    0    0 -0.90801096711E-02 -0.21107525901E-01  0.14072598205E-02  0.23020782382E-01  0.00000000000E+00 0.  1.
     999901    1    3    3    0    0 -0.21681551434E-01 -0.92526273086E-02 -0.12496256804E+00  0.88914078986E+00  0.88000000000E+00 0. -1.
        -11    1    4    4    0    0  0.23354226752E-01  0.12837028302E-01  0.67597588839E-01  0.72662950261E-01  0.51100000000E-03 0.  1.
         11    1    4    4    0    0  0.74074343538E-02  0.17523124908E-01  0.55957719383E-01  0.59105477494E-01  0.51100000000E-03 0. -1.
</event>
<event>
 8    1  0.1075206E+005  0.1043930E+01  0.7957747E-01            NaN
         13   -1    0    0    0    0  0.00000000000E+00  0.00000000000E+00  0.74505805969E-08  0.10566000000E+00  0.10566000000E+00 0. -1.
     999900   -1    0    0    0    0 -0.00000000000E+00 -0.00000000000E+00 -0.74505805969E-08  0.93827000000E+00  0.93827000000E+00 0.  1.
     999902    2    1    2    0    0  0.16542545082E-01 -0.13985119568E-01 -0.10707577670E-01  0.10197661512E+01  0.10194798240E+01 0.  0.
     999903    2    3    3    0    0  0.72999750324E-01 -0.62224928072E-01  0.87326217283E-01  0.13121389048E+00  0.19756305580E-01 0.  0.
         14    1    1    2    0    0 -0.16542545082E-01  0.13985119568E-01  0.10707577670E-01  0.24163848756E-01  0.00000000000E+00 0. -1.
     999901    1    3    3    0    0 -0.56457205242E-01  0.48239808504E-01 -0.98033794953E-01  0.88855226076E+00  0.88000000000E+00 0.  1.
        -11    1    4    4    0    0  0.38730075500E-01 -0.27423264276E-01  0.31131951424E-01  0.56758379929E-01  0.51100000000E-03 0.  1.
         11    1    4    4    0    0  0.34269674824E-01 -0.34801663797E-01  0.56194265860E-01  0.74455510556E-01  0.51100000000E-03 0. -1.
</event>
<event>
 8    1  0.1075206E+005  0.1043930E+01  0.7957747E-01            NaN
         13   -1    0    0    0    0  0.00000000000E+00  0.00000000000E+00  0.74505805969E-08  0.10566000000E+00  0.10566000000E+00 0.  1.
     999900   -1    0    0    0    0 -0.00000000000E+00 -0.00000000000E+00 -0.74505805969E-08  0.93827000000E+00  0.93827000000E+00 0. -1.
     999902    2    1    2    0    0  0.48457847093E-03 -0.17703043602E-02 -0.23477440427E-01  0.10203809235E+01  0.10201091462E+01 0.  0.
     999903    2    3    3    0    0  0.17356509272E-01 -0.11164229126E+00  0.60049126151E-01  0.12946386629E+00  0.19741973321E-01 0.  0.
         14    1    1    2    0    0 -0.48457847093E-03  0.17703043602E-02  0.23477440427E-01  0.23549076475E-01  0.00000000000E+00 0.  1.
     999901    1    3    3    0    0 -0.16871930802E-01  0.10987198690E+00 -0.83526566579E-01  0.89091705724E+00  0.88000000000E+00 0. -1.
        -11    1    4    4    0    0  0.12014165104E-01 -0.23640233428E-01  0.14484265565E-01  0.30220123588E-01  0.51100000000E-03 0. -1.
         11    1    4    4    0    0  0.53423441687E-02 -0.88002057830E-01  0.45564860586E-01  0.99243742698E-01  0.51100000000E-03 0.  1.
</event>
<event>
 8    1  0.1075206E+005  0.1043930E+01  0.7957747E-01            NaN
         13   -1    0    0    0    0  0.00000000000E+00  0.00000000000E+00  0.74505805969E-08  0.10566000000E+00  0.10566000000E+00 0. -1.
     999900   -1    0    0    0    0 -0.00000000000E+00 -0.00000000000E+00 -0.74505805969E-08  0.93827000000E+00  0.93827000000E+00 0. -1.
     999902    2    1    2    0    0  0.81692857141E-04  0.11162015951E-01  0.22685763257E-01  0.10186467817E+01  0.10183329636E+01 0.  0.
     999903    2    3    3    0    0 -0.32863655734E-01  0.17672854883E-01 -0.11936219778E+00  0.12662356996E+00  0.19845516923E-01 0.  0.
         14    1    1    2    0    0 -0.81692857141E-04 -0.11162015951E-01 -0.22685763257E-01  0.25283218315E-01  0.00000000000E+00 0.  1.
     999901    1    3    3    0    0  0.32945348591E-01 -0.65108389328E-02  0.14204796104E+00  0.89202321172E+00  0.88000000000E+00 0.  1.
        -11    1    4    4    0    0 -0.56533271715E-03  0.41003998576E-02 -0.35386379843E-01  0.35631304768E-01  0.51100000000E-03 0. -1.
         11    1    4    4    0    0 -0.32298323017E-01  0.13572455026E-01 -0.83975817941E-01  0.90992265194E-01  0.51100000000E-03 0.  1.
</event>
<event>
 8    1  0.1075206E+005  0.1043930E+01  0.7957747E-01            NaN
         13   -1    0    0    0    0  0.00000000000E+00  0.00000000000E+00  0.74505805969E-08  0.10566000000E+00  0.10566000000E+00 0. -1.
     999900   -1    0    0    0    0 -0.00000000000E+00 -0.00000000000E+00 -0.74505805969E-08  0.93827000000E+00  0.93827000000E+00 0. -1.
     999902    2    1    2    0    0  0.93438526835E-02 -0.12762562917E-01  0.17848014214E-01  0.10200816834E+01  0.10198028724E+01 0.  0.
     999903    2    3    3    0    0 -0.24267882619E-01  0.10100681623E+00 -0.71415958363E-01  0.12764609623E+00  0.20049431973E-01 0.  0.
         14    1    1    2    0    0 -0.93438526835E-02  0.12762562917E-01 -0.17848014214E-01  0.23848316640E-01  0.00000000000E+00 0.  1.
     999901    1    3    3    0    0  0.33611735303E-01 -0.11376937914E+00  0.89263972577E-01  0.89243558713E+00  0.88000000000E+00 0.  1.
        -11    1    4    4    0    0 -0.12911860128E-01  0.51412934312E-01 -0.48473403825E-01  0.71832708051E-01  0.51100000000E-03 0. -1.
         11    1    4    4    0    0 -0.11356022491E-01  0.49593881913E-01 -0.22942554538E-01  0.55813388177E-01  0.51100000000E-03 0.  1.
</event>
<event>
 8    1  0.1075206E+005  0.1043930E+01  0.7957747E-01            NaN
         13   -1    0    0    0    0  0.00000000000E+00  0.00000000000E+00  0.74505805969E-08  0.10566000000E+00  0.10566000000E+00 0.  1.
     999900   -1    0    0    0    0 -0.00000000000E+00 -0.00000000000E+00 -0.74505805969E-08  0.93827000000E+00  0.93827000000E+00 0.  1.
     999902    2    1    2    0    0  0.84195245117E-02 -0.12155315448E-02  0.22399729544E-01  0.10199693282E+01  0.10196878526E+01 0.  0.
     999903    2    3    3    0    0 -0.28284833035E-01  0.78896882271E-01  0.10047226473E+00  0.13212895433E+00  0.18402031935E-01 0.  0.
         14    1    1    2    0    0 -0.84195245117E-02  0.12155315448E-02 -0.22399729544E-01  0.23960671810E-01  0.00000000000E+00 0. -1.
     999901    1    3    3    0    0  0.36704357547E-01 -0.80112413816E-01 -0.78072535187E-01  0.88784037386E+00  0.88000000000E+00 0.  1.
        -11    1    4    4    0    0  0.62403802092E-03  0.20105365760E-01  0.20165562822E-01  0.28487298937E-01  0.51100000000E-03 0. -1.
         11    1    4    4    0    0 -0.28908871056E-01  0.58791516511E-01  0.80306701910E-01  0.10364165539E+00  0.51100000000E-03 0.  1.
</event>
<event>
 8    1  0.1075206E+005  0.1043930E+01  0.7957747E-01            NaN
         13   -1    0    0    0    0  0.00000000000E+00  0.00000000000E+00  0.74505805969E-08  0.10566000000E+00  0.10566000000E+00 0.  1.
     999900   -1    0    0    0    0 -0.00000000000E+00 -0.00000000000E+00 -0.74505805969E-08  0.93827000000E+00  0.93827000000E+00 0.  1.
     999902    2    1    2    0    0  0.20968863623E-01  0.57264950933E-02  0.95523992130E-02  0.10201869101E+01  0.10199105829E+01 0.  0.
     999903    2    3    3    0    0 -0.14418529978E-01 -0.84578239668E-01  0.96375752587E-01  0.13061088330E+00  0.20237206287E-01 0.  0.
         14    1    1    2    0    0 -0.20968863623E-01 -0.57264950933E-02 -0.95523992130E-02  0.23743089909E-01  0.00000000000E+00 0. -1.
     999901    1    3    3    0    0  0.35387393601E-01  0.90304734761E-01 -0.86823353374E-01  0.88957602679E+00  0.88000000000E+00 0.  1.
        -11    1    4    4    0    0  0.62408004117E-03 -0.14014517392E-01  0.68207033014E-02  0.15607026883E-01  0.51100000000E-03 0. -1.
         11    1    4    4    0    0 -0.15042610019E-01 -0.70563722276E-01  0.89555049286E-01  0.11500385642E+00  0.51100000000E-03 0.  1.
</event>
<event>
 8    1  0.1075206E+005  0.1043930E+01  0.7957747E-01            NaN
         13   -1    0    0    0    0  0.00000000000E+00  0.00000000000E+00  0.74505805969E-08  0.10566000000E+00  0.10566000000E+00 0. -1.
     999900   -1    0    0    0    0 -0.00000000000E+00 -0.00000000000E+00 -0.74505805969E-08  0.93827000000E+00  0.93827000000E+00 0. -1.
     999902    2    1    2    0    0 -0.15551037843E-01 -0.17238677434E-01  0.57004839191E-02  0.10200238858E+01  0.10197437057E+01 0.  0.
     999903    2    3    3    0    0 -0.12143917723E+00  0.46111680734E-01 -0.14799846585E-02  0.13138609400E+00  0.19655901837E-01 0.  0.
         14    1    1    2    0    0  0.15551037843E-01  0.17238677434E-01 -0.57004839191E-02  0.23906114168E-01  0.00000000000E+00 0.  1.
     999901    1    3    3    0    0  0.10588813938E+00 -0.63350358168E-01  0.71804685776E-02  0.88863779183E+00  0.88000000000E+00 0.  1.
        -11    1    4    4    0    0 -0.17315169014E-01  0.13639700347E-01 -0.33372126636E-02  0.22299206553E-01  0.51100000000E-03 0.  1.
         11    1    4    4    0    0 -0.10412400821E+00  0.32471980387E-01  0.18572280051E-02  0.10908688745E+00  0.51100000000E-03 0. -1.
</event>
<event>
 8    1  0.1075206E+005  0.1043930E+01  0.7957747E-01            NaN
         13   -1    0    0    0    0  0.00000000000E+00  0.00000000000E+00  0.74505805969E-08  0.10566000000E+00  0.10566000000E+00 0. -1.
     999900   -1    0    0    0    0 -0.00000000000E+00 -0.00000000000E+00 -0.74505805969E-08  0.93827000000E+00  0.93827000000E+00 0.  1.
     999902    2    1    2    0    0  0.16494297607E-01  0.60661268896E-02 -0.15260643930E-01  0.10206545408E+01  0.10203891143E+01 0.  0.
     999903    2    3    3    0    0 -0.50100746141E-01 -0.11445998221E+00  0.20901304284E-01  0.12921237814E+00  0.25451951821E-01 0.  0.
         14    1    1    2    0    0 -0.16494297607E-01 -0.60661268896E-02  0.15260643930E-01  0.23275459225E-01  0.00000000000E+00 0. -1.
     999901    1    3    3    0    0  0.66595043747E-01  0.12052610910E+00 -0.36161948214E-01  0.89144216264E+00  0.88000000000E+00 0. -1.
        -11    1    4    4    0    0 -0.14467886926E-01 -0.58646994343E-01  0.17562226594E-01  0.62908525825E-01  0.51100000000E-03 0. -1.
         11    1    4    4    0    0 -0.35632859215E-01 -0.55812987870E-01  0.33390776901E-02  0.66303852314E-01  0.51100000000E-03 0.  1.
</event>
<event>
 8    1  0.1075206E+005  0.1043930E+01  0.7957747E-01            NaN
         13   -1    0    0    0    0  0.00000000000E+00  0.00000000000E+00  0.74505805969E-08  0.10566000000E+00  0.10566000000E+00 0. -1.
     999900   -1    0    0    0    0 -0.00000000000E+00 -0.00000000000E+00 -0.74505805969E-08  0.93827000000E+00  0.93827000000E+00 0. -1.
     999902    2    1    2    0    0 -0.19366191411E-01  0.10107452432E-01 -0.91649576444E-02  0.10202402045E+01  0.10199651310E+01 0.  0.
     999903    2    3    3    0    0  0.10397122675E+00 -0.56979381421E-01 -0.45642602825E-01  0.12836387861E+00  0.18367695571E-01 0.  0.
         14    1    1    2    0    0  0.19366191411E-01 -0.10107452432E-01  0.91649576444E-02  0.23689795547E-01  0.00000000000E+00 0. -1.
     999901    1    3    3    0    0 -0.12333741816E+00  0.67086833854E-01  0.36477645181E-01  0.89187632584E+00  0.88000000000E+00 0.  1.
        -11    1    4    4    0    0  0.85859273761E-02 -0.64495157195E-02  0.95241421830E-03  0.10792711233E-01  0.51100000000E-03 0.  1.
         11    1    4    4    0    0  0.95385299375E-01 -0.50529865702E-01 -0.46595017043E-01  0.11757116738E+00  0.51100000000E-03 0. -1.
</event>
<event>
 8    1  0.1075206E+005  0.1043930E+01  0.7957747E-01            NaN
         13   -1    0    0    0    0  0.00000000000E+00  0.00000000000E+00  0.74505805969E-08  0.10566000000E+00  0.10566000000E+00 0.  1.
     999900   -1    0    0    0    0 -0.00000000000E+00 -0.00000000000E+00 -0.74505805969E-08  0.93827000000E+00  0.93827000000E+00 0. -1.
     999902    2    1    2    0    0  0.24296017427E-01 -0.23117872071E-02  0.41550026803E-02  0.10191730844E+01  0.10188723527E+01 0.  0.
     999903    2    3    3    0    0  0.24140444150E-01 -0.69664494817E-01  0.10626719803E+00  0.13071187992E+00  0.18893789789E-01 0.  0.
         14    1    1    2    0    0 -0.24296017427E-01  0.23117872071E-02 -0.41550026803E-02  0.24756915603E-01  0.00000000000E+00 0.  1.
     999901    1    3    3    0    0  0.15557327702E-03  0.67352707610E-01 -0.10211219535E+00  0.88846120448E+00  0.88000000000E+00 0. -1.
        -11    1    4    4    0    0 -0.16106146698E-02 -0.18314873172E-01  0.30698537164E-01  0.35786728880E-01  0.51100000000E-03 0.  1.
         11    1    4    4    0    0  0.25751058820E-01 -0.51349621645E-01  0.75568660866E-01  0.94925151038E-01  0.51100000000E-03 0. -1.
</event>
<event>
 7    1  0.1075206E+005  0.1043930E+01  0.7957747E-01            NaN
         13   -1    0    0    0    0  0.00000000000E+00  0.00000000000E+00  0.74505805969E-08  0.10566000000E+00  0.10566000000E+00 0.  1.
     999900   -1    0    0    0    0 -0.00000000000E+00 -0.00000000000E+00 -0.74505805969E-08  0.93827000000E+00  0.93827000000E+00 0.  1.
     999903    2    1    2    0    0  0.26996151650E-01 -0.12203299498E-01 -0.10240449405E+00  0.10848565424E+00  0.20118251661E-01 0.  0.
         14    1    1    2    0    0 -0.13191179777E-02  0.28989635097E-01 -0.33678296071E-01  0.44456345346E-01  0.00000000000E+00 0. -1.
     999901    1    1    2    0    0 -0.25677033672E-01 -0.16786335599E-01  0.13608279013E+00  0.89098800042E+00  0.88000000000E+00 0. -1.
        -11    1    3    3    0    0  0.21937642465E-01 -0.82857751101E-04 -0.74049566483E-01  0.77232547800E-01  0.51100000000E-03 0. -1.
         11    1    3    3    0    0  0.50585091843E-02 -0.12120441747E-01 -0.28354927571E-01  0.31253106436E-01  0.51100000000E-03 0.  1.
</event>
<event>
 8    1  0.1075206E+005  0.1043930E+01  0.7957747E-01            NaN
         13   -1    0    0    0    0  0.00000000000E+00  0.00000000000E+00  0.74505805969E-08  0.10566000000E+00  0.10566000000E+00 0. -1.
     999900   -1    0    0    0    0 -0.00000000000E+00 -0.00000000000E+00 -0.74505805969E-08  0.93827000000E+00  0.93827000000E+00 0.  1.
     999902    2    1    2    0    0 -0.15615124398E-01  0.40680229398E-03  0.17875975593E-01  0.10201908319E+01  0.10199145971E+01 0.  0.
     999903    2    3    3    0    0 -0.36201095835E-01 -0.11131032645E+00  0.57411723534E-01  0.13200865778E+00  0.20728521809E-01 0.  0.
         14    1    1    2    0    0  0.15615124398E-01 -0.40680229398E-03 -0.17875975593E-01  0.23739168087E-01  0.00000000000E+00 0.  1.
     999901    1    3    3    0    0  0.20585971437E-01  0.11171712875E+00 -0.39535747941E-01  0.88818217413E+00  0.88000000000E+00 0.  1.
        -11    1    4    4    0    0 -0.25916927871E-01 -0.63758766481E-01  0.43438813841E-01  0.81388323010E-01  0.51100000000E-03 0. -1.
         11    1    4    4    0    0 -0.10284167964E-01 -0.47551559971E-01  0.13972909693E-01  0.50620334774E-01  0.51100000000E-03 0.  1.
</event>
<event>
 8    1  0.1075206E+005  0.1043930E+01  0.7957747E-01            NaN
         13   -1    0    0    0    0  0.00000000000E+00  0.00000000000E+00  0.74505805969E-08  0.10566000000E+00  0.10566000000E+00 0.  1.
     999900   -1    0    0    0    0 -0.00000000000E+00 -0.00000000000E+00 -0.74505805969E-08  0.93827000000E+00  0.93827000000E+00 0. -1.
     999902    2    1    2    0    0  0.44448602307E-02  0.23463601616E-01  0.12797744486E-02  0.10200148331E+01  0.10197344383E+01 0.  0.
     999903    2    3    3    0    0  0.21012177175E-01  0.12822534769E+00 -0.23479915357E-01  0.13330036857E+00  0.18287439846E-01 0.  0.
         14    1    1    2    0    0 -0.44448602307E-02 -0.23463601616E-01 -0.12797744486E-02  0.23915166859E-01  0.00000000000E+00 0.  1.
     999901    1    3    3    0    0 -0.16567316945E-01 -0.10476174608E+00  0.24759689805E-01  0.88671446457E+00  0.88000000000E+00 0. -1.
        -11    1    4    4    0    0  0.28350543870E-02  0.35389002713E-01  0.12251236785E-02  0.35527188116E-01  0.51100000000E-03 0.  1.
         11    1    4    4    0    0  0.18177122788E-01  0.92836344981E-01 -0.24705039035E-01  0.97773180459E-01  0.51100000000E-03 0. -1.
</event>
<event>
 8    1  0.1075206E+005  0.1043930E+01  0.7957747E-01            NaN
         13   -1    0    0    0    0  0.00000000000E+00  0.00000000000E+00  0.74505805969E-08  0.10566000000E+00  0.10566000000E+00 0. -1.
     999900   -1    0    0    0    0 -0.00000000000E+00 -0.00000000000E+00 -0.74505805969E-08  0.93827000000E+00  0.93827000000E+00 0. -1.
     999902    2    1    2    0    0 -0.33813951223E-02  0.15900945046E-01  0.22503362858E-01  0.10161689621E+01  0.10157896851E+01 0.  0.
     999903    2    3    3    0    0 -0.31758756561E-01 -0.10502249612E+00 -0.53572563004E-01  0.12419626084E+00  0.22723300619E-01 0.  0.
         14    1    1    2    0    0  0.33813951223E-02 -0.15900945046E-01 -0.22503362858E-01  0.27761037917E-01  0.00000000000E+00 0.  1.
     999901    1    3    3    0    0  0.28377361438E-01  0.12092344116E+00  0.76075925861E-01  0.89197270124E+00  0.88000000000E+00 0. -1.
        -11    1    4    4    0    0  0.17965391288E-02 -0.17762877536E-01 -0.13919287977E-01  0.22644095698E-01  0.51100000000E-03 0. -1.
         11    1    4    4    0    0 -0.33555295689E-01 -0.87259618582E-01 -0.39653275027E-01  0.10155216514E+00  0.51100000000E-03 0.  1.
</event>
<event>
 8    1  0.1075206E+005  0.1043930E+01  0.7957747E-01            NaN
         13   -1    0    0    0    0  0.00000000000E+00  0.00000000000E+00  0.74505805969E-08  0.10566000000E+00  0.10566000000E+00 0. -1.
     999900   -1    0    0    0    0 -0.00000000000E+00 -0.00000000000E+00 -0.74505805969E-08  0.93827000000E+00  0.93827000000E+00 0. -1.
     999902    2    1    2    0    0  0.19932243879E-01  0.74172764344E-02 -0.92487328145E-02  0.10207384198E+01  0.10204749248E+01 0.  0.
     999903    2    3    3    0    0  0.13212737582E-01 -0.10260625296E+00 -0.78138539122E-01  0.13119014439E+00  0.20064972163E-01 0.  0.
         14    1    1    2    0    0 -0.19932243879E-01 -0.74172764344E-02  0.92487328145E-02  0.23191580249E-01  0.00000000000E+00 0.  1.
     999901    1    3    3    0    0  0.67195062975E-02  0.11002352939E+00  0.68889806308E-01  0.88954827536E+00  0.88000000000E+00 0.  1.
        -11    1    4    4    0    0  0.11182551313E-01 -0.83993485407E-01 -0.53391831545E-01  0.10015440001E+00  0.51100000000E-03 0.  1.
         11    1    4    4    0    0  0.20301862684E-02 -0.18612767553E-01 -0.24746707577E-01  0.31035744379E-01  0.51100000000E-03 0. -1.
</event>
<event>
 8    1  0.1075206E+005  0.1043930E+01  0.7957747E-01            NaN
         13   -1    0    0    0    0  0.00000000000E+00  0.00000000000E+00  0.74505805969E-08  0.10566000000E+00  0.10566000000E+00 0.  1.
     999900   -1    0    0    0    0 -0.00000000000E+00 -0.00000000000E+00 -0.74505805969E-08  0.93827000000E+00  0.93827000000E+00 0. -1.
     999902    2    1    2    0    0 -0.10994941576E-01 -0.49965892704E-02  0.20553959801E-01  0.10200905388E+01  0.10198119373E+01 0.  0.
     999903    2    3    3    0    0 -0.11630200795E+00 -0.54807972932E-01 -0.18634500347E-01  0.13154876291E+00  0.20682395180E-01 0.  0.
         14    1    1    2    0    0  0.10994941576E-01  0.49965892704E-02 -0.20553959801E-01  0.23839461154E-01  0.00000000000E+00 0. -1.
     999901    1    3    3    0    0  0.10530706637E+00  0.49811383661E-01  0.39188460148E-01  0.88854177593E+00  0.88000000000E+00 0.  1.
        -11    1    4    4    0    0 -0.84039056788E-01 -0.43543943317E-01 -0.22099020622E-01  0.97197046760E-01  0.51100000000E-03 0. -1.
         11    1    4    4    0    0 -0.32262951163E-01 -0.11264029615E-01  0.34645202751E-02  0.34351716152E-01  0.51100000000E-03 0.  1.
</event>
<event>
 8    1  0.1075206E+005  0.1043930E+01  0.7957747E-01            NaN
         13   -1    0    0    0    0  0.00000000000E+00  0.00000000000E+00  0.74505805969E-08  0.10566000000E+00  0.10566000000E+00 0. -1.
     999900   -1    0    0    0    0 -0.00000000000E+00 -0.00000000000E+00 -0.74505805969E-08  0.93827000000E+00  0.93827000000E+00 0.  1.
     999902    2    1    2    0    0 -0.47599053952E-03  0.21814431458E-01 -0.34209509995E-03  0.10221076945E+01  0.10218747116E+01 0.  0.
     999903    2    3    3    0    0 -0.23256926687E-01 -0.65920349659E-01 -0.10888569004E+00  0.13081757629E+00  0.19255327406E-01 0.  0.
         14    1    1    2    0    0  0.47599053952E-03 -0.21814431458E-01  0.34209509995E-03  0.21822305466E-01  0.00000000000E+00 0. -1.
     999901    1    3    3    0    0  0.22780936148E-01  0.87734781116E-01  0.10854359494E+00  0.89129011824E+00  0.88000000000E+00 0. -1.
        -11    1    4    4    0    0 -0.21606952012E-02 -0.20089530018E-01 -0.19006972569E-01  0.27744980579E-01  0.51100000000E-03 0. -1.
         11    1    4    4    0    0 -0.21096231486E-01 -0.45830819641E-01 -0.89878717472E-01  0.10307259571E+00  0.51100000000E-03 0.  1.
</event>
<event>
 8    1  0.1075206E+005  0.1043930E+01  0.7957747E-01            NaN
         13   -1    0    0    0    0  0.00000000000E+00  0.00000000000E+00  0.74505805969E-08  0.10566000000E+00  0.10566000000E+00 0. -1.
     999900   -1    0    0    0    0 -0.00000000000E+00 -0.00000000000E+00 -0.74505805969E-08  0.93827000000E+00  0.93827000000E+00 0.  1.
     999902    2    1    2    0    0  0.21071674449E-01  0.42775803207E-02 -0.91006408938E-02  0.10205818775E+01  0.10203147720E+01 0.  0.
     999903    2    3    3    0    0  0.52581644862E-02 -0.68606104963E-01  0.10823756283E+00  0.12966641987E+00  0.19067367475E-01 0.  0.
         14    1    1    2    0    0 -0.21071674449E-01 -0.42775803207E-02  0.91006408938E-02  0.23348122455E-01  0.00000000000E+00 0. -1.
     999901    1    3    3    0    0  0.15813509963E-01  0.72883685284E-01 -0.11733820372E+00  0.89091545768E+00  0.88000000000E+00 0.  1.
        -11    1    4    4    0    0  0.95930287025E-02 -0.58970485880E-01  0.98951177547E-01  0.11559040213E+00  0.51100000000E-03 0.  1.
         11    1    4    4    0    0 -0.43348642163E-02 -0.96356190827E-02  0.92863852799E-02  0.14076017741E-01  0.51100000000E-03 0. -1.
</event>
<event>
 8    1  0.1075206E+005  0.1043930E+01  0.7957747E-01            NaN
         13   -1    0    0    0    0  0.00000000000E+00  0.00000000000E+00  0.74505805969E-08  0.10566000000E+00  0.10566000000E+00 0.  1.
     999900   -1    0    0    0    0 -0.00000000000E+00 -0.00000000000E+00 -0.74505805969E-08  0.93827000000E+00  0.93827000000E+00 0. -1.
     999902    2    1    2    0    0 -0.34034093165E-02 -0.26576814412E-01 -0.68191780530E-02  0.10162820082E+01  0.10159058563E+01 0.  0.
     999903    2    3    3    0    0  0.99016482945E-01 -0.77362633918E-01  0.18560341870E-01  0.12852463495E+00  0.19617708242E-01 0.  0.
         14    1    1    2    0    0  0.34034093165E-02  0.26576814412E-01  0.68191780530E-02  0.27647991764E-01  0.00000000000E+00 0. -1.
     999901    1    3    3    0    0 -0.10241989226E+00  0.50785819506E-01 -0.25379519923E-01  0.88775737329E+00  0.88000000000E+00 0. -1.
        -11    1    4    4    0    0  0.28314040901E-01 -0.19472356386E-01 -0.34220810462E-02  0.34537361437E-01  0.51100000000E-03 0. -1.
         11    1    4    4    0    0  0.70702442045E-01 -0.57890277532E-01  0.21982422917E-01  0.93987273511E-01  0.51100000000E-03 0.  1.
</event>
<event>
 8    1  0.1075206E+005  0.1043930E+01  0.7957747E-01            NaN
         13   -1    0    0    0    0  0.00000000000E+00  0.00000000000E+00  0.74505805969E-08  0.10566000000E+00  0.10566000000E+00 0.  1.
     999900   -1    0    0    0    0 -0.00000000000E+00 -0.00000000000E+00 -0.74505805969E-08  0.93827000000E+00  0.93827000000E+00 0.  1.
     999902    2    1    2    0    0 -0.18706382774E-01 -0.11369702856E-01 -0.10709416632E-01  0.10195601312E+01  0.10192688412E+01 0.  0.
     999903    2    3    3    0    0 -0.60135958324E-01  0.96045418450E-02  0.11279154789E+00  0.12972373227E+00  0.19943237726E-01 0.  0.
         14    1    1    2    0    0  0.18706382774E-01  0.11369702856E-01  0.10709416632E-01  0.24369868775E-01  0.00000000000E+00 0.  1.
     999901    1    3    3    0    0  0.41429575550E-01 -0.20974244701E-01 -0.12350096452E+00  0.88983639896E+00  0.88000000000E+00 0.  1.
        -11    1    4    4    0    0 -0.16932589157E-01 -0.20180548179E-02  0.17440366431E-01  0.24396979793E-01  0.51100000000E-03 0.  1.
         11    1    4    4    0    0 -0.43203369168E-01  0.11622596663E-01  0.95351181457E-01  0.10532675247E+00  0.51100000000E-03 0. -1.
</event>
<event>
 8    1  0.1075206E+005  0.1043930E+01  0.7957747E-01            NaN
         13   -1    0    0    0    0  0.00000000000E+00  0.00000000000E+00  0.74505805969E-08  0.10566000000E+00  0.10566000000E+00 0.  1.
     999900   -1    0    0    0    0 -0.00000000000E+00 -0.00000000000E+00 -0.74505805969E-08  0.93827000000E+00  0.93827000000E+00 0.  1.
     999902    2    1    2    0    0  0.84960551004E-02  0.17909156505E-01  0.12121770837E-01  0.10206951519E+01  0.10204306615E+01 0.  0.
     999903    2    3    3    0    0 -0.84144612104E-02 -0.55499474387E-01  0.11695530268E+00  0.13127688017E+00  0.20101781730E-01 0.  0.
         14    1    1    2    0    0 -0.84960551004E-02 -0.17909156505E-01 -0.12121770837E-01  0.23234848121E-01  0.00000000000E+00 0. -1.
     999901    1    3    3    0    0  0.16910516311E-01  0.73408630892E-01 -0.10483353184E+00  0.88941827171E+00  0.88000000000E+00 0.  1.
        -11    1    4    4    0    0  0.13473142125E-02 -0.29045316062E-01  0.77515576907E-01  0.82791131319E-01  0.51100000000E-03 0. -1.
         11    1    4    4    0    0 -0.97617754229E-02 -0.26454158324E-01  0.39439725768E-01  0.48485748852E-01  0.51100000000E-03 0.  1.
</event>
<event>
 8    1  0.1075206E+005  0.1043930E+01  0.7957747E-01            NaN
         13   -1    0    0    0    0  0.00000000000E+00  0.00000000000E+00  0.74505805969E-08  0.10566000000E+00  0.10566000000E+00 0. -1.
     999900   -1    0    0    0    0 -0.00000000000E+00 -0.00000000000E+00 -0.74505805969E-08  0.93827000000E+00  0.93827000000E+00 0.  1.
     999902    2    1    2    0    0 -0.18016076278E-01  0.15061090163E-01 -0.55587671799E-02  0.10197987892E+01  0.10195132442E+01 0.  0.
     999903    2    3    3    0    0 -0.10749296160E+00  0.70268196779E-01 -0.32606631592E-01  0.13312775405E+00  0.12940255144E-01 0.  0.
         14    1    1    2    0    0  0.18016076278E-01 -0.15061090163E-01  0.55587671799E-02  0.24131210785E-01  0.00000000000E+00 0. -1.
     999901    1    3    3    0    0  0.89476885321E-01 -0.55207106615E-01  0.27047864412E-01  0.88667103516E+00  0.88000000000E+00 0.  1.
        -11    1    4    4    0    0 -0.66578003551E-01  0.36723231644E-01 -0.16329527145E-01  0.77769794117E-01  0.51100000000E-03 0.  1.
         11    1    4    4    0    0 -0.40914958049E-01  0.33544965135E-01 -0.16277104446E-01  0.55357959936E-01  0.51100000000E-03 0. -1.
</event>
<event>
 8    1  0.1075206E+005  0.1043930E+01  0.7957747E-01            NaN
         13   -1    0    0    0    0  0.00000000000E+00  0.00000000000E+00  0.74505805969E-08  0.10566000000E+00  0.10566000000E+00 0.  1.
     999900   -1    0    0    0    0 -0.00000000000E+00 -0.00000000000E+00 -0.74505805969E-08  0.93827000000E+00  0.93827000000E+00 0. -1.
     999902    2    1    2    0    0  0.20693488998E-01  0.12632462432E-01 -0.50873411124E-02  0.10191574217E+01  0.10188563047E+01 0.  0.
     999903    2    3    3    0    0  0.10984976545E+00  0.47781577968E-01 -0.53411754078E-01  0.13263638373E+00  0.19736885536E-01 0.  0.
         14    1    1    2    0    0 -0.20693488998E-01 -0.12632462432E-01  0.50873411124E-02  0.24772578259E-01  0.00000000000E+00 0.  1.
     999901    1    3    3    0    0 -0.89156276457E-01 -0.35149115535E-01  0.48324412965E-01  0.88652103801E+00  0.88000000000E+00 0.  1.
        -11    1    4    4    0    0  0.43150810215E-01  0.99275387767E-02 -0.14215312829E-01  0.46506824104E-01  0.51100000000E-03 0.  1.
         11    1    4    4    0    0  0.66698955239E-01  0.37854039191E-01 -0.39196441249E-01  0.86129559622E-01  0.51100000000E-03 0. -1.
</event>
<event>
 8    1  0.1075206E+005  0.1043930E+01  0.7957747E-01            NaN
         13   -1    0    0    0    0  0.00000000000E+00  0.00000000000E+00  0.74505805969E-08  0.10566000000E+00  0.10566000000E+00 0. -1.
     999900   -1    0    0    0    0 -0.00000000000E+00 -0.00000000000E+00 -0.74505805969E-08  0.93827000000E+00  0.93827000000E+00 0. -1.
     999902    2    1    2    0    0  0.10819419506E-01 -0.17549602298E-01  0.14843071448E-01  0.10185259619E+01  0.10182090994E+01 0.  0.
     999903    2    3    3    0    0 -0.11778898380E+00 -0.20776667984E-01  0.42947522526E-01  0.12872800987E+00  0.20506003938E-01 0.  0.
         14    1    1    2    0    0 -0.10819419506E-01  0.17549602298E-01 -0.14843071448E-01  0.25404038051E-01  0.00000000000E+00 0.  1.
     999901    1    3    3    0    0  0.12860840330E+00  0.32270656863E-02 -0.28104451078E-01  0.88979795208E+00  0.88000000000E+00 0.  1.
        -11    1    4    4    0    0 -0.23555158439E-01 -0.55891465919E-02  0.17700720227E-01  0.29994343905E-01  0.51100000000E-03 0. -1.
         11    1    4    4    0    0 -0.94233825358E-01 -0.15187521392E-01  0.25246802299E-01  0.98733665966E-01  0.51100000000E-03 0.  1.
</event>
<event>
 8    1  0.1075206E+005  0.1043930E+01  0.7957747E-01            NaN
         13   -1    0    0    0    0  0.00000000000E+00  0.00000000000E+00  0.74505805969E-08  0.10566000000E+00  0.10566000000E+00 0.  1.
     999900   -1    0    0    0    0 -0.00000000000E+00 -0.00000000000E+00 -0.74505805969E-08  0.93827000000E+00  0.93827000000E+00 0.  1.
     999902    2    1    2    0    0  0.66333928923E-02 -0.22024835624E-01 -0.53033051386E-03  0.10209218159E+01  0.10206625190E+01 0.  0.
     999903    2    3    3    0    0  0.12869216443E+00 -0.20653745587E-01  0.10979074677E-01  0.13242156828E+00  0.20656264718E-01 0.  0.
         14    1    1    2    0    0 -0.66333928923E-02  0.22024835624E-01  0.53033051386E-03  0.23008184109E-01  0.00000000000E+00 0.  1.
     999901    1    3    3    0    0 -0.12205877154E+00 -0.13710900376E-02 -0.11509405191E-01  0.88850024761E+00  0.88000000000E+00 0.  1.
        -11    1    4    4    0    0  0.44315483658E-01 -0.49353702248E-02 -0.57970846569E-02  0.44967624827E-01  0.51100000000E-03 0. -1.
         11    1    4    4    0    0  0.84376680774E-01 -0.15718375362E-01  0.16776159334E-01  0.87453943453E-01  0.51100000000E-03 0.  1.
</event>
<event>
 8    1  0.1075206E+005  0.1043930E+01  0.7957747E-01            NaN
         13   -1    0    0    0    0  0.00000000000E+00  0.00000000000E+00  0.74505805969E-08  0.10566000000E+00  0.10566000000E+00 0.  1.
     999900   -1    0    0    0    0 -0.00000000000E+00 -0.00000000000E+00 -0.74505805969E-08  0.93827000000E+00  0.93827000000E+00 0.  1.
     999902    2    1    2    0    0 -0.21137006337E-01  0.26630875971E-02  0.10465624241E-01  0.10201940702E+01  0.10199179117E+01 0.  0.
     999903    2    3    3    0    0 -0.11875840358E+00 -0.55834072232E-01 -0.28004875292E-02  0.13276641421E+00  0.19951841236E-01 0.  0.
         14    1    1    2    0    0  0.21137006337E-01 -0.26630875971E-02 -0.10465624241E-01  0.23735929794E-01  0.00000000000E+00 0. -1.
     999901    1    3    3    0    0  0.97621397243E-01  0.58497159829E-01  0.13266111770E-01  0.88742765600E+00  0.88000000000E+00 0. -1.
        -11    1    4    4    0    0 -0.63710038977E-01 -0.39192386593E-01  0.36756371748E-02  0.74891813057E-01  0.51100000000E-03 0.  1.
         11    1    4    4    0    0 -0.55048364602E-01 -0.16641685639E-01 -0.64761247040E-02  0.57874601152E-01  0.51100000000E-03 0. -1.
</event>
<event>
 8    1  0.1075206E+005  0.1043930E+01  0.7957747E-01            NaN
         13   -1    0    0    0    0  0.00000000000E+00  0.00000000000E+00  0.74505805969E-08  0.10566000000E+00  0.10566000000E+00 0. -1.
     999900   -1    0    0    0    0 -0.00000000000E+00 -0.00000000000E+00 -0.74505805969E-08  0.93827000000E+00  0.93827000000E+00 0. -1.
     999902    2    1    2    0    0  0.15628745430E-01  0.83215700466E-02  0.15172971811E-01  0.10206120823E+01  0.10203456754E+01 0.  0.
     999903    2    3    3    0    0 -0.70261861702E-01  0.10613131434E+00 -0.20135268955E-01  0.13033649894E+00  0.19534298218E-01 0.  0.
         14    1    1    2    0    0 -0.15628745430E-01 -0.83215700466E-02 -0.15172971811E-01  0.23317917688E-01  0.00000000000E+00 0. -1.
     999901    1    3    3    0    0  0.85890607132E-01 -0.97809744298E-01  0.35308240766E-01  0.89027558337E+00  0.88000000000E+00 0.  1.
        -11    1    4    4    0    0 -0.30504665747E-01  0.39994199615E-01 -0.17024002582E-01  0.53105069627E-01  0.51100000000E-03 0. -1.
         11    1    4    4    0    0 -0.39757195956E-01  0.66137114730E-01 -0.31112663730E-02  0.77231429318E-01  0.51100000000E-03 0.  1.
</event>
<event>
 8    1  0.1075206E+005  0.1043930E+01  0.7957747E-01            NaN
         13   -1    0    0    0    0  0.00000000000E+00  0.00000000000E+00  0.74505805969E-08  0.10566000000E+00  0.10566000000E+00 0. -1.
     999900   -1    0    0    0    0 -0.00000000000E+00 -0.00000000000E+00 -0.74505805969E-08  0.93827000000E+00  0.93827000000E+00 0.  1.
     999902    2    1    2    0    0 -0.16294537504E-01  0.16634295637E-01 -0.45218449389E-02  0.10202095695E+01  0.10199337757E+01 0.  0.
     999903    2    3    3    0    0  0.56015985074E-01  0.94979442149E-01 -0.68685249790E-01  0.13145554489E+00  0.20100042982E-01 0.  0.
         14    1    1    2    0    0  0.16294537504E-01 -0.16634295637E-01  0.45218449389E-02  0.23720430549E-01  0.00000000000E+00 0.  1.
     999901    1    3    3    0    0 -0.72310522578E-01 -0.78345146512E-01  0.64163404851E-01  0.88875402456E+00  0.88000000000E+00 0.  1.
        -11    1    4    4    0    0  0.19784928184E-01  0.18032980600E-01 -0.20337104161E-01  0.33622770546E-01  0.51100000000E-03 0. -1.
         11    1    4    4    0    0  0.36231056891E-01  0.76946461549E-01 -0.48348145629E-01  0.97832774340E-01  0.51100000000E-03 0.  1.
</event>
<event>
 8    1  0.1075206E+005  0.1043930E+01  0.7957747E-01            NaN
         13   -1    0    0    0    0  0.00000000000E+00  0.00000000000E+00  0.74505805969E-08  0.10566000000E+00  0.10566000000E+00 0. -1.
     999900   -1    0    0    0    0 -0.00000000000E+00 -0.00000000000E+00 -0.74505805969E-08  0.93827000000E+00  0.93827000000E+00 0.  1.
     999902    2    1    2    0    0  0.16291200362E-01 -0.58930449959E-02 -0.16919553658E-01  0.10197142513E+01  0.10194266780E+01 0.  0.
     999903    2    3    3    0    0 -0.61131678548E-01 -0.87333177179E-01  0.69236586758E-01  0.12839518507E+00  0.18095652675E-01 0.  0.
         14    1    1    2    0    0 -0.16291200362E-01  0.58930449959E-02  0.16919553658E-01  0.24215748689E-01  0.00000000000E+00 0.  1.
     999901    1    3    3    0    0  0.77422878910E-01  0.81440132183E-01 -0.86156140417E-01  0.89131906624E+00  0.88000000000E+00 0. -1.
        -11    1    4    4    0    0 -0.18273947727E-01 -0.15903433217E-01  0.21443533709E-01  0.32356492587E-01  0.51100000000E-03 0.  1.
         11    1    4    4    0    0 -0.42857730821E-01 -0.71429743962E-01  0.47793053049E-01  0.96038692486E-01  0.51100000000E-03 0. -1.
</event>
<event>
 8    1  0.1075206E+005  0.1043930E+01  0.7957747E-01            NaN
         13   -1    0    0    0    0  0.00000000000E+00  0.00000000000E+00  0.74505805969E-08  0.10566000000E+00  0.10566000000E+00 0.  1.
     999900   -1    0    0    0    0 -0.00000000000E+00 -0.00000000000E+00 -0.74505805969E-08  0.93827000000E+00  0.93827000000E+00 0. -1.
     999902    2    1    2    0    0  0.16421892342E-01  0.13769118312E-01  0.11256514878E-01  0.10197230528E+01  0.10194356910E+01 0.  0.
     999903    2    3    3    0    0 -0.41108424448E-01  0.28576044326E-01  0.11955603350E+00  0.13109615235E+00  0.19648489616E-01 0.  0.
         14    1    1    2    0    0 -0.16421892342E-01 -0.13769118312E-01 -0.11256514878E-01  0.24206947234E-01  0.00000000000E+00 0. -1.
     999901    1    3    3    0    0  0.57530316791E-01 -0.14806926014E-01 -0.10829951862E+00  0.88862690042E+00  0.88000000000E+00 0. -1.
        -11    1    4    4    0    0 -0.15224114965E-01  0.15620962559E-01  0.73740188989E-01  0.76900355922E-01  0.51100000000E-03 0. -1.
         11    1    4    4    0    0 -0.25884309484E-01  0.12955081767E-01  0.45815844513E-01  0.54195796428E-01  0.51100000000E-03 0.  1.
</event>
<event>
 8    1  0.1075206E+005  0.1043930E+01  0.7957747E-01            NaN
         13   -1    0    0    0    0  0.00000000000E+00  0.00000000000E+00  0.74505805969E-08  0.10566000000E+00  0.10566000000E+00 0.  1.
     999900   -1    0    0    0    0 -0.00000000000E+00 -0.00000000000E+00 -0.74505805969E-08  0.93827000000E+00  0.93827000000E+00 0. -1.
     999902    2    1    2    0    0 -0.68723116486E-02  0.20000322417E-01  0.88500376806E-02  0.10210048014E+01  0.10207473927E+01 0.  0.
     999903    2    3    3    0    0  0.94811136676E-01  0.87249960249E-01  0.23181773921E-01  0.13248500076E+00  0.20326671727E-01 0.  0.
         14    1    1    2    0    0  0.68723116486E-02 -0.20000322417E-01 -0.88500376806E-02  0.22925198606E-01  0.00000000000E+00 0.  1.
     999901    1    3    3    0    0 -0.10168344832E+00 -0.67249637832E-01 -0.14331736241E-01  0.88851980063E+00  0.88000000000E+00 0. -1.
        -11    1    4    4    0    0  0.44427410304E-01  0.29822502903E-01  0.15447956289E-01  0.55696291979E-01  0.51100000000E-03 0.  1.
         11    1    4    4    0    0  0.50383726372E-01  0.57427457346E-01  0.77338176327E-02  0.76788708782E-01  0.51100000000E-03 0. -1.
</event>
<event>
 8    1  0.1075206E+005  0.1043930E+01  0.7957747E-01            NaN
         13   -1    0    0    0    0  0.00000000000E+00  0.00000000000E+00  0.74505805969E-08  0.10566000000E+00  0.10566000000E+00 0. -1.
     999900   -1    0    0    0    0 -0.00000000000E+00 -0.00000000000E+00 -0.74505805969E-08  0.93827000000E+00  0.93827000000E+00 0. -1.
     999902    2    1    2    0    0 -0.48570026077E-02 -0.23292880778E-01 -0.31161964517E-02  0.10199329283E+01  0.10196505866E+01 0.  0.
     999903    2    3    3    0    0  0.85040886082E-01 -0.98331837779E-01 -0.11985092203E-01  0.13213163705E+00  0.20347590700E-01 0.  0.
         14    1    1    2    0    0  0.48570026077E-02  0.23292880778E-01  0.31161964517E-02  0.23997071688E-01  0.00000000000E+00 0.  1.
     999901    1    3    3    0    0 -0.89897888690E-01  0.75038957001E-01  0.88688957512E-02  0.88780129126E+00  0.88000000000E+00 0. -1.
        -11    1    4    4    0    0  0.49063644014E-01 -0.67491317520E-01 -0.14423442972E-01  0.84679489445E-01  0.51100000000E-03 0. -1.
         11    1    4    4    0    0  0.35977242068E-01 -0.30840520258E-01  0.24383507692E-02  0.47452147602E-01  0.51100000000E-03 0.  1.
</event>
<event>
 8    1  0.1075206E+005  0.1043930E+01  0.7957747E-01            NaN
         13   -1    0    0    0    0  0.00000000000E+00  0.00000000000E+00  0.74505805969E-08  0.10566000000E+00  0.10566000000E+00 0. -1.
     999900   -1    0    0    0    0 -0.00000000000E+00 -0.00000000000E+00 -0.74505805969E-08  0.93827000000E+00  0.93827000000E+00 0. -1.
     999902    2    1    2    0    0  0.20942458700E-01 -0.83909465956E-02  0.82621793583E-02  0.10199038024E+01  0.10196207668E+01 0.  0.
     999903    2    3    3    0    0  0.25157116430E-01  0.14937123943E-01 -0.12442578104E+00  0.12964088788E+00  0.21656099445E-01 0.  0.
         14    1    1    2    0    0 -0.20942458700E-01  0.83909465956E-02 -0.82621793583E-02  0.24026197554E-01  0.00000000000E+00 0.  1.
     999901    1    3    3    0    0 -0.42146577298E-02 -0.23328070539E-01  0.13268796040E+00  0.89026291457E+00  0.88000000000E+00 0.  1.
        -11    1    4    4    0    0  0.11773898769E-01  0.17189061206E-01 -0.53291976338E-01  0.57222236765E-01  0.51100000000E-03 0.  1.
         11    1    4    4    0    0  0.13383217660E-01 -0.22519372631E-02 -0.71133804706E-01  0.72418651115E-01  0.51100000000E-03 0. -1.
</event>
<event>
 8    1  0.1075206E+005  0.1043930E+01  0.7957747E-01            NaN
         13   -1    0    0    0    0  0.00000000000E+00  0.00000000000E+00  0.74505805969E-08  0.10566000000E+00  0.10566000000E+00 0.  1.
     999900   -1    0    0    0    0 -0.00000000000E+00 -0.00000000000E+00 -0.74505805969E-08  0.93827000000E+00  0.93827000000E+00 0.  1.
     999902    2    1    2    0    0  0.95248472075E-02 -0.20027222842E-01 -0.76207928648E-02  0.10204802910E+01  0.10202108289E+01 0.  0.
     999903    2    3    3    0    0  0.25277050408E-01 -0.12534540597E+00  0.24223511373E-01  0.13348868374E+00  0.29699328444E-01 0.  0.
         14    1    1    2    0    0 -0.95248472075E-02  0.20027222842E-01  0.76207928648E-02  0.23449709017E-01  0.00000000000E+00 0.  1.
     999901    1    3    3    0    0 -0.15752203200E-01  0.10531818312E+00 -0.31844304237E-01  0.88699160724E+00  0.88000000000E+00 0. -1.
        -11    1    4    4    0    0  0.12457407676E-01 -0.15281388094E-01 -0.13439320840E-02  0.19768032338E-01  0.51100000000E-03 0. -1.
         11    1    4    4    0    0  0.12819642732E-01 -0.11006401787E+00  0.25567443457E-01  0.11372065140E+00  0.51100000000E-03 0.  1.
</event>
<event>
 8    1  0.1075206E+005  0.1043930E+01  0.7957747E-01            NaN
         13   -1    0    0    0    0  0.00000000000E+00  0.00000000000E+00  0.74505805969E-08  0.10566000000E+00  0.10566000000E+00 0.  1.
     999900   -1    0    0    0    0 -0.00000000000E+00 -0.00000000000E+00 -0.74505805969E-08  0.93827000000E+00  0.93827000000E+00 0. -1.
     999902    2    1    2    0    0  0.51221870940E-02  0.19966550759E-01 -0.98224327586E-02  0.10210962501E+01  0.10208409141E+01 0.  0.
     999903    2    3    3    0    0  0.19360976840E-01  0.52974729371E-01 -0.11941292436E+00  0.13357027366E+00  0.20010050602E-01 0.  0.
         14    1    1    2    0    0 -0.51221870940E-02 -0.19966550759E-01  0.98224327586E-02  0.22833749914E-01  0.00000000000E+00 0.  1.
     999901    1    3    3    0    0 -0.14238789746E-01 -0.33008178611E-01  0.10959049160E+00  0.88752597643E+00  0.88000000000E+00 0.  1.
        -11    1    4    4    0    0  0.61834932059E-02  0.10159893104E-01 -0.46450552122E-01  0.47951787554E-01  0.51100000000E-03 0.  1.
         11    1    4    4    0    0  0.13177483634E-01  0.42814836266E-01 -0.72962372234E-01  0.85618486103E-01  0.51100000000E-03 0. -1.
</event>
<event>
 8    1  0.1075206E+005  0.1043930E+01  0.7957747E-01            NaN
         13   -1    0    0    0    0  0.00000000000E+00  0.00000000000E+00  0.74505805969E-08  0.10566000000E+00  0.10566000000E+00 0. -1.
     999900   -1    0    0    0    0 -0.00000000000E+00 -0.00000000000E+00 -0.74505805969E-08  0.93827000000E+00  0.93827000000E+00 0. -1.
     999902    2    1    2    0    0  0.27254143027E-02  0.23108933288E-01 -0.11950130311E-01  0.10177717070E+01  0.10174354973E+01 0.  0.
     999903    2    3    3    0    0 -0.83904963912E-01  0.60634401776E-02  0.93237830039E-01  0.12712032831E+00  0.19735162639E-01 0.  0.
         14    1    1    2    0    0 -0.27254143027E-02 -0.23108933288E-01  0.11950130311E-01  0.26158293049E-01  0.00000000000E+00 0.  1.
     999901    1    3    3    0    0  0.86630378215E-01  0.17045493110E-01 -0.10518796035E+00  0.89065137864E+00  0.88000000000E+00 0. -1.
        -11    1    4    4    0    0 -0.55309602108E-01  0.12295476259E-01  0.67624912529E-01  0.88225397349E-01  0.51100000000E-03 0. -1.
         11    1    4    4    0    0 -0.28595361804E-01 -0.62320360811E-02  0.25612917510E-01  0.38894930965E-01  0.51100000000E-03 0.  1.
</event>
<event>
 8    1  0.1075206E+005  0.1043930E+01  0.7957747E-01            NaN
         13   -1    0    0    0    0  0.00000000000E+00  0.00000000000E+00  0.74505805969E-08  0.10566000000E+00  0.10566000000E+00 0.  1.
     999900   -1    0    0    0    0 -0.00000000000E+00 -0.00000000000E+00 -0.74505805969E-08  0.93827000000E+00  0.93827000000E+00 0. -1.
     999902    2    1    2    0    0 -0.87936312958E-02  0.21576914125E-01 -0.41567583263E-03  0.10206262672E+01  0.10203601881E+01 0.  0.
     999903    2    3    3    0    0 -0.75263489596E-02 -0.42549164216E-02 -0.12904289821E+00  0.13089942611E+00  0.20195047283E-01 0.  0.
         14    1    1    2    0    0  0.87936312958E-02 -0.21576914125E-01  0.41567583263E-03  0.23303732768E-01  0.00000000000E+00 0.  1.
     999901    1    3    3    0    0 -0.12672823362E-02  0.25831830547E-01  0.12862722238E+00  0.88972684112E+00  0.88000000000E+00 0.  1.
        -11    1    4    4    0    0 -0.90771651828E-02 -0.93068809097E-03 -0.22405045452E-01  0.24197278582E-01  0.51100000000E-03 0.  1.
         11    1    4    4    0    0  0.15508162232E-02 -0.33242283306E-02 -0.10663785276E+00  0.10670214753E+00  0.51100000000E-03 0. -1.
</event>
<event>
 8    1  0.1075206E+005  0.1043930E+01  0.7957747E-01            NaN
         13   -1    0    0    0    0  0.00000000000E+00  0.00000000000E+00  0.74505805969E-08  0.10566000000E+00  0.10566000000E+00 0. -1.
     999900   -1    0    0    0    0 -0.00000000000E+00 -0.00000000000E+00 -0.74505805969E-08  0.93827000000E+00  0.93827000000E+00 0.  1.
     999902    2    1    2    0    0 -0.10863913087E-01 -0.62295281674E-02 -0.19939291235E-01  0.10203841519E+01  0.10201124499E+01 0.  0.
     999903    2    3    3    0    0  0.95813064229E-01  0.29467957693E-01 -0.81535479019E-01  0.13108758811E+00  0.22077536309E-01 0.  0.
         14    1    1    2    0    0  0.10863913087E-01  0.62295281674E-02  0.19939291235E-01  0.23545848121E-01  0.00000000000E+00 0.  1.
     999901    1    3    3    0    0 -0.10667697732E+00 -0.35697485860E-01  0.61596187784E-01  0.88929656377E+00  0.88000000000E+00 0.  1.
        -11    1    4    4    0    0  0.46606829310E-01  0.11077250910E-01 -0.25475482395E-01  0.54260145137E-01  0.51100000000E-03 0.  1.
         11    1    4    4    0    0  0.49206234919E-01  0.18390706782E-01 -0.56059996624E-01  0.76827442971E-01  0.51100000000E-03 0. -1.
</event>
<event>
 8    1  0.1075206E+005  0.1043930E+01  0.7957747E-01            NaN
         13   -1    0    0    0    0  0.00000000000E+00  0.00000000000E+00  0.74505805969E-08  0.10566000000E+00  0.10566000000E+00 0.  1.
     999900   -1    0    0    0    0 -0.00000000000E+00 -0.00000000000E+00 -0.74505805969E-08  0.93827000000E+00  0.93827000000E+00 0. -1.
     999902    2    1    2    0    0  0.68708045294E-02 -0.43183676497E-02 -0.21921513599E-01  0.10205546067E+01  0.10202868696E+01 0.  0.
     999903    2    3    3    0    0  0.77639695477E-01  0.38982025408E-01  0.92797308621E-01  0.12923896779E+00  0.23320585123E-01 0.  0.
         14    1    1    2    0    0 -0.68708045294E-02  0.43183676497E-02  0.21921513599E-01  0.23375393312E-01  0.00000000000E+00 0.  1.
     999901    1    3    3    0    0 -0.70768890948E-01 -0.43300393057E-01 -0.11471882222E+00  0.89131563889E+00  0.88000000000E+00 0. -1.
        -11    1    4    4    0    0  0.87749483953E-02  0.11808475278E-01  0.83109426400E-02  0.16904812814E-01  0.51100000000E-03 0. -1.
         11    1    4    4    0    0  0.68864747082E-01  0.27173550130E-01  0.84486365981E-01  0.11233415498E+00  0.51100000000E-03 0.  1.
</event>
<event>
 8    1  0.1075206E+005  0.1043930E+01  0.7957747E-01            NaN
         13   -1    0    0    0    0  0.00000000000E+00  0.00000000000E+00  0.74505805969E-08  0.10566000000E+00  0.10566000000E+00 0. -1.
     999900   -1    0    0    0    0 -0.00000000000E+00 -0.00000000000E+00 -0.74505805969E-08  0.93827000000E+00  0.93827000000E+00 0. -1.
     999902    2    1    2    0    0 -0.26942407640E-01  0.76658020202E-02 -0.37074329614E-02  0.10156739757E+01  0.10152808587E+01 0.  0.
     999903    2    3    3    0    0  0.95722063185E-01  0.47691889845E-01 -0.61002710162E-01  0.12442125683E+00  0.17946831643E-01 0.  0.
         14    1    1    2    0    0  0.26942407640E-01 -0.76658020202E-02  0.37074329614E-02  0.28256024300E-01  0.00000000000E+00 0. -1.
     999901    1    3    3    0    0 -0.12266447083E+00 -0.40026087825E-01  0.57295277200E-01  0.89125271887E+00  0.88000000000E+00 0.  1.
        -11    1    4    4    0    0  0.35422355073E-01  0.20455783244E-01 -0.13916021632E-01  0.43209941982E-01  0.51100000000E-03 0. -1.
         11    1    4    4    0    0  0.60299708112E-01  0.27236106601E-01 -0.47086688530E-01  0.81211314846E-01  0.51100000000E-03 0.  1.
</event>
<event>
 7    1  0.1075206E+005  0.1043930E+01  0.7957747E-01            NaN
         13   -1    0    0    0    0  0.00000000000E+00  0.00000000000E+00  0.74505805969E-08  0.10566000000E+00  0.10566000000E+00 0.  1.
     999900   -1    0    0    0    0 -0.00000000000E+00 -0.00000000000E+00 -0.74505805969E-08  0.93827000000E+00  0.93827000000E+00 0. -1.
     999902    2    1    2    0    0 -0.90264271131E-02  0.11500074329E-01  0.19266887095E-01  0.10197444458E+01  0.10194575977E+01 0.  0.
         14    1    1    2    0    0  0.90264271131E-02 -0.11500074329E-01 -0.19266887095E-01  0.24185554249E-01  0.00000000000E+00 0. -1.
     999901    1    3    3    0    0  0.17013601484E-01 -0.11586099948E-01  0.13191227899E+00  0.89006996899E+00  0.88000000000E+00 0.  1.
        -11    1    3    3    0    0 -0.17094926068E-01  0.20320097911E-01 -0.12966690956E-01  0.29555694404E-01  0.51100000000E-03 0.  1.
         11    1    3    3    0    0 -0.89451025285E-02  0.27660763662E-02 -0.99678700944E-01  0.10011878236E+00  0.51100000000E-03 0. -1.
</event>
<event>
 8    1  0.1075206E+005  0.1043930E+01  0.7957747E-01            NaN
         13   -1    0    0    0    0  0.00000000000E+00  0.00000000000E+00  0.74505805969E-08  0.10566000000E+00  0.10566000000E+00 0. -1.
     999900   -1    0    0    0    0 -0.00000000000E+00 -0.00000000000E+00 -0.74505805969E-08  0.93827000000E+00  0.93827000000E+00 0.  1.
     999902    2    1    2    0    0  0.37698347573E-02 -0.65707635722E-02  0.23608107990E-01  0.10191362639E+01  0.10188346259E+01 0.  0.
     999903    2    3    3    0    0  0.39663757984E-01  0.11040424335E+00  0.52221176678E-01  0.13020981379E+00  0.21569275977E-01 0.  0.
         14    1    1    2    0    0 -0.37698347573E-02  0.65707635722E-02 -0.23608107990E-01  0.24793736122E-01  0.00000000000E+00 0.  1.
     999901    1    3    3    0    0 -0.35893923227E-01 -0.11697500692E+00 -0.28613068688E-01  0.88892645009E+00  0.88000000000E+00 0. -1.
        -11    1    4    4    0    0  0.41442047083E-01  0.10223762796E+00  0.51665691423E-01  0.12181781737E+00  0.51100000000E-03 0.  1.
         11    1    4    4    0    0 -0.17782890988E-02  0.81666153866E-02  0.55548525449E-03  0.83919964168E-02  0.51100000000E-03 0. -1.
</event>
<event>
 8    1  0.1075206E+005  0.1043930E+01  0.7957747E-01            NaN
         13   -1    0    0    0    0  0.00000000000E+00  0.00000000000E+00  0.74505805969E-08  0.10566000000E+00  0.10566000000E+00 0. -1.
     999900   -1    0    0    0    0 -0.00000000000E+00 -0.00000000000E+00 -0.74505805969E-08  0.93827000000E+00  0.93827000000E+00 0. -1.
     999902    2    1    2    0    0 -0.86520660674E-02 -0.40826225447E-02  0.22207916076E-01  0.10197490656E+01  0.10194623284E+01 0.  0.
     999903    2    3    3    0    0  0.52620608634E-01 -0.10844420327E+00 -0.42636556145E-01  0.12910295976E+00  0.17905994049E-01 0.  0.
         14    1    1    2    0    0  0.86520660674E-02  0.40826225447E-02 -0.22207916076E-01  0.24180934442E-01  0.00000000000E+00 0.  1.
     999901    1    3    3    0    0 -0.61272674701E-01  0.10436158073E+00  0.64844472221E-01  0.89064610580E+00  0.88000000000E+00 0. -1.
        -11    1    4    4    0    0  0.15458649264E-01 -0.47079957740E-01 -0.23545347974E-01  0.54864713525E-01  0.51100000000E-03 0. -1.
         11    1    4    4    0    0  0.37161959369E-01 -0.61364245529E-01 -0.19091208171E-01  0.74238246235E-01  0.51100000000E-03 0.  1.
</event>
<event>
 8    1  0.1075206E+005  0.1043930E+01  0.7957747E-01            NaN
         13   -1    0    0    0    0  0.00000000000E+00  0.00000000000E+00  0.74505805969E-08  0.10566000000E+00  0.10566000000E+00 0.  1.
     999900   -1    0    0    0    0 -0.00000000000E+00 -0.00000000000E+00 -0.74505805969E-08  0.93827000000E+00  0.93827000000E+00 0.  1.
     999902    2    1    2    0    0  0.22258707584E-01 -0.87004542282E-02 -0.42833884686E-02  0.10196504740E+01  0.10193613656E+01 0.  0.
     999903    2    3    3    0    0  0.59425810799E-01 -0.64663702199E-01  0.95374026934E-01  0.13148107621E+00  0.21868859522E-01 0.  0.
         14    1    1    2    0    0 -0.22258707584E-01  0.87004542282E-02  0.42833884686E-02  0.24279526022E-01  0.00000000000E+00 0. -1.
     999901    1    3    3    0    0 -0.37167103215E-01  0.55963247971E-01 -0.99657415402E-01  0.88816939777E+00  0.88000000000E+00 0.  1.
        -11    1    4    4    0    0  0.45999567287E-02 -0.16746609825E-01  0.14251159755E-01  0.22471431150E-01  0.51100000000E-03 0. -1.
         11    1    4    4    0    0  0.54825854070E-01 -0.47917092374E-01  0.81122867178E-01  0.10900964506E+00  0.51100000000E-03 0.  1.
</event>
<event>
 8    1  0.1075206E+005  0.1043930E+01  0.7957747E-01            NaN
         13   -1    0    0    0    0  0.00000000000E+00  0.00000000000E+00  0.74505805969E-08  0.10566000000E+00  0.10566000000E+00 0.  1.
     999900   -1    0    0    0    0 -0.00000000000E+00 -0.00000000000E+00 -0.74505805969E-08  0.93827000000E+00  0.93827000000E+00 0.  1.
     999902    2    1    2    0    0  0.13951447463E-01 -0.27748725301E-02  0.21035496369E-01  0.10185364002E+01  0.10182198012E+01 0.  0.
     999903    2    3    3    0    0 -0.67422772742E-01 -0.10561443888E+00 -0.15842923490E-01  0.12805464407E+00  0.21136547968E-01 0.  0.
         14    1    1    2    0    0 -0.13951447463E-01  0.27748725301E-02 -0.21035496369E-01  0.25393599811E-01  0.00000000000E+00 0. -1.
     999901    1    3    3    0    0  0.81374220205E-01  0.10283956635E+00  0.36878419859E-01  0.89048175611E+00  0.88000000000E+00 0.  1.
        -11    1    4    4    0    0 -0.34242372842E-01 -0.48084379817E-01 -0.17650675196E-01  0.61615380678E-01  0.51100000000E-03 0. -1.
         11    1    4    4    0    0 -0.33180399900E-01 -0.57530059064E-01  0.18077517062E-02  0.66439263397E-01  0.51100000000E-03 0.  1.
</event>
<event>
 8    1  0.1075206E+005  0.1043930E+01  0.7957747E-01            NaN
         13   -1    0    0    0    0  0.00000000000E+00  0.00000000000E+00  0.74505805969E-08  0.10566000000E+00  0.10566000000E+00 0.  1.
     999900   -1    0    0    0    0 -0.00000000000E+00 -0.00000000000E+00 -0.74505805969E-08  0.93827000000E+00  0.93827000000E+00 0. -1.
     999902    2    1    2    0    0  0.79119547545E-02 -0.26245661278E-01  0.26358680654E-01  0.10059008821E+01  0.10051817601E+01 0.  0.
     999903    2    3    3    0    0  0.20440227607E-01 -0.11014847583E+00  0.42982199230E-01  0.12166506439E+00  0.20110415455E-01 0.  0.
         14    1    1    2    0    0 -0.79119547545E-02  0.26245661278E-01 -0.26358680654E-01  0.38029117920E-01  0.00000000000E+00 0. -1.
     999901    1    3    3    0    0 -0.12528272853E-01  0.83902814557E-01 -0.16623518576E-01  0.88423581769E+00  0.88000000000E+00 0.  1.
        -11    1    4    4    0    0  0.22394284171E-01 -0.67690648173E-01  0.27821677685E-01  0.76536492498E-01  0.51100000000E-03 0. -1.
         11    1    4    4    0    0 -0.19540565639E-02 -0.42457827661E-01  0.15160521545E-01  0.45128571895E-01  0.51100000000E-03 0.  1.
</event>
<event>
 8    1  0.1075206E+005  0.1043930E+01  0.7957747E-01            NaN
         13   -1    0    0    0    0  0.00000000000E+00  0.00000000000E+00  0.74505805969E-08  0.10566000000E+00  0.10566000000E+00 0.  1.
     999900   -1    0    0    0    0 -0.00000000000E+00 -0.00000000000E+00 -0.74505805969E-08  0.93827000000E+00  0.93827000000E+00 0. -1.
     999902    2    1    2    0    0 -0.98678321717E-02 -0.57033647095E-02 -0.21072967110E-01  0.10199722784E+01  0.10196908729E+01 0.  0.
     999903    2    3    3    0    0  0.11019857136E-02 -0.12935712979E+00 -0.80587018116E-02  0.13116410922E+00  0.20114658141E-01 0.  0.
         14    1    1    2    0    0  0.98678321717E-02  0.57033647095E-02  0.21072967110E-01  0.23957721586E-01  0.00000000000E+00 0.  1.
     999901    1    3    3    0    0 -0.10969817885E-01  0.12365376508E+00 -0.13014265299E-01  0.88880816919E+00  0.88000000000E+00 0. -1.
        -11    1    4    4    0    0  0.52865693108E-02 -0.87930459696E-02 -0.96855159737E-03  0.10318172595E-01  0.51100000000E-03 0. -1.
         11    1    4    4    0    0 -0.41845835971E-02 -0.12056408382E+00 -0.70901502142E-02  0.12084593663E+00  0.51100000000E-03 0.  1.
</event>
<event>
 8    1  0.1481465E+005  0.1043930E+01  0.7957747E-01            NaN
         13   -1    0    0    0    0  0.00000000000E+00  0.00000000000E+00  0.74505805969E-08  0.10566000000E+00  0.10566000000E+00 0. -1.
     999900   -1    0    0    0    0 -0.00000000000E+00 -0.00000000000E+00 -0.74505805969E-08  0.93827000000E+00  0.93827000000E+00 0.  1.
     999902    2    1    2    0    0 -0.26353400733E-02  0.22675411562E-01  0.95981776201E-02  0.10191662297E+01  0.10188653294E+01 0.  0.
     999903    2    3    3    0    0 -0.12248719009E-01 -0.53436638154E-01  0.11569536474E+00  0.12947972631E+00  0.19341062243E-01 0.  0.
         14    1    1    2    0    0  0.26353400733E-02 -0.22675411562E-01 -0.95981776201E-02  0.24763770319E-01  0.00000000000E+00 0. -1.
     999901    1    3    3    0    0  0.96133789359E-02  0.76112049716E-01 -0.10609718712E+00  0.88968650337E+00  0.88000000000E+00 0.  1.
        -11    1    4    4    0    0 -0.94445250512E-02 -0.19352960952E-01  0.63700659274E-01  0.67244116947E-01  0.51100000000E-03 0. -1.
         11    1    4    4    0    0 -0.28041939581E-02 -0.34083677203E-01  0.51994705464E-01  0.62235609362E-01  0.51100000000E-03 0.  1.
</event>
<event>
 8    1  0.1075206E+005  0.1043930E+01  0.7957747E-01            NaN
         13   -1    0    0    0    0  0.00000000000E+00  0.00000000000E+00  0.74505805969E-08  0.10566000000E+00  0.10566000000E+00 0.  1.
     999900   -1    0    0    0    0 -0.00000000000E+00 -0.00000000000E+00 -0.74505805969E-08  0.93827000000E+00  0.93827000000E+00 0. -1.
     999902    2    1    2    0    0  0.12986803185E-02 -0.19251166503E-01 -0.13585823327E-01  0.10203319370E+01  0.10200590145E+01 0.  0.
     999903    2    3    3    0    0  0.72616098105E-01 -0.90573950448E-01  0.58582701597E-01  0.13163547049E+00  0.20475008178E-01 0.  0.
         14    1    1    2    0    0 -0.12986803185E-02  0.19251166503E-01  0.13585823327E-01  0.23598063009E-01  0.00000000000E+00 0.  1.
     999901    1    3    3    0    0 -0.71317417787E-01  0.71322783945E-01 -0.72168524924E-01  0.88869646651E+00  0.88000000000E+00 0. -1.
        -11    1    4    4    0    0  0.27468285254E-01 -0.27288694116E-01  0.29316586010E-01  0.48568537734E-01  0.51100000000E-03 0.  1.
         11    1    4    4    0    0  0.45147812851E-01 -0.63285256332E-01  0.29266115587E-01  0.83066932752E-01  0.51100000000E-03 0. -1.
</event>
<event>
 8    1  0.1075206E+005  0.1043930E+01  0.7957747E-01            NaN
         13   -1    0    0    0    0  0.00000000000E+00  0.00000000000E+00  0.74505805969E-08  0.10566000000E+00  0.10566000000E+00 0.  1.
     999900   -1    0    0    0    0 -0.00000000000E+00 -0.00000000000E+00 -0.74505805969E-08  0.93827000000E+00  0.93827000000E+00 0.  1.
     999902    2    1    2    0    0 -0.19797053077E-01  0.92318051546E-04  0.13594907109E-01  0.10199143107E+01  0.10196315255E+01 0.  0.
     999903    2    3    3    0    0  0.45448414182E-01  0.11587566945E+00 -0.27745964438E-01  0.12897557930E+00  0.19290733295E-01 0.  0.
         14    1    1    2    0    0  0.19797053077E-01 -0.92318051546E-04 -0.13594907109E-01  0.24015689298E-01  0.00000000000E+00 0.  1.
     999901    1    3    3    0    0 -0.65245467259E-01 -0.11578335139E+00  0.41340871547E-01  0.89093873141E+00  0.88000000000E+00 0. -1.
        -11    1    4    4    0    0  0.36099628760E-01  0.69941744835E-01 -0.12607931996E-01  0.79713561816E-01  0.51100000000E-03 0.  1.
         11    1    4    4    0    0  0.93487854220E-02  0.45933924611E-01 -0.15138032442E-01  0.49262017480E-01  0.51100000000E-03 0. -1.
</event>
<event>
 8    1  0.1075206E+005  0.1043930E+01  0.7957747E-01            NaN
         13   -1    0    0    0    0  0.00000000000E+00  0.00000000000E+00  0.74505805969E-08  0.10566000000E+00  0.10566000000E+00 0.  1.
     999900   -1    0    0    0    0 -0.00000000000E+00 -0.00000000000E+00 -0.74505805969E-08  0.93827000000E+00  0.93827000000E+00 0.  1.
     999902    2    1    2    0    0 -0.22541469628E-01  0.59164700576E-02  0.40780524551E-02  0.10202709006E+01  0.10199965479E+01 0.  0.
     999903    2    3    3    0    0 -0.78475264237E-01 -0.43601930351E-01 -0.94180054141E-01  0.13165663287E+00  0.20102013681E-01 0.  0.
         14    1    1    2    0    0  0.22541469628E-01 -0.59164700576E-02 -0.40780524551E-02  0.23659099365E-01  0.00000000000E+00 0.  1.
     999901    1    3    3    0    0  0.55933794608E-01  0.49518400409E-01  0.98258106596E-01  0.88861426776E+00  0.88000000000E+00 0. -1.
        -11    1    4    4    0    0 -0.43080884511E-01 -0.23341460668E-01 -0.65481907075E-01  0.81785864742E-01  0.51100000000E-03 0.  1.
         11    1    4    4    0    0 -0.35394379726E-01 -0.20260469683E-01 -0.28698147065E-01  0.49870768131E-01  0.51100000000E-03 0. -1.
</event>
<event>
 8    1  0.1075206E+005  0.1043930E+01  0.7957747E-01            NaN
         13   -1    0    0    0    0  0.00000000000E+00  0.00000000000E+00  0.74505805969E-08  0.10566000000E+00  0.10566000000E+00 0.  1.
     999900   -1    0    0    0    0 -0.00000000000E+00 -0.00000000000E+00 -0.74505805969E-08  0.93827000000E+00  0.93827000000E+00 0.  1.
     999902    2    1    2    0    0  0.33058266550E-02  0.84680197678E-02  0.22510418888E-01  0.10196533691E+01  0.10193643305E+01 0.  0.
     999903    2    3    3    0    0 -0.42567913060E-01  0.25506217391E-01  0.12146858064E+00  0.13275573243E+00  0.20171119534E-01 0.  0.
         14    1    1    2    0    0 -0.33058266550E-02 -0.84680197678E-02 -0.22510418888E-01  0.24276630886E-01  0.00000000000E+00 0. -1.
     999901    1    3    3    0    0  0.45873739715E-01 -0.17038197623E-01 -0.98958161751E-01  0.88689763668E+00  0.88000000000E+00 0.  1.
        -11    1    4    4    0    0 -0.42227238663E-01  0.17844441223E-01  0.10227697706E+00  0.11208213473E+00  0.51100000000E-03 0. -1.
         11    1    4    4    0    0 -0.34067439646E-03  0.76617761676E-02  0.19191603579E-01  0.20673597704E-01  0.51100000000E-03 0.  1.
</event>
<event>
 8    1  0.1075206E+005  0.1043930E+01  0.7957747E-01            NaN
         13   -1    0    0    0    0  0.00000000000E+00  0.00000000000E+00  0.74505805969E-08  0.10566000000E+00  0.10566000000E+00 0.  1.
     999900   -1    0    0    0    0 -0.00000000000E+00 -0.00000000000E+00 -0.74505805969E-08  0.93827000000E+00  0.93827000000E+00 0.  1.
     999902    2    1    2    0    0 -0.19046341492E-01 -0.50065792319E-02  0.10777716151E-01  0.10214803202E+01  0.10212335954E+01 0.  0.
     999903    2    3    3    0    0 -0.10317253607E+00 -0.82714139423E-01  0.94187074375E-02  0.13405847659E+00  0.19918886451E-01 0.  0.
         14    1    1    2    0    0  0.19046341492E-01  0.50065792319E-02 -0.10777716151E-01  0.22449679848E-01  0.00000000000E+00 0.  1.
     999901    1    3    3    0    0  0.84126194574E-01  0.77707560191E-01  0.13590087137E-02  0.88742184356E+00  0.88000000000E+00 0.  1.
        -11    1    4    4    0    0 -0.82819991507E-01 -0.65041574707E-01  0.15442238660E-01  0.10643439900E+00  0.51100000000E-03 0.  1.
         11    1    4    4    0    0 -0.20352544559E-01 -0.17672564716E-01 -0.60235312224E-02  0.27624077596E-01  0.51100000000E-03 0. -1.
</event>
<event>
 8    1  0.1075206E+005  0.1043930E+01  0.7957747E-01            NaN
         13   -1    0    0    0    0  0.00000000000E+00  0.00000000000E+00  0.74505805969E-08  0.10566000000E+00  0.10566000000E+00 0.  1.
     999900   -1    0    0    0    0 -0.00000000000E+00 -0.00000000000E+00 -0.74505805969E-08  0.93827000000E+00  0.93827000000E+00 0. -1.
     999902    2    1    2    0    0  0.22205931620E-01  0.36177429967E-02 -0.12614321170E-01  0.10181363465E+01  0.10178095635E+01 0.  0.
     999903    2    3    3    0    0  0.87390512708E-01  0.58514899030E-01  0.73419939280E-01  0.12984325221E+00  0.20191273866E-01 0.  0.
         14    1    1    2    0    0 -0.22205931620E-01 -0.36177429967E-02  0.12614321170E-01  0.25793653523E-01  0.00000000000E+00 0. -1.
     999901    1    3    3    0    0 -0.65184581088E-01 -0.54897156034E-01 -0.86034260450E-01  0.88829309427E+00  0.88000000000E+00 0. -1.
        -11    1    4    4    0    0  0.52214028670E-01  0.26303220255E-01  0.31894932454E-01  0.66601141304E-01  0.51100000000E-03 0. -1.
         11    1    4    4    0    0  0.35176484039E-01  0.32211678775E-01  0.41525006826E-01  0.63242110905E-01  0.51100000000E-03 0.  1.
</event>
<event>
 8    1  0.1075206E+005  0.1043930E+01  0.7957747E-01            NaN
         13   -1    0    0    0    0  0.00000000000E+00  0.00000000000E+00  0.74505805969E-08  0.10566000000E+00  0.10566000000E+00 0. -1.
     999900   -1    0    0    0    0 -0.00000000000E+00 -0.00000000000E+00 -0.74505805969E-08  0.93827000000E+00  0.93827000000E+00 0. -1.
     999902    2    1    2    0    0 -0.16471002101E-01  0.19186317685E-01 -0.40515458822E-02  0.10183209446E+01  0.10179988813E+01 0.  0.
     999903    2    3    3    0    0 -0.82405393694E-01 -0.45458754035E-01 -0.86133613312E-01  0.12969065300E+00  0.23313491884E-01 0.  0.
         14    1    1    2    0    0  0.16471002101E-01 -0.19186317685E-01  0.40515458822E-02  0.25609055440E-01  0.00000000000E+00 0. -1.
     999901    1    3    3    0    0  0.65934391594E-01  0.64645071719E-01  0.82082067430E-01  0.88863029156E+00  0.88000000000E+00 0.  1.
        -11    1    4    4    0    0 -0.60238381205E-01 -0.30128967201E-01 -0.46844248408E-01  0.82043049460E-01  0.51100000000E-03 0.  1.
         11    1    4    4    0    0 -0.22167012490E-01 -0.15329786834E-01 -0.39289364905E-01  0.47647603536E-01  0.51100000000E-03 0. -1.
</event>
<event>
 8    1  0.1075206E+005  0.1043930E+01  0.7957747E-01            NaN
         13   -1    0    0    0    0  0.00000000000E+00  0.00000000000E+00  0.74505805969E-08  0.10566000000E+00  0.10566000000E+00 0.  1.
     999900   -1    0    0    0    0 -0.00000000000E+00 -0.00000000000E+00 -0.74505805969E-08  0.93827000000E+00  0.93827000000E+00 0.  1.
     999902    2    1    2    0    0  0.14561736105E-01  0.15717646630E-01 -0.12458733848E-01  0.10191447499E+01  0.10188433209E+01 0.  0.
     999903    2    3    3    0    0  0.79136194185E-01 -0.90901570469E-01  0.40393619478E-01  0.12879038822E+00  0.20728889492E-01 0.  0.
         14    1    1    2    0    0 -0.14561736105E-01 -0.15717646630E-01  0.12458733848E-01  0.24785250111E-01  0.00000000000E+00 0.  1.
     999901    1    3    3    0    0 -0.64574458080E-01  0.10661921710E+00 -0.52852353326E-01  0.89035436167E+00  0.88000000000E+00 0.  1.
        -11    1    4    4    0    0  0.51014360901E-01 -0.50148726977E-01  0.14807305482E-01  0.73053933858E-01  0.51100000000E-03 0.  1.
         11    1    4    4    0    0  0.28121833284E-01 -0.40752843492E-01  0.25586313996E-01  0.55736454362E-01  0.51100000000E-03 0. -1.
</event>
<event>
 8    1  0.1075206E+005  0.1043930E+01  0.7957747E-01            NaN
         13   -1    0    0    0    0  0.00000000000E+00  0.00000000000E+00  0.74505805969E-08  0.10566000000E+00  0.10566000000E+00 0. -1.
     999900   -1    0    0    0    0 -0.00000000000E+00 -0.00000000000E+00 -0.74505805969E-08  0.93827000000E+00  0.93827000000E+00 0. -1.
     999902    2    1    2    0    0 -0.22937333914E-01 -0.42581576187E-02  0.46410189635E-02  0.10201436121E+01  0.10198662643E+01 0.  0.
     999903    2    3    3    0    0 -0.50756867524E-01  0.11610033668E+00  0.29557241082E-01  0.13116615920E+00  0.16594669089E-01 0.  0.
         14    1    1    2    0    0  0.22937333914E-01  0.42581576187E-02 -0.46410189635E-02  0.23786387922E-01  0.00000000000E+00 0. -1.
     999901    1    3    3    0    0  0.27819533610E-01 -0.12035849429E+00 -0.24916222119E-01  0.88897745288E+00  0.88000000000E+00 0.  1.
        -11    1    4    4    0    0 -0.14951106990E-01  0.44369069856E-01  0.38884935797E-02  0.46984374674E-01  0.51100000000E-03 0. -1.
         11    1    4    4    0    0 -0.35805760534E-01  0.71731266819E-01  0.25668747503E-01  0.84181784527E-01  0.51100000000E-03 0.  1.
</event>
<event>
 8    1  0.1075206E+005  0.1043930E+01  0.7957747E-01            NaN
         13   -1    0    0    0    0  0.00000000000E+00  0.00000000000E+00  0.74505805969E-08  0.10566000000E+00  0.10566000000E+00 0. -1.
     999900   -1    0    0    0    0 -0.00000000000E+00 -0.00000000000E+00 -0.74505805969E-08  0.93827000000E+00  0.93827000000E+00 0. -1.
     999902    2    1    2    0    0 -0.16756265007E-01 -0.13869010591E-01  0.46269385495E-02  0.10216919598E+01  0.10214499157E+01 0.  0.
     999903    2    3    3    0    0 -0.81267896678E-02 -0.33792231416E-01  0.12675517506E+00  0.13299251188E+00  0.20302073732E-01 0.  0.
         14    1    1    2    0    0  0.16756265007E-01  0.13869010591E-01 -0.46269385495E-02  0.22238040203E-01  0.00000000000E+00 0.  1.
     999901    1    3    3    0    0 -0.86294753388E-02  0.19923220826E-01 -0.12212823651E+00  0.88869944792E+00  0.88000000000E+00 0. -1.
        -11    1    4    4    0    0  0.32644395725E-02 -0.19939755577E-01  0.45614230187E-01  0.49891577794E-01  0.51100000000E-03 0.  1.
         11    1    4    4    0    0 -0.11391229240E-01 -0.13852475839E-01  0.81140944872E-01  0.83100934088E-01  0.51100000000E-03 0. -1.
</event>
<event>
 8    1  0.1075206E+005  0.1043930E+01  0.7957747E-01            NaN
         13   -1    0    0    0    0  0.00000000000E+00  0.00000000000E+00  0.74505805969E-08  0.10566000000E+00  0.10566000000E+00 0.  1.
     999900   -1    0    0    0    0 -0.00000000000E+00 -0.00000000000E+00 -0.74505805969E-08  0.93827000000E+00  0.93827000000E+00 0. -1.
     999902    2    1    2    0    0 -0.15577942908E-01 -0.13638558181E-01  0.14058837872E-01  0.10189033443E+01  0.10185959412E+01 0.  0.
     999903    2    3    3    0    0  0.19300245980E-01  0.17580478943E-01 -0.12280742482E+00  0.12709423342E+00  0.19741019261E-01 0.  0.
         14    1    1    2    0    0  0.15577942908E-01  0.13638558181E-01 -0.14058837872E-01  0.25026655726E-01  0.00000000000E+00 0. -1.
     999901    1    3    3    0    0 -0.34878188889E-01 -0.31219037124E-01  0.13686626270E+00  0.89180911085E+00  0.88000000000E+00 0.  1.
        -11    1    4    4    0    0  0.74287251899E-02  0.13491474128E-01 -0.98822236677E-01  0.10001650571E+00  0.51100000000E-03 0.  1.
         11    1    4    4    0    0  0.11871520791E-01  0.40890048149E-02 -0.23985188148E-01  0.27077727707E-01  0.51100000000E-03 0. -1.
</event>
<event>
 8    1  0.1075206E+005  0.1043930E+01  0.7957747E-01            NaN
         13   -1    0    0    0    0  0.00000000000E+00  0.00000000000E+00  0.74505805969E-08  0.10566000000E+00  0.10566000000E+00 0. -1.
     999900   -1    0    0    0    0 -0.00000000000E+00 -0.00000000000E+00 -0.74505805969E-08  0.93827000000E+00  0.93827000000E+00 0. -1.
     999902    2    1    2    0    0  0.12604395825E-01  0.13462973261E-01 -0.14782733372E-01  0.10202941872E+01  0.10200203805E+01 0.  0.
     999903    2    3    3    0    0  0.30557996302E-01  0.10435868633E+00 -0.74684765509E-01  0.13340489537E+00  0.19862662434E-01 0.  0.
         14    1    1    2    0    0 -0.12604395825E-01 -0.13462973261E-01  0.14782733372E-01  0.23635812850E-01  0.00000000000E+00 0. -1.
     999901    1    3    3    0    0 -0.17953600477E-01 -0.90895713067E-01  0.59902032137E-01  0.88688929178E+00  0.88000000000E+00 0.  1.
        -11    1    4    4    0    0  0.17047986741E-01  0.64346289416E-01 -0.56922218352E-01  0.87586978922E-01  0.51100000000E-03 0.  1.
         11    1    4    4    0    0  0.13510009560E-01  0.40012396912E-01 -0.17762547156E-01  0.45817916446E-01  0.51100000000E-03 0. -1.
</event>
<event>
 8    1  0.1075206E+005  0.1043930E+01  0.7957747E-01            NaN
         13   -1    0    0    0    0  0.00000000000E+00  0.00000000000E+00  0.74505805969E-08  0.10566000000E+00  0.10566000000E+00 0. -1.
     999900   -1    0    0    0    0 -0.00000000000E+00 -0.00000000000E+00 -0.74505805969E-08  0.93827000000E+00  0.93827000000E+00 0. -1.
     999902    2    1    2    0    0 -0.13653594784E-01  0.18424714221E-01 -0.69616204811E-02  0.10199642973E+01  0.10196827021E+01 0.  0.
     999903    2    3    3    0    0 -0.10151815446E+00  0.82299199856E-01  0.14556197441E-01  0.13302396831E+00  0.20109681212E-01 0.  0.
         14    1    1    2    0    0  0.13653594784E-01 -0.18424714221E-01  0.69616204811E-02  0.23965702668E-01  0.00000000000E+00 0. -1.
     999901    1    3    3    0    0  0.87864559676E-01 -0.63874485636E-01 -0.21517817922E-01  0.88694032902E+00  0.88000000000E+00 0.  1.
        -11    1    4    4    0    0 -0.45420399428E-01  0.43642188822E-01 -0.15751819838E-02  0.63011075603E-01  0.51100000000E-03 0.  1.
         11    1    4    4    0    0 -0.56097755032E-01  0.38657011035E-01  0.16131379425E-01  0.70012892705E-01  0.51100000000E-03 0. -1.
</event>
<event>
 8    1  0.1075206E+005  0.1043930E+01  0.7957747E-01            NaN
         13   -1    0    0    0    0  0.00000000000E+00  0.00000000000E+00  0.74505805969E-08  0.10566000000E+00  0.10566000000E+00 0. -1.
     999900   -1    0    0    0    0 -0.00000000000E+00 -0.00000000000E+00 -0.74505805969E-08  0.93827000000E+00  0.93827000000E+00 0. -1.
     999902    2    1    2    0    0 -0.10922335264E-01 -0.14883902691E-01  0.15506431041E-01  0.10198203055E+01  0.10195352755E+01 0.  0.
     999903    2    3    3    0    0  0.19463918335E-01 -0.56229714494E-01  0.11657945190E+00  0.13255002190E+00  0.20931191814E-01 0.  0.
         14    1    1    2    0    0  0.10922335264E-01  0.14883902691E-01 -0.15506431041E-01  0.24109694535E-01  0.00000000000E+00 0.  1.
     999901    1    3    3    0    0 -0.30386253598E-01  0.41345811803E-01 -0.10107302086E+00  0.88727028357E+00  0.88000000000E+00 0. -1.
        -11    1    4    4    0    0  0.18762549059E-01 -0.22387102597E-01  0.52874723207E-01  0.60408716963E-01  0.51100000000E-03 0.  1.
         11    1    4    4    0    0  0.70136927605E-03 -0.33842611897E-01  0.63704728690E-01  0.72141304932E-01  0.51100000000E-03 0. -1.
</event>
<event>
 8    1  0.1075206E+005  0.1043930E+01  0.7957747E-01            NaN
         13   -1    0    0    0    0  0.00000000000E+00  0.00000000000E+00  0.74505805969E-08  0.10566000000E+00  0.10566000000E+00 0.  1.
     999900   -1    0    0    0    0 -0.00000000000E+00 -0.00000000000E+00 -0.74505805969E-08  0.93827000000E+00  0.93827000000E+00 0.  1.
     999902    2    1    2    0    0  0.63844045703E-02  0.20572147071E-01  0.10445835223E-01  0.10199907158E+01  0.10197097484E+01 0.  0.
     999903    2    3    3    0    0  0.61233990937E-01 -0.10944997566E+00 -0.17910069636E-01  0.12829666123E+00  0.20257439868E-01 0.  0.
         14    1    1    2    0    0 -0.63844045703E-02 -0.20572147071E-01 -0.10445835223E-01  0.23939284249E-01  0.00000000000E+00 0. -1.
     999901    1    3    3    0    0 -0.54849586366E-01  0.13002212274E+00  0.28355904858E-01  0.89169405452E+00  0.88000000000E+00 0. -1.
        -11    1    4    4    0    0  0.31383793277E-01 -0.62101119936E-01 -0.19618576926E-01  0.72295513411E-01  0.51100000000E-03 0. -1.
         11    1    4    4    0    0  0.29850197660E-01 -0.47348855728E-01  0.17085072908E-02  0.56001147820E-01  0.51100000000E-03 0.  1.
</event>
<event>
 8    1  0.1075206E+005  0.1043930E+01  0.7957747E-01            NaN
         13   -1    0    0    0    0  0.00000000000E+00  0.00000000000E+00  0.74505805969E-08  0.10566000000E+00  0.10566000000E+00 0.  1.
     999900   -1    0    0    0    0 -0.00000000000E+00 -0.00000000000E+00 -0.74505805969E-08  0.93827000000E+00  0.93827000000E+00 0.  1.
     999902    2    1    2    0    0  0.19434023698E-01 -0.14185206896E-01  0.14190702533E-02  0.10198278189E+01  0.10195429688E+01 0.  0.
     999903    2    3    3    0    0  0.89453826218E-01  0.23604470811E-01 -0.91113616619E-01  0.13140611128E+00  0.20167222952E-01 0.  0.
         14    1    1    2    0    0 -0.19434023698E-01  0.14185206896E-01 -0.14190702533E-02  0.24102181066E-01  0.00000000000E+00 0.  1.
     999901    1    3    3    0    0 -0.70019802521E-01 -0.37789677707E-01  0.92532686873E-01  0.88842170765E+00  0.88000000000E+00 0. -1.
        -11    1    4    4    0    0  0.48683152532E-01  0.35815848071E-02 -0.40816078006E-01  0.63632463688E-01  0.51100000000E-03 0.  1.
         11    1    4    4    0    0  0.40770673687E-01  0.20022886004E-01 -0.50297538613E-01  0.67773647595E-01  0.51100000000E-03 0. -1.
</event>
<event>
 8    1  0.1075206E+005  0.1043930E+01  0.7957747E-01            NaN
         13   -1    0    0    0    0  0.00000000000E+00  0.00000000000E+00  0.74505805969E-08  0.10566000000E+00  0.10566000000E+00 0. -1.
     999900   -1    0    0    0    0 -0.00000000000E+00 -0.00000000000E+00 -0.74505805969E-08  0.93827000000E+00  0.93827000000E+00 0.  1.
     999902    2    1    2    0    0  0.16650335030E-01  0.13583754748E-01 -0.11224948260E-01  0.10196864129E+01  0.10193981701E+01 0.  0.
     999903    2    3    3    0    0 -0.28633970016E-02 -0.12371781221E+00  0.26752134463E-01  0.12801676289E+00  0.18929310106E-01 0.  0.
         14    1    1    2    0    0 -0.16650335030E-01 -0.13583754748E-01  0.11224948260E-01  0.24243587051E-01  0.00000000000E+00 0. -1.
     999901    1    3    3    0    0  0.19513732032E-01  0.13730156696E+00 -0.37977082723E-01  0.89166965006E+00  0.88000000000E+00 0. -1.
        -11    1    4    4    0    0  0.64573402393E-02 -0.89084250951E-01  0.19358557913E-01  0.91393193926E-01  0.51100000000E-03 0. -1.
         11    1    4    4    0    0 -0.93207372409E-02 -0.34633561261E-01  0.73935765500E-02  0.36623568962E-01  0.51100000000E-03 0.  1.
</event>
<event>
 8    1  0.1075206E+005  0.1043930E+01  0.7957747E-01            NaN
         13   -1    0    0    0    0  0.00000000000E+00  0.00000000000E+00  0.74505805969E-08  0.10566000000E+00  0.10566000000E+00 0.  1.
     999900   -1    0    0    0    0 -0.00000000000E+00 -0.00000000000E+00 -0.74505805969E-08  0.93827000000E+00  0.93827000000E+00 0. -1.
     999902    2    1    2    0    0  0.13201761692E-01 -0.14061204630E-01 -0.13121052298E-01  0.10206026341E+01  0.10203360087E+01 0.  0.
     999903    2    3    3    0    0  0.28636328633E-01  0.28113365719E-01 -0.12452124158E+00  0.13244334520E+00  0.20622789181E-01 0.  0.
         14    1    1    2    0    0 -0.13201761692E-01  0.14061204630E-01  0.13121052298E-01  0.23327365921E-01  0.00000000000E+00 0.  1.
     999901    1    3    3    0    0 -0.15434566940E-01 -0.42174570349E-01  0.11140018929E+00  0.88815928887E+00  0.88000000000E+00 0.  1.
        -11    1    4    4    0    0  0.37999311576E-02 -0.27868735804E-02 -0.73484962989E-02  0.87445788927E-02  0.51100000000E-03 0. -1.
         11    1    4    4    0    0  0.24836397475E-01  0.30900239299E-01 -0.11717274529E+00  0.12369876631E+00  0.51100000000E-03 0.  1.
</event>
<event>
 8    1  0.1075206E+005  0.1043930E+01  0.7957747E-01            NaN
         13   -1    0    0    0    0  0.00000000000E+00  0.00000000000E+00  0.74505805969E-08  0.10566000000E+00  0.10566000000E+00 0. -1.
     999900   -1    0    0    0    0 -0.00000000000E+00 -0.00000000000E+00 -0.74505805969E-08  0.93827000000E+00  0.93827000000E+00 0.  1.
     999902    2    1    2    0    0  0.19851535583E-01 -0.23243605822E-01 -0.98620904703E-03  0.10133469772E+01  0.10128853710E+01 0.  0.
     999903    2    3    3    0    0  0.11919831182E+00 -0.33101572536E-01  0.23864465417E-01  0.12735345718E+00  0.18585981291E-01 0.  0.
         14    1    1    2    0    0 -0.19851535583E-01  0.23243605822E-01  0.98620904703E-03  0.30583022822E-01  0.00000000000E+00 0.  1.
     999901    1    3    3    0    0 -0.99346776239E-01  0.98579667144E-02 -0.24850674464E-01  0.88599352000E+00  0.88000000000E+00 0.  1.
        -11    1    4    4    0    0  0.11218638741E+00 -0.31402584265E-01  0.17673089653E-01  0.11783253811E+00  0.51100000000E-03 0.  1.
         11    1    4    4    0    0  0.70119244161E-02 -0.16989882717E-02  0.61913757639E-02  0.95209190740E-02  0.51100000000E-03 0. -1.
</event>
<event>
 8    1  0.1075206E+005  0.1043930E+01  0.7957747E-01            NaN
         13   -1    0    0    0    0  0.00000000000E+00  0.00000000000E+00  0.74505805969E-08  0.10566000000E+00  0.10566000000E+00 0. -1.
     999900   -1    0    0    0    0 -0.00000000000E+00 -0.00000000000E+00 -0.74505805969E-08  0.93827000000E+00  0.93827000000E+00 0. -1.
     999902    2    1    2    0    0 -0.40839102518E-02  0.63835784187E-02  0.23011796413E-01  0.10197025121E+01  0.10194146565E+01 0.  0.
     999903    2    3    3    0    0 -0.61476168513E-01  0.80630174233E-01  0.83192167326E-01  0.13266919516E+00  0.19990856609E-01 0.  0.
         14    1    1    2    0    0  0.40839102518E-02 -0.63835784187E-02 -0.23011796413E-01  0.24227487912E-01  0.00000000000E+00 0.  1.
     999901    1    3    3    0    0  0.57392258261E-01 -0.74246595815E-01 -0.60180370913E-01  0.88703331693E+00  0.88000000000E+00 0. -1.
        -11    1    4    4    0    0 -0.58368694484E-01  0.70756741912E-01  0.80302123718E-01  0.12191026707E+00  0.51100000000E-03 0.  1.
         11    1    4    4    0    0 -0.31074740288E-02  0.98734323209E-02  0.28900436081E-02  0.10758928092E-01  0.51100000000E-03 0. -1.
</event>
<event>
 8    1  0.1075206E+005  0.1043930E+01  0.7957747E-01            NaN
         13   -1    0    0    0    0  0.00000000000E+00  0.00000000000E+00  0.74505805969E-08  0.10566000000E+00  0.10566000000E+00 0.  1.
     999900   -1    0    0    0    0 -0.00000000000E+00 -0.00000000000E+00 -0.74505805969E-08  0.93827000000E+00  0.93827000000E+00 0.  1.
     999902    2    1    2    0    0 -0.92476536682E-02 -0.21439521602E-01  0.11943147225E-02  0.10205505523E+01  0.10202827213E+01 0.  0.
     999903    2    3    3    0    0  0.83174182031E-02  0.28681048347E-01 -0.12487847179E+00  0.12998053782E+00  0.20212014080E-01 0.  0.
         14    1    1    2    0    0  0.92476536682E-02  0.21439521602E-01 -0.11943147225E-02  0.23379447653E-01  0.00000000000E+00 0.  1.
     999901    1    3    3    0    0 -0.17565071871E-01 -0.50120569949E-01  0.12607278652E+00  0.89057001453E+00  0.88000000000E+00 0. -1.
        -11    1    4    4    0    0  0.13670579566E-01  0.18103962421E-01 -0.62693425507E-01  0.66673569904E-01  0.51100000000E-03 0.  1.
         11    1    4    4    0    0 -0.53531613634E-02  0.10577085926E-01 -0.62185046288E-01  0.63306967911E-01  0.51100000000E-03 0. -1.
</event>
<event>
 8    1  0.1075206E+005  0.1043930E+01  0.7957747E-01            NaN
         13   -1    0    0    0    0  0.00000000000E+00  0.00000000000E+00  0.74505805969E-08  0.10566000000E+00  0.10566000000E+00 0.  1.
     999900   -1    0    0    0    0 -0.00000000000E+00 -0.00000000000E+00 -0.74505805969E-08  0.93827000000E+00  0.93827000000E+00 0. -1.
     999902    2    1    2    0    0  0.38193283141E-02  0.19342258328E-01  0.16891071920E-01  0.10179681330E+01  0.10176370185E+01 0.  0.
     999903    2    3    3    0    0  0.61117841190E-02 -0.10731029967E+00 -0.62866573830E-01  0.12532743944E+00  0.14209386016E-01 0.  0.
         14    1    1    2    0    0 -0.38193283141E-02 -0.19342258328E-01 -0.16891071920E-01  0.25961866970E-01  0.00000000000E+00 0.  1.
     999901    1    3    3    0    0 -0.22924558048E-02  0.12665255800E+00  0.79757645749E-01  0.89264069359E+00  0.88000000000E+00 0.  1.
        -11    1    4    4    0    0  0.10444765172E-01 -0.86369442878E-01 -0.51596456096E-01  0.10114953873E+00  0.51100000000E-03 0.  1.
         11    1    4    4    0    0 -0.43329810535E-02 -0.20940856790E-01 -0.11270117734E-01  0.24177900708E-01  0.51100000000E-03 0. -1.
</event>
<event>
 8    1  0.1075206E+005  0.1043930E+01  0.7957747E-01            NaN
         13   -1    0    0    0    0  0.00000000000E+00  0.00000000000E+00  0.74505805969E-08  0.10566000000E+00  0.10566000000E+00 0.  1.
     999900   -1    0    0    0    0 -0.00000000000E+00 -0.00000000000E+00 -0.74505805969E-08  0.93827000000E+00  0.93827000000E+00 0.  1.
     999902    2    1    2    0    0  0.97288696351E-02  0.13990512681E-01 -0.17301748338E-01  0.10196455226E+01  0.10193562948E+01 0.  0.
     999903    2    3    3    0    0 -0.89333650680E-01  0.87593781892E-01 -0.33237624964E-01  0.13089090156E+00  0.19352432088E-01 0.  0.
         14    1    1    2    0    0 -0.97288696351E-02 -0.13990512681E-01  0.17301748338E-01  0.24284477449E-01  0.00000000000E+00 0. -1.
     999901    1    3    3    0    0  0.99062520315E-01 -0.73603269211E-01  0.15935876626E-01  0.88875462099E+00  0.88000000000E+00 0.  1.
        -11    1    4    4    0    0 -0.53263348372E-01  0.53736031879E-01 -0.29726428346E-01  0.81292478527E-01  0.51100000000E-03 0.  1.
         11    1    4    4    0    0 -0.36070302309E-01  0.33857750013E-01 -0.35111966178E-02  0.49598423032E-01  0.51100000000E-03 0. -1.
</event>
<event>
 8    1  0.1075206E+005  0.1043930E+01  0.7957747E-01            NaN
         13   -1    0    0    0    0  0.00000000000E+00  0.00000000000E+00  0.74505805969E-08  0.10566000000E+00  0.10566000000E+00 0. -1.
     999900   -1    0    0    0    0 -0.00000000000E+00 -0.00000000000E+00 -0.74505805969E-08  0.93827000000E+00  0.93827000000E+00 0. -1.
     999902    2    1    2    0    0  0.21230557750E-01 -0.94277270274E-02  0.30213204862E-02  0.10205046506E+01  0.10202357545E+01 0.  0.
     999903    2    3    3    0    0  0.15376775876E-01  0.12704181265E+00  0.79558904389E-02  0.12995282612E+00  0.21174830032E-01 0.  0.
         14    1    1    2    0    0 -0.21230557750E-01  0.94277270274E-02 -0.30213204862E-02  0.23425349448E-01  0.00000000000E+00 0.  1.
     999901    1    3    3    0    0  0.58537818739E-02 -0.13646953967E+00 -0.49345699527E-02  0.89055182443E+00  0.88000000000E+00 0.  1.
        -11    1    4    4    0    0  0.23499067699E-02  0.21373040972E-02  0.27981864615E-02  0.42639300069E-02  0.51100000000E-03 0.  1.
         11    1    4    4    0    0  0.13026869106E-01  0.12490450855E+00  0.51577039774E-02  0.12568889611E+00  0.51100000000E-03 0. -1.
</event>
<event>
 8    1  0.1075206E+005  0.1043930E+01  0.7957747E-01            NaN
         13   -1    0    0    0    0  0.00000000000E+00  0.00000000000E+00  0.74505805969E-08  0.10566000000E+00  0.10566000000E+00 0.  1.
     999900   -1    0    0    0    0 -0.00000000000E+00 -0.00000000000E+00 -0.74505805969E-08  0.93827000000E+00  0.93827000000E+00 0. -1.
     999902    2    1    2    0    0 -0.96859114247E-02  0.85414296277E-02  0.15761369222E-01  0.10235536986E+01  0.10233508588E+01 0.  0.
     999903    2    3    3    0    0 -0.70897896933E-01  0.95086981103E-01  0.62877937487E-01  0.13594060118E+00  0.21404818667E-01 0.  0.
         14    1    1    2    0    0  0.96859114247E-02 -0.85414296277E-02 -0.15761369222E-01  0.20376301430E-01  0.00000000000E+00 0. -1.
     999901    1    3    3    0    0  0.61211985508E-01 -0.86545551475E-01 -0.47116568265E-01  0.88761309739E+00  0.88000000000E+00 0. -1.
        -11    1    4    4    0    0 -0.28950836279E-01  0.37645139610E-01  0.37166564422E-01  0.60306899186E-01  0.51100000000E-03 0.  1.
         11    1    4    4    0    0 -0.41947060654E-01  0.57441841493E-01  0.25711373065E-01  0.75633701996E-01  0.51100000000E-03 0. -1.
</event>
<event>
 8    1  0.1075206E+005  0.1043930E+01  0.7957747E-01            NaN
         13   -1    0    0    0    0  0.00000000000E+00  0.00000000000E+00  0.74505805969E-08  0.10566000000E+00  0.10566000000E+00 0. -1.
     999900   -1    0    0    0    0 -0.00000000000E+00 -0.00000000000E+00 -0.74505805969E-08  0.93827000000E+00  0.93827000000E+00 0. -1.
     999902    2    1    2    0    0  0.61065261289E-02 -0.72277107904E-02  0.21427127988E-01  0.10205066937E+01  0.10202378451E+01 0.  0.
     999903    2    3    3    0    0 -0.80795512514E-02 -0.11954434044E+00 -0.47757416852E-01  0.13056131821E+00  0.20232609084E-01 0.  0.
         14    1    1    2    0    0 -0.61065261289E-02  0.72277107904E-02 -0.21427127988E-01  0.23423306309E-01  0.00000000000E+00 0. -1.
     999901    1    3    3    0    0  0.14186077380E-01  0.11231662965E+00  0.69184544840E-01  0.88994537548E+00  0.88000000000E+00 0.  1.
        -11    1    4    4    0    0 -0.13275593557E-01 -0.10758278885E+00 -0.41314286609E-01  0.11600616035E+00  0.51100000000E-03 0.  1.
         11    1    4    4    0    0  0.51960423056E-02 -0.11961551593E-01 -0.64431302429E-02  0.14555157865E-01  0.51100000000E-03 0. -1.
</event>
<event>
 8    1  0.1075206E+005  0.1043930E+01  0.7957747E-01            NaN
         13   -1    0    0    0    0  0.00000000000E+00  0.00000000000E+00  0.74505805969E-08  0.10566000000E+00  0.10566000000E+00 0.  1.
     999900   -1    0    0    0    0 -0.00000000000E+00 -0.00000000000E+00 -0.74505805969E-08  0.93827000000E+00  0.93827000000E+00 0.  1.
     999902    2    1    2    0    0 -0.92450859606E-02 -0.19587035409E-01 -0.97283816826E-02  0.10201862644E+01  0.10199099220E+01 0.  0.
     999903    2    3    3    0    0 -0.74137503081E-01 -0.10391837569E+00  0.30882162353E-01  0.13284641008E+00  0.19976550049E-01 0.  0.
         14    1    1    2    0    0  0.92450859606E-02  0.19587035409E-01  0.97283816826E-02  0.23743735610E-01  0.00000000000E+00 0. -1.
     999901    1    3    3    0    0  0.64892417120E-01  0.84331340279E-01 -0.40610544036E-01  0.88733985431E+00  0.88000000000E+00 0. -1.
        -11    1    4    4    0    0 -0.25881790860E-01 -0.51312725890E-01  0.89505836383E-02  0.58165599841E-01  0.51100000000E-03 0. -1.
         11    1    4    4    0    0 -0.48255712221E-01 -0.52605649798E-01  0.21931578715E-01  0.74680810243E-01  0.51100000000E-03 0.  1.
</event>
<event>
 8    1  0.1075206E+005  0.1043930E+01  0.7957747E-01            NaN
         13   -1    0    0    0    0  0.00000000000E+00  0.00000000000E+00  0.74505805969E-08  0.10566000000E+00  0.10566000000E+00 0. -1.
     999900   -1    0    0    0    0 -0.00000000000E+00 -0.00000000000E+00 -0.74505805969E-08  0.93827000000E+00  0.93827000000E+00 0.  1.
     999902    2    1    2    0    0 -0.17977548717E-01 -0.14860757485E-01 -0.30706086040E-02  0.10204042055E+01  0.10201329715E+01 0.  0.
     999903    2    3    3    0    0  0.96939466732E-01 -0.76237999904E-01  0.35919366398E-01  0.12995864033E+00  0.19737134423E-01 0.  0.
         14    1    1    2    0    0  0.17977548717E-01  0.14860757485E-01  0.30706086040E-02  0.23525794526E-01  0.00000000000E+00 0.  1.
     999901    1    3    3    0    0 -0.11491701545E+00  0.61377242419E-01 -0.38989975002E-01  0.89044556514E+00  0.88000000000E+00 0.  1.
        -11    1    4    4    0    0  0.46976445088E-01 -0.28750053909E-01  0.23658095877E-01  0.59944295929E-01  0.51100000000E-03 0.  1.
         11    1    4    4    0    0  0.49963021644E-01 -0.47487945995E-01  0.12261270521E-01  0.70014344405E-01  0.51100000000E-03 0. -1.
</event>
<event>
 8    1  0.1075206E+005  0.1043930E+01  0.7957747E-01            NaN
         13   -1    0    0    0    0  0.00000000000E+00  0.00000000000E+00  0.74505805969E-08  0.10566000000E+00  0.10566000000E+00 0. -1.
     999900   -1    0    0    0    0 -0.00000000000E+00 -0.00000000000E+00 -0.74505805969E-08  0.93827000000E+00  0.93827000000E+00 0.  1.
     999902    2    1    2    0    0 -0.20293753271E-02  0.22297222346E-01  0.58002743968E-02  0.10208014966E+01  0.10205394494E+01 0.  0.
     999903    2    3    3    0    0 -0.80779270046E-02  0.11757855261E+00  0.60154342613E-01  0.13397035050E+00  0.20965231706E-01 0.  0.
         14    1    1    2    0    0  0.20293753271E-02 -0.22297222346E-01 -0.58002743968E-02  0.23128503446E-01  0.00000000000E+00 0.  1.
     999901    1    3    3    0    0  0.60485516776E-02 -0.95281330262E-01 -0.54354068216E-01  0.88683114605E+00  0.88000000000E+00 0.  1.
        -11    1    4    4    0    0 -0.87781875827E-03  0.26756786105E-01  0.23976816573E-01  0.35942245651E-01  0.51100000000E-03 0. -1.
         11    1    4    4    0    0 -0.72001082464E-02  0.90821766504E-01  0.36177526040E-01  0.98028104853E-01  0.51100000000E-03 0.  1.
</event>
<event>
 7    1  0.1098780E+005  0.1043930E+01  0.7957747E-01            NaN
         13   -1    0    0    0    0  0.00000000000E+00  0.00000000000E+00  0.74505805969E-08  0.10566000000E+00  0.10566000000E+00 0. -1.
     999900   -1    0    0    0    0 -0.00000000000E+00 -0.00000000000E+00 -0.74505805969E-08  0.93827000000E+00  0.93827000000E+00 0. -1.
     999903    2    1    2    0    0  0.99080738551E-01 -0.47125035730E-01 -0.37784082281E-02  0.11153255590E+00  0.19684331636E-01 0.  0.
         14    1    1    2    0    0  0.18618795651E-01  0.30992394098E-01  0.25343335375E-01  0.44152833333E-01  0.00000000000E+00 0. -1.
     999901    1    1    2    0    0 -0.11769953420E+00  0.16132641632E-01 -0.21564927147E-01  0.88824461077E+00  0.88000000000E+00 0. -1.
        -11    1    3    3    0    0  0.54473515184E-01 -0.15378916090E-01 -0.44030731612E-02  0.56776078509E-01  0.51100000000E-03 0. -1.
         11    1    3    3    0    0  0.44607223367E-01 -0.31746119640E-01  0.62466493311E-03  0.54756477388E-01  0.51100000000E-03 0.  1.
</event>
<event>
 8    1  0.1075206E+005  0.1043930E+01  0.7957747E-01            NaN
         13   -1    0    0    0    0  0.00000000000E+00  0.00000000000E+00  0.74505805969E-08  0.10566000000E+00  0.10566000000E+00 0. -1.
     999900   -1    0    0    0    0 -0.00000000000E+00 -0.00000000000E+00 -0.74505805969E-08  0.93827000000E+00  0.93827000000E+00 0. -1.
     999902    2    1    2    0    0  0.75981584851E-02 -0.21624303314E-01  0.67340779008E-02  0.10200408746E+01  0.10197610973E+01 0.  0.
     999903    2    3    3    0    0 -0.34040003172E-01 -0.50639558706E-02 -0.12301589825E+00  0.12939894998E+00  0.20659418439E-01 0.  0.
         14    1    1    2    0    0 -0.75981584851E-02  0.21624303314E-01 -0.67340779008E-02  0.23889125379E-01  0.00000000000E+00 0.  1.
     999901    1    3    3    0    0  0.41638161658E-01 -0.16560347444E-01  0.12974997615E+00  0.89064192464E+00  0.88000000000E+00 0.  1.
        -11    1    4    4    0    0 -0.29953275794E-02 -0.83790518328E-02 -0.27718570713E-01  0.29116331848E-01  0.51100000000E-03 0.  1.
         11    1    4    4    0    0 -0.31044675593E-01  0.33150959622E-02 -0.95297327533E-01  0.10028261813E+00  0.51100000000E-03 0. -1.
</event>
<event>
 8    1  0.1075206E+005  0.1043930E+01  0.7957747E-01            NaN
         13   -1    0    0    0    0  0.00000000000E+00  0.00000000000E+00  0.74505805969E-08  0.10566000000E+00  0.10566000000E+00 0.  1.
     999900   -1    0    0    0    0 -0.00000000000E+00 -0.00000000000E+00 -0.74505805969E-08  0.93827000000E+00  0.93827000000E+00 0. -1.
     999902    2    1    2    0    0  0.19874814455E-01  0.10164259005E-01 -0.80805379677E-02  0.10201894123E+01  0.10199131441E+01 0.  0.
     999903    2    3    3    0    0  0.86964268406E-01 -0.47686664290E-02 -0.98396608963E-01  0.13290085733E+00  0.19880167616E-01 0.  0.
         14    1    1    2    0    0 -0.19874814455E-01 -0.10164259005E-01  0.80805379677E-02  0.23740587706E-01  0.00000000000E+00 0. -1.
     999901    1    3    3    0    0 -0.67089453951E-01  0.14932925434E-01  0.90316070995E-01  0.88728855497E+00  0.88000000000E+00 0.  1.
        -11    1    4    4    0    0  0.80004085418E-01 -0.41314434355E-02 -0.80008246084E-01  0.11322236118E+00  0.51100000000E-03 0. -1.
         11    1    4    4    0    0  0.69601829882E-02 -0.63722299353E-03 -0.18388362879E-01  0.19678496150E-01  0.51100000000E-03 0.  1.
</event>
<event>
 8    1  0.1075206E+005  0.1043930E+01  0.7957747E-01            NaN
         13   -1    0    0    0    0  0.00000000000E+00  0.00000000000E+00  0.74505805969E-08  0.10566000000E+00  0.10566000000E+00 0. -1.
     999900   -1    0    0    0    0 -0.00000000000E+00 -0.00000000000E+00 -0.74505805969E-08  0.93827000000E+00  0.93827000000E+00 0. -1.
     999902    2    1    2    0    0  0.21256159662E-01 -0.42000874719E-02  0.16744974509E-01  0.10165464423E+01  0.10161775486E+01 0.  0.
     999903    2    3    3    0    0  0.93036958561E-01  0.15396157015E-01 -0.83774406167E-01  0.12770413812E+00  0.19931845277E-01 0.  0.
         14    1    1    2    0    0 -0.21256159662E-01  0.42000874719E-02 -0.16744974509E-01  0.27383557651E-01  0.00000000000E+00 0.  1.
     999901    1    3    3    0    0 -0.71780798899E-01 -0.19596244487E-01  0.10051938068E+00  0.88884230423E+00  0.88000000000E+00 0.  1.
        -11    1    4    4    0    0  0.52413467222E-01  0.54971894560E-02 -0.34100878689E-01  0.62773574747E-01  0.51100000000E-03 0. -1.
         11    1    4    4    0    0  0.40623491339E-01  0.98989675592E-02 -0.49673527478E-01  0.64930563377E-01  0.51100000000E-03 0.  1.
</event>
<event>
 8    1  0.1075206E+005  0.1043930E+01  0.7957747E-01            NaN
         13   -1    0    0    0    0  0.00000000000E+00  0.00000000000E+00  0.74505805969E-08  0.10566000000E+00  0.10566000000E+00 0.  1.
     999900   -1    0    0    0    0 -0.00000000000E+00 -0.00000000000E+00 -0.74505805969E-08  0.93827000000E+00  0.93827000000E+00 0. -1.
     999902    2    1    2    0    0 -0.20888437359E-02 -0.13005925998E-01  0.18749571380E-01  0.10210157292E+01  0.10207585687E+01 0.  0.
     999903    2    3    3    0    0  0.11054155243E+00  0.81800749650E-02  0.69689577279E-01  0.13212353272E+00  0.17709948517E-01 0.  0.
         14    1    1    2    0    0  0.20888437359E-02  0.13005925998E-01 -0.18749571380E-01  0.22914270797E-01  0.00000000000E+00 0. -1.
     999901    1    3    3    0    0 -0.11263039616E+00 -0.21186000963E-01 -0.50940005900E-01  0.88889219649E+00  0.88000000000E+00 0. -1.
        -11    1    4    4    0    0  0.56155478380E-01  0.48160346385E-02  0.45793537542E-01  0.72621905395E-01  0.51100000000E-03 0. -1.
         11    1    4    4    0    0  0.54386074047E-01  0.33640403265E-02  0.23896039738E-01  0.59501627320E-01  0.51100000000E-03 0.  1.
</event>
<event>
 8    1  0.1075206E+005  0.1043930E+01  0.7957747E-01            NaN
         13   -1    0    0    0    0  0.00000000000E+00  0.00000000000E+00  0.74505805969E-08  0.10566000000E+00  0.10566000000E+00 0. -1.
     999900   -1    0    0    0    0 -0.00000000000E+00 -0.00000000000E+00 -0.74505805969E-08  0.93827000000E+00  0.93827000000E+00 0. -1.
     999902    2    1    2    0    0 -0.54535404384E-02 -0.20931102400E-01  0.88264419338E-02  0.10205685311E+01  0.10203011166E+01 0.  0.
     999903    2    3    3    0    0  0.10125827649E+00  0.76479909142E-01 -0.69706752067E-02  0.12864596388E+00  0.19969442883E-01 0.  0.
         14    1    1    2    0    0  0.54535404384E-02  0.20931102400E-01 -0.88264419338E-02  0.23361468879E-01  0.00000000000E+00 0.  1.
     999901    1    3    3    0    0 -0.10671181693E+00 -0.97411011542E-01  0.15797117141E-01  0.89192256724E+00  0.88000000000E+00 0.  1.
        -11    1    4    4    0    0  0.80077993640E-01  0.49561527595E-01 -0.62387896405E-02  0.94382274290E-01  0.51100000000E-03 0.  1.
         11    1    4    4    0    0  0.21180282853E-01  0.26918381547E-01 -0.73188556617E-03  0.34263689590E-01  0.51100000000E-03 0. -1.
</event>
<event>
 8    1  0.1075206E+005  0.1043930E+01  0.7957747E-01            NaN
         13   -1    0    0    0    0  0.00000000000E+00  0.00000000000E+00  0.74505805969E-08  0.10566000000E+00  0.10566000000E+00 0. -1.
     999900   -1    0    0    0    0 -0.00000000000E+00 -0.00000000000E+00 -0.74505805969E-08  0.93827000000E+00  0.93827000000E+00 0. -1.
     999902    2    1    2    0    0 -0.58352883111E-02 -0.21645932009E-01  0.79406687665E-02  0.10201465776E+01  0.10198692997E+01 0.  0.
     999903    2    3    3    0    0  0.84734767130E-01  0.84055269758E-01  0.42770580020E-01  0.12852513227E+00  0.21074106737E-01 0.  0.
         14    1    1    2    0    0  0.58352883111E-02  0.21645932009E-01 -0.79406687665E-02  0.23783422434E-01  0.00000000000E+00 0.  1.
     999901    1    3    3    0    0 -0.90570055441E-01 -0.10570120177E+00 -0.34829911253E-01  0.89162144530E+00  0.88000000000E+00 0. -1.
        -11    1    4    4    0    0  0.43503037135E-02  0.10341154547E-02  0.54902608563E-02  0.70991987184E-02  0.51100000000E-03 0. -1.
         11    1    4    4    0    0  0.80384463416E-01  0.83021154303E-01  0.37280319164E-01  0.12142593355E+00  0.51100000000E-03 0.  1.
</event>
<event>
 8    1  0.1075206E+005  0.1043930E+01  0.7957747E-01            NaN
         13   -1    0    0    0    0  0.00000000000E+00  0.00000000000E+00  0.74505805969E-08  0.10566000000E+00  0.10566000000E+00 0.  1.
     999900   -1    0    0    0    0 -0.00000000000E+00 -0.00000000000E+00 -0.74505805969E-08  0.93827000000E+00  0.93827000000E+00 0.  1.
     999902    2    1    2    0    0  0.10588735749E-01  0.12573381847E-01  0.18035878956E-01  0.10195270456E+01  0.10192349545E+01 0.  0.
     999903    2    3    3    0    0  0.13937893523E-02 -0.11066470505E+00  0.64532583433E-01  0.12967643078E+00  0.20072438368E-01 0.  0.
         14    1    1    2    0    0 -0.10588735749E-01 -0.12573381847E-01 -0.18035878956E-01  0.24402954443E-01  0.00000000000E+00 0. -1.
     999901    1    3    3    0    0  0.91949463967E-02  0.12323808689E+00 -0.46496704477E-01  0.88985061478E+00  0.88000000000E+00 0.  1.
        -11    1    4    4    0    0 -0.23086288363E-02 -0.22453124953E-01  0.48111570074E-02  0.23084214087E-01  0.51100000000E-03 0.  1.
         11    1    4    4    0    0  0.37024181886E-02 -0.88211580095E-01  0.59721426425E-01  0.10659221669E+00  0.51100000000E-03 0. -1.
</event>
<event>
 8    1  0.1075206E+005  0.1043930E+01  0.7957747E-01            NaN
         13   -1    0    0    0    0  0.00000000000E+00  0.00000000000E+00  0.74505805969E-08  0.10566000000E+00  0.10566000000E+00 0.  1.
     999900   -1    0    0    0    0 -0.00000000000E+00 -0.00000000000E+00 -0.74505805969E-08  0.93827000000E+00  0.93827000000E+00 0. -1.
     999902    2    1    2    0    0 -0.23032935723E-02 -0.23287669163E-01 -0.22256218248E-02  0.10204231055E+01  0.10201523122E+01 0.  0.
     999903    2    3    3    0    0 -0.98016394392E-01  0.57928868957E-02  0.84139439860E-01  0.13055480048E+00  0.18009427526E-01 0.  0.
         14    1    1    2    0    0  0.23032935723E-02  0.23287669163E-01  0.22256218248E-02  0.23506894496E-01  0.00000000000E+00 0. -1.
     999901    1    3    3    0    0  0.95713100820E-01 -0.29080556059E-01 -0.86365061685E-01  0.88986830503E+00  0.88000000000E+00 0. -1.
        -11    1    4    4    0    0 -0.74494422044E-01  0.11455096841E-02  0.53888395335E-01  0.91950809571E-01  0.51100000000E-03 0. -1.
         11    1    4    4    0    0 -0.23521972349E-01  0.46473772116E-02  0.30251044525E-01  0.38603990907E-01  0.51100000000E-03 0.  1.
</event>
<event>
 8    1  0.1075206E+005  0.1043930E+01  0.7957747E-01            NaN
         13   -1    0    0    0    0  0.00000000000E+00  0.00000000000E+00  0.74505805969E-08  0.10566000000E+00  0.10566000000E+00 0. -1.
     999900   -1    0    0    0    0 -0.00000000000E+00 -0.00000000000E+00 -0.74505805969E-08  0.93827000000E+00  0.93827000000E+00 0.  1.
     999902    2    1    2    0    0  0.94715148370E-02 -0.90291274645E-02 -0.19418024900E-01  0.10205143124E+01  0.10202456407E+01 0.  0.
     999903    2    3    3    0    0 -0.47620375806E-01  0.96408116908E-01  0.66810085801E-01  0.12820731164E+00  0.20280581745E-01 0.  0.
         14    1    1    2    0    0 -0.94715148370E-02  0.90291274645E-02  0.19418024900E-01  0.23415687628E-01  0.00000000000E+00 0. -1.
     999901    1    3    3    0    0  0.57091890643E-01 -0.10543724437E+00 -0.86228110701E-01  0.89230700073E+00  0.88000000000E+00 0.  1.
        -11    1    4    4    0    0 -0.23646070791E-01  0.60807912308E-01  0.49617737465E-01  0.81969017655E-01  0.51100000000E-03 0.  1.
         11    1    4    4    0    0 -0.23974305015E-01  0.35600204600E-01  0.17192348336E-01  0.46238293987E-01  0.51100000000E-03 0. -1.
</event>
<event>
 8    1  0.1075206E+005  0.1043930E+01  0.7957747E-01            NaN
         13   -1    0    0    0    0  0.00000000000E+00  0.00000000000E+00  0.74505805969E-08  0.10566000000E+00  0.10566000000E+00 0. -1.
     999900   -1    0    0    0    0 -0.00000000000E+00 -0.00000000000E+00 -0.74505805969E-08  0.93827000000E+00  0.93827000000E+00 0. -1.
     999902    2    1    2    0    0 -0.23596490531E-01  0.11126515924E-01 -0.13289266761E-01  0.10146520504E+01  0.10142295524E+01 0.  0.
     999903    2    3    3    0    0  0.45531303729E-01  0.23014341457E-01  0.11042904271E+00  0.12323397091E+00  0.19730143981E-01 0.  0.
         14    1    1    2    0    0  0.23596490531E-01 -0.11126515924E-01  0.13289266761E-01  0.29277949604E-01  0.00000000000E+00 0. -1.
     999901    1    3    3    0    0 -0.69127794260E-01 -0.11887825533E-01 -0.12371830947E+00  0.89141807948E+00  0.88000000000E+00 0. -1.
        -11    1    4    4    0    0  0.38482249760E-01  0.14173031837E-01  0.98951346775E-01  0.10711390445E+00  0.51100000000E-03 0.  1.
         11    1    4    4    0    0  0.70490539696E-02  0.88413096197E-02  0.11477695931E-01  0.16120066456E-01  0.51100000000E-03 0. -1.
</event>
<event>
 8    1  0.1075206E+005  0.1043930E+01  0.7957747E-01            NaN
         13   -1    0    0    0    0  0.00000000000E+00  0.00000000000E+00  0.74505805969E-08  0.10566000000E+00  0.10566000000E+00 0. -1.
     999900   -1    0    0    0    0 -0.00000000000E+00 -0.00000000000E+00 -0.74505805969E-08  0.93827000000E+00  0.93827000000E+00 0.  1.
     999902    2    1    2    0    0  0.16792141507E-01  0.15200242756E-01 -0.55689654169E-02  0.10206054041E+01  0.10203388428E+01 0.  0.
     999903    2    3    3    0    0  0.95724170071E-01 -0.52695919838E-01  0.69890775995E-01  0.13126051794E+00  0.20115324963E-01 0.  0.
         14    1    1    2    0    0 -0.16792141507E-01 -0.15200242756E-01  0.55689654169E-02  0.23324595860E-01  0.00000000000E+00 0. -1.
     999901    1    3    3    0    0 -0.78932028564E-01  0.67896162595E-01 -0.75459741412E-01  0.88934488620E+00  0.88000000000E+00 0.  1.
        -11    1    4    4    0    0  0.54553089500E-01 -0.31899946202E-01  0.28663263719E-01  0.69393731344E-01  0.51100000000E-03 0. -1.
         11    1    4    4    0    0  0.41171080570E-01 -0.20795973636E-01  0.41227512276E-01  0.61866786600E-01  0.51100000000E-03 0.  1.
</event>
<event>
 8    1  0.1075206E+005  0.1043930E+01  0.7957747E-01            NaN
         13   -1    0    0    0    0  0.00000000000E+00  0.00000000000E+00  0.74505805969E-08  0.10566000000E+00  0.10566000000E+00 0.  1.
     999900   -1    0    0    0    0 -0.00000000000E+00 -0.00000000000E+00 -0.74505805969E-08  0.93827000000E+00  0.93827000000E+00 0. -1.
     999902    2    1    2    0    0  0.20189666248E-01  0.89598391746E-02  0.11133209866E-01  0.10191944041E+01  0.10188941965E+01 0.  0.
     999903    2    3    3    0    0  0.77538073555E-01  0.10486004423E+00  0.71253387982E-02  0.13211957516E+00  0.19925610706E-01 0.  0.
         14    1    1    2    0    0 -0.20189666248E-01 -0.89598391746E-02 -0.11133209866E-01  0.24735595872E-01  0.00000000000E+00 0. -1.
     999901    1    3    3    0    0 -0.57348407307E-01 -0.95900205055E-01  0.40078710675E-02  0.88707482896E+00  0.88000000000E+00 0. -1.
        -11    1    4    4    0    0  0.34651189826E-01  0.52652826112E-01  0.12783652043E-01  0.64317244457E-01  0.51100000000E-03 0.  1.
         11    1    4    4    0    0  0.42886883729E-01  0.52207218118E-01 -0.56583132444E-02  0.67802330707E-01  0.51100000000E-03 0. -1.
</event>
<event>
 8    1  0.1075206E+005  0.1043930E+01  0.7957747E-01            NaN
         13   -1    0    0    0    0  0.00000000000E+00  0.00000000000E+00  0.74505805969E-08  0.10566000000E+00  0.10566000000E+00 0. -1.
     999900   -1    0    0    0    0 -0.00000000000E+00 -0.00000000000E+00 -0.74505805969E-08  0.93827000000E+00  0.93827000000E+00 0. -1.
     999902    2    1    2    0    0 -0.17913236143E-01 -0.16403128405E-01  0.72729117005E-02  0.10185756730E+01  0.10182600649E+01 0.  0.
     999903    2    3    3    0    0 -0.69991335359E-01  0.37892961630E-01 -0.99252578012E-01  0.12896459299E+00  0.21121752659E-01 0.  0.
         14    1    1    2    0    0  0.17913236143E-01  0.16403128405E-01 -0.72729117005E-02  0.25354326952E-01  0.00000000000E+00 0. -1.
     999901    1    3    3    0    0  0.52078099216E-01 -0.54296090036E-01  0.10652548971E+00  0.88961108006E+00  0.88000000000E+00 0.  1.
        -11    1    4    4    0    0 -0.42976036645E-01  0.34073868364E-01 -0.70524578324E-01  0.89341734368E-01  0.51100000000E-03 0. -1.
         11    1    4    4    0    0 -0.27015298713E-01  0.38190932660E-02 -0.28727999689E-01  0.39622858618E-01  0.51100000000E-03 0.  1.
</event>
<event>
 8    1  0.1075206E+005  0.1043930E+01  0.7957747E-01            NaN
         13   -1    0    0    0    0  0.00000000000E+00  0.00000000000E+00  0.74505805969E-08  0.10566000000E+00  0.10566000000E+00 0. -1.
     999900   -1    0    0    0    0 -0.00000000000E+00 -0.00000000000E+00 -0.74505805969E-08  0.93827000000E+00  0.93827000000E+00 0. -1.
     999902    2    1    2    0    0 -0.37631121115E-02 -0.13060929136E-01  0.19208116830E-01  0.10203991557E+01  0.10201278039E+01 0.  0.
     999903    2    3    3    0    0 -0.11382222643E+00  0.35962254098E-01  0.51644340820E-01  0.13159749626E+00  0.20049442267E-01 0.  0.
         14    1    1    2    0    0  0.37631121115E-02  0.13060929136E-01 -0.19208116830E-01  0.23530844328E-01  0.00000000000E+00 0.  1.
     999901    1    3    3    0    0  0.11005911432E+00 -0.49023183234E-01 -0.32436223990E-01  0.88880165941E+00  0.88000000000E+00 0.  1.
        -11    1    4    4    0    0 -0.51919467502E-02  0.62806475488E-02  0.57746037716E-02  0.10000500708E-01  0.51100000000E-03 0. -1.
         11    1    4    4    0    0 -0.10863027968E+00  0.29681606549E-01  0.45869737048E-01  0.12159699556E+00  0.51100000000E-03 0.  1.
</event>
<event>
 8    1  0.1075206E+005  0.1043930E+01  0.7957747E-01            NaN
         13   -1    0    0    0    0  0.00000000000E+00  0.00000000000E+00  0.74505805969E-08  0.10566000000E+00  0.10566000000E+00 0. -1.
     999900   -1    0    0    0    0 -0.00000000000E+00 -0.00000000000E+00 -0.74505805969E-08  0.93827000000E+00  0.93827000000E+00 0. -1.
     999902    2    1    2    0    0  0.14566691750E-02 -0.15370613317E-01 -0.18126955085E-01  0.10201189912E+01  0.10198410622E+01 0.  0.
     999903    2    3    3    0    0 -0.23508211800E-01  0.87530275639E-01 -0.92412912558E-01  0.13066396609E+00  0.17853303690E-01 0.  0.
         14    1    1    2    0    0 -0.14566691750E-02  0.15370613317E-01  0.18126955085E-01  0.23811008788E-01  0.00000000000E+00 0.  1.
     999901    1    3    3    0    0  0.24964880975E-01 -0.10290088896E+00  0.74285957473E-01  0.88945502512E+00  0.88000000000E+00 0. -1.
        -11    1    4    4    0    0 -0.15386005731E-01  0.32354761740E-01 -0.44538765585E-01  0.57162247510E-01  0.51100000000E-03 0.  1.
         11    1    4    4    0    0 -0.81222060688E-02  0.55175513898E-01 -0.47874146973E-01  0.73501718584E-01  0.51100000000E-03 0. -1.
</event>
<event>
 8    1  0.1075206E+005  0.1043930E+01  0.7957747E-01            NaN
         13   -1    0    0    0    0  0.00000000000E+00  0.00000000000E+00  0.74505805969E-08  0.10566000000E+00  0.10566000000E+00 0.  1.
     999900   -1    0    0    0    0 -0.00000000000E+00 -0.00000000000E+00 -0.74505805969E-08  0.93827000000E+00  0.93827000000E+00 0.  1.
     999902    2    1    2    0    0  0.18228717803E-03  0.23221642793E-01  0.20841750928E-02  0.10206143034E+01  0.10203479478E+01 0.  0.
     999903    2    3    3    0    0  0.70995973018E-01 -0.95639910852E-01 -0.43914921050E-01  0.12861735055E+00  0.20651436702E-01 0.  0.
         14    1    1    2    0    0 -0.18228717803E-03 -0.23221642793E-01 -0.20841750928E-02  0.23315696611E-01  0.00000000000E+00 0. -1.
     999901    1    3    3    0    0 -0.70813685840E-01  0.11886155365E+00  0.45999096143E-01  0.89199695284E+00  0.88000000000E+00 0. -1.
        -11    1    4    4    0    0  0.24289197783E-01 -0.45355050334E-01 -0.11528386599E-01  0.52727701811E-01  0.51100000000E-03 0. -1.
         11    1    4    4    0    0  0.46706775235E-01 -0.50284860518E-01 -0.32386534451E-01  0.75889648734E-01  0.51100000000E-03 0.  1.
</event>
<event>
 8    1  0.1075206E+005  0.1043930E+01  0.7957747E-01            NaN
         13   -1    0    0    0    0  0.00000000000E+00  0.00000000000E+00  0.74505805969E-08  0.10566000000E+00  0.10566000000E+00 0. -1.
     999900   -1    0    0    0    0 -0.00000000000E+00 -0.00000000000E+00 -0.74505805969E-08  0.93827000000E+00  0.93827000000E+00 0.  1.
     999902    2    1    2    0    0  0.59566660374E-02 -0.56610152784E-02 -0.15627784158E-01  0.10262733695E+01  0.10261214705E+01 0.  0.
     999903    2    3    3    0    0 -0.53131899811E-01 -0.67128091340E-01  0.10165409343E+00  0.13440751696E+00  0.20066052880E-01 0.  0.
         14    1    1    2    0    0 -0.59566660374E-02  0.56610152784E-02  0.15627784158E-01  0.17656630538E-01  0.00000000000E+00 0. -1.
     999901    1    3    3    0    0  0.59088565848E-01  0.61467076061E-01 -0.11728187759E+00  0.89186585251E+00  0.88000000000E+00 0.  1.
        -11    1    4    4    0    0 -0.31916469823E-01 -0.40935497290E-01  0.46098097032E-01  0.69423855088E-01  0.51100000000E-03 0.  1.
         11    1    4    4    0    0 -0.21215429988E-01 -0.26192594049E-01  0.55555996402E-01  0.64983661868E-01  0.51100000000E-03 0. -1.
</event>
<event>
 8    1  0.1075206E+005  0.1043930E+01  0.7957747E-01            NaN
         13   -1    0    0    0    0  0.00000000000E+00  0.00000000000E+00  0.74505805969E-08  0.10566000000E+00  0.10566000000E+00 0. -1.
     999900   -1    0    0    0    0 -0.00000000000E+00 -0.00000000000E+00 -0.74505805969E-08  0.93827000000E+00  0.93827000000E+00 0. -1.
     999902    2    1    2    0    0 -0.98792225059E-02 -0.14760853622E-01  0.14677264750E-01  0.10208886472E+01  0.10206285936E+01 0.  0.
     999903    2    3    3    0    0  0.10327699981E+00 -0.69765168619E-01  0.37496264508E-01  0.13164710970E+00  0.19790760431E-01 0.  0.
         14    1    1    2    0    0  0.98792225059E-02  0.14760853622E-01 -0.14677264750E-01  0.23041352771E-01  0.00000000000E+00 0.  1.
     999901    1    3    3    0    0 -0.11315622231E+00  0.55004314998E-01 -0.22818999758E-01  0.88924153753E+00  0.88000000000E+00 0.  1.
        -11    1    4    4    0    0  0.65834056466E-01 -0.40517766475E-01  0.13710924550E-01  0.78511546691E-01  0.51100000000E-03 0. -1.
         11    1    4    4    0    0  0.37442943343E-01 -0.29247402144E-01  0.23785339958E-01  0.53135563009E-01  0.51100000000E-03 0.  1.
</event>
<event>
 8    1  0.1075206E+005  0.1043930E+01  0.7957747E-01            NaN
         13   -1    0    0    0    0  0.00000000000E+00  0.00000000000E+00  0.74505805969E-08  0.10566000000E+00  0.10566000000E+00 0. -1.
     999900   -1    0    0    0    0 -0.00000000000E+00 -0.00000000000E+00 -0.74505805969E-08  0.93827000000E+00  0.93827000000E+00 0. -1.
     999902    2    1    2    0    0 -0.22400306109E-02  0.10202002649E-01  0.21530186868E-01  0.10199999448E+01  0.10197191966E+01 0.  0.
     999903    2    3    3    0    0 -0.84154277379E-01  0.99023684887E-01  0.62675357766E-02  0.13161253856E+00  0.19873241576E-01 0.  0.
         14    1    1    2    0    0  0.22400306109E-02 -0.10202002649E-01 -0.21530186868E-01  0.23930055198E-01  0.00000000000E+00 0.  1.
     999901    1    3    3    0    0  0.81914246768E-01 -0.88821682238E-01  0.15262651092E-01  0.88838740625E+00  0.88000000000E+00 0.  1.
        -11    1    4    4    0    0 -0.34109788657E-01  0.28115663749E-01  0.73577602162E-02  0.44814796515E-01  0.51100000000E-03 0.  1.
         11    1    4    4    0    0 -0.50044488722E-01  0.70908021138E-01 -0.10902244396E-02  0.86797742041E-01  0.51100000000E-03 0. -1.
</event>
<event>
 8    1  0.1075206E+005  0.1043930E+01  0.7957747E-01            NaN
         13   -1    0    0    0    0  0.00000000000E+00  0.00000000000E+00  0.74505805969E-08  0.10566000000E+00  0.10566000000E+00 0. -1.
     999900   -1    0    0    0    0 -0.00000000000E+00 -0.00000000000E+00 -0.74505805969E-08  0.93827000000E+00  0.93827000000E+00 0.  1.
     999902    2    1    2    0    0 -0.21209915410E-01  0.97566498234E-02 -0.62298231373E-02  0.10197667340E+01  0.10194804208E+01 0.  0.
     999903    2    3    3    0    0 -0.11643302423E+00  0.24766810118E-01  0.54380826660E-01  0.13243004692E+00  0.20258307065E-01 0.  0.
         14    1    1    2    0    0  0.21209915410E-01 -0.97566498234E-02  0.62298231373E-02  0.24163266000E-01  0.00000000000E+00 0.  1.
     999901    1    3    3    0    0  0.95223108819E-01 -0.15010160294E-01 -0.60610649797E-01  0.88733668708E+00  0.88000000000E+00 0.  1.
        -11    1    4    4    0    0 -0.89131320756E-01  0.23713234534E-01  0.49479907549E-01  0.10466724513E+00  0.51100000000E-03 0. -1.
         11    1    4    4    0    0 -0.27301703473E-01  0.10535755838E-02  0.49009191104E-02  0.27762801789E-01  0.51100000000E-03 0.  1.
</event>
<event>
 8    1  0.1075206E+005  0.1043930E+01  0.7957747E-01            NaN
         13   -1    0    0    0    0  0.00000000000E+00  0.00000000000E+00  0.74505805969E-08  0.10566000000E+00  0.10566000000E+00 0.  1.
     999900   -1    0    0    0    0 -0.00000000000E+00 -0.00000000000E+00 -0.74505805969E-08  0.93827000000E+00  0.93827000000E+00 0. -1.
     999902    2    1    2    0    0  0.24044161476E-01 -0.47325799548E-03 -0.26760359645E-02  0.10197327513E+01  0.10194456225E+01 0.  0.
     999903    2    3    3    0    0  0.96816729550E-01 -0.45019989469E-02 -0.88028044830E-01  0.13260421340E+00  0.21004609465E-01 0.  0.
         14    1    1    2    0    0 -0.24044161476E-01  0.47325799548E-03  0.26760359645E-02  0.24197248659E-01  0.00000000000E+00 0.  1.
     999901    1    3    3    0    0 -0.72772568074E-01  0.40287409514E-02  0.85352008865E-01  0.88712853794E+00  0.88000000000E+00 0.  1.
        -11    1    4    4    0    0  0.81035701738E-01  0.21096741475E-02 -0.79250329517E-01  0.11336715367E+00  0.51100000000E-03 0. -1.
         11    1    4    4    0    0  0.15781027811E-01 -0.66116730944E-02 -0.87777153124E-02  0.19237059728E-01  0.51100000000E-03 0.  1.
</event>
<event>
 8    1  0.1075206E+005  0.1043930E+01  0.7957747E-01            NaN
         13   -1    0    0    0    0  0.00000000000E+00  0.00000000000E+00  0.74505805969E-08  0.10566000000E+00  0.10566000000E+00 0.  1.
     999900   -1    0    0    0    0 -0.00000000000E+00 -0.00000000000E+00 -0.74505805969E-08  0.93827000000E+00  0.93827000000E+00 0. -1.
     999902    2    1    2    0    0  0.20496208481E-01  0.13115264419E-01 -0.16821217870E-01  0.10143486191E+01  0.10139171875E+01 0.  0.
     999903    2    3    3    0    0  0.11087143745E-01 -0.16749680503E-01 -0.12343732720E+00  0.12736077244E+00  0.24093900795E-01 0.  0.
         14    1    1    2    0    0 -0.20496208481E-01 -0.13115264419E-01  0.16821217870E-01  0.29581380858E-01  0.00000000000E+00 0. -1.
     999901    1    3    3    0    0  0.94090647356E-02  0.29864944922E-01  0.10661610933E+00  0.88698784671E+00  0.88000000000E+00 0.  1.
        -11    1    4    4    0    0 -0.37540326730E-02 -0.16054170010E-01 -0.66289889385E-01  0.68311343800E-01  0.51100000000E-03 0.  1.
         11    1    4    4    0    0  0.14841176418E-01 -0.69551049273E-03 -0.57147437816E-01  0.59049428637E-01  0.51100000000E-03 0. -1.
</event>
<event>
 8    1  0.1075206E+005  0.1043930E+01  0.7957747E-01            NaN
         13   -1    0    0    0    0  0.00000000000E+00  0.00000000000E+00  0.74505805969E-08  0.10566000000E+00  0.10566000000E+00 0. -1.
     999900   -1    0    0    0    0 -0.00000000000E+00 -0.00000000000E+00 -0.74505805969E-08  0.93827000000E+00  0.93827000000E+00 0.  1.
     999902    2    1    2    0    0  0.35057663394E-02  0.34573803471E-03  0.23927946121E-01  0.10197441252E+01  0.10194572695E+01 0.  0.
     999903    2    3    3    0    0  0.12140113477E+00 -0.21372325163E-01  0.40931829481E-01  0.13145356229E+00  0.20238887508E-01 0.  0.
         14    1    1    2    0    0 -0.35057663394E-02 -0.34573803471E-03 -0.23927946121E-01  0.24185874762E-01  0.00000000000E+00 0.  1.
     999901    1    3    3    0    0 -0.11789536844E+00  0.21718063197E-01 -0.17003883360E-01  0.88829056294E+00  0.88000000000E+00 0. -1.
        -11    1    4    4    0    0  0.20509437720E-01 -0.86298273350E-02  0.12525965093E-02  0.22292175184E-01  0.51100000000E-03 0.  1.
         11    1    4    4    0    0  0.10089169705E+00 -0.12742497828E-01  0.39679232972E-01  0.10916138711E+00  0.51100000000E-03 0. -1.
</event>
<event>
 8    1  0.1075206E+005  0.1043930E+01  0.7957747E-01            NaN
         13   -1    0    0    0    0  0.00000000000E+00  0.00000000000E+00  0.74505805969E-08  0.10566000000E+00  0.10566000000E+00 0.  1.
     999900   -1    0    0    0    0 -0.00000000000E+00 -0.00000000000E+00 -0.74505805969E-08  0.93827000000E+00  0.93827000000E+00 0. -1.
     999902    2    1    2    0    0 -0.18934270600E-01 -0.14918327748E-01  0.15680687284E-02  0.10197738011E+01  0.10194876573E+01 0.  0.
     999903    2    3    3    0    0  0.85857377203E-02  0.12203000635E+00  0.33095446260E-01  0.12819869343E+00  0.19353529223E-01 0.  0.
         14    1    1    2    0    0  0.18934270600E-01  0.14918327748E-01 -0.15680687284E-02  0.24156198904E-01  0.00000000000E+00 0.  1.
     999901    1    3    3    0    0 -0.27520008320E-01 -0.13694833410E+00 -0.31527377531E-01  0.89157510766E+00  0.88000000000E+00 0. -1.
        -11    1    4    4    0    0  0.94794902771E-02  0.82087641486E-01  0.30762473058E-01  0.88175010577E-01  0.51100000000E-03 0.  1.
         11    1    4    4    0    0 -0.89375255674E-03  0.39942364862E-01  0.23329732015E-02  0.40023682856E-01  0.51100000000E-03 0. -1.
</event>
<event>
 8    1  0.1075206E+005  0.1043930E+01  0.7957747E-01            NaN
         13   -1    0    0    0    0  0.00000000000E+00  0.00000000000E+00  0.74505805969E-08  0.10566000000E+00  0.10566000000E+00 0. -1.
     999900   -1    0    0    0    0 -0.00000000000E+00 -0.00000000000E+00 -0.74505805969E-08  0.93827000000E+00  0.93827000000E+00 0.  1.
     999902    2    1    2    0    0  0.19631547800E-01  0.82109516063E-02  0.11873223829E-01  0.10195621761E+01  0.10192709356E+01 0.  0.
     999903    2    3    3    0    0  0.12369731737E+00  0.12928474503E-01 -0.39692969600E-01  0.13191866002E+00  0.18942788791E-01 0.  0.
         14    1    1    2    0    0 -0.19631547800E-01 -0.82109516063E-02 -0.11873223829E-01  0.24367823854E-01  0.00000000000E+00 0.  1.
     999901    1    3    3    0    0 -0.10406576957E+00 -0.47175228962E-02  0.51566193429E-01  0.88764351613E+00  0.88000000000E+00 0.  1.
        -11    1    4    4    0    0  0.10555927587E-01 -0.40846028919E-02 -0.24175272338E-02  0.11585212425E-01  0.51100000000E-03 0. -1.
         11    1    4    4    0    0  0.11314138979E+00  0.17013077395E-01 -0.37275442366E-01  0.12033344759E+00  0.51100000000E-03 0.  1.
</event>
<event>
 8    1  0.1075206E+005  0.1043930E+01  0.7957747E-01            NaN
         13   -1    0    0    0    0  0.00000000000E+00  0.00000000000E+00  0.74505805969E-08  0.10566000000E+00  0.10566000000E+00 0. -1.
     999900   -1    0    0    0    0 -0.00000000000E+00 -0.00000000000E+00 -0.74505805969E-08  0.93827000000E+00  0.93827000000E+00 0.  1.
     999902    2    1    2    0    0  0.68642509073E-02  0.96157270569E-02 -0.20499705965E-01  0.10202695247E+01  0.10199951397E+01 0.  0.
     999903    2    3    3    0    0 -0.12142460624E+00  0.38306749392E-01 -0.19692891807E-01  0.13050446773E+00  0.20790961067E-01 0.  0.
         14    1    1    2    0    0 -0.68642509073E-02 -0.96157270569E-02  0.20499705965E-01  0.23660475312E-01  0.00000000000E+00 0. -1.
     999901    1    3    3    0    0  0.12828885714E+00 -0.28691022335E-01 -0.80681415799E-03  0.88976505696E+00  0.88000000000E+00 0.  1.
        -11    1    4    4    0    0 -0.65288731611E-01  0.27063350633E-01 -0.24842364473E-02  0.70721114065E-01  0.51100000000E-03 0. -1.
         11    1    4    4    0    0 -0.56135874624E-01  0.11243398760E-01 -0.17208655360E-01  0.59783353668E-01  0.51100000000E-03 0.  1.
</event>
<event>
 8    1  0.1075206E+005  0.1043930E+01  0.7957747E-01            NaN
         13   -1    0    0    0    0  0.00000000000E+00  0.00000000000E+00  0.74505805969E-08  0.10566000000E+00  0.10566000000E+00 0. -1.
     999900   -1    0    0    0    0 -0.00000000000E+00 -0.00000000000E+00 -0.74505805969E-08  0.93827000000E+00  0.93827000000E+00 0. -1.
     999902    2    1    2    0    0  0.75664160349E-02 -0.11197298770E-01  0.19631241532E-01  0.10200969180E+01  0.10198184674E+01 0.  0.
     999903    2    3    3    0    0 -0.73378822755E-01 -0.47011865163E-02 -0.10274242870E+00  0.12792560808E+00  0.20059954255E-01 0.  0.
         14    1    1    2    0    0 -0.75664160349E-02  0.11197298770E-01 -0.19631241532E-01  0.23833081955E-01  0.00000000000E+00 0.  1.
     999901    1    3    3    0    0  0.80945238790E-01 -0.64961122533E-02  0.12237367023E+00  0.89217130996E+00  0.88000000000E+00 0.  1.
        -11    1    4    4    0    0 -0.59450038230E-01 -0.93844180912E-02 -0.71969972637E-01  0.93820639684E-01  0.51100000000E-03 0.  1.
         11    1    4    4    0    0 -0.13928784525E-01  0.46832315749E-02 -0.30772456061E-01  0.34104968397E-01  0.51100000000E-03 0. -1.
</event>
<event>
 7    1  0.1075206E+005  0.1043930E+01  0.7957747E-01            NaN
         13   -1    0    0    0    0  0.00000000000E+00  0.00000000000E+00  0.74505805969E-08  0.10566000000E+00  0.10566000000E+00 0.  1.
     999900   -1    0    0    0    0 -0.00000000000E+00 -0.00000000000E+00 -0.74505805969E-08  0.93827000000E+00  0.93827000000E+00 0.  1.
     999902    2    1    2    0    0  0.22833685544E-01  0.21465520828E-02 -0.10410800549E-02  0.10209720225E+01  0.10207138689E+01 0.  0.
         14    1    1    2    0    0 -0.22833685544E-01 -0.21465520828E-02  0.10410800549E-02  0.22957977460E-01  0.00000000000E+00 0.  1.
     999901    1    3    3    0    0  0.29704349390E-01  0.49143504144E-01 -0.11753105319E+00  0.88966902882E+00  0.88000000000E+00 0.  1.
        -11    1    3    3    0    0 -0.13411532244E-01 -0.35713753628E-01  0.46701479723E-01  0.60304483454E-01  0.51100000000E-03 0.  1.
         11    1    3    3    0    0  0.65408683982E-02 -0.11283198433E-01  0.69788493415E-01  0.70998510269E-01  0.51100000000E-03 0. -1.
</event>
<event>
 8    1  0.1075206E+005  0.1043930E+01  0.7957747E-01            NaN
         13   -1    0    0    0    0  0.00000000000E+00  0.00000000000E+00  0.74505805969E-08  0.10566000000E+00  0.10566000000E+00 0. -1.
     999900   -1    0    0    0    0 -0.00000000000E+00 -0.00000000000E+00 -0.74505805969E-08  0.93827000000E+00  0.93827000000E+00 0. -1.
     999902    2    1    2    0    0 -0.68885915926E-02  0.20597960912E-01 -0.82056742678E-02  0.10207122960E+01  0.10204482003E+01 0.  0.
     999903    2    3    3    0    0  0.49319839887E-01 -0.39552573875E-01  0.11051640996E+00  0.12893182534E+00  0.20314674687E-01 0.  0.
         14    1    1    2    0    0  0.68885915926E-02 -0.20597960912E-01  0.82056742678E-02  0.23217703979E-01  0.00000000000E+00 0. -1.
     999901    1    3    3    0    0 -0.56208431480E-01  0.60150534787E-01 -0.11872208423E+00  0.89178047068E+00  0.88000000000E+00 0. -1.
        -11    1    4    4    0    0  0.36517305163E-01 -0.17217058557E-01  0.61619775514E-01  0.73669522444E-01  0.51100000000E-03 0. -1.
         11    1    4    4    0    0  0.12802534724E-01 -0.22335515317E-01  0.48896634449E-01  0.55262302895E-01  0.51100000000E-03 0.  1.
</event>
<event>
 8    1  0.1075206E+005  0.1043930E+01  0.7957747E-01            NaN
         13   -1    0    0    0    0  0.00000000000E+00  0.00000000000E+00  0.74505805969E-08  0.10566000000E+00  0.10566000000E+00 0. -1.
     999900   -1    0    0    0    0 -0.00000000000E+00 -0.00000000000E+00 -0.74505805969E-08  0.93827000000E+00  0.93827000000E+00 0. -1.
     999902    2    1    2    0    0  0.58822915110E-02  0.11643469753E-01 -0.19631329476E-01  0.10203596619E+01  0.10200873878E+01 0.  0.
     999903    2    3    3    0    0 -0.23318827425E-01 -0.93658129601E-01 -0.86447560844E-01  0.13108718344E+00  0.19876013996E-01 0.  0.
         14    1    1    2    0    0 -0.58822915110E-02 -0.11643469753E-01  0.19631329476E-01  0.23570338104E-01  0.00000000000E+00 0. -1.
     999901    1    3    3    0    0  0.29201118936E-01  0.10530159935E+00  0.66816231368E-01  0.88927247846E+00  0.88000000000E+00 0.  1.
        -11    1    4    4    0    0 -0.52650191449E-02 -0.25695179180E-01 -0.35987016426E-01  0.44534134458E-01  0.51100000000E-03 0. -1.
         11    1    4    4    0    0 -0.18053808280E-01 -0.67962950421E-01 -0.50460544418E-01  0.86553048978E-01  0.51100000000E-03 0.  1.
</event>
<event>
 8    1  0.1075206E+005  0.1043930E+01  0.7957747E-01            NaN
         13   -1    0    0    0    0  0.00000000000E+00  0.00000000000E+00  0.74505805969E-08  0.10566000000E+00  0.10566000000E+00 0.  1.
     999900   -1    0    0    0    0 -0.00000000000E+00 -0.00000000000E+00 -0.74505805969E-08  0.93827000000E+00  0.93827000000E+00 0.  1.
     999902    2    1    2    0    0 -0.31317895986E-02 -0.91446569045E-05 -0.23766280073E-01  0.10199582613E+01  0.10196765225E+01 0.  0.
     999903    2    3    3    0    0  0.10264257979E+00 -0.74197931651E-01  0.18698691464E-01  0.12951148175E+00  0.19564012764E-01 0.  0.
         14    1    1    2    0    0  0.31317895986E-02  0.91446569045E-05  0.23766280073E-01  0.23971738740E-01  0.00000000000E+00 0.  1.
     999901    1    3    3    0    0 -0.10577436939E+00  0.74188786994E-01 -0.42464971537E-01  0.89044677951E+00  0.88000000000E+00 0.  1.
        -11    1    4    4    0    0  0.65228499287E-02 -0.11883058764E-01  0.29316501147E-02  0.13878413100E-01  0.51100000000E-03 0. -1.
         11    1    4    4    0    0  0.96119729859E-01 -0.62314872886E-01  0.15767041349E-01  0.11563306865E+00  0.51100000000E-03 0.  1.
</event>
<event>
 8    1  0.1075206E+005  0.1043930E+01  0.7957747E-01            NaN
         13   -1    0    0    0    0  0.00000000000E+00  0.00000000000E+00  0.74505805969E-08  0.10566000000E+00  0.10566000000E+00 0. -1.
     999900   -1    0    0    0    0 -0.00000000000E+00 -0.00000000000E+00 -0.74505805969E-08  0.93827000000E+00  0.93827000000E+00 0.  1.
     999902    2    1    2    0    0  0.22899433589E-01  0.71091282962E-02  0.53291735492E-02  0.10193673484E+01  0.10190713749E+01 0.  0.
     999903    2    3    3    0    0  0.57103679043E-02  0.11336716305E+00  0.62158570803E-01  0.13098915509E+00  0.20242254459E-01 0.  0.
         14    1    1    2    0    0 -0.22899433589E-01 -0.71091282962E-02 -0.53291735492E-02  0.24562651619E-01  0.00000000000E+00 0. -1.
     999901    1    3    3    0    0  0.17189065684E-01 -0.10625803476E+00 -0.56829397254E-01  0.88837819329E+00  0.88000000000E+00 0. -1.
        -11    1    4    4    0    0 -0.33466691430E-02  0.32168034005E-01  0.92214004375E-02  0.33634475663E-01  0.51100000000E-03 0.  1.
         11    1    4    4    0    0  0.90570370473E-02  0.81199129049E-01  0.52937170366E-01  0.97354679424E-01  0.51100000000E-03 0. -1.
</event>
<event>
 8    1  0.1075206E+005  0.1043930E+01  0.7957747E-01            NaN
         13   -1    0    0    0    0  0.00000000000E+00  0.00000000000E+00  0.74505805969E-08  0.10566000000E+00  0.10566000000E+00 0.  1.
     999900   -1    0    0    0    0 -0.00000000000E+00 -0.00000000000E+00 -0.74505805969E-08  0.93827000000E+00  0.93827000000E+00 0.  1.
     999902    2    1    2    0    0 -0.63081831783E-02  0.17334233952E-01  0.15670888774E-01  0.10197257525E+01  0.10194384556E+01 0.  0.
     999903    2    3    3    0    0  0.74145471965E-01  0.29191706714E-01  0.10289106663E+00  0.13168253863E+00  0.20100065523E-01 0.  0.
         14    1    1    2    0    0  0.63081831783E-02 -0.17334233952E-01 -0.15670888774E-01  0.24204247493E-01  0.00000000000E+00 0. -1.
     999901    1    3    3    0    0 -0.80453655143E-01 -0.11857472762E-01 -0.87220177856E-01  0.88804321388E+00  0.88000000000E+00 0.  1.
        -11    1    4    4    0    0  0.58560572476E-01  0.13711353210E-01  0.77588710365E-01  0.98171334679E-01  0.51100000000E-03 0. -1.
         11    1    4    4    0    0  0.15584899489E-01  0.15480353504E-01  0.25302356266E-01  0.33511203952E-01  0.51100000000E-03 0.  1.
</event>
<event>
 8    1  0.1075206E+005  0.1043930E+01  0.7957747E-01            NaN
         13   -1    0    0    0    0  0.00000000000E+00  0.00000000000E+00  0.74505805969E-08  0.10566000000E+00  0.10566000000E+00 0. -1.
     999900   -1    0    0    0    0 -0.00000000000E+00 -0.00000000000E+00 -0.74505805969E-08  0.93827000000E+00  0.93827000000E+00 0. -1.
     999902    2    1    2    0    0  0.12506637394E-01  0.15657120067E-01 -0.10952450997E-01  0.10210932408E+01  0.10208378367E+01 0.  0.
     999903    2    3    3    0    0 -0.75621529235E-01  0.26973744144E-01 -0.10268383860E+00  0.13187488337E+00  0.20020379548E-01 0.  0.
         14    1    1    2    0    0 -0.12506637394E-01 -0.15657120067E-01  0.10952450997E-01  0.22836759195E-01  0.00000000000E+00 0. -1.
     999901    1    3    3    0    0  0.88128166629E-01 -0.11316624077E-01  0.91731387599E-01  0.88921835744E+00  0.88000000000E+00 0.  1.
        -11    1    4    4    0    0 -0.69301507143E-01  0.25229151260E-01 -0.82566623847E-01  0.11071006034E+00  0.51100000000E-03 0.  1.
         11    1    4    4    0    0 -0.63200220915E-02  0.17445928846E-02 -0.20117214749E-01  0.21164823029E-01  0.51100000000E-03 0. -1.
</event>
<event>
 8    1  0.1075206E+005  0.1043930E+01  0.7957747E-01            NaN
         13   -1    0    0    0    0  0.00000000000E+00  0.00000000000E+00  0.74505805969E-08  0.10566000000E+00  0.10566000000E+00 0.  1.
     999900   -1    0    0    0    0 -0.00000000000E+00 -0.00000000000E+00 -0.74505805969E-08  0.93827000000E+00  0.93827000000E+00 0. -1.
     999902    2    1    2    0    0 -0.53552414727E-02 -0.14368819825E-01 -0.18155009834E-01  0.10201656154E+01  0.10198887865E+01 0.  0.
     999903    2    3    3    0    0  0.13577689385E-01 -0.44074622060E-01  0.11856828977E+00  0.12891135805E+00  0.20803195343E-01 0.  0.
         14    1    1    2    0    0  0.53552414727E-02  0.14368819825E-01  0.18155009834E-01  0.23764384622E-01  0.00000000000E+00 0.  1.
     999901    1    3    3    0    0 -0.18932930857E-01  0.29705802234E-01 -0.13672329960E+00  0.89125425733E+00  0.88000000000E+00 0. -1.
        -11    1    4    4    0    0  0.11707309935E-02 -0.29494212273E-01  0.53759733165E-01  0.61332285133E-01  0.51100000000E-03 0.  1.
         11    1    4    4    0    0  0.12406958391E-01 -0.14580409787E-01  0.64808556602E-01  0.67579072914E-01  0.51100000000E-03 0. -1.
</event>
<event>
 7    1  0.1090291E+005  0.1043930E+01  0.7957747E-01            NaN
         13   -1    0    0    0    0  0.00000000000E+00  0.00000000000E+00  0.74505805969E-08  0.10566000000E+00  0.10566000000E+00 0. -1.
     999900   -1    0    0    0    0 -0.00000000000E+00 -0.00000000000E+00 -0.74505805969E-08  0.93827000000E+00  0.93827000000E+00 0. -1.
     999903    2    1    2    0    0 -0.26821625352E-01  0.11289534984E+00  0.75614509802E-03  0.11773376453E+00  0.19897435841E-01 0.  0.
         14    1    1    2    0    0  0.28609117615E-01 -0.91168148850E-02  0.25961140537E-01  0.39693560464E-01  0.00000000000E+00 0. -1.
     999901    1    1    2    0    0 -0.17874922631E-02 -0.10377853495E+00 -0.26717285635E-01  0.88650267501E+00  0.88000000000E+00 0. -1.
        -11    1    3    3    0    0 -0.46315903027E-02  0.52853360967E-01  0.65391216500E-02  0.53459803845E-01  0.51100000000E-03 0.  1.
         11    1    3    3    0    0 -0.22190035049E-01  0.60041988870E-01 -0.57829765519E-02  0.64273960682E-01  0.51100000000E-03 0. -1.
</event>
<event>
 8    1  0.1075206E+005  0.1043930E+01  0.7957747E-01            NaN
         13   -1    0    0    0    0  0.00000000000E+00  0.00000000000E+00  0.74505805969E-08  0.10566000000E+00  0.10566000000E+00 0.  1.
     999900   -1    0    0    0    0 -0.00000000000E+00 -0.00000000000E+00 -0.74505805969E-08  0.93827000000E+00  0.93827000000E+00 0. -1.
     999902    2    1    2    0    0  0.51887922977E-02  0.94074937370E-02  0.21112929271E-01  0.10202407559E+01  0.10199656954E+01 0.  0.
     999903    2    3    3    0    0  0.10676487308E-01 -0.38057308009E-01  0.12521449763E+00  0.13281743034E+00  0.19986328104E-01 0.  0.
         14    1    1    2    0    0 -0.51887922977E-02 -0.94074937370E-02 -0.21112929271E-01  0.23689244106E-01  0.00000000000E+00 0. -1.
     999901    1    3    3    0    0 -0.54876950099E-02  0.47464801746E-01 -0.10410156836E+00  0.88742332555E+00  0.88000000000E+00 0. -1.
        -11    1    4    4    0    0  0.48095331650E-02 -0.10145504082E-01  0.67595871420E-01  0.68523906896E-01  0.51100000000E-03 0.  1.
         11    1    4    4    0    0  0.58669541425E-02 -0.27911803927E-01  0.57618626211E-01  0.64293523444E-01  0.51100000000E-03 0. -1.
</event>
<event>
 8    1  0.1075206E+005  0.1043930E+01  0.7957747E-01            NaN
         13   -1    0    0    0    0  0.00000000000E+00  0.00000000000E+00  0.74505805969E-08  0.10566000000E+00  0.10566000000E+00 0.  1.
     999900   -1    0    0    0    0 -0.00000000000E+00 -0.00000000000E+00 -0.74505805969E-08  0.93827000000E+00  0.93827000000E+00 0. -1.
     999902    2    1    2    0    0 -0.40897859133E-02 -0.24161282477E-01  0.31370618175E-02  0.10192250394E+01  0.10189255841E+01 0.  0.
     999903    2    3    3    0    0 -0.22051831608E-01  0.39019963773E-01  0.11956175803E+00  0.12912997999E+00  0.19253490541E-01 0.  0.
         14    1    1    2    0    0  0.40897859133E-02  0.24161282477E-01 -0.31370618175E-02  0.24704960566E-01  0.00000000000E+00 0.  1.
     999901    1    3    3    0    0  0.17962045694E-01 -0.63181246250E-01 -0.11642469621E+00  0.89009505945E+00  0.88000000000E+00 0. -1.
        -11    1    4    4    0    0 -0.11339817454E-01  0.96071917380E-02  0.60303970684E-01  0.62110543342E-01  0.51100000000E-03 0. -1.
         11    1    4    4    0    0 -0.10712014154E-01  0.29412772035E-01  0.59257787347E-01  0.67019436645E-01  0.51100000000E-03 0.  1.
</event>
<event>
 8    1  0.1075206E+005  0.1043930E+01  0.7957747E-01            NaN
         13   -1    0    0    0    0  0.00000000000E+00  0.00000000000E+00  0.74505805969E-08  0.10566000000E+00  0.10566000000E+00 0.  1.
     999900   -1    0    0    0    0 -0.00000000000E+00 -0.00000000000E+00 -0.74505805969E-08  0.93827000000E+00  0.93827000000E+00 0.  1.
     999902    2    1    2    0    0  0.32352586799E-02 -0.19359867152E-01 -0.13404292412E-01  0.10201613987E+01  0.10198844704E+01 0.  0.
     999903    2    3    3    0    0 -0.10735119920E+00 -0.33393018621E-01  0.62163016933E-01  0.12991608850E+00  0.19353958651E-01 0.  0.
         14    1    1    2    0    0 -0.32352586799E-02  0.19359867152E-01  0.13404292412E-01  0.23768601346E-01  0.00000000000E+00 0. -1.
     999901    1    3    3    0    0  0.11058645788E+00  0.14033151469E-01 -0.75567309345E-01  0.89024531015E+00  0.88000000000E+00 0. -1.
        -11    1    4    4    0    0 -0.31993255297E-01 -0.15567111719E-01  0.27986922741E-01  0.45270656250E-01  0.51100000000E-03 0.  1.
         11    1    4    4    0    0 -0.75357943902E-01 -0.17825906902E-01  0.34176094192E-01  0.84645432252E-01  0.51100000000E-03 0. -1.
</event>
<event>
 8    1  0.1075206E+005  0.1043930E+01  0.7957747E-01            NaN
         13   -1    0    0    0    0  0.00000000000E+00  0.00000000000E+00  0.74505805969E-08  0.10566000000E+00  0.10566000000E+00 0.  1.
     999900   -1    0    0    0    0 -0.00000000000E+00 -0.00000000000E+00 -0.74505805969E-08  0.93827000000E+00  0.93827000000E+00 0. -1.
     999902    2    1    2    0    0  0.65398700324E-02  0.21294450716E-01 -0.16622650611E-01  0.10161354674E+01  0.10157552619E+01 0.  0.
     999903    2    3    3    0    0  0.70323907357E-01 -0.60278978094E-01  0.81007172967E-01  0.12470167276E+00  0.20232102477E-01 0.  0.
         14    1    1    2    0    0 -0.65398700324E-02 -0.21294450716E-01  0.16622650611E-01  0.27794532640E-01  0.00000000000E+00 0.  1.
     999901    1    3    3    0    0 -0.63784037325E-01  0.81573428810E-01 -0.97629823578E-01  0.89143379460E+00  0.88000000000E+00 0. -1.
        -11    1    4    4    0    0  0.41750446016E-01 -0.37657119651E-01  0.35902876586E-01  0.66711588731E-01  0.51100000000E-03 0.  1.
         11    1    4    4    0    0  0.28573461341E-01 -0.22621858443E-01  0.45104296381E-01  0.57990084027E-01  0.51100000000E-03 0. -1.
</event>
<event>
 8    1  0.1075206E+005  0.1043930E+01  0.7957747E-01            NaN
         13   -1    0    0    0    0  0.00000000000E+00  0.00000000000E+00  0.74505805969E-08  0.10566000000E+00  0.10566000000E+00 0.  1.
     999900   -1    0    0    0    0 -0.00000000000E+00 -0.00000000000E+00 -0.74505805969E-08  0.93827000000E+00  0.93827000000E+00 0.  1.
     999902    2    1    2    0    0  0.29570788313E-02 -0.13841272303E-01 -0.21012807988E-01  0.10185949801E+01  0.10182798585E+01 0.  0.
     999903    2    3    3    0    0  0.84911453753E-01  0.74215168412E-01  0.55017181039E-01  0.12716297733E+00  0.20632168882E-01 0.  0.
         14    1    1    2    0    0 -0.29570788313E-02  0.13841272303E-01  0.21012807988E-01  0.25335019908E-01  0.00000000000E+00 0.  1.
     999901    1    3    3    0    0 -0.81954374922E-01 -0.88056440714E-01 -0.76029989027E-01  0.89143200276E+00  0.88000000000E+00 0.  1.
        -11    1    4    4    0    0  0.33807548447E-01  0.36341037838E-01  0.14374742382E-01  0.51677032642E-01  0.51100000000E-03 0. -1.
         11    1    4    4    0    0  0.51103905306E-01  0.37874130574E-01  0.40642438657E-01  0.75485944687E-01  0.51100000000E-03 0.  1.
</event>
<event>
 8    1  0.1075206E+005  0.1043930E+01  0.7957747E-01            NaN
         13   -1    0    0    0    0  0.00000000000E+00  0.00000000000E+00  0.74505805969E-08  0.10566000000E+00  0.10566000000E+00 0. -1.
     999900   -1    0    0    0    0 -0.00000000000E+00 -0.00000000000E+00 -0.74505805969E-08  0.93827000000E+00  0.93827000000E+00 0.  1.
     999902    2    1    2    0    0 -0.11677001189E-01  0.70905096922E-02  0.18869035210E-01  0.10206347607E+01  0.10203688777E+01 0.  0.
     999903    2    3    3    0    0  0.88922122705E-01 -0.84387015586E-01  0.38054691293E-01  0.12998532868E+00  0.20486918646E-01 0.  0.
         14    1    1    2    0    0  0.11677001189E-01 -0.70905096922E-02 -0.18869035210E-01  0.23295239303E-01  0.00000000000E+00 0.  1.
     999901    1    3    3    0    0 -0.10059912389E+00  0.91477525279E-01 -0.19185656084E-01  0.89064943202E+00  0.88000000000E+00 0. -1.
        -11    1    4    4    0    0  0.29299975831E-01 -0.31935022629E-01  0.23319296982E-01  0.49217730410E-01  0.51100000000E-03 0. -1.
         11    1    4    4    0    0  0.59622146874E-01 -0.52451992957E-01  0.14735394311E-01  0.80767598266E-01  0.51100000000E-03 0.  1.
</event>
<event>
 8    1  0.1396699E+005  0.1043930E+01  0.7957747E-01            NaN
         13   -1    0    0    0    0  0.00000000000E+00  0.00000000000E+00  0.74505805969E-08  0.10566000000E+00  0.10566000000E+00 0. -1.
     999900   -1    0    0    0    0 -0.00000000000E+00 -0.00000000000E+00 -0.74505805969E-08  0.93827000000E+00  0.93827000000E+00 0. -1.
     999902    2    1    2    0    0 -0.21021656905E-01 -0.11036375404E-01  0.12200106352E-02  0.10201560633E+01  0.10198790092E+01 0.  0.
     999903    2    3    3    0    0  0.15396044989E-01 -0.35775969382E-01  0.12345277300E+00  0.13061733747E+00  0.17416759208E-01 0.  0.
         14    1    1    2    0    0  0.21021656905E-01  0.11036375404E-01 -0.12200106352E-02  0.23773936717E-01  0.00000000000E+00 0. -1.
     999901    1    3    3    0    0 -0.36417701894E-01  0.24739593978E-01 -0.12223276236E+00  0.88953872581E+00  0.88000000000E+00 0. -1.
        -11    1    4    4    0    0  0.42985625207E-02 -0.27062689869E-01  0.66189604874E-01  0.71639316978E-01  0.51100000000E-03 0.  1.
         11    1    4    4    0    0  0.11097482469E-01 -0.87132795131E-02  0.57263168123E-01  0.58978020495E-01  0.51100000000E-03 0. -1.
</event>
<event>
 8    1  0.1075206E+005  0.1043930E+01  0.7957747E-01            NaN
         13   -1    0    0    0    0  0.00000000000E+00  0.00000000000E+00  0.74505805969E-08  0.10566000000E+00  0.10566000000E+00 0. -1.
     999900   -1    0    0    0    0 -0.00000000000E+00 -0.00000000000E+00 -0.74505805969E-08  0.93827000000E+00  0.93827000000E+00 0.  1.
     999902    2    1    2    0    0 -0.17811700343E-02  0.10479337850E-02 -0.22180648612E-01  0.10216532878E+01  0.10214103919E+01 0.  0.
     999903    2    3    3    0    0 -0.71361627015E-01  0.10898769013E+00 -0.10687815217E-01  0.13225769744E+00  0.20175993892E-01 0.  0.
         14    1    1    2    0    0  0.17811700343E-02 -0.10479337850E-02  0.22180648612E-01  0.22276712162E-01  0.00000000000E+00 0. -1.
     999901    1    3    3    0    0  0.69580456981E-01 -0.10793975634E+00 -0.11492833394E-01  0.88939559039E+00  0.88000000000E+00 0.  1.
        -11    1    4    4    0    0 -0.23693049775E-01  0.25735252731E-01 -0.97509843441E-02  0.36318131249E-01  0.51100000000E-03 0. -1.
         11    1    4    4    0    0 -0.47668577240E-01  0.83252437396E-01 -0.93683087321E-03  0.95939566195E-01  0.51100000000E-03 0.  1.
</event>
<event>
 8    1  0.1075206E+005  0.1043930E+01  0.7957747E-01            NaN
         13   -1    0    0    0    0  0.00000000000E+00  0.00000000000E+00  0.74505805969E-08  0.10566000000E+00  0.10566000000E+00 0. -1.
     999900   -1    0    0    0    0 -0.00000000000E+00 -0.00000000000E+00 -0.74505805969E-08  0.93827000000E+00  0.93827000000E+00 0. -1.
     999902    2    1    2    0    0  0.81891801575E-02 -0.17588177126E-01  0.14209785833E-01  0.10198816184E+01  0.10195980535E+01 0.  0.
     999903    2    3    3    0    0 -0.82648112228E-01  0.10332413234E-01  0.98721484372E-01  0.13073978476E+00  0.20235874714E-01 0.  0.
         14    1    1    2    0    0 -0.81891801575E-02  0.17588177126E-01 -0.14209785833E-01  0.24048381643E-01  0.00000000000E+00 0.  1.
     999901    1    3    3    0    0  0.90837292385E-01 -0.27920590360E-01 -0.84511698540E-01  0.88914183359E+00  0.88000000000E+00 0. -1.
        -11    1    4    4    0    0 -0.46394879619E-01  0.13854372320E-01  0.47026425937E-01  0.67499439588E-01  0.51100000000E-03 0.  1.
         11    1    4    4    0    0 -0.36253232609E-01 -0.35219590860E-02  0.51695058436E-01  0.63240345177E-01  0.51100000000E-03 0. -1.
</event>
<event>
 8    1  0.1075206E+005  0.1043930E+01  0.7957747E-01            NaN
         13   -1    0    0    0    0  0.00000000000E+00  0.00000000000E+00  0.74505805969E-08  0.10566000000E+00  0.10566000000E+00 0.  1.
     999900   -1    0    0    0    0 -0.00000000000E+00 -0.00000000000E+00 -0.74505805969E-08  0.93827000000E+00  0.93827000000E+00 0. -1.
     999902    2    1    2    0    0 -0.10324293200E-01 -0.20508416063E-01  0.86678839977E-02  0.10193878246E+01  0.10190923504E+01 0.  0.
     999903    2    3    3    0    0 -0.11735315066E+00 -0.34227275884E-01 -0.43413405859E-01  0.13126855098E+00  0.20085822972E-01 0.  0.
         14    1    1    2    0    0  0.10324293200E-01  0.20508416063E-01 -0.86678839977E-02  0.24542175382E-01  0.00000000000E+00 0. -1.
     999901    1    3    3    0    0  0.10702885746E+00  0.13718859821E-01  0.52081289856E-01  0.88811927363E+00  0.88000000000E+00 0.  1.
        -11    1    4    4    0    0 -0.33280632373E-01 -0.91251006895E-02 -0.22078040995E-01  0.40970342553E-01  0.51100000000E-03 0.  1.
         11    1    4    4    0    0 -0.84072518290E-01 -0.25102175194E-01 -0.21335364863E-01  0.90298208432E-01  0.51100000000E-03 0. -1.
</event>
<event>
 8    1  0.1075206E+005  0.1043930E+01  0.7957747E-01            NaN
         13   -1    0    0    0    0  0.00000000000E+00  0.00000000000E+00  0.74505805969E-08  0.10566000000E+00  0.10566000000E+00 0. -1.
     999900   -1    0    0    0    0 -0.00000000000E+00 -0.00000000000E+00 -0.74505805969E-08  0.93827000000E+00  0.93827000000E+00 0.  1.
     999902    2    1    2    0    0  0.14496242552E-01  0.17717433470E-01  0.14273131065E-02  0.10209934414E+01  0.10207357747E+01 0.  0.
     999903    2    3    3    0    0 -0.38138087748E-01 -0.59477917619E-01  0.10704261096E+00  0.12976727142E+00  0.19730376306E-01 0.  0.
         14    1    1    2    0    0 -0.14496242552E-01 -0.17717433470E-01 -0.14273131065E-02  0.22936558583E-01  0.00000000000E+00 0.  1.
     999901    1    3    3    0    0  0.52634330301E-01  0.77195351090E-01 -0.10561529785E+00  0.89122617000E+00  0.88000000000E+00 0. -1.
        -11    1    4    4    0    0 -0.12328736541E-01 -0.37345585694E-01  0.59048414398E-01  0.70948339511E-01  0.51100000000E-03 0. -1.
         11    1    4    4    0    0 -0.25809351207E-01 -0.22132331925E-01  0.47994196557E-01  0.58818931904E-01  0.51100000000E-03 0.  1.
</event>
<event>
 8    1  0.1075206E+005  0.1043930E+01  0.7957747E-01            NaN
         13   -1    0    0    0    0  0.00000000000E+00  0.00000000000E+00  0.74505805969E-08  0.10566000000E+00  0.10566000000E+00 0.  1.
     999900   -1    0    0    0    0 -0.00000000000E+00 -0.00000000000E+00 -0.74505805969E-08  0.93827000000E+00  0.93827000000E+00 0.  1.
     999902    2    1    2    0    0 -0.26263187882E-02  0.17158514252E-01  0.15471305191E-01  0.10206776142E+01  0.10204127198E+01 0.  0.
     999903    2    3    3    0    0 -0.28561123021E-01 -0.12389941168E+00 -0.68679072053E-02  0.12878692977E+00  0.19289975820E-01 0.  0.
         14    1    1    2    0    0  0.26263187882E-02 -0.17158514252E-01 -0.15471305191E-01  0.23252385813E-01  0.00000000000E+00 0. -1.
     999901    1    3    3    0    0  0.25934804233E-01  0.14105792593E+00  0.22339212396E-01  0.89189068442E+00  0.88000000000E+00 0. -1.
        -11    1    4    4    0    0  0.22057904651E-03 -0.36725102828E-01 -0.38861976465E-02  0.36934340200E-01  0.51100000000E-03 0. -1.
         11    1    4    4    0    0 -0.28781702067E-01 -0.87174308853E-01 -0.29817095588E-02  0.91852589570E-01  0.51100000000E-03 0.  1.
</event>
<event>
 8    1  0.1075206E+005  0.1043930E+01  0.7957747E-01            NaN
         13   -1    0    0    0    0  0.00000000000E+00  0.00000000000E+00  0.74505805969E-08  0.10566000000E+00  0.10566000000E+00 0. -1.
     999900   -1    0    0    0    0 -0.00000000000E+00 -0.00000000000E+00 -0.74505805969E-08  0.93827000000E+00  0.93827000000E+00 0. -1.
     999902    2    1    2    0    0  0.63231952148E-02 -0.13565773583E-01 -0.17859190484E-01  0.10206284186E+01  0.10203623891E+01 0.  0.
     999903    2    3    3    0    0  0.11038562440E+00 -0.46905084619E-02 -0.71494313269E-01  0.13283087080E+00  0.18044845874E-01 0.  0.
         14    1    1    2    0    0 -0.63231952148E-02  0.13565773583E-01  0.17859190484E-01  0.23301581392E-01  0.00000000000E+00 0. -1.
     999901    1    3    3    0    0 -0.10406242919E+00 -0.88752651215E-02  0.53635122785E-01  0.88779754781E+00  0.88000000000E+00 0.  1.
        -11    1    4    4    0    0  0.77558633423E-02 -0.51349847464E-02 -0.61334245215E-02  0.11153542123E-01  0.51100000000E-03 0.  1.
         11    1    4    4    0    0  0.10262976106E+00  0.44447628445E-03 -0.65360888747E-01  0.12167732868E+00  0.51100000000E-03 0. -1.
</event>
<event>
 8    1  0.1075206E+005  0.1043930E+01  0.7957747E-01            NaN
         13   -1    0    0    0    0  0.00000000000E+00  0.00000000000E+00  0.74505805969E-08  0.10566000000E+00  0.10566000000E+00 0. -1.
     999900   -1    0    0    0    0 -0.00000000000E+00 -0.00000000000E+00 -0.74505805969E-08  0.93827000000E+00  0.93827000000E+00 0.  1.
     999902    2    1    2    0    0  0.91488838590E-02 -0.13671384173E-01  0.15088310347E-01  0.10216081289E+01  0.10213642362E+01 0.  0.
     999903    2    3    3    0    0 -0.47115203998E-01 -0.78559069892E-01  0.95393309731E-01  0.13378779105E+00  0.20197019156E-01 0.  0.
         14    1    1    2    0    0 -0.91488838590E-02  0.13671384173E-01 -0.15088310347E-01  0.22321871118E-01  0.00000000000E+00 0.  1.
     999901    1    3    3    0    0  0.56264087857E-01  0.64887685718E-01 -0.80304999384E-01  0.88782033783E+00  0.88000000000E+00 0.  1.
        -11    1    4    4    0    0 -0.12216403353E-01 -0.30659546387E-01  0.23010961526E-01  0.40236970151E-01  0.51100000000E-03 0. -1.
         11    1    4    4    0    0 -0.34898800644E-01 -0.47899523504E-01  0.72382348205E-01  0.93550820900E-01  0.51100000000E-03 0.  1.
</event>
<event>
 8    1  0.1075206E+005  0.1043930E+01  0.7957747E-01            NaN
         13   -1    0    0    0    0  0.00000000000E+00  0.00000000000E+00  0.74505805969E-08  0.10566000000E+00  0.10566000000E+00 0.  1.
     999900   -1    0    0    0    0 -0.00000000000E+00 -0.00000000000E+00 -0.74505805969E-08  0.93827000000E+00  0.93827000000E+00 0. -1.
     999902    2    1    2    0    0  0.10421227144E-01 -0.22419006874E-02 -0.20975423711E-01  0.10204013686E+01  0.10201300685E+01 0.  0.
     999903    2    3    3    0    0  0.53410958476E-01  0.10725126247E+00 -0.51814087477E-01  0.13203889028E+00  0.19849561672E-01 0.  0.
         14    1    1    2    0    0 -0.10421227144E-01  0.22419006874E-02  0.20975423711E-01  0.23528631362E-01  0.00000000000E+00 0.  1.
     999901    1    3    3    0    0 -0.42989731332E-01 -0.10949316315E+00  0.30838663766E-01  0.88836247836E+00  0.88000000000E+00 0.  1.
        -11    1    4    4    0    0  0.10857018249E-01  0.11463288514E-01 -0.12304292161E-01  0.20023450137E-01  0.51100000000E-03 0. -1.
         11    1    4    4    0    0  0.42553940227E-01  0.95787973953E-01 -0.39509795316E-01  0.11201544014E+00  0.51100000000E-03 0.  1.
</event>
<event>
 8    1  0.1075206E+005  0.1043930E+01  0.7957747E-01            NaN
         13   -1    0    0    0    0  0.00000000000E+00  0.00000000000E+00  0.74505805969E-08  0.10566000000E+00  0.10566000000E+00 0. -1.
     999900   -1    0    0    0    0 -0.00000000000E+00 -0.00000000000E+00 -0.74505805969E-08  0.93827000000E+00  0.93827000000E+00 0.  1.
     999902    2    1    2    0    0 -0.19172650190E-02  0.17825857279E-01  0.15226238348E-01  0.10204081925E+01  0.10201370515E+01 0.  0.
     999903    2    3    3    0    0 -0.11812116105E+00 -0.43560689794E-01  0.28003075296E-01  0.13055713691E+00  0.20269469367E-01 0.  0.
         14    1    1    2    0    0  0.19172650191E-02 -0.17825857279E-01 -0.15226238348E-01  0.23521807479E-01  0.00000000000E+00 0.  1.
     999901    1    3    3    0    0  0.11620389603E+00  0.61386547073E-01 -0.12776836948E-01  0.88985105561E+00  0.88000000000E+00 0.  1.
        -11    1    4    4    0    0 -0.45612306526E-01 -0.27088799760E-01  0.90126592673E-02  0.53812403098E-01  0.51100000000E-03 0.  1.
         11    1    4    4    0    0 -0.72508854523E-01 -0.16471890034E-01  0.18990416028E-01  0.76744733810E-01  0.51100000000E-03 0. -1.
</event>
<event>
 8    1  0.1075206E+005  0.1043930E+01  0.7957747E-01            NaN
         13   -1    0    0    0    0  0.00000000000E+00  0.00000000000E+00  0.74505805969E-08  0.10566000000E+00  0.10566000000E+00 0.  1.
     999900   -1    0    0    0    0 -0.00000000000E+00 -0.00000000000E+00 -0.74505805969E-08  0.93827000000E+00  0.93827000000E+00 0. -1.
     999902    2    1    2    0    0  0.18663935342E-01  0.93063041718E-02 -0.99755070027E-02  0.10208115978E+01  0.10205497821E+01 0.  0.
     999903    2    3    3    0    0 -0.47447498532E-01 -0.11816115638E+00 -0.82987914561E-02  0.12917182382E+00  0.20078997356E-01 0.  0.
         14    1    1    2    0    0 -0.18663935342E-01 -0.93063041718E-02  0.99755070027E-02  0.23118402189E-01  0.00000000000E+00 0.  1.
     999901    1    3    3    0    0  0.66111433874E-01  0.12746746055E+00 -0.16767155467E-02  0.89163977399E+00  0.88000000000E+00 0. -1.
        -11    1    4    4    0    0 -0.21138473930E-01 -0.68753440581E-01 -0.12608278708E-01  0.73028080111E-01  0.51100000000E-03 0. -1.
         11    1    4    4    0    0 -0.26309024602E-01 -0.49407715801E-01  0.43094872523E-02  0.56143743708E-01  0.51100000000E-03 0.  1.
</event>
<event>
 8    1  0.1075206E+005  0.1043930E+01  0.7957747E-01            NaN
         13   -1    0    0    0    0  0.00000000000E+00  0.00000000000E+00  0.74505805969E-08  0.10566000000E+00  0.10566000000E+00 0. -1.
     999900   -1    0    0    0    0 -0.00000000000E+00 -0.00000000000E+00 -0.74505805969E-08  0.93827000000E+00  0.93827000000E+00 0.  1.
     999902    2    1    2    0    0  0.20388465151E-01 -0.10658579678E-01 -0.47568111923E-02  0.10204369780E+01  0.10201665079E+01 0.  0.
     999903    2    3    3    0    0 -0.10161856370E+00 -0.13246090138E-01 -0.75936338408E-01  0.12916881663E+00  0.20407457140E-01 0.  0.
         14    1    1    2    0    0 -0.20388465151E-01  0.10658579678E-01  0.47568111923E-02  0.23493022042E-01  0.00000000000E+00 0. -1.
     999901    1    3    3    0    0  0.12200702885E+00  0.25875104606E-02  0.71179527216E-01  0.89126816133E+00  0.88000000000E+00 0.  1.
        -11    1    4    4    0    0 -0.54698979252E-01 -0.14163343873E-01 -0.32300666603E-01  0.65085888062E-01  0.51100000000E-03 0. -1.
         11    1    4    4    0    0 -0.46919584447E-01  0.91725373490E-03 -0.43635671805E-01  0.64082928569E-01  0.51100000000E-03 0.  1.
</event>
<event>
 8    1  0.1075206E+005  0.1043930E+01  0.7957747E-01            NaN
         13   -1    0    0    0    0  0.00000000000E+00  0.00000000000E+00  0.74505805969E-08  0.10566000000E+00  0.10566000000E+00 0. -1.
     999900   -1    0    0    0    0 -0.00000000000E+00 -0.00000000000E+00 -0.74505805969E-08  0.93827000000E+00  0.93827000000E+00 0. -1.
     999902    2    1    2    0    0 -0.11049950382E-01  0.15851994880E-01  0.16960690682E-01  0.10182190651E+01  0.10178944014E+01 0.  0.
     999903    2    3    3    0    0 -0.11386252381E+00 -0.44260408188E-01 -0.35118859302E-01  0.12867074950E+00  0.19979225135E-01 0.  0.
         14    1    1    2    0    0  0.11049950382E-01 -0.15851994880E-01 -0.16960690682E-01  0.25710934902E-01  0.00000000000E+00 0.  1.
     999901    1    3    3    0    0  0.10281257343E+00  0.60112403067E-01  0.52079549984E-01  0.88954831560E+00  0.88000000000E+00 0.  1.
        -11    1    4    4    0    0 -0.18570173065E-01 -0.12398059103E-01 -0.12800666564E-01  0.25742598600E-01  0.51100000000E-03 0.  1.
         11    1    4    4    0    0 -0.95292350745E-01 -0.31862349084E-01 -0.22318192737E-01  0.10292815090E+00  0.51100000000E-03 0. -1.
</event>
<event>
 8    1  0.1075206E+005  0.1043930E+01  0.7957747E-01            NaN
         13   -1    0    0    0    0  0.00000000000E+00  0.00000000000E+00  0.74505805969E-08  0.10566000000E+00  0.10566000000E+00 0.  1.
     999900   -1    0    0    0    0 -0.00000000000E+00 -0.00000000000E+00 -0.74505805969E-08  0.93827000000E+00  0.93827000000E+00 0. -1.
     999902    2    1    2    0    0  0.24093633505E-01  0.14339561915E-02  0.76914985293E-02  0.10185978356E+01  0.10182827859E+01 0.  0.
     999903    2    3    3    0    0  0.52687723437E-01  0.11038211581E+00 -0.39891479060E-01  0.13014329917E+00  0.19640278131E-01 0.  0.
         14    1    1    2    0    0 -0.24093633505E-01 -0.14339561915E-02 -0.76914985293E-02  0.25332164445E-01  0.00000000000E+00 0. -1.
     999901    1    3    3    0    0 -0.28594089932E-01 -0.10894815962E+00  0.47582977589E-01  0.88845453638E+00  0.88000000000E+00 0.  1.
        -11    1    4    4    0    0  0.19136351683E-01  0.44460351989E-01 -0.59952429699E-02  0.48776294591E-01  0.51100000000E-03 0. -1.
         11    1    4    4    0    0  0.33551371754E-01  0.65921763825E-01 -0.33896236090E-01  0.81367004581E-01  0.51100000000E-03 0.  1.
</event>
<event>
 8    1  0.1075206E+005  0.1043930E+01  0.7957747E-01            NaN
         13   -1    0    0    0    0  0.00000000000E+00  0.00000000000E+00  0.74505805969E-08  0.10566000000E+00  0.10566000000E+00 0. -1.
     999900   -1    0    0    0    0 -0.00000000000E+00 -0.00000000000E+00 -0.74505805969E-08  0.93827000000E+00  0.93827000000E+00 0.  1.
     999902    2    1    2    0    0  0.10992134150E-01  0.87694026601E-02 -0.19079935996E-01  0.10202282407E+01  0.10199528860E+01 0.  0.
     999903    2    3    3    0    0  0.85788319492E-01  0.27418787021E-01  0.91293790137E-01  0.12998971744E+00  0.21244878910E-01 0.  0.
         14    1    1    2    0    0 -0.10992134150E-01 -0.87694026601E-02  0.19079935996E-01  0.23701759298E-01  0.00000000000E+00 0. -1.
     999901    1    3    3    0    0 -0.74796185341E-01 -0.18649384361E-01 -0.11037372613E+00  0.89023852326E+00  0.88000000000E+00 0.  1.
        -11    1    4    4    0    0  0.18703250659E-01  0.18153221436E-03  0.28799871659E-01  0.34344406644E-01  0.51100000000E-03 0.  1.
         11    1    4    4    0    0  0.67085068832E-01  0.27237254807E-01  0.62493918477E-01  0.95645310796E-01  0.51100000000E-03 0. -1.
</event>
<event>
 8    1  0.1075206E+005  0.1043930E+01  0.7957747E-01            NaN
         13   -1    0    0    0    0  0.00000000000E+00  0.00000000000E+00  0.74505805969E-08  0.10566000000E+00  0.10566000000E+00 0. -1.
     999900   -1    0    0    0    0 -0.00000000000E+00 -0.00000000000E+00 -0.74505805969E-08  0.93827000000E+00  0.93827000000E+00 0.  1.
     999902    2    1    2    0    0  0.10787899731E-01  0.13958286365E-01  0.15169897234E-01  0.10206633217E+01  0.10203980977E+01 0.  0.
     999903    2    3    3    0    0  0.10918397336E+00  0.41536144533E-01  0.61417698504E-01  0.13354372167E+00  0.20381377943E-01 0.  0.
         14    1    1    2    0    0 -0.10787899731E-01 -0.13958286365E-01 -0.15169897234E-01  0.23266678339E-01  0.00000000000E+00 0.  1.
     999901    1    3    3    0    0 -0.98396073628E-01 -0.27577858169E-01 -0.46247801270E-01  0.88711959999E+00  0.88000000000E+00 0.  1.
        -11    1    4    4    0    0  0.64364192911E-01  0.20116563543E-01  0.24894242468E-01  0.71884698559E-01  0.51100000000E-03 0.  1.
         11    1    4    4    0    0  0.44819780448E-01  0.21419580990E-01  0.36523456036E-01  0.61659023111E-01  0.51100000000E-03 0. -1.
</event>
<event>
 8    1  0.1075206E+005  0.1043930E+01  0.7957747E-01            NaN
         13   -1    0    0    0    0  0.00000000000E+00  0.00000000000E+00  0.74505805969E-08  0.10566000000E+00  0.10566000000E+00 0. -1.
     999900   -1    0    0    0    0 -0.00000000000E+00 -0.00000000000E+00 -0.74505805969E-08  0.93827000000E+00  0.93827000000E+00 0. -1.
     999902    2    1    2    0    0  0.44361709170E-02 -0.15777755407E-01 -0.80803249974E-02  0.10256568276E+01  0.10254940366E+01 0.  0.
     999903    2    3    3    0    0  0.57403026553E-01 -0.96150321825E-01 -0.74636738612E-01  0.13790968260E+00  0.30140437300E-01 0.  0.
         14    1    1    2    0    0 -0.44361709170E-02  0.15777755407E-01  0.80803249974E-02  0.18273172416E-01  0.00000000000E+00 0. -1.
     999901    1    3    3    0    0 -0.52966855636E-01  0.80372566419E-01  0.66556413614E-01  0.88774714498E+00  0.88000000000E+00 0. -1.
        -11    1    4    4    0    0  0.96878988223E-02 -0.44886459947E-01 -0.30398497698E-01  0.55072492712E-01  0.51100000000E-03 0.  1.
         11    1    4    4    0    0  0.47715127730E-01 -0.51263861878E-01 -0.44238240913E-01  0.82837189891E-01  0.51100000000E-03 0. -1.
</event>
<event>
 8    1  0.1075206E+005  0.1043930E+01  0.7957747E-01            NaN
         13   -1    0    0    0    0  0.00000000000E+00  0.00000000000E+00  0.74505805969E-08  0.10566000000E+00  0.10566000000E+00 0.  1.
     999900   -1    0    0    0    0 -0.00000000000E+00 -0.00000000000E+00 -0.74505805969E-08  0.93827000000E+00  0.93827000000E+00 0.  1.
     999902    2    1    2    0    0  0.20559453971E-01 -0.80755367022E-02  0.54342940426E-02  0.10211827586E+01  0.10209293753E+01 0.  0.
     999903    2    3    3    0    0 -0.72880724048E-01  0.40752393767E-01  0.97696462069E-01  0.13010052819E+00  0.20228474963E-01 0.  0.
         14    1    1    2    0    0 -0.20559453971E-01  0.80755367022E-02 -0.54342940426E-02  0.22747241423E-01  0.00000000000E+00 0. -1.
     999901    1    3    3    0    0  0.93440178018E-01 -0.48827930469E-01 -0.92262168026E-01  0.89108223039E+00  0.88000000000E+00 0. -1.
        -11    1    4    4    0    0 -0.42049096315E-01  0.16697756230E-01  0.39960571407E-01  0.60365966837E-01  0.51100000000E-03 0. -1.
         11    1    4    4    0    0 -0.30831627733E-01  0.24054637537E-01  0.57735890662E-01  0.69734561353E-01  0.51100000000E-03 0.  1.
</event>
<event>
 8    1  0.1075206E+005  0.1043930E+01  0.7957747E-01            NaN
         13   -1    0    0    0    0  0.00000000000E+00  0.00000000000E+00  0.74505805969E-08  0.10566000000E+00  0.10566000000E+00 0.  1.
     999900   -1    0    0    0    0 -0.00000000000E+00 -0.00000000000E+00 -0.74505805969E-08  0.93827000000E+00  0.93827000000E+00 0.  1.
     999902    2    1    2    0    0  0.13302503686E-01 -0.17545208400E-01 -0.12741213635E-01  0.10184912605E+01  0.10181735207E+01 0.  0.
     999903    2    3    3    0    0  0.55374578469E-02 -0.12025805004E+00  0.46217577081E-01  0.13052371449E+00  0.20191918558E-01 0.  0.
         14    1    1    2    0    0 -0.13302503686E-01  0.17545208400E-01  0.12741213635E-01  0.25438739493E-01  0.00000000000E+00 0.  1.
     999901    1    3    3    0    0  0.77650458393E-02  0.10271284164E+00 -0.58958790716E-01  0.88796754602E+00  0.88000000000E+00 0. -1.
        -11    1    4    4    0    0 -0.20780417492E-02 -0.30114376190E-01  0.32272681135E-02  0.30362316962E-01  0.51100000000E-03 0.  1.
         11    1    4    4    0    0  0.76154995961E-02 -0.90143673848E-01  0.42990308968E-01  0.10016139753E+00  0.51100000000E-03 0. -1.
</event>
<event>
 8    1  0.1075206E+005  0.1043930E+01  0.7957747E-01            NaN
         13   -1    0    0    0    0  0.00000000000E+00  0.00000000000E+00  0.74505805969E-08  0.10566000000E+00  0.10566000000E+00 0.  1.
     999900   -1    0    0    0    0 -0.00000000000E+00 -0.00000000000E+00 -0.74505805969E-08  0.93827000000E+00  0.93827000000E+00 0. -1.
     999902    2    1    2    0    0  0.86790188878E-02  0.22131954090E-01  0.94010132232E-02  0.10183658100E+01  0.10180448886E+01 0.  0.
     999903    2    3    3    0    0 -0.20737902698E-01 -0.98464329254E-02 -0.12356134952E+00  0.12731757201E+00  0.20379995044E-01 0.  0.
         14    1    1    2    0    0 -0.86790188878E-02 -0.22131954090E-01 -0.94010132232E-02  0.25564190000E-01  0.00000000000E+00 0. -1.
     999901    1    3    3    0    0  0.29416921586E-01  0.31978387016E-01  0.13296236275E+00  0.89104823799E+00  0.88000000000E+00 0.  1.
        -11    1    4    4    0    0 -0.11889637782E-01 -0.13874055585E-01 -0.10247420227E+00  0.10409167189E+00  0.51100000000E-03 0.  1.
         11    1    4    4    0    0 -0.88482649158E-02  0.40276226592E-02 -0.21087147250E-01  0.23225900121E-01  0.51100000000E-03 0. -1.
</event>
<event>
 8    1  0.1075206E+005  0.1043930E+01  0.7957747E-01            NaN
         13   -1    0    0    0    0  0.00000000000E+00  0.00000000000E+00  0.74505805969E-08  0.10566000000E+00  0.10566000000E+00 0.  1.
     999900   -1    0    0    0    0 -0.00000000000E+00 -0.00000000000E+00 -0.74505805969E-08  0.93827000000E+00  0.93827000000E+00 0. -1.
     999902    2    1    2    0    0 -0.80432074272E-02 -0.18931287442E-01 -0.13024696763E-01  0.10195839622E+01  0.10192932485E+01 0.  0.
     999903    2    3    3    0    0 -0.74923837841E-01 -0.79618540325E-01  0.69159070024E-01  0.13115268580E+00  0.21572125222E-01 0.  0.
         14    1    1    2    0    0  0.80432074272E-02  0.18931287442E-01  0.13024696763E-01  0.24346037782E-01  0.00000000000E+00 0.  1.
     999901    1    3    3    0    0  0.66880630414E-01  0.60687252884E-01 -0.82183766787E-01  0.88843127641E+00  0.88000000000E+00 0. -1.
        -11    1    4    4    0    0 -0.17810651928E-01 -0.31492802099E-01  0.16505325659E-01  0.39770627381E-01  0.51100000000E-03 0.  1.
         11    1    4    4    0    0 -0.57113185913E-01 -0.48125738226E-01  0.52653744365E-01  0.91382058423E-01  0.51100000000E-03 0. -1.
</event>
<event>
 8    1  0.1075206E+005  0.1043930E+01  0.7957747E-01            NaN
         13   -1    0    0    0    0  0.00000000000E+00  0.00000000000E+00  0.74505805969E-08  0.10566000000E+00  0.10566000000E+00 0.  1.
     999900   -1    0    0    0    0 -0.00000000000E+00 -0.00000000000E+00 -0.74505805969E-08  0.93827000000E+00  0.93827000000E+00 0. -1.
     999902    2    1    2    0    0 -0.67520873972E-02 -0.22908673262E-01  0.23772292837E-02  0.10199289747E+01  0.10196465389E+01 0.  0.
     999903    2    3    3    0    0  0.60079488417E-01 -0.42498751504E-01  0.10639009610E+00  0.13107077054E+00  0.21095154322E-01 0.  0.
         14    1    1    2    0    0  0.67520873972E-02  0.22908673262E-01 -0.23772292837E-02  0.24001025268E-01  0.00000000000E+00 0.  1.
     999901    1    3    3    0    0 -0.66831575814E-01  0.19590078242E-01 -0.10401286681E+00  0.88885820419E+00  0.88000000000E+00 0. -1.
        -11    1    4    4    0    0  0.45238925305E-01 -0.22060420436E-01  0.80164172232E-01  0.94656104628E-01  0.51100000000E-03 0. -1.
         11    1    4    4    0    0  0.14840563112E-01 -0.20438331067E-01  0.26225923863E-01  0.36414665916E-01  0.51100000000E-03 0.  1.
</event>
<event>
 8    1  0.1075206E+005  0.1043930E+01  0.7957747E-01            NaN
         13   -1    0    0    0    0  0.00000000000E+00  0.00000000000E+00  0.74505805969E-08  0.10566000000E+00  0.10566000000E+00 0. -1.
     999900   -1    0    0    0    0 -0.00000000000E+00 -0.00000000000E+00 -0.74505805969E-08  0.93827000000E+00  0.93827000000E+00 0.  1.
     999902    2    1    2    0    0  0.32968184780E-03  0.15450841766E-01  0.19891063483E-01  0.10187408831E+01  0.10184294258E+01 0.  0.
     999903    2    3    3    0    0  0.49187690530E-01  0.17498101046E-01 -0.11428640326E+00  0.12722818617E+00  0.20000423635E-01 0.  0.
         14    1    1    2    0    0 -0.32968184780E-03 -0.15450841766E-01 -0.19891063483E-01  0.25189116854E-01  0.00000000000E+00 0.  1.
     999901    1    3    3    0    0 -0.48858008683E-01 -0.20472592802E-02  0.13417746675E+00  0.89151269697E+00  0.88000000000E+00 0. -1.
        -11    1    4    4    0    0 -0.21196270660E-03 -0.20273737230E-03 -0.14255105288E-01  0.14267276488E-01  0.51100000000E-03 0.  1.
         11    1    4    4    0    0  0.49399653237E-01  0.17700838418E-01 -0.10003129798E+00  0.11296090968E+00  0.51100000000E-03 0. -1.
</event>
<event>
 8    1  0.1075206E+005  0.1043930E+01  0.7957747E-01            NaN
         13   -1    0    0    0    0  0.00000000000E+00  0.00000000000E+00  0.74505805969E-08  0.10566000000E+00  0.10566000000E+00 0. -1.
     999900   -1    0    0    0    0 -0.00000000000E+00 -0.00000000000E+00 -0.74505805969E-08  0.93827000000E+00  0.93827000000E+00 0.  1.
     999902    2    1    2    0    0 -0.25374544332E-02  0.64451881976E-02  0.23161134080E-01  0.10197552765E+01  0.10194686884E+01 0.  0.
     999903    2    3    3    0    0 -0.23549476019E-01 -0.39386281864E-01 -0.11667972051E+00  0.12728819399E+00  0.21960649613E-01 0.  0.
         14    1    1    2    0    0  0.25374544332E-02 -0.64451881976E-02 -0.23161134080E-01  0.24174723530E-01  0.00000000000E+00 0.  1.
     999901    1    3    3    0    0  0.21012021586E-01  0.45831470062E-01  0.13984085459E+00  0.89246708248E+00  0.88000000000E+00 0. -1.
        -11    1    4    4    0    0 -0.15805746823E-01 -0.37822381239E-01 -0.81512276740E-01  0.91240706571E-01  0.51100000000E-03 0.  1.
         11    1    4    4    0    0 -0.77437291962E-02 -0.15639006253E-02 -0.35167443768E-01  0.36047487419E-01  0.51100000000E-03 0. -1.
</event>
<event>
 8    1  0.1075206E+005  0.1043930E+01  0.7957747E-01            NaN
         13   -1    0    0    0    0  0.00000000000E+00  0.00000000000E+00  0.74505805969E-08  0.10566000000E+00  0.10566000000E+00 0.  1.
     999900   -1    0    0    0    0 -0.00000000000E+00 -0.00000000000E+00 -0.74505805969E-08  0.93827000000E+00  0.93827000000E+00 0. -1.
     999902    2    1    2    0    0 -0.17133155121E-02 -0.24119196880E-01 -0.18725418030E-03  0.10197493017E+01  0.10194625702E+01 0.  0.
     999903    2    3    3    0    0  0.50255501434E-01 -0.11762349222E+00 -0.32606965512E-01  0.13267836376E+00  0.13395247793E-01 0.  0.
         14    1    1    2    0    0  0.17133155121E-02  0.24119196880E-01  0.18725418030E-03  0.24180698342E-01  0.00000000000E+00 0. -1.
     999901    1    3    3    0    0 -0.51968816946E-01  0.93504295340E-01  0.32419711332E-01  0.88707093790E+00  0.88000000000E+00 0. -1.
        -11    1    4    4    0    0  0.33308107543E-01 -0.86559140346E-01 -0.18470591223E-01  0.94569226849E-01  0.51100000000E-03 0. -1.
         11    1    4    4    0    0  0.16947393891E-01 -0.31064351874E-01 -0.14136374289E-01  0.38109136910E-01  0.51100000000E-03 0.  1.
</event>
<event>
 8    1  0.1075206E+005  0.1043930E+01  0.7957747E-01            NaN
         13   -1    0    0    0    0  0.00000000000E+00  0.00000000000E+00  0.74505805969E-08  0.10566000000E+00  0.10566000000E+00 0. -1.
     999900   -1    0    0    0    0 -0.00000000000E+00 -0.00000000000E+00 -0.74505805969E-08  0.93827000000E+00  0.93827000000E+00 0. -1.
     999902    2    1    2    0    0 -0.21075998561E-01  0.14153110832E-02 -0.10281864803E-01  0.10204370742E+01  0.10201666064E+01 0.  0.
     999903    2    3    3    0    0  0.59445100074E-02 -0.36030099820E-01 -0.12506763552E+00  0.13178188803E+00  0.19774915062E-01 0.  0.
         14    1    1    2    0    0  0.21075998561E-01 -0.14153110832E-02  0.10281864803E-01  0.23492925842E-01  0.00000000000E+00 0. -1.
     999901    1    3    3    0    0 -0.27020508568E-01  0.37445410903E-01  0.11478577071E+00  0.88865518613E+00  0.88000000000E+00 0.  1.
        -11    1    4    4    0    0 -0.42476904283E-02 -0.28317752968E-01 -0.90504718971E-01  0.94927884650E-01  0.51100000000E-03 0.  1.
         11    1    4    4    0    0  0.10192200436E-01 -0.77123468520E-02 -0.34562916545E-01  0.36854003376E-01  0.51100000000E-03 0. -1.
</event>
<event>
 8    1  0.1075206E+005  0.1043930E+01  0.7957747E-01            NaN
         13   -1    0    0    0    0  0.00000000000E+00  0.00000000000E+00  0.74505805969E-08  0.10566000000E+00  0.10566000000E+00 0. -1.
     999900   -1    0    0    0    0 -0.00000000000E+00 -0.00000000000E+00 -0.74505805969E-08  0.93827000000E+00  0.93827000000E+00 0.  1.
     999902    2    1    2    0    0 -0.19187002792E-02  0.21545135144E-01 -0.69258053733E-02  0.10212178658E+01  0.10209652729E+01 0.  0.
     999903    2    3    3    0    0 -0.53591680783E-01 -0.85629008126E-01  0.77985506986E-01  0.12916051067E+00  0.19907358827E-01 0.  0.
         14    1    1    2    0    0  0.19187002792E-02 -0.21545135144E-01  0.69258053733E-02  0.22712134184E-01  0.00000000000E+00 0. -1.
     999901    1    3    3    0    0  0.51672980504E-01  0.10717414327E+00 -0.84911312359E-01  0.89205735514E+00  0.88000000000E+00 0.  1.
        -11    1    4    4    0    0 -0.40699481230E-01 -0.56681158791E-01  0.43055582353E-01  0.81995401255E-01  0.51100000000E-03 0. -1.
         11    1    4    4    0    0 -0.12892199554E-01 -0.28947849335E-01  0.34929924633E-01  0.47165109417E-01  0.51100000000E-03 0.  1.
</event>
<event>
 8    1  0.1075206E+005  0.1043930E+01  0.7957747E-01            NaN
         13   -1    0    0    0    0  0.00000000000E+00  0.00000000000E+00  0.74505805969E-08  0.10566000000E+00  0.10566000000E+00 0. -1.
     999900   -1    0    0    0    0 -0.00000000000E+00 -0.00000000000E+00 -0.74505805969E-08  0.93827000000E+00  0.93827000000E+00 0. -1.
     999902    2    1    2    0    0  0.17951006015E-01  0.15094092581E-02 -0.16086761260E-01  0.10197783785E+01  0.10194923445E+01 0.  0.
     999903    2    3    3    0    0 -0.25456923937E-01 -0.11992733102E+00  0.34901127681E-01  0.12891874023E+00  0.19270006960E-01 0.  0.
         14    1    1    2    0    0 -0.17951006015E-01 -0.15094092581E-02  0.16086761260E-01  0.24151621500E-01  0.00000000000E+00 0. -1.
     999901    1    3    3    0    0  0.43407929952E-01  0.12143674028E+00 -0.50987888941E-01  0.89085963827E+00  0.88000000000E+00 0. -1.
        -11    1    4    4    0    0 -0.11212961095E-01 -0.33094342806E-01  0.18022151457E-01  0.39319525511E-01  0.51100000000E-03 0.  1.
         11    1    4    4    0    0 -0.14243962842E-01 -0.86832988214E-01  0.16878976224E-01  0.89599214723E-01  0.51100000000E-03 0. -1.
</event>
<event>
 8    1  0.1075206E+005  0.1043930E+01  0.7957747E-01            NaN
         13   -1    0    0    0    0  0.00000000000E+00  0.00000000000E+00  0.74505805969E-08  0.10566000000E+00  0.10566000000E+00 0. -1.
     999900   -1    0    0    0    0 -0.00000000000E+00 -0.00000000000E+00 -0.74505805969E-08  0.93827000000E+00  0.93827000000E+00 0.  1.
     999902    2    1    2    0    0  0.22147504494E-01 -0.61993251783E-02  0.89023325731E-02  0.10192683879E+01  0.10189699953E+01 0.  0.
     999903    2    3    3    0    0  0.53540818714E-01 -0.10338945791E+00  0.58936096063E-01  0.13194948264E+00  0.19524427644E-01 0.  0.
         14    1    1    2    0    0 -0.22147504494E-01  0.61993251783E-02 -0.89023325731E-02  0.24661612138E-01  0.00000000000E+00 0.  1.
     999901    1    3    3    0    0 -0.31393314220E-01  0.97190132728E-01 -0.50033763490E-01  0.88731890522E+00  0.88000000000E+00 0.  1.
        -11    1    4    4    0    0  0.22709805455E-01 -0.50543159932E-01  0.17719598484E-01  0.58177242726E-01  0.51100000000E-03 0. -1.
         11    1    4    4    0    0  0.30831013260E-01 -0.52846297974E-01  0.41216497579E-01  0.73772239914E-01  0.51100000000E-03 0.  1.
</event>
<event>
 8    1  0.1075206E+005  0.1043930E+01  0.7957747E-01            NaN
         13   -1    0    0    0    0  0.00000000000E+00  0.00000000000E+00  0.74505805969E-08  0.10566000000E+00  0.10566000000E+00 0. -1.
     999900   -1    0    0    0    0 -0.00000000000E+00 -0.00000000000E+00 -0.74505805969E-08  0.93827000000E+00  0.93827000000E+00 0.  1.
     999902    2    1    2    0    0 -0.47194462346E-03 -0.19866401041E-01 -0.13234370757E-01  0.10200543808E+01  0.10197749235E+01 0.  0.
     999903    2    3    3    0    0 -0.63113900239E-01 -0.11495597855E+00  0.14946042756E-03  0.13261696370E+00  0.19722964145E-01 0.  0.
         14    1    1    2    0    0  0.47194462346E-03  0.19866401041E-01  0.13234370757E-01  0.23875619183E-01  0.00000000000E+00 0.  1.
     999901    1    3    3    0    0  0.62641955616E-01  0.95089577513E-01 -0.13383831184E-01  0.88743741711E+00  0.88000000000E+00 0.  1.
        -11    1    4    4    0    0 -0.18136587118E-01 -0.44689296232E-01 -0.76012764365E-02  0.48827343921E-01  0.51100000000E-03 0.  1.
         11    1    4    4    0    0 -0.44977313121E-01 -0.70266682323E-01  0.77507368641E-02  0.83789619782E-01  0.51100000000E-03 0. -1.
</event>
<event>
 8    1  0.1075206E+005  0.1043930E+01  0.7957747E-01            NaN
         13   -1    0    0    0    0  0.00000000000E+00  0.00000000000E+00  0.74505805969E-08  0.10566000000E+00  0.10566000000E+00 0.  1.
     999900   -1    0    0    0    0 -0.00000000000E+00 -0.00000000000E+00 -0.74505805969E-08  0.93827000000E+00  0.93827000000E+00 0. -1.
     999902    2    1    2    0    0  0.17643668011E-01 -0.60915115762E-03 -0.15203132932E-01  0.10206318169E+01  0.10203658659E+01 0.  0.
     999903    2    3    3    0    0 -0.77659946848E-01  0.86637609361E-01 -0.55210342345E-01  0.13029741170E+00  0.19801285173E-01 0.  0.
         14    1    1    2    0    0 -0.17643668011E-01  0.60915115762E-03  0.15203132932E-01  0.23298183126E-01  0.00000000000E+00 0.  1.
     999901    1    3    3    0    0  0.95303614859E-01 -0.87246760518E-01  0.40007209413E-01  0.89033440517E+00  0.88000000000E+00 0.  1.
        -11    1    4    4    0    0 -0.27303597081E-01  0.33187773574E-01 -0.10226916202E-01  0.44178792020E-01  0.51100000000E-03 0. -1.
         11    1    4    4    0    0 -0.50356349767E-01  0.53449835786E-01 -0.44983426144E-01  0.86118619683E-01  0.51100000000E-03 0.  1.
</event>
<event>
 8    1  0.1075206E+005  0.1043930E+01  0.7957747E-01            NaN
         13   -1    0    0    0    0  0.00000000000E+00  0.00000000000E+00  0.74505805969E-08  0.10566000000E+00  0.10566000000E+00 0. -1.
     999900   -1    0    0    0    0 -0.00000000000E+00 -0.00000000000E+00 -0.74505805969E-08  0.93827000000E+00  0.93827000000E+00 0. -1.
     999902    2    1    2    0    0 -0.12925855867E-01  0.19538120933E-01  0.57496750063E-03  0.10204961248E+01  0.10202270307E+01 0.  0.
     999903    2    3    3    0    0 -0.93268999556E-01  0.90757385598E-01 -0.12731923947E-01  0.13387090648E+00  0.28693351058E-01 0.  0.
         14    1    1    2    0    0  0.12925855867E-01 -0.19538120933E-01 -0.57496750063E-03  0.23433875205E-01  0.00000000000E+00 0.  1.
     999901    1    3    3    0    0  0.80343143689E-01 -0.71219264664E-01  0.13306891448E-01  0.88662521832E+00  0.88000000000E+00 0.  1.
        -11    1    4    4    0    0 -0.65489996642E-01  0.78705352552E-01 -0.45089456388E-02  0.10248933550E+00  0.51100000000E-03 0.  1.
         11    1    4    4    0    0 -0.27779002914E-01  0.12052033046E-01 -0.82229783086E-02  0.31381570972E-01  0.51100000000E-03 0. -1.
</event>
<event>
 8    1  0.1075206E+005  0.1043930E+01  0.7957747E-01            NaN
         13   -1    0    0    0    0  0.00000000000E+00  0.00000000000E+00  0.74505805969E-08  0.10566000000E+00  0.10566000000E+00 0. -1.
     999900   -1    0    0    0    0 -0.00000000000E+00 -0.00000000000E+00 -0.74505805969E-08  0.93827000000E+00  0.93827000000E+00 0.  1.
     999902    2    1    2    0    0 -0.39902631988E-02  0.23467920186E-01 -0.27475127377E-02  0.10199672309E+01  0.10196857054E+01 0.  0.
     999903    2    3    3    0    0 -0.23808731644E-01  0.10577702215E+00 -0.74075485560E-01  0.13303135964E+00  0.21319731924E-01 0.  0.
         14    1    1    2    0    0  0.39902631988E-02 -0.23467920186E-01  0.27475127377E-02  0.23962769132E-01  0.00000000000E+00 0.  1.
     999901    1    3    3    0    0  0.19818468445E-01 -0.82309101968E-01  0.71327972822E-01  0.88693587122E+00  0.88000000000E+00 0.  1.
        -11    1    4    4    0    0 -0.46186156701E-02  0.19621336104E-01 -0.24721383681E-01  0.31901980712E-01  0.51100000000E-03 0. -1.
         11    1    4    4    0    0 -0.19190115974E-01  0.86155686050E-01 -0.49354101879E-01  0.10112937893E+00  0.51100000000E-03 0.  1.
</event>
<event>
 8    1  0.1075206E+005  0.1043930E+01  0.7957747E-01            NaN
         13   -1    0    0    0    0  0.00000000000E+00  0.00000000000E+00  0.74505805969E-08  0.10566000000E+00  0.10566000000E+00 0.  1.
     999900   -1    0    0    0    0 -0.00000000000E+00 -0.00000000000E+00 -0.74505805969E-08  0.93827000000E+00  0.93827000000E+00 0.  1.
     999902    2    1    2    0    0  0.20998035929E-01  0.52133269240E-02 -0.93335596664E-02  0.10203670709E+01  0.10200949700E+01 0.  0.
     999903    2    3    3    0    0  0.51547269896E-01 -0.25040272022E-01  0.11555531641E+00  0.13050990974E+00  0.19891433666E-01 0.  0.
         14    1    1    2    0    0 -0.20998035929E-01 -0.52133269240E-02  0.93335596664E-02  0.23562929074E-01  0.00000000000E+00 0.  1.
     999901    1    3    3    0    0 -0.30549233967E-01  0.30253598946E-01 -0.12488887608E+00  0.88985716119E+00  0.88000000000E+00 0.  1.
        -11    1    4    4    0    0  0.27651388629E-01 -0.11718274252E-01  0.81275987208E-01  0.86648511021E-01  0.51100000000E-03 0. -1.
         11    1    4    4    0    0  0.23895881267E-01 -0.13321997770E-01  0.34279329202E-01  0.43861398720E-01  0.51100000000E-03 0.  1.
</event>
<event>
 8    1  0.1075206E+005  0.1043930E+01  0.7957747E-01            NaN
         13   -1    0    0    0    0  0.00000000000E+00  0.00000000000E+00  0.74505805969E-08  0.10566000000E+00  0.10566000000E+00 0. -1.
     999900   -1    0    0    0    0 -0.00000000000E+00 -0.00000000000E+00 -0.74505805969E-08  0.93827000000E+00  0.93827000000E+00 0.  1.
     999902    2    1    2    0    0 -0.27617601702E-02  0.16846704242E-02 -0.23795770503E-01  0.10199153352E+01  0.10196325744E+01 0.  0.
     999903    2    3    3    0    0 -0.11906793432E+00 -0.47964439217E-01 -0.13443122651E-01  0.13081503848E+00  0.21309536189E-01 0.  0.
         14    1    1    2    0    0  0.27617601702E-02 -0.16846704242E-02  0.23795770503E-01  0.24014664843E-01  0.00000000000E+00 0. -1.
     999901    1    3    3    0    0  0.11630617415E+00  0.49649109641E-01 -0.10352647852E-01  0.88910029668E+00  0.88000000000E+00 0. -1.
        -11    1    4    4    0    0 -0.57373828543E-01 -0.11883184115E-01 -0.79741054811E-02  0.59133862935E-01  0.51100000000E-03 0. -1.
         11    1    4    4    0    0 -0.61694105780E-01 -0.36081255102E-01 -0.54690171698E-02  0.71681175545E-01  0.51100000000E-03 0.  1.
</event>
<event>
 8    1  0.1075206E+005  0.1043930E+01  0.7957747E-01            NaN
         13   -1    0    0    0    0  0.00000000000E+00  0.00000000000E+00  0.74505805969E-08  0.10566000000E+00  0.10566000000E+00 0.  1.
     999900   -1    0    0    0    0 -0.00000000000E+00 -0.00000000000E+00 -0.74505805969E-08  0.93827000000E+00  0.93827000000E+00 0. -1.
     999902    2    1    2    0    0 -0.67651722647E-02 -0.19474644213E-01  0.10178416600E-01  0.10209380560E+01  0.10206791292E+01 0.  0.
     999903    2    3    3    0    0 -0.37538895836E-01 -0.12245603777E+00  0.33990929441E-01  0.13407886470E+00  0.20423241349E-01 0.  0.
         14    1    1    2    0    0  0.67651722647E-02  0.19474644213E-01 -0.10178416600E-01  0.22991943969E-01  0.00000000000E+00 0. -1.
     999901    1    3    3    0    0  0.30773723572E-01  0.10298139356E+00 -0.23812512841E-01  0.88685919133E+00  0.88000000000E+00 0. -1.
        -11    1    4    4    0    0 -0.22092589677E-01 -0.39527689535E-01  0.99827949694E-02  0.46372816121E-01  0.51100000000E-03 0.  1.
         11    1    4    4    0    0 -0.15446306160E-01 -0.82928348238E-01  0.24008134471E-01  0.87706048578E-01  0.51100000000E-03 0. -1.
</event>
<event>
 8    1  0.1075206E+005  0.1043930E+01  0.7957747E-01            NaN
         13   -1    0    0    0    0  0.00000000000E+00  0.00000000000E+00  0.74505805969E-08  0.10566000000E+00  0.10566000000E+00 0. -1.
     999900   -1    0    0    0    0 -0.00000000000E+00 -0.00000000000E+00 -0.74505805969E-08  0.93827000000E+00  0.93827000000E+00 0. -1.
     999902    2    1    2    0    0 -0.24957995161E-02 -0.35519697196E-02 -0.23428318299E-01  0.10201028809E+01  0.10198245712E+01 0.  0.
     999903    2    3    3    0    0  0.11596322943E+00  0.28297438120E-01 -0.50817478132E-01  0.13117257299E+00  0.19380718188E-01 0.  0.
         14    1    1    2    0    0  0.24957995161E-02  0.35519697196E-02  0.23428318299E-01  0.23827119055E-01  0.00000000000E+00 0. -1.
     999901    1    3    3    0    0 -0.11845902895E+00 -0.31849407840E-01  0.27389159833E-01  0.88893030795E+00  0.88000000000E+00 0.  1.
        -11    1    4    4    0    0  0.18603201550E-01  0.11592485476E-01 -0.62396573219E-02  0.22796036320E-01  0.51100000000E-03 0.  1.
         11    1    4    4    0    0  0.97360027883E-01  0.16704952644E-01 -0.44577820810E-01  0.10837653667E+00  0.51100000000E-03 0. -1.
</event>
<event>
 8    1  0.1075206E+005  0.1043930E+01  0.7957747E-01            NaN
         13   -1    0    0    0    0  0.00000000000E+00  0.00000000000E+00  0.74505805969E-08  0.10566000000E+00  0.10566000000E+00 0.  1.
     999900   -1    0    0    0    0 -0.00000000000E+00 -0.00000000000E+00 -0.74505805969E-08  0.93827000000E+00  0.93827000000E+00 0.  1.
     999902    2    1    2    0    0  0.31876461535E-01 -0.95721510079E-02 -0.10470169129E-01  0.10090393234E+01  0.10084359160E+01 0.  0.
     999903    2    3    3    0    0  0.24724771325E-01  0.64590352049E-01  0.96372833491E-01  0.11945141273E+00  0.14060194612E-01 0.  0.
         14    1    1    2    0    0 -0.31876461535E-01  0.95721510079E-02  0.10470169129E-01  0.34890676642E-01  0.00000000000E+00 0.  1.
     999901    1    3    3    0    0  0.71516902101E-02 -0.74162503057E-01 -0.10684300262E+00  0.88958791063E+00  0.88000000000E+00 0.  1.
        -11    1    4    4    0    0  0.16091399235E-01  0.40787267651E-01  0.49159367670E-01  0.65874417512E-01  0.51100000000E-03 0. -1.
         11    1    4    4    0    0  0.86333720902E-02  0.23803084398E-01  0.47213465821E-01  0.53576995215E-01  0.51100000000E-03 0.  1.
</event>
<event>
 8    1  0.1075206E+005  0.1043930E+01  0.7957747E-01            NaN
         13   -1    0    0    0    0  0.00000000000E+00  0.00000000000E+00  0.74505805969E-08  0.10566000000E+00  0.10566000000E+00 0.  1.
     999900   -1    0    0    0    0 -0.00000000000E+00 -0.00000000000E+00 -0.74505805969E-08  0.93827000000E+00  0.93827000000E+00 0.  1.
     999902    2    1    2    0    0  0.21832934004E-01 -0.46973939094E-02  0.10418308358E-01  0.10192868739E+01  0.10189889340E+01 0.  0.
     999903    2    3    3    0    0 -0.10725874647E+00 -0.55206409100E-01  0.36707159971E-01  0.12804789003E+00  0.22285875532E-01 0.  0.
         14    1    1    2    0    0 -0.21832934004E-01  0.46973939094E-02 -0.10418308358E-01  0.24643126137E-01  0.00000000000E+00 0. -1.
     999901    1    3    3    0    0  0.12909168047E+00  0.50509015191E-01 -0.26288851613E-01  0.89123898383E+00  0.88000000000E+00 0. -1.
        -11    1    4    4    0    0 -0.22713975450E-01 -0.16361435747E-01 -0.75564238438E-04  0.27998001561E-01  0.51100000000E-03 0. -1.
         11    1    4    4    0    0 -0.84544771019E-01 -0.38844973353E-01  0.36782724210E-01  0.10004988847E+00  0.51100000000E-03 0.  1.
</event>
<event>
 8    1  0.1075206E+005  0.1043930E+01  0.7957747E-01            NaN
         13   -1    0    0    0    0  0.00000000000E+00  0.00000000000E+00  0.74505805969E-08  0.10566000000E+00  0.10566000000E+00 0. -1.
     999900   -1    0    0    0    0 -0.00000000000E+00 -0.00000000000E+00 -0.74505805969E-08  0.93827000000E+00  0.93827000000E+00 0. -1.
     999902    2    1    2    0    0  0.12688604112E-01 -0.10821292289E-01  0.20267446674E-01  0.10176836586E+01  0.10173451521E+01 0.  0.
     999903    2    3    3    0    0  0.30603494256E-01 -0.12496822632E+00  0.41881057390E-02  0.12998494225E+00  0.18025358043E-01 0.  0.
         14    1    1    2    0    0 -0.12688604112E-01  0.10821292289E-01 -0.20267446674E-01  0.26246341379E-01  0.00000000000E+00 0.  1.
     999901    1    3    3    0    0 -0.17914890144E-01  0.11414693403E+00  0.16079340935E-01  0.88769871637E+00  0.88000000000E+00 0. -1.
        -11    1    4    4    0    0  0.55100923429E-02 -0.44344959874E-01 -0.53513735153E-02  0.45008164852E-01  0.51100000000E-03 0. -1.
         11    1    4    4    0    0  0.25093401914E-01 -0.80623266445E-01  0.95394792542E-02  0.84976777400E-01  0.51100000000E-03 0.  1.
</event>
<event>
 8    1  0.1075206E+005  0.1043930E+01  0.7957747E-01            NaN
         13   -1    0    0    0    0  0.00000000000E+00  0.00000000000E+00  0.74505805969E-08  0.10566000000E+00  0.10566000000E+00 0.  1.
     999900   -1    0    0    0    0 -0.00000000000E+00 -0.00000000000E+00 -0.74505805969E-08  0.93827000000E+00  0.93827000000E+00 0. -1.
     999902    2    1    2    0    0 -0.33359047536E-02  0.61612354494E-02  0.22469755059E-01  0.10203932420E+01  0.10201217523E+01 0.  0.
     999903    2    3    3    0    0  0.31708527245E-01 -0.10254454805E+00  0.73499835381E-01  0.13154616370E+00  0.19528244895E-01 0.  0.
         14    1    1    2    0    0  0.33359047536E-02 -0.61612354494E-02 -0.22469755059E-01  0.23536757959E-01  0.00000000000E+00 0. -1.
     999901    1    3    3    0    0 -0.35044431998E-01  0.10870578350E+00 -0.51030080321E-01  0.88884707834E+00  0.88000000000E+00 0. -1.
        -11    1    4    4    0    0  0.14037038368E-01 -0.72403667833E-01  0.44513512870E-01  0.86145478760E-01  0.51100000000E-03 0. -1.
         11    1    4    4    0    0  0.17671488877E-01 -0.30140880214E-01  0.28986322511E-01  0.45400684939E-01  0.51100000000E-03 0.  1.
</event>
<event>
 7    1  0.1075206E+005  0.1043930E+01  0.7957747E-01            NaN
         13   -1    0    0    0    0  0.00000000000E+00  0.00000000000E+00  0.74505805969E-08  0.10566000000E+00  0.10566000000E+00 0. -1.
     999900   -1    0    0    0    0 -0.00000000000E+00 -0.00000000000E+00 -0.74505805969E-08  0.93827000000E+00  0.93827000000E+00 0. -1.
     999903    2    1    2    0    0 -0.11033917557E+00 -0.11974593942E-01 -0.22736470036E-01  0.11503422094E+00  0.19944933032E-01 0.  0.
         14    1    1    2    0    0 -0.12603715528E-01 -0.21679824949E-01  0.30746063570E-01  0.39676049198E-01  0.00000000000E+00 0. -1.
     999901    1    1    2    0    0  0.12294289109E+00  0.33654418891E-01 -0.80095935342E-02  0.88921972986E+00  0.88000000000E+00 0. -1.
        -11    1    3    3    0    0 -0.10931332617E+00 -0.92338655709E-02 -0.22862689016E-01  0.11206083714E+00  0.51100000000E-03 0. -1.
         11    1    3    3    0    0 -0.10258493989E-02 -0.27407283710E-02  0.12621898070E-03  0.29733838003E-02  0.51100000000E-03 0.  1.
</event>
<event>
 8    1  0.1075206E+005  0.1043930E+01  0.7957747E-01            NaN
         13   -1    0    0    0    0  0.00000000000E+00  0.00000000000E+00  0.74505805969E-08  0.10566000000E+00  0.10566000000E+00 0. -1.
     999900   -1    0    0    0    0 -0.00000000000E+00 -0.00000000000E+00 -0.74505805969E-08  0.93827000000E+00  0.93827000000E+00 0.  1.
     999902    2    1    2    0    0 -0.16096037426E-01  0.72381709635E-02  0.15748514486E-01  0.10202764749E+01  0.10200022530E+01 0.  0.
     999903    2    3    3    0    0 -0.94075930006E-01 -0.14319865346E-02  0.92463904015E-01  0.13346122570E+00  0.20248309247E-01 0.  0.
         14    1    1    2    0    0  0.16096037426E-01 -0.72381709635E-02 -0.15748514486E-01  0.23653525070E-01  0.00000000000E+00 0.  1.
     999901    1    3    3    0    0  0.77979892580E-01  0.86701574982E-02 -0.76715389529E-01  0.88681524923E+00  0.88000000000E+00 0.  1.
        -11    1    4    4    0    0 -0.29088173813E-01  0.69998743783E-03  0.42262114134E-01  0.51312369369E-01  0.51100000000E-03 0.  1.
         11    1    4    4    0    0 -0.64987756193E-01 -0.21319739724E-02  0.50201789881E-01  0.82148856330E-01  0.51100000000E-03 0. -1.
</event>
<event>
 8    1  0.1075206E+005  0.1043930E+01  0.7957747E-01            NaN
         13   -1    0    0    0    0  0.00000000000E+00  0.00000000000E+00  0.74505805969E-08  0.10566000000E+00  0.10566000000E+00 0.  1.
     999900   -1    0    0    0    0 -0.00000000000E+00 -0.00000000000E+00 -0.74505805969E-08  0.93827000000E+00  0.93827000000E+00 0. -1.
     999902    2    1    2    0    0  0.20384441413E-01  0.11882917948E-01 -0.42335562301E-02  0.10199580958E+01  0.10196763531E+01 0.  0.
     999903    2    3    3    0    0  0.42084724613E-01  0.51532218138E-02  0.12192289359E+00  0.13067094259E+00  0.20298362362E-01 0.  0.
         14    1    1    2    0    0 -0.20384441413E-01 -0.11882917948E-01  0.42335562301E-02  0.23971904160E-01  0.00000000000E+00 0.  1.
     999901    1    3    3    0    0 -0.21700283200E-01  0.67296961342E-02 -0.12615644982E+00  0.88928715325E+00  0.88000000000E+00 0. -1.
        -11    1    4    4    0    0 -0.31188861056E-03  0.51776393664E-03  0.22142794327E-01  0.22156936061E-01  0.51100000000E-03 0. -1.
         11    1    4    4    0    0  0.42396613224E-01  0.46354578771E-02  0.99780099268E-01  0.10851400653E+00  0.51100000000E-03 0.  1.
</event>
<event>
 8    1  0.1075206E+005  0.1043930E+01  0.7957747E-01            NaN
         13   -1    0    0    0    0  0.00000000000E+00  0.00000000000E+00  0.74505805969E-08  0.10566000000E+00  0.10566000000E+00 0. -1.
     999900   -1    0    0    0    0 -0.00000000000E+00 -0.00000000000E+00 -0.74505805969E-08  0.93827000000E+00  0.93827000000E+00 0.  1.
     999902    2    1    2    0    0  0.51965539575E-02  0.23649333154E-01 -0.11910047990E-01  0.10169458496E+01  0.10165877810E+01 0.  0.
     999903    2    3    3    0    0  0.44783705452E-01  0.12061971196E+00  0.88446035727E-02  0.13049159102E+00  0.19877955835E-01 0.  0.
         14    1    1    2    0    0 -0.51965539575E-02 -0.23649333154E-01  0.11910047990E-01  0.26984150437E-01  0.00000000000E+00 0. -1.
     999901    1    3    3    0    0 -0.39587151495E-01 -0.96970378802E-01 -0.20754651563E-01  0.88645425854E+00  0.88000000000E+00 0.  1.
        -11    1    4    4    0    0  0.75830760843E-02  0.46272567191E-01  0.61610776146E-04  0.46892626651E-01  0.51100000000E-03 0. -1.
         11    1    4    4    0    0  0.37200629368E-01  0.74347144765E-01  0.87829927965E-02  0.83598964369E-01  0.51100000000E-03 0.  1.
</event>
<event>
 8    1  0.1075206E+005  0.1043930E+01  0.7957747E-01            NaN
         13   -1    0    0    0    0  0.00000000000E+00  0.00000000000E+00  0.74505805969E-08  0.10566000000E+00  0.10566000000E+00 0.  1.
     999900   -1    0    0    0    0 -0.00000000000E+00 -0.00000000000E+00 -0.74505805969E-08  0.93827000000E+00  0.93827000000E+00 0. -1.
     999902    2    1    2    0    0  0.15674888853E-01  0.16684670594E-02  0.17486086825E-01  0.10203875032E+01  0.10201158795E+01 0.  0.
     999903    2    3    3    0    0 -0.69251340053E-01  0.10640954911E+00  0.18754129889E-01  0.13011520410E+00  0.21436154218E-01 0.  0.
         14    1    1    2    0    0 -0.15674888853E-01 -0.16684670594E-02 -0.17486086825E-01  0.23542496795E-01  0.00000000000E+00 0.  1.
     999901    1    3    3    0    0  0.84926228907E-01 -0.10474108205E+00 -0.12680430641E-02  0.89027229911E+00  0.88000000000E+00 0. -1.
        -11    1    4    4    0    0 -0.17623005430E-01  0.26064579201E-01 -0.45873782924E-02  0.31799964936E-01  0.51100000000E-03 0.  1.
         11    1    4    4    0    0 -0.51628334623E-01  0.80344969912E-01  0.23341508182E-01  0.98315239161E-01  0.51100000000E-03 0. -1.
</event>
<event>
 8    1  0.1075206E+005  0.1043930E+01  0.7957747E-01            NaN
         13   -1    0    0    0    0  0.00000000000E+00  0.00000000000E+00  0.74505805969E-08  0.10566000000E+00  0.10566000000E+00 0. -1.
     999900   -1    0    0    0    0 -0.00000000000E+00 -0.00000000000E+00 -0.74505805969E-08  0.93827000000E+00  0.93827000000E+00 0. -1.
     999902    2    1    2    0    0  0.14479259308E-02  0.25432888631E-01 -0.77605974598E-02  0.10173000322E+01  0.10169514247E+01 0.  0.
     999903    2    3    3    0    0  0.12614622770E+00 -0.59392477049E-02  0.10993891618E-02  0.12791126635E+00  0.20296255244E-01 0.  0.
         14    1    1    2    0    0 -0.14479259308E-02 -0.25432888631E-01  0.77605974598E-02  0.26629967828E-01  0.00000000000E+00 0. -1.
     999901    1    3    3    0    0 -0.12469830177E+00  0.31372136336E-01 -0.88599866215E-02  0.88938876582E+00  0.88000000000E+00 0.  1.
        -11    1    4    4    0    0  0.18395787571E-01  0.21417282254E-02 -0.63892066617E-02  0.19597833628E-01  0.51100000000E-03 0. -1.
         11    1    4    4    0    0  0.10775044013E+00 -0.80809759303E-02  0.74885958234E-02  0.10831343272E+00  0.51100000000E-03 0.  1.
</event>
<event>
 8    1  0.1075206E+005  0.1043930E+01  0.7957747E-01            NaN
         13   -1    0    0    0    0  0.00000000000E+00  0.00000000000E+00  0.74505805969E-08  0.10566000000E+00  0.10566000000E+00 0.  1.
     999900   -1    0    0    0    0 -0.00000000000E+00 -0.00000000000E+00 -0.74505805969E-08  0.93827000000E+00  0.93827000000E+00 0.  1.
     999902    2    1    2    0    0 -0.20116042496E-01  0.40135726380E-02 -0.10707875750E-01  0.10207908009E+01  0.10205285085E+01 0.  0.
     999903    2    3    3    0    0 -0.11814382107E+00  0.52607021937E-01  0.24872764710E-01  0.13330178653E+00  0.20621606473E-01 0.  0.
         14    1    1    2    0    0  0.20116042496E-01 -0.40135726380E-02  0.10707875750E-01  0.23139199080E-01  0.00000000000E+00 0. -1.
     999901    1    3    3    0    0  0.98027778575E-01 -0.48593449299E-01 -0.35580640460E-01  0.88748901439E+00  0.88000000000E+00 0.  1.
        -11    1    4    4    0    0 -0.81708174198E-01  0.30874124563E-01  0.82618551162E-02  0.87738000144E-01  0.51100000000E-03 0.  1.
         11    1    4    4    0    0 -0.36435646872E-01  0.21732897373E-01  0.16610909594E-01  0.45563786386E-01  0.51100000000E-03 0. -1.
</event>
<event>
 8    1  0.1075206E+005  0.1043930E+01  0.7957747E-01            NaN
         13   -1    0    0    0    0  0.00000000000E+00  0.00000000000E+00  0.74505805969E-08  0.10566000000E+00  0.10566000000E+00 0.  1.
     999900   -1    0    0    0    0 -0.00000000000E+00 -0.00000000000E+00 -0.74505805969E-08  0.93827000000E+00  0.93827000000E+00 0. -1.
     999902    2    1    2    0    0  0.79272560540E-02 -0.11429178760E-01 -0.19005129653E-01  0.10203787268E+01  0.10201068982E+01 0.  0.
     999903    2    3    3    0    0  0.93254403701E-01 -0.51405377023E-01 -0.77954713845E-01  0.13338725446E+00  0.19399114525E-01 0.  0.
         14    1    1    2    0    0 -0.79272560540E-02  0.11429178760E-01  0.19005129653E-01  0.23551273188E-01  0.00000000000E+00 0.  1.
     999901    1    3    3    0    0 -0.85327147647E-01  0.39976198264E-01  0.58949584193E-01  0.88699147235E+00  0.88000000000E+00 0.  1.
        -11    1    4    4    0    0  0.40722975174E-01 -0.23682161356E-01 -0.46406795885E-01  0.66129095706E-01  0.51100000000E-03 0. -1.
         11    1    4    4    0    0  0.52531428527E-01 -0.27723215667E-01 -0.31547917960E-01  0.67258158751E-01  0.51100000000E-03 0.  1.
</event>
<event>
 8    1  0.1075206E+005  0.1043930E+01  0.7957747E-01            NaN
         13   -1    0    0    0    0  0.00000000000E+00  0.00000000000E+00  0.74505805969E-08  0.10566000000E+00  0.10566000000E+00 0.  1.
     999900   -1    0    0    0    0 -0.00000000000E+00 -0.00000000000E+00 -0.74505805969E-08  0.93827000000E+00  0.93827000000E+00 0. -1.
     999902    2    1    2    0    0 -0.81367375519E-02  0.20021638501E-01  0.59109655688E-02  0.10215243753E+01  0.10212786286E+01 0.  0.
     999903    2    3    3    0    0 -0.16889793570E-01  0.20735902748E-01 -0.12716557124E+00  0.13147578624E+00  0.19988923616E-01 0.  0.
         14    1    1    2    0    0  0.81367375519E-02 -0.20021638501E-01 -0.59109655688E-02  0.22405624745E-01  0.00000000000E+00 0. -1.
     999901    1    3    3    0    0  0.87530560185E-02 -0.71426424634E-03  0.13307653681E+00  0.89004858902E+00  0.88000000000E+00 0.  1.
        -11    1    4    4    0    0 -0.15120059604E-01  0.39262261264E-02 -0.75921016857E-01  0.77513181948E-01  0.51100000000E-03 0.  1.
         11    1    4    4    0    0 -0.17697339664E-02  0.16809676621E-01 -0.51244554386E-01  0.53962604289E-01  0.51100000000E-03 0. -1.
</event>
<event>
 8    1  0.1075206E+005  0.1043930E+01  0.7957747E-01            NaN
         13   -1    0    0    0    0  0.00000000000E+00  0.00000000000E+00  0.74505805969E-08  0.10566000000E+00  0.10566000000E+00 0. -1.
     999900   -1    0    0    0    0 -0.00000000000E+00 -0.00000000000E+00 -0.74505805969E-08  0.93827000000E+00  0.93827000000E+00 0. -1.
     999902    2    1    2    0    0 -0.24325611284E-01 -0.52341244611E-02 -0.15049540657E-03  0.10190471932E+01  0.10187433573E+01 0.  0.
     999903    2    3    3    0    0  0.25569863440E-01 -0.41503976613E-01  0.11784117128E+00  0.12903197204E+00  0.19654774659E-01 0.  0.
         14    1    1    2    0    0  0.24325611284E-01  0.52341244611E-02  0.15049540657E-03  0.24882806756E-01  0.00000000000E+00 0. -1.
     999901    1    3    3    0    0 -0.49895474724E-01  0.36269852152E-01 -0.11799166669E+00  0.89001522121E+00  0.88000000000E+00 0. -1.
        -11    1    4    4    0    0  0.76042096194E-02 -0.10083598290E-01  0.13061466021E-01  0.18175972437E-01  0.51100000000E-03 0.  1.
         11    1    4    4    0    0  0.17965653820E-01 -0.31420378323E-01  0.10477970526E+00  0.11085599960E+00  0.51100000000E-03 0. -1.
</event>
<event>
 8    1  0.1075206E+005  0.1043930E+01  0.7957747E-01            NaN
         13   -1    0    0    0    0  0.00000000000E+00  0.00000000000E+00  0.74505805969E-08  0.10566000000E+00  0.10566000000E+00 0. -1.
     999900   -1    0    0    0    0 -0.00000000000E+00 -0.00000000000E+00 -0.74505805969E-08  0.93827000000E+00  0.93827000000E+00 0.  1.
     999902    2    1    2    0    0  0.37485502153E-02 -0.10983354718E-01  0.19695329307E-01  0.10210697352E+01  0.10208137991E+01 0.  0.
     999903    2    3    3    0    0  0.72671123430E-01  0.22669494258E-01 -0.10273631281E+00  0.12928930129E+00  0.19130481094E-01 0.  0.
         14    1    1    2    0    0 -0.37485502153E-02  0.10983354718E-01 -0.19695329307E-01  0.22860264786E-01  0.00000000000E+00 0.  1.
     999901    1    3    3    0    0 -0.68922573215E-01 -0.33652848977E-01  0.12243164212E+00  0.89178043393E+00  0.88000000000E+00 0. -1.
        -11    1    4    4    0    0  0.27072548666E-01  0.15490198417E-01 -0.52460507809E-01  0.61034704381E-01  0.51100000000E-03 0. -1.
         11    1    4    4    0    0  0.45598574764E-01  0.71792958413E-02 -0.50275805002E-01  0.68254596906E-01  0.51100000000E-03 0.  1.
</event>
<event>
 8    1  0.1075206E+005  0.1043930E+01  0.7957747E-01            NaN
         13   -1    0    0    0    0  0.00000000000E+00  0.00000000000E+00  0.74505805969E-08  0.10566000000E+00  0.10566000000E+00 0. -1.
     999900   -1    0    0    0    0 -0.00000000000E+00 -0.00000000000E+00 -0.74505805969E-08  0.93827000000E+00  0.93827000000E+00 0. -1.
     999902    2    1    2    0    0 -0.87643376567E-02  0.88964224320E-03 -0.22431760607E-01  0.10198304365E+01  0.10195456489E+01 0.  0.
     999903    2    3    3    0    0 -0.31152082819E-01 -0.11410327899E+00  0.48204462941E-01  0.12926092255E+00  0.19867191823E-01 0.  0.
         14    1    1    2    0    0  0.87643376567E-02 -0.88964224320E-03  0.22431760607E-01  0.24099563519E-01  0.00000000000E+00 0. -1.
     999901    1    3    3    0    0  0.22387745163E-01  0.11499292123E+00 -0.70636223548E-01  0.89056951393E+00  0.88000000000E+00 0. -1.
        -11    1    4    4    0    0 -0.29262086586E-01 -0.10038392299E+00  0.48799055467E-01  0.11538982035E+00  0.51100000000E-03 0.  1.
         11    1    4    4    0    0 -0.18899962329E-02 -0.13719356002E-01 -0.59459252620E-03  0.13871102197E-01  0.51100000000E-03 0. -1.
</event>
<event>
 8    1  0.1075206E+005  0.1043930E+01  0.7957747E-01            NaN
         13   -1    0    0    0    0  0.00000000000E+00  0.00000000000E+00  0.74505805969E-08  0.10566000000E+00  0.10566000000E+00 0.  1.
     999900   -1    0    0    0    0 -0.00000000000E+00 -0.00000000000E+00 -0.74505805969E-08  0.93827000000E+00  0.93827000000E+00 0.  1.
     999902    2    1    2    0    0  0.72944982979E-02 -0.15871124160E-01 -0.16346469624E-01  0.10200070120E+01  0.10197264315E+01 0.  0.
     999903    2    3    3    0    0  0.36008667599E-01  0.10685432802E-01  0.12110015716E+00  0.12847948605E+00  0.20758797099E-01 0.  0.
         14    1    1    2    0    0 -0.72944982979E-02  0.15871124160E-01  0.16346469624E-01  0.23922988039E-01  0.00000000000E+00 0. -1.
     999901    1    3    3    0    0 -0.28714169301E-01 -0.26556556962E-01 -0.13744662678E+00  0.89152752591E+00  0.88000000000E+00 0.  1.
        -11    1    4    4    0    0  0.71660904502E-02 -0.27595966044E-02  0.84935781315E-02  0.11461684703E-01  0.51100000000E-03 0. -1.
         11    1    4    4    0    0  0.28842577148E-01  0.13445029406E-01  0.11260657903E+00  0.11701780135E+00  0.51100000000E-03 0.  1.
</event>
<event>
 8    1  0.1075206E+005  0.1043930E+01  0.7957747E-01            NaN
         13   -1    0    0    0    0  0.00000000000E+00  0.00000000000E+00  0.74505805969E-08  0.10566000000E+00  0.10566000000E+00 0. -1.
     999900   -1    0    0    0    0 -0.00000000000E+00 -0.00000000000E+00 -0.74505805969E-08  0.93827000000E+00  0.93827000000E+00 0. -1.
     999902    2    1    2    0    0  0.12400393121E-01  0.82738750278E-02 -0.18128724093E-01  0.10204592225E+01  0.10201892704E+01 0.  0.
     999903    2    3    3    0    0 -0.46375138357E-01 -0.63451618469E-01 -0.10366964343E+00  0.13146183311E+00  0.18922400819E-01 0.  0.
         14    1    1    2    0    0 -0.12400393121E-01 -0.82738750278E-02  0.18128724093E-01  0.23470777464E-01  0.00000000000E+00 0. -1.
     999901    1    3    3    0    0  0.58775531478E-01  0.71725493497E-01  0.85540919337E-01  0.88899738942E+00  0.88000000000E+00 0.  1.
        -11    1    4    4    0    0 -0.93952675068E-02 -0.13361580716E-01 -0.35826948122E-01  0.39378093193E-01  0.51100000000E-03 0.  1.
         11    1    4    4    0    0 -0.36979870850E-01 -0.50090037753E-01 -0.67842695308E-01  0.92083739921E-01  0.51100000000E-03 0. -1.
</event>
<event>
 8    1  0.1075206E+005  0.1043930E+01  0.7957747E-01            NaN
         13   -1    0    0    0    0  0.00000000000E+00  0.00000000000E+00  0.74505805969E-08  0.10566000000E+00  0.10566000000E+00 0.  1.
     999900   -1    0    0    0    0 -0.00000000000E+00 -0.00000000000E+00 -0.74505805969E-08  0.93827000000E+00  0.93827000000E+00 0. -1.
     999902    2    1    2    0    0  0.21421939600E-01  0.63977244162E-02 -0.65262329658E-02  0.10206400431E+01  0.10203742821E+01 0.  0.
     999903    2    3    3    0    0 -0.68132374256E-01 -0.10514838564E+00  0.21622430674E-01  0.12864516812E+00  0.19591997006E-01 0.  0.
         14    1    1    2    0    0 -0.21421939600E-01 -0.63977244162E-02  0.65262329658E-02  0.23289956862E-01  0.00000000000E+00 0. -1.
     999901    1    3    3    0    0  0.89554313856E-01  0.11154611006E+00 -0.28148663640E-01  0.89199487502E+00  0.88000000000E+00 0. -1.
        -11    1    4    4    0    0 -0.45160199509E-01 -0.52031655069E-01  0.13416002318E-01  0.70192499515E-01  0.51100000000E-03 0.  1.
         11    1    4    4    0    0 -0.22972174747E-01 -0.53116730572E-01  0.82064283565E-02  0.58452668601E-01  0.51100000000E-03 0. -1.
</event>
<event>
 8    1  0.1075206E+005  0.1043930E+01  0.7957747E-01            NaN
         13   -1    0    0    0    0  0.00000000000E+00  0.00000000000E+00  0.74505805969E-08  0.10566000000E+00  0.10566000000E+00 0. -1.
     999900   -1    0    0    0    0 -0.00000000000E+00 -0.00000000000E+00 -0.74505805969E-08  0.93827000000E+00  0.93827000000E+00 0. -1.
     999902    2    1    2    0    0 -0.77550791713E-02  0.11557052702E-01  0.22653483463E-01  0.10173426528E+01  0.10169951751E+01 0.  0.
     999903    2    3    3    0    0 -0.74931478899E-02 -0.12472386716E+00  0.32328430386E-02  0.12664084014E+00  0.20377949217E-01 0.  0.
         14    1    1    2    0    0  0.77550791713E-02 -0.11557052702E-01 -0.22653483463E-01  0.26587347238E-01  0.00000000000E+00 0. -1.
     999901    1    3    3    0    0 -0.26193128139E-03  0.13628091986E+00  0.19420640425E-01  0.89070181262E+00  0.88000000000E+00 0.  1.
        -11    1    4    4    0    0  0.39495817697E-02 -0.77047608486E-01 -0.30280267469E-02  0.77209864891E-01  0.51100000000E-03 0. -1.
         11    1    4    4    0    0 -0.11442729660E-01 -0.47676258672E-01  0.62608697855E-02  0.49430975254E-01  0.51100000000E-03 0.  1.
</event>
<event>
 8    1  0.1075206E+005  0.1043930E+01  0.7957747E-01            NaN
         13   -1    0    0    0    0  0.00000000000E+00  0.00000000000E+00  0.74505805969E-08  0.10566000000E+00  0.10566000000E+00 0. -1.
     999900   -1    0    0    0    0 -0.00000000000E+00 -0.00000000000E+00 -0.74505805969E-08  0.93827000000E+00  0.93827000000E+00 0.  1.
     999902    2    1    2    0    0  0.21764293388E-01  0.36747334023E-02 -0.34182950415E-02  0.10215945378E+01  0.10213503447E+01 0.  0.
     999903    2    3    3    0    0  0.86499723971E-01  0.92216693732E-01 -0.39876820272E-01  0.13403632628E+00  0.19734617246E-01 0.  0.
         14    1    1    2    0    0 -0.21764293388E-01 -0.36747334023E-02  0.34182950415E-02  0.22335462235E-01  0.00000000000E+00 0. -1.
     999901    1    3    3    0    0 -0.64735430583E-01 -0.88541960330E-01  0.36458525230E-01  0.88755821148E+00  0.88000000000E+00 0.  1.
        -11    1    4    4    0    0  0.54105099504E-01  0.65658150820E-01 -0.18767368191E-01  0.87125368242E-01  0.51100000000E-03 0.  1.
         11    1    4    4    0    0  0.32394624467E-01  0.26558542912E-01 -0.21109452080E-01  0.46910958038E-01  0.51100000000E-03 0. -1.
</event>
<event>
 8    1  0.1156594E+005  0.1043930E+01  0.7957747E-01            NaN
         13   -1    0    0    0    0  0.00000000000E+00  0.00000000000E+00  0.74505805969E-08  0.10566000000E+00  0.10566000000E+00 0. -1.
     999900   -1    0    0    0    0 -0.00000000000E+00 -0.00000000000E+00 -0.74505805969E-08  0.93827000000E+00  0.93827000000E+00 0. -1.
     999902    2    1    2    0    0 -0.65664706216E-02 -0.13385386920E-01  0.19127533204E-01  0.10196782032E+01  0.10193897628E+01 0.  0.
     999903    2    3    3    0    0  0.92520389483E-01 -0.84456214628E-01  0.31297472297E-01  0.13118657368E+00  0.23184276593E-01 0.  0.
         14    1    1    2    0    0  0.65664706216E-02  0.13385386920E-01 -0.19127533204E-01  0.24251796756E-01  0.00000000000E+00 0.  1.
     999901    1    3    3    0    0 -0.99086860105E-01  0.71070827707E-01 -0.12169939094E-01  0.88849162957E+00  0.88000000000E+00 0.  1.
        -11    1    4    4    0    0  0.40047974887E-01 -0.51500926747E-01  0.12451616937E-01  0.66419045715E-01  0.51100000000E-03 0. -1.
         11    1    4    4    0    0  0.52472414596E-01 -0.32955287880E-01  0.18845855360E-01  0.64767527960E-01  0.51100000000E-03 0.  1.
</event>
<event>
 8    1  0.1075206E+005  0.1043930E+01  0.7957747E-01            NaN
         13   -1    0    0    0    0  0.00000000000E+00  0.00000000000E+00  0.74505805969E-08  0.10566000000E+00  0.10566000000E+00 0.  1.
     999900   -1    0    0    0    0 -0.00000000000E+00 -0.00000000000E+00 -0.74505805969E-08  0.93827000000E+00  0.93827000000E+00 0. -1.
     999902    2    1    2    0    0 -0.26789072398E-01  0.12348492517E-01  0.14761065682E-01  0.10109447195E+01  0.10104064515E+01 0.  0.
     999903    2    3    3    0    0  0.42787757824E-01  0.14947800292E-01 -0.10872102172E+00  0.11959993910E+00  0.20728143077E-01 0.  0.
         14    1    1    2    0    0  0.26789072398E-01 -0.12348492517E-01 -0.14761065682E-01  0.32985280467E-01  0.00000000000E+00 0. -1.
     999901    1    3    3    0    0 -0.69576830222E-01 -0.25993077756E-02  0.12348208740E+00  0.89134478044E+00  0.88000000000E+00 0.  1.
        -11    1    4    4    0    0  0.26098650193E-01  0.18004904671E-01 -0.57843881307E-01  0.65965838582E-01  0.51100000000E-03 0.  1.
         11    1    4    4    0    0  0.16689107630E-01 -0.30571043788E-02 -0.50877140410E-01  0.53634100514E-01  0.51100000000E-03 0. -1.
</event>
<event>
 8    1  0.1075206E+005  0.1043930E+01  0.7957747E-01            NaN
         13   -1    0    0    0    0  0.00000000000E+00  0.00000000000E+00  0.74505805969E-08  0.10566000000E+00  0.10566000000E+00 0.  1.
     999900   -1    0    0    0    0 -0.00000000000E+00 -0.00000000000E+00 -0.74505805969E-08  0.93827000000E+00  0.93827000000E+00 0.  1.
     999902    2    1    2    0    0  0.64852206121E-02  0.19134140409E-01  0.13043226144E-01  0.10198821485E+01  0.10195985963E+01 0.  0.
     999903    2    3    3    0    0 -0.59630658878E-01  0.28237712037E-02  0.11517188580E+00  0.13136225516E+00  0.20680658581E-01 0.  0.
         14    1    1    2    0    0 -0.64852206121E-02 -0.19134140409E-01 -0.13043226144E-01  0.24047851543E-01  0.00000000000E+00 0. -1.
     999901    1    3    3    0    0  0.66115879490E-01  0.16310369206E-01 -0.10212865966E+00  0.88851989330E+00  0.88000000000E+00 0. -1.
        -11    1    4    4    0    0 -0.15313663358E-01 -0.82805317154E-02  0.34642781911E-01  0.38774462607E-01  0.51100000000E-03 0.  1.
         11    1    4    4    0    0 -0.44316995520E-01  0.11104302919E-01  0.80529103890E-01  0.92587792551E-01  0.51100000000E-03 0. -1.
</event>
<event>
 8    1  0.1075206E+005  0.1043930E+01  0.7957747E-01            NaN
         13   -1    0    0    0    0  0.00000000000E+00  0.00000000000E+00  0.74505805969E-08  0.10566000000E+00  0.10566000000E+00 0.  1.
     999900   -1    0    0    0    0 -0.00000000000E+00 -0.00000000000E+00 -0.74505805969E-08  0.93827000000E+00  0.93827000000E+00 0.  1.
     999902    2    1    2    0    0  0.51827896200E-02  0.62744955668E-02  0.22311705894E-01  0.10201804143E+01  0.10199039341E+01 0.  0.
     999903    2    3    3    0    0  0.12218266338E+00 -0.38752285897E-01  0.20088161514E-01  0.13129272413E+00  0.20097320343E-01 0.  0.
         14    1    1    2    0    0 -0.51827896200E-02 -0.62744955668E-02 -0.22311705894E-01  0.23749585739E-01  0.00000000000E+00 0. -1.
     999901    1    3    3    0    0 -0.11699987376E+00  0.45026781464E-01  0.22235443805E-02  0.88888769013E+00  0.88000000000E+00 0.  1.
        -11    1    4    4    0    0  0.18576145147E-01 -0.85865362605E-02  0.10365461629E-01  0.22945711784E-01  0.51100000000E-03 0.  1.
         11    1    4    4    0    0  0.10360651823E+00 -0.30165749636E-01  0.97226998852E-02  0.10834701235E+00  0.51100000000E-03 0. -1.
</event>
<event>
 8    1  0.1075206E+005  0.1043930E+01  0.7957747E-01            NaN
         13   -1    0    0    0    0  0.00000000000E+00  0.00000000000E+00  0.74505805969E-08  0.10566000000E+00  0.10566000000E+00 0.  1.
     999900   -1    0    0    0    0 -0.00000000000E+00 -0.00000000000E+00 -0.74505805969E-08  0.93827000000E+00  0.93827000000E+00 0.  1.
     999902    2    1    2    0    0 -0.75412558301E-02 -0.13634809574E-01  0.18366618387E-01  0.10198445014E+01  0.10195600501E+01 0.  0.
     999903    2    3    3    0    0  0.59123850280E-01  0.20900283837E-01  0.11403491359E+00  0.13148121324E+00  0.18732228424E-01 0.  0.
         14    1    1    2    0    0  0.75412558301E-02  0.13634809574E-01 -0.18366618387E-01  0.24085498595E-01  0.00000000000E+00 0. -1.
     999901    1    3    3    0    0 -0.66665106110E-01 -0.34535093411E-01 -0.95668295202E-01  0.88836328816E+00  0.88000000000E+00 0.  1.
        -11    1    4    4    0    0  0.52864081333E-01  0.21796539839E-01  0.10996257627E+00  0.12394244449E+00  0.51100000000E-03 0. -1.
         11    1    4    4    0    0  0.62597689469E-02 -0.89625600251E-03  0.40723373155E-02  0.75387687524E-02  0.51100000000E-03 0.  1.
</event>
<event>
 8    1  0.1075206E+005  0.1043930E+01  0.7957747E-01            NaN
         13   -1    0    0    0    0  0.00000000000E+00  0.00000000000E+00  0.74505805969E-08  0.10566000000E+00  0.10566000000E+00 0.  1.
     999900   -1    0    0    0    0 -0.00000000000E+00 -0.00000000000E+00 -0.74505805969E-08  0.93827000000E+00  0.93827000000E+00 0. -1.
     999902    2    1    2    0    0 -0.24375403749E-01  0.58238135747E-03 -0.80439043398E-02  0.10182550341E+01  0.10179312897E+01 0.  0.
     999903    2    3    3    0    0  0.71500217066E-01 -0.10032892501E+00 -0.24826023731E-01  0.12715634938E+00  0.19345063916E-01 0.  0.
         14    1    1    2    0    0  0.24375403749E-01 -0.58238135747E-03  0.80439043398E-02  0.25674965881E-01  0.00000000000E+00 0.  1.
     999901    1    3    3    0    0 -0.95875620815E-01  0.10091130637E+00  0.16782119392E-01  0.89109868474E+00  0.88000000000E+00 0.  1.
        -11    1    4    4    0    0  0.63248081103E-01 -0.85885616479E-01 -0.14687912734E-01  0.10766919143E+00  0.51100000000E-03 0.  1.
         11    1    4    4    0    0  0.82521359634E-02 -0.14443308532E-01 -0.10138110997E-01  0.19487157949E-01  0.51100000000E-03 0. -1.
</event>
<event>
 8    1  0.1075206E+005  0.1043930E+01  0.7957747E-01            NaN
         13   -1    0    0    0    0  0.00000000000E+00  0.00000000000E+00  0.74505805969E-08  0.10566000000E+00  0.10566000000E+00 0. -1.
     999900   -1    0    0    0    0 -0.00000000000E+00 -0.00000000000E+00 -0.74505805969E-08  0.93827000000E+00  0.93827000000E+00 0. -1.
     999902    2    1    2    0    0 -0.23467679717E-01 -0.17589267887E-02  0.11241540546E-02  0.10203696618E+01  0.10200976214E+01 0.  0.
     999903    2    3    3    0    0 -0.10429683533E+00  0.28872061162E-01 -0.74502894560E-01  0.13290638913E+00  0.20049967538E-01 0.  0.
         14    1    1    2    0    0  0.23467679717E-01  0.17589267887E-02 -0.11241540546E-02  0.23560338221E-01  0.00000000000E+00 0. -1.
     999901    1    3    3    0    0  0.80829155611E-01 -0.30630987950E-01  0.75627048615E-01  0.88746327265E+00  0.88000000000E+00 0.  1.
        -11    1    4    4    0    0 -0.83774542633E-01  0.29182235849E-01 -0.53813749359E-01  0.10375913272E+00  0.51100000000E-03 0.  1.
         11    1    4    4    0    0 -0.20522292696E-01 -0.31017468725E-03 -0.20689145201E-01  0.29147256406E-01  0.51100000000E-03 0. -1.
</event>
<event>
 8    1  0.1075206E+005  0.1043930E+01  0.7957747E-01            NaN
         13   -1    0    0    0    0  0.00000000000E+00  0.00000000000E+00  0.74505805969E-08  0.10566000000E+00  0.10566000000E+00 0.  1.
     999900   -1    0    0    0    0 -0.00000000000E+00 -0.00000000000E+00 -0.74505805969E-08  0.93827000000E+00  0.93827000000E+00 0.  1.
     999902    2    1    2    0    0  0.21641382289E-01 -0.77907405482E-02 -0.13600170562E-02  0.10208888474E+01  0.10206287984E+01 0.  0.
     999903    2    3    3    0    0 -0.21640797198E-01  0.27701157636E-01 -0.12406134587E+00  0.13061437402E+00  0.20813911805E-01 0.  0.
         14    1    1    2    0    0 -0.21641382289E-01  0.77907405482E-02  0.13600170562E-02  0.23041152577E-01  0.00000000000E+00 0.  1.
     999901    1    3    3    0    0  0.43282179487E-01 -0.35491898185E-01  0.12270132881E+00  0.89027447340E+00  0.88000000000E+00 0. -1.
        -11    1    4    4    0    0 -0.70796200769E-02  0.20547027061E-01 -0.45928318183E-01  0.50813117141E-01  0.51100000000E-03 0.  1.
         11    1    4    4    0    0 -0.14561177121E-01  0.71541305756E-02 -0.78133027686E-01  0.79801256881E-01  0.51100000000E-03 0. -1.
</event>
<event>
 8    1  0.1075206E+005  0.1043930E+01  0.7957747E-01            NaN
         13   -1    0    0    0    0  0.00000000000E+00  0.00000000000E+00  0.74505805969E-08  0.10566000000E+00  0.10566000000E+00 0.  1.
     999900   -1    0    0    0    0 -0.00000000000E+00 -0.00000000000E+00 -0.74505805969E-08  0.93827000000E+00  0.93827000000E+00 0. -1.
     999902    2    1    2    0    0 -0.36826391391E-02 -0.52417700071E-02  0.20525726910E-01  0.10224278269E+01  0.10222017011E+01 0.  0.
     999903    2    3    3    0    0 -0.97598979041E-03  0.42869639891E-01  0.12616410328E+00  0.13480093439E+00  0.20375288340E-01 0.  0.
         14    1    1    2    0    0  0.36826391391E-02  0.52417700071E-02 -0.20525726910E-01  0.21502173123E-01  0.00000000000E+00 0. -1.
     999901    1    3    3    0    0 -0.27066493487E-02 -0.48111409898E-01 -0.10563837637E+00  0.88762689249E+00  0.88000000000E+00 0. -1.
        -11    1    4    4    0    0  0.88027876507E-02  0.15102332450E-01  0.37532116779E-01  0.41406405625E-01  0.51100000000E-03 0. -1.
         11    1    4    4    0    0 -0.97787774411E-02  0.27767307441E-01  0.88631986498E-01  0.93394528761E-01  0.51100000000E-03 0.  1.
</event>
<event>
 8    1  0.1075206E+005  0.1043930E+01  0.7957747E-01            NaN
         13   -1    0    0    0    0  0.00000000000E+00  0.00000000000E+00  0.74505805969E-08  0.10566000000E+00  0.10566000000E+00 0. -1.
     999900   -1    0    0    0    0 -0.00000000000E+00 -0.00000000000E+00 -0.74505805969E-08  0.93827000000E+00  0.93827000000E+00 0.  1.
     999902    2    1    2    0    0  0.90582182387E-02  0.20092699057E-01 -0.51854926827E-02  0.10212880653E+01  0.10210370488E+01 0.  0.
     999903    2    3    3    0    0 -0.11858755507E+00  0.37301759590E-01 -0.37548894682E-01  0.13132346768E+00  0.19532132109E-01 0.  0.
         14    1    1    2    0    0 -0.90582182387E-02 -0.20092699057E-01  0.51854926827E-02  0.22641934710E-01  0.00000000000E+00 0. -1.
     999901    1    3    3    0    0  0.12764577331E+00 -0.17209060532E-01  0.32363401999E-01  0.88996459761E+00  0.88000000000E+00 0. -1.
        -11    1    4    4    0    0 -0.58394244435E-01  0.16976984248E-01 -0.82929130327E-02  0.61377025871E-01  0.51100000000E-03 0.  1.
         11    1    4    4    0    0 -0.60193310640E-01  0.20324775342E-01 -0.29255981649E-01  0.69946441809E-01  0.51100000000E-03 0. -1.
</event>
<event>
 8    1  0.1075206E+005  0.1043930E+01  0.7957747E-01            NaN
         13   -1    0    0    0    0  0.00000000000E+00  0.00000000000E+00  0.74505805969E-08  0.10566000000E+00  0.10566000000E+00 0.  1.
     999900   -1    0    0    0    0 -0.00000000000E+00 -0.00000000000E+00 -0.74505805969E-08  0.93827000000E+00  0.93827000000E+00 0.  1.
     999902    2    1    2    0    0  0.22875336049E-01 -0.28171156403E-02  0.53916127434E-02  0.10202596255E+01  0.10199850081E+01 0.  0.
     999903    2    3    3    0    0  0.61968062647E-01 -0.10442231744E+00 -0.47869922965E-01  0.13195300645E+00  0.19390854008E-01 0.  0.
         14    1    1    2    0    0 -0.22875336049E-01  0.28171156403E-02 -0.53916127434E-02  0.23670374477E-01  0.00000000000E+00 0.  1.
     999901    1    3    3    0    0 -0.39092726597E-01  0.10160520180E+00  0.53261535708E-01  0.88830661907E+00  0.88000000000E+00 0.  1.
        -11    1    4    4    0    0  0.17158701748E-01 -0.31562600918E-01 -0.50040270298E-02  0.36275614811E-01  0.51100000000E-03 0. -1.
         11    1    4    4    0    0  0.44809360898E-01 -0.72859716519E-01 -0.42865895935E-01  0.95677391638E-01  0.51100000000E-03 0.  1.
</event>
<event>
 8    1  0.1075206E+005  0.1043930E+01  0.7957747E-01            NaN
         13   -1    0    0    0    0  0.00000000000E+00  0.00000000000E+00  0.74505805969E-08  0.10566000000E+00  0.10566000000E+00 0.  1.
     999900   -1    0    0    0    0 -0.00000000000E+00 -0.00000000000E+00 -0.74505805969E-08  0.93827000000E+00  0.93827000000E+00 0. -1.
     999902    2    1    2    0    0 -0.19886132807E-01 -0.73704450755E-02  0.12334796394E-01  0.10193957598E+01  0.10191004790E+01 0.  0.
     999903    2    3    3    0    0  0.12521553887E+00 -0.67245092951E-02  0.12007795578E-01  0.12751290918E+00  0.19778894107E-01 0.  0.
         14    1    1    2    0    0  0.19886132807E-01  0.73704450755E-02 -0.12334796394E-01  0.24534240170E-01  0.00000000000E+00 0. -1.
     999901    1    3    3    0    0 -0.14510167168E+00 -0.64593578042E-03  0.32700081674E-03  0.89188285065E+00  0.88000000000E+00 0.  1.
        -11    1    4    4    0    0  0.77188473116E-01  0.52662072280E-02  0.94266795261E-02  0.77941752152E-01  0.51100000000E-03 0. -1.
         11    1    4    4    0    0  0.48027065756E-01 -0.11990716523E-01  0.25811160516E-02  0.49571157026E-01  0.51100000000E-03 0.  1.
</event>
<event>
 7    1  0.1354807E+005  0.1043930E+01  0.7957747E-01            NaN
         13   -1    0    0    0    0  0.00000000000E+00  0.00000000000E+00  0.74505805969E-08  0.10566000000E+00  0.10566000000E+00 0. -1.
     999900   -1    0    0    0    0 -0.00000000000E+00 -0.00000000000E+00 -0.74505805969E-08  0.93827000000E+00  0.93827000000E+00 0. -1.
     999902    2    1    2    0    0  0.22783572009E-02  0.22143756240E-01  0.45255764089E-02  0.10212139772E+01  0.10209612967E+01 0.  0.
         14    1    1    2    0    0 -0.22783572009E-02 -0.22143756240E-01 -0.45255764089E-02  0.22716022842E-01  0.00000000000E+00 0.  1.
     999901    1    3    3    0    0 -0.82677902580E-01 -0.64223353626E-01 -0.38332488837E-01  0.88703419011E+00  0.88000000000E+00 0. -1.
        -11    1    3    3    0    0  0.17957419681E-01  0.39577261331E-01  0.26288617198E-01  0.50795482587E-01  0.51100000000E-03 0.  1.
         11    1    3    3    0    0  0.66998840100E-01  0.46789848535E-01  0.16569448048E-01  0.83384304460E-01  0.51100000000E-03 0. -1.
</event>
<event>
 8    1  0.1075206E+005  0.1043930E+01  0.7957747E-01            NaN
         13   -1    0    0    0    0  0.00000000000E+00  0.00000000000E+00  0.74505805969E-08  0.10566000000E+00  0.10566000000E+00 0.  1.
     999900   -1    0    0    0    0 -0.00000000000E+00 -0.00000000000E+00 -0.74505805969E-08  0.93827000000E+00  0.93827000000E+00 0.  1.
     999902    2    1    2    0    0 -0.13527679834E-01  0.29314008814E-03 -0.20236662389E-01  0.10195864884E+01  0.10192958357E+01 0.  0.
     999903    2    3    3    0    0 -0.23907906942E-01  0.12555882990E+00 -0.18062811384E-01  0.13065231322E+00  0.20178057724E-01 0.  0.
         14    1    1    2    0    0  0.13527679834E-01 -0.29314008814E-03  0.20236662389E-01  0.24343511609E-01  0.00000000000E+00 0.  1.
     999901    1    3    3    0    0  0.10380227107E-01 -0.12526568982E+00 -0.21738510053E-02  0.88893417517E+00  0.88000000000E+00 0. -1.
        -11    1    4    4    0    0 -0.48510139516E-02  0.39036526417E-02 -0.12276662089E-02  0.63670342881E-02  0.51100000000E-03 0. -1.
         11    1    4    4    0    0 -0.19056892990E-01  0.12165517726E+00 -0.16835145175E-01  0.12428527893E+00  0.51100000000E-03 0.  1.
</event>
<event>
 7    1  0.1075206E+005  0.1043930E+01  0.7957747E-01            NaN
         13   -1    0    0    0    0  0.00000000000E+00  0.00000000000E+00  0.74505805969E-08  0.10566000000E+00  0.10566000000E+00 0.  1.
     999900   -1    0    0    0    0 -0.00000000000E+00 -0.00000000000E+00 -0.74505805969E-08  0.93827000000E+00  0.93827000000E+00 0. -1.
     999902    2    1    2    0    0 -0.18975535036E-01  0.41670040304E-03 -0.12705465769E-01  0.10210898286E+01  0.10208343473E+01 0.  0.
         14    1    1    2    0    0  0.18975535036E-01 -0.41670040304E-03  0.12705465769E-01  0.22840171399E-01  0.00000000000E+00 0.  1.
     999901    1    3    3    0    0 -0.97680167299E-01 -0.57160924727E-01 -0.68602658737E-03  0.88724813724E+00  0.88000000000E+00 0.  1.
        -11    1    3    3    0    0 -0.25005363766E-02  0.10025733171E-01 -0.35395930020E-01  0.36876835422E-01  0.51100000000E-03 0.  1.
         11    1    3    3    0    0  0.81205168639E-01  0.47551891960E-01  0.23376490839E-01  0.96964855941E-01  0.51100000000E-03 0. -1.
</event>
<event>
 8    1  0.1075206E+005  0.1043930E+01  0.7957747E-01            NaN
         13   -1    0    0    0    0  0.00000000000E+00  0.00000000000E+00  0.74505805969E-08  0.10566000000E+00  0.10566000000E+00 0.  1.
     999900   -1    0    0    0    0 -0.00000000000E+00 -0.00000000000E+00 -0.74505805969E-08  0.93827000000E+00  0.93827000000E+00 0. -1.
     999902    2    1    2    0    0 -0.21381452793E-01  0.11270959827E-01 -0.49166186983E-02  0.10192647573E+01  0.10189662758E+01 0.  0.
     999903    2    3    3    0    0 -0.11515804650E+00  0.46460966125E-01 -0.42462473331E-01  0.13278741562E+00  0.20234600586E-01 0.  0.
         14    1    1    2    0    0  0.21381452793E-01 -0.11270959827E-01  0.49166186983E-02  0.24665242719E-01  0.00000000000E+00 0.  1.
     999901    1    3    3    0    0  0.93776593703E-01 -0.35190006299E-01  0.37545854633E-01  0.88647734166E+00  0.88000000000E+00 0.  1.
        -11    1    4    4    0    0 -0.40552082455E-01  0.70791436408E-02 -0.97794940891E-02  0.42314126385E-01  0.51100000000E-03 0.  1.
         11    1    4    4    0    0 -0.74605964041E-01  0.39381822484E-01 -0.32682979242E-01  0.90473289240E-01  0.51100000000E-03 0. -1.
</event>
<event>
 8    1  0.1075206E+005  0.1043930E+01  0.7957747E-01            NaN
         13   -1    0    0    0    0  0.00000000000E+00  0.00000000000E+00  0.74505805969E-08  0.10566000000E+00  0.10566000000E+00 0. -1.
     999900   -1    0    0    0    0 -0.00000000000E+00 -0.00000000000E+00 -0.74505805969E-08  0.93827000000E+00  0.93827000000E+00 0.  1.
     999902    2    1    2    0    0  0.23496078273E-01  0.20810050604E-01 -0.69923139575E-02  0.10117738753E+01  0.10112627544E+01 0.  0.
     999903    2    3    3    0    0 -0.97811372506E-01  0.10146083357E-02  0.66833539221E-01  0.12016991965E+00  0.20149282951E-01 0.  0.
         14    1    1    2    0    0 -0.23496078273E-01 -0.20810050604E-01  0.69923139575E-02  0.32156124686E-01  0.00000000000E+00 0. -1.
     999901    1    3    3    0    0  0.12130745078E+00  0.19795442269E-01 -0.73825853178E-01  0.89160395566E+00  0.88000000000E+00 0. -1.
        -11    1    4    4    0    0 -0.68755222995E-01  0.74131591998E-02  0.54102372304E-01  0.87804119654E-01  0.51100000000E-03 0.  1.
         11    1    4    4    0    0 -0.29056149512E-01 -0.63985508640E-02  0.12731166917E-01  0.32365800000E-01  0.51100000000E-03 0. -1.
</event>
<event>
 8    1  0.1075206E+005  0.1043930E+01  0.7957747E-01            NaN
         13   -1    0    0    0    0  0.00000000000E+00  0.00000000000E+00  0.74505805969E-08  0.10566000000E+00  0.10566000000E+00 0.  1.
     999900   -1    0    0    0    0 -0.00000000000E+00 -0.00000000000E+00 -0.74505805969E-08  0.93827000000E+00  0.93827000000E+00 0. -1.
     999902    2    1    2    0    0 -0.16579448524E-01 -0.13932931263E-01 -0.14875142985E-01  0.10176569232E+01  0.10173177177E+01 0.  0.
     999903    2    3    3    0    0 -0.28531705876E-01  0.76729854217E-01  0.94399205805E-01  0.12619549360E+00  0.17679473376E-01 0.  0.
         14    1    1    2    0    0  0.16579448524E-01  0.13932931263E-01  0.14875142985E-01  0.26273076824E-01  0.00000000000E+00 0.  1.
     999901    1    3    3    0    0  0.11952257352E-01 -0.90662785480E-01 -0.10927434879E+00  0.89146142958E+00  0.88000000000E+00 0. -1.
        -11    1    4    4    0    0 -0.27021207884E-01  0.64725629544E-01  0.70750086331E-01  0.99626244696E-01  0.51100000000E-03 0. -1.
         11    1    4    4    0    0 -0.15104979926E-02  0.12004224672E-01  0.23649119475E-01  0.26569248900E-01  0.51100000000E-03 0.  1.
</event>
<event>
 8    1  0.1075206E+005  0.1043930E+01  0.7957747E-01            NaN
         13   -1    0    0    0    0  0.00000000000E+00  0.00000000000E+00  0.74505805969E-08  0.10566000000E+00  0.10566000000E+00 0.  1.
     999900   -1    0    0    0    0 -0.00000000000E+00 -0.00000000000E+00 -0.74505805969E-08  0.93827000000E+00  0.93827000000E+00 0. -1.
     999902    2    1    2    0    0  0.38310019147E-02  0.10474205413E-01 -0.21046949328E-01  0.10201106879E+01  0.10198325627E+01 0.  0.
     999903    2    3    3    0    0  0.40698595259E-01  0.10126312642E+00  0.68072622657E-01  0.13019825075E+00  0.20176870774E-01 0.  0.
         14    1    1    2    0    0 -0.38310019147E-02 -0.10474205413E-01  0.21046949328E-01  0.23819312137E-01  0.00000000000E+00 0.  1.
     999901    1    3    3    0    0 -0.36867593344E-01 -0.90788921009E-01 -0.89119571984E-01  0.88991243711E+00  0.88000000000E+00 0. -1.
        -11    1    4    4    0    0  0.21070363199E-01  0.76202407316E-01  0.50815221742E-01  0.93985184832E-01  0.51100000000E-03 0. -1.
         11    1    4    4    0    0  0.19628232060E-01  0.25060719105E-01  0.17257400915E-01  0.36213065918E-01  0.51100000000E-03 0.  1.
</event>
<event>
 8    1  0.1075206E+005  0.1043930E+01  0.7957747E-01            NaN
         13   -1    0    0    0    0  0.00000000000E+00  0.00000000000E+00  0.74505805969E-08  0.10566000000E+00  0.10566000000E+00 0. -1.
     999900   -1    0    0    0    0 -0.00000000000E+00 -0.00000000000E+00 -0.74505805969E-08  0.93827000000E+00  0.93827000000E+00 0.  1.
     999902    2    1    2    0    0 -0.80257389234E-02 -0.19785433424E-02  0.21998300022E-01  0.10204299506E+01  0.10201593168E+01 0.  0.
     999903    2    3    3    0    0 -0.52643016045E-01  0.11647897135E+00 -0.17064908918E-01  0.13051488806E+00  0.20106888971E-01 0.  0.
         14    1    1    2    0    0  0.80257389234E-02  0.19785433424E-02 -0.21998300022E-01  0.23500049423E-01  0.00000000000E+00 0.  1.
     999901    1    3    3    0    0  0.44617277121E-01 -0.11845751469E+00  0.39063208940E-01  0.88991506252E+00  0.88000000000E+00 0. -1.
        -11    1    4    4    0    0 -0.25595284706E-01  0.64446210574E-01  0.32599299664E-03  0.69345512104E-01  0.51100000000E-03 0.  1.
         11    1    4    4    0    0 -0.27047731338E-01  0.52032760774E-01 -0.17390901914E-01  0.61169375955E-01  0.51100000000E-03 0. -1.
</event>
<event>
 8    1  0.1075206E+005  0.1043930E+01  0.7957747E-01            NaN
         13   -1    0    0    0    0  0.00000000000E+00  0.00000000000E+00  0.74505805969E-08  0.10566000000E+00  0.10566000000E+00 0.  1.
     999900   -1    0    0    0    0 -0.00000000000E+00 -0.00000000000E+00 -0.74505805969E-08  0.93827000000E+00  0.93827000000E+00 0. -1.
     999902    2    1    2    0    0 -0.20765851368E-01 -0.94077792441E-02  0.72672359411E-02  0.10200022000E+01  0.10197215053E+01 0.  0.
     999903    2    3    3    0    0  0.99908403960E-01 -0.78960357702E-01  0.60572592440E-02  0.12904692555E+00  0.19999783369E-01 0.  0.
         14    1    1    2    0    0  0.20765851368E-01  0.94077792441E-02 -0.72672359411E-02  0.23927799973E-01  0.00000000000E+00 0.  1.
     999901    1    3    3    0    0 -0.12067425533E+00  0.69552578457E-01  0.12099766971E-02  0.89095527447E+00  0.88000000000E+00 0.  1.
        -11    1    4    4    0    0  0.68320325675E-01 -0.61570042808E-01  0.11079105233E-01  0.92636627559E-01  0.51100000000E-03 0.  1.
         11    1    4    4    0    0  0.31588078285E-01 -0.17390314893E-01 -0.50218459892E-02  0.36410297993E-01  0.51100000000E-03 0. -1.
</event>
<event>
 8    1  0.1075206E+005  0.1043930E+01  0.7957747E-01            NaN
         13   -1    0    0    0    0  0.00000000000E+00  0.00000000000E+00  0.74505805969E-08  0.10566000000E+00  0.10566000000E+00 0.  1.
     999900   -1    0    0    0    0 -0.00000000000E+00 -0.00000000000E+00 -0.74505805969E-08  0.93827000000E+00  0.93827000000E+00 0. -1.
     999902    2    1    2    0    0  0.36096576787E-02 -0.10967588057E-01  0.20350684916E-01  0.10205319660E+01  0.10202637040E+01 0.  0.
     999903    2    3    3    0    0 -0.57517684936E-01  0.11195529350E+00 -0.20725050538E-01  0.12894136332E+00  0.18816897514E-01 0.  0.
         14    1    1    2    0    0 -0.36096576787E-02  0.10967588057E-01 -0.20350684916E-01  0.23398033954E-01  0.00000000000E+00 0. -1.
     999901    1    3    3    0    0  0.61127342615E-01 -0.12292288156E+00  0.41075735454E-01  0.89159060273E+00  0.88000000000E+00 0.  1.
        -11    1    4    4    0    0 -0.47065963725E-01  0.87090872871E-01 -0.86128426207E-02  0.99370354019E-01  0.51100000000E-03 0.  1.
         11    1    4    4    0    0 -0.10451721212E-01  0.24864420629E-01 -0.12112207917E-01  0.29571009302E-01  0.51100000000E-03 0. -1.
</event>
<event>
 8    1  0.1075206E+005  0.1043930E+01  0.7957747E-01            NaN
         13   -1    0    0    0    0  0.00000000000E+00  0.00000000000E+00  0.74505805969E-08  0.10566000000E+00  0.10566000000E+00 0. -1.
     999900   -1    0    0    0    0 -0.00000000000E+00 -0.00000000000E+00 -0.74505805969E-08  0.93827000000E+00  0.93827000000E+00 0.  1.
     999902    2    1    2    0    0 -0.11309624533E-01 -0.11177497480E-01  0.17947490721E-01  0.10199517499E+01  0.10196698562E+01 0.  0.
     999903    2    3    3    0    0 -0.39153167070E-01  0.12038755051E+00 -0.16132033800E-01  0.12908361219E+00  0.19395968938E-01 0.  0.
         14    1    1    2    0    0  0.11309624533E-01  0.11177497480E-01 -0.17947490721E-01  0.23978250148E-01  0.00000000000E+00 0.  1.
     999901    1    3    3    0    0  0.27843542537E-01 -0.13156504799E+00  0.34079524520E-01  0.89086813766E+00  0.88000000000E+00 0.  1.
        -11    1    4    4    0    0 -0.10913093817E-01  0.48508464986E-01 -0.14662592801E-01  0.51840327358E-01  0.51100000000E-03 0.  1.
         11    1    4    4    0    0 -0.28240073254E-01  0.71879085526E-01 -0.14694409983E-02  0.77243284830E-01  0.51100000000E-03 0. -1.
</event>
<event>
 8    1  0.1075206E+005  0.1043930E+01  0.7957747E-01            NaN
         13   -1    0    0    0    0  0.00000000000E+00  0.00000000000E+00  0.74505805969E-08  0.10566000000E+00  0.10566000000E+00 0.  1.
     999900   -1    0    0    0    0 -0.00000000000E+00 -0.00000000000E+00 -0.74505805969E-08  0.93827000000E+00  0.93827000000E+00 0.  1.
     999902    2    1    2    0    0 -0.17165020099E-01 -0.16641834983E-01 -0.57122226380E-02  0.10193491523E+01  0.10190527348E+01 0.  0.
     999903    2    3    3    0    0 -0.45869795560E-01 -0.59302024607E-01  0.10605777351E+00  0.13079055099E+00  0.15399631080E-01 0.  0.
         14    1    1    2    0    0  0.17165020099E-01  0.16641834983E-01  0.57122226380E-02  0.24580847709E-01  0.00000000000E+00 0. -1.
     999901    1    3    3    0    0  0.28704775460E-01  0.42660189623E-01 -0.11176999615E+00  0.88855860130E+00  0.88000000000E+00 0.  1.
        -11    1    4    4    0    0 -0.32830825224E-01 -0.31628379204E-01  0.69503352632E-01  0.83121565217E-01  0.51100000000E-03 0.  1.
         11    1    4    4    0    0 -0.13038970335E-01 -0.27673645402E-01  0.36554420882E-01  0.47668985769E-01  0.51100000000E-03 0. -1.
</event>
<event>
 8    1  0.1075206E+005  0.1043930E+01  0.7957747E-01            NaN
         13   -1    0    0    0    0  0.00000000000E+00  0.00000000000E+00  0.74505805969E-08  0.10566000000E+00  0.10566000000E+00 0.  1.
     999900   -1    0    0    0    0 -0.00000000000E+00 -0.00000000000E+00 -0.74505805969E-08  0.93827000000E+00  0.93827000000E+00 0.  1.
     999902    2    1    2    0    0 -0.16981036322E-01  0.12846304572E-01  0.10039939809E-01  0.10203888971E+01  0.10201173059E+01 0.  0.
     999903    2    3    3    0    0 -0.79270234883E-01 -0.79313118040E-01 -0.63491821630E-01  0.13034382890E+00  0.19594935239E-01 0.  0.
         14    1    1    2    0    0  0.16981036322E-01 -0.12846304572E-01 -0.10039939809E-01  0.23541102929E-01  0.00000000000E+00 0. -1.
     999901    1    3    3    0    0  0.62289198561E-01  0.92159422612E-01  0.73531761439E-01  0.89004506817E+00  0.88000000000E+00 0. -1.
        -11    1    4    4    0    0 -0.37325066670E-01 -0.46597445041E-01 -0.41853002215E-01  0.72913766887E-01  0.51100000000E-03 0.  1.
         11    1    4    4    0    0 -0.41945168214E-01 -0.32715672999E-01 -0.21638819415E-01  0.57430062014E-01  0.51100000000E-03 0. -1.
</event>
<event>
 8    1  0.1075206E+005  0.1043930E+01  0.7957747E-01            NaN
         13   -1    0    0    0    0  0.00000000000E+00  0.00000000000E+00  0.74505805969E-08  0.10566000000E+00  0.10566000000E+00 0.  1.
     999900   -1    0    0    0    0 -0.00000000000E+00 -0.00000000000E+00 -0.74505805969E-08  0.93827000000E+00  0.93827000000E+00 0. -1.
     999902    2    1    2    0    0  0.48632119453E-03 -0.19849678133E-01 -0.13116964995E-01  0.10201329203E+01  0.10198553202E+01 0.  0.
     999903    2    3    3    0    0  0.12001992083E+00 -0.29262632275E-01  0.37794593364E-01  0.13054376126E+00  0.18765907193E-01 0.  0.
         14    1    1    2    0    0 -0.48632119453E-03  0.19849678133E-01  0.13116964995E-01  0.23797079674E-01  0.00000000000E+00 0.  1.
     999901    1    3    3    0    0 -0.11953359964E+00  0.94129541418E-02 -0.50911558359E-01  0.88958915906E+00  0.88000000000E+00 0.  1.
        -11    1    4    4    0    0  0.54729561955E-01 -0.40546292458E-02  0.14274283280E-01  0.56707858841E-01  0.51100000000E-03 0.  1.
         11    1    4    4    0    0  0.65290358878E-01 -0.25208003029E-01  0.23520310084E-01  0.73835902423E-01  0.51100000000E-03 0. -1.
</event>
<event>
 8    1  0.1075206E+005  0.1043930E+01  0.7957747E-01            NaN
         13   -1    0    0    0    0  0.00000000000E+00  0.00000000000E+00  0.74505805969E-08  0.10566000000E+00  0.10566000000E+00 0. -1.
     999900   -1    0    0    0    0 -0.00000000000E+00 -0.00000000000E+00 -0.74505805969E-08  0.93827000000E+00  0.93827000000E+00 0. -1.
     999902    2    1    2    0    0 -0.18290235388E-01 -0.15296502906E-01  0.45921035359E-03  0.10200820109E+01  0.10198032076E+01 0.  0.
     999903    2    3    3    0    0  0.11917877177E+00  0.38608609381E-01  0.14349136559E-01  0.12767155647E+00  0.19998106220E-01 0.  0.
         14    1    1    2    0    0  0.18290235388E-01  0.15296502906E-01 -0.45921035359E-03  0.23847989136E-01  0.00000000000E+00 0.  1.
     999901    1    3    3    0    0 -0.13746900716E+00 -0.53905112287E-01 -0.13889926206E-01  0.89241045439E+00  0.88000000000E+00 0. -1.
        -11    1    4    4    0    0  0.48339029595E-01  0.59642380703E-02  0.85712919939E-02  0.49456668766E-01  0.51100000000E-03 0. -1.
         11    1    4    4    0    0  0.70839742176E-01  0.32644371311E-01  0.57778445654E-02  0.78214887705E-01  0.51100000000E-03 0.  1.
</event>
<event>
 8    1  0.1075206E+005  0.1043930E+01  0.7957747E-01            NaN
         13   -1    0    0    0    0  0.00000000000E+00  0.00000000000E+00  0.74505805969E-08  0.10566000000E+00  0.10566000000E+00 0. -1.
     999900   -1    0    0    0    0 -0.00000000000E+00 -0.00000000000E+00 -0.74505805969E-08  0.93827000000E+00  0.93827000000E+00 0.  1.
     999902    2    1    2    0    0 -0.56821424890E-02  0.15262224828E-01 -0.17035313808E-01  0.10203625613E+01  0.10200903550E+01 0.  0.
     999903    2    3    3    0    0 -0.22215218896E-02 -0.11852013763E+00 -0.48923350333E-01  0.12967375860E+00  0.19230997800E-01 0.  0.
         14    1    1    2    0    0  0.56821424890E-02 -0.15262224828E-01  0.17035313808E-01  0.23567438692E-01  0.00000000000E+00 0. -1.
     999901    1    3    3    0    0 -0.34606205994E-02  0.13378236246E+00  0.31888036525E-01  0.89068880271E+00  0.88000000000E+00 0.  1.
        -11    1    4    4    0    0 -0.99835652772E-02 -0.88780550818E-01 -0.37093200994E-01  0.96735848888E-01  0.51100000000E-03 0. -1.
         11    1    4    4    0    0  0.77620433876E-02 -0.29739586817E-01 -0.11830149339E-01  0.32937909709E-01  0.51100000000E-03 0.  1.
</event>
<event>
 8    1  0.1075206E+005  0.1043930E+01  0.7957747E-01            NaN
         13   -1    0    0    0    0  0.00000000000E+00  0.00000000000E+00  0.74505805969E-08  0.10566000000E+00  0.10566000000E+00 0. -1.
     999900   -1    0    0    0    0 -0.00000000000E+00 -0.00000000000E+00 -0.74505805969E-08  0.93827000000E+00  0.93827000000E+00 0.  1.
     999902    2    1    2    0    0  0.14332481409E-01 -0.12217606099E-01 -0.13038343115E-01  0.10210239241E+01  0.10207669495E+01 0.  0.
     999903    2    3    3    0    0 -0.55463052703E-01 -0.10535979998E+00 -0.54640105918E-01  0.13238586981E+00  0.19069338785E-01 0.  0.
         14    1    1    2    0    0 -0.14332481409E-01  0.12217606099E-01  0.13038343115E-01  0.22906075904E-01  0.00000000000E+00 0. -1.
     999901    1    3    3    0    0  0.69795534112E-01  0.93142193886E-01  0.41601762802E-01  0.88863805429E+00  0.88000000000E+00 0. -1.
        -11    1    4    4    0    0 -0.45403600777E-01 -0.86753076113E-01 -0.52542523618E-01  0.11112407969E+00  0.51100000000E-03 0.  1.
         11    1    4    4    0    0 -0.10059451926E-01 -0.18606723872E-01 -0.20975822993E-02  0.21261790113E-01  0.51100000000E-03 0. -1.
</event>
<event>
 8    1  0.1075206E+005  0.1043930E+01  0.7957747E-01            NaN
         13   -1    0    0    0    0  0.00000000000E+00  0.00000000000E+00  0.74505805969E-08  0.10566000000E+00  0.10566000000E+00 0. -1.
     999900   -1    0    0    0    0 -0.00000000000E+00 -0.00000000000E+00 -0.74505805969E-08  0.93827000000E+00  0.93827000000E+00 0.  1.
     999902    2    1    2    0    0  0.14024555919E-01  0.69193989828E-02  0.16329899948E-01  0.10213195625E+01  0.10210692518E+01 0.  0.
     999903    2    3    3    0    0  0.78595461873E-01 -0.48724487685E-01  0.94545811205E-01  0.13374794693E+00  0.19956967805E-01 0.  0.
         14    1    1    2    0    0 -0.14024555919E-01 -0.69193989828E-02 -0.16329899948E-01  0.22610437486E-01  0.00000000000E+00 0.  1.
     999901    1    3    3    0    0 -0.64570905954E-01  0.55643886668E-01 -0.78215911256E-01  0.88757161559E+00  0.88000000000E+00 0.  1.
        -11    1    4    4    0    0  0.66687594299E-01 -0.34010830279E-01  0.67957705326E-01  0.10110629379E+00  0.51100000000E-03 0.  1.
         11    1    4    4    0    0  0.11907867574E-01 -0.14713657407E-01  0.26588105878E-01  0.32641653139E-01  0.51100000000E-03 0. -1.
</event>
<event>
 8    1  0.1075206E+005  0.1043930E+01  0.7957747E-01            NaN
         13   -1    0    0    0    0  0.00000000000E+00  0.00000000000E+00  0.74505805969E-08  0.10566000000E+00  0.10566000000E+00 0.  1.
     999900   -1    0    0    0    0 -0.00000000000E+00 -0.00000000000E+00 -0.74505805969E-08  0.93827000000E+00  0.93827000000E+00 0.  1.
     999902    2    1    2    0    0  0.17751520622E-01  0.94770532456E-02  0.11735685021E-01  0.10206349935E+01  0.10203691159E+01 0.  0.
     999903    2    3    3    0    0  0.25077269751E-01 -0.12597236292E+00 -0.29900838530E-02  0.13011994078E+00  0.20599823039E-01 0.  0.
         14    1    1    2    0    0 -0.17751520622E-01 -0.94770532456E-02 -0.11735685021E-01  0.23295006451E-01  0.00000000000E+00 0. -1.
     999901    1    3    3    0    0 -0.73257491288E-02  0.13544941617E+00  0.14725768874E-01  0.89051505277E+00  0.88000000000E+00 0. -1.
        -11    1    4    4    0    0  0.18452047500E-01 -0.53688611708E-01  0.54882719314E-02  0.57037946438E-01  0.51100000000E-03 0.  1.
         11    1    4    4    0    0  0.66252222511E-02 -0.72283751213E-01 -0.84783557844E-02  0.73081994342E-01  0.51100000000E-03 0. -1.
</event>
<event>
 8    1  0.1075206E+005  0.1043930E+01  0.7957747E-01            NaN
         13   -1    0    0    0    0  0.00000000000E+00  0.00000000000E+00  0.74505805969E-08  0.10566000000E+00  0.10566000000E+00 0. -1.
     999900   -1    0    0    0    0 -0.00000000000E+00 -0.00000000000E+00 -0.74505805969E-08  0.93827000000E+00  0.93827000000E+00 0.  1.
     999902    2    1    2    0    0  0.55190725962E-02 -0.73984663551E-02 -0.22018139650E-01  0.10200554122E+01  0.10197759794E+01 0.  0.
     999903    2    3    3    0    0 -0.25425936476E-01 -0.11303587553E+00 -0.60986179730E-01  0.13234185262E+00  0.19273412593E-01 0.  0.
         14    1    1    2    0    0 -0.55190725962E-02  0.73984663551E-02  0.22018139650E-01  0.23874587753E-01  0.00000000000E+00 0. -1.
     999901    1    3    3    0    0  0.30945009072E-01  0.10563740918E+00  0.38968040079E-01  0.88771355963E+00  0.88000000000E+00 0.  1.
        -11    1    4    4    0    0 -0.23362544642E-01 -0.99811053848E-01 -0.60298808569E-01  0.11892965315E+00  0.51100000000E-03 0. -1.
         11    1    4    4    0    0 -0.20633918338E-02 -0.13224821684E-01 -0.68737116086E-03  0.13412199467E-01  0.51100000000E-03 0.  1.
</event>
<event>
 8    1  0.1075206E+005  0.1043930E+01  0.7957747E-01            NaN
         13   -1    0    0    0    0  0.00000000000E+00  0.00000000000E+00  0.74505805969E-08  0.10566000000E+00  0.10566000000E+00 0. -1.
     999900   -1    0    0    0    0 -0.00000000000E+00 -0.00000000000E+00 -0.74505805969E-08  0.93827000000E+00  0.93827000000E+00 0. -1.
     999902    2    1    2    0    0  0.23299534675E-01  0.18192581513E-02 -0.46913590662E-02  0.10200933294E+01  0.10198147939E+01 0.  0.
     999903    2    3    3    0    0 -0.11613944889E+00 -0.38903534765E-01 -0.30441501742E-01  0.12781274243E+00  0.20188003730E-01 0.  0.
         14    1    1    2    0    0 -0.23299534675E-01 -0.18192581513E-02  0.46913590662E-02  0.23836670619E-01  0.00000000000E+00 0.  1.
     999901    1    3    3    0    0  0.13943898356E+00  0.40722792916E-01  0.25750142676E-01  0.89228058695E+00  0.88000000000E+00 0.  1.
        -11    1    4    4    0    0 -0.53093101254E-01 -0.94802547384E-02 -0.69675172091E-02  0.54383453805E-01  0.51100000000E-03 0.  1.
         11    1    4    4    0    0 -0.63046347632E-01 -0.29423280027E-01 -0.23473984533E-01  0.73429288626E-01  0.51100000000E-03 0. -1.
</event>
<event>
 8    1  0.1205680E+005  0.1043930E+01  0.7957747E-01            NaN
         13   -1    0    0    0    0  0.00000000000E+00  0.00000000000E+00  0.74505805969E-08  0.10566000000E+00  0.10566000000E+00 0. -1.
     999900   -1    0    0    0    0 -0.00000000000E+00 -0.00000000000E+00 -0.74505805969E-08  0.93827000000E+00  0.93827000000E+00 0.  1.
     999902    2    1    2    0    0 -0.11968497535E-01 -0.10561098227E-01  0.18619305106E-01  0.10194053134E+01  0.10191102653E+01 0.  0.
     999903    2    3    3    0    0  0.40399770766E-01  0.49640924273E-01  0.11228473424E+00  0.13084471805E+00  0.20398918055E-01 0.  0.
         14    1    1    2    0    0  0.11968497535E-01  0.10561098227E-01 -0.18619305106E-01  0.24524686576E-01  0.00000000000E+00 0.  1.
     999901    1    3    3    0    0 -0.52368268302E-01 -0.60202022500E-01 -0.93665429133E-01  0.88856059537E+00  0.88000000000E+00 0.  1.
        -11    1    4    4    0    0  0.28825000953E-01  0.20361294404E-01  0.66346946680E-01  0.75150791377E-01  0.51100000000E-03 0. -1.
         11    1    4    4    0    0  0.11574769813E-01  0.29279629869E-01  0.45937787558E-01  0.55693926673E-01  0.51100000000E-03 0.  1.
</event>
<event>
 8    1  0.1075206E+005  0.1043930E+01  0.7957747E-01            NaN
         13   -1    0    0    0    0  0.00000000000E+00  0.00000000000E+00  0.74505805969E-08  0.10566000000E+00  0.10566000000E+00 0. -1.
     999900   -1    0    0    0    0 -0.00000000000E+00 -0.00000000000E+00 -0.74505805969E-08  0.93827000000E+00  0.93827000000E+00 0. -1.
     999902    2    1    2    0    0 -0.44122323258E-02  0.84573674668E-02 -0.22215640551E-01  0.10197529542E+01  0.10194663104E+01 0.  0.
     999903    2    3    3    0    0 -0.25028944939E-01 -0.76360734700E-01  0.97047787361E-01  0.12742850394E+00  0.19035248773E-01 0.  0.
         14    1    1    2    0    0  0.44122323258E-02 -0.84573674668E-02  0.22215640551E-01  0.24177045801E-01  0.00000000000E+00 0. -1.
     999901    1    3    3    0    0  0.20616712613E-01  0.84818102166E-01 -0.11926342791E+00  0.89232445026E+00  0.88000000000E+00 0. -1.
        -11    1    4    4    0    0 -0.13379174264E-01 -0.60221287525E-01  0.81218887857E-01  0.10199203224E+00  0.51100000000E-03 0.  1.
         11    1    4    4    0    0 -0.11649770675E-01 -0.16139447175E-01  0.15828899504E-01  0.25436471697E-01  0.51100000000E-03 0. -1.
</event>
<event>
 8    1  0.1075206E+005  0.1043930E+01  0.7957747E-01            NaN
         13   -1    0    0    0    0  0.00000000000E+00  0.00000000000E+00  0.74505805969E-08  0.10566000000E+00  0.10566000000E+00 0. -1.
     999900   -1    0    0    0    0 -0.00000000000E+00 -0.00000000000E+00 -0.74505805969E-08  0.93827000000E+00  0.93827000000E+00 0. -1.
     999902    2    1    2    0    0 -0.20062792287E-01  0.73826987866E-02  0.78835730360E-02  0.10211446846E+01  0.10208904428E+01 0.  0.
     999903    2    3    3    0    0  0.12598065841E-01 -0.11388064059E+00 -0.57416683270E-01  0.12983348604E+00  0.20797764689E-01 0.  0.
         14    1    1    2    0    0  0.20062792287E-01 -0.73826987866E-02 -0.78835730360E-02  0.22785315437E-01  0.00000000000E+00 0. -1.
     999901    1    3    3    0    0 -0.32660858128E-01  0.12126333938E+00  0.65300256306E-01  0.89131119852E+00  0.88000000000E+00 0.  1.
        -11    1    4    4    0    0  0.98246655691E-02 -0.63214004534E-01 -0.42990255503E-01  0.77077607721E-01  0.51100000000E-03 0. -1.
         11    1    4    4    0    0  0.27734002719E-02 -0.50666636059E-01 -0.14426427766E-01  0.52755878323E-01  0.51100000000E-03 0.  1.
</event>
<event>
 8    1  0.1075206E+005  0.1043930E+01  0.7957747E-01            NaN
         13   -1    0    0    0    0  0.00000000000E+00  0.00000000000E+00  0.74505805969E-08  0.10566000000E+00  0.10566000000E+00 0.  1.
     999900   -1    0    0    0    0 -0.00000000000E+00 -0.00000000000E+00 -0.74505805969E-08  0.93827000000E+00  0.93827000000E+00 0.  1.
     999902    2    1    2    0    0  0.37436295363E-02 -0.49271469998E-02 -0.22139200567E-01  0.10209422698E+01  0.10206834389E+01 0.  0.
     999903    2    3    3    0    0  0.46105397691E-01  0.10437496998E+00 -0.63587979694E-01  0.13220188390E+00  0.20348584449E-01 0.  0.
         14    1    1    2    0    0 -0.37436295363E-02  0.49271469998E-02  0.22139200567E-01  0.22987730237E-01  0.00000000000E+00 0.  1.
     999901    1    3    3    0    0 -0.42361768154E-01 -0.10930211698E+00  0.41448779127E-01  0.88874038587E+00  0.88000000000E+00 0. -1.
        -11    1    4    4    0    0  0.28279595896E-01  0.84657148853E-01 -0.47162404124E-01  0.10095108657E+00  0.51100000000E-03 0. -1.
         11    1    4    4    0    0  0.17825801794E-01  0.19717821131E-01 -0.16425575570E-01  0.31250797327E-01  0.51100000000E-03 0.  1.
</event>
<event>
 8    1  0.1075206E+005  0.1043930E+01  0.7957747E-01            NaN
         13   -1    0    0    0    0  0.00000000000E+00  0.00000000000E+00  0.74505805969E-08  0.10566000000E+00  0.10566000000E+00 0. -1.
     999900   -1    0    0    0    0 -0.00000000000E+00 -0.00000000000E+00 -0.74505805969E-08  0.93827000000E+00  0.93827000000E+00 0. -1.
     999902    2    1    2    0    0 -0.23000162023E-01  0.23633764338E-03 -0.56875956026E-02  0.10202358646E+01  0.10199606891E+01 0.  0.
     999903    2    3    3    0    0  0.11154726186E+00  0.56057766588E-01  0.17116205596E-01  0.12796961815E+00  0.22315775872E-01 0.  0.
         14    1    1    2    0    0  0.23000162023E-01 -0.23633764338E-03  0.56875956026E-02  0.23694135399E-01  0.00000000000E+00 0. -1.
     999901    1    3    3    0    0 -0.13454742388E+00 -0.55821428944E-01 -0.22803801198E-01  0.89226624645E+00  0.88000000000E+00 0.  1.
        -11    1    4    4    0    0  0.71662272531E-01  0.23835657424E-01  0.91162878656E-02  0.76072253119E-01  0.51100000000E-03 0. -1.
         11    1    4    4    0    0  0.39884989329E-01  0.32222109163E-01  0.79999177301E-02  0.51897365033E-01  0.51100000000E-03 0.  1.
</event>
<event>
 8    1  0.1075206E+005  0.1043930E+01  0.7957747E-01            NaN
         13   -1    0    0    0    0  0.00000000000E+00  0.00000000000E+00  0.74505805969E-08  0.10566000000E+00  0.10566000000E+00 0. -1.
     999900   -1    0    0    0    0 -0.00000000000E+00 -0.00000000000E+00 -0.74505805969E-08  0.93827000000E+00  0.93827000000E+00 0.  1.
     999902    2    1    2    0    0  0.16003880378E-01  0.86052535333E-02 -0.15314755972E-01  0.10201662392E+01  0.10198894251E+01 0.  0.
     999903    2    3    3    0    0 -0.92240458204E-01 -0.63628140446E-03  0.86115919873E-01  0.12770311685E+00  0.19581302659E-01 0.  0.
         14    1    1    2    0    0 -0.16003880378E-01 -0.86052535333E-02  0.15314755972E-01  0.23763760772E-01  0.00000000000E+00 0. -1.
     999901    1    3    3    0    0  0.10824433858E+00  0.92415349378E-02 -0.10143067585E+00  0.89246312238E+00  0.88000000000E+00 0.  1.
        -11    1    4    4    0    0 -0.35920957078E-01  0.91358688652E-02  0.36235883388E-01  0.51837048751E-01  0.51100000000E-03 0.  1.
         11    1    4    4    0    0 -0.56319501126E-01 -0.97721502697E-02  0.49880036485E-01  0.75866068098E-01  0.51100000000E-03 0. -1.
</event>
<event>
 8    1  0.1075206E+005  0.1043930E+01  0.7957747E-01            NaN
         13   -1    0    0    0    0  0.00000000000E+00  0.00000000000E+00  0.74505805969E-08  0.10566000000E+00  0.10566000000E+00 0. -1.
     999900   -1    0    0    0    0 -0.00000000000E+00 -0.00000000000E+00 -0.74505805969E-08  0.93827000000E+00  0.93827000000E+00 0. -1.
     999902    2    1    2    0    0  0.22973443342E-01  0.60312776749E-03  0.50719710189E-02  0.10203956049E+01  0.10201241703E+01 0.  0.
     999903    2    3    3    0    0  0.51806193334E-01 -0.11775436279E+00  0.20428992074E-01  0.13187117580E+00  0.20559466569E-01 0.  0.
         14    1    1    2    0    0 -0.22973443342E-01 -0.60312776749E-03 -0.50719710189E-02  0.23534395087E-01  0.00000000000E+00 0.  1.
     999901    1    3    3    0    0 -0.28832749993E-01  0.11835749055E+00 -0.15357021055E-01  0.88852442912E+00  0.88000000000E+00 0.  1.
        -11    1    4    4    0    0  0.46774282475E-01 -0.87796716290E-01  0.20084281189E-01  0.10148761680E+00  0.51100000000E-03 0.  1.
         11    1    4    4    0    0  0.50319108590E-02 -0.29957646496E-01  0.34471088428E-03  0.30383558993E-01  0.51100000000E-03 0. -1.
</event>
<event>
 8    1  0.1075206E+005  0.1043930E+01  0.7957747E-01            NaN
         13   -1    0    0    0    0  0.00000000000E+00  0.00000000000E+00  0.74505805969E-08  0.10566000000E+00  0.10566000000E+00 0.  1.
     999900   -1    0    0    0    0 -0.00000000000E+00 -0.00000000000E+00 -0.74505805969E-08  0.93827000000E+00  0.93827000000E+00 0.  1.
     999902    2    1    2    0    0 -0.81981705630E-02  0.15380489219E-01  0.18211847959E-01  0.10187220478E+01  0.10184101187E+01 0.  0.
     999903    2    3    3    0    0  0.12217703768E-01 -0.21949205532E-01 -0.12240802428E+00  0.12654254650E+00  0.19956246044E-01 0.  0.
         14    1    1    2    0    0  0.81981705630E-02 -0.15380489219E-01 -0.18211847959E-01  0.25207952223E-01  0.00000000000E+00 0. -1.
     999901    1    3    3    0    0 -0.20415874331E-01  0.37329694750E-01  0.14061987224E+00  0.89217950128E+00  0.88000000000E+00 0. -1.
        -11    1    4    4    0    0  0.10127407386E-01 -0.41121118868E-02 -0.75902645771E-01  0.76687330118E-01  0.51100000000E-03 0. -1.
         11    1    4    4    0    0  0.20902963818E-02 -0.17837093645E-01 -0.46505378512E-01  0.49855216379E-01  0.51100000000E-03 0.  1.
</event>
<event>
 8    1  0.1311523E+005  0.1043930E+01  0.7957747E-01            NaN
         13   -1    0    0    0    0  0.00000000000E+00  0.00000000000E+00  0.74505805969E-08  0.10566000000E+00  0.10566000000E+00 0. -1.
     999900   -1    0    0    0    0 -0.00000000000E+00 -0.00000000000E+00 -0.74505805969E-08  0.93827000000E+00  0.93827000000E+00 0. -1.
     999902    2    1    2    0    0 -0.20340894888E-01  0.11040320631E-01  0.67442567377E-02  0.10198234514E+01  0.10195384968E+01 0.  0.
     999903    2    3    3    0    0  0.69063885208E-01 -0.64331651657E-01  0.85613652768E-01  0.12859142187E+00  0.17253248746E-01 0.  0.
         14    1    1    2    0    0  0.20340894888E-01 -0.11040320631E-01 -0.67442567377E-02  0.24106548559E-01  0.00000000000E+00 0.  1.
     999901    1    3    3    0    0 -0.89404780096E-01  0.75371972288E-01 -0.78869396030E-01  0.89123202958E+00  0.88000000000E+00 0. -1.
        -11    1    4    4    0    0  0.19396316519E-01 -0.25958741202E-01  0.37098851610E-01  0.49261133271E-01  0.51100000000E-03 0. -1.
         11    1    4    4    0    0  0.49667568689E-01 -0.38372910454E-01  0.48514801158E-01  0.79330288595E-01  0.51100000000E-03 0.  1.
</event>
<event>
 8    1  0.1075206E+005  0.1043930E+01  0.7957747E-01            NaN
         13   -1    0    0    0    0  0.00000000000E+00  0.00000000000E+00  0.74505805969E-08  0.10566000000E+00  0.10566000000E+00 0.  1.
     999900   -1    0    0    0    0 -0.00000000000E+00 -0.00000000000E+00 -0.74505805969E-08  0.93827000000E+00  0.93827000000E+00 0.  1.
     999902    2    1    2    0    0  0.10471051774E-01  0.42261143584E-02  0.19253926628E-01  0.10216092326E+01  0.10213653643E+01 0.  0.
     999903    2    3    3    0    0  0.50429607564E-01 -0.12017780408E+00 -0.21995680248E-03  0.13174842703E+00  0.19280812511E-01 0.  0.
         14    1    1    2    0    0 -0.10471051774E-01 -0.42261143584E-02 -0.19253926628E-01  0.22320767424E-01  0.00000000000E+00 0.  1.
     999901    1    3    3    0    0 -0.39958555790E-01  0.12440391844E+00  0.19473883430E-01  0.88986080554E+00  0.88000000000E+00 0.  1.
        -11    1    4    4    0    0  0.15983523262E-01 -0.59744851106E-01 -0.48092224052E-02  0.62034748252E-01  0.51100000000E-03 0. -1.
         11    1    4    4    0    0  0.34446084301E-01 -0.60432952978E-01  0.45892656027E-02  0.69713678781E-01  0.51100000000E-03 0.  1.
</event>
<event>
 8    1  0.1075206E+005  0.1043930E+01  0.7957747E-01            NaN
         13   -1    0    0    0    0  0.00000000000E+00  0.00000000000E+00  0.74505805969E-08  0.10566000000E+00  0.10566000000E+00 0. -1.
     999900   -1    0    0    0    0 -0.00000000000E+00 -0.00000000000E+00 -0.74505805969E-08  0.93827000000E+00  0.93827000000E+00 0. -1.
     999902    2    1    2    0    0 -0.11351051467E-01  0.11529240438E-01 -0.17673468693E-01  0.10199691726E+01  0.10196876933E+01 0.  0.
     999903    2    3    3    0    0 -0.13967898158E-01  0.97788562659E-01 -0.86898201412E-01  0.13304212814E+00  0.19778910127E-01 0.  0.
         14    1    1    2    0    0  0.11351051467E-01 -0.11529240438E-01  0.17673468693E-01  0.23960827409E-01  0.00000000000E+00 0. -1.
     999901    1    3    3    0    0  0.26168466905E-02 -0.86259322221E-01  0.69224732719E-01  0.88692704445E+00  0.88000000000E+00 0.  1.
        -11    1    4    4    0    0 -0.87818407570E-02  0.47004239493E-01 -0.29328923151E-01  0.56097826265E-01  0.51100000000E-03 0.  1.
         11    1    4    4    0    0 -0.51860574009E-02  0.50784323166E-01 -0.57569278261E-01  0.76944301876E-01  0.51100000000E-03 0. -1.
</event>
<event>
 8    1  0.1075206E+005  0.1043930E+01  0.7957747E-01            NaN
         13   -1    0    0    0    0  0.00000000000E+00  0.00000000000E+00  0.74505805969E-08  0.10566000000E+00  0.10566000000E+00 0. -1.
     999900   -1    0    0    0    0 -0.00000000000E+00 -0.00000000000E+00 -0.74505805969E-08  0.93827000000E+00  0.93827000000E+00 0.  1.
     999902    2    1    2    0    0 -0.16281895465E-01  0.13893821807E-01 -0.19340384187E-02  0.10224386318E+01  0.10222127356E+01 0.  0.
     999903    2    3    3    0    0 -0.83865166843E-01 -0.10056701367E+00 -0.74154919140E-03  0.13245537154E+00  0.19919465538E-01 0.  0.
         14    1    1    2    0    0  0.16281895465E-01 -0.13893821807E-01  0.19340384187E-02  0.21491368243E-01  0.00000000000E+00 0. -1.
     999901    1    3    3    0    0  0.67583271378E-01  0.11446083548E+00 -0.11924892273E-02  0.88998326021E+00  0.88000000000E+00 0. -1.
        -11    1    4    4    0    0 -0.37806447114E-01 -0.59056338062E-01  0.42258088773E-02  0.70250246194E-01  0.51100000000E-03 0.  1.
         11    1    4    4    0    0 -0.46058719729E-01 -0.41510675610E-01 -0.49673580687E-02  0.62205125350E-01  0.51100000000E-03 0. -1.
</event>
<event>
 8    1  0.1075206E+005  0.1043930E+01  0.7957747E-01            NaN
         13   -1    0    0    0    0  0.00000000000E+00  0.00000000000E+00  0.74505805969E-08  0.10566000000E+00  0.10566000000E+00 0.  1.
     999900   -1    0    0    0    0 -0.00000000000E+00 -0.00000000000E+00 -0.74505805969E-08  0.93827000000E+00  0.93827000000E+00 0.  1.
     999902    2    1    2    0    0 -0.10462532756E-02  0.19730675374E-01  0.12425212394E-01  0.10205894752E+01  0.10203225454E+01 0.  0.
     999903    2    3    3    0    0  0.88505296146E-01  0.75901118276E-02 -0.92458143703E-01  0.12976547926E+00  0.19994349890E-01 0.  0.
         14    1    1    2    0    0  0.10462532756E-02 -0.19730675374E-01 -0.12425212394E-01  0.23340524837E-01  0.00000000000E+00 0.  1.
     999901    1    3    3    0    0 -0.89551549422E-01  0.12140563546E-01  0.10488335610E+00  0.89082399590E+00  0.88000000000E+00 0. -1.
        -11    1    4    4    0    0  0.35285643594E-01  0.12879404334E-01 -0.37711454639E-01  0.53229415099E-01  0.51100000000E-03 0.  1.
         11    1    4    4    0    0  0.53219652552E-01 -0.52892925061E-02 -0.54746689064E-01  0.76536064162E-01  0.51100000000E-03 0. -1.
</event>
<event>
 8    1  0.1075206E+005  0.1043930E+01  0.7957747E-01            NaN
         13   -1    0    0    0    0  0.00000000000E+00  0.00000000000E+00  0.74505805969E-08  0.10566000000E+00  0.10566000000E+00 0. -1.
     999900   -1    0    0    0    0 -0.00000000000E+00 -0.00000000000E+00 -0.74505805969E-08  0.93827000000E+00  0.93827000000E+00 0.  1.
     999902    2    1    2    0    0  0.68034174028E-02  0.18220808493E-01  0.14234281282E-01  0.10198281512E+01  0.10195433090E+01 0.  0.
     999903    2    3    3    0    0  0.80960705323E-01 -0.21541651002E-03 -0.98846130885E-01  0.12930786659E+00  0.19881764512E-01 0.  0.
         14    1    1    2    0    0 -0.68034174028E-02 -0.18220808493E-01 -0.14234281282E-01  0.24101848769E-01  0.00000000000E+00 0. -1.
     999901    1    3    3    0    0 -0.74157287920E-01  0.18436225003E-01  0.11308041217E+00  0.89052028464E+00  0.88000000000E+00 0. -1.
        -11    1    4    4    0    0  0.50536946179E-01  0.92934291846E-02 -0.64057546491E-01  0.82121745832E-01  0.51100000000E-03 0.  1.
         11    1    4    4    0    0  0.30423759144E-01 -0.95088456947E-02 -0.34788584394E-01  0.47186120756E-01  0.51100000000E-03 0. -1.
</event>
<event>
 8    1  0.1075206E+005  0.1043930E+01  0.7957747E-01            NaN
         13   -1    0    0    0    0  0.00000000000E+00  0.00000000000E+00  0.74505805969E-08  0.10566000000E+00  0.10566000000E+00 0.  1.
     999900   -1    0    0    0    0 -0.00000000000E+00 -0.00000000000E+00 -0.74505805969E-08  0.93827000000E+00  0.93827000000E+00 0.  1.
     999902    2    1    2    0    0 -0.13476192872E-01  0.15163187510E-01  0.12021542546E-01  0.10203493402E+01  0.10200768249E+01 0.  0.
     999903    2    3    3    0    0 -0.44015689584E-01 -0.17218014504E-01  0.12178674768E+00  0.13241375509E+00  0.21622896982E-01 0.  0.
         14    1    1    2    0    0  0.13476192872E-01 -0.15163187510E-01 -0.12021542546E-01  0.23580659766E-01  0.00000000000E+00 0. -1.
     999901    1    3    3    0    0  0.30539496712E-01  0.32381202015E-01 -0.10976520513E+00  0.88793558514E+00  0.88000000000E+00 0.  1.
        -11    1    4    4    0    0 -0.11920973391E-01 -0.13698545214E-01  0.29545398226E-01  0.34683590138E-01  0.51100000000E-03 0. -1.
         11    1    4    4    0    0 -0.32094716194E-01 -0.35194692901E-02  0.92241349455E-01  0.97730164954E-01  0.51100000000E-03 0.  1.
</event>
<event>
 8    1  0.1075206E+005  0.1043930E+01  0.7957747E-01            NaN
         13   -1    0    0    0    0  0.00000000000E+00  0.00000000000E+00  0.74505805969E-08  0.10566000000E+00  0.10566000000E+00 0.  1.
     999900   -1    0    0    0    0 -0.00000000000E+00 -0.00000000000E+00 -0.74505805969E-08  0.93827000000E+00  0.93827000000E+00 0. -1.
     999902    2    1    2    0    0  0.36928641959E-02 -0.19003193583E-01  0.13831742960E-01  0.10201376541E+01  0.10198601657E+01 0.  0.
     999903    2    3    3    0    0  0.69250551441E-01  0.76312268781E-01 -0.73711702010E-01  0.12825946591E+00  0.19946787754E-01 0.  0.
         14    1    1    2    0    0 -0.36928641959E-02  0.19003193583E-01 -0.13831742960E-01  0.23792345947E-01  0.00000000000E+00 0. -1.
     999901    1    3    3    0    0 -0.65557687245E-01 -0.95315462365E-01  0.87543444970E-01  0.89187818814E+00  0.88000000000E+00 0. -1.
        -11    1    4    4    0    0  0.60047252654E-01  0.74092286170E-01 -0.65293090439E-01  0.11558022409E+00  0.51100000000E-03 0. -1.
         11    1    4    4    0    0  0.92032987872E-02  0.22199826107E-02 -0.84186115707E-02  0.12679241820E-01  0.51100000000E-03 0.  1.
</event>
<event>
 8    1  0.1075206E+005  0.1043930E+01  0.7957747E-01            NaN
         13   -1    0    0    0    0  0.00000000000E+00  0.00000000000E+00  0.74505805969E-08  0.10566000000E+00  0.10566000000E+00 0. -1.
     999900   -1    0    0    0    0 -0.00000000000E+00 -0.00000000000E+00 -0.74505805969E-08  0.93827000000E+00  0.93827000000E+00 0. -1.
     999902    2    1    2    0    0  0.16186281122E-01 -0.17043639691E-01  0.20340482069E-02  0.10203372320E+01  0.10200644334E+01 0.  0.
     999903    2    3    3    0    0  0.81066663651E-02  0.67928717687E-01 -0.10795548126E+00  0.12939207190E+00  0.20196376139E-01 0.  0.
         14    1    1    2    0    0 -0.16186281122E-01  0.17043639691E-01 -0.20340482069E-02  0.23592768014E-01  0.00000000000E+00 0.  1.
     999901    1    3    3    0    0  0.80796147569E-02 -0.84972357378E-01  0.10998952947E+00  0.89094516009E+00  0.88000000000E+00 0.  1.
        -11    1    4    4    0    0  0.38278177763E-02  0.31360842992E-01 -0.68431228569E-01  0.75374059374E-01  0.51100000000E-03 0.  1.
         11    1    4    4    0    0  0.42788485887E-02  0.36567874696E-01 -0.39524252692E-01  0.54018012523E-01  0.51100000000E-03 0. -1.
</event>
<event>
 8    1  0.1075206E+005  0.1043930E+01  0.7957747E-01            NaN
         13   -1    0    0    0    0  0.00000000000E+00  0.00000000000E+00  0.74505805969E-08  0.10566000000E+00  0.10566000000E+00 0. -1.
     999900   -1    0    0    0    0 -0.00000000000E+00 -0.00000000000E+00 -0.74505805969E-08  0.93827000000E+00  0.93827000000E+00 0. -1.
     999902    2    1    2    0    0  0.12666726293E-02  0.22869104733E-01  0.71895510377E-02  0.10199239579E+01  0.10196414026E+01 0.  0.
     999903    2    3    3    0    0  0.66536819944E-01 -0.10353966338E+00  0.29876427158E-01  0.12820984281E+00  0.19938720930E-01 0.  0.
         14    1    1    2    0    0 -0.12666726293E-02 -0.22869104733E-01 -0.71895510377E-02  0.24006042051E-01  0.00000000000E+00 0. -1.
     999901    1    3    3    0    0 -0.65270147315E-01  0.12640876812E+00 -0.22686876121E-01  0.89171411514E+00  0.88000000000E+00 0.  1.
        -11    1    4    4    0    0  0.37458119119E-03 -0.10271814140E-01  0.33220409920E-02  0.10814229244E-01  0.51100000000E-03 0. -1.
         11    1    4    4    0    0  0.66162238753E-01 -0.93267849243E-01  0.26554386166E-01  0.11739561357E+00  0.51100000000E-03 0.  1.
</event>
<event>
 8    1  0.1075206E+005  0.1043930E+01  0.7957747E-01            NaN
         13   -1    0    0    0    0  0.00000000000E+00  0.00000000000E+00  0.74505805969E-08  0.10566000000E+00  0.10566000000E+00 0. -1.
     999900   -1    0    0    0    0 -0.00000000000E+00 -0.00000000000E+00 -0.74505805969E-08  0.93827000000E+00  0.93827000000E+00 0. -1.
     999902    2    1    2    0    0 -0.14467348738E-01  0.18990460884E-01 -0.35440938029E-02  0.10197949138E+01  0.10195092760E+01 0.  0.
     999903    2    3    3    0    0 -0.79398033831E-01  0.49341344197E-03  0.10191844517E+00  0.13093019871E+00  0.21238084567E-01 0.  0.
         14    1    1    2    0    0  0.14467348738E-01 -0.18990460884E-01  0.35440938029E-02  0.24135086181E-01  0.00000000000E+00 0.  1.
     999901    1    3    3    0    0  0.64930685093E-01  0.18497047442E-01 -0.10546253897E+00  0.88886471510E+00  0.88000000000E+00 0. -1.
        -11    1    4    4    0    0 -0.34627566476E-01  0.10610336767E-01  0.42308095465E-01  0.55694556908E-01  0.51100000000E-03 0.  1.
         11    1    4    4    0    0 -0.44770467355E-01 -0.10116923325E-01  0.59610349707E-01  0.75235641806E-01  0.51100000000E-03 0. -1.
</event>
<event>
 8    1  0.1075206E+005  0.1043930E+01  0.7957747E-01            NaN
         13   -1    0    0    0    0  0.00000000000E+00  0.00000000000E+00  0.74505805969E-08  0.10566000000E+00  0.10566000000E+00 0.  1.
     999900   -1    0    0    0    0 -0.00000000000E+00 -0.00000000000E+00 -0.74505805969E-08  0.93827000000E+00  0.93827000000E+00 0. -1.
     999902    2    1    2    0    0  0.49466890354E-02 -0.17081370113E-01 -0.15628650421E-01  0.10202551684E+01  0.10199804464E+01 0.  0.
     999903    2    3    3    0    0 -0.12621246793E+00 -0.11505679295E-01  0.19464945954E-01  0.12982528722E+00  0.20340928336E-01 0.  0.
         14    1    1    2    0    0 -0.49466890354E-02  0.17081370113E-01  0.15628650421E-01  0.23674831601E-01  0.00000000000E+00 0.  1.
     999901    1    3    3    0    0  0.13115915696E+00 -0.55756908181E-02 -0.35093596375E-01  0.89042988118E+00  0.88000000000E+00 0.  1.
        -11    1    4    4    0    0 -0.81028476409E-01 -0.16607334294E-01  0.93621238766E-02  0.83242585412E-01  0.51100000000E-03 0.  1.
         11    1    4    4    0    0 -0.45183991517E-01  0.51016549994E-02  0.10102822077E-01  0.46582701812E-01  0.51100000000E-03 0. -1.
</event>
<event>
 8    1  0.1075206E+005  0.1043930E+01  0.7957747E-01            NaN
         13   -1    0    0    0    0  0.00000000000E+00  0.00000000000E+00  0.74505805969E-08  0.10566000000E+00  0.10566000000E+00 0. -1.
     999900   -1    0    0    0    0 -0.00000000000E+00 -0.00000000000E+00 -0.74505805969E-08  0.93827000000E+00  0.93827000000E+00 0.  1.
     999902    2    1    2    0    0  0.92001909421E-02 -0.95786720311E-02  0.19262579494E-01  0.10205325335E+01  0.10202642846E+01 0.  0.
     999903    2    3    3    0    0  0.79788977109E-01  0.52745933692E-01  0.89803019766E-01  0.13270198268E+00  0.19920327756E-01 0.  0.
         14    1    1    2    0    0 -0.92001909421E-02  0.95786720311E-02 -0.19262579494E-01  0.23397466529E-01  0.00000000000E+00 0.  1.
     999901    1    3    3    0    0 -0.70588786167E-01 -0.62324605723E-01 -0.70540440272E-01  0.88783055079E+00  0.88000000000E+00 0.  1.
        -11    1    4    4    0    0  0.22984015201E-01  0.13182421449E-01  0.13733408887E-01  0.29848095931E-01  0.51100000000E-03 0. -1.
         11    1    4    4    0    0  0.56804961908E-01  0.39563512243E-01  0.76069610878E-01  0.10285388674E+00  0.51100000000E-03 0.  1.
</event>
<event>
 8    1  0.1075206E+005  0.1043930E+01  0.7957747E-01            NaN
         13   -1    0    0    0    0  0.00000000000E+00  0.00000000000E+00  0.74505805969E-08  0.10566000000E+00  0.10566000000E+00 0.  1.
     999900   -1    0    0    0    0 -0.00000000000E+00 -0.00000000000E+00 -0.74505805969E-08  0.93827000000E+00  0.93827000000E+00 0.  1.
     999902    2    1    2    0    0 -0.10881707270E-01 -0.20028755237E-01 -0.52684634038E-02  0.10205351438E+01  0.10202669555E+01 0.  0.
     999903    2    3    3    0    0 -0.68571456021E-01 -0.24748854330E-01 -0.10871657408E+00  0.13258700453E+00  0.21106158308E-01 0.  0.
         14    1    1    2    0    0  0.10881707270E-01  0.20028755237E-01  0.52684634038E-02  0.23394856189E-01  0.00000000000E+00 0.  1.
     999901    1    3    3    0    0  0.57689748750E-01  0.47200990925E-02  0.10344811068E+00  0.88794813928E+00  0.88000000000E+00 0. -1.
        -11    1    4    4    0    0 -0.17273950262E-01 -0.15718005355E-02 -0.41045262106E-01  0.44562703878E-01  0.51100000000E-03 0.  1.
         11    1    4    4    0    0 -0.51297505758E-01 -0.23177053794E-01 -0.67671311979E-01  0.88024300654E-01  0.51100000000E-03 0. -1.
</event>
<event>
 7    1  0.1075206E+005  0.1043930E+01  0.7957747E-01            NaN
         13   -1    0    0    0    0  0.00000000000E+00  0.00000000000E+00  0.74505805969E-08  0.10566000000E+00  0.10566000000E+00 0.  1.
     999900   -1    0    0    0    0 -0.00000000000E+00 -0.00000000000E+00 -0.74505805969E-08  0.93827000000E+00  0.93827000000E+00 0. -1.
     999903    2    1    2    0    0 -0.11211265750E-01 -0.21271495876E-01  0.15542032910E-01  0.36794008715E-01  0.23110068667E-01 0.  0.
         14    1    1    2    0    0 -0.39749569668E-01  0.11174181200E+00 -0.23930245144E-01  0.12099139420E+00  0.00000000000E+00 0. -1.
     999901    1    1    2    0    0  0.50960835418E-01 -0.90470316120E-01  0.83882122336E-02  0.88614459709E+00  0.88000000000E+00 0. -1.
        -11    1    3    3    0    0 -0.84889729299E-02 -0.15064257833E-01  0.21610819756E-01  0.27681820334E-01  0.51100000000E-03 0.  1.
         11    1    3    3    0    0 -0.27222928203E-02 -0.62072380425E-02 -0.60687868454E-02  0.91121883810E-02  0.51100000000E-03 0. -1.
</event>
<event>
 8    1  0.1075206E+005  0.1043930E+01  0.7957747E-01            NaN
         13   -1    0    0    0    0  0.00000000000E+00  0.00000000000E+00  0.74505805969E-08  0.10566000000E+00  0.10566000000E+00 0.  1.
     999900   -1    0    0    0    0 -0.00000000000E+00 -0.00000000000E+00 -0.74505805969E-08  0.93827000000E+00  0.93827000000E+00 0. -1.
     999902    2    1    2    0    0 -0.19731082011E-01 -0.27744468422E-02  0.12698135356E-01  0.10203025627E+01  0.10200289523E+01 0.  0.
     999903    2    3    3    0    0 -0.71060041649E-01 -0.95359086962E-01  0.54330839375E-01  0.13298082863E+00  0.24272941522E-01 0.  0.
         14    1    1    2    0    0  0.19731082011E-01  0.27744468422E-02 -0.12698135356E-01  0.23627437316E-01  0.00000000000E+00 0. -1.
     999901    1    3    3    0    0  0.51328959637E-01  0.92584640120E-01 -0.41632704019E-01  0.88732173406E+00  0.88000000000E+00 0.  1.
        -11    1    4    4    0    0 -0.39995255749E-01 -0.69756271248E-01  0.42859284839E-01  0.91119357322E-01  0.51100000000E-03 0.  1.
         11    1    4    4    0    0 -0.31064785899E-01 -0.25602815714E-01  0.11471554537E-01  0.41861471307E-01  0.51100000000E-03 0. -1.
</event>
<event>
 8    1  0.1143835E+005  0.1043930E+01  0.7957747E-01            NaN
         13   -1    0    0    0    0  0.00000000000E+00  0.00000000000E+00  0.74505805969E-08  0.10566000000E+00  0.10566000000E+00 0. -1.
     999900   -1    0    0    0    0 -0.00000000000E+00 -0.00000000000E+00 -0.74505805969E-08  0.93827000000E+00  0.93827000000E+00 0. -1.
     999902    2    1    2    0    0  0.23362667512E-01  0.59669660686E-03  0.49274867780E-03  0.10205545197E+01  0.10202867805E+01 0.  0.
     999903    2    3    3    0    0  0.56230900121E-01 -0.37840913013E-01  0.11163187296E+00  0.13212350067E+00  0.20027369861E-01 0.  0.
         14    1    1    2    0    0 -0.23362667512E-01 -0.59669660686E-03 -0.49274867780E-03  0.23375480346E-01  0.00000000000E+00 0. -1.
     999901    1    3    3    0    0 -0.32868232609E-01  0.38437609620E-01 -0.11113912428E+00  0.88843101898E+00  0.88000000000E+00 0. -1.
        -11    1    4    4    0    0  0.43857510457E-01 -0.23349239510E-01  0.93142948919E-01  0.10556769517E+00  0.51100000000E-03 0. -1.
         11    1    4    4    0    0  0.12373389664E-01 -0.14491673504E-01  0.18488924038E-01  0.26555805501E-01  0.51100000000E-03 0.  1.
</event>
<event>
 7    1  0.1075206E+005  0.1043930E+01  0.7957747E-01            NaN
         13   -1    0    0    0    0  0.00000000000E+00  0.00000000000E+00  0.74505805969E-08  0.10566000000E+00  0.10566000000E+00 0. -1.
     999900   -1    0    0    0    0 -0.00000000000E+00 -0.00000000000E+00 -0.74505805969E-08  0.93827000000E+00  0.93827000000E+00 0. -1.
     999903    2    1    2    0    0 -0.26973186504E-01  0.68443996176E-01  0.91069960600E-01  0.11994556501E+00  0.26097268826E-01 0.  0.
         14    1    1    2    0    0  0.79478817496E-02 -0.33312244296E-01 -0.21274658768E-01  0.40317310799E-01  0.00000000000E+00 0.  1.
     999901    1    1    2    0    0  0.19025304755E-01 -0.35131751879E-01 -0.69795301831E-01  0.88366712419E+00  0.88000000000E+00 0. -1.
        -11    1    3    3    0    0 -0.68873461012E-02  0.39836493535E-03  0.10672707245E-01  0.12718570355E-01  0.51100000000E-03 0. -1.
         11    1    3    3    0    0 -0.20085840403E-01  0.68045631240E-01  0.80397253355E-01  0.10722699466E+00  0.51100000000E-03 0.  1.
</event>
<event>
 8    1  0.1205483E+005  0.1043930E+01  0.7957747E-01            NaN
         13   -1    0    0    0    0  0.00000000000E+00  0.00000000000E+00  0.74505805969E-08  0.10566000000E+00  0.10566000000E+00 0.  1.
     999900   -1    0    0    0    0 -0.00000000000E+00 -0.00000000000E+00 -0.74505805969E-08  0.93827000000E+00  0.93827000000E+00 0.  1.
     999902    2    1    2    0    0 -0.63475474735E-02 -0.23012264901E-01 -0.68515490501E-03  0.10200485191E+01  0.10197689229E+01 0.  0.
     999903    2    3    3    0    0 -0.63143133669E-01 -0.77751927491E-01  0.84931373317E-01  0.13238171266E+00  0.16708145180E-01 0.  0.
         14    1    1    2    0    0  0.63475474735E-02  0.23012264901E-01  0.68515490501E-03  0.23881480944E-01  0.00000000000E+00 0.  1.
     999901    1    3    3    0    0  0.56795586196E-01  0.54739662590E-01 -0.85616528222E-01  0.88766680640E+00  0.88000000000E+00 0.  1.
        -11    1    4    4    0    0 -0.27831512261E-01 -0.21708408740E-01  0.29015402403E-01  0.45694669080E-01  0.51100000000E-03 0. -1.
         11    1    4    4    0    0 -0.35311621408E-01 -0.56043518751E-01  0.55915970914E-01  0.86687043581E-01  0.51100000000E-03 0.  1.
</event>
<event>
 8    1  0.1075206E+005  0.1043930E+01  0.7957747E-01            NaN
         13   -1    0    0    0    0  0.00000000000E+00  0.00000000000E+00  0.74505805969E-08  0.10566000000E+00  0.10566000000E+00 0.  1.
     999900   -1    0    0    0    0 -0.00000000000E+00 -0.00000000000E+00 -0.74505805969E-08  0.93827000000E+00  0.93827000000E+00 0. -1.
     999902    2    1    2    0    0 -0.22207414174E-01  0.48134666625E-02  0.48225620092E-02  0.10207007983E+01  0.10204364380E+01 0.  0.
     999903    2    3    3    0    0 -0.66469230821E-01  0.10600011855E+00  0.40678011521E-01  0.13307280182E+00  0.19987150508E-01 0.  0.
         14    1    1    2    0    0  0.22207414174E-01 -0.48134666625E-02 -0.48225620092E-02  0.23229201664E-01  0.00000000000E+00 0.  1.
     999901    1    3    3    0    0  0.44261816647E-01 -0.10118665189E+00 -0.35855449512E-01  0.88762799651E+00  0.88000000000E+00 0.  1.
        -11    1    4    4    0    0 -0.16727688619E-01  0.15096944251E-01  0.26602649728E-02  0.22695185017E-01  0.51100000000E-03 0.  1.
         11    1    4    4    0    0 -0.49741542202E-01  0.90903174300E-01  0.38017746548E-01  0.11037761681E+00  0.51100000000E-03 0. -1.
</event>
<event>
 8    1  0.1075206E+005  0.1043930E+01  0.7957747E-01            NaN
         13   -1    0    0    0    0  0.00000000000E+00  0.00000000000E+00  0.74505805969E-08  0.10566000000E+00  0.10566000000E+00 0. -1.
     999900   -1    0    0    0    0 -0.00000000000E+00 -0.00000000000E+00 -0.74505805969E-08  0.93827000000E+00  0.93827000000E+00 0. -1.
     999902    2    1    2    0    0  0.18220483456E-01 -0.67533869573E-02  0.10390349753E-01  0.10218947187E+01  0.10216571159E+01 0.  0.
     999903    2    3    3    0    0 -0.30956283197E-02  0.12142049523E+00 -0.43785651025E-01  0.13070564802E+00  0.20353466821E-01 0.  0.
         14    1    1    2    0    0 -0.18220483456E-01  0.67533869573E-02 -0.10390349753E-01  0.22035281272E-01  0.00000000000E+00 0.  1.
     999901    1    3    3    0    0  0.21316111775E-01 -0.12817388219E+00  0.54176000777E-01  0.89118907071E+00  0.88000000000E+00 0. -1.
        -11    1    4    4    0    0  0.74809726920E-02  0.66757037149E-01 -0.28448227087E-01  0.72952242643E-01  0.51100000000E-03 0. -1.
         11    1    4    4    0    0 -0.10576601012E-01  0.54663458079E-01 -0.15337423938E-01  0.57753405373E-01  0.51100000000E-03 0.  1.
</event>
<event>
 8    1  0.1075206E+005  0.1043930E+01  0.7957747E-01            NaN
         13   -1    0    0    0    0  0.00000000000E+00  0.00000000000E+00  0.74505805969E-08  0.10566000000E+00  0.10566000000E+00 0.  1.
     999900   -1    0    0    0    0 -0.00000000000E+00 -0.00000000000E+00 -0.74505805969E-08  0.93827000000E+00  0.93827000000E+00 0. -1.
     999902    2    1    2    0    0 -0.12957706264E-01 -0.13913613841E-01  0.13861193620E-01  0.10204007949E+01  0.10201294814E+01 0.  0.
     999903    2    3    3    0    0 -0.45633023952E-01 -0.11071337475E+00 -0.52257928620E-01  0.13202609449E+00  0.18978258559E-01 0.  0.
         14    1    1    2    0    0  0.12957706264E-01  0.13913613841E-01 -0.13861193620E-01  0.23529205050E-01  0.00000000000E+00 0.  1.
     999901    1    3    3    0    0  0.32675317688E-01  0.96799760910E-01  0.66119122239E-01  0.88837470046E+00  0.88000000000E+00 0.  1.
        -11    1    4    4    0    0 -0.19790195641E-01 -0.26826452889E-01 -0.11737203910E-01  0.35345911995E-01  0.51100000000E-03 0. -1.
         11    1    4    4    0    0 -0.25842828311E-01 -0.83886921861E-01 -0.40520724710E-01  0.96680182491E-01  0.51100000000E-03 0.  1.
</event>
<event>
 8    1  0.1075206E+005  0.1043930E+01  0.7957747E-01            NaN
         13   -1    0    0    0    0  0.00000000000E+00  0.00000000000E+00  0.74505805969E-08  0.10566000000E+00  0.10566000000E+00 0. -1.
     999900   -1    0    0    0    0 -0.00000000000E+00 -0.00000000000E+00 -0.74505805969E-08  0.93827000000E+00  0.93827000000E+00 0. -1.
     999902    2    1    2    0    0  0.14956256950E-01  0.64336387622E-02 -0.16117646912E-01  0.10210201796E+01  0.10207631200E+01 0.  0.
     999903    2    3    3    0    0  0.51413207635E-01  0.86860653933E-01  0.81439559159E-01  0.13123648537E+00  0.20062955315E-01 0.  0.
         14    1    1    2    0    0 -0.14956256950E-01 -0.64336387622E-02  0.16117646912E-01  0.22909820419E-01  0.00000000000E+00 0. -1.
     999901    1    3    3    0    0 -0.36456950685E-01 -0.80427015171E-01 -0.97557206070E-01  0.88978369421E+00  0.88000000000E+00 0. -1.
        -11    1    4    4    0    0  0.45525267744E-01  0.60687140307E-01  0.63779694011E-01  0.99114022676E-01  0.51100000000E-03 0.  1.
         11    1    4    4    0    0  0.58879398913E-02  0.26173513625E-01  0.17659865147E-01  0.32122462696E-01  0.51100000000E-03 0. -1.
</event>
<event>
 8    1  0.1075206E+005  0.1043930E+01  0.7957747E-01            NaN
         13   -1    0    0    0    0  0.00000000000E+00  0.00000000000E+00  0.74505805969E-08  0.10566000000E+00  0.10566000000E+00 0.  1.
     999900   -1    0    0    0    0 -0.00000000000E+00 -0.00000000000E+00 -0.74505805969E-08  0.93827000000E+00  0.93827000000E+00 0.  1.
     999902    2    1    2    0    0  0.97546726743E-02  0.94043533953E-02  0.19700318513E-01  0.10200197919E+01  0.10197395147E+01 0.  0.
     999903    2    3    3    0    0  0.11287671391E+00 -0.53061230388E-01 -0.32557050800E-01  0.13026311888E+00  0.18758248060E-01 0.  0.
         14    1    1    2    0    0 -0.97546726743E-02 -0.94043533953E-02 -0.19700318513E-01  0.23910208097E-01  0.00000000000E+00 0.  1.
     999901    1    3    3    0    0 -0.10312204123E+00  0.62465583784E-01  0.52257369312E-01  0.88975667303E+00  0.88000000000E+00 0. -1.
        -11    1    4    4    0    0  0.37202002110E-01 -0.22834562611E-01 -0.19184508797E-01  0.47683463689E-01  0.51100000000E-03 0. -1.
         11    1    4    4    0    0  0.75674711797E-01 -0.30226667778E-01 -0.13372542003E-01  0.82579655189E-01  0.51100000000E-03 0.  1.
</event>
<event>
 7    1  0.1075206E+005  0.1043930E+01  0.7957747E-01            NaN
         13   -1    0    0    0    0  0.00000000000E+00  0.00000000000E+00  0.74505805969E-08  0.10566000000E+00  0.10566000000E+00 0. -1.
     999900   -1    0    0    0    0 -0.00000000000E+00 -0.00000000000E+00 -0.74505805969E-08  0.93827000000E+00  0.93827000000E+00 0. -1.
     999903    2    1    2    0    0  0.27079457797E-01 -0.94142776487E-01  0.32635001965E-02  0.99387292016E-01  0.16462806003E-01 0.  0.
         14    1    1    2    0    0 -0.35608254307E-01 -0.38377884427E-01 -0.15147923842E-01  0.54500177840E-01  0.00000000000E+00 0.  1.
     999901    1    1    2    0    0  0.85287965102E-02  0.13252066091E+00  0.11884423645E-01  0.89004253014E+00  0.88000000000E+00 0. -1.
        -11    1    3    3    0    0  0.18411802861E-01 -0.39018620053E-01 -0.28960415216E-02  0.43244599349E-01  0.51100000000E-03 0.  1.
         11    1    3    3    0    0  0.86676549362E-02 -0.55124156434E-01  0.61595417181E-02  0.56142692667E-01  0.51100000000E-03 0. -1.
</event>
<event>
 8    1  0.1075206E+005  0.1043930E+01  0.7957747E-01            NaN
         13   -1    0    0    0    0  0.00000000000E+00  0.00000000000E+00  0.74505805969E-08  0.10566000000E+00  0.10566000000E+00 0.  1.
     999900   -1    0    0    0    0 -0.00000000000E+00 -0.00000000000E+00 -0.74505805969E-08  0.93827000000E+00  0.93827000000E+00 0. -1.
     999902    2    1    2    0    0  0.14481287448E-01  0.13510010449E-01 -0.13441993790E-01  0.10199943516E+01  0.10197134705E+01 0.  0.
     999903    2    3    3    0    0 -0.29897132575E-01 -0.25027772620E-01  0.12042641139E+00  0.12793193515E+00  0.18542694887E-01 0.  0.
         14    1    1    2    0    0 -0.14481287448E-01 -0.13510010449E-01  0.13441993790E-01  0.23935648425E-01  0.00000000000E+00 0.  1.
     999901    1    3    3    0    0  0.44378420023E-01  0.38537783069E-01 -0.13386840518E+00  0.89206241642E+00  0.88000000000E+00 0. -1.
        -11    1    4    4    0    0 -0.83071401795E-03 -0.86459816793E-02  0.14889301859E-01  0.17245159200E-01  0.51100000000E-03 0.  1.
         11    1    4    4    0    0 -0.29066418557E-01 -0.16381790941E-01  0.10553710953E+00  0.11068677595E+00  0.51100000000E-03 0. -1.
</event>
<event>
 8    1  0.1075206E+005  0.1043930E+01  0.7957747E-01            NaN
         13   -1    0    0    0    0  0.00000000000E+00  0.00000000000E+00  0.74505805969E-08  0.10566000000E+00  0.10566000000E+00 0. -1.
     999900   -1    0    0    0    0 -0.00000000000E+00 -0.00000000000E+00 -0.74505805969E-08  0.93827000000E+00  0.93827000000E+00 0.  1.
     999902    2    1    2    0    0 -0.16864328328E-01  0.72211390628E-02  0.15004793788E-01  0.10202299102E+01  0.10199545948E+01 0.  0.
     999903    2    3    3    0    0  0.85996005428E-01 -0.93239445007E-01  0.18549426755E-02  0.12846452863E+00  0.20267887113E-01 0.  0.
         14    1    1    2    0    0  0.16864328328E-01 -0.72211390628E-02 -0.15004793788E-01  0.23700089787E-01  0.00000000000E+00 0.  1.
     999901    1    3    3    0    0 -0.10286033376E+00  0.10046058407E+00  0.13149851112E-01  0.89176538159E+00  0.88000000000E+00 0.  1.
        -11    1    4    4    0    0  0.57852064123E-01 -0.51616970024E-01  0.75286199810E-02  0.77898101117E-01  0.51100000000E-03 0. -1.
         11    1    4    4    0    0  0.28143941305E-01 -0.41622474984E-01 -0.56736773055E-02  0.50566427510E-01  0.51100000000E-03 0.  1.
</event>
<event>
 8    1  0.1075206E+005  0.1043930E+01  0.7957747E-01            NaN
         13   -1    0    0    0    0  0.00000000000E+00  0.00000000000E+00  0.74505805969E-08  0.10566000000E+00  0.10566000000E+00 0.  1.
     999900   -1    0    0    0    0 -0.00000000000E+00 -0.00000000000E+00 -0.74505805969E-08  0.93827000000E+00  0.93827000000E+00 0. -1.
     999902    2    1    2    0    0  0.22262823659E-01 -0.48720808824E-02  0.30668381764E-02  0.10209348704E+01  0.10206758710E+01 0.  0.
     999903    2    3    3    0    0  0.10871774022E+00 -0.45217988559E-01 -0.59328744992E-01  0.13358181007E+00  0.21447295198E-01 0.  0.
         14    1    1    2    0    0 -0.22262823659E-01  0.48720808824E-02 -0.30668381764E-02  0.22995129610E-01  0.00000000000E+00 0. -1.
     999901    1    3    3    0    0 -0.86454916559E-01  0.40345907677E-01  0.62395583168E-01  0.88735306032E+00  0.88000000000E+00 0.  1.
        -11    1    4    4    0    0  0.29016474431E-01 -0.20142518311E-01 -0.24861027738E-01  0.43197322296E-01  0.51100000000E-03 0. -1.
         11    1    4    4    0    0  0.79701265787E-01 -0.25075470249E-01 -0.34467717253E-01  0.90384487772E-01  0.51100000000E-03 0.  1.
</event>
<event>
 8    1  0.1075206E+005  0.1043930E+01  0.7957747E-01            NaN
         13   -1    0    0    0    0  0.00000000000E+00  0.00000000000E+00  0.74505805969E-08  0.10566000000E+00  0.10566000000E+00 0. -1.
     999900   -1    0    0    0    0 -0.00000000000E+00 -0.00000000000E+00 -0.74505805969E-08  0.93827000000E+00  0.93827000000E+00 0. -1.
     999902    2    1    2    0    0  0.17095472320E-01  0.12961630532E-01  0.10406824675E-01  0.10200854820E+01  0.10198067609E+01 0.  0.
     999903    2    3    3    0    0  0.66256825852E-01 -0.10427269297E+00  0.36553815020E-01  0.13056629141E+00  0.21180500172E-01 0.  0.
         14    1    1    2    0    0 -0.17095472320E-01 -0.12961630532E-01 -0.10406824675E-01  0.23844518022E-01  0.00000000000E+00 0.  1.
     999901    1    3    3    0    0 -0.49161353531E-01  0.11723432351E+00 -0.26146990345E-01  0.88951919057E+00  0.88000000000E+00 0. -1.
        -11    1    4    4    0    0  0.40635873302E-01 -0.79461637083E-01  0.21205940279E-01  0.91735374807E-01  0.51100000000E-03 0.  1.
         11    1    4    4    0    0  0.25620952550E-01 -0.24811055891E-01  0.15347874741E-01  0.38830916600E-01  0.51100000000E-03 0. -1.
</event>
<event>
 8    1  0.1075206E+005  0.1043930E+01  0.7957747E-01            NaN
         13   -1    0    0    0    0  0.00000000000E+00  0.00000000000E+00  0.74505805969E-08  0.10566000000E+00  0.10566000000E+00 0. -1.
     999900   -1    0    0    0    0 -0.00000000000E+00 -0.00000000000E+00 -0.74505805969E-08  0.93827000000E+00  0.93827000000E+00 0. -1.
     999902    2    1    2    0    0  0.54296246647E-02  0.13512079256E-01  0.18200646847E-01  0.10206207603E+01  0.10203545539E+01 0.  0.
     999903    2    3    3    0    0 -0.45382366682E-01  0.91248309995E-01 -0.78886784126E-01  0.13042373195E+00  0.20035265467E-01 0.  0.
         14    1    1    2    0    0 -0.54296246647E-02 -0.13512079256E-01 -0.18200646847E-01  0.23309239702E-01  0.00000000000E+00 0.  1.
     999901    1    3    3    0    0  0.50811991347E-01 -0.77736230739E-01  0.97087430973E-01  0.89019702835E+00  0.88000000000E+00 0.  1.
        -11    1    4    4    0    0 -0.11730181002E-01  0.24487537085E-01 -0.10551161590E-01  0.29134597143E-01  0.51100000000E-03 0.  1.
         11    1    4    4    0    0 -0.33652185680E-01  0.66760772911E-01 -0.68335622536E-01  0.10128913480E+00  0.51100000000E-03 0. -1.
</event>
<event>
 8    1  0.1075206E+005  0.1043930E+01  0.7957747E-01            NaN
         13   -1    0    0    0    0  0.00000000000E+00  0.00000000000E+00  0.74505805969E-08  0.10566000000E+00  0.10566000000E+00 0. -1.
     999900   -1    0    0    0    0 -0.00000000000E+00 -0.00000000000E+00 -0.74505805969E-08  0.93827000000E+00  0.93827000000E+00 0.  1.
     999902    2    1    2    0    0  0.19057218771E-01  0.11578381110E-01 -0.72540105858E-02  0.10204809666E+01  0.10202115203E+01 0.  0.
     999903    2    3    3    0    0 -0.68606674254E-01 -0.10635483752E+00 -0.43215904824E-02  0.12829163623E+00  0.20538757644E-01 0.  0.
         14    1    1    2    0    0 -0.19057218771E-01 -0.11578381110E-01  0.72540105858E-02  0.23449033370E-01  0.00000000000E+00 0. -1.
     999901    1    3    3    0    0  0.87663893025E-01  0.11793321863E+00 -0.29324201034E-02  0.89218933040E+00  0.88000000000E+00 0. -1.
        -11    1    4    4    0    0 -0.41997320084E-01 -0.58613612496E-01 -0.11988918255E-01  0.73098055693E-01  0.51100000000E-03 0.  1.
         11    1    4    4    0    0 -0.26609354170E-01 -0.47741225024E-01  0.76673277724E-02  0.55193580535E-01  0.51100000000E-03 0. -1.
</event>
<event>
 8    1  0.1075206E+005  0.1043930E+01  0.7957747E-01            NaN
         13   -1    0    0    0    0  0.00000000000E+00  0.00000000000E+00  0.74505805969E-08  0.10566000000E+00  0.10566000000E+00 0. -1.
     999900   -1    0    0    0    0 -0.00000000000E+00 -0.00000000000E+00 -0.74505805969E-08  0.93827000000E+00  0.93827000000E+00 0.  1.
     999902    2    1    2    0    0  0.22944434591E-02  0.17547121631E-01 -0.15151935416E-01  0.10206330668E+01  0.10203671447E+01 0.  0.
     999903    2    3    3    0    0  0.10985961095E+00  0.65392546081E-01  0.25644990929E-01  0.13185646999E+00  0.19574062331E-01 0.  0.
         14    1    1    2    0    0 -0.22944434591E-02 -0.17547121631E-01  0.15151935416E-01  0.23296933171E-01  0.00000000000E+00 0. -1.
     999901    1    3    3    0    0 -0.10756516749E+00 -0.47845424450E-01 -0.40796926344E-01  0.88877659684E+00  0.88000000000E+00 0. -1.
        -11    1    4    4    0    0  0.42256879589E-01  0.27393046334E-01  0.19697225499E-01  0.54076470608E-01  0.51100000000E-03 0.  1.
         11    1    4    4    0    0  0.67602731362E-01  0.37999499747E-01  0.59477654299E-02  0.77779999378E-01  0.51100000000E-03 0. -1.
</event>
<event>
 8    1  0.1075206E+005  0.1043930E+01  0.7957747E-01            NaN
         13   -1    0    0    0    0  0.00000000000E+00  0.00000000000E+00  0.74505805969E-08  0.10566000000E+00  0.10566000000E+00 0.  1.
     999900   -1    0    0    0    0 -0.00000000000E+00 -0.00000000000E+00 -0.74505805969E-08  0.93827000000E+00  0.93827000000E+00 0.  1.
     999902    2    1    2    0    0 -0.19872214220E-01  0.23771095821E-03  0.13196774028E-01  0.10200738425E+01  0.10197948460E+01 0.  0.
     999903    2    3    3    0    0 -0.11897756975E+00 -0.16012143285E-01 -0.51303028028E-01  0.13201632540E+00  0.19602516451E-01 0.  0.
         14    1    1    2    0    0  0.19872214220E-01 -0.23771095821E-03 -0.13196774028E-01  0.23856157470E-01  0.00000000000E+00 0. -1.
     999901    1    3    3    0    0  0.99105355534E-01  0.16249854244E-01  0.64499802056E-01  0.88805751713E+00  0.88000000000E+00 0. -1.
        -11    1    4    4    0    0 -0.46468711179E-01 -0.79260681983E-02 -0.30498839228E-01  0.56148054205E-01  0.51100000000E-03 0.  1.
         11    1    4    4    0    0 -0.72508858575E-01 -0.80860750870E-02 -0.20804188800E-01  0.75868271199E-01  0.51100000000E-03 0. -1.
</event>
<event>
 8    1  0.1075206E+005  0.1043930E+01  0.7957747E-01            NaN
         13   -1    0    0    0    0  0.00000000000E+00  0.00000000000E+00  0.74505805969E-08  0.10566000000E+00  0.10566000000E+00 0.  1.
     999900   -1    0    0    0    0 -0.00000000000E+00 -0.00000000000E+00 -0.74505805969E-08  0.93827000000E+00  0.93827000000E+00 0.  1.
     999902    2    1    2    0    0  0.13866731839E-01 -0.47409997733E-02  0.15015181878E-01  0.10229486031E+01  0.10227334088E+01 0.  0.
     999903    2    3    3    0    0  0.68887998287E-02 -0.13027543305E+00 -0.19509624515E-01  0.13334220261E+00  0.19503167125E-01 0.  0.
         14    1    1    2    0    0 -0.13866731839E-01  0.47409997733E-02 -0.15015181878E-01  0.20981396940E-01  0.00000000000E+00 0.  1.
     999901    1    3    3    0    0  0.69779320100E-02  0.12553443328E+00  0.34524806393E-01  0.88960640045E+00  0.88000000000E+00 0. -1.
        -11    1    4    4    0    0 -0.18042620745E-02 -0.26611728800E-02 -0.28952047048E-02  0.43566654695E-02  0.51100000000E-03 0.  1.
         11    1    4    4    0    0  0.86930619032E-02 -0.12761426017E+00 -0.16614419810E-01  0.12898553714E+00  0.51100000000E-03 0. -1.
</event>
<event>
 8    1  0.1075206E+005  0.1043930E+01  0.7957747E-01            NaN
         13   -1    0    0    0    0  0.00000000000E+00  0.00000000000E+00  0.74505805969E-08  0.10566000000E+00  0.10566000000E+00 0.  1.
     999900   -1    0    0    0    0 -0.00000000000E+00 -0.00000000000E+00 -0.74505805969E-08  0.93827000000E+00  0.93827000000E+00 0. -1.
     999902    2    1    2    0    0 -0.16390574104E-01 -0.12474712610E-01  0.10922011865E-01  0.10206156328E+01  0.10203493079E+01 0.  0.
     999903    2    3    3    0    0 -0.91354303812E-01 -0.36957668259E-01  0.88212115229E-01  0.13371499804E+00  0.19668384746E-01 0.  0.
         14    1    1    2    0    0  0.16390574104E-01  0.12474712610E-01 -0.10922011865E-01  0.23314367187E-01  0.00000000000E+00 0. -1.
     999901    1    3    3    0    0  0.74963729708E-01  0.24482955649E-01 -0.77290103364E-01  0.88690063478E+00  0.88000000000E+00 0.  1.
        -11    1    4    4    0    0 -0.80203460915E-01 -0.31881270866E-01  0.84775315003E-01  0.12097985671E+00  0.51100000000E-03 0. -1.
         11    1    4    4    0    0 -0.11150842897E-01 -0.50763973924E-02  0.34368002264E-02  0.12735141326E-01  0.51100000000E-03 0.  1.
</event>
<event>
 8    1  0.1075206E+005  0.1043930E+01  0.7957747E-01            NaN
         13   -1    0    0    0    0  0.00000000000E+00  0.00000000000E+00  0.74505805969E-08  0.10566000000E+00  0.10566000000E+00 0. -1.
     999900   -1    0    0    0    0 -0.00000000000E+00 -0.00000000000E+00 -0.74505805969E-08  0.93827000000E+00  0.93827000000E+00 0. -1.
     999902    2    1    2    0    0 -0.48551630942E-02  0.88313737091E-02  0.19152006656E-01  0.10222882549E+01  0.10220591524E+01 0.  0.
     999903    2    3    3    0    0  0.27513763511E-01  0.29476110675E-02  0.13052302359E+00  0.13465890128E+00  0.18195175524E-01 0.  0.
         14    1    1    2    0    0  0.48551630942E-02 -0.88313737091E-02 -0.19152006656E-01  0.21641745060E-01  0.00000000000E+00 0.  1.
     999901    1    3    3    0    0 -0.32368926605E-01  0.58837626415E-02 -0.11137101693E+00  0.88762935366E+00  0.88000000000E+00 0. -1.
        -11    1    4    4    0    0  0.51381164991E-02 -0.67448749823E-02  0.27164592727E-01  0.28461725153E-01  0.51100000000E-03 0. -1.
         11    1    4    4    0    0  0.22375647012E-01  0.96924860499E-02  0.10335843086E+00  0.10619717612E+00  0.51100000000E-03 0.  1.
</event>
<event>
 8    1  0.1075206E+005  0.1043930E+01  0.7957747E-01            NaN
         13   -1    0    0    0    0  0.00000000000E+00  0.00000000000E+00  0.74505805969E-08  0.10566000000E+00  0.10566000000E+00 0. -1.
     999900   -1    0    0    0    0 -0.00000000000E+00 -0.00000000000E+00 -0.74505805969E-08  0.93827000000E+00  0.93827000000E+00 0. -1.
     999902    2    1    2    0    0  0.51220572710E-02  0.17708558009E-01  0.13328232264E-01  0.10211820271E+01  0.10209286273E+01 0.  0.
     999903    2    3    3    0    0 -0.12232536357E+00  0.26482408229E-01 -0.32681377952E-01  0.13076824137E+00  0.19168932375E-01 0.  0.
         14    1    1    2    0    0 -0.51220572710E-02 -0.17708558009E-01 -0.13328232264E-01  0.22747972936E-01  0.00000000000E+00 0.  1.
     999901    1    3    3    0    0  0.12744742084E+00 -0.87738502208E-02  0.46009610216E-01  0.89041378570E+00  0.88000000000E+00 0. -1.
        -11    1    4    4    0    0 -0.62885347371E-02  0.58108242620E-02 -0.39980085232E-02  0.94634317716E-02  0.51100000000E-03 0.  1.
         11    1    4    4    0    0 -0.11603682883E+00  0.20671583967E-01 -0.28683369428E-01  0.12130480960E+00  0.51100000000E-03 0. -1.
</event>
<event>
 8    1  0.1075206E+005  0.1043930E+01  0.7957747E-01            NaN
         13   -1    0    0    0    0  0.00000000000E+00  0.00000000000E+00  0.74505805969E-08  0.10566000000E+00  0.10566000000E+00 0.  1.
     999900   -1    0    0    0    0 -0.00000000000E+00 -0.00000000000E+00 -0.74505805969E-08  0.93827000000E+00  0.93827000000E+00 0. -1.
     999902    2    1    2    0    0  0.15890258471E-01  0.27877130001E-01 -0.60498626746E-02  0.10112767378E+01  0.10107494274E+01 0.  0.
     999903    2    3    3    0    0  0.22136359602E-01 -0.55359031915E-01 -0.10332445748E+00  0.12199072129E+00  0.25517675006E-01 0.  0.
         14    1    1    2    0    0 -0.15890258471E-01 -0.27877130001E-01  0.60498626746E-02  0.32653262161E-01  0.00000000000E+00 0. -1.
     999901    1    3    3    0    0 -0.62461011318E-02  0.83236161915E-01  0.97274594803E-01  0.88928601655E+00  0.88000000000E+00 0.  1.
        -11    1    4    4    0    0  0.42313951200E-02 -0.40765538247E-01 -0.74689995478E-01  0.85197361220E-01  0.51100000000E-03 0.  1.
         11    1    4    4    0    0  0.17904964482E-01 -0.14593493667E-01 -0.28634462000E-01  0.36793360074E-01  0.51100000000E-03 0. -1.
</event>
<event>
 8    1  0.1075206E+005  0.1043930E+01  0.7957747E-01            NaN
         13   -1    0    0    0    0  0.00000000000E+00  0.00000000000E+00  0.74505805969E-08  0.10566000000E+00  0.10566000000E+00 0. -1.
     999900   -1    0    0    0    0 -0.00000000000E+00 -0.00000000000E+00 -0.74505805969E-08  0.93827000000E+00  0.93827000000E+00 0. -1.
     999902    2    1    2    0    0  0.12317156436E-01 -0.23120157256E-01  0.15466374078E-02  0.10176879326E+01  0.10173495378E+01 0.  0.
     999903    2    3    3    0    0  0.35536172115E-01 -0.53421531506E-01 -0.11090467230E+00  0.12971124764E+00  0.20210934417E-01 0.  0.
         14    1    1    2    0    0 -0.12317156436E-01  0.23120157256E-01 -0.15466374078E-02  0.26242067400E-01  0.00000000000E+00 0. -1.
     999901    1    3    3    0    0 -0.23219015680E-01  0.30301374251E-01  0.11245130971E+00  0.88797668496E+00  0.88000000000E+00 0.  1.
        -11    1    4    4    0    0  0.12493442410E-01 -0.60993734790E-02 -0.31613195252E-01  0.34539016997E-01  0.51100000000E-03 0. -1.
         11    1    4    4    0    0  0.23042729706E-01 -0.47322158027E-01 -0.79291477048E-01  0.95172230646E-01  0.51100000000E-03 0.  1.
</event>
<event>
 8    1  0.1075206E+005  0.1043930E+01  0.7957747E-01            NaN
         13   -1    0    0    0    0  0.00000000000E+00  0.00000000000E+00  0.74505805969E-08  0.10566000000E+00  0.10566000000E+00 0.  1.
     999900   -1    0    0    0    0 -0.00000000000E+00 -0.00000000000E+00 -0.74505805969E-08  0.93827000000E+00  0.93827000000E+00 0.  1.
     999902    2    1    2    0    0 -0.11821828803E-01 -0.15061756516E-01 -0.10296823426E-01  0.10221897903E+01  0.10219585758E+01 0.  0.
     999903    2    3    3    0    0 -0.20577212846E-01  0.85078065399E-01 -0.94190613178E-01  0.13250287421E+00  0.31991266975E-01 0.  0.
         14    1    1    2    0    0  0.11821828803E-01  0.15061756516E-01  0.10296823426E-01  0.21740209711E-01  0.00000000000E+00 0.  1.
     999901    1    3    3    0    0  0.87553840428E-02 -0.10013982192E+00  0.83893789752E-01  0.88968691608E+00  0.88000000000E+00 0. -1.
        -11    1    4    4    0    0 -0.22687485134E-01  0.38694189941E-01 -0.59628104037E-01  0.74617251550E-01  0.51100000000E-03 0. -1.
         11    1    4    4    0    0  0.21102722877E-02  0.46383875458E-01 -0.34562509141E-01  0.57885622660E-01  0.51100000000E-03 0.  1.
</event>
<event>
 8    1  0.1075206E+005  0.1043930E+01  0.7957747E-01            NaN
         13   -1    0    0    0    0  0.00000000000E+00  0.00000000000E+00  0.74505805969E-08  0.10566000000E+00  0.10566000000E+00 0. -1.
     999900   -1    0    0    0    0 -0.00000000000E+00 -0.00000000000E+00 -0.74505805969E-08  0.93827000000E+00  0.93827000000E+00 0. -1.
     999902    2    1    2    0    0  0.18501479517E-01  0.12299421079E-01  0.11422067223E-01  0.10189491249E+01  0.10186428594E+01 0.  0.
     999903    2    3    3    0    0  0.68660040727E-02 -0.12016559579E+00  0.35754639557E-01  0.12862646478E+00  0.27918824613E-01 0.  0.
         14    1    1    2    0    0 -0.18501479517E-01 -0.12299421079E-01 -0.11422067223E-01  0.24980875141E-01  0.00000000000E+00 0. -1.
     999901    1    3    3    0    0  0.11635475444E-01  0.13246501687E+00 -0.24332572335E-01  0.89032266008E+00  0.88000000000E+00 0. -1.
        -11    1    4    4    0    0  0.11419175919E-02 -0.11379696671E+00  0.37595454129E-01  0.11985296367E+00  0.51100000000E-03 0.  1.
         11    1    4    4    0    0  0.57240864808E-02 -0.63686290789E-02 -0.18408145719E-02  0.87735011068E-02  0.51100000000E-03 0. -1.
</event>
<event>
 8    1  0.1075206E+005  0.1043930E+01  0.7957747E-01            NaN
         13   -1    0    0    0    0  0.00000000000E+00  0.00000000000E+00  0.74505805969E-08  0.10566000000E+00  0.10566000000E+00 0. -1.
     999900   -1    0    0    0    0 -0.00000000000E+00 -0.00000000000E+00 -0.74505805969E-08  0.93827000000E+00  0.93827000000E+00 0. -1.
     999902    2    1    2    0    0  0.87475527205E-02 -0.29123214011E-02 -0.16912090742E-01  0.10246681177E+01  0.10244870577E+01 0.  0.
     999903    2    3    3    0    0  0.63608264558E-01  0.35434682940E-01 -0.11410506181E+00  0.13679050002E+00  0.19749625056E-01 0.  0.
         14    1    1    2    0    0 -0.87475527205E-02  0.29123214011E-02  0.16912090742E-01  0.19261882250E-01  0.00000000000E+00 0. -1.
     999901    1    3    3    0    0 -0.54860711837E-01 -0.38347004341E-01  0.97192971065E-01  0.88787761773E+00  0.88000000000E+00 0. -1.
        -11    1    4    4    0    0  0.62416237043E-01  0.35660299364E-01 -0.11468443869E+00  0.13535222642E+00  0.51100000000E-03 0. -1.
         11    1    4    4    0    0  0.11920275144E-02 -0.22561642368E-03  0.57937688609E-03  0.14382735977E-02  0.51100000000E-03 0.  1.
</event>
<event>
 8    1  0.1075206E+005  0.1043930E+01  0.7957747E-01            NaN
         13   -1    0    0    0    0  0.00000000000E+00  0.00000000000E+00  0.74505805969E-08  0.10566000000E+00  0.10566000000E+00 0. -1.
     999900   -1    0    0    0    0 -0.00000000000E+00 -0.00000000000E+00 -0.74505805969E-08  0.93827000000E+00  0.93827000000E+00 0. -1.
     999902    2    1    2    0    0  0.77042112167E-02  0.28078978048E-02 -0.22054582046E-01  0.10204003644E+01  0.10201290409E+01 0.  0.
     999903    2    3    3    0    0 -0.12443934640E+00  0.29956064786E-01  0.83810492554E-02  0.12960001057E+00  0.18531163025E-01 0.  0.
         14    1    1    2    0    0 -0.77042112167E-02 -0.28078978048E-02  0.22054582046E-01  0.23529635564E-01  0.00000000000E+00 0. -1.
     999901    1    3    3    0    0  0.13214355762E+00 -0.27148166981E-01 -0.30435631302E-01  0.89080035386E+00  0.88000000000E+00 0.  1.
        -11    1    4    4    0    0 -0.15060440323E-01  0.67128816923E-02  0.65871767914E-02  0.17763210926E-01  0.51100000000E-03 0. -1.
         11    1    4    4    0    0 -0.10937890608E+00  0.23243183093E-01  0.17938724640E-02  0.11183679965E+00  0.51100000000E-03 0.  1.
</event>
<event>
 8    1  0.1075206E+005  0.1043930E+01  0.7957747E-01            NaN
         13   -1    0    0    0    0  0.00000000000E+00  0.00000000000E+00  0.74505805969E-08  0.10566000000E+00  0.10566000000E+00 0.  1.
     999900   -1    0    0    0    0 -0.00000000000E+00 -0.00000000000E+00 -0.74505805969E-08  0.93827000000E+00  0.93827000000E+00 0. -1.
     999902    2    1    2    0    0 -0.23026360867E-01 -0.65381062093E-02 -0.27694789143E-03  0.10199918124E+01  0.10197108710E+01 0.  0.
     999903    2    3    3    0    0 -0.10602957511E+00  0.69660799168E-01 -0.31559891424E-01  0.13225624964E+00  0.20019767312E-01 0.  0.
         14    1    1    2    0    0  0.23026360867E-01  0.65381062093E-02  0.27694789143E-03  0.23938187644E-01  0.00000000000E+00 0. -1.
     999901    1    3    3    0    0  0.83003214243E-01 -0.76198905377E-01  0.31282943533E-01  0.88773556272E+00  0.88000000000E+00 0.  1.
        -11    1    4    4    0    0 -0.38138710480E-01  0.17876248008E-01 -0.17959244616E-01  0.45792107050E-01  0.51100000000E-03 0. -1.
         11    1    4    4    0    0 -0.67890864629E-01  0.51784551161E-01 -0.13600646808E-01  0.86464142589E-01  0.51100000000E-03 0.  1.
</event>
<event>
 8    1  0.1075206E+005  0.1043930E+01  0.7957747E-01            NaN
         13   -1    0    0    0    0  0.00000000000E+00  0.00000000000E+00  0.74505805969E-08  0.10566000000E+00  0.10566000000E+00 0. -1.
     999900   -1    0    0    0    0 -0.00000000000E+00 -0.00000000000E+00 -0.74505805969E-08  0.93827000000E+00  0.93827000000E+00 0. -1.
     999902    2    1    2    0    0  0.15512666144E-01  0.69543762801E-02 -0.14463100730E-01  0.10216098870E+01  0.10213660332E+01 0.  0.
     999903    2    3    3    0    0 -0.71979203979E-01  0.78701587283E-01  0.71831137185E-01  0.13017891094E+00  0.20295096427E-01 0.  0.
         14    1    1    2    0    0 -0.15512666144E-01 -0.69543762801E-02  0.14463100730E-01  0.22320112972E-01  0.00000000000E+00 0. -1.
     999901    1    3    3    0    0  0.87491870123E-01 -0.71747211003E-01 -0.86294237916E-01  0.89143097608E+00  0.88000000000E+00 0. -1.
        -11    1    4    4    0    0 -0.26833559122E-01  0.16488893606E-01  0.17351376722E-01  0.35961853437E-01  0.51100000000E-03 0. -1.
         11    1    4    4    0    0 -0.45145644857E-01  0.62212693678E-01  0.54479760464E-01  0.94217057507E-01  0.51100000000E-03 0.  1.
</event>
<event>
 8    1  0.1075206E+005  0.1043930E+01  0.7957747E-01            NaN
         13   -1    0    0    0    0  0.00000000000E+00  0.00000000000E+00  0.74505805969E-08  0.10566000000E+00  0.10566000000E+00 0.  1.
     999900   -1    0    0    0    0 -0.00000000000E+00 -0.00000000000E+00 -0.74505805969E-08  0.93827000000E+00  0.93827000000E+00 0. -1.
     999902    2    1    2    0    0 -0.53365763920E-02  0.85592578480E-02 -0.22098839468E-01  0.10196380538E+01  0.10193486460E+01 0.  0.
     999903    2    3    3    0    0  0.38935157219E-01 -0.10728790296E+00  0.53918482008E-01  0.12769680901E+00  0.19303671649E-01 0.  0.
         14    1    1    2    0    0  0.53365763920E-02 -0.85592578480E-02  0.22098839468E-01  0.24291946162E-01  0.00000000000E+00 0.  1.
     999901    1    3    3    0    0 -0.44271733611E-01  0.11584716081E+00 -0.76017321476E-01  0.89194124483E+00  0.88000000000E+00 0. -1.
        -11    1    4    4    0    0  0.30204997906E-01 -0.65383460097E-01  0.25923429029E-01  0.76548181209E-01  0.51100000000E-03 0.  1.
         11    1    4    4    0    0  0.87301593132E-02 -0.41904442866E-01  0.27995052979E-01  0.51148627800E-01  0.51100000000E-03 0. -1.
</event>
<event>
 8    1  0.1075206E+005  0.1043930E+01  0.7957747E-01            NaN
         13   -1    0    0    0    0  0.00000000000E+00  0.00000000000E+00  0.74505805969E-08  0.10566000000E+00  0.10566000000E+00 0. -1.
     999900   -1    0    0    0    0 -0.00000000000E+00 -0.00000000000E+00 -0.74505805969E-08  0.93827000000E+00  0.93827000000E+00 0.  1.
     999902    2    1    2    0    0  0.16160026302E-01 -0.86603781784E-02  0.13454874203E-01  0.10211883589E+01  0.10209351018E+01 0.  0.
     999903    2    3    3    0    0 -0.20131918250E-01  0.12281255005E+00 -0.30955472293E-01  0.12957492530E+00  0.18525750127E-01 0.  0.
         14    1    1    2    0    0 -0.16160026302E-01  0.86603781784E-02 -0.13454874203E-01  0.22741641104E-01  0.00000000000E+00 0. -1.
     999901    1    3    3    0    0  0.36291944551E-01 -0.13147292823E+00  0.44410346496E-01  0.89161343360E+00  0.88000000000E+00 0. -1.
        -11    1    4    4    0    0 -0.31127917164E-02  0.70875499501E-01 -0.13676498667E-01  0.72251876368E-01  0.51100000000E-03 0. -1.
         11    1    4    4    0    0 -0.17019126533E-01  0.51937050553E-01 -0.17278973625E-01  0.57323048930E-01  0.51100000000E-03 0.  1.
</event>
<event>
 8    1  0.1075206E+005  0.1043930E+01  0.7957747E-01            NaN
         13   -1    0    0    0    0  0.00000000000E+00  0.00000000000E+00  0.74505805969E-08  0.10566000000E+00  0.10566000000E+00 0.  1.
     999900   -1    0    0    0    0 -0.00000000000E+00 -0.00000000000E+00 -0.74505805969E-08  0.93827000000E+00  0.93827000000E+00 0.  1.
     999902    2    1    2    0    0  0.78508577733E-02 -0.22056303604E-01  0.65304662884E-02  0.10196243734E+01  0.10193346356E+01 0.  0.
     999903    2    3    3    0    0  0.11178473326E-01 -0.18342098348E-01 -0.12649690204E+00  0.12961249194E+00  0.18345053880E-01 0.  0.
         14    1    1    2    0    0 -0.78508577733E-02  0.22056303604E-01 -0.65304662884E-02  0.24305626640E-01  0.00000000000E+00 0. -1.
     999901    1    3    3    0    0 -0.33276155526E-02 -0.37142052552E-02  0.13302736833E+00  0.89001188142E+00  0.88000000000E+00 0. -1.
        -11    1    4    4    0    0  0.99845885782E-02 -0.21937541525E-01 -0.10142628844E+00  0.10425210235E+00  0.51100000000E-03 0.  1.
         11    1    4    4    0    0  0.11938847478E-02  0.35954431767E-02 -0.25070613604E-01  0.25360389585E-01  0.51100000000E-03 0. -1.
</event>
<event>
 8    1  0.1075206E+005  0.1043930E+01  0.7957747E-01            NaN
         13   -1    0    0    0    0  0.00000000000E+00  0.00000000000E+00  0.74505805969E-08  0.10566000000E+00  0.10566000000E+00 0. -1.
     999900   -1    0    0    0    0 -0.00000000000E+00 -0.00000000000E+00 -0.74505805969E-08  0.93827000000E+00  0.93827000000E+00 0.  1.
     999902    2    1    2    0    0  0.88192984380E-02  0.24699090304E-01  0.20412847764E-02  0.10176242605E+01  0.10172842000E+01 0.  0.
     999903    2    3    3    0    0  0.52925627568E-01  0.11824333397E+00 -0.39450577882E-02  0.13154766670E+00  0.22508155251E-01 0.  0.
         14    1    1    2    0    0 -0.88192984380E-02 -0.24699090304E-01 -0.20412847764E-02  0.26305739494E-01  0.00000000000E+00 0.  1.
     999901    1    3    3    0    0 -0.44106329130E-01 -0.93544243662E-01  0.59863425646E-02  0.88607659380E+00  0.88000000000E+00 0. -1.
        -11    1    4    4    0    0  0.25245191962E-01  0.41818501718E-01  0.76302872950E-02  0.49442787223E-01  0.51100000000E-03 0.  1.
         11    1    4    4    0    0  0.27680435606E-01  0.76424832247E-01 -0.11575345083E-01  0.82104879478E-01  0.51100000000E-03 0. -1.
</event>
<event>
 8    1  0.1075206E+005  0.1043930E+01  0.7957747E-01            NaN
         13   -1    0    0    0    0  0.00000000000E+00  0.00000000000E+00  0.74505805969E-08  0.10566000000E+00  0.10566000000E+00 0.  1.
     999900   -1    0    0    0    0 -0.00000000000E+00 -0.00000000000E+00 -0.74505805969E-08  0.93827000000E+00  0.93827000000E+00 0. -1.
     999902    2    1    2    0    0  0.52673738115E-02 -0.91112572672E-03 -0.23048917643E-01  0.10202693157E+01  0.10199949258E+01 0.  0.
     999903    2    3    3    0    0 -0.12056922159E+00  0.44475744534E-01 -0.64646849981E-02  0.13000539219E+00  0.18562887694E-01 0.  0.
         14    1    1    2    0    0 -0.52673738115E-02  0.91112572672E-03  0.23048917643E-01  0.23660684298E-01  0.00000000000E+00 0.  1.
     999901    1    3    3    0    0  0.12583659540E+00 -0.45386870261E-01 -0.16584232645E-01  0.89026392351E+00  0.88000000000E+00 0.  1.
        -11    1    4    4    0    0 -0.80522294498E-01  0.29721389749E-01  0.44541470184E-02  0.85949412252E-01  0.51100000000E-03 0. -1.
         11    1    4    4    0    0 -0.40046927092E-01  0.14754354785E-01 -0.10918832017E-01  0.44055979938E-01  0.51100000000E-03 0.  1.
</event>
<event>
 8    1  0.1075206E+005  0.1043930E+01  0.7957747E-01            NaN
         13   -1    0    0    0    0  0.00000000000E+00  0.00000000000E+00  0.74505805969E-08  0.10566000000E+00  0.10566000000E+00 0. -1.
     999900   -1    0    0    0    0 -0.00000000000E+00 -0.00000000000E+00 -0.74505805969E-08  0.93827000000E+00  0.93827000000E+00 0. -1.
     999902    2    1    2    0    0 -0.10306967026E-01 -0.88827716902E-02 -0.20804131647E-01  0.10190714181E+01  0.10187681807E+01 0.  0.
     999903    2    3    3    0    0 -0.11658483264E-02 -0.56261245984E-01 -0.11784873594E+00  0.13242270798E+00  0.21926286149E-01 0.  0.
         14    1    1    2    0    0  0.10306967026E-01  0.88827716902E-02  0.20804131647E-01  0.24858581933E-01  0.00000000000E+00 0.  1.
     999901    1    3    3    0    0 -0.91411186993E-02  0.47378474294E-01  0.97044604292E-01  0.88664871009E+00  0.88000000000E+00 0.  1.
        -11    1    4    4    0    0  0.80428543959E-02 -0.45235782328E-01 -0.86943793019E-01  0.98338434883E-01  0.51100000000E-03 0. -1.
         11    1    4    4    0    0 -0.92087027223E-02 -0.11025463655E-01 -0.30904942920E-01  0.34084273096E-01  0.51100000000E-03 0.  1.
</event>
<event>
 8    1  0.1075206E+005  0.1043930E+01  0.7957747E-01            NaN
         13   -1    0    0    0    0  0.00000000000E+00  0.00000000000E+00  0.74505805969E-08  0.10566000000E+00  0.10566000000E+00 0.  1.
     999900   -1    0    0    0    0 -0.00000000000E+00 -0.00000000000E+00 -0.74505805969E-08  0.93827000000E+00  0.93827000000E+00 0. -1.
     999902    2    1    2    0    0 -0.78079007564E-02 -0.22267041463E-01 -0.55933491720E-02  0.10196798453E+01  0.10193914444E+01 0.  0.
     999903    2    3    3    0    0 -0.83494553494E-01  0.41321267997E-01  0.87378909808E-01  0.12927781054E+00  0.19972249916E-01 0.  0.
         14    1    1    2    0    0  0.78079007564E-02  0.22267041463E-01  0.55933491720E-02  0.24250154736E-01  0.00000000000E+00 0.  1.
     999901    1    3    3    0    0  0.75686652737E-01 -0.63588309460E-01 -0.92972258980E-01  0.89040203472E+00  0.88000000000E+00 0. -1.
        -11    1    4    4    0    0 -0.38533612755E-01  0.13801369949E-01  0.50177769625E-01  0.64756365015E-01  0.51100000000E-03 0.  1.
         11    1    4    4    0    0 -0.44960940739E-01  0.27519898048E-01  0.37201140183E-01  0.64521445524E-01  0.51100000000E-03 0. -1.
</event>
<event>
 8    1  0.1075206E+005  0.1043930E+01  0.7957747E-01            NaN
         13   -1    0    0    0    0  0.00000000000E+00  0.00000000000E+00  0.74505805969E-08  0.10566000000E+00  0.10566000000E+00 0.  1.
     999900   -1    0    0    0    0 -0.00000000000E+00 -0.00000000000E+00 -0.74505805969E-08  0.93827000000E+00  0.93827000000E+00 0.  1.
     999902    2    1    2    0    0  0.20640757563E-02  0.20145605437E-01  0.12739428006E-01  0.10200051415E+01  0.10197245167E+01 0.  0.
     999903    2    3    3    0    0  0.69428715221E-01 -0.20055498097E-01 -0.10465979689E+00  0.12874945353E+00  0.20004479436E-01 0.  0.
         14    1    1    2    0    0 -0.20640757563E-02 -0.20145605437E-01 -0.12739428006E-01  0.23924858476E-01  0.00000000000E+00 0.  1.
     999901    1    3    3    0    0 -0.67364639465E-01  0.40201103535E-01  0.11739922490E+00  0.89125568799E+00  0.88000000000E+00 0. -1.
        -11    1    4    4    0    0  0.45032391959E-01 -0.52087152682E-02 -0.74505306608E-01  0.87214384560E-01  0.51100000000E-03 0. -1.
         11    1    4    4    0    0  0.24396323262E-01 -0.14846782829E-01 -0.30154490284E-01  0.41535068970E-01  0.51100000000E-03 0.  1.
</event>
<event>
 8    1  0.1075206E+005  0.1043930E+01  0.7957747E-01            NaN
         13   -1    0    0    0    0  0.00000000000E+00  0.00000000000E+00  0.74505805969E-08  0.10566000000E+00  0.10566000000E+00 0. -1.
     999900   -1    0    0    0    0 -0.00000000000E+00 -0.00000000000E+00 -0.74505805969E-08  0.93827000000E+00  0.93827000000E+00 0. -1.
     999902    2    1    2    0    0  0.54072880842E-02 -0.21256197167E-01 -0.91084909699E-02  0.10201806992E+01  0.10199042257E+01 0.  0.
     999903    2    3    3    0    0 -0.21418397902E-01 -0.54609164312E-01 -0.11689684112E+00  0.13257134462E+00  0.21665210684E-01 0.  0.
         14    1    1    2    0    0 -0.54072880842E-02  0.21256197167E-01  0.91084909699E-02  0.23749300835E-01  0.00000000000E+00 0. -1.
     999901    1    3    3    0    0  0.26825685986E-01  0.33352967145E-01  0.10778835015E+00  0.88760935454E+00  0.88000000000E+00 0.  1.
        -11    1    4    4    0    0 -0.40677999529E-02 -0.17513680278E-01 -0.58799240012E-01  0.61488923721E-01  0.51100000000E-03 0. -1.
         11    1    4    4    0    0 -0.17350597949E-01 -0.37095484034E-01 -0.58097601112E-01  0.71082420899E-01  0.51100000000E-03 0.  1.
</event>
<event>
 8    1  0.1075206E+005  0.1043930E+01  0.7957747E-01            NaN
         13   -1    0    0    0    0  0.00000000000E+00  0.00000000000E+00  0.74505805969E-08  0.10566000000E+00  0.10566000000E+00 0.  1.
     999900   -1    0    0    0    0 -0.00000000000E+00 -0.00000000000E+00 -0.74505805969E-08  0.93827000000E+00  0.93827000000E+00 0. -1.
     999902    2    1    2    0    0  0.19688623209E-01 -0.55325683436E-02  0.11835933222E-01  0.10203007700E+01  0.10200271176E+01 0.  0.
     999903    2    3    3    0    0  0.11541968420E-01 -0.75874732742E-01 -0.10328564568E+00  0.12998208209E+00  0.18363685772E-01 0.  0.
         14    1    1    2    0    0 -0.19688623209E-01  0.55325683436E-02 -0.11835933222E-01  0.23629230025E-01  0.00000000000E+00 0.  1.
     999901    1    3    3    0    0  0.81466547893E-02  0.70342164398E-01  0.11512157891E+00  0.89031868789E+00  0.88000000000E+00 0.  1.
        -11    1    4    4    0    0 -0.10771723310E-02 -0.40672310514E-01 -0.44409771093E-01  0.60231935319E-01  0.51100000000E-03 0. -1.
         11    1    4    4    0    0  0.12619140751E-01 -0.35202422228E-01 -0.58875874591E-01  0.69750146766E-01  0.51100000000E-03 0.  1.
</event>
<event>
 8    1  0.1075206E+005  0.1043930E+01  0.7957747E-01            NaN
         13   -1    0    0    0    0  0.00000000000E+00  0.00000000000E+00  0.74505805969E-08  0.10566000000E+00  0.10566000000E+00 0. -1.
     999900   -1    0    0    0    0 -0.00000000000E+00 -0.00000000000E+00 -0.74505805969E-08  0.93827000000E+00  0.93827000000E+00 0.  1.
     999902    2    1    2    0    0 -0.23623612550E-01 -0.81224563165E-02 -0.29319236116E-02  0.10187775539E+01  0.10184670141E+01 0.  0.
     999903    2    3    3    0    0 -0.21318899822E-01 -0.97877980019E-01 -0.80804902962E-01  0.13078793314E+00  0.23269221111E-01 0.  0.
         14    1    1    2    0    0  0.23623612550E-01  0.81224563165E-02  0.29319236116E-02  0.25152446055E-01  0.00000000000E+00 0. -1.
     999901    1    3    3    0    0 -0.23047127278E-02  0.89755523703E-01  0.77872979351E-01  0.88798962080E+00  0.88000000000E+00 0. -1.
        -11    1    4    4    0    0  0.32619063365E-02 -0.11293700909E-01 -0.38875349011E-02  0.12392003945E-01  0.51100000000E-03 0.  1.
         11    1    4    4    0    0 -0.24580806158E-01 -0.86584279110E-01 -0.76917368061E-01  0.11839592920E+00  0.51100000000E-03 0. -1.
</event>
<event>
 8    1  0.1075206E+005  0.1043930E+01  0.7957747E-01            NaN
         13   -1    0    0    0    0  0.00000000000E+00  0.00000000000E+00  0.74505805969E-08  0.10566000000E+00  0.10566000000E+00 0.  1.
     999900   -1    0    0    0    0 -0.00000000000E+00 -0.00000000000E+00 -0.74505805969E-08  0.93827000000E+00  0.93827000000E+00 0.  1.
     999902    2    1    2    0    0 -0.17737613003E-01  0.13307551602E-01 -0.82473672159E-02  0.10202713248E+01  0.10199969820E+01 0.  0.
     999903    2    3    3    0    0 -0.12385712587E+00  0.16355920186E-01 -0.41934764990E-01  0.13325075893E+00  0.19726542700E-01 0.  0.
         14    1    1    2    0    0  0.17737613003E-01 -0.13307551602E-01  0.82473672159E-02  0.23658675167E-01  0.00000000000E+00 0.  1.
     999901    1    3    3    0    0  0.10611951287E+00 -0.30483685842E-02  0.33687397774E-01  0.88702056590E+00  0.88000000000E+00 0. -1.
        -11    1    4    4    0    0 -0.82634704462E-01  0.18063977819E-02 -0.24816617583E-01  0.86301118670E-01  0.51100000000E-03 0. -1.
         11    1    4    4    0    0 -0.41222421410E-01  0.14549522404E-01 -0.17118147406E-01  0.46949640262E-01  0.51100000000E-03 0.  1.
</event>
<event>
 8    1  0.1075206E+005  0.1043930E+01  0.7957747E-01            NaN
         13   -1    0    0    0    0  0.00000000000E+00  0.00000000000E+00  0.74505805969E-08  0.10566000000E+00  0.10566000000E+00 0. -1.
     999900   -1    0    0    0    0 -0.00000000000E+00 -0.00000000000E+00 -0.74505805969E-08  0.93827000000E+00  0.93827000000E+00 0.  1.
     999902    2    1    2    0    0 -0.67132455257E-04  0.46902897820E-02  0.22473233061E-01  0.10209724407E+01  0.10207142965E+01 0.  0.
     999903    2    3    3    0    0 -0.11075946977E+00  0.12489792455E-01 -0.62948998653E-01  0.12989972568E+00  0.22084094726E-01 0.  0.
         14    1    1    2    0    0  0.67132455257E-04 -0.46902897820E-02 -0.22473233061E-01  0.22957559305E-01  0.00000000000E+00 0.  1.
     999901    1    3    3    0    0  0.11069233731E+00 -0.77995026732E-02  0.85422231714E-01  0.89107271502E+00  0.88000000000E+00 0.  1.
        -11    1    4    4    0    0 -0.56352286427E-01  0.12501794018E-01 -0.21887710511E-01  0.61734982236E-01  0.51100000000E-03 0. -1.
         11    1    4    4    0    0 -0.54407183343E-01 -0.12001563022E-04 -0.41061288142E-01  0.68164743440E-01  0.51100000000E-03 0.  1.
</event>
<event>
 8    1  0.1075206E+005  0.1043930E+01  0.7957747E-01            NaN
         13   -1    0    0    0    0  0.00000000000E+00  0.00000000000E+00  0.74505805969E-08  0.10566000000E+00  0.10566000000E+00 0. -1.
     999900   -1    0    0    0    0 -0.00000000000E+00 -0.00000000000E+00 -0.74505805969E-08  0.93827000000E+00  0.93827000000E+00 0. -1.
     999902    2    1    2    0    0 -0.20498885432E-01  0.11971198446E-01 -0.59164527430E-03  0.10201841806E+01  0.10199077891E+01 0.  0.
     999903    2    3    3    0    0 -0.54630166416E-01  0.11946672234E+00 -0.56624260588E-02  0.13297172303E+00  0.19815731826E-01 0.  0.
         14    1    1    2    0    0  0.20498885432E-01 -0.11971198446E-01  0.59164527430E-03  0.23745819428E-01  0.00000000000E+00 0.  1.
     999901    1    3    3    0    0  0.34131280983E-01 -0.10749552389E+00  0.50707807845E-02  0.88721245754E+00  0.88000000000E+00 0. -1.
        -11    1    4    4    0    0 -0.26513928231E-01  0.35575789934E-01 -0.17548066261E-02  0.44406820275E-01  0.51100000000E-03 0.  1.
         11    1    4    4    0    0 -0.28116238185E-01  0.83890932405E-01 -0.39076194327E-02  0.88564902755E-01  0.51100000000E-03 0. -1.
</event>
<event>
 8    1  0.1075206E+005  0.1043930E+01  0.7957747E-01            NaN
         13   -1    0    0    0    0  0.00000000000E+00  0.00000000000E+00  0.74505805969E-08  0.10566000000E+00  0.10566000000E+00 0. -1.
     999900   -1    0    0    0    0 -0.00000000000E+00 -0.00000000000E+00 -0.74505805969E-08  0.93827000000E+00  0.93827000000E+00 0. -1.
     999902    2    1    2    0    0 -0.15402801824E-01  0.17816825044E-01 -0.65652357106E-02  0.10194802990E+01  0.10191870742E+01 0.  0.
     999903    2    3    3    0    0  0.39013898720E-01 -0.10683550801E+00 -0.54569217008E-01  0.12773831634E+00  0.20084022300E-01 0.  0.
         14    1    1    2    0    0  0.15402801824E-01 -0.17816825044E-01  0.65652357106E-02  0.24449700992E-01  0.00000000000E+00 0.  1.
     999901    1    3    3    0    0 -0.54416700544E-01  0.12465233305E+00  0.48003981298E-01  0.89174198267E+00  0.88000000000E+00 0.  1.
        -11    1    4    4    0    0  0.20059941204E-01 -0.31725364251E-01 -0.12374311544E-01  0.39525747118E-01  0.51100000000E-03 0. -1.
         11    1    4    4    0    0  0.18953957516E-01 -0.75110143756E-01 -0.42194905464E-01  0.88212569222E-01  0.51100000000E-03 0.  1.
</event>
<event>
 8    1  0.1075206E+005  0.1043930E+01  0.7957747E-01            NaN
         13   -1    0    0    0    0  0.00000000000E+00  0.00000000000E+00  0.74505805969E-08  0.10566000000E+00  0.10566000000E+00 0.  1.
     999900   -1    0    0    0    0 -0.00000000000E+00 -0.00000000000E+00 -0.74505805969E-08  0.93827000000E+00  0.93827000000E+00 0.  1.
     999902    2    1    2    0    0 -0.95598182604E-02  0.20856066738E-01  0.34553009644E-02  0.10207286046E+01  0.10204648840E+01 0.  0.
     999903    2    3    3    0    0 -0.90899120550E-01 -0.51605053877E-01 -0.75285008240E-01  0.13052259898E+00  0.21037696568E-01 0.  0.
         14    1    1    2    0    0  0.95598182604E-02 -0.20856066738E-01 -0.34553009644E-02  0.23201395426E-01  0.00000000000E+00 0.  1.
     999901    1    3    3    0    0  0.81339302290E-01  0.72461120616E-01  0.78740309205E-01  0.89020600559E+00  0.88000000000E+00 0. -1.
        -11    1    4    4    0    0 -0.50551996744E-01 -0.40464620712E-01 -0.44956294911E-01  0.78830320799E-01  0.51100000000E-03 0.  1.
         11    1    4    4    0    0 -0.40347123806E-01 -0.11140433165E-01 -0.30328713330E-01  0.51692278183E-01  0.51100000000E-03 0. -1.
</event>
<event>
 8    1  0.1075206E+005  0.1043930E+01  0.7957747E-01            NaN
         13   -1    0    0    0    0  0.00000000000E+00  0.00000000000E+00  0.74505805969E-08  0.10566000000E+00  0.10566000000E+00 0.  1.
     999900   -1    0    0    0    0 -0.00000000000E+00 -0.00000000000E+00 -0.74505805969E-08  0.93827000000E+00  0.93827000000E+00 0. -1.
     999902    2    1    2    0    0 -0.13257097353E-02 -0.42143117866E-02 -0.22836545569E-01  0.10206700399E+01  0.10204049709E+01 0.  0.
     999903    2    3    3    0    0 -0.11304581280E+00 -0.15664135516E-01  0.58455854172E-01  0.12981599229E+00  0.20257937562E-01 0.  0.
         14    1    1    2    0    0  0.13257097353E-02  0.42143117866E-02  0.22836545569E-01  0.23259960095E-01  0.00000000000E+00 0.  1.
     999901    1    3    3    0    0  0.11172010307E+00  0.11449823730E-01 -0.81292399741E-01  0.89085404761E+00  0.88000000000E+00 0.  1.
        -11    1    4    4    0    0 -0.49840012655E-02 -0.32093528136E-02  0.78292297918E-02  0.98335229816E-02  0.51100000000E-03 0. -1.
         11    1    4    4    0    0 -0.10806181154E+00 -0.12454782703E-01  0.50626624380E-01  0.11998246931E+00  0.51100000000E-03 0.  1.
</event>
<event>
 8    1  0.1075206E+005  0.1043930E+01  0.7957747E-01            NaN
         13   -1    0    0    0    0  0.00000000000E+00  0.00000000000E+00  0.74505805969E-08  0.10566000000E+00  0.10566000000E+00 0. -1.
     999900   -1    0    0    0    0 -0.00000000000E+00 -0.00000000000E+00 -0.74505805969E-08  0.93827000000E+00  0.93827000000E+00 0. -1.
     999902    2    1    2    0    0  0.13611998851E-01 -0.95606340763E-02 -0.16739725169E-01  0.10203310459E+01  0.10200581025E+01 0.  0.
     999903    2    3    3    0    0  0.11962353413E+00 -0.49450495599E-01 -0.23475430562E-01  0.13304585138E+00  0.19873633146E-01 0.  0.
         14    1    1    2    0    0 -0.13611998851E-01  0.95606340763E-02  0.16739725169E-01  0.23598954116E-01  0.00000000000E+00 0. -1.
     999901    1    3    3    0    0 -0.10601153528E+00  0.39889861523E-01  0.67357053927E-02  0.88728519451E+00  0.88000000000E+00 0. -1.
        -11    1    4    4    0    0  0.62171586374E-01 -0.15319972748E-01 -0.89173783018E-02  0.64651283623E-01  0.51100000000E-03 0. -1.
         11    1    4    4    0    0  0.57451947760E-01 -0.34130522851E-01 -0.14558052260E-01  0.68394567753E-01  0.51100000000E-03 0.  1.
</event>
<event>
 8    1  0.1075206E+005  0.1043930E+01  0.7957747E-01            NaN
         13   -1    0    0    0    0  0.00000000000E+00  0.00000000000E+00  0.74505805969E-08  0.10566000000E+00  0.10566000000E+00 0.  1.
     999900   -1    0    0    0    0 -0.00000000000E+00 -0.00000000000E+00 -0.74505805969E-08  0.93827000000E+00  0.93827000000E+00 0. -1.
     999902    2    1    2    0    0 -0.19501253759E-01  0.14498333670E-01  0.80941722407E-02  0.10183171868E+01  0.10179950278E+01 0.  0.
     999903    2    3    3    0    0  0.12456024281E+00  0.56925153435E-02  0.96723636675E-02  0.12655839207E+00  0.19385901184E-01 0.  0.
         14    1    1    2    0    0  0.19501253759E-01 -0.14498333670E-01 -0.80941722407E-02  0.25612813232E-01  0.00000000000E+00 0. -1.
     999901    1    3    3    0    0 -0.14406149657E+00  0.88058183260E-02 -0.15781914268E-02  0.89175879470E+00  0.88000000000E+00 0.  1.
        -11    1    4    4    0    0  0.65612348756E-01  0.81193927875E-02 -0.31164785423E-02  0.66188204448E-01  0.51100000000E-03 0.  1.
         11    1    4    4    0    0  0.58947894055E-01 -0.24268774440E-02  0.12788842210E-01  0.60370187624E-01  0.51100000000E-03 0. -1.
</event>
<event>
 8    1  0.1075206E+005  0.1043930E+01  0.7957747E-01            NaN
         13   -1    0    0    0    0  0.00000000000E+00  0.00000000000E+00  0.74505805969E-08  0.10566000000E+00  0.10566000000E+00 0.  1.
     999900   -1    0    0    0    0 -0.00000000000E+00 -0.00000000000E+00 -0.74505805969E-08  0.93827000000E+00  0.93827000000E+00 0. -1.
     999902    2    1    2    0    0  0.20672108975E-01 -0.52112383004E-02 -0.11787723715E-01  0.10195693037E+01  0.10192782356E+01 0.  0.
     999903    2    3    3    0    0 -0.89326602727E-01 -0.71234860196E-02 -0.90879997075E-01  0.12919917786E+00  0.20081525947E-01 0.  0.
         14    1    1    2    0    0 -0.20672108975E-01  0.52112383004E-02  0.11787723715E-01  0.24360696305E-01  0.00000000000E+00 0.  1.
     999901    1    3    3    0    0  0.10999871170E+00  0.19122477192E-02  0.79092273360E-01  0.89037012583E+00  0.88000000000E+00 0.  1.
        -11    1    4    4    0    0 -0.74879462479E-01 -0.12924660235E-01 -0.78956804915E-01  0.10958293164E+00  0.51100000000E-03 0. -1.
         11    1    4    4    0    0 -0.14447140248E-01  0.58011742157E-02 -0.11923192160E-01  0.19616246224E-01  0.51100000000E-03 0.  1.
</event>
<event>
 8    1  0.1075206E+005  0.1043930E+01  0.7957747E-01            NaN
         13   -1    0    0    0    0  0.00000000000E+00  0.00000000000E+00  0.74505805969E-08  0.10566000000E+00  0.10566000000E+00 0.  1.
     999900   -1    0    0    0    0 -0.00000000000E+00 -0.00000000000E+00 -0.74505805969E-08  0.93827000000E+00  0.93827000000E+00 0. -1.
     999902    2    1    2    0    0  0.82965814643E-02  0.18431894628E-01 -0.12015659917E-01  0.10204152368E+01  0.10201442601E+01 0.  0.
     999903    2    3    3    0    0 -0.10631602248E+00 -0.58666101975E-01 -0.30853102309E-01  0.12944105129E+00  0.32530964954E-01 0.  0.
         14    1    1    2    0    0 -0.82965814643E-02 -0.18431894628E-01  0.12015659917E-01  0.23514763168E-01  0.00000000000E+00 0.  1.
     999901    1    3    3    0    0  0.11461260394E+00  0.77097996603E-01  0.18837442392E-01  0.89097418554E+00  0.88000000000E+00 0. -1.
        -11    1    4    4    0    0 -0.58152001513E-01 -0.25684084748E-01 -0.34797651841E-03  0.63574442176E-01  0.51100000000E-03 0.  1.
         11    1    4    4    0    0 -0.48164020966E-01 -0.32982017227E-01 -0.30505125791E-01  0.65866609117E-01  0.51100000000E-03 0. -1.
</event>
<event>
 8    1  0.1075206E+005  0.1043930E+01  0.7957747E-01            NaN
         13   -1    0    0    0    0  0.00000000000E+00  0.00000000000E+00  0.74505805969E-08  0.10566000000E+00  0.10566000000E+00 0.  1.
     999900   -1    0    0    0    0 -0.00000000000E+00 -0.00000000000E+00 -0.74505805969E-08  0.93827000000E+00  0.93827000000E+00 0.  1.
     999902    2    1    2    0    0  0.17588387815E-01  0.84593159453E-02  0.12148785765E-01  0.10209407763E+01  0.10206819114E+01 0.  0.
     999903    2    3    3    0    0 -0.83242566017E-01 -0.91130494118E-01 -0.30074627498E-01  0.12860237177E+00  0.19999876245E-01 0.  0.
         14    1    1    2    0    0 -0.17588387815E-01 -0.84593159453E-02 -0.12148785765E-01  0.22989223731E-01  0.00000000000E+00 0. -1.
     999901    1    3    3    0    0  0.10083095383E+00  0.99589810064E-01  0.42223413263E-01  0.89233840450E+00  0.88000000000E+00 0. -1.
        -11    1    4    4    0    0 -0.42033568114E-01 -0.32673910878E-01 -0.86559112175E-02  0.53940626808E-01  0.51100000000E-03 0.  1.
         11    1    4    4    0    0 -0.41208997904E-01 -0.58456583241E-01 -0.21418716280E-01  0.74661744960E-01  0.51100000000E-03 0. -1.
</event>
<event>
 7    1  0.1075206E+005  0.1043930E+01  0.7957747E-01            NaN
         13   -1    0    0    0    0  0.00000000000E+00  0.00000000000E+00  0.74505805969E-08  0.10566000000E+00  0.10566000000E+00 0. -1.
     999900   -1    0    0    0    0 -0.00000000000E+00 -0.00000000000E+00 -0.74505805969E-08  0.93827000000E+00  0.93827000000E+00 0.  1.
     999903    2    1    2    0    0 -0.62586310365E-01 -0.49084160792E-01 -0.63997123711E-01  0.10401532187E+00  0.19931238146E-01 0.  0.
         14    1    1    2    0    0  0.29544281005E-01 -0.67542260523E-02  0.48740176435E-01  0.57394153958E-01  0.00000000000E+00 0. -1.
     999901    1    1    2    0    0  0.33042029361E-01  0.55838386844E-01  0.15256947275E-01  0.88252052417E+00  0.88000000000E+00 0. -1.
        -11    1    3    3    0    0 -0.17545668441E-01 -0.13789584018E-01 -0.73648412692E-02  0.23505427381E-01  0.51100000000E-03 0.  1.
         11    1    3    3    0    0 -0.45040641924E-01 -0.35294576774E-01 -0.56632282441E-01  0.80509894486E-01  0.51100000000E-03 0. -1.
</event>
<event>
 8    1  0.1075206E+005  0.1043930E+01  0.7957747E-01            NaN
         13   -1    0    0    0    0  0.00000000000E+00  0.00000000000E+00  0.74505805969E-08  0.10566000000E+00  0.10566000000E+00 0. -1.
     999900   -1    0    0    0    0 -0.00000000000E+00 -0.00000000000E+00 -0.74505805969E-08  0.93827000000E+00  0.93827000000E+00 0. -1.
     999902    2    1    2    0    0  0.53249749456E-02 -0.18704678239E-01 -0.12630087882E-01  0.10207407899E+01  0.10204773494E+01 0.  0.
     999903    2    3    3    0    0  0.26642167156E-01 -0.12614022206E+00 -0.28984333971E-01  0.13379982221E+00  0.21003335812E-01 0.  0.
         14    1    1    2    0    0 -0.53249749456E-02  0.18704678239E-01  0.12630087882E-01  0.23189210122E-01  0.00000000000E+00 0. -1.
     999901    1    3    3    0    0 -0.21317192210E-01  0.10743554382E+00  0.16354246089E-01  0.88694096767E+00  0.88000000000E+00 0. -1.
        -11    1    4    4    0    0  0.26016113608E-01 -0.97916430214E-01 -0.29624287557E-01  0.10555721201E+00  0.51100000000E-03 0.  1.
         11    1    4    4    0    0  0.62605354719E-03 -0.28223791849E-01  0.63995358631E-03  0.28242610201E-01  0.51100000000E-03 0. -1.
</event>
<event>
 8    1  0.1075206E+005  0.1043930E+01  0.7957747E-01            NaN
         13   -1    0    0    0    0  0.00000000000E+00  0.00000000000E+00  0.74505805969E-08  0.10566000000E+00  0.10566000000E+00 0. -1.
     999900   -1    0    0    0    0 -0.00000000000E+00 -0.00000000000E+00 -0.74505805969E-08  0.93827000000E+00  0.93827000000E+00 0.  1.
     999902    2    1    2    0    0 -0.64127824150E-02  0.22042041072E-01  0.22485362359E-02  0.10208641970E+01  0.10206035849E+01 0.  0.
     999903    2    3    3    0    0  0.68077439325E-01  0.96691857247E-01 -0.56202456567E-01  0.13264243035E+00  0.21247239862E-01 0.  0.
         14    1    1    2    0    0  0.64127824150E-02 -0.22042041072E-01 -0.22485362359E-02  0.23065803002E-01  0.00000000000E+00 0. -1.
     999901    1    3    3    0    0 -0.74490221740E-01 -0.74649816175E-01  0.58450992803E-01  0.88822176665E+00  0.88000000000E+00 0. -1.
        -11    1    4    4    0    0  0.62719920600E-02  0.20278823269E-01 -0.15393835283E-01  0.26225938368E-01  0.51100000000E-03 0.  1.
         11    1    4    4    0    0  0.61805447265E-01  0.76413033978E-01 -0.40808621284E-01  0.10641649198E+00  0.51100000000E-03 0. -1.
</event>
<event>
 8    1  0.1075206E+005  0.1043930E+01  0.7957747E-01            NaN
         13   -1    0    0    0    0  0.00000000000E+00  0.00000000000E+00  0.74505805969E-08  0.10566000000E+00  0.10566000000E+00 0. -1.
     999900   -1    0    0    0    0 -0.00000000000E+00 -0.00000000000E+00 -0.74505805969E-08  0.93827000000E+00  0.93827000000E+00 0.  1.
     999902    2    1    2    0    0  0.23315222879E-01 -0.26499611627E-02  0.24420671993E-02  0.10203379334E+01  0.10200651513E+01 0.  0.
     999903    2    3    3    0    0  0.83508981658E-01 -0.66479801815E-01 -0.76330605811E-01  0.13247382720E+00  0.18155975370E-01 0.  0.
         14    1    1    2    0    0 -0.23315222879E-01  0.26499611627E-02 -0.24420671993E-02  0.23592066554E-01  0.00000000000E+00 0.  1.
     999901    1    3    3    0    0 -0.60193758779E-01  0.63829840652E-01  0.78772673011E-01  0.88786410625E+00  0.88000000000E+00 0. -1.
        -11    1    4    4    0    0  0.44191982728E-01 -0.45894053224E-01 -0.41257780944E-01  0.75905606302E-01  0.51100000000E-03 0.  1.
         11    1    4    4    0    0  0.39316998930E-01 -0.20585748591E-01 -0.35072824868E-01  0.56568220894E-01  0.51100000000E-03 0. -1.
</event>
<event>
 8    1  0.1075206E+005  0.1043930E+01  0.7957747E-01            NaN
         13   -1    0    0    0    0  0.00000000000E+00  0.00000000000E+00  0.74505805969E-08  0.10566000000E+00  0.10566000000E+00 0. -1.
     999900   -1    0    0    0    0 -0.00000000000E+00 -0.00000000000E+00 -0.74505805969E-08  0.93827000000E+00  0.93827000000E+00 0. -1.
     999902    2    1    2    0    0 -0.68751848043E-02 -0.14339295174E-01 -0.17786807450E-01  0.10200709541E+01  0.10197918892E+01 0.  0.
     999903    2    3    3    0    0 -0.74569182931E-01 -0.10707920979E+00  0.72027508828E-02  0.13226036215E+00  0.20356904555E-01 0.  0.
         14    1    1    2    0    0  0.68751848043E-02  0.14339295174E-01  0.17786807450E-01  0.23859045904E-01  0.00000000000E+00 0. -1.
     999901    1    3    3    0    0  0.67693998126E-01  0.92739914619E-01 -0.24989558332E-01  0.88781059195E+00  0.88000000000E+00 0. -1.
        -11    1    4    4    0    0 -0.26847676699E-01 -0.55498689733E-01  0.34500964188E-03  0.61654541267E-01  0.51100000000E-03 0. -1.
         11    1    4    4    0    0 -0.47721506232E-01 -0.51580520060E-01  0.68577412409E-02  0.70605820884E-01  0.51100000000E-03 0.  1.
</event>
<event>
 8    1  0.1075206E+005  0.1043930E+01  0.7957747E-01            NaN
         13   -1    0    0    0    0  0.00000000000E+00  0.00000000000E+00  0.74505805969E-08  0.10566000000E+00  0.10566000000E+00 0. -1.
     999900   -1    0    0    0    0 -0.00000000000E+00 -0.00000000000E+00 -0.74505805969E-08  0.93827000000E+00  0.93827000000E+00 0. -1.
     999902    2    1    2    0    0 -0.21060910984E-01 -0.35806850061E-02 -0.97697474545E-02  0.10204389114E+01  0.10201684864E+01 0.  0.
     999903    2    3    3    0    0  0.88394625611E-01  0.42130865053E-01  0.80190866679E-01  0.12793514540E+00  0.18660297478E-01 0.  0.
         14    1    1    2    0    0  0.21060910984E-01  0.35806850061E-02  0.97697474545E-02  0.23491088563E-01  0.00000000000E+00 0. -1.
     999901    1    3    3    0    0 -0.10945553659E+00 -0.45711550059E-01 -0.89960614134E-01  0.89250376604E+00  0.88000000000E+00 0. -1.
        -11    1    4    4    0    0  0.37895401463E-01  0.22367346608E-01  0.46838746606E-01  0.64268880113E-01  0.51100000000E-03 0.  1.
         11    1    4    4    0    0  0.50499224147E-01  0.19763518445E-01  0.33352120073E-01  0.63666265284E-01  0.51100000000E-03 0. -1.
</event>
<event>
 8    1  0.1075206E+005  0.1043930E+01  0.7957747E-01            NaN
         13   -1    0    0    0    0  0.00000000000E+00  0.00000000000E+00  0.74505805969E-08  0.10566000000E+00  0.10566000000E+00 0.  1.
     999900   -1    0    0    0    0 -0.00000000000E+00 -0.00000000000E+00 -0.74505805969E-08  0.93827000000E+00  0.93827000000E+00 0. -1.
     999902    2    1    2    0    0 -0.10690488623E-01  0.16334160971E-01  0.15325994575E-01  0.10191111066E+01  0.10188088486E+01 0.  0.
     999903    2    3    3    0    0  0.53189381919E-01 -0.17079527092E-01  0.11624801963E+00  0.13041410108E+00  0.19323951402E-01 0.  0.
         14    1    1    2    0    0  0.10690488623E-01 -0.16334160971E-01 -0.15325994575E-01  0.24818893436E-01  0.00000000000E+00 0. -1.
     999901    1    3    3    0    0 -0.63879870542E-01  0.33413688064E-01 -0.10092202506E+00  0.88869700548E+00  0.88000000000E+00 0. -1.
        -11    1    4    4    0    0  0.18564817071E-01  0.31275948459E-02  0.42104298041E-01  0.46124476332E-01  0.51100000000E-03 0. -1.
         11    1    4    4    0    0  0.34624564848E-01 -0.20207121938E-01  0.74143721593E-01  0.84289624751E-01  0.51100000000E-03 0.  1.
</event>
<event>
 8    1  0.1075206E+005  0.1043930E+01  0.7957747E-01            NaN
         13   -1    0    0    0    0  0.00000000000E+00  0.00000000000E+00  0.74505805969E-08  0.10566000000E+00  0.10566000000E+00 0.  1.
     999900   -1    0    0    0    0 -0.00000000000E+00 -0.00000000000E+00 -0.74505805969E-08  0.93827000000E+00  0.93827000000E+00 0. -1.
     999902    2    1    2    0    0  0.19043550028E-01  0.10246277505E-01  0.80650333586E-02  0.10208499705E+01  0.10205890331E+01 0.  0.
     999903    2    3    3    0    0  0.59349031089E-01  0.11543598559E+00 -0.22105373397E-01  0.13315652116E+00  0.19855410710E-01 0.  0.
         14    1    1    2    0    0 -0.19043550028E-01 -0.10246277505E-01 -0.80650333586E-02  0.23080029538E-01  0.00000000000E+00 0.  1.
     999901    1    3    3    0    0 -0.40305481060E-01 -0.10518970808E+00  0.30170406756E-01  0.88769344930E+00  0.88000000000E+00 0.  1.
        -11    1    4    4    0    0  0.50073366486E-01  0.78895409515E-01 -0.18716171237E-01  0.95301541753E-01  0.51100000000E-03 0. -1.
         11    1    4    4    0    0  0.92756646028E-02  0.36540576073E-01 -0.33892021604E-02  0.37854979407E-01  0.51100000000E-03 0.  1.
</event>
<event>
 8    1  0.1075206E+005  0.1043930E+01  0.7957747E-01            NaN
         13   -1    0    0    0    0  0.00000000000E+00  0.00000000000E+00  0.74505805969E-08  0.10566000000E+00  0.10566000000E+00 0. -1.
     999900   -1    0    0    0    0 -0.00000000000E+00 -0.00000000000E+00 -0.74505805969E-08  0.93827000000E+00  0.93827000000E+00 0.  1.
     999902    2    1    2    0    0 -0.12588511013E-01 -0.29215599881E-02 -0.19496243222E-01  0.10205396254E+01  0.10202715410E+01 0.  0.
     999903    2    3    3    0    0  0.72330234561E-01 -0.98791652248E-01 -0.41694715681E-01  0.13099196504E+00  0.20712126989E-01 0.  0.
         14    1    1    2    0    0  0.12588511013E-01  0.29215599881E-02  0.19496243222E-01  0.23390374560E-01  0.00000000000E+00 0. -1.
     999901    1    3    3    0    0 -0.84918745574E-01  0.95870092260E-01  0.22198472459E-01  0.88954766040E+00  0.88000000000E+00 0. -1.
        -11    1    4    4    0    0  0.32671446248E-01 -0.61887539777E-01 -0.22347911781E-01  0.73465510694E-01  0.51100000000E-03 0. -1.
         11    1    4    4    0    0  0.39658788313E-01 -0.36904112471E-01 -0.19346803899E-01  0.57526454348E-01  0.51100000000E-03 0.  1.
</event>
<event>
 8    1  0.1075206E+005  0.1043930E+01  0.7957747E-01            NaN
         13   -1    0    0    0    0  0.00000000000E+00  0.00000000000E+00  0.74505805969E-08  0.10566000000E+00  0.10566000000E+00 0. -1.
     999900   -1    0    0    0    0 -0.00000000000E+00 -0.00000000000E+00 -0.74505805969E-08  0.93827000000E+00  0.93827000000E+00 0. -1.
     999902    2    1    2    0    0 -0.89474654920E-02  0.71226835493E-02  0.20267464769E-01  0.10206585607E+01  0.10203932270E+01 0.  0.
     999903    2    3    3    0    0 -0.91767756691E-01 -0.90128257430E-01  0.18356700249E-01  0.13143384377E+00  0.19835898969E-01 0.  0.
         14    1    1    2    0    0  0.89474654920E-02 -0.71226835493E-02 -0.20267464769E-01  0.23271439316E-01  0.00000000000E+00 0.  1.
     999901    1    3    3    0    0  0.82820291199E-01  0.97250940979E-01  0.19107645200E-02  0.88922471692E+00  0.88000000000E+00 0. -1.
        -11    1    4    4    0    0 -0.46507666085E-01 -0.33017599454E-01  0.11981245932E-01  0.58283241617E-01  0.51100000000E-03 0.  1.
         11    1    4    4    0    0 -0.45260090606E-01 -0.57110657976E-01  0.63754543166E-02  0.73150602150E-01  0.51100000000E-03 0. -1.
</event>
<event>
 8    1  0.1075206E+005  0.1043930E+01  0.7957747E-01            NaN
         13   -1    0    0    0    0  0.00000000000E+00  0.00000000000E+00  0.74505805969E-08  0.10566000000E+00  0.10566000000E+00 0.  1.
     999900   -1    0    0    0    0 -0.00000000000E+00 -0.00000000000E+00 -0.74505805969E-08  0.93827000000E+00  0.93827000000E+00 0. -1.
     999902    2    1    2    0    0 -0.15584526967E-01  0.11828998696E-02 -0.98610166889E-02  0.10254498381E+01  0.10252833043E+01 0.  0.
     999903    2    3    3    0    0  0.50194283331E-01 -0.19464573874E-01 -0.12279225390E+00  0.13555847712E+00  0.19995684132E-01 0.  0.
         14    1    1    2    0    0  0.15584526967E-01 -0.11828998696E-02  0.98610166889E-02  0.18480161878E-01  0.00000000000E+00 0.  1.
     999901    1    3    3    0    0 -0.65778810298E-01  0.20647473744E-01  0.11293123721E+00  0.88989136101E+00  0.88000000000E+00 0.  1.
        -11    1    4    4    0    0  0.13996760564E-01 -0.45707910515E-02 -0.58151397135E-01  0.59988728498E-01  0.51100000000E-03 0. -1.
         11    1    4    4    0    0  0.36197522767E-01 -0.14893782822E-01 -0.64640856769E-01  0.75569748617E-01  0.51100000000E-03 0.  1.
</event>
<event>
 7    1  0.1075206E+005  0.1043930E+01  0.7957747E-01            NaN
         13   -1    0    0    0    0  0.00000000000E+00  0.00000000000E+00  0.74505805969E-08  0.10566000000E+00  0.10566000000E+00 0.  1.
     999900   -1    0    0    0    0 -0.00000000000E+00 -0.00000000000E+00 -0.74505805969E-08  0.93827000000E+00  0.93827000000E+00 0. -1.
     999903    2    1    2    0    0  0.11897709589E+00  0.71059288490E-01 -0.44032311003E-01  0.14688639370E+00  0.20779711595E-01 0.  0.
         14    1    1    2    0    0 -0.55372997698E-02  0.14270848079E-02  0.91900158371E-05  0.57182466059E-02  0.00000000000E+00 0. -1.
     999901    1    1    2    0    0 -0.11343979612E+00 -0.72486373298E-01  0.44023120988E-01  0.89132535970E+00  0.88000000000E+00 0. -1.
        -11    1    3    3    0    0  0.41342325948E-01  0.36483578134E-01 -0.16866650231E-01  0.57662677698E-01  0.51100000000E-03 0.  1.
         11    1    3    3    0    0  0.77634769942E-01  0.34575710356E-01 -0.27165660773E-01  0.89223715999E-01  0.51100000000E-03 0. -1.
</event>
<event>
 8    1  0.1075206E+005  0.1043930E+01  0.7957747E-01            NaN
         13   -1    0    0    0    0  0.00000000000E+00  0.00000000000E+00  0.74505805969E-08  0.10566000000E+00  0.10566000000E+00 0.  1.
     999900   -1    0    0    0    0 -0.00000000000E+00 -0.00000000000E+00 -0.74505805969E-08  0.93827000000E+00  0.93827000000E+00 0.  1.
     999902    2    1    2    0    0  0.89922020271E-02 -0.95955791758E-02 -0.20063892926E-01  0.10199405307E+01  0.10196583700E+01 0.  0.
     999903    2    3    3    0    0 -0.81640704087E-01 -0.24915926943E-01 -0.98394736826E-01  0.13169239093E+00  0.19374044896E-01 0.  0.
         14    1    1    2    0    0 -0.89922020271E-02  0.95955791758E-02  0.20063892926E-01  0.23989469280E-01  0.00000000000E+00 0.  1.
     999901    1    3    3    0    0  0.90632906114E-01  0.15320347767E-01  0.78330843900E-01  0.88824813979E+00  0.88000000000E+00 0. -1.
        -11    1    4    4    0    0 -0.53296269898E-01 -0.21421328367E-01 -0.76692553713E-01  0.95819489719E-01  0.51100000000E-03 0. -1.
         11    1    4    4    0    0 -0.28344434189E-01 -0.34945985756E-02 -0.21702183113E-01  0.35872901215E-01  0.51100000000E-03 0.  1.
</event>
<event>
 8    1  0.1075206E+005  0.1043930E+01  0.7957747E-01            NaN
         13   -1    0    0    0    0  0.00000000000E+00  0.00000000000E+00  0.74505805969E-08  0.10566000000E+00  0.10566000000E+00 0. -1.
     999900   -1    0    0    0    0 -0.00000000000E+00 -0.00000000000E+00 -0.74505805969E-08  0.93827000000E+00  0.93827000000E+00 0.  1.
     999902    2    1    2    0    0  0.26014499038E-01  0.10321599976E-01 -0.21660076334E-01  0.10085400510E+01  0.10079189382E+01 0.  0.
     999903    2    3    3    0    0 -0.47373302800E-01 -0.81769967567E-01 -0.70100590940E-01  0.11937577495E+00  0.20147589966E-01 0.  0.
         14    1    1    2    0    0 -0.26014499038E-01 -0.10321599976E-01  0.21660076334E-01  0.35389949040E-01  0.00000000000E+00 0. -1.
     999901    1    3    3    0    0  0.73387801838E-01  0.92091567543E-01  0.48440514607E-01  0.88916427601E+00  0.88000000000E+00 0. -1.
        -11    1    4    4    0    0 -0.20993721264E-01 -0.46796295240E-01 -0.27196179489E-01  0.58056204496E-01  0.51100000000E-03 0.  1.
         11    1    4    4    0    0 -0.26379581536E-01 -0.34973672327E-01 -0.42904411452E-01  0.61319570457E-01  0.51100000000E-03 0. -1.
</event>
<event>
 8    1  0.1075206E+005  0.1043930E+01  0.7957747E-01            NaN
         13   -1    0    0    0    0  0.00000000000E+00  0.00000000000E+00  0.74505805969E-08  0.10566000000E+00  0.10566000000E+00 0. -1.
     999900   -1    0    0    0    0 -0.00000000000E+00 -0.00000000000E+00 -0.74505805969E-08  0.93827000000E+00  0.93827000000E+00 0.  1.
     999902    2    1    2    0    0 -0.68335379801E-02  0.22314186784E-01 -0.11123471476E-01  0.10180774993E+01  0.10177492043E+01 0.  0.
     999903    2    3    3    0    0 -0.86820948869E-02  0.70670096924E-01 -0.10864237940E+00  0.13136917716E+00  0.19622760638E-01 0.  0.
         14    1    1    2    0    0  0.68335379801E-02 -0.22314186784E-01  0.11123471476E-01  0.25852500668E-01  0.00000000000E+00 0. -1.
     999901    1    3    3    0    0  0.18485569069E-02 -0.48355910140E-01  0.97518907923E-01  0.88670832217E+00  0.88000000000E+00 0. -1.
        -11    1    4    4    0    0 -0.37668114478E-02  0.40038400054E-01 -0.43670104600E-01  0.59368354400E-01  0.51100000000E-03 0.  1.
         11    1    4    4    0    0 -0.49152834391E-02  0.30631696870E-01 -0.64972274799E-01  0.72000822759E-01  0.51100000000E-03 0. -1.
</event>
<event>
 8    1  0.1075206E+005  0.1043930E+01  0.7957747E-01            NaN
         13   -1    0    0    0    0  0.00000000000E+00  0.00000000000E+00  0.74505805969E-08  0.10566000000E+00  0.10566000000E+00 0. -1.
     999900   -1    0    0    0    0 -0.00000000000E+00 -0.00000000000E+00 -0.74505805969E-08  0.93827000000E+00  0.93827000000E+00 0. -1.
     999902    2    1    2    0    0  0.13397598984E-02  0.24020399324E-01  0.11182449143E-02  0.10198462916E+01  0.10195618831E+01 0.  0.
     999903    2    3    3    0    0 -0.50133620202E-01 -0.63143091946E-01 -0.98130753366E-01  0.12850048509E+00  0.19552492827E-01 0.  0.
         14    1    1    2    0    0 -0.13397598984E-02 -0.24020399324E-01 -0.11182449143E-02  0.24083708435E-01  0.00000000000E+00 0.  1.
     999901    1    3    3    0    0  0.51473380101E-01  0.87163491271E-01  0.99248998281E-01  0.89134580648E+00  0.88000000000E+00 0.  1.
        -11    1    4    4    0    0 -0.13369938191E-01 -0.31337723137E-01 -0.45619969155E-01  0.56940766111E-01  0.51100000000E-03 0.  1.
         11    1    4    4    0    0 -0.36763682011E-01 -0.31805368809E-01 -0.52510784212E-01  0.71559718974E-01  0.51100000000E-03 0. -1.
</event>
<event>
 8    1  0.1075206E+005  0.1043930E+01  0.7957747E-01            NaN
         13   -1    0    0    0    0  0.00000000000E+00  0.00000000000E+00  0.74505805969E-08  0.10566000000E+00  0.10566000000E+00 0. -1.
     999900   -1    0    0    0    0 -0.00000000000E+00 -0.00000000000E+00 -0.74505805969E-08  0.93827000000E+00  0.93827000000E+00 0.  1.
     999902    2    1    2    0    0  0.11548894832E-01 -0.19363501872E-01 -0.73166622389E-02  0.10202265040E+01  0.10199511085E+01 0.  0.
     999903    2    3    3    0    0  0.10284367480E+00  0.60693745350E-01 -0.49768077688E-01  0.13087504234E+00  0.19770254901E-01 0.  0.
         14    1    1    2    0    0 -0.11548894832E-01  0.19363501872E-01  0.73166622389E-02  0.23703496006E-01  0.00000000000E+00 0.  1.
     999901    1    3    3    0    0 -0.91294779966E-01 -0.80057247221E-01  0.42451415449E-01  0.88935146166E+00  0.88000000000E+00 0. -1.
        -11    1    4    4    0    0  0.70876253455E-01  0.31068026506E-01 -0.29731003979E-01  0.82902709807E-01  0.51100000000E-03 0.  1.
         11    1    4    4    0    0  0.31967421344E-01  0.29625718843E-01 -0.20037073709E-01  0.47972332528E-01  0.51100000000E-03 0. -1.
</event>
<event>
 8    1  0.1075206E+005  0.1043930E+01  0.7957747E-01            NaN
         13   -1    0    0    0    0  0.00000000000E+00  0.00000000000E+00  0.74505805969E-08  0.10566000000E+00  0.10566000000E+00 0.  1.
     999900   -1    0    0    0    0 -0.00000000000E+00 -0.00000000000E+00 -0.74505805969E-08  0.93827000000E+00  0.93827000000E+00 0.  1.
     999902    2    1    2    0    0 -0.16225565607E-01  0.13054349650E-01  0.13890758018E-01  0.10188972578E+01  0.10185897033E+01 0.  0.
     999903    2    3    3    0    0  0.63257860144E-02 -0.12273973232E+00 -0.25965995923E-01  0.12730477409E+00  0.20669182486E-01 0.  0.
         14    1    1    2    0    0  0.16225565607E-01 -0.13054349650E-01 -0.13890758018E-01  0.25032742205E-01  0.00000000000E+00 0.  1.
     999901    1    3    3    0    0 -0.22551351621E-01  0.13579408197E+00  0.39856753940E-01  0.89159248370E+00  0.88000000000E+00 0.  1.
        -11    1    4    4    0    0  0.36579920928E-02 -0.35203078530E-01  0.17654910593E-02  0.35440312129E-01  0.51100000000E-03 0.  1.
         11    1    4    4    0    0  0.26677939216E-02 -0.87536653788E-01 -0.27731486982E-01  0.91864461965E-01  0.51100000000E-03 0. -1.
</event>
<event>
 8    1  0.1075206E+005  0.1043930E+01  0.7957747E-01            NaN
         13   -1    0    0    0    0  0.00000000000E+00  0.00000000000E+00  0.74505805969E-08  0.10566000000E+00  0.10566000000E+00 0. -1.
     999900   -1    0    0    0    0 -0.00000000000E+00 -0.00000000000E+00 -0.74505805969E-08  0.93827000000E+00  0.93827000000E+00 0. -1.
     999902    2    1    2    0    0 -0.28311557396E-02 -0.21227273232E-01 -0.11181565629E-01  0.10197713580E+01  0.10194851557E+01 0.  0.
     999903    2    3    3    0    0  0.12591869889E+00 -0.83061272026E-02  0.19262865557E-01  0.12978801860E+00  0.23438457805E-01 0.  0.
         14    1    1    2    0    0  0.28311557396E-02  0.21227273232E-01  0.11181565629E-01  0.24158641965E-01  0.00000000000E+00 0. -1.
     999901    1    3    3    0    0 -0.12874985463E+00 -0.12921146029E-01 -0.30444431187E-01  0.88998333943E+00  0.88000000000E+00 0.  1.
        -11    1    4    4    0    0  0.11392992938E+00 -0.28457585392E-02  0.22606313446E-01  0.11618706331E+00  0.51100000000E-03 0.  1.
         11    1    4    4    0    0  0.11988769503E-01 -0.54603686634E-02 -0.33434478885E-02  0.13600955294E-01  0.51100000000E-03 0. -1.
</event>
<event>
 8    1  0.1082253E+005  0.1043930E+01  0.7957747E-01            NaN
         13   -1    0    0    0    0  0.00000000000E+00  0.00000000000E+00  0.74505805969E-08  0.10566000000E+00  0.10566000000E+00 0. -1.
     999900   -1    0    0    0    0 -0.00000000000E+00 -0.00000000000E+00 -0.74505805969E-08  0.93827000000E+00  0.93827000000E+00 0. -1.
     999902    2    1    2    0    0 -0.17551025475E-01 -0.15450274999E-01 -0.59156670551E-02  0.10198106176E+01  0.10195253558E+01 0.  0.
     999903    2    3    3    0    0  0.10580218218E+00  0.28645188038E-01 -0.63506014361E-01  0.12825182992E+00  0.20021724890E-01 0.  0.
         14    1    1    2    0    0  0.17551025475E-01  0.15450274999E-01  0.59156670551E-02  0.24119382444E-01  0.00000000000E+00 0. -1.
     999901    1    3    3    0    0 -0.12335320765E+00 -0.44095463037E-01  0.57590347306E-01  0.89155878763E+00  0.88000000000E+00 0.  1.
        -11    1    4    4    0    0  0.63286332420E-01  0.14501190930E-01 -0.26466573176E-01  0.70115512023E-01  0.51100000000E-03 0. -1.
         11    1    4    4    0    0  0.42515849758E-01  0.14143997108E-01 -0.37039441185E-01  0.58136317902E-01  0.51100000000E-03 0.  1.
</event>
<event>
 8    1  0.1075206E+005  0.1043930E+01  0.7957747E-01            NaN
         13   -1    0    0    0    0  0.00000000000E+00  0.00000000000E+00  0.74505805969E-08  0.10566000000E+00  0.10566000000E+00 0. -1.
     999900   -1    0    0    0    0 -0.00000000000E+00 -0.00000000000E+00 -0.74505805969E-08  0.93827000000E+00  0.93827000000E+00 0. -1.
     999902    2    1    2    0    0  0.21855578241E-01 -0.25517850685E-02  0.69183545656E-02  0.10208639744E+01  0.10206033572E+01 0.  0.
     999903    2    3    3    0    0  0.86444231493E-01 -0.37099070938E-01  0.92946444925E-01  0.13364019123E+00  0.19279856428E-01 0.  0.
         14    1    1    2    0    0 -0.21855578241E-01  0.25517850685E-02 -0.69183545656E-02  0.23066025605E-01  0.00000000000E+00 0.  1.
     999901    1    3    3    0    0 -0.64588653252E-01  0.34547285870E-01 -0.86028090359E-01  0.88722378317E+00  0.88000000000E+00 0. -1.
        -11    1    4    4    0    0  0.46299095194E-01 -0.25978885273E-01  0.41168862211E-01  0.67183666412E-01  0.51100000000E-03 0.  1.
         11    1    4    4    0    0  0.40145136300E-01 -0.11120185665E-01  0.51777582713E-01  0.66456524814E-01  0.51100000000E-03 0. -1.
</event>
<event>
 8    1  0.1075206E+005  0.1043930E+01  0.7957747E-01            NaN
         13   -1    0    0    0    0  0.00000000000E+00  0.00000000000E+00  0.74505805969E-08  0.10566000000E+00  0.10566000000E+00 0. -1.
     999900   -1    0    0    0    0 -0.00000000000E+00 -0.00000000000E+00 -0.74505805969E-08  0.93827000000E+00  0.93827000000E+00 0.  1.
     999902    2    1    2    0    0  0.91515386137E-02  0.20646242648E-01  0.70758156417E-02  0.10202638816E+01  0.10199893641E+01 0.  0.
     999903    2    3    3    0    0  0.11179923013E+00 -0.37125086746E-01 -0.52246768828E-01  0.13043623303E+00  0.20162988643E-01 0.  0.
         14    1    1    2    0    0 -0.91515386137E-02 -0.20646242648E-01 -0.70758156417E-02  0.23666118428E-01  0.00000000000E+00 0.  1.
     999901    1    3    3    0    0 -0.10264769152E+00  0.57771329394E-01  0.59322584470E-01  0.88982764854E+00  0.88000000000E+00 0. -1.
        -11    1    4    4    0    0  0.61159300497E-01 -0.21949375335E-01 -0.39533130108E-01  0.76061584338E-01  0.51100000000E-03 0. -1.
         11    1    4    4    0    0  0.50639929635E-01 -0.15175711411E-01 -0.12713638720E-01  0.54374648696E-01  0.51100000000E-03 0.  1.
</event>
<event>
 8    1  0.1075206E+005  0.1043930E+01  0.7957747E-01            NaN
         13   -1    0    0    0    0  0.00000000000E+00  0.00000000000E+00  0.74505805969E-08  0.10566000000E+00  0.10566000000E+00 0. -1.
     999900   -1    0    0    0    0 -0.00000000000E+00 -0.00000000000E+00 -0.74505805969E-08  0.93827000000E+00  0.93827000000E+00 0. -1.
     999902    2    1    2    0    0 -0.91185382640E-02  0.13249046222E-01 -0.18084052533E-01  0.10197283901E+01  0.10194411565E+01 0.  0.
     999903    2    3    3    0    0 -0.82218522774E-01 -0.73489026985E-01  0.59722875275E-01  0.12904268846E+00  0.30408404109E-01 0.  0.
         14    1    1    2    0    0  0.91185382640E-02 -0.13249046222E-01  0.18084052533E-01  0.24201609903E-01  0.00000000000E+00 0.  1.
     999901    1    3    3    0    0  0.73099984510E-01  0.86738073207E-01 -0.77806927808E-01  0.89068570163E+00  0.88000000000E+00 0. -1.
        -11    1    4    4    0    0 -0.70172876253E-01 -0.47267742477E-01  0.51432333040E-01  0.99015241470E-01  0.51100000000E-03 0. -1.
         11    1    4    4    0    0 -0.12045646521E-01 -0.26221284509E-01  0.82905422348E-02  0.30027446993E-01  0.51100000000E-03 0.  1.
</event>
<event>
 8    1  0.1075206E+005  0.1043930E+01  0.7957747E-01            NaN
         13   -1    0    0    0    0  0.00000000000E+00  0.00000000000E+00  0.74505805969E-08  0.10566000000E+00  0.10566000000E+00 0. -1.
     999900   -1    0    0    0    0 -0.00000000000E+00 -0.00000000000E+00 -0.74505805969E-08  0.93827000000E+00  0.93827000000E+00 0.  1.
     999902    2    1    2    0    0  0.81231418412E-02  0.25662111407E-01  0.11199343953E-01  0.10147760174E+01  0.10143571417E+01 0.  0.
     999903    2    3    3    0    0 -0.20676261162E-01 -0.50069754413E-01 -0.10841047500E+00  0.12299620721E+00  0.20993994764E-01 0.  0.
         14    1    1    2    0    0 -0.81231418412E-02 -0.25662111407E-01 -0.11199343953E-01  0.29153982579E-01  0.00000000000E+00 0. -1.
     999901    1    3    3    0    0  0.28799403003E-01  0.75731865819E-01  0.11960981895E+00  0.89177981021E+00  0.88000000000E+00 0.  1.
        -11    1    4    4    0    0 -0.19857711692E-01 -0.35541072445E-01 -0.60521104598E-01  0.72942180985E-01  0.51100000000E-03 0.  1.
         11    1    4    4    0    0 -0.81854946970E-03 -0.14528681968E-01 -0.47889370399E-01  0.50054026223E-01  0.51100000000E-03 0. -1.
</event>
<event>
 8    1  0.1075206E+005  0.1043930E+01  0.7957747E-01            NaN
         13   -1    0    0    0    0  0.00000000000E+00  0.00000000000E+00  0.74505805969E-08  0.10566000000E+00  0.10566000000E+00 0. -1.
     999900   -1    0    0    0    0 -0.00000000000E+00 -0.00000000000E+00 -0.74505805969E-08  0.93827000000E+00  0.93827000000E+00 0. -1.
     999902    2    1    2    0    0  0.15312006376E-01  0.68773573247E-02  0.32451022482E-01  0.10073947507E+01  0.10067320196E+01 0.  0.
     999903    2    3    3    0    0 -0.62614465574E-01  0.73731076280E-01  0.69332875609E-01  0.12065790930E+00  0.19860526861E-01 0.  0.
         14    1    1    2    0    0 -0.15312006376E-01 -0.68773573247E-02 -0.32451022482E-01  0.36535249324E-01  0.00000000000E+00 0.  1.
     999901    1    3    3    0    0  0.77926471950E-01 -0.66853718956E-01 -0.36881853127E-01  0.88673684138E+00  0.88000000000E+00 0. -1.
        -11    1    4    4    0    0 -0.25127159240E-01  0.25153163170E-01  0.14620035779E-01  0.38445576028E-01  0.51100000000E-03 0. -1.
         11    1    4    4    0    0 -0.37487306334E-01  0.48577913110E-01  0.54712839830E-01  0.82212333269E-01  0.51100000000E-03 0.  1.
</event>
<event>
 8    1  0.1075206E+005  0.1043930E+01  0.7957747E-01            NaN
         13   -1    0    0    0    0  0.00000000000E+00  0.00000000000E+00  0.74505805969E-08  0.10566000000E+00  0.10566000000E+00 0. -1.
     999900   -1    0    0    0    0 -0.00000000000E+00 -0.00000000000E+00 -0.74505805969E-08  0.93827000000E+00  0.93827000000E+00 0. -1.
     999902    2    1    2    0    0  0.18920485620E-01 -0.11421282548E-01 -0.74394390747E-02  0.10206110008E+01  0.10203445688E+01 0.  0.
     999903    2    3    3    0    0  0.76598259715E-01 -0.11393258181E-01 -0.10651495941E+00  0.13317498328E+00  0.19825233220E-01 0.  0.
         14    1    1    2    0    0 -0.18920485620E-01  0.11421282548E-01  0.74394390747E-02  0.23318999226E-01  0.00000000000E+00 0. -1.
     999901    1    3    3    0    0 -0.57677774094E-01 -0.28024366586E-04  0.99075520331E-01  0.88743601749E+00  0.88000000000E+00 0. -1.
        -11    1    4    4    0    0  0.60741336828E-02  0.41008890486E-02 -0.64431138952E-02  0.97717566820E-02  0.51100000000E-03 0. -1.
         11    1    4    4    0    0  0.70524126032E-01 -0.15494147230E-01 -0.10007184551E+00  0.12340322660E+00  0.51100000000E-03 0.  1.
</event>
<event>
 8    1  0.1075206E+005  0.1043930E+01  0.7957747E-01            NaN
         13   -1    0    0    0    0  0.00000000000E+00  0.00000000000E+00  0.74505805969E-08  0.10566000000E+00  0.10566000000E+00 0. -1.
     999900   -1    0    0    0    0 -0.00000000000E+00 -0.00000000000E+00 -0.74505805969E-08  0.93827000000E+00  0.93827000000E+00 0. -1.
     999902    2    1    2    0    0 -0.17574547136E-01  0.13204879209E-01  0.69436804532E-02  0.10208768388E+01  0.10206165155E+01 0.  0.
     999903    2    3    3    0    0 -0.63133675886E-01  0.84343725840E-01 -0.77634185560E-01  0.13279475640E+00  0.22531210333E-01 0.  0.
         14    1    1    2    0    0  0.17574547136E-01 -0.13204879209E-01 -0.69436804532E-02  0.23053161176E-01  0.00000000000E+00 0.  1.
     999901    1    3    3    0    0  0.45559128750E-01 -0.71138846631E-01  0.84577866013E-01  0.88808208243E+00  0.88000000000E+00 0. -1.
        -11    1    4    4    0    0 -0.29530957678E-01  0.57587061871E-01 -0.48839158921E-01  0.81079416139E-01  0.51100000000E-03 0.  1.
         11    1    4    4    0    0 -0.33602718207E-01  0.26756663970E-01 -0.28795026638E-01  0.51715340256E-01  0.51100000000E-03 0. -1.
</event>
<event>
 8    1  0.1075206E+005  0.1043930E+01  0.7957747E-01            NaN
         13   -1    0    0    0    0  0.00000000000E+00  0.00000000000E+00  0.74505805969E-08  0.10566000000E+00  0.10566000000E+00 0. -1.
     999900   -1    0    0    0    0 -0.00000000000E+00 -0.00000000000E+00 -0.74505805969E-08  0.93827000000E+00  0.93827000000E+00 0.  1.
     999902    2    1    2    0    0  0.17330532366E-01 -0.13326542459E-01  0.93643887190E-02  0.10201468997E+01  0.10198696294E+01 0.  0.
     999903    2    3    3    0    0 -0.30493133275E-01  0.11577466821E+00  0.43260291885E-01  0.12879783344E+00  0.19591428464E-01 0.  0.
         14    1    1    2    0    0 -0.17330532366E-01  0.13326542459E-01 -0.93643887190E-02  0.23783100346E-01  0.00000000000E+00 0. -1.
     999901    1    3    3    0    0  0.47823665641E-01 -0.12910121067E+00 -0.33895903166E-01  0.89134906621E+00  0.88000000000E+00 0.  1.
        -11    1    4    4    0    0 -0.43313511341E-02  0.29015778143E-01  0.25438254542E-02  0.29451793711E-01  0.51100000000E-03 0. -1.
         11    1    4    4    0    0 -0.26161782141E-01  0.86758890064E-01  0.40716466431E-01  0.99346039727E-01  0.51100000000E-03 0.  1.
</event>
<event>
 8    1  0.1075206E+005  0.1043930E+01  0.7957747E-01            NaN
         13   -1    0    0    0    0  0.00000000000E+00  0.00000000000E+00  0.74505805969E-08  0.10566000000E+00  0.10566000000E+00 0.  1.
     999900   -1    0    0    0    0 -0.00000000000E+00 -0.00000000000E+00 -0.74505805969E-08  0.93827000000E+00  0.93827000000E+00 0.  1.
     999902    2    1    2    0    0 -0.12683632433E-01 -0.79503901685E-02  0.17968208607E-01  0.10205432568E+01  0.10202752566E+01 0.  0.
     999903    2    3    3    0    0 -0.29712379499E-01 -0.12279872108E+00 -0.28479590926E-01  0.13170271128E+00  0.23919984585E-01 0.  0.
         14    1    1    2    0    0  0.12683632433E-01  0.79503901685E-02 -0.17968208607E-01  0.23386743169E-01  0.00000000000E+00 0. -1.
     999901    1    3    3    0    0  0.17028747065E-01  0.11484833092E+00  0.46447799532E-01  0.88884054555E+00  0.88000000000E+00 0. -1.
        -11    1    4    4    0    0 -0.17780588338E-01 -0.50836273568E-01 -0.13529448411E-02  0.53875482482E-01  0.51100000000E-03 0.  1.
         11    1    4    4    0    0 -0.11931791160E-01 -0.71962447517E-01 -0.27126646084E-01  0.77827228793E-01  0.51100000000E-03 0. -1.
</event>
<event>
 8    1  0.1075206E+005  0.1043930E+01  0.7957747E-01            NaN
         13   -1    0    0    0    0  0.00000000000E+00  0.00000000000E+00  0.74505805969E-08  0.10566000000E+00  0.10566000000E+00 0. -1.
     999900   -1    0    0    0    0 -0.00000000000E+00 -0.00000000000E+00 -0.74505805969E-08  0.93827000000E+00  0.93827000000E+00 0.  1.
     999902    2    1    2    0    0 -0.16408870093E-01  0.13724629434E-01 -0.91552996805E-02  0.10206612230E+01  0.10203959507E+01 0.  0.
     999903    2    3    3    0    0 -0.98785068987E-02  0.12802624700E+00  0.24909060152E-01  0.13259147009E+00  0.21719388640E-01 0.  0.
         14    1    1    2    0    0  0.16408870093E-01 -0.13724629434E-01  0.91552996805E-02  0.23268776999E-01  0.00000000000E+00 0.  1.
     999901    1    3    3    0    0 -0.65303631938E-02 -0.11430161757E+00 -0.34064359833E-01  0.88806975291E+00  0.88000000000E+00 0. -1.
        -11    1    4    4    0    0  0.40027296297E-02  0.55456348160E-01  0.37265453108E-02  0.55727700981E-01  0.51100000000E-03 0.  1.
         11    1    4    4    0    0 -0.13881236528E-01  0.72569898844E-01  0.21182514842E-01  0.76863769110E-01  0.51100000000E-03 0. -1.
</event>
<event>
 8    1  0.1075206E+005  0.1043930E+01  0.7957747E-01            NaN
         13   -1    0    0    0    0  0.00000000000E+00  0.00000000000E+00  0.74505805969E-08  0.10566000000E+00  0.10566000000E+00 0. -1.
     999900   -1    0    0    0    0 -0.00000000000E+00 -0.00000000000E+00 -0.74505805969E-08  0.93827000000E+00  0.93827000000E+00 0.  1.
     999902    2    1    2    0    0 -0.85474271945E-02  0.11829088046E-01 -0.18223176433E-01  0.10205832659E+01  0.10203161924E+01 0.  0.
     999903    2    3    3    0    0  0.46408560901E-01 -0.40115573095E-01 -0.11524714001E+00  0.13202710109E+00  0.19652949187E-01 0.  0.
         14    1    1    2    0    0  0.85474271945E-02 -0.11829088046E-01  0.18223176433E-01  0.23346734139E-01  0.00000000000E+00 0. -1.
     999901    1    3    3    0    0 -0.54955988096E-01  0.51944661141E-01  0.97023963576E-01  0.88855616477E+00  0.88000000000E+00 0. -1.
        -11    1    4    4    0    0  0.30451965097E-01 -0.15466478162E-01 -0.72748103339E-01  0.80368412859E-01  0.51100000000E-03 0.  1.
         11    1    4    4    0    0  0.15956595804E-01 -0.24649094933E-01 -0.42499036669E-01  0.51658688229E-01  0.51100000000E-03 0. -1.
</event>
<event>
 8    1  0.1075206E+005  0.1043930E+01  0.7957747E-01            NaN
         13   -1    0    0    0    0  0.00000000000E+00  0.00000000000E+00  0.74505805969E-08  0.10566000000E+00  0.10566000000E+00 0.  1.
     999900   -1    0    0    0    0 -0.00000000000E+00 -0.00000000000E+00 -0.74505805969E-08  0.93827000000E+00  0.93827000000E+00 0. -1.
     999902    2    1    2    0    0 -0.13515853050E-02  0.15931530790E-01  0.17437677110E-01  0.10202717448E+01  0.10199974119E+01 0.  0.
     999903    2    3    3    0    0 -0.82336487749E-01  0.94174127637E-01 -0.35289544046E-01  0.13153071490E+00  0.20172097335E-01 0.  0.
         14    1    1    2    0    0  0.13515853050E-02 -0.15931530790E-01 -0.17437677110E-01  0.23658255200E-01  0.00000000000E+00 0. -1.
     999901    1    3    3    0    0  0.80984902444E-01 -0.78242596847E-01  0.52727221156E-01  0.88874102990E+00  0.88000000000E+00 0. -1.
        -11    1    4    4    0    0 -0.51605448907E-01  0.67203290792E-01 -0.15643109762E-01  0.86164799391E-01  0.51100000000E-03 0. -1.
         11    1    4    4    0    0 -0.30731038842E-01  0.26970836845E-01 -0.19646434284E-01  0.45365915504E-01  0.51100000000E-03 0.  1.
</event>
<event>
 8    1  0.1075206E+005  0.1043930E+01  0.7957747E-01            NaN
         13   -1    0    0    0    0  0.00000000000E+00  0.00000000000E+00  0.74505805969E-08  0.10566000000E+00  0.10566000000E+00 0. -1.
     999900   -1    0    0    0    0 -0.00000000000E+00 -0.00000000000E+00 -0.74505805969E-08  0.93827000000E+00  0.93827000000E+00 0.  1.
     999902    2    1    2    0    0  0.17120090558E-01  0.11106675962E-01 -0.73990461954E-02  0.10222228206E+01  0.10219923157E+01 0.  0.
     999903    2    3    3    0    0  0.10321999172E+00  0.14085412932E-01  0.81327306053E-01  0.13357529127E+00  0.19376846512E-01 0.  0.
         14    1    1    2    0    0 -0.17120090558E-01 -0.11106675962E-01  0.73990461954E-02  0.21707179371E-01  0.00000000000E+00 0.  1.
     999901    1    3    3    0    0 -0.86099901158E-01 -0.29787369705E-02 -0.88726352248E-01  0.88864752936E+00  0.88000000000E+00 0.  1.
        -11    1    4    4    0    0  0.57429218934E-01  0.16073108141E-02  0.35139912845E-01  0.67348149426E-01  0.51100000000E-03 0.  1.
         11    1    4    4    0    0  0.45790772782E-01  0.12478102118E-01  0.46187393208E-01  0.66227141844E-01  0.51100000000E-03 0. -1.
</event>
<event>
 8    1  0.1075206E+005  0.1043930E+01  0.7957747E-01            NaN
         13   -1    0    0    0    0  0.00000000000E+00  0.00000000000E+00  0.74505805969E-08  0.10566000000E+00  0.10566000000E+00 0.  1.
     999900   -1    0    0    0    0 -0.00000000000E+00 -0.00000000000E+00 -0.74505805969E-08  0.93827000000E+00  0.93827000000E+00 0. -1.
     999902    2    1    2    0    0  0.11226313906E-02 -0.13622595052E-01 -0.19503903492E-01  0.10201132486E+01  0.10198351839E+01 0.  0.
     999903    2    3    3    0    0 -0.13124631957E-01  0.11003691739E+00 -0.65267816951E-01  0.13017561294E+00  0.20135121601E-01 0.  0.
         14    1    1    2    0    0 -0.11226313906E-02  0.13622595052E-01  0.19503903492E-01  0.23816751429E-01  0.00000000000E+00 0.  1.
     999901    1    3    3    0    0  0.14247263348E-01 -0.12365951245E+00  0.45763913459E-01  0.88993763563E+00  0.88000000000E+00 0.  1.
        -11    1    4    4    0    0  0.44885550721E-02  0.45679836206E-01 -0.27058853623E-01  0.53284493456E-01  0.51100000000E-03 0.  1.
         11    1    4    4    0    0 -0.17613187030E-01  0.64357081189E-01 -0.38208963328E-01  0.76891119488E-01  0.51100000000E-03 0. -1.
</event>
<event>
 8    1  0.1075206E+005  0.1043930E+01  0.7957747E-01            NaN
         13   -1    0    0    0    0  0.00000000000E+00  0.00000000000E+00  0.74505805969E-08  0.10566000000E+00  0.10566000000E+00 0.  1.
     999900   -1    0    0    0    0 -0.00000000000E+00 -0.00000000000E+00 -0.74505805969E-08  0.93827000000E+00  0.93827000000E+00 0. -1.
     999902    2    1    2    0    0  0.33792884092E-02 -0.21542637841E-01  0.42652034163E-02  0.10217107112E+01  0.10214690796E+01 0.  0.
     999903    2    3    3    0    0  0.34731981736E-01 -0.10000767924E+00 -0.79067143406E-01  0.13374447639E+00  0.20691189842E-01 0.  0.
         14    1    1    2    0    0 -0.33792884092E-02  0.21542637841E-01 -0.42652034163E-02  0.22219288816E-01  0.00000000000E+00 0. -1.
     999901    1    3    3    0    0 -0.31352693327E-01  0.78465041399E-01  0.83332346822E-01  0.88796623479E+00  0.88000000000E+00 0. -1.
        -11    1    4    4    0    0  0.36960150785E-02 -0.20903969914E-01 -0.71043273760E-02  0.22391272275E-01  0.51100000000E-03 0.  1.
         11    1    4    4    0    0  0.31035966658E-01 -0.79103709327E-01 -0.71962816030E-01  0.11135320412E+00  0.51100000000E-03 0. -1.
</event>
<event>
 8    1  0.1075206E+005  0.1043930E+01  0.7957747E-01            NaN
         13   -1    0    0    0    0  0.00000000000E+00  0.00000000000E+00  0.74505805969E-08  0.10566000000E+00  0.10566000000E+00 0.  1.
     999900   -1    0    0    0    0 -0.00000000000E+00 -0.00000000000E+00 -0.74505805969E-08  0.93827000000E+00  0.93827000000E+00 0. -1.
     999902    2    1    2    0    0 -0.17203178808E-01  0.15761825571E-01  0.57575981082E-02  0.10198980537E+01  0.10196148810E+01 0.  0.
     999903    2    3    3    0    0 -0.69231949342E-01 -0.11288103239E-01  0.10908541870E+00  0.13191419681E+00  0.24108974707E-01 0.  0.
         14    1    1    2    0    0  0.17203178808E-01 -0.15761825571E-01 -0.57575981082E-02  0.24031946288E-01  0.00000000000E+00 0. -1.
     999901    1    3    3    0    0  0.52028770535E-01  0.27049928810E-01 -0.10332782060E+00  0.88798385690E+00  0.88000000000E+00 0. -1.
        -11    1    4    4    0    0 -0.41994006102E-01 -0.55741214318E-02  0.43771367220E-01  0.60916016675E-01  0.51100000000E-03 0. -1.
         11    1    4    4    0    0 -0.27237943240E-01 -0.57139818076E-02  0.65314051484E-01  0.70998180134E-01  0.51100000000E-03 0.  1.
</event>
<event>
 8    1  0.1075206E+005  0.1043930E+01  0.7957747E-01            NaN
         13   -1    0    0    0    0  0.00000000000E+00  0.00000000000E+00  0.74505805969E-08  0.10566000000E+00  0.10566000000E+00 0. -1.
     999900   -1    0    0    0    0 -0.00000000000E+00 -0.00000000000E+00 -0.74505805969E-08  0.93827000000E+00  0.93827000000E+00 0.  1.
     999902    2    1    2    0    0  0.61487473448E-02 -0.23474604500E-01 -0.62819784956E-02  0.10188635403E+01  0.10185551464E+01 0.  0.
     999903    2    3    3    0    0 -0.87864922302E-01  0.89338883716E-01 -0.23025420686E-02  0.12668570534E+00  0.18500960029E-01 0.  0.
         14    1    1    2    0    0 -0.61487473448E-02  0.23474604500E-01  0.62819784956E-02  0.25066459745E-01  0.00000000000E+00 0. -1.
     999901    1    3    3    0    0  0.94013669647E-01 -0.11281348822E+00 -0.39794364270E-02  0.89217783492E+00  0.88000000000E+00 0.  1.
        -11    1    4    4    0    0 -0.33685343908E-01  0.47152252190E-01  0.63179087375E-03  0.57954271297E-01  0.51100000000E-03 0.  1.
         11    1    4    4    0    0 -0.54179578394E-01  0.42186631526E-01 -0.29343329423E-02  0.68731434041E-01  0.51100000000E-03 0. -1.
</event>
<event>
 8    1  0.1075206E+005  0.1043930E+01  0.7957747E-01            NaN
         13   -1    0    0    0    0  0.00000000000E+00  0.00000000000E+00  0.74505805969E-08  0.10566000000E+00  0.10566000000E+00 0. -1.
     999900   -1    0    0    0    0 -0.00000000000E+00 -0.00000000000E+00 -0.74505805969E-08  0.93827000000E+00  0.93827000000E+00 0. -1.
     999902    2    1    2    0    0  0.18777663778E-01 -0.88815638132E-02 -0.11926376973E-01  0.10199775200E+01  0.10196962390E+01 0.  0.
     999903    2    3    3    0    0 -0.11776100193E+00  0.21150003331E-01 -0.43057310069E-01  0.12839811392E+00  0.17809196879E-01 0.  0.
         14    1    1    2    0    0 -0.18777663778E-01  0.88815638132E-02  0.11926376973E-01  0.23952480047E-01  0.00000000000E+00 0. -1.
     999901    1    3    3    0    0  0.13653866570E+00 -0.30031567145E-01  0.31130933096E-01  0.89157940603E+00  0.88000000000E+00 0.  1.
        -11    1    4    4    0    0 -0.63032859822E-01  0.20267710462E-01 -0.22648438990E-01  0.69979528538E-01  0.51100000000E-03 0. -1.
         11    1    4    4    0    0 -0.54728142104E-01  0.88229286976E-03 -0.20408871079E-01  0.58418585387E-01  0.51100000000E-03 0.  1.
</event>
<event>
 8    1  0.1075206E+005  0.1043930E+01  0.7957747E-01            NaN
         13   -1    0    0    0    0  0.00000000000E+00  0.00000000000E+00  0.74505805969E-08  0.10566000000E+00  0.10566000000E+00 0. -1.
     999900   -1    0    0    0    0 -0.00000000000E+00 -0.00000000000E+00 -0.74505805969E-08  0.93827000000E+00  0.93827000000E+00 0.  1.
     999902    2    1    2    0    0 -0.95693283787E-02 -0.12405620971E-01  0.17366734696E-01  0.10205403666E+01  0.10202722994E+01 0.  0.
     999903    2    3    3    0    0 -0.69513879107E-02  0.12807029593E+00 -0.43648178913E-02  0.12912991274E+00  0.14323415628E-01 0.  0.
         14    1    1    2    0    0  0.95693283787E-02  0.12405620971E-01 -0.17366734696E-01  0.23389633416E-01  0.00000000000E+00 0.  1.
     999901    1    3    3    0    0 -0.26179404681E-02 -0.14047591690E+00  0.21731552588E-01  0.89141045384E+00  0.88000000000E+00 0.  1.
        -11    1    4    4    0    0 -0.28596910681E-03  0.45459948119E-01  0.49287307427E-02  0.45730101345E-01  0.51100000000E-03 0.  1.
         11    1    4    4    0    0 -0.66654188039E-02  0.82610347814E-01 -0.92935486340E-02  0.83399811397E-01  0.51100000000E-03 0. -1.
</event>
<event>
 8    1  0.1075206E+005  0.1043930E+01  0.7957747E-01            NaN
         13   -1    0    0    0    0  0.00000000000E+00  0.00000000000E+00  0.74505805969E-08  0.10566000000E+00  0.10566000000E+00 0.  1.
     999900   -1    0    0    0    0 -0.00000000000E+00 -0.00000000000E+00 -0.74505805969E-08  0.93827000000E+00  0.93827000000E+00 0.  1.
     999902    2    1    2    0    0 -0.86330339594E-02  0.21369155509E-02 -0.21963110610E-01  0.10202345593E+01  0.10199593531E+01 0.  0.
     999903    2    3    3    0    0  0.44614149725E-01 -0.88272219177E-02 -0.12305641575E+00  0.13278014849E+00  0.20477894719E-01 0.  0.
         14    1    1    2    0    0  0.86330339594E-02 -0.21369155509E-02  0.21963110610E-01  0.23695440723E-01  0.00000000000E+00 0.  1.
     999901    1    3    3    0    0 -0.53247183684E-01  0.10964137469E-01  0.10109330514E+00  0.88745441079E+00  0.88000000000E+00 0. -1.
        -11    1    4    4    0    0  0.15980087123E-01  0.56172714373E-02 -0.31520154913E-01  0.35786844085E-01  0.51100000000E-03 0. -1.
         11    1    4    4    0    0  0.28634062601E-01 -0.14444493355E-01 -0.91536260842E-01  0.96993304404E-01  0.51100000000E-03 0.  1.
</event>
<event>
 8    1  0.1075206E+005  0.1043930E+01  0.7957747E-01            NaN
         13   -1    0    0    0    0  0.00000000000E+00  0.00000000000E+00  0.74505805969E-08  0.10566000000E+00  0.10566000000E+00 0. -1.
     999900   -1    0    0    0    0 -0.00000000000E+00 -0.00000000000E+00 -0.74505805969E-08  0.93827000000E+00  0.93827000000E+00 0.  1.
     999902    2    1    2    0    0  0.14883193092E-01 -0.35511976650E-02  0.18064451074E-01  0.10202562839E+01  0.10199815881E+01 0.  0.
     999903    2    3    3    0    0 -0.48835984855E-01  0.96093484825E-01 -0.66111548470E-01  0.12836234666E+00  0.22073603144E-01 0.  0.
         14    1    1    2    0    0 -0.14883193092E-01  0.35511976650E-02 -0.18064451074E-01  0.23673716102E-01  0.00000000000E+00 0.  1.
     999901    1    3    3    0    0  0.63719177947E-01 -0.99644682490E-01  0.84175999544E-01  0.89189393724E+00  0.88000000000E+00 0. -1.
        -11    1    4    4    0    0 -0.20486252107E-01  0.52074841492E-01 -0.22869878586E-01  0.60454678143E-01  0.51100000000E-03 0. -1.
         11    1    4    4    0    0 -0.28349732748E-01  0.44018643333E-01 -0.43241669884E-01  0.67907668515E-01  0.51100000000E-03 0.  1.
</event>
<event>
 8    1  0.1075206E+005  0.1043930E+01  0.7957747E-01            NaN
         13   -1    0    0    0    0  0.00000000000E+00  0.00000000000E+00  0.74505805969E-08  0.10566000000E+00  0.10566000000E+00 0. -1.
     999900   -1    0    0    0    0 -0.00000000000E+00 -0.00000000000E+00 -0.74505805969E-08  0.93827000000E+00  0.93827000000E+00 0. -1.
     999902    2    1    2    0    0  0.19029360921E-01 -0.79866507477E-02  0.11896128345E-01  0.10201093989E+01  0.10198312432E+01 0.  0.
     999903    2    3    3    0    0 -0.93678877450E-01 -0.30589486290E-01 -0.79108561474E-01  0.12797942589E+00  0.20226719973E-01 0.  0.
         14    1    1    2    0    0 -0.19029360921E-01  0.79866507477E-02 -0.11896128345E-01  0.23820601101E-01  0.00000000000E+00 0.  1.
     999901    1    3    3    0    0  0.11270823837E+00  0.22602835543E-01  0.91004689818E-01  0.89212997301E+00  0.88000000000E+00 0.  1.
        -11    1    4    4    0    0 -0.10455975804E-01 -0.10325770126E-01 -0.85857106806E-02  0.17027169689E-01  0.51100000000E-03 0. -1.
         11    1    4    4    0    0 -0.83222901646E-01 -0.20263716164E-01 -0.70522850793E-01  0.11095225620E+00  0.51100000000E-03 0.  1.
</event>
<event>
 8    1  0.1075206E+005  0.1043930E+01  0.7957747E-01            NaN
         13   -1    0    0    0    0  0.00000000000E+00  0.00000000000E+00  0.74505805969E-08  0.10566000000E+00  0.10566000000E+00 0.  1.
     999900   -1    0    0    0    0 -0.00000000000E+00 -0.00000000000E+00 -0.74505805969E-08  0.93827000000E+00  0.93827000000E+00 0. -1.
     999902    2    1    2    0    0  0.21287093132E-01 -0.12663501027E-01  0.54884597546E-02  0.10185601797E+01  0.10182441809E+01 0.  0.
     999903    2    3    3    0    0 -0.49606778347E-01 -0.47502803352E-01  0.10776378122E+00  0.12912217770E+00  0.18497444321E-01 0.  0.
         14    1    1    2    0    0 -0.21287093132E-01  0.12663501027E-01 -0.54884597546E-02  0.25369820314E-01  0.00000000000E+00 0. -1.
     999901    1    3    3    0    0  0.70893871480E-01  0.34839302325E-01 -0.10227532147E+00  0.88943800199E+00  0.88000000000E+00 0. -1.
        -11    1    4    4    0    0 -0.16970370931E-01 -0.71075737607E-02  0.20302554105E-01  0.27403757379E-01  0.51100000000E-03 0.  1.
         11    1    4    4    0    0 -0.32636407416E-01 -0.40395229591E-01  0.87461227115E-01  0.10171842032E+00  0.51100000000E-03 0. -1.
</event>
<event>
 8    1  0.1075206E+005  0.1043930E+01  0.7957747E-01            NaN
         13   -1    0    0    0    0  0.00000000000E+00  0.00000000000E+00  0.74505805969E-08  0.10566000000E+00  0.10566000000E+00 0. -1.
     999900   -1    0    0    0    0 -0.00000000000E+00 -0.00000000000E+00 -0.74505805969E-08  0.93827000000E+00  0.93827000000E+00 0. -1.
     999902    2    1    2    0    0 -0.78522542236E-02  0.22173089904E-01  0.35305503662E-02  0.10201441093E+01  0.10198667732E+01 0.  0.
     999903    2    3    3    0    0 -0.36260826653E-01 -0.10054052415E+00 -0.68041892679E-01  0.12829866712E+00  0.20189211965E-01 0.  0.
         14    1    1    2    0    0  0.78522542236E-02 -0.22173089904E-01 -0.35305503662E-02  0.23785890738E-01  0.00000000000E+00 0.  1.
     999901    1    3    3    0    0  0.28408572429E-01  0.12271361406E+00  0.71572443045E-01  0.89184544214E+00  0.88000000000E+00 0.  1.
        -11    1    4    4    0    0 -0.13358769686E-01 -0.28824360036E-01 -0.10240571678E-01  0.33383092851E-01  0.51100000000E-03 0.  1.
         11    1    4    4    0    0 -0.22902056967E-01 -0.71716164116E-01 -0.57801321001E-01  0.94915574271E-01  0.51100000000E-03 0. -1.
</event>
<event>
 8    1  0.1075206E+005  0.1043930E+01  0.7957747E-01            NaN
         13   -1    0    0    0    0  0.00000000000E+00  0.00000000000E+00  0.74505805969E-08  0.10566000000E+00  0.10566000000E+00 0. -1.
     999900   -1    0    0    0    0 -0.00000000000E+00 -0.00000000000E+00 -0.74505805969E-08  0.93827000000E+00  0.93827000000E+00 0.  1.
     999902    2    1    2    0    0  0.94499294454E-02  0.98271880891E-02 -0.19393761957E-01  0.10202236128E+01  0.10199481493E+01 0.  0.
     999903    2    3    3    0    0 -0.69544627946E-01  0.53997554668E-01  0.91792202453E-01  0.12862197524E+00  0.19121006692E-01 0.  0.
         14    1    1    2    0    0 -0.94499294454E-02 -0.98271880891E-02  0.19393761957E-01  0.23706387222E-01  0.00000000000E+00 0.  1.
     999901    1    3    3    0    0  0.78994557392E-01 -0.44170366578E-01 -0.11118596441E+00  0.89160163754E+00  0.88000000000E+00 0.  1.
        -11    1    4    4    0    0 -0.12020173945E-01  0.19774118801E-01  0.24628663537E-01  0.33798410386E-01  0.51100000000E-03 0. -1.
         11    1    4    4    0    0 -0.57524454001E-01  0.34223435867E-01  0.67163538916E-01  0.94823564852E-01  0.51100000000E-03 0.  1.
</event>
<event>
 8    1  0.1075206E+005  0.1043930E+01  0.7957747E-01            NaN
         13   -1    0    0    0    0  0.00000000000E+00  0.00000000000E+00  0.74505805969E-08  0.10566000000E+00  0.10566000000E+00 0. -1.
     999900   -1    0    0    0    0 -0.00000000000E+00 -0.00000000000E+00 -0.74505805969E-08  0.93827000000E+00  0.93827000000E+00 0.  1.
     999902    2    1    2    0    0  0.12912170288E-01  0.13266432698E-01 -0.15161089719E-01  0.10200013348E+01  0.10197206195E+01 0.  0.
     999903    2    3    3    0    0 -0.11150757149E+00  0.43277761629E-01 -0.46918858358E-01  0.13017578565E+00  0.20915371092E-01 0.  0.
         14    1    1    2    0    0 -0.12912170288E-01 -0.13266432698E-01  0.15161089719E-01  0.23928665227E-01  0.00000000000E+00 0.  1.
     999901    1    3    3    0    0  0.12441974178E+00 -0.30011328931E-01  0.31757768639E-01  0.88982554913E+00  0.88000000000E+00 0. -1.
        -11    1    4    4    0    0 -0.31338173112E-01  0.13687522797E-01 -0.23733598646E-01  0.41629006714E-01  0.51100000000E-03 0.  1.
         11    1    4    4    0    0 -0.80169398378E-01  0.29590238832E-01 -0.23185259712E-01  0.88546778933E-01  0.51100000000E-03 0. -1.
</event>
<event>
 8    1  0.1075206E+005  0.1043930E+01  0.7957747E-01            NaN
         13   -1    0    0    0    0  0.00000000000E+00  0.00000000000E+00  0.74505805969E-08  0.10566000000E+00  0.10566000000E+00 0.  1.
     999900   -1    0    0    0    0 -0.00000000000E+00 -0.00000000000E+00 -0.74505805969E-08  0.93827000000E+00  0.93827000000E+00 0.  1.
     999902    2    1    2    0    0  0.18302291179E-01  0.14115192338E-01 -0.46371303656E-02  0.10203563814E+01  0.10200840306E+01 0.  0.
     999903    2    3    3    0    0  0.10655794643E+00 -0.74012865613E-01  0.63918277007E-02  0.13149348238E+00  0.20424990171E-01 0.  0.
         14    1    1    2    0    0 -0.18302291179E-01 -0.14115192338E-01  0.46371303656E-02  0.23573618627E-01  0.00000000000E+00 0.  1.
     999901    1    3    3    0    0 -0.88255655255E-01  0.88128057952E-01 -0.11028958066E-01  0.88886289899E+00  0.88000000000E+00 0. -1.
        -11    1    4    4    0    0  0.39995066167E-01 -0.40045025455E-01  0.34748144731E-02  0.56705774292E-01  0.51100000000E-03 0. -1.
         11    1    4    4    0    0  0.66562880268E-01 -0.33967840158E-01  0.29170132275E-02  0.74787708092E-01  0.51100000000E-03 0.  1.
</event>
<event>
 8    1  0.1075206E+005  0.1043930E+01  0.7957747E-01            NaN
         13   -1    0    0    0    0  0.00000000000E+00  0.00000000000E+00  0.74505805969E-08  0.10566000000E+00  0.10566000000E+00 0. -1.
     999900   -1    0    0    0    0 -0.00000000000E+00 -0.00000000000E+00 -0.74505805969E-08  0.93827000000E+00  0.93827000000E+00 0. -1.
     999902    2    1    2    0    0  0.25052172412E-01  0.83464780369E-02  0.52578542664E-02  0.10170056603E+01  0.10166491986E+01 0.  0.
     999903    2    3    3    0    0  0.60409782735E-01 -0.70516802025E-01 -0.86062460299E-01  0.12806866734E+00  0.19309978359E-01 0.  0.
         14    1    1    2    0    0 -0.25052172412E-01 -0.83464780369E-02 -0.52578542664E-02  0.26924339725E-01  0.00000000000E+00 0. -1.
     999901    1    3    3    0    0 -0.35357610323E-01  0.78863280062E-01  0.91320314566E-01  0.88893699293E+00  0.88000000000E+00 0.  1.
        -11    1    4    4    0    0  0.39743097309E-02 -0.15442961152E-01 -0.13290394434E-01  0.20764775274E-01  0.51100000000E-03 0. -1.
         11    1    4    4    0    0  0.56435473004E-01 -0.55073840873E-01 -0.72772065866E-01  0.10730389207E+00  0.51100000000E-03 0.  1.
</event>
<event>
 7    1  0.1075206E+005  0.1043930E+01  0.7957747E-01            NaN
         13   -1    0    0    0    0  0.00000000000E+00  0.00000000000E+00  0.74505805969E-08  0.10566000000E+00  0.10566000000E+00 0. -1.
     999900   -1    0    0    0    0 -0.00000000000E+00 -0.00000000000E+00 -0.74505805969E-08  0.93827000000E+00  0.93827000000E+00 0. -1.
     999902    2    1    2    0    0 -0.11497125431E-01 -0.80133494831E-02 -0.18903199528E-01  0.10203985611E+01  0.10201271955E+01 0.  0.
         14    1    1    2    0    0  0.11497125431E-01  0.80133494831E-02  0.18903199528E-01  0.23531438874E-01  0.00000000000E+00 0. -1.
     999901    1    3    3    0    0 -0.10981207638E+00  0.62849989407E-01 -0.45802936975E-01  0.89022846636E+00  0.88000000000E+00 0. -1.
        -11    1    3    3    0    0  0.88432596480E-02 -0.22658276668E-01  0.13023019972E-01  0.27594581225E-01  0.51100000000E-03 0.  1.
         11    1    3    3    0    0  0.89471691304E-01 -0.48205062222E-01  0.13876717474E-01  0.10257551354E+00  0.51100000000E-03 0. -1.
</event>
<event>
 8    1  0.1075206E+005  0.1043930E+01  0.7957747E-01            NaN
         13   -1    0    0    0    0  0.00000000000E+00  0.00000000000E+00  0.74505805969E-08  0.10566000000E+00  0.10566000000E+00 0. -1.
     999900   -1    0    0    0    0 -0.00000000000E+00 -0.00000000000E+00 -0.74505805969E-08  0.93827000000E+00  0.93827000000E+00 0.  1.
     999902    2    1    2    0    0  0.39232937583E-02 -0.25061736505E-01 -0.17579925426E-02  0.10185021922E+01  0.10181847289E+01 0.  0.
     999903    2    3    3    0    0 -0.88242010904E-01 -0.91982551447E-01 -0.22183160144E-01  0.13092682848E+00  0.20057406668E-01 0.  0.
         14    1    1    2    0    0 -0.39232937583E-02  0.25061736505E-01  0.17579925426E-02  0.25427807777E-01  0.00000000000E+00 0. -1.
     999901    1    3    3    0    0  0.92165304662E-01  0.66920814942E-01  0.20425167601E-01  0.88757536375E+00  0.88000000000E+00 0. -1.
        -11    1    4    4    0    0 -0.48253027908E-01 -0.52449765127E-01 -0.22348246077E-01  0.74692956748E-01  0.51100000000E-03 0.  1.
         11    1    4    4    0    0 -0.39988982996E-01 -0.39532786320E-01  0.16508593342E-03  0.56233871729E-01  0.51100000000E-03 0. -1.
</event>
<event>
 8    1  0.1075206E+005  0.1043930E+01  0.7957747E-01            NaN
         13   -1    0    0    0    0  0.00000000000E+00  0.00000000000E+00  0.74505805969E-08  0.10566000000E+00  0.10566000000E+00 0.  1.
     999900   -1    0    0    0    0 -0.00000000000E+00 -0.00000000000E+00 -0.74505805969E-08  0.93827000000E+00  0.93827000000E+00 0.  1.
     999902    2    1    2    0    0  0.12174997769E-01  0.11592214732E-01 -0.16430030918E-01  0.10204234918E+01  0.10201527075E+01 0.  0.
     999903    2    3    3    0    0  0.10362783068E+00  0.73799798283E-01  0.30464744210E-01  0.13226104940E+00  0.19487099089E-01 0.  0.
         14    1    1    2    0    0 -0.12174997769E-01 -0.11592214732E-01  0.16430030918E-01  0.23506508227E-01  0.00000000000E+00 0.  1.
     999901    1    3    3    0    0 -0.91452832916E-01 -0.62207583551E-01 -0.46894775128E-01  0.88816244237E+00  0.88000000000E+00 0.  1.
        -11    1    4    4    0    0  0.67285076348E-01  0.58603524833E-01  0.18979252884E-01  0.91225696945E-01  0.51100000000E-03 0. -1.
         11    1    4    4    0    0  0.36342754337E-01  0.15196273450E-01  0.11485491326E-01  0.41035352460E-01  0.51100000000E-03 0.  1.
</event>
<event>
 8    1  0.1075206E+005  0.1043930E+01  0.7957747E-01            NaN
         13   -1    0    0    0    0  0.00000000000E+00  0.00000000000E+00  0.74505805969E-08  0.10566000000E+00  0.10566000000E+00 0.  1.
     999900   -1    0    0    0    0 -0.00000000000E+00 -0.00000000000E+00 -0.74505805969E-08  0.93827000000E+00  0.93827000000E+00 0.  1.
     999902    2    1    2    0    0  0.58825124437E-02  0.13454389664E-01  0.16526793395E-01  0.10218220952E+01  0.10215829065E+01 0.  0.
     999903    2    3    3    0    0 -0.11634026399E+00  0.37115600552E-01 -0.43040744562E-01  0.13106592681E+00  0.20326009177E-01 0.  0.
         14    1    1    2    0    0 -0.58825124437E-02 -0.13454389664E-01 -0.16526793395E-01  0.22107904781E-01  0.00000000000E+00 0. -1.
     999901    1    3    3    0    0  0.12222277643E+00 -0.23661210888E-01  0.59567537957E-01  0.89075616841E+00  0.88000000000E+00 0. -1.
        -11    1    4    4    0    0 -0.35963068788E-01  0.74102680415E-02 -0.22073904446E-01  0.42845918914E-01  0.51100000000E-03 0. -1.
         11    1    4    4    0    0 -0.80377195200E-01  0.29705332511E-01 -0.20966840116E-01  0.88220007897E-01  0.51100000000E-03 0.  1.
</event>
<event>
 8    1  0.1075206E+005  0.1043930E+01  0.7957747E-01            NaN
         13   -1    0    0    0    0  0.00000000000E+00  0.00000000000E+00  0.74505805969E-08  0.10566000000E+00  0.10566000000E+00 0. -1.
     999900   -1    0    0    0    0 -0.00000000000E+00 -0.00000000000E+00 -0.74505805969E-08  0.93827000000E+00  0.93827000000E+00 0.  1.
     999902    2    1    2    0    0  0.15587041462E-01 -0.14329418230E-01  0.97442174394E-02  0.10206225363E+01  0.10203563710E+01 0.  0.
     999903    2    3    3    0    0 -0.70725873311E-01  0.10173844560E+00 -0.26511915330E-01  0.12807776132E+00  0.18659336024E-01 0.  0.
         14    1    1    2    0    0 -0.15587041462E-01  0.14329418230E-01 -0.97442174394E-02  0.23307463651E-01  0.00000000000E+00 0.  1.
     999901    1    3    3    0    0  0.86312914774E-01 -0.11606786383E+00  0.36256132769E-01  0.89254477503E+00  0.88000000000E+00 0.  1.
        -11    1    4    4    0    0 -0.55270908445E-01  0.74331479865E-01 -0.11929900290E-01  0.93394999123E-01  0.51100000000E-03 0.  1.
         11    1    4    4    0    0 -0.15454964867E-01  0.27406965736E-01 -0.14582015039E-01  0.34682762195E-01  0.51100000000E-03 0. -1.
</event>
<event>
 8    1  0.1347228E+005  0.1043930E+01  0.7957747E-01            NaN
         13   -1    0    0    0    0  0.00000000000E+00  0.00000000000E+00  0.74505805969E-08  0.10566000000E+00  0.10566000000E+00 0.  1.
     999900   -1    0    0    0    0 -0.00000000000E+00 -0.00000000000E+00 -0.74505805969E-08  0.93827000000E+00  0.93827000000E+00 0. -1.
     999902    2    1    2    0    0  0.81169984454E-02 -0.12176438696E-01  0.20268312941E-01  0.10189308834E+01  0.10186241649E+01 0.  0.
     999903    2    3    3    0    0 -0.95899656415E-03 -0.10809436663E+00  0.73231109710E-01  0.13208947678E+00  0.19988063320E-01 0.  0.
         14    1    1    2    0    0 -0.81169984454E-02  0.12176438696E-01 -0.20268312941E-01  0.24999116635E-01  0.00000000000E+00 0. -1.
     999901    1    3    3    0    0  0.90759950095E-02  0.95917927938E-01 -0.52962796769E-01  0.88684140658E+00  0.88000000000E+00 0. -1.
        -11    1    4    4    0    0 -0.10205856039E-01 -0.44425508293E-01  0.29657160812E-01  0.54383762219E-01  0.51100000000E-03 0.  1.
         11    1    4    4    0    0  0.92468594749E-02 -0.63668858340E-01  0.43573948898E-01  0.77705714565E-01  0.51100000000E-03 0. -1.
</event>
<event>
 8    1  0.1075206E+005  0.1043930E+01  0.7957747E-01            NaN
         13   -1    0    0    0    0  0.00000000000E+00  0.00000000000E+00  0.74505805969E-08  0.10566000000E+00  0.10566000000E+00 0. -1.
     999900   -1    0    0    0    0 -0.00000000000E+00 -0.00000000000E+00 -0.74505805969E-08  0.93827000000E+00  0.93827000000E+00 0. -1.
     999902    2    1    2    0    0  0.79277720621E-02 -0.20270889277E-01 -0.95614585895E-02  0.10201564851E+01  0.10198794409E+01 0.  0.
     999903    2    3    3    0    0 -0.77910882992E-01  0.17395322438E-02 -0.10311800003E+00  0.13077155164E+00  0.19868193886E-01 0.  0.
         14    1    1    2    0    0 -0.79277720621E-02  0.20270889277E-01  0.95614585895E-02  0.23773514934E-01  0.00000000000E+00 0. -1.
     999901    1    3    3    0    0  0.85838655054E-01 -0.22010421521E-01  0.93556541437E-01  0.88938493342E+00  0.88000000000E+00 0. -1.
        -11    1    4    4    0    0 -0.51252548551E-01  0.45798629004E-02 -0.52642334809E-01  0.73615728023E-01  0.51100000000E-03 0. -1.
         11    1    4    4    0    0 -0.26658334440E-01 -0.28403306566E-02 -0.50475665217E-01  0.57155823619E-01  0.51100000000E-03 0.  1.
</event>
<event>
 8    1  0.1075206E+005  0.1043930E+01  0.7957747E-01            NaN
         13   -1    0    0    0    0  0.00000000000E+00  0.00000000000E+00  0.74505805969E-08  0.10566000000E+00  0.10566000000E+00 0. -1.
     999900   -1    0    0    0    0 -0.00000000000E+00 -0.00000000000E+00 -0.74505805969E-08  0.93827000000E+00  0.93827000000E+00 0. -1.
     999902    2    1    2    0    0 -0.17431231826E-01  0.12603325987E-01  0.12371096451E-01  0.10191159778E+01  0.10188138400E+01 0.  0.
     999903    2    3    3    0    0  0.11508715417E+00 -0.47043500205E-01  0.17658121010E-01  0.12718166459E+00  0.20130141656E-01 0.  0.
         14    1    1    2    0    0  0.17431231826E-01 -0.12603325987E-01 -0.12371096451E-01  0.24814022171E-01  0.00000000000E+00 0.  1.
     999901    1    3    3    0    0 -0.13251838600E+00  0.59646826192E-01 -0.52870245586E-02  0.89193431324E+00  0.88000000000E+00 0. -1.
        -11    1    4    4    0    0  0.47530597254E-01 -0.16157147544E-01  0.16641899376E-01  0.52890689426E-01  0.51100000000E-03 0.  1.
         11    1    4    4    0    0  0.67556556919E-01 -0.30886352661E-01  0.10162216336E-02  0.74290975165E-01  0.51100000000E-03 0. -1.
</event>
<event>
 8    1  0.1075206E+005  0.1043930E+01  0.7957747E-01            NaN
         13   -1    0    0    0    0  0.00000000000E+00  0.00000000000E+00  0.74505805969E-08  0.10566000000E+00  0.10566000000E+00 0. -1.
     999900   -1    0    0    0    0 -0.00000000000E+00 -0.00000000000E+00 -0.74505805969E-08  0.93827000000E+00  0.93827000000E+00 0. -1.
     999902    2    1    2    0    0  0.47955178957E-02  0.10488467286E-02  0.23525429002E-01  0.10198978781E+01  0.10196147012E+01 0.  0.
     999903    2    3    3    0    0  0.68044300807E-01 -0.91960643594E-01 -0.56551496185E-01  0.12913220313E+00  0.19755184684E-01 0.  0.
         14    1    1    2    0    0 -0.47955178957E-02 -0.10488467286E-02 -0.23525429002E-01  0.24032121860E-01  0.00000000000E+00 0.  1.
     999901    1    3    3    0    0 -0.63248782911E-01  0.93009490323E-01  0.80076925187E-01  0.89076567501E+00  0.88000000000E+00 0.  1.
        -11    1    4    4    0    0  0.53217781196E-01 -0.57850230331E-01 -0.42575374900E-01  0.89396336914E-01  0.51100000000E-03 0. -1.
         11    1    4    4    0    0  0.14826519611E-01 -0.34110413263E-01 -0.13976121285E-01  0.39735866216E-01  0.51100000000E-03 0.  1.
</event>
<event>
 8    1  0.1075206E+005  0.1043930E+01  0.7957747E-01            NaN
         13   -1    0    0    0    0  0.00000000000E+00  0.00000000000E+00  0.74505805969E-08  0.10566000000E+00  0.10566000000E+00 0.  1.
     999900   -1    0    0    0    0 -0.00000000000E+00 -0.00000000000E+00 -0.74505805969E-08  0.93827000000E+00  0.93827000000E+00 0.  1.
     999902    2    1    2    0    0 -0.16223998027E-02 -0.11360717958E-01 -0.20383012610E-01  0.10205384354E+01  0.10202703234E+01 0.  0.
     999903    2    3    3    0    0  0.57540345939E-01 -0.90768343785E-02  0.11283286621E+00  0.12854520837E+00  0.19983357191E-01 0.  0.
         14    1    1    2    0    0  0.16223998027E-02  0.11360717958E-01  0.20383012610E-01  0.23391564649E-01  0.00000000000E+00 0.  1.
     999901    1    3    3    0    0 -0.59162745742E-01 -0.22838835793E-02 -0.13321587882E+00  0.89199322698E+00  0.88000000000E+00 0.  1.
        -11    1    4    4    0    0  0.32803217758E-01  0.29483800627E-02  0.73533221190E-01  0.80573815721E-01  0.51100000000E-03 0.  1.
         11    1    4    4    0    0  0.24737128181E-01 -0.12025214441E-01  0.39299645022E-01  0.47971392651E-01  0.51100000000E-03 0. -1.
</event>
<event>
 8    1  0.1075206E+005  0.1043930E+01  0.7957747E-01            NaN
         13   -1    0    0    0    0  0.00000000000E+00  0.00000000000E+00  0.74505805969E-08  0.10566000000E+00  0.10566000000E+00 0. -1.
     999900   -1    0    0    0    0 -0.00000000000E+00 -0.00000000000E+00 -0.74505805969E-08  0.93827000000E+00  0.93827000000E+00 0. -1.
     999902    2    1    2    0    0 -0.76866144683E-02  0.49628908129E-02  0.21292891150E-01  0.10207545487E+01  0.10204914244E+01 0.  0.
     999903    2    3    3    0    0 -0.82930993317E-01 -0.77305167504E-01  0.66169127555E-01  0.13258585612E+00  0.18628398394E-01 0.  0.
         14    1    1    2    0    0  0.76866144683E-02 -0.49628908129E-02 -0.21292891150E-01  0.23175451252E-01  0.00000000000E+00 0.  1.
     999901    1    3    3    0    0  0.75244378849E-01  0.82268058317E-01 -0.44876236405E-01  0.88816869263E+00  0.88000000000E+00 0. -1.
        -11    1    4    4    0    0 -0.98618539907E-02 -0.18358298821E-01  0.93416785964E-02  0.22843191102E-01  0.51100000000E-03 0. -1.
         11    1    4    4    0    0 -0.73069139327E-01 -0.58946868684E-01  0.56827448958E-01  0.10974266502E+00  0.51100000000E-03 0.  1.
</event>
<event>
 8    1  0.1075206E+005  0.1043930E+01  0.7957747E-01            NaN
         13   -1    0    0    0    0  0.00000000000E+00  0.00000000000E+00  0.74505805969E-08  0.10566000000E+00  0.10566000000E+00 0. -1.
     999900   -1    0    0    0    0 -0.00000000000E+00 -0.00000000000E+00 -0.74505805969E-08  0.93827000000E+00  0.93827000000E+00 0.  1.
     999902    2    1    2    0    0 -0.93424540760E-02  0.19173199086E-01  0.96801507399E-02  0.10205078240E+01  0.10202390016E+01 0.  0.
     999903    2    3    3    0    0  0.12531725025E+00 -0.21902307538E-01  0.11472028594E-01  0.12931556411E+00  0.20168871975E-01 0.  0.
         14    1    1    2    0    0  0.93424540760E-02 -0.19173199086E-01 -0.96801507399E-02  0.23422176024E-01  0.00000000000E+00 0.  1.
     999901    1    3    3    0    0 -0.13465970432E+00  0.41075506625E-01 -0.17918778542E-02  0.89119225986E+00  0.88000000000E+00 0. -1.
        -11    1    4    4    0    0  0.43673839107E-01 -0.11355857238E-01  0.13047242708E-01  0.46977136772E-01  0.51100000000E-03 0. -1.
         11    1    4    4    0    0  0.81643411140E-01 -0.10546450300E-01 -0.15752141143E-02  0.82338427341E-01  0.51100000000E-03 0.  1.
</event>
<event>
 8    1  0.1075206E+005  0.1043930E+01  0.7957747E-01            NaN
         13   -1    0    0    0    0  0.00000000000E+00  0.00000000000E+00  0.74505805969E-08  0.10566000000E+00  0.10566000000E+00 0. -1.
     999900   -1    0    0    0    0 -0.00000000000E+00 -0.00000000000E+00 -0.74505805969E-08  0.93827000000E+00  0.93827000000E+00 0.  1.
     999902    2    1    2    0    0  0.14994215776E-01  0.17222243788E-01 -0.70682857601E-02  0.10200261750E+01  0.10197460492E+01 0.  0.
     999903    2    3    3    0    0 -0.62829298777E-01 -0.54470167931E-01  0.95035318751E-01  0.12782583459E+00  0.19829578865E-01 0.  0.
         14    1    1    2    0    0 -0.14994215776E-01 -0.17222243788E-01  0.70682857601E-02  0.23903825037E-01  0.00000000000E+00 0.  1.
     999901    1    3    3    0    0  0.77823514554E-01  0.71692411718E-01 -0.10210360451E+00  0.89220034038E+00  0.88000000000E+00 0.  1.
        -11    1    4    4    0    0 -0.52846075356E-01 -0.53833613433E-01  0.82783603674E-01  0.11200067756E+00  0.51100000000E-03 0.  1.
         11    1    4    4    0    0 -0.99832234218E-02 -0.63655449750E-03  0.12251715078E-01  0.15825157025E-01  0.51100000000E-03 0. -1.
</event>
<event>
 8    1  0.1075206E+005  0.1043930E+01  0.7957747E-01            NaN
         13   -1    0    0    0    0  0.00000000000E+00  0.00000000000E+00  0.74505805969E-08  0.10566000000E+00  0.10566000000E+00 0. -1.
     999900   -1    0    0    0    0 -0.00000000000E+00 -0.00000000000E+00 -0.74505805969E-08  0.93827000000E+00  0.93827000000E+00 0. -1.
     999902    2    1    2    0    0 -0.19908038007E-01 -0.91369120489E-02 -0.76088734689E-02  0.10207414663E+01  0.10204780414E+01 0.  0.
     999903    2    3    3    0    0  0.53741774232E-01 -0.99570735672E-02 -0.11815841553E+00  0.13077170910E+00  0.12349377688E-01 0.  0.
         14    1    1    2    0    0  0.19908038007E-01  0.91369120489E-02  0.76088734689E-02  0.23188533687E-01  0.00000000000E+00 0. -1.
     999901    1    3    3    0    0 -0.73649812239E-01  0.82016151836E-03  0.11054954206E+00  0.88996975721E+00  0.88000000000E+00 0.  1.
        -11    1    4    4    0    0  0.23330564513E-01 -0.59488495648E-02 -0.66045863210E-01  0.70299510808E-01  0.51100000000E-03 0. -1.
         11    1    4    4    0    0  0.30411209719E-01 -0.40082240025E-02 -0.52112552316E-01  0.60472198291E-01  0.51100000000E-03 0.  1.
</event>
<event>
 8    1  0.1075206E+005  0.1043930E+01  0.7957747E-01            NaN
         13   -1    0    0    0    0  0.00000000000E+00  0.00000000000E+00  0.74505805969E-08  0.10566000000E+00  0.10566000000E+00 0. -1.
     999900   -1    0    0    0    0 -0.00000000000E+00 -0.00000000000E+00 -0.74505805969E-08  0.93827000000E+00  0.93827000000E+00 0. -1.
     999902    2    1    2    0    0 -0.15584953321E-01 -0.31875581445E-02  0.15079328370E-01  0.10220111168E+01  0.10217760446E+01 0.  0.
     999903    2    3    3    0    0  0.32043787874E-01  0.12492825389E+00  0.15420142511E-01  0.13145944820E+00  0.20246796390E-01 0.  0.
         14    1    1    2    0    0  0.15584953321E-01  0.31875581445E-02 -0.15079328370E-01  0.21918883206E-01  0.00000000000E+00 0. -1.
     999901    1    3    3    0    0 -0.47628741195E-01 -0.12811581204E+00 -0.34081414161E-03  0.89055166859E+00  0.88000000000E+00 0.  1.
        -11    1    4    4    0    0  0.33524601906E-01  0.10615194304E+00  0.16735370015E-01  0.11257205548E+00  0.51100000000E-03 0. -1.
         11    1    4    4    0    0 -0.14808140315E-02  0.18776310855E-01 -0.13152275042E-02  0.18887392724E-01  0.51100000000E-03 0.  1.
</event>
<event>
 8    1  0.1075206E+005  0.1043930E+01  0.7957747E-01            NaN
         13   -1    0    0    0    0  0.00000000000E+00  0.00000000000E+00  0.74505805969E-08  0.10566000000E+00  0.10566000000E+00 0. -1.
     999900   -1    0    0    0    0 -0.00000000000E+00 -0.00000000000E+00 -0.74505805969E-08  0.93827000000E+00  0.93827000000E+00 0. -1.
     999902    2    1    2    0    0 -0.56122051127E-02 -0.20057081232E-02  0.22340906873E-01  0.10208078065E+01  0.10205459039E+01 0.  0.
     999903    2    3    3    0    0  0.87254111038E-01 -0.58012259628E-01  0.78524822969E-01  0.13237237335E+00  0.19431810109E-01 0.  0.
         14    1    1    2    0    0  0.56122051127E-02  0.20057081232E-02 -0.22340906873E-01  0.23122193477E-01  0.00000000000E+00 0.  1.
     999901    1    3    3    0    0 -0.92866316151E-01  0.56006551505E-01 -0.56183916096E-01  0.88843543317E+00  0.88000000000E+00 0. -1.
        -11    1    4    4    0    0  0.45083165173E-01 -0.18393836749E-01  0.36686833029E-01  0.60967285088E-01  0.51100000000E-03 0.  1.
         11    1    4    4    0    0  0.42170945866E-01 -0.39618422880E-01  0.41837989939E-01  0.71405088263E-01  0.51100000000E-03 0. -1.
</event>
<event>
 8    1  0.1075206E+005  0.1043930E+01  0.7957747E-01            NaN
         13   -1    0    0    0    0  0.00000000000E+00  0.00000000000E+00  0.74505805969E-08  0.10566000000E+00  0.10566000000E+00 0. -1.
     999900   -1    0    0    0    0 -0.00000000000E+00 -0.00000000000E+00 -0.74505805969E-08  0.93827000000E+00  0.93827000000E+00 0.  1.
     999902    2    1    2    0    0  0.97099068723E-02  0.14562399937E-01 -0.15371251628E-01  0.10206357698E+01  0.10203699101E+01 0.  0.
     999903    2    3    3    0    0 -0.59791077160E-01 -0.72073102136E-01 -0.88760646835E-01  0.13062335398E+00  0.20359352152E-01 0.  0.
         14    1    1    2    0    0 -0.97099068723E-02 -0.14562399937E-01  0.15371251628E-01  0.23294230187E-01  0.00000000000E+00 0. -1.
     999901    1    3    3    0    0  0.69500984033E-01  0.86635502073E-01  0.73389395207E-01  0.89001241583E+00  0.88000000000E+00 0.  1.
        -11    1    4    4    0    0 -0.37628666966E-01 -0.29817115431E-01 -0.47535109662E-01  0.67563486602E-01  0.51100000000E-03 0. -1.
         11    1    4    4    0    0 -0.22162410194E-01 -0.42255986706E-01 -0.41225537173E-01  0.63059867382E-01  0.51100000000E-03 0.  1.
</event>
<event>
 8    1  0.1075206E+005  0.1043930E+01  0.7957747E-01            NaN
         13   -1    0    0    0    0  0.00000000000E+00  0.00000000000E+00  0.74505805969E-08  0.10566000000E+00  0.10566000000E+00 0.  1.
     999900   -1    0    0    0    0 -0.00000000000E+00 -0.00000000000E+00 -0.74505805969E-08  0.93827000000E+00  0.93827000000E+00 0.  1.
     999902    2    1    2    0    0 -0.82424936534E-02 -0.11134521252E-01  0.19240886037E-01  0.10202207621E+01  0.10199452316E+01 0.  0.
     999903    2    3    3    0    0  0.19868187837E-01 -0.11533198753E+00  0.59373047414E-01  0.13271982535E+00  0.19828793355E-01 0.  0.
         14    1    1    2    0    0  0.82424936534E-02  0.11134521252E-01 -0.19240886037E-01  0.23709237876E-01  0.00000000000E+00 0. -1.
     999901    1    3    3    0    0 -0.28110681490E-01  0.10419746628E+00 -0.40132161377E-01  0.88750093677E+00  0.88000000000E+00 0.  1.
        -11    1    4    4    0    0  0.11152445346E-01 -0.59634414205E-01  0.41766222189E-01  0.73656763652E-01  0.51100000000E-03 0. -1.
         11    1    4    4    0    0  0.87157424912E-02 -0.55697573329E-01  0.17606825225E-01  0.59063061701E-01  0.51100000000E-03 0.  1.
</event>
<event>
 8    1  0.1075206E+005  0.1043930E+01  0.7957747E-01            NaN
         13   -1    0    0    0    0  0.00000000000E+00  0.00000000000E+00  0.74505805969E-08  0.10566000000E+00  0.10566000000E+00 0.  1.
     999900   -1    0    0    0    0 -0.00000000000E+00 -0.00000000000E+00 -0.74505805969E-08  0.93827000000E+00  0.93827000000E+00 0.  1.
     999902    2    1    2    0    0 -0.64221095361E-02  0.18671960169E-01  0.12727078934E-01  0.10204382115E+01  0.10201677702E+01 0.  0.
     999903    2    3    3    0    0 -0.32116735325E-01 -0.79536728068E-01  0.96444414647E-01  0.13065523094E+00  0.20290107352E-01 0.  0.
         14    1    1    2    0    0  0.64221095361E-02 -0.18671960169E-01 -0.12727078934E-01  0.23491788472E-01  0.00000000000E+00 0. -1.
     999901    1    3    3    0    0  0.25694625789E-01  0.98208688237E-01 -0.83717335713E-01  0.88978298058E+00  0.88000000000E+00 0.  1.
        -11    1    4    4    0    0 -0.16055443747E-02 -0.16809620111E-01  0.10209137803E-01  0.19739015089E-01  0.51100000000E-03 0. -1.
         11    1    4    4    0    0 -0.30511190951E-01 -0.62727107958E-01  0.86235276844E-01  0.11091621585E+00  0.51100000000E-03 0.  1.
</event>
<event>
 8    1  0.1075206E+005  0.1043930E+01  0.7957747E-01            NaN
         13   -1    0    0    0    0  0.00000000000E+00  0.00000000000E+00  0.74505805969E-08  0.10566000000E+00  0.10566000000E+00 0.  1.
     999900   -1    0    0    0    0 -0.00000000000E+00 -0.00000000000E+00 -0.74505805969E-08  0.93827000000E+00  0.93827000000E+00 0. -1.
     999902    2    1    2    0    0 -0.21117252709E-01  0.40862719438E-02  0.10311838675E-01  0.10200769080E+01  0.10197979840E+01 0.  0.
     999903    2    3    3    0    0 -0.72799056445E-01 -0.21469046469E-01  0.10745662832E+00  0.13285585704E+00  0.18523747064E-01 0.  0.
         14    1    1    2    0    0  0.21117252709E-01 -0.40862719438E-02 -0.10311838675E-01  0.23853091985E-01  0.00000000000E+00 0. -1.
     999901    1    3    3    0    0  0.51681803736E-01  0.25555318413E-01 -0.97144789641E-01  0.88722105097E+00  0.88000000000E+00 0. -1.
        -11    1    4    4    0    0 -0.14202696933E-01 -0.11761186037E-01  0.30469878283E-01  0.35619049689E-01  0.51100000000E-03 0. -1.
         11    1    4    4    0    0 -0.58596359512E-01 -0.97078604321E-02  0.76986750034E-01  0.97236807352E-01  0.51100000000E-03 0.  1.
</event>
<event>
 8    1  0.1075206E+005  0.1043930E+01  0.7957747E-01            NaN
         13   -1    0    0    0    0  0.00000000000E+00  0.00000000000E+00  0.74505805969E-08  0.10566000000E+00  0.10566000000E+00 0. -1.
     999900   -1    0    0    0    0 -0.00000000000E+00 -0.00000000000E+00 -0.74505805969E-08  0.93827000000E+00  0.93827000000E+00 0. -1.
     999902    2    1    2    0    0  0.16233071483E-02  0.20252575502E-01  0.11404335141E-01  0.10206306266E+01  0.10203646481E+01 0.  0.
     999903    2    3    3    0    0  0.11655032182E+00  0.24046317220E-01  0.53796847782E-01  0.13213766867E+00  0.20101237803E-01 0.  0.
         14    1    1    2    0    0 -0.16233071483E-02 -0.20252575502E-01 -0.11404335141E-01  0.23299373394E-01  0.00000000000E+00 0.  1.
     999901    1    3    3    0    0 -0.11492701467E+00 -0.37937417180E-02 -0.42392512641E-01  0.88849295794E+00  0.88000000000E+00 0. -1.
        -11    1    4    4    0    0  0.51580207890E-01  0.20381370049E-02  0.28893367895E-01  0.59158766702E-01  0.51100000000E-03 0.  1.
         11    1    4    4    0    0  0.64970113931E-01  0.22008180215E-01  0.24903479887E-01  0.72978901966E-01  0.51100000000E-03 0. -1.
</event>
<event>
 8    1  0.1075206E+005  0.1043930E+01  0.7957747E-01            NaN
         13   -1    0    0    0    0  0.00000000000E+00  0.00000000000E+00  0.74505805969E-08  0.10566000000E+00  0.10566000000E+00 0.  1.
     999900   -1    0    0    0    0 -0.00000000000E+00 -0.00000000000E+00 -0.74505805969E-08  0.93827000000E+00  0.93827000000E+00 0. -1.
     999902    2    1    2    0    0 -0.55641324068E-02  0.23768197360E-01  0.46642048037E-02  0.10190776041E+01  0.10187745195E+01 0.  0.
     999903    2    3    3    0    0 -0.35965290937E-01  0.68876904216E-02 -0.12233866353E+00  0.12928048649E+00  0.20143315576E-01 0.  0.
         14    1    1    2    0    0  0.55641324068E-02 -0.23768197360E-01 -0.46642048037E-02  0.24852395893E-01  0.00000000000E+00 0.  1.
     999901    1    3    3    0    0  0.30401158530E-01  0.16880506938E-01  0.12700286833E+00  0.88979711762E+00  0.88000000000E+00 0.  1.
        -11    1    4    4    0    0 -0.10991356474E-01  0.23301571920E-02 -0.13757244434E-01  0.17769705825E-01  0.51100000000E-03 0.  1.
         11    1    4    4    0    0 -0.24973934463E-01  0.45575332296E-02 -0.10858141909E+00  0.11151078067E+00  0.51100000000E-03 0. -1.
</event>
<event>
 8    1  0.1075206E+005  0.1043930E+01  0.7957747E-01            NaN
         13   -1    0    0    0    0  0.00000000000E+00  0.00000000000E+00  0.74505805969E-08  0.10566000000E+00  0.10566000000E+00 0.  1.
     999900   -1    0    0    0    0 -0.00000000000E+00 -0.00000000000E+00 -0.74505805969E-08  0.93827000000E+00  0.93827000000E+00 0. -1.
     999902    2    1    2    0    0 -0.36923104712E-01  0.24974330045E-02 -0.85410751383E-02  0.10059497051E+01  0.10052324639E+01 0.  0.
     999903    2    3    3    0    0 -0.87983955103E-01  0.61467266579E-01 -0.52959275382E-01  0.12138335476E+00  0.20244326296E-01 0.  0.
         14    1    1    2    0    0  0.36923104712E-01 -0.24974330045E-02  0.85410751383E-02  0.37980294860E-01  0.00000000000E+00 0.  1.
     999901    1    3    3    0    0  0.51060850391E-01 -0.58969833574E-01  0.44418200243E-01  0.88456635038E+00  0.88000000000E+00 0.  1.
        -11    1    4    4    0    0 -0.42320020315E-01  0.36835157316E-01 -0.18426799907E-01  0.59056083597E-01  0.51100000000E-03 0. -1.
         11    1    4    4    0    0 -0.45663934788E-01  0.24632109263E-01 -0.34532475474E-01  0.62327271161E-01  0.51100000000E-03 0.  1.
</event>
<event>
 8    1  0.1075206E+005  0.1043930E+01  0.7957747E-01            NaN
         13   -1    0    0    0    0  0.00000000000E+00  0.00000000000E+00  0.74505805969E-08  0.10566000000E+00  0.10566000000E+00 0.  1.
     999900   -1    0    0    0    0 -0.00000000000E+00 -0.00000000000E+00 -0.74505805969E-08  0.93827000000E+00  0.93827000000E+00 0. -1.
     999902    2    1    2    0    0 -0.44720263951E-02  0.85306488039E-02  0.22102091743E-01  0.10198203868E+01  0.10195353588E+01 0.  0.
     999903    2    3    3    0    0  0.18512105145E-01  0.12537790816E+00  0.29513225166E-01  0.13176831782E+00  0.20725376472E-01 0.  0.
         14    1    1    2    0    0  0.44720263951E-02 -0.85306488039E-02 -0.22102091743E-01  0.24109613197E-01  0.00000000000E+00 0. -1.
     999901    1    3    3    0    0 -0.22984131540E-01 -0.11684725936E+00 -0.74111334236E-02  0.88805206898E+00  0.88000000000E+00 0.  1.
        -11    1    4    4    0    0 -0.88453348384E-03  0.55173641524E-01  0.75799663201E-02  0.55701257875E-01  0.51100000000E-03 0.  1.
         11    1    4    4    0    0  0.19396638628E-01  0.70204266639E-01  0.21933258846E-01  0.76067059947E-01  0.51100000000E-03 0. -1.
</event>
<event>
 8    1  0.1075206E+005  0.1043930E+01  0.7957747E-01            NaN
         13   -1    0    0    0    0  0.00000000000E+00  0.00000000000E+00  0.74505805969E-08  0.10566000000E+00  0.10566000000E+00 0.  1.
     999900   -1    0    0    0    0 -0.00000000000E+00 -0.00000000000E+00 -0.74505805969E-08  0.93827000000E+00  0.93827000000E+00 0.  1.
     999902    2    1    2    0    0  0.18635290793E-01  0.97142833421E-02  0.25106792593E-01  0.10111887050E+01  0.10106585005E+01 0.  0.
     999903    2    3    3    0    0 -0.21001668094E-01  0.35459842198E-01  0.11659263165E+00  0.12518442676E+00  0.19463516591E-01 0.  0.
         14    1    1    2    0    0 -0.18635290793E-01 -0.97142833421E-02 -0.25106792593E-01  0.32741294998E-01  0.00000000000E+00 0. -1.
     999901    1    3    3    0    0  0.39636958887E-01 -0.25745558856E-01 -0.91485839054E-01  0.88600427824E+00  0.88000000000E+00 0.  1.
        -11    1    4    4    0    0 -0.15665404138E-01  0.82415927782E-02  0.50069122779E-01  0.53108444857E-01  0.51100000000E-03 0. -1.
         11    1    4    4    0    0 -0.53362639565E-02  0.27218249420E-01  0.66523508869E-01  0.72075981906E-01  0.51100000000E-03 0.  1.
</event>
<event>
 8    1  0.1075206E+005  0.1043930E+01  0.7957747E-01            NaN
         13   -1    0    0    0    0  0.00000000000E+00  0.00000000000E+00  0.74505805969E-08  0.10566000000E+00  0.10566000000E+00 0. -1.
     999900   -1    0    0    0    0 -0.00000000000E+00 -0.00000000000E+00 -0.74505805969E-08  0.93827000000E+00  0.93827000000E+00 0. -1.
     999902    2    1    2    0    0 -0.23705001846E-01 -0.19137125343E-02 -0.12989843687E-02  0.10201124273E+01  0.10198343432E+01 0.  0.
     999903    2    3    3    0    0 -0.19169008652E-01 -0.53696943734E-01 -0.11642688637E+00  0.13109245449E+00  0.19473035045E-01 0.  0.
         14    1    1    2    0    0  0.23705001846E-01  0.19137125343E-02  0.12989843687E-02  0.23817572684E-01  0.00000000000E+00 0.  1.
     999901    1    3    3    0    0 -0.45359931939E-02  0.51783231199E-01  0.11512790200E+00  0.88901997283E+00  0.88000000000E+00 0.  1.
        -11    1    4    4    0    0 -0.15215405236E-01 -0.39101073518E-01 -0.10153105138E+00  0.10985999282E+00  0.51100000000E-03 0.  1.
         11    1    4    4    0    0 -0.39536034165E-02 -0.14595870216E-01 -0.14895834989E-01  0.21232461665E-01  0.51100000000E-03 0. -1.
</event>
<event>
 8    1  0.1075206E+005  0.1043930E+01  0.7957747E-01            NaN
         13   -1    0    0    0    0  0.00000000000E+00  0.00000000000E+00  0.74505805969E-08  0.10566000000E+00  0.10566000000E+00 0.  1.
     999900   -1    0    0    0    0 -0.00000000000E+00 -0.00000000000E+00 -0.74505805969E-08  0.93827000000E+00  0.93827000000E+00 0. -1.
     999902    2    1    2    0    0  0.97065136948E-02  0.66658923757E-02 -0.22024613814E-01  0.10189553300E+01  0.10186492185E+01 0.  0.
     999903    2    3    3    0    0 -0.41051828207E-01 -0.77607745326E-01  0.88862007037E-01  0.12655726971E+00  0.20299544016E-01 0.  0.
         14    1    1    2    0    0 -0.97065136948E-02 -0.66658923757E-02  0.22024613814E-01  0.24974670026E-01  0.00000000000E+00 0.  1.
     999901    1    3    3    0    0  0.50758341902E-01  0.84273637702E-01 -0.11088662085E+00  0.89239806027E+00  0.88000000000E+00 0. -1.
        -11    1    4    4    0    0 -0.12901872180E-01 -0.38494426801E-01  0.51486921618E-01  0.65570141217E-01  0.51100000000E-03 0.  1.
         11    1    4    4    0    0 -0.28149956027E-01 -0.39113318526E-01  0.37375085419E-01  0.60987128490E-01  0.51100000000E-03 0. -1.
</event>
<event>
 8    1  0.1075206E+005  0.1043930E+01  0.7957747E-01            NaN
         13   -1    0    0    0    0  0.00000000000E+00  0.00000000000E+00  0.74505805969E-08  0.10566000000E+00  0.10566000000E+00 0.  1.
     999900   -1    0    0    0    0 -0.00000000000E+00 -0.00000000000E+00 -0.74505805969E-08  0.93827000000E+00  0.93827000000E+00 0.  1.
     999902    2    1    2    0    0  0.14539240406E-01 -0.13224846274E-01 -0.13596035493E-01  0.10200315011E+01  0.10197515015E+01 0.  0.
     999903    2    3    3    0    0 -0.53909893865E-01  0.11027444074E+00  0.29133393283E-01  0.12775174562E+00  0.20125232116E-01 0.  0.
         14    1    1    2    0    0 -0.14539240406E-01  0.13224846274E-01  0.13596035493E-01  0.23898498942E-01  0.00000000000E+00 0.  1.
     999901    1    3    3    0    0  0.68449134272E-01 -0.12349928702E+00 -0.42729428776E-01  0.89227975544E+00  0.88000000000E+00 0. -1.
        -11    1    4    4    0    0 -0.36001681461E-02  0.25841022310E-01  0.57567887755E-02  0.26723049652E-01  0.51100000000E-03 0.  1.
         11    1    4    4    0    0 -0.50309725719E-01  0.84433418433E-01  0.23376604508E-01  0.10102869597E+00  0.51100000000E-03 0. -1.
</event>
<event>
 8    1  0.1075206E+005  0.1043930E+01  0.7957747E-01            NaN
         13   -1    0    0    0    0  0.00000000000E+00  0.00000000000E+00  0.74505805969E-08  0.10566000000E+00  0.10566000000E+00 0.  1.
     999900   -1    0    0    0    0 -0.00000000000E+00 -0.00000000000E+00 -0.74505805969E-08  0.93827000000E+00  0.93827000000E+00 0. -1.
     999902    2    1    2    0    0  0.14408509795E-02 -0.18107798651E-01  0.15166470999E-01  0.10202658865E+01  0.10199914161E+01 0.  0.
     999903    2    3    3    0    0 -0.56898674190E-01 -0.25405489713E-01  0.11539614238E+00  0.13262702781E+00  0.19767670496E-01 0.  0.
         14    1    1    2    0    0 -0.14408509795E-02  0.18107798651E-01 -0.15166470999E-01  0.23664113465E-01  0.00000000000E+00 0. -1.
     999901    1    3    3    0    0  0.58339525170E-01  0.72976910623E-02 -0.10022967138E+00  0.88763885872E+00  0.88000000000E+00 0. -1.
        -11    1    4    4    0    0 -0.49802349793E-01 -0.22247409770E-01  0.83082615253E-01  0.99389151142E-01  0.51100000000E-03 0. -1.
         11    1    4    4    0    0 -0.70963243970E-02 -0.31580799427E-02  0.32313527130E-01  0.33237876669E-01  0.51100000000E-03 0.  1.
</event>
<event>
 8    1  0.1075206E+005  0.1043930E+01  0.7957747E-01            NaN
         13   -1    0    0    0    0  0.00000000000E+00  0.00000000000E+00  0.74505805969E-08  0.10566000000E+00  0.10566000000E+00 0. -1.
     999900   -1    0    0    0    0 -0.00000000000E+00 -0.00000000000E+00 -0.74505805969E-08  0.93827000000E+00  0.93827000000E+00 0.  1.
     999902    2    1    2    0    0 -0.78685538585E-02  0.27217381442E-01  0.10051634582E-01  0.10138678086E+01  0.10134220237E+01 0.  0.
     999903    2    3    3    0    0 -0.11220967510E+00  0.15463453384E-04 -0.51775411637E-01  0.12513297890E+00  0.19661071494E-01 0.  0.
         14    1    1    2    0    0  0.78685538585E-02 -0.27217381442E-01 -0.10051634582E-01  0.30062191373E-01  0.00000000000E+00 0.  1.
     999901    1    3    3    0    0  0.10434112125E+00  0.27201917988E-01  0.61827046219E-01  0.88873482973E+00  0.88000000000E+00 0. -1.
        -11    1    4    4    0    0 -0.23956724435E-01 -0.17306818571E-02 -0.28058445870E-02  0.24187885195E-01  0.51100000000E-03 0.  1.
         11    1    4    4    0    0 -0.88252950669E-01  0.17461453104E-02 -0.48969567050E-01  0.10094509371E+00  0.51100000000E-03 0. -1.
</event>
<event>
 8    1  0.1075206E+005  0.1043930E+01  0.7957747E-01            NaN
         13   -1    0    0    0    0  0.00000000000E+00  0.00000000000E+00  0.74505805969E-08  0.10566000000E+00  0.10566000000E+00 0. -1.
     999900   -1    0    0    0    0 -0.00000000000E+00 -0.00000000000E+00 -0.74505805969E-08  0.93827000000E+00  0.93827000000E+00 0. -1.
     999902    2    1    2    0    0 -0.18193823045E-01 -0.47051672960E-02 -0.36382462105E-02  0.10247886669E+01  0.10246098873E+01 0.  0.
     999903    2    3    3    0    0  0.82842497810E-02  0.61091941067E-01  0.11684360416E+00  0.13375206607E+00  0.20888592263E-01 0.  0.
         14    1    1    2    0    0  0.18193823045E-01  0.47051672960E-02  0.36382462105E-02  0.19141333072E-01  0.00000000000E+00 0. -1.
     999901    1    3    3    0    0 -0.26478072826E-01 -0.65797108363E-01 -0.12048185037E+00  0.89103660086E+00  0.88000000000E+00 0. -1.
        -11    1    4    4    0    0  0.19800347349E-02  0.39925427468E-01  0.54355926974E-01  0.67474352270E-01  0.51100000000E-03 0. -1.
         11    1    4    4    0    0  0.63042150460E-02  0.21166513599E-01  0.62487677182E-01  0.66277713795E-01  0.51100000000E-03 0.  1.
</event>
<event>
 8    1  0.1075206E+005  0.1043930E+01  0.7957747E-01            NaN
         13   -1    0    0    0    0  0.00000000000E+00  0.00000000000E+00  0.74505805969E-08  0.10566000000E+00  0.10566000000E+00 0. -1.
     999900   -1    0    0    0    0 -0.00000000000E+00 -0.00000000000E+00 -0.74505805969E-08  0.93827000000E+00  0.93827000000E+00 0.  1.
     999902    2    1    2    0    0  0.74141399637E-02 -0.22127615294E-01 -0.82149072509E-02  0.10191896376E+01  0.10188893129E+01 0.  0.
     999903    2    3    3    0    0 -0.71042624714E-01 -0.17722295140E-01 -0.10662842058E+00  0.13022389565E+00  0.15083389940E-01 0.  0.
         14    1    1    2    0    0 -0.74141399637E-02  0.22127615294E-01  0.82149072509E-02  0.24740362389E-01  0.00000000000E+00 0.  1.
     999901    1    3    3    0    0  0.78456764678E-01 -0.44053201538E-02  0.98413513330E-01  0.88896574196E+00  0.88000000000E+00 0. -1.
        -11    1    4    4    0    0 -0.13100930754E-01  0.23296276910E-02 -0.22032230759E-01  0.25743773325E-01  0.51100000000E-03 0. -1.
         11    1    4    4    0    0 -0.57941693960E-01 -0.20051922831E-01 -0.84596189822E-01  0.10448012233E+00  0.51100000000E-03 0.  1.
</event>
<event>
 8    1  0.1075206E+005  0.1043930E+01  0.7957747E-01            NaN
         13   -1    0    0    0    0  0.00000000000E+00  0.00000000000E+00  0.74505805969E-08  0.10566000000E+00  0.10566000000E+00 0. -1.
     999900   -1    0    0    0    0 -0.00000000000E+00 -0.00000000000E+00 -0.74505805969E-08  0.93827000000E+00  0.93827000000E+00 0.  1.
     999902    2    1    2    0    0  0.20747116777E-01  0.20908211529E-02 -0.11116831395E-01  0.10202995466E+01  0.10200258656E+01 0.  0.
     999903    2    3    3    0    0  0.78539743174E-02 -0.91806651214E-01  0.88840175372E-01  0.12958389520E+00  0.20230250033E-01 0.  0.
         14    1    1    2    0    0 -0.20747116777E-01 -0.20908211529E-02  0.11116831395E-01  0.23630453401E-01  0.00000000000E+00 0. -1.
     999901    1    3    3    0    0  0.12893142460E-01  0.93897472367E-01 -0.99957006767E-01  0.89071565140E+00  0.88000000000E+00 0.  1.
        -11    1    4    4    0    0  0.33150592546E-02 -0.61221304822E-01  0.71277980557E-01  0.94020473384E-01  0.51100000000E-03 0. -1.
         11    1    4    4    0    0  0.45389150627E-02 -0.30585346391E-01  0.17562194815E-01  0.35563421820E-01  0.51100000000E-03 0.  1.
</event>
<event>
 8    1  0.1075206E+005  0.1043930E+01  0.7957747E-01            NaN
         13   -1    0    0    0    0  0.00000000000E+00  0.00000000000E+00  0.74505805969E-08  0.10566000000E+00  0.10566000000E+00 0. -1.
     999900   -1    0    0    0    0 -0.00000000000E+00 -0.00000000000E+00 -0.74505805969E-08  0.93827000000E+00  0.93827000000E+00 0. -1.
     999902    2    1    2    0    0 -0.13189397053E-01 -0.45996207168E-02  0.18592177312E-01  0.10206751992E+01  0.10204102491E+01 0.  0.
     999903    2    3    3    0    0  0.10720029798E+00  0.35582438879E-01 -0.58123430983E-01  0.12826634602E+00  0.17773813594E-01 0.  0.
         14    1    1    2    0    0  0.13189397053E-01  0.45996207168E-02 -0.18592177312E-01  0.23254800850E-01  0.00000000000E+00 0.  1.
     999901    1    3    3    0    0 -0.12038969503E+00 -0.40182059596E-01  0.76715608295E-01  0.89240885313E+00  0.88000000000E+00 0.  1.
        -11    1    4    4    0    0  0.12244611630E-01  0.10392960031E-01 -0.92233963410E-02  0.18527716892E-01  0.51100000000E-03 0.  1.
         11    1    4    4    0    0  0.94955686348E-01  0.25189478848E-01 -0.48900034642E-01  0.10973862913E+00  0.51100000000E-03 0. -1.
</event>
<event>
 8    1  0.1075206E+005  0.1043930E+01  0.7957747E-01            NaN
         13   -1    0    0    0    0  0.00000000000E+00  0.00000000000E+00  0.74505805969E-08  0.10566000000E+00  0.10566000000E+00 0. -1.
     999900   -1    0    0    0    0 -0.00000000000E+00 -0.00000000000E+00 -0.74505805969E-08  0.93827000000E+00  0.93827000000E+00 0. -1.
     999902    2    1    2    0    0 -0.30021333899E-02 -0.17647841858E-01  0.15484936810E-01  0.10202605599E+01  0.10199859644E+01 0.  0.
     999903    2    3    3    0    0  0.99703727081E-01  0.12210192707E-01 -0.78280171444E-01  0.12883928376E+00  0.19541079797E-01 0.  0.
         14    1    1    2    0    0  0.30021333899E-02  0.17647841858E-01 -0.15484936810E-01  0.23669440111E-01  0.00000000000E+00 0.  1.
     999901    1    3    3    0    0 -0.10270586047E+00 -0.29858034565E-01  0.93765108254E-01  0.89142127613E+00  0.88000000000E+00 0.  1.
        -11    1    4    4    0    0  0.80289015775E-02 -0.19599732938E-02 -0.14870712791E-02  0.84129220751E-02  0.51100000000E-03 0.  1.
         11    1    4    4    0    0  0.91674825504E-01  0.14170166001E-01 -0.76793100165E-01  0.12042636169E+00  0.51100000000E-03 0. -1.
</event>
<event>
 8    1  0.1075206E+005  0.1043930E+01  0.7957747E-01            NaN
         13   -1    0    0    0    0  0.00000000000E+00  0.00000000000E+00  0.74505805969E-08  0.10566000000E+00  0.10566000000E+00 0. -1.
     999900   -1    0    0    0    0 -0.00000000000E+00 -0.00000000000E+00 -0.74505805969E-08  0.93827000000E+00  0.93827000000E+00 0.  1.
     999902    2    1    2    0    0 -0.21018780945E-01  0.10329429386E-01 -0.19221360907E-02  0.10204314709E+01  0.10201608726E+01 0.  0.
     999903    2    3    3    0    0  0.54660331997E-01 -0.10786480646E+00 -0.38451737660E-01  0.12856173974E+00  0.20664375876E-01 0.  0.
         14    1    1    2    0    0  0.21018780945E-01 -0.10329429386E-01  0.19221360907E-02  0.23498529124E-01  0.00000000000E+00 0. -1.
     999901    1    3    3    0    0 -0.75679112942E-01  0.11819423584E+00  0.36529601569E-01  0.89186973113E+00  0.88000000000E+00 0.  1.
        -11    1    4    4    0    0  0.35711983602E-01 -0.88799509629E-01 -0.28094467161E-01  0.99750984402E-01  0.51100000000E-03 0. -1.
         11    1    4    4    0    0  0.18948348396E-01 -0.19065296828E-01 -0.10357270499E-01  0.28810755340E-01  0.51100000000E-03 0.  1.
</event>
<event>
 8    1  0.1075206E+005  0.1043930E+01  0.7957747E-01            NaN
         13   -1    0    0    0    0  0.00000000000E+00  0.00000000000E+00  0.74505805969E-08  0.10566000000E+00  0.10566000000E+00 0.  1.
     999900   -1    0    0    0    0 -0.00000000000E+00 -0.00000000000E+00 -0.74505805969E-08  0.93827000000E+00  0.93827000000E+00 0. -1.
     999902    2    1    2    0    0 -0.45530409111E-02  0.22016619936E-01  0.58283933137E-02  0.10207043266E+01  0.10204400475E+01 0.  0.
     999903    2    3    3    0    0 -0.12829057417E+00  0.18858504841E-01 -0.12411746560E-01  0.13185470294E+00  0.20432733796E-01 0.  0.
         14    1    1    2    0    0  0.45530409111E-02 -0.22016619936E-01 -0.58283933137E-02  0.23225673371E-01  0.00000000000E+00 0. -1.
     999901    1    3    3    0    0  0.12373753325E+00  0.31581150948E-02  0.18240139874E-01  0.88884962369E+00  0.88000000000E+00 0.  1.
        -11    1    4    4    0    0 -0.99596409680E-01  0.59237572812E-02 -0.85398784637E-02  0.10013853587E+00  0.51100000000E-03 0. -1.
         11    1    4    4    0    0 -0.28694164486E-01  0.12934747560E-01 -0.38718680965E-02  0.31716167069E-01  0.51100000000E-03 0.  1.
</event>
<event>
 8    1  0.1075206E+005  0.1043930E+01  0.7957747E-01            NaN
         13   -1    0    0    0    0  0.00000000000E+00  0.00000000000E+00  0.74505805969E-08  0.10566000000E+00  0.10566000000E+00 0. -1.
     999900   -1    0    0    0    0 -0.00000000000E+00 -0.00000000000E+00 -0.74505805969E-08  0.93827000000E+00  0.93827000000E+00 0. -1.
     999902    2    1    2    0    0 -0.17362462106E-01  0.10883023797E-01 -0.11623901422E-01  0.10203713417E+01  0.10200993405E+01 0.  0.
     999903    2    3    3    0    0  0.10123331387E+00  0.48320681256E-01  0.60205636419E-01  0.12872902619E+00  0.19062304503E-01 0.  0.
         14    1    1    2    0    0  0.17362462106E-01 -0.10883023797E-01  0.11623901422E-01  0.23558658315E-01  0.00000000000E+00 0. -1.
     999901    1    3    3    0    0 -0.11859577598E+00 -0.37437657459E-01 -0.71829537841E-01  0.89164231550E+00  0.88000000000E+00 0. -1.
        -11    1    4    4    0    0  0.78331135937E-01  0.43900061016E-01  0.53188923270E-01  0.10436620571E+00  0.51100000000E-03 0. -1.
         11    1    4    4    0    0  0.22902177932E-01  0.44206202404E-02  0.70167131484E-02  0.24362820481E-01  0.51100000000E-03 0.  1.
</event>
<event>
 8    1  0.1075206E+005  0.1043930E+01  0.7957747E-01            NaN
         13   -1    0    0    0    0  0.00000000000E+00  0.00000000000E+00  0.74505805969E-08  0.10566000000E+00  0.10566000000E+00 0.  1.
     999900   -1    0    0    0    0 -0.00000000000E+00 -0.00000000000E+00 -0.74505805969E-08  0.93827000000E+00  0.93827000000E+00 0.  1.
     999902    2    1    2    0    0 -0.11254136988E-01  0.30219306556E-02  0.20396682349E-01  0.10204393143E+01  0.10201688987E+01 0.  0.
     999903    2    3    3    0    0  0.12652682274E+00 -0.16278638983E-01  0.99689184576E-02  0.12944838105E+00  0.19582468222E-01 0.  0.
         14    1    1    2    0    0  0.11254136988E-01 -0.30219306556E-02 -0.20396682349E-01  0.23490685709E-01  0.00000000000E+00 0. -1.
     999901    1    3    3    0    0 -0.13778095973E+00  0.19300569638E-01  0.10427763892E-01  0.89099093324E+00  0.88000000000E+00 0.  1.
        -11    1    4    4    0    0  0.79888714563E-01 -0.19692128104E-01  0.53523407106E-02  0.82455413988E-01  0.51100000000E-03 0.  1.
         11    1    4    4    0    0  0.46638108179E-01  0.34134891211E-02  0.46165777470E-02  0.46992967065E-01  0.51100000000E-03 0. -1.
</event>
<event>
 8    1  0.1075206E+005  0.1043930E+01  0.7957747E-01            NaN
         13   -1    0    0    0    0  0.00000000000E+00  0.00000000000E+00  0.74505805969E-08  0.10566000000E+00  0.10566000000E+00 0. -1.
     999900   -1    0    0    0    0 -0.00000000000E+00 -0.00000000000E+00 -0.74505805969E-08  0.93827000000E+00  0.93827000000E+00 0.  1.
     999902    2    1    2    0    0 -0.18469806916E-01  0.39757383303E-02  0.14941280392E-01  0.10198430300E+01  0.10195585436E+01 0.  0.
     999903    2    3    3    0    0 -0.72543083285E-01 -0.95752153710E-01  0.50392527467E-01  0.13185296106E+00  0.20367195251E-01 0.  0.
         14    1    1    2    0    0  0.18469806916E-01 -0.39757383303E-02 -0.14941280392E-01  0.24086969974E-01  0.00000000000E+00 0.  1.
     999901    1    3    3    0    0  0.54073276370E-01  0.99727892040E-01 -0.35451247075E-01  0.88799006897E+00  0.88000000000E+00 0.  1.
        -11    1    4    4    0    0 -0.11162361261E-01 -0.23620662340E-01  0.18092077198E-01  0.31782359520E-01  0.51100000000E-03 0. -1.
         11    1    4    4    0    0 -0.61380722024E-01 -0.72131491370E-01  0.32300450269E-01  0.10007060154E+00  0.51100000000E-03 0.  1.
</event>
<event>
 8    1  0.1075206E+005  0.1043930E+01  0.7957747E-01            NaN
         13   -1    0    0    0    0  0.00000000000E+00  0.00000000000E+00  0.74505805969E-08  0.10566000000E+00  0.10566000000E+00 0. -1.
     999900   -1    0    0    0    0 -0.00000000000E+00 -0.00000000000E+00 -0.74505805969E-08  0.93827000000E+00  0.93827000000E+00 0.  1.
     999902    2    1    2    0    0 -0.94668621732E-02 -0.18850216610E-01 -0.10597025356E-01  0.10203238760E+01  0.10200507648E+01 0.  0.
     999903    2    3    3    0    0 -0.12450365921E+00 -0.40559295013E-01 -0.70341700896E-02  0.13256408712E+00  0.19430390530E-01 0.  0.
         14    1    1    2    0    0  0.94668621732E-02  0.18850216610E-01  0.10597025356E-01  0.23606124037E-01  0.00000000000E+00 0. -1.
     999901    1    3    3    0    0  0.11503679703E+00  0.21709078403E-01 -0.35628552661E-02  0.88775978885E+00  0.88000000000E+00 0.  1.
        -11    1    4    4    0    0 -0.58895399315E-01 -0.14922761813E-01 -0.12059952209E-01  0.61944010598E-01  0.51100000000E-03 0.  1.
         11    1    4    4    0    0 -0.65608259892E-01 -0.25636533200E-01  0.50257821196E-02  0.70620076518E-01  0.51100000000E-03 0. -1.
</event>
<event>
 8    1  0.1075206E+005  0.1043930E+01  0.7957747E-01            NaN
         13   -1    0    0    0    0  0.00000000000E+00  0.00000000000E+00  0.74505805969E-08  0.10566000000E+00  0.10566000000E+00 0. -1.
     999900   -1    0    0    0    0 -0.00000000000E+00 -0.00000000000E+00 -0.74505805969E-08  0.93827000000E+00  0.93827000000E+00 0. -1.
     999902    2    1    2    0    0 -0.20760736966E-01 -0.10475427821E-01  0.20195324859E-02  0.10205885926E+01  0.10203216425E+01 0.  0.
     999903    2    3    3    0    0  0.25878401654E-01 -0.12612219387E+00  0.18411169737E-01  0.13164648566E+00  0.20379562230E-01 0.  0.
         14    1    1    2    0    0  0.20760736966E-01  0.10475427821E-01 -0.20195324859E-02  0.23341407388E-01  0.00000000000E+00 0.  1.
     999901    1    3    3    0    0 -0.46639138620E-01  0.11564676605E+00 -0.16391637251E-01  0.88894210696E+00  0.88000000000E+00 0. -1.
        -11    1    4    4    0    0  0.13707996834E-01 -0.10559242099E+00  0.14801506806E-01  0.10750355469E+00  0.51100000000E-03 0. -1.
         11    1    4    4    0    0  0.12170404820E-01 -0.20529772878E-01  0.36096629310E-02  0.24142930961E-01  0.51100000000E-03 0.  1.
</event>
<event>
 8    1  0.1075206E+005  0.1043930E+01  0.7957747E-01            NaN
         13   -1    0    0    0    0  0.00000000000E+00  0.00000000000E+00  0.74505805969E-08  0.10566000000E+00  0.10566000000E+00 0.  1.
     999900   -1    0    0    0    0 -0.00000000000E+00 -0.00000000000E+00 -0.74505805969E-08  0.93827000000E+00  0.93827000000E+00 0. -1.
     999902    2    1    2    0    0 -0.12543259592E-01  0.14661456998E-02 -0.20087957037E-01  0.10202021901E+01  0.10199262227E+01 0.  0.
     999903    2    3    3    0    0  0.18085842253E-01 -0.12708339222E+00 -0.92361273471E-02  0.13026910960E+00  0.20185356075E-01 0.  0.
         14    1    1    2    0    0  0.12543259592E-01 -0.14661456998E-02  0.20087957037E-01  0.23727809893E-01  0.00000000000E+00 0. -1.
     999901    1    3    3    0    0 -0.30629101844E-01  0.12854953791E+00 -0.10851829690E-01  0.88993308051E+00  0.88000000000E+00 0. -1.
        -11    1    4    4    0    0  0.15437851868E-03 -0.69581639356E-01 -0.77717756700E-02  0.70016355134E-01  0.51100000000E-03 0.  1.
         11    1    4    4    0    0  0.17931463734E-01 -0.57501752859E-01 -0.14643516771E-02  0.60252754463E-01  0.51100000000E-03 0. -1.
</event>
<event>
 8    1  0.1075206E+005  0.1043930E+01  0.7957747E-01            NaN
         13   -1    0    0    0    0  0.00000000000E+00  0.00000000000E+00  0.74505805969E-08  0.10566000000E+00  0.10566000000E+00 0.  1.
     999900   -1    0    0    0    0 -0.00000000000E+00 -0.00000000000E+00 -0.74505805969E-08  0.93827000000E+00  0.93827000000E+00 0. -1.
     999902    2    1    2    0    0  0.23011103814E-02 -0.17669920208E-01 -0.15982643743E-01  0.10199932899E+01  0.10197123836E+01 0.  0.
     999903    2    3    3    0    0 -0.35571183689E-01  0.87570745385E-01 -0.87196989982E-01  0.13005992641E+00  0.19450574266E-01 0.  0.
         14    1    1    2    0    0 -0.23011103814E-02  0.17669920208E-01  0.15982643743E-01  0.23936710095E-01  0.00000000000E+00 0.  1.
     999901    1    3    3    0    0  0.37872294070E-01 -0.10524066559E+00  0.71214346239E-01  0.88993336350E+00  0.88000000000E+00 0.  1.
        -11    1    4    4    0    0 -0.61506800713E-02  0.27741602616E-01 -0.36724491429E-01  0.46436804076E-01  0.51100000000E-03 0. -1.
         11    1    4    4    0    0 -0.29420503618E-01  0.59829142769E-01 -0.50472498553E-01  0.83623122333E-01  0.51100000000E-03 0.  1.
</event>
<event>
 8    1  0.1075206E+005  0.1043930E+01  0.7957747E-01            NaN
         13   -1    0    0    0    0  0.00000000000E+00  0.00000000000E+00  0.74505805969E-08  0.10566000000E+00  0.10566000000E+00 0.  1.
     999900   -1    0    0    0    0 -0.00000000000E+00 -0.00000000000E+00 -0.74505805969E-08  0.93827000000E+00  0.93827000000E+00 0.  1.
     999902    2    1    2    0    0 -0.94684299026E-02  0.41701723557E-02 -0.21431666121E-01  0.10201317266E+01  0.10198540983E+01 0.  0.
     999903    2    3    3    0    0 -0.67268338445E-01  0.50812692376E-01  0.95802116489E-01  0.12925568931E+00  0.20543335450E-01 0.  0.
         14    1    1    2    0    0  0.94684299026E-02 -0.41701723557E-02  0.21431666121E-01  0.23798273362E-01  0.00000000000E+00 0.  1.
     999901    1    3    3    0    0  0.57799908542E-01 -0.46642520020E-01 -0.11723378261E+00  0.89087603733E+00  0.88000000000E+00 0.  1.
        -11    1    4    4    0    0 -0.55160254090E-01  0.41534170895E-01  0.64773573563E-01  0.94676385315E-01  0.51100000000E-03 0.  1.
         11    1    4    4    0    0 -0.12108084355E-01  0.92785214812E-02  0.31028542926E-01  0.34579303994E-01  0.51100000000E-03 0. -1.
</event>
<event>
 8    1  0.1075206E+005  0.1043930E+01  0.7957747E-01            NaN
         13   -1    0    0    0    0  0.00000000000E+00  0.00000000000E+00  0.74505805969E-08  0.10566000000E+00  0.10566000000E+00 0.  1.
     999900   -1    0    0    0    0 -0.00000000000E+00 -0.00000000000E+00 -0.74505805969E-08  0.93827000000E+00  0.93827000000E+00 0. -1.
     999902    2    1    2    0    0  0.24223332688E-02 -0.14250633531E-01 -0.21205658504E-01  0.10182662472E+01  0.10179427892E+01 0.  0.
     999903    2    3    3    0    0  0.50354458194E-01  0.55555745362E-01 -0.10165037873E+00  0.13054907821E+00  0.32988634742E-01 0.  0.
         14    1    1    2    0    0 -0.24223332688E-02  0.14250633531E-01  0.21205658504E-01  0.25663752786E-01  0.00000000000E+00 0.  1.
     999901    1    3    3    0    0 -0.47932124925E-01 -0.69806378893E-01  0.80444720227E-01  0.88771716901E+00  0.88000000000E+00 0.  1.
        -11    1    4    4    0    0  0.30494258344E-01  0.99304063063E-02 -0.37068677175E-01  0.49018983158E-01  0.51100000000E-03 0.  1.
         11    1    4    4    0    0  0.19860199850E-01  0.45625339056E-01 -0.64581701556E-01  0.81530095051E-01  0.51100000000E-03 0. -1.
</event>
<event>
 8    1  0.1075206E+005  0.1043930E+01  0.7957747E-01            NaN
         13   -1    0    0    0    0  0.00000000000E+00  0.00000000000E+00  0.74505805969E-08  0.10566000000E+00  0.10566000000E+00 0.  1.
     999900   -1    0    0    0    0 -0.00000000000E+00 -0.00000000000E+00 -0.74505805969E-08  0.93827000000E+00  0.93827000000E+00 0.  1.
     999902    2    1    2    0    0 -0.15330617301E-01 -0.14056245269E-01 -0.58050362484E-02  0.10223359197E+01  0.10221078360E+01 0.  0.
     999903    2    3    3    0    0 -0.95995013929E-01  0.67145593092E-01  0.57212902408E-01  0.13268894251E+00  0.24687363011E-01 0.  0.
         14    1    1    2    0    0  0.15330617301E-01  0.14056245269E-01  0.58050362484E-02  0.21594080294E-01  0.00000000000E+00 0. -1.
     999901    1    3    3    0    0  0.80664396628E-01 -0.81201838361E-01 -0.63017938657E-01  0.88964697719E+00  0.88000000000E+00 0.  1.
        -11    1    4    4    0    0 -0.74294325957E-01  0.39181108031E-01  0.35716226808E-01  0.91272756474E-01  0.51100000000E-03 0.  1.
         11    1    4    4    0    0 -0.21700687972E-01  0.27964485061E-01  0.21496675600E-01  0.41416186040E-01  0.51100000000E-03 0. -1.
</event>
<event>
 8    1  0.1075206E+005  0.1043930E+01  0.7957747E-01            NaN
         13   -1    0    0    0    0  0.00000000000E+00  0.00000000000E+00  0.74505805969E-08  0.10566000000E+00  0.10566000000E+00 0. -1.
     999900   -1    0    0    0    0 -0.00000000000E+00 -0.00000000000E+00 -0.74505805969E-08  0.93827000000E+00  0.93827000000E+00 0. -1.
     999902    2    1    2    0    0 -0.23434789537E-01 -0.86001554338E-02  0.11794648648E-01  0.10163208390E+01  0.10159457574E+01 0.  0.
     999903    2    3    3    0    0  0.12132416507E+00 -0.18064302651E-01  0.73634017722E-02  0.12443275131E+00  0.19581058488E-01 0.  0.
         14    1    1    2    0    0  0.23434789537E-01  0.86001554338E-02 -0.11794648648E-01  0.27609160996E-01  0.00000000000E+00 0.  1.
     999901    1    3    3    0    0 -0.14475895461E+00  0.94641472175E-02  0.44312468760E-02  0.89188808769E+00  0.88000000000E+00 0.  1.
        -11    1    4    4    0    0  0.90545941509E-01 -0.72475083590E-02  0.11427572804E-01  0.91552959768E-01  0.51100000000E-03 0.  1.
         11    1    4    4    0    0  0.30778223566E-01 -0.10816794292E-01 -0.40641710319E-02  0.32879791541E-01  0.51100000000E-03 0. -1.
</event>
<event>
 8    1  0.1075206E+005  0.1043930E+01  0.7957747E-01            NaN
         13   -1    0    0    0    0  0.00000000000E+00  0.00000000000E+00  0.74505805969E-08  0.10566000000E+00  0.10566000000E+00 0.  1.
     999900   -1    0    0    0    0 -0.00000000000E+00 -0.00000000000E+00 -0.74505805969E-08  0.93827000000E+00  0.93827000000E+00 0.  1.
     999902    2    1    2    0    0 -0.21164379828E-01  0.10375537772E-01 -0.51041186830E-02  0.10198128943E+01  0.10195276871E+01 0.  0.
     999903    2    3    3    0    0  0.30636010899E-01  0.30672057583E-01 -0.12192963976E+00  0.13035045468E+00  0.15654510699E-01 0.  0.
         14    1    1    2    0    0  0.21164379828E-01 -0.10375537772E-01  0.51041186830E-02  0.24117105653E-01  0.00000000000E+00 0. -1.
     999901    1    3    3    0    0 -0.51800390727E-01 -0.20296519811E-01  0.11682552107E+00  0.88946243966E+00  0.88000000000E+00 0. -1.
        -11    1    4    4    0    0  0.13667918203E-01  0.24432416696E-01 -0.74993069209E-01  0.80049837752E-01  0.51100000000E-03 0.  1.
         11    1    4    4    0    0  0.16968092696E-01  0.62396408865E-02 -0.46936570547E-01  0.50300616933E-01  0.51100000000E-03 0. -1.
</event>
<event>
 8    1  0.1075206E+005  0.1043930E+01  0.7957747E-01            NaN
         13   -1    0    0    0    0  0.00000000000E+00  0.00000000000E+00  0.74505805969E-08  0.10566000000E+00  0.10566000000E+00 0. -1.
     999900   -1    0    0    0    0 -0.00000000000E+00 -0.00000000000E+00 -0.74505805969E-08  0.93827000000E+00  0.93827000000E+00 0. -1.
     999902    2    1    2    0    0  0.83282818092E-02 -0.66009680855E-02 -0.22542292533E-01  0.10190083626E+01  0.10187035658E+01 0.  0.
     999903    2    3    3    0    0  0.31405194110E-02 -0.12323934852E+00 -0.39947315671E-01  0.13112641128E+00  0.20013690841E-01 0.  0.
         14    1    1    2    0    0 -0.83282818092E-02  0.66009680855E-02  0.22542292533E-01  0.24921637390E-01  0.00000000000E+00 0. -1.
     999901    1    3    3    0    0  0.51877623982E-02  0.11663838043E+00  0.17405023139E-01  0.88788195133E+00  0.88000000000E+00 0.  1.
        -11    1    4    4    0    0 -0.30600488862E-02 -0.22969209956E-01 -0.46182115332E-03  0.23182383505E-01  0.51100000000E-03 0.  1.
         11    1    4    4    0    0  0.62005682971E-02 -0.10027013856E+00 -0.39485494518E-01  0.10794402777E+00  0.51100000000E-03 0. -1.
</event>
<event>
 8    1  0.1075206E+005  0.1043930E+01  0.7957747E-01            NaN
         13   -1    0    0    0    0  0.00000000000E+00  0.00000000000E+00  0.74505805969E-08  0.10566000000E+00  0.10566000000E+00 0. -1.
     999900   -1    0    0    0    0 -0.00000000000E+00 -0.00000000000E+00 -0.74505805969E-08  0.93827000000E+00  0.93827000000E+00 0.  1.
     999902    2    1    2    0    0  0.19311689327E-01 -0.60993503609E-02  0.12673286615E-01  0.10200395079E+01  0.10197596982E+01 0.  0.
     999903    2    3    3    0    0 -0.75514600551E-01 -0.99334089434E-01 -0.26887412531E-01  0.12916926440E+00  0.19800244784E-01 0.  0.
         14    1    1    2    0    0 -0.19311689327E-01  0.60993503609E-02 -0.12673286615E-01  0.23890492107E-01  0.00000000000E+00 0.  1.
     999901    1    3    3    0    0  0.94826289878E-01  0.93234739073E-01  0.39560699146E-01  0.89087024349E+00  0.88000000000E+00 0.  1.
        -11    1    4    4    0    0 -0.51001783036E-01 -0.60999125112E-01 -0.25998321769E-01  0.83655537732E-01  0.51100000000E-03 0. -1.
         11    1    4    4    0    0 -0.24512817515E-01 -0.38334964321E-01 -0.88909076139E-03  0.45513726670E-01  0.51100000000E-03 0.  1.
</event>
<event>
 8    1  0.1075206E+005  0.1043930E+01  0.7957747E-01            NaN
         13   -1    0    0    0    0  0.00000000000E+00  0.00000000000E+00  0.74505805969E-08  0.10566000000E+00  0.10566000000E+00 0. -1.
     999900   -1    0    0    0    0 -0.00000000000E+00 -0.00000000000E+00 -0.74505805969E-08  0.93827000000E+00  0.93827000000E+00 0. -1.
     999902    2    1    2    0    0 -0.31331038768E-02 -0.85036785125E-02 -0.21821779437E-01  0.10203012263E+01  0.10200275847E+01 0.  0.
     999903    2    3    3    0    0  0.46059235282E-01  0.10143797152E-01  0.11723581711E+00  0.12783014570E+00  0.19286253108E-01 0.  0.
         14    1    1    2    0    0  0.31331038768E-02  0.85036785125E-02  0.21821779437E-01  0.23628773687E-01  0.00000000000E+00 0. -1.
     999901    1    3    3    0    0 -0.49192339159E-01 -0.18647475665E-01 -0.13905759655E+00  0.89247108062E+00  0.88000000000E+00 0. -1.
        -11    1    4    4    0    0  0.46641203149E-01  0.12642467046E-01  0.11178195797E+00  0.12178136579E+00  0.51100000000E-03 0.  1.
         11    1    4    4    0    0 -0.58196786708E-03 -0.24986698938E-02  0.54538591430E-02  0.60487799091E-02  0.51100000000E-03 0. -1.
</event>
<event>
 8    1  0.1075206E+005  0.1043930E+01  0.7957747E-01            NaN
         13   -1    0    0    0    0  0.00000000000E+00  0.00000000000E+00  0.74505805969E-08  0.10566000000E+00  0.10566000000E+00 0.  1.
     999900   -1    0    0    0    0 -0.00000000000E+00 -0.00000000000E+00 -0.74505805969E-08  0.93827000000E+00  0.93827000000E+00 0.  1.
     999902    2    1    2    0    0  0.20463377155E-01  0.12609419876E-01 -0.66691399595E-02  0.10189855677E+01  0.10186802062E+01 0.  0.
     999903    2    3    3    0    0  0.25531135348E-01 -0.11215313208E+00  0.52864480980E-01  0.12817939993E+00  0.20128122383E-01 0.  0.
         14    1    1    2    0    0 -0.20463377155E-01 -0.12609419876E-01  0.66691399595E-02  0.24944432285E-01  0.00000000000E+00 0.  1.
     999901    1    3    3    0    0 -0.50677581925E-02  0.12476255195E+00 -0.59533620939E-01  0.89080616779E+00  0.88000000000E+00 0.  1.
        -11    1    4    4    0    0  0.10999070062E-01 -0.15597462781E-01  0.97905025135E-02  0.21456361478E-01  0.51100000000E-03 0. -1.
         11    1    4    4    0    0  0.14532065286E-01 -0.96555669295E-01  0.43073978466E-01  0.10672303845E+00  0.51100000000E-03 0.  1.
</event>
<event>
 8    1  0.1075206E+005  0.1043930E+01  0.7957747E-01            NaN
         13   -1    0    0    0    0  0.00000000000E+00  0.00000000000E+00  0.74505805969E-08  0.10566000000E+00  0.10566000000E+00 0. -1.
     999900   -1    0    0    0    0 -0.00000000000E+00 -0.00000000000E+00 -0.74505805969E-08  0.93827000000E+00  0.93827000000E+00 0. -1.
     999902    2    1    2    0    0 -0.95867821712E-02 -0.35192304078E-02  0.20831094347E-01  0.10207303046E+01  0.10204666231E+01 0.  0.
     999903    2    3    3    0    0 -0.11796288740E+00 -0.40893953682E-01  0.43200918133E-01  0.13301263600E+00  0.15442919275E-01 0.  0.
         14    1    1    2    0    0  0.95867821712E-02  0.35192304078E-02 -0.20831094347E-01  0.23199695402E-01  0.00000000000E+00 0.  1.
     999901    1    3    3    0    0  0.10837610523E+00  0.37374723274E-01 -0.22369823785E-01  0.88771766860E+00  0.88000000000E+00 0. -1.
        -11    1    4    4    0    0 -0.31293648848E-01 -0.17943242339E-01  0.14370673602E-01  0.38833359173E-01  0.51100000000E-03 0. -1.
         11    1    4    4    0    0 -0.86669238556E-01 -0.22950711343E-01  0.28830244531E-01  0.94179276827E-01  0.51100000000E-03 0.  1.
</event>
<event>
 8    1  0.1075206E+005  0.1043930E+01  0.7957747E-01            NaN
         13   -1    0    0    0    0  0.00000000000E+00  0.00000000000E+00  0.74505805969E-08  0.10566000000E+00  0.10566000000E+00 0.  1.
     999900   -1    0    0    0    0 -0.00000000000E+00 -0.00000000000E+00 -0.74505805969E-08  0.93827000000E+00  0.93827000000E+00 0. -1.
     999902    2    1    2    0    0 -0.81707695742E-03  0.19853839544E-01  0.14090383983E-01  0.10195705772E+01  0.10192795399E+01 0.  0.
     999903    2    3    3    0    0 -0.79484115817E-01  0.30800207534E-01 -0.95431421951E-01  0.12923167993E+00  0.18091250676E-01 0.  0.
         14    1    1    2    0    0  0.81707695742E-03 -0.19853839544E-01 -0.14090383983E-01  0.24359422822E-01  0.00000000000E+00 0.  1.
     999901    1    3    3    0    0  0.78667038860E-01 -0.10946367989E-01  0.10952180593E+00  0.89033889725E+00  0.88000000000E+00 0.  1.
        -11    1    4    4    0    0 -0.47410725307E-01  0.27604043055E-01 -0.62030189602E-01  0.82811627264E-01  0.51100000000E-03 0.  1.
         11    1    4    4    0    0 -0.32073390510E-01  0.31961644784E-02 -0.33401232349E-01  0.46420052667E-01  0.51100000000E-03 0. -1.
</event>
<event>
 8    1  0.1075206E+005  0.1043930E+01  0.7957747E-01            NaN
         13   -1    0    0    0    0  0.00000000000E+00  0.00000000000E+00  0.74505805969E-08  0.10566000000E+00  0.10566000000E+00 0. -1.
     999900   -1    0    0    0    0 -0.00000000000E+00 -0.00000000000E+00 -0.74505805969E-08  0.93827000000E+00  0.93827000000E+00 0.  1.
     999902    2    1    2    0    0 -0.20081455378E-01  0.10747787210E-01  0.15489637997E-02  0.10211006533E+01  0.10208454169E+01 0.  0.
     999903    2    3    3    0    0 -0.34297695225E-01 -0.80459594418E-01 -0.95775870464E-01  0.13093605547E+00  0.17920798740E-01 0.  0.
         14    1    1    2    0    0  0.20081455378E-01 -0.10747787210E-01 -0.15489637997E-02  0.22829346658E-01  0.00000000000E+00 0. -1.
     999901    1    3    3    0    0  0.14216239848E-01  0.91207381627E-01  0.97324834264E-01  0.89016459787E+00  0.88000000000E+00 0. -1.
        -11    1    4    4    0    0 -0.93513397546E-02 -0.15496241082E-01 -0.30797423098E-01  0.35725669110E-01  0.51100000000E-03 0. -1.
         11    1    4    4    0    0 -0.24946355471E-01 -0.64963353335E-01 -0.64978447366E-01  0.95210386361E-01  0.51100000000E-03 0.  1.
</event>
<event>
 8    1  0.1075206E+005  0.1043930E+01  0.7957747E-01            NaN
         13   -1    0    0    0    0  0.00000000000E+00  0.00000000000E+00  0.74505805969E-08  0.10566000000E+00  0.10566000000E+00 0.  1.
     999900   -1    0    0    0    0 -0.00000000000E+00 -0.00000000000E+00 -0.74505805969E-08  0.93827000000E+00  0.93827000000E+00 0.  1.
     999902    2    1    2    0    0  0.17117947794E-01  0.34731183059E-03  0.16019668302E-01  0.10204827286E+01  0.10202133232E+01 0.  0.
     999903    2    3    3    0    0  0.83048237360E-01 -0.21122415996E-01 -0.96387369230E-01  0.13062706933E+00  0.20730173890E-01 0.  0.
         14    1    1    2    0    0 -0.17117947794E-01 -0.34731183059E-03 -0.16019668302E-01  0.23447271370E-01  0.00000000000E+00 0. -1.
     999901    1    3    3    0    0 -0.65930289565E-01  0.21469727827E-01  0.11240703753E+00  0.88985565930E+00  0.88000000000E+00 0. -1.
        -11    1    4    4    0    0  0.37269193655E-01 -0.55284118671E-03 -0.49297069641E-01  0.61804212035E-01  0.51100000000E-03 0.  1.
         11    1    4    4    0    0  0.45779043704E-01 -0.20569574810E-01 -0.47090299590E-01  0.68822857299E-01  0.51100000000E-03 0. -1.
</event>
<event>
 8    1  0.1075206E+005  0.1043930E+01  0.7957747E-01            NaN
         13   -1    0    0    0    0  0.00000000000E+00  0.00000000000E+00  0.74505805969E-08  0.10566000000E+00  0.10566000000E+00 0.  1.
     999900   -1    0    0    0    0 -0.00000000000E+00 -0.00000000000E+00 -0.74505805969E-08  0.93827000000E+00  0.93827000000E+00 0.  1.
     999902    2    1    2    0    0 -0.21164789910E-01 -0.26412977052E-02  0.92827158145E-02  0.10206685813E+01  0.10204034787E+01 0.  0.
     999903    2    3    3    0    0 -0.11769827515E+00 -0.37660124126E-01 -0.45281755610E-01  0.13301869905E+00  0.19296838702E-01 0.  0.
         14    1    1    2    0    0  0.21164789910E-01  0.26412977052E-02 -0.92827158145E-02  0.23261418667E-01  0.00000000000E+00 0. -1.
     999901    1    3    3    0    0  0.96533485237E-01  0.35018826421E-01  0.54564471425E-01  0.88764988228E+00  0.88000000000E+00 0. -1.
        -11    1    4    4    0    0 -0.30346851041E-01 -0.17049242408E-01 -0.18130053658E-01  0.39250070082E-01  0.51100000000E-03 0.  1.
         11    1    4    4    0    0 -0.87351424106E-01 -0.20610881718E-01 -0.27151701952E-01  0.93768628967E-01  0.51100000000E-03 0. -1.
</event>
<event>
 8    1  0.1075206E+005  0.1043930E+01  0.7957747E-01            NaN
         13   -1    0    0    0    0  0.00000000000E+00  0.00000000000E+00  0.74505805969E-08  0.10566000000E+00  0.10566000000E+00 0.  1.
     999900   -1    0    0    0    0 -0.00000000000E+00 -0.00000000000E+00 -0.74505805969E-08  0.93827000000E+00  0.93827000000E+00 0. -1.
     999902    2    1    2    0    0  0.14388258850E-03  0.19646909427E-01  0.13026283927E-01  0.10203565865E+01  0.10200842405E+01 0.  0.
     999903    2    3    3    0    0 -0.11377770096E+00 -0.49466807838E-01 -0.30484114715E-01  0.12926288326E+00  0.19679467121E-01 0.  0.
         14    1    1    2    0    0 -0.14388258850E-03 -0.19646909427E-01 -0.13026283927E-01  0.23573413524E-01  0.00000000000E+00 0.  1.
     999901    1    3    3    0    0  0.11392158355E+00  0.69113717265E-01  0.43510398642E-01  0.89109370321E+00  0.88000000000E+00 0.  1.
        -11    1    4    4    0    0 -0.75620292333E-01 -0.32329620934E-01 -0.29643826733E-01  0.87422254527E-01  0.51100000000E-03 0.  1.
         11    1    4    4    0    0 -0.38157408629E-01 -0.17137186904E-01 -0.84028798149E-03  0.41840628738E-01  0.51100000000E-03 0. -1.
</event>
<event>
 8    1  0.1075206E+005  0.1043930E+01  0.7957747E-01            NaN
         13   -1    0    0    0    0  0.00000000000E+00  0.00000000000E+00  0.74505805969E-08  0.10566000000E+00  0.10566000000E+00 0. -1.
     999900   -1    0    0    0    0 -0.00000000000E+00 -0.00000000000E+00 -0.74505805969E-08  0.93827000000E+00  0.93827000000E+00 0.  1.
     999902    2    1    2    0    0  0.89292570047E-02 -0.20525941465E-01 -0.79158832273E-02  0.10201874831E+01  0.10199111694E+01 0.  0.
     999903    2    3    3    0    0  0.17957561529E-01 -0.11334750623E+00 -0.64544527264E-01  0.13344955306E+00  0.21740653794E-01 0.  0.
         14    1    1    2    0    0 -0.89292570047E-02  0.20525941465E-01  0.79158832273E-02  0.23742516946E-01  0.00000000000E+00 0.  1.
     999901    1    3    3    0    0 -0.90283045246E-02  0.92821564763E-01  0.56628644036E-01  0.88673793000E+00  0.88000000000E+00 0.  1.
        -11    1    4    4    0    0  0.21507421273E-02 -0.57175040731E-01 -0.41611550551E-01  0.70748803767E-01  0.51100000000E-03 0. -1.
         11    1    4    4    0    0  0.15806819402E-01 -0.56172465497E-01 -0.22932976713E-01  0.62700749290E-01  0.51100000000E-03 0.  1.
</event>
<event>
 8    1  0.1075206E+005  0.1043930E+01  0.7957747E-01            NaN
         13   -1    0    0    0    0  0.00000000000E+00  0.00000000000E+00  0.74505805969E-08  0.10566000000E+00  0.10566000000E+00 0.  1.
     999900   -1    0    0    0    0 -0.00000000000E+00 -0.00000000000E+00 -0.74505805969E-08  0.93827000000E+00  0.93827000000E+00 0. -1.
     999902    2    1    2    0    0 -0.30608763042E-01  0.45680279810E-02 -0.17456115142E-01  0.10083986165E+01  0.10077724399E+01 0.  0.
     999903    2    3    3    0    0 -0.12039753757E+00  0.80442026775E-02 -0.19483229264E-01  0.12382062845E+00  0.19790794764E-01 0.  0.
         14    1    1    2    0    0  0.30608763042E-01 -0.45680279810E-02  0.17456115142E-01  0.35531383458E-01  0.00000000000E+00 0.  1.
     999901    1    3    3    0    0  0.89788774531E-01 -0.34761746965E-02  0.20271141225E-02  0.88457798809E+00  0.88000000000E+00 0. -1.
        -11    1    4    4    0    0 -0.43214241611E-01 -0.63033828446E-02 -0.46118079233E-02  0.43917345168E-01  0.51100000000E-03 0. -1.
         11    1    4    4    0    0 -0.77183295962E-01  0.14347585522E-01 -0.14871421341E-01  0.79903283284E-01  0.51100000000E-03 0.  1.
</event>
<event>
 8    1  0.1075206E+005  0.1043930E+01  0.7957747E-01            NaN
         13   -1    0    0    0    0  0.00000000000E+00  0.00000000000E+00  0.74505805969E-08  0.10566000000E+00  0.10566000000E+00 0. -1.
     999900   -1    0    0    0    0 -0.00000000000E+00 -0.00000000000E+00 -0.74505805969E-08  0.93827000000E+00  0.93827000000E+00 0.  1.
     999902    2    1    2    0    0  0.10475109740E-01 -0.62822682088E-02  0.20607112910E-01  0.10199748769E+01  0.10196935332E+01 0.  0.
     999903    2    3    3    0    0 -0.20437595447E-01 -0.98922988185E-01 -0.77988534566E-01  0.12909946476E+00  0.19519410304E-01 0.  0.
         14    1    1    2    0    0 -0.10475109740E-01  0.62822682088E-02 -0.20607112910E-01  0.23955123051E-01  0.00000000000E+00 0.  1.
     999901    1    3    3    0    0  0.30912705187E-01  0.92640719976E-01  0.98595647476E-01  0.89087541219E+00  0.88000000000E+00 0. -1.
        -11    1    4    4    0    0 -0.19065347051E-01 -0.55627780431E-01 -0.37107202313E-01  0.69535192517E-01  0.51100000000E-03 0.  1.
         11    1    4    4    0    0 -0.13722483951E-02 -0.43295207755E-01 -0.40881332253E-01  0.59564272244E-01  0.51100000000E-03 0. -1.
</event>
<event>
 8    1  0.1075206E+005  0.1043930E+01  0.7957747E-01            NaN
         13   -1    0    0    0    0  0.00000000000E+00  0.00000000000E+00  0.74505805969E-08  0.10566000000E+00  0.10566000000E+00 0.  1.
     999900   -1    0    0    0    0 -0.00000000000E+00 -0.00000000000E+00 -0.74505805969E-08  0.93827000000E+00  0.93827000000E+00 0. -1.
     999902    2    1    2    0    0  0.13435888483E-01  0.15492774397E-01  0.12905946876E-01  0.10196995930E+01  0.10194116673E+01 0.  0.
     999903    2    3    3    0    0 -0.10686373639E+00 -0.51064782104E-01  0.45620104900E-01  0.12842403282E+00  0.19597655642E-01 0.  0.
         14    1    1    2    0    0 -0.13435888483E-01 -0.15492774397E-01 -0.12905946876E-01  0.24230406984E-01  0.00000000000E+00 0. -1.
     999901    1    3    3    0    0  0.12029962488E+00  0.66557556500E-01 -0.32714158024E-01  0.89127556020E+00  0.88000000000E+00 0.  1.
        -11    1    4    4    0    0 -0.90415766349E-01 -0.35706085609E-01  0.40668781230E-01  0.10537621288E+00  0.51100000000E-03 0. -1.
         11    1    4    4    0    0 -0.16447970045E-01 -0.15358696495E-01  0.49513236697E-02  0.23047819934E-01  0.51100000000E-03 0.  1.
</event>
<event>
 8    1  0.1075206E+005  0.1043930E+01  0.7957747E-01            NaN
         13   -1    0    0    0    0  0.00000000000E+00  0.00000000000E+00  0.74505805969E-08  0.10566000000E+00  0.10566000000E+00 0. -1.
     999900   -1    0    0    0    0 -0.00000000000E+00 -0.00000000000E+00 -0.74505805969E-08  0.93827000000E+00  0.93827000000E+00 0.  1.
     999902    2    1    2    0    0  0.40567530697E-02  0.24638401732E-01 -0.64728977608E-03  0.10189514678E+01  0.10186452605E+01 0.  0.
     999903    2    3    3    0    0 -0.18728536440E-01  0.11409192569E+00 -0.60728170647E-01  0.13208574258E+00  0.19773899451E-01 0.  0.
         14    1    1    2    0    0 -0.40567530697E-02 -0.24638401732E-01  0.64728977608E-03  0.24978532172E-01  0.00000000000E+00 0.  1.
     999901    1    3    3    0    0  0.22785289510E-01 -0.89453523956E-01  0.60080880871E-01  0.88686572524E+00  0.88000000000E+00 0. -1.
        -11    1    4    4    0    0 -0.15844795717E-01  0.51058344917E-01 -0.35232461689E-01  0.64028115814E-01  0.51100000000E-03 0. -1.
         11    1    4    4    0    0 -0.28837407231E-02  0.63033580771E-01 -0.25495708958E-01  0.68057626771E-01  0.51100000000E-03 0.  1.
</event>
<event>
 8    1  0.1075206E+005  0.1043930E+01  0.7957747E-01            NaN
         13   -1    0    0    0    0  0.00000000000E+00  0.00000000000E+00  0.74505805969E-08  0.10566000000E+00  0.10566000000E+00 0. -1.
     999900   -1    0    0    0    0 -0.00000000000E+00 -0.00000000000E+00 -0.74505805969E-08  0.93827000000E+00  0.93827000000E+00 0. -1.
     999902    2    1    2    0    0 -0.17803270697E-01 -0.57659476012E-02 -0.13148679995E-01  0.10210588307E+01  0.10208026476E+01 0.  0.
     999903    2    3    3    0    0 -0.11770783759E+00 -0.59126317556E-01  0.64625145150E-02  0.13358328146E+00  0.21252588838E-01 0.  0.
         14    1    1    2    0    0  0.17803270697E-01  0.57659476012E-02  0.13148679995E-01  0.22871169294E-01  0.00000000000E+00 0.  1.
     999901    1    3    3    0    0  0.99904566895E-01  0.53360369955E-01 -0.19611194510E-01  0.88747554925E+00  0.88000000000E+00 0. -1.
        -11    1    4    4    0    0 -0.16484327505E-01 -0.16142000896E-01 -0.26716968374E-02  0.23231365246E-01  0.51100000000E-03 0. -1.
         11    1    4    4    0    0 -0.10122351009E+00 -0.42984316660E-01  0.91342113524E-02  0.11035191621E+00  0.51100000000E-03 0.  1.
</event>
<event>
 8    1  0.1075206E+005  0.1043930E+01  0.7957747E-01            NaN
         13   -1    0    0    0    0  0.00000000000E+00  0.00000000000E+00  0.74505805969E-08  0.10566000000E+00  0.10566000000E+00 0. -1.
     999900   -1    0    0    0    0 -0.00000000000E+00 -0.00000000000E+00 -0.74505805969E-08  0.93827000000E+00  0.93827000000E+00 0.  1.
     999902    2    1    2    0    0 -0.20919685512E-01  0.79259842182E-02 -0.79368884882E-02  0.10201929263E+01  0.10199167408E+01 0.  0.
     999903    2    3    3    0    0  0.89660507250E-01  0.51820668751E-01 -0.75312428186E-01  0.12963457017E+00  0.20218102650E-01 0.  0.
         14    1    1    2    0    0  0.20919685512E-01 -0.79259842182E-02  0.79368884882E-02  0.23737073674E-01  0.00000000000E+00 0. -1.
     999901    1    3    3    0    0 -0.11058019276E+00 -0.43894684533E-01  0.67375539698E-01  0.89055835615E+00  0.88000000000E+00 0. -1.
        -11    1    4    4    0    0  0.22706082283E-01  0.49776591998E-02 -0.22388367116E-01  0.32277598531E-01  0.51100000000E-03 0.  1.
         11    1    4    4    0    0  0.66954424967E-01  0.46843009552E-01 -0.52924061069E-01  0.97356971644E-01  0.51100000000E-03 0. -1.
</event>
<event>
 8    1  0.1075206E+005  0.1043930E+01  0.7957747E-01            NaN
         13   -1    0    0    0    0  0.00000000000E+00  0.00000000000E+00  0.74505805969E-08  0.10566000000E+00  0.10566000000E+00 0.  1.
     999900   -1    0    0    0    0 -0.00000000000E+00 -0.00000000000E+00 -0.74505805969E-08  0.93827000000E+00  0.93827000000E+00 0. -1.
     999902    2    1    2    0    0  0.13459963021E-01 -0.39434497904E-02 -0.27045729123E-01  0.10134637422E+01  0.10130057077E+01 0.  0.
     999903    2    3    3    0    0  0.30315636934E-01  0.11163577226E+00 -0.44461505154E-01  0.12557524719E+00  0.20266567939E-01 0.  0.
         14    1    1    2    0    0 -0.13459963021E-01  0.39434497904E-02  0.27045729123E-01  0.30466257804E-01  0.00000000000E+00 0.  1.
     999901    1    3    3    0    0 -0.16855673912E-01 -0.11557922205E+00  0.17415776030E-01  0.88788849501E+00  0.88000000000E+00 0. -1.
        -11    1    4    4    0    0  0.15074661612E-01  0.52446332440E-01 -0.10239000021E-01  0.55524422118E-01  0.51100000000E-03 0.  1.
         11    1    4    4    0    0  0.15240975322E-01  0.59189439816E-01 -0.34222505132E-01  0.70050825071E-01  0.51100000000E-03 0. -1.
</event>
<event>
 8    1  0.1075206E+005  0.1043930E+01  0.7957747E-01            NaN
         13   -1    0    0    0    0  0.00000000000E+00  0.00000000000E+00  0.74505805969E-08  0.10566000000E+00  0.10566000000E+00 0.  1.
     999900   -1    0    0    0    0 -0.00000000000E+00 -0.00000000000E+00 -0.74505805969E-08  0.93827000000E+00  0.93827000000E+00 0.  1.
     999902    2    1    2    0    0  0.12933438352E-01 -0.15069246212E-01 -0.12550086321E-01  0.10204382850E+01  0.10201678454E+01 0.  0.
     999903    2    3    3    0    0  0.55296020244E-01 -0.11877619297E+00 -0.17501767517E-01  0.13332260011E+00  0.17411776553E-01 0.  0.
         14    1    1    2    0    0 -0.12933438352E-01  0.15069246212E-01  0.12550086321E-01  0.23491715043E-01  0.00000000000E+00 0.  1.
     999901    1    3    3    0    0 -0.42362581892E-01  0.10370694676E+00  0.49516811960E-02  0.88711568484E+00  0.88000000000E+00 0.  1.
        -11    1    4    4    0    0  0.44264268672E-01 -0.10071604987E+00 -0.20602854162E-01  0.11192759670E+00  0.51100000000E-03 0.  1.
         11    1    4    4    0    0  0.11031751572E-01 -0.18060143101E-01  0.31010866451E-02  0.21395003411E-01  0.51100000000E-03 0. -1.
</event>
<event>
 8    1  0.1075206E+005  0.1043930E+01  0.7957747E-01            NaN
         13   -1    0    0    0    0  0.00000000000E+00  0.00000000000E+00  0.74505805969E-08  0.10566000000E+00  0.10566000000E+00 0. -1.
     999900   -1    0    0    0    0 -0.00000000000E+00 -0.00000000000E+00 -0.74505805969E-08  0.93827000000E+00  0.93827000000E+00 0. -1.
     999902    2    1    2    0    0  0.21057862309E-01 -0.60175201175E-02 -0.90562309744E-02  0.10202306449E+01  0.10199553467E+01 0.  0.
     999903    2    3    3    0    0  0.45818160357E-01  0.95397897243E-01  0.73191887607E-01  0.13025148095E+00  0.20207257612E-01 0.  0.
         14    1    1    2    0    0 -0.21057862309E-01  0.60175201175E-02  0.90562309744E-02  0.23699355115E-01  0.00000000000E+00 0. -1.
     999901    1    3    3    0    0 -0.24760298047E-01 -0.10141541736E+00 -0.82248118581E-01  0.88997916394E+00  0.88000000000E+00 0. -1.
        -11    1    4    4    0    0  0.41759050295E-01  0.68778435117E-01  0.50197038252E-01  0.94838258045E-01  0.51100000000E-03 0.  1.
         11    1    4    4    0    0  0.40591100611E-02  0.26619462125E-01  0.22994849354E-01  0.35413222900E-01  0.51100000000E-03 0. -1.
</event>
